FOO
135168
    1MOL0     O    1   4.287   6.939   3.429 -0.6686  0.1513  0.1922
    1MOL0     C    2   4.384   6.971   3.362  0.2273 -0.2970  0.4114
    1MOL0     O    3   4.374   7.042   3.244 -0.0993 -0.1165  0.1763
    1MOL0     C    4   4.253   7.100   3.213 -0.0910  0.2815 -0.4275
    1MOL0     C    5   4.199   7.212   3.286  0.0816  0.2064  0.4883
    1MOL0     C    6   4.078   7.275   3.250 -0.0691  0.0090 -0.3542
    1MOL0     C    7   4.002   7.228   3.144  0.3908 -0.4155  0.1107
    1MOL0     O    8   3.875   7.276   3.111  0.0253  0.2266  0.7020
    1MOL0     C    9   3.771   7.182   3.072 -0.1325 -0.0331 -0.7786
    1MOL0     C   10   3.635   7.229   3.119 -0.6513 -0.4942  0.1884
    1MOL0     C   11   3.518   7.135   3.082  0.4373  1.3038  0.4016
    1MOL0     C   12   3.392   7.178   3.153  0.4574 -0.0257 -0.2744
    1MOL0     C   13   3.265   7.105   3.115 -0.2737 -1.1109 -0.1094
    1MOL0     C   14   3.140   7.171   3.189  0.4702 -0.5006 -0.2657
    1MOL0     C   15   3.159   7.187   3.342  0.1678 -1.0283  0.2277
    1MOL0     C   16   3.034   7.237   3.405  0.2585  0.1869  0.1389
    1MOL0     N   17   2.919   7.146   3.421  0.2696 -0.1482 -0.2619
    1MOL0     C   18   2.900   7.077   3.546 -0.4907  0.0167 -0.6419
    1MOL0     C   19   2.769   7.030   3.535 -0.3028  0.4880 -0.9492
    1MOL0     C   20   2.707   6.942   3.638 -0.0889 -0.1768  0.6142
    1MOL0     C   21   2.566   6.900   3.601  0.1672  0.1624 -0.8478
    1MOL0     C   22   2.502   6.820   3.716 -0.4731 -0.4910  0.0405
    1MOL0     C   23   2.350   6.804   3.705 -0.1800  0.2000 -0.1848
    1MOL0     O   24   2.276   6.928   3.718 -0.1570 -0.0641  0.0954
    1MOL0     C   25   2.132   6.927   3.688 -0.5072  0.4526  0.2303
    1MOL0     C   26   2.063   7.049   3.698  0.2034  0.8729 -0.0051
    1MOL0     C   27   1.924   7.058   3.697 -1.5545 -0.4173  0.3833
    1MOL0     C   28   1.859   6.941   3.672  0.0447 -0.8242 -0.3197
    1MOL0     C   29   1.714   6.935   3.676  0.3314 -0.2727 -0.2093
    1MOL0     O   30   1.658   6.813   3.690  0.2341  0.1743  0.9008
    1MOL0     C   31   1.525   6.790   3.704 -0.3969  0.8565 -0.2338
    1MOL0     C   32   1.412   6.876   3.710 -0.3158  0.1381  0.6814
    1MOL0     C   33   1.280   6.835   3.713  0.2595  0.1044  0.2402
    1MOL0     C   34   1.255   6.690   3.712 -0.9543 -0.0528 -0.8258
    1MOL0     O   35   1.137   6.630   3.735 -0.2640  0.0499 -0.2093
    1MOL0     C   36   1.020   6.704   3.704 -0.4597 -0.5013  0.0834
    1MOL0     C   37   0.900   6.612   3.726  0.5893 -0.4190 -0.5432
    1MOL0     C   38   0.762   6.683   3.692 -0.0213 -0.3747 -0.0783
    1MOL0     C   39   0.647   6.590   3.720  0.0313 -0.3224 -0.5111
    1MOL0     C   40   0.508   6.643   3.685  0.2601  0.1039  0.3178
    1MOL0     C   41   0.477   6.774   3.761 -1.1536  0.2487 -0.5674
    1MOL0     C   42   0.335   6.819   3.715 -0.1188  0.4064  0.3470
    1MOL0     C   43   0.341   6.866   3.575 -0.1141  0.0509 -0.8214
    1MOL0    Cl   44   0.461   6.996   3.555  0.3102  0.1667 -0.3051
    1MOL0     C   45   1.367   6.607   3.714  0.3723  0.3441 -0.1318
    1MOL0     C   46   1.500   6.653   3.704 -0.0513 -0.2814  0.3588
    1MOL0     O   47   1.652   7.045   3.667  0.6650 -0.2703  0.4718
    1MOL0     C   48   1.925   6.822   3.648 -0.8500  0.4830  0.2113
    1MOL0     C   49   2.059   6.816   3.651 -0.0140 -0.9070  0.5868
    1MOL0     N   50   2.716   7.067   3.416  0.0332  0.1042  0.4829
    1MOL0     N   51   2.803   7.133   3.349 -0.1510 -0.2520  0.5506
    1MOL0     C   52   4.050   7.118   3.068 -0.0423  0.4748 -0.5438
    1MOL0     C   53   4.174   7.052   3.102 -0.8688 -0.5900 -1.4508
    1MOL0     C   54   4.511   6.927   3.415 -0.3085 -0.0541  0.0084
    1MOL0     C   55   4.630   6.988   3.373 -0.3321 -0.0183  0.8840
    1MOL0     C   56   4.751   6.954   3.433 -0.1333  0.2771 -0.5688
    1MOL0     C   57   4.762   6.850   3.524  0.2095 -0.2003 -1.0720
    1MOL0     O   58   4.889   6.800   3.552 -0.5172  0.5407 -0.0396
    1MOL0     C   59   4.914   6.690   3.638  0.1853  0.8934  0.4444
    1MOL0     C   60   5.051   6.626   3.628 -0.9037  0.1733 -0.2963
    1MOL0     C   61   5.062   6.494   3.715  0.1680  0.2413  0.9305
    1MOL0     C   62   5.212   6.446   3.714  0.8008  0.6712  0.3135
    1MOL0     C   63   5.284   6.466   3.845  0.0951 -0.9808 -0.1360
    1MOL0     C   64   5.345   6.487   3.943 -0.2829 -0.0427  0.3075
    1MOL0     C   65   4.647   6.784   3.557 -0.0549 -0.3554 -0.0631
    1MOL0     C   66   4.522   6.819   3.503  0.1218 -0.0992 -0.7785
    1MOL0     H   67   4.241   7.257   3.376 -0.0194  0.9535  0.1726
    1MOL0     H   68   4.038   7.353   3.313  0.6659  0.2827 -0.2099
    1MOL0     H   69   3.795   7.083   3.113 -0.1085  0.7999  1.2977
    1MOL0     H   70   3.779   7.164   2.964 -0.9947  1.1312 -1.0555
    1MOL0     H   71   3.599   7.320   3.068  0.7283 -0.3403 -0.5480
    1MOL0     H   72   3.637   7.234   3.228  2.5478  2.1492  0.1430
    1MOL0     H   73   3.524   7.033   3.120 -2.0880  0.9866  0.1320
    1MOL0     H   74   3.500   7.132   2.974 -1.3604 -3.9149  0.5665
    1MOL0     H   75   3.415   7.172   3.259 -0.3300  0.0036 -0.0977
    1MOL0     H   76   3.383   7.282   3.119  1.7097 -0.2073 -1.2052
    1MOL0     H   77   3.288   7.005   3.152  0.6887 -0.7184  0.4076
    1MOL0     H   78   3.237   7.102   3.009 -1.3195 -0.5112  0.1391
    1MOL0     H   79   3.060   7.100   3.166  0.7378 -0.6203 -0.8562
    1MOL0     H   80   3.133   7.273   3.151  2.4386 -0.4297 -0.5511
    1MOL0     H   81   3.200   7.093   3.380  2.3286 -0.8660 -1.5183
    1MOL0     H   82   3.235   7.261   3.367 -0.2145 -1.2365  2.1518
    1MOL0     H   83   3.006   7.325   3.347  2.3022  1.8920  1.5981
    1MOL0     H   84   3.056   7.271   3.507 -0.3580 -0.6774  0.5787
    1MOL0     H   85   2.952   7.072   3.641 -0.8170 -1.6383 -0.5223
    1MOL0     H   86   2.718   6.998   3.731  1.6928  1.3053 -0.4169
    1MOL0     H   87   2.763   6.850   3.654  2.0283  1.3421  2.5709
    1MOL0     H   88   2.577   6.839   3.511 -3.5410  0.1723 -1.4472
    1MOL0     H   89   2.518   6.997   3.584  1.8199  1.1979  0.0424
    1MOL0     H   90   2.541   6.718   3.712  0.2587 -0.2879  1.3778
    1MOL0     H   91   2.531   6.868   3.811  4.5167 -1.9356 -0.4782
    1MOL0     H   92   2.322   6.728   3.779 -3.0353  0.2740 -1.1033
    1MOL0     H   93   2.338   6.746   3.613 -1.4021  0.1458 -0.0016
    1MOL0     H   94   2.115   7.142   3.722 -0.7384  0.8891  2.2549
    1MOL0     H   95   1.884   7.156   3.725 -0.7091 -0.0611  0.3586
    1MOL0     H   96   1.420   6.984   3.701 -2.4101  0.2979  0.0763
    1MOL0     H   97   1.195   6.903   3.713 -0.7213 -1.0746  1.4769
    1MOL0     H   98   1.018   6.751   3.605 -2.6396 -0.7921 -0.0715
    1MOL0     H   99   1.009   6.789   3.771 -2.8523 -2.0437  1.8380
    1MOL0     H  100   0.891   6.583   3.831 -1.7614  0.6064 -0.3909
    1MOL0     H  101   0.910   6.523   3.664  2.0093  0.7754 -2.1339
    1MOL0     H  102   0.753   6.731   3.595 -0.5496 -1.4585 -0.5872
    1MOL0     H  103   0.744   6.763   3.764 -1.6068 -0.5433 -0.2443
    1MOL0     H  104   0.650   6.494   3.668 -1.3933  0.1911 -1.6063
    1MOL0     H  105   0.646   6.566   3.826  0.8066 -2.3921 -0.9296
    1MOL0     H  106   0.431   6.577   3.726  1.0868 -1.3676 -0.4151
    1MOL0     H  107   0.504   6.648   3.576 -1.3715 -0.4081  0.3367
    1MOL0     H  108   0.553   6.852   3.752 -0.4665 -0.3702 -0.2754
    1MOL0     H  109   0.468   6.749   3.867  0.3973 -0.0011 -0.4674
    1MOL0     H  110   0.265   6.735   3.725 -0.7654  0.8186 -0.5951
    1MOL0     H  111   0.294   6.896   3.781 -2.4026 -1.5742  1.4438
    1MOL0     H  112   0.239   6.897   3.550 -0.9793 -0.9879  1.1492
    1MOL0     H  113   0.371   6.782   3.511  0.4064 -0.9673  0.6740
    1MOL0     H  114   1.358   6.502   3.740 -1.2295  0.8672  1.6048
    1MOL0     H  115   1.581   6.582   3.699 -0.9039 -1.2880  0.3517
    1MOL0     H  116   1.873   6.731   3.622  0.6880 -1.0879  2.2715
    1MOL0     H  117   2.120   6.729   3.630 -0.1322 -0.7592 -0.4217
    1MOL0     H  118   3.986   7.080   2.989 -0.5494 -0.5340  0.3269
    1MOL0     H  119   4.193   6.957   3.053 -2.5272 -1.8311  0.1438
    1MOL0     H  120   4.623   7.075   3.308 -1.5482 -1.6901 -1.3518
    1MOL0     H  121   4.837   7.006   3.393 -1.3441  1.9700 -1.0548
    1MOL0     H  122   4.848   6.610   3.603  1.6113  0.6702 -1.8843
    1MOL0     H  123   4.893   6.710   3.744  0.4535 -1.3337  0.9851
    1MOL0     H  124   5.062   6.603   3.521 -3.3096 -1.6691 -0.2225
    1MOL0     H  125   5.127   6.695   3.667 -2.0411 -0.7232  4.0321
    1MOL0     H  126   5.009   6.417   3.658 -0.6671  1.8656 -0.6108
    1MOL0     H  127   5.041   6.504   3.822  5.5502 -0.0798  2.3217
    1MOL0     H  128   5.221   6.341   3.686  2.3022  1.3872 -2.2595
    1MOL0     H  129   5.263   6.504   3.636  1.0924  2.7960  1.9962
    1MOL0     H  130   5.416   6.492   4.023 -0.6968  1.0571  0.6267
    1MOL0     H  131   4.659   6.692   3.615  1.6936  0.1747  0.4833
    1MOL0     H  132   4.433   6.765   3.532  0.7496 -1.2061 -0.8498
    2MOL0     O  133   6.606   8.277   7.207 -1.0372 -0.6629 -0.0250
    2MOL0     C  134   6.653   8.300   7.325  0.5792 -0.6855  0.4163
    2MOL0     O  135   6.599   8.382   7.410  0.8768 -0.4723  0.2287
    2MOL0     C  136   6.462   8.395   7.387 -0.3577 -0.7583 -0.2463
    2MOL0     C  137   6.365   8.311   7.436  0.2398 -0.4742 -0.6093
    2MOL0     C  138   6.229   8.346   7.414 -0.1965 -0.3000  1.0752
    2MOL0     C  139   6.191   8.464   7.350  0.2445 -0.4437  0.1302
    2MOL0     O  140   6.067   8.511   7.315  0.1210  0.1530  0.2323
    2MOL0     C  141   5.948   8.428   7.337 -0.4072  0.2925  0.0356
    2MOL0     C  142   5.828   8.523   7.296  0.0587 -0.0143 -0.0806
    2MOL0     C  143   5.699   8.461   7.352 -0.7443  0.6292 -0.4876
    2MOL0     C  144   5.583   8.538   7.302  0.2934  0.3915 -0.3403
    2MOL0     C  145   5.461   8.492   7.384  0.0102  0.0787 -0.0305
    2MOL0     C  146   5.345   8.588   7.372 -0.5482 -0.1312 -0.2053
    2MOL0     C  147   5.216   8.546   7.439 -0.0384 -0.0419 -0.0674
    2MOL0     C  148   5.102   8.627   7.381  0.2489 -0.1860  0.0907
    2MOL0     N  149   4.977   8.604   7.441  0.4349 -1.0779 -0.3388
    2MOL0     C  150   4.855   8.609   7.385  0.7476 -0.4264  0.6064
    2MOL0     C  151   4.756   8.621   7.476 -0.2347  0.2239 -0.1530
    2MOL0     C  152   4.602   8.625   7.466 -0.6084  0.0584 -0.6650
    2MOL0     C  153   4.545   8.525   7.566 -0.7394  0.4901 -0.1572
    2MOL0     C  154   4.585   8.374   7.536  0.7269 -1.0561 -0.3972
    2MOL0     C  155   4.501   8.271   7.613  1.6294 -0.4369 -0.1079
    2MOL0     O  156   4.358   8.305   7.607 -1.1085  0.1896  0.0053
    2MOL0     C  157   4.269   8.251   7.690 -0.5353  0.4637 -1.0087
    2MOL0     C  158   4.145   8.312   7.698  0.5148  0.4623 -0.1796
    2MOL0     C  159   4.046   8.269   7.791 -0.2983 -0.7544  0.0483
    2MOL0     C  160   4.077   8.173   7.892 -0.6230 -1.3627  0.3383
    2MOL0     C  161   3.968   8.105   7.970  0.1508 -1.0915 -0.6294
    2MOL0     O  162   3.838   8.150   7.946 -0.1545  0.8262 -0.1631
    2MOL0     C  163   3.749   8.075   8.011 -0.0504 -0.1317  0.2624
    2MOL0     C  164   3.732   8.074   8.152 -0.6257  0.0850  0.5742
    2MOL0     C  165   3.635   7.989   8.202  1.2378  0.4676  1.3333
    2MOL0     C  166   3.550   7.909   8.114  0.1299  0.2497  0.0279
    2MOL0     O  167   3.450   7.851   8.177  0.8921 -0.4188 -0.6602
    2MOL0     C  168   3.327   7.927   8.161 -0.0840  0.2024 -0.1471
    2MOL0     C  169   3.204   7.845   8.206 -0.8484  0.4996 -0.3762
    2MOL0     C  170   3.098   7.940   8.257 -0.4081  0.1322  0.5057
    2MOL0     C  171   2.976   7.861   8.298 -0.1659  0.6600 -0.6154
    2MOL0     C  172   2.856   7.954   8.351 -0.4382  0.4398 -0.1090
    2MOL0     C  173   2.716   7.881   8.347  0.4614 -0.5052 -0.7651
    2MOL0     C  174   2.725   7.729   8.383  0.0436  1.0551 -0.5274
    2MOL0     C  175   2.585   7.685   8.422  0.5548  0.0409 -0.1202
    2MOL0    Cl  176   2.615   7.502   8.462  0.0865  0.1376  0.0103
    2MOL0     C  177   3.578   7.914   7.977 -0.6416  0.1074 -0.4568
    2MOL0     C  178   3.667   8.005   7.922  0.0808  1.0051  0.1480
    2MOL0     O  179   4.007   8.012   8.037  0.2408 -0.8601 -0.7028
    2MOL0     C  180   4.208   8.112   7.875  0.5081  0.9987 -0.8928
    2MOL0     C  181   4.299   8.149   7.774  0.4373 -0.2320  0.2397
    2MOL0     N  182   4.814   8.625   7.597  0.6612  0.3374 -0.0535
    2MOL0     N  183   4.942   8.625   7.579  0.0295  0.5242 -0.7176
    2MOL0     C  184   6.288   8.556   7.314  0.2279  0.3520 -0.6787
    2MOL0     C  185   6.417   8.520   7.341  0.6990 -0.3356  0.4613
    2MOL0     C  186   6.790   8.262   7.349 -0.1741  0.0423  0.2415
    2MOL0     C  187   6.874   8.225   7.246 -0.9267  0.6414  0.2636
    2MOL0     C  188   7.011   8.191   7.256  0.0894  0.0516  0.0543
    2MOL0     C  189   7.071   8.205   7.381  0.3940  0.2754 -0.8381
    2MOL0     O  190   7.211   8.169   7.395  0.3692 -1.0357 -0.4509
    2MOL0     C  191   7.289   8.212   7.505 -0.7282  0.6630 -0.2366
    2MOL0     C  192   7.333   8.352   7.485  0.9901  0.5424  0.0445
    2MOL0     C  193   7.391   8.373   7.336  1.1705  1.1599  0.4424
    2MOL0     C  194   7.425   8.518   7.316  0.5125  0.9446 -0.4143
    2MOL0     C  195   7.518   8.548   7.210 -0.6224 -0.0664  0.1608
    2MOL0     C  196   7.606   8.560   7.130  0.0095  0.7031  0.8753
    2MOL0     C  197   6.987   8.227   7.490  0.0586 -0.0136 -0.0694
    2MOL0     C  198   6.854   8.258   7.474  0.9790 -0.3130 -0.4688
    2MOL0     H  199   6.391   8.220   7.489 -3.9451 -1.3796  0.2250
    2MOL0     H  200   6.154   8.276   7.450 -0.3474 -0.1772  1.0017
    2MOL0     H  201   5.941   8.400   7.442 -0.2245 -0.4677 -0.1454
    2MOL0     H  202   5.945   8.335   7.279 -0.7908  1.0656 -1.2132
    2MOL0     H  203   5.816   8.533   7.188 -1.5525 -0.0972  0.0669
    2MOL0     H  204   5.837   8.627   7.331 -1.3809 -0.0998  0.6263
    2MOL0     H  205   5.713   8.469   7.460  2.0820  2.2861 -0.8672
    2MOL0     H  206   5.694   8.353   7.334  2.3474  0.3778 -0.4095
    2MOL0     H  207   5.601   8.646   7.304  0.6957  0.3965 -2.5639
    2MOL0     H  208   5.559   8.509   7.200 -0.4321  2.4835 -0.8089
    2MOL0     H  209   5.488   8.488   7.490  0.2411  2.1685  0.0241
    2MOL0     H  210   5.436   8.397   7.336  1.5629 -0.5644  0.3798
    2MOL0     H  211   5.330   8.595   7.264  1.3487 -1.3021 -0.5878
    2MOL0     H  212   5.379   8.679   7.424  0.8302 -0.6479 -0.1620
    2MOL0     H  213   5.216   8.440   7.411  0.3060  0.5011 -2.3236
    2MOL0     H  214   5.207   8.549   7.548  2.1510 -1.4265  0.2221
    2MOL0     H  215   5.093   8.600   7.275 -2.3732  0.0380  0.1977
    2MOL0     H  216   5.122   8.734   7.391 -2.5073  0.5032 -1.0075
    2MOL0     H  217   4.838   8.608   7.278  2.3345 -1.0445  0.3362
    2MOL0     H  218   4.563   8.610   7.365  0.1551  0.9308 -1.1089
    2MOL0     H  219   4.567   8.725   7.496  2.4898  1.0615 -0.0466
    2MOL0     H  220   4.436   8.536   7.566 -0.9056 -1.0110 -0.5954
    2MOL0     H  221   4.577   8.560   7.665 -1.7512 -1.9145  1.1075
    2MOL0     H  222   4.564   8.350   7.431  0.2783 -1.7164 -0.1577
    2MOL0     H  223   4.691   8.358   7.557  1.1172  1.8701  0.2614
    2MOL0     H  224   4.530   8.271   7.719 -2.7726  0.4074  1.2946
    2MOL0     H  225   4.511   8.173   7.566  1.6220 -0.4425 -0.0977
    2MOL0     H  226   4.119   8.381   7.617  3.0077  0.8269 -0.7645
    2MOL0     H  227   3.947   8.314   7.793  0.0605  0.0295  0.3964
    2MOL0     H  228   3.792   8.126   8.226  0.1200  0.6500 -0.4134
    2MOL0     H  229   3.627   7.987   8.310 -1.3867 -1.8291  1.1830
    2MOL0     H  230   3.307   7.964   8.060 -2.7820 -0.8792 -0.0810
    2MOL0     H  231   3.344   8.014   8.226 -3.1987  1.5106 -0.9330
    2MOL0     H  232   3.236   7.782   8.289  2.1404  2.7566  0.3647
    2MOL0     H  233   3.159   7.784   8.127  1.6037 -1.3139 -0.4741
    2MOL0     H  234   3.064   8.001   8.173 -0.1614 -0.9070 -0.3671
    2MOL0     H  235   3.123   8.009   8.338 -1.4022  1.9934 -0.6836
    2MOL0     H  236   2.939   7.807   8.211 -1.3282  0.4858 -0.0347
    2MOL0     H  237   3.006   7.782   8.368 -1.4256  0.2455 -0.5227
    2MOL0     H  238   2.843   8.037   8.281 -0.0778 -1.0219 -2.0170
    2MOL0     H  239   2.890   7.997   8.445 -1.2112 -0.2646  0.5094
    2MOL0     H  240   2.668   7.883   8.248  1.1669  0.5296 -1.1083
    2MOL0     H  241   2.655   7.924   8.427  1.5410 -2.0264  0.9462
    2MOL0     H  242   2.772   7.663   8.310  0.3840  2.3650 -1.5166
    2MOL0     H  243   2.784   7.719   8.474  1.6430  3.0376 -1.2890
    2MOL0     H  244   2.502   7.700   8.352 -0.7810 -0.3335  1.3072
    2MOL0     H  245   2.552   7.733   8.514 -1.3279  2.0667 -1.7484
    2MOL0     H  246   3.510   7.852   7.919 -2.2513  0.5509  0.8539
    2MOL0     H  247   3.674   8.025   7.816  1.8155 -2.8507 -0.6232
    2MOL0     H  248   4.234   8.029   7.940  1.9775  0.4086 -2.1612
    2MOL0     H  249   4.387   8.085   7.772 -0.3511 -1.3541 -1.8103
    2MOL0     H  250   6.271   8.644   7.253 -0.9528 -0.5589 -1.6942
    2MOL0     H  251   6.503   8.583   7.318  3.1285 -2.0176  3.9998
    2MOL0     H  252   6.841   8.228   7.142  0.8582  0.7880 -0.3385
    2MOL0     H  253   7.078   8.161   7.177  1.6537  1.1233  0.9182
    2MOL0     H  254   7.376   8.146   7.513 -1.1829  0.0103 -0.5709
    2MOL0     H  255   7.221   8.199   7.589 -0.0404 -0.5544  0.1494
    2MOL0     H  256   7.249   8.420   7.498  0.7529  0.8175 -2.4148
    2MOL0     H  257   7.413   8.379   7.555  0.5167 -0.6966  1.0854
    2MOL0     H  258   7.308   8.350   7.268  0.2656  2.0568  1.2096
    2MOL0     H  259   7.477   8.307   7.324  1.5763  1.7648 -0.1179
    2MOL0     H  260   7.331   8.573   7.300 -0.4668  0.1131  2.0086
    2MOL0     H  261   7.475   8.552   7.407  2.7103  2.5548 -2.1130
    2MOL0     H  262   7.681   8.577   7.056 -0.2699 -0.8238  0.2026
    2MOL0     H  263   7.016   8.231   7.594 -1.6382  1.8215  0.3956
    2MOL0     H  264   6.793   8.288   7.559 -0.8906 -0.1293 -1.8068
    3MOL0     O  265   8.935   4.950   6.961  0.9397 -0.6217 -0.1526
    3MOL0     C  266   8.954   4.833   6.918 -0.7494  0.5772  0.3510
    3MOL0     O  267   8.891   4.759   6.828 -0.5485 -0.3977 -0.4647
    3MOL0     C  268   8.791   4.817   6.760  0.6990 -0.4834  0.3837
    3MOL0     C  269   8.706   4.911   6.792  0.0901 -0.9924  0.6607
    3MOL0     C  270   8.611   4.966   6.701  0.0712 -0.0218 -0.3612
    3MOL0     C  271   8.596   4.926   6.571 -0.3008  0.4034 -0.3508
    3MOL0     O  272   8.502   4.985   6.500  0.4033  0.7295 -0.0908
    3MOL0     C  273   8.525   5.016   6.364 -0.8607 -0.0360 -0.6151
    3MOL0     C  274   8.411   4.952   6.281  0.6939 -0.8960  0.2321
    3MOL0     C  275   8.267   4.988   6.335  0.0056 -0.0381  0.0636
    3MOL0     C  276   8.239   5.141   6.320 -0.1121 -0.5235 -1.1636
    3MOL0     C  277   8.088   5.190   6.338 -0.6250  0.3036  0.3304
    3MOL0     C  278   7.981   5.134   6.237  0.4401  0.9086  0.1038
    3MOL0     C  279   8.014   5.168   6.089  0.1330 -0.5624 -0.0153
    3MOL0     C  280   7.913   5.115   5.985  0.1620 -0.1122  0.8524
    3MOL0     N  281   7.789   5.189   5.977 -0.4465  0.0531 -0.3091
    3MOL0     C  282   7.664   5.145   6.029 -0.1327 -0.0123 -0.4805
    3MOL0     C  283   7.579   5.244   6.011 -0.3270 -0.1276  1.2592
    3MOL0     C  284   7.435   5.244   6.053 -0.1201 -0.4511  0.4513
    3MOL0     C  285   7.340   5.237   5.925 -0.1755  0.6670  0.3858
    3MOL0     C  286   7.200   5.274   5.965  0.6182  0.4229  0.2431
    3MOL0     C  287   7.094   5.205   5.870 -0.4444  0.1130  0.2606
    3MOL0     O  288   7.102   5.265   5.738 -0.1602  1.2774 -0.1106
    3MOL0     C  289   6.994   5.259   5.657  0.8533 -0.0970  0.0650
    3MOL0     C  290   7.003   5.319   5.531 -0.3695 -0.3087  1.0827
    3MOL0     C  291   6.904   5.307   5.437  0.1256  0.0043 -0.0728
    3MOL0     C  292   6.788   5.221   5.458 -0.6342 -0.5456 -0.6435
    3MOL0     C  293   6.691   5.180   5.351 -0.0984  0.0525  0.2408
    3MOL0     O  294   6.735   5.200   5.227  0.3714  0.4661  0.0097
    3MOL0     C  295   6.676   5.136   5.121  0.1630 -0.1221 -0.2561
    3MOL0     C  296   6.539   5.140   5.089  0.0871 -0.4259 -0.4694
    3MOL0     C  297   6.480   5.079   4.978 -0.0129 -0.1238 -0.6137
    3MOL0     C  298   6.561   4.992   4.898  0.1820 -0.3601  0.7960
    3MOL0     O  299   6.495   4.938   4.789 -0.8730  0.3340  0.4007
    3MOL0     C  300   6.543   5.004   4.664 -0.2210 -1.9976 -0.2547
    3MOL0     C  301   6.475   4.942   4.542  0.5379 -0.0088 -0.5766
    3MOL0     C  302   6.530   4.997   4.411 -0.0210  0.4809 -0.4579
    3MOL0     C  303   6.424   4.975   4.298 -0.5888 -0.1477  0.2027
    3MOL0     C  304   6.459   5.027   4.157 -0.4236 -0.2354 -0.2564
    3MOL0     C  305   6.437   5.180   4.150 -0.1069  0.2008  0.2699
    3MOL0     C  306   6.453   5.244   4.016  0.2538 -0.0856 -0.0506
    3MOL0     C  307   6.429   5.392   4.020 -0.2936 -0.0675  0.2464
    3MOL0    Cl  308   6.404   5.448   3.854  0.0333  0.1384 -0.6492
    3MOL0     C  309   6.696   4.983   4.930 -0.0607 -0.0851  0.6591
    3MOL0     C  310   6.754   5.050   5.038 -0.0256 -0.0563 -0.0812
    3MOL0     O  311   6.585   5.118   5.386 -0.9231 -0.1140  1.1912
    3MOL0     C  312   6.774   5.163   5.591  0.7372 -0.3192 -0.7751
    3MOL0     C  313   6.881   5.172   5.683  0.9844 -0.6040  0.4829
    3MOL0     N  314   7.654   5.353   5.962  1.2446  0.0106  0.5102
    3MOL0     N  315   7.778   5.318   5.942 -0.4759  0.0624  0.5309
    3MOL0     C  316   8.687   4.823   6.532  0.2927 -0.8082 -0.6720
    3MOL0     C  317   8.782   4.767   6.633 -0.6145  0.4422  0.3846
    3MOL0     C  318   9.070   4.766   6.978  0.3694  0.2234 -0.0507
    3MOL0     C  319   9.164   4.839   7.057  0.0271 -0.4379  0.2917
    3MOL0     C  320   9.264   4.779   7.141  0.1743 -0.0026 -0.3447
    3MOL0     C  321   9.272   4.639   7.134  0.0331 -0.4843  0.0700
    3MOL0     O  322   9.354   4.570   7.216 -0.7449 -0.0400 -0.4425
    3MOL0     C  323   9.459   4.515   7.144 -0.1279 -0.2680  0.0761
    3MOL0     C  324   9.536   4.412   7.219  0.3228  0.2164 -0.5612
    3MOL0     C  325   9.672   4.397   7.148  0.7348 -0.0122  0.2201
    3MOL0     C  326   9.742   4.276   7.212  0.8036 -0.6036 -0.6179
    3MOL0     C  327   9.861   4.227   7.137  0.1072 -0.4764 -0.1465
    3MOL0     C  328   9.951   4.172   7.085 -0.3840 -0.5732  1.2651
    3MOL0     C  329   9.184   4.570   7.046 -0.2646 -0.1818  0.0535
    3MOL0     C  330   9.079   4.627   6.974  0.1420 -1.2896 -0.7621
    3MOL0     H  331   8.707   4.950   6.894 -1.7739 -1.9090  1.0730
    3MOL0     H  332   8.542   5.042   6.735 -0.5277 -0.3891 -0.7507
    3MOL0     H  333   8.621   4.990   6.320 -2.5759  1.0265 -5.7161
    3MOL0     H  334   8.507   5.124   6.358 -2.6720 -0.2483  0.2341
    3MOL0     H  335   8.433   4.846   6.294 -3.5376 -1.9413  0.5511
    3MOL0     H  336   8.418   4.978   6.175 -1.9469 -2.1792 -0.3358
    3MOL0     H  337   8.259   4.963   6.441 -1.8607  0.1024 -0.0172
    3MOL0     H  338   8.187   4.927   6.292  0.8528 -0.3221 -1.1344
    3MOL0     H  339   8.301   5.175   6.403  0.8169  2.9799 -3.0830
    3MOL0     H  340   8.273   5.178   6.223 -0.3731  0.2917 -0.9470
    3MOL0     H  341   8.090   5.300   6.335  1.1182  0.3145  0.9553
    3MOL0     H  342   8.055   5.158   6.438 -0.7807 -1.7711 -0.3422
    3MOL0     H  343   7.884   5.162   6.279  1.7992  0.1157  4.3073
    3MOL0     H  344   7.983   5.024   6.232 -0.6390  0.8802 -0.0357
    3MOL0     H  345   8.028   5.277   6.082 -0.3897 -0.5204 -0.4973
    3MOL0     H  346   8.112   5.134   6.054  0.6540  1.3610 -0.5534
    3MOL0     H  347   7.876   5.013   5.998  0.7778 -0.5994 -0.9461
    3MOL0     H  348   7.965   5.109   5.889 -1.1095  1.3618  0.0331
    3MOL0     H  349   7.642   5.054   6.084  0.2992  1.2493  1.9229
    3MOL0     H  350   7.425   5.342   6.101 -1.1931 -0.1928 -0.2479
    3MOL0     H  351   7.406   5.160   6.116 -0.8951 -1.8203 -1.6253
    3MOL0     H  352   7.349   5.137   5.882  0.4480  0.2876  1.3573
    3MOL0     H  353   7.378   5.306   5.849  1.8906  2.5214  2.9049
    3MOL0     H  354   7.164   5.253   6.066 -2.3189 -0.1931 -0.8244
    3MOL0     H  355   7.199   5.383   5.951  2.7339  0.3059 -1.1693
    3MOL0     H  356   6.998   5.228   5.918  0.3582  3.4549  0.5535
    3MOL0     H  357   7.126   5.101   5.857 -0.9232 -0.7624  4.7769
    3MOL0     H  358   7.086   5.385   5.506 -0.2286 -0.0958  2.0919
    3MOL0     H  359   6.918   5.368   5.349 -0.7369 -0.0599 -0.2686
    3MOL0     H  360   6.476   5.207   5.146  0.5572 -0.1965 -0.2157
    3MOL0     H  361   6.375   5.078   4.952 -1.3470 -4.0544  3.4968
    3MOL0     H  362   6.650   4.985   4.656  0.4514  1.3486 -0.4953
    3MOL0     H  363   6.523   5.112   4.660  0.1847 -1.9405 -1.0979
    3MOL0     H  364   6.370   4.967   4.558 -0.4043 -2.7079 -1.8900
    3MOL0     H  365   6.478   4.833   4.553  0.1586  0.1474  1.2981
    3MOL0     H  366   6.625   4.953   4.379  0.1427 -0.4746  1.2544
    3MOL0     H  367   6.548   5.101   4.436 -0.2319  0.2893  0.5303
    3MOL0     H  368   6.425   4.866   4.287  2.4622  0.0202 -2.7931
    3MOL0     H  369   6.324   5.015   4.319  0.3011  1.1818  2.3588
    3MOL0     H  370   6.396   4.972   4.086  1.4018 -1.3175 -1.1017
    3MOL0     H  371   6.562   4.998   4.137 -0.0846 -0.1513  1.2589
    3MOL0     H  372   6.499   5.234   4.223  1.6801 -0.3977 -0.7389
    3MOL0     H  373   6.333   5.188   4.182 -0.1756 -2.2437  0.8057
    3MOL0     H  374   6.554   5.220   3.980  1.3276  2.4367  1.0690
    3MOL0     H  375   6.379   5.200   3.949  0.6821  1.6132 -1.7034
    3MOL0     H  376   6.513   5.438   4.073 -1.3660  1.5660  0.5973
    3MOL0     H  377   6.342   5.418   4.081 -2.2687  0.6663 -2.6873
    3MOL0     H  378   6.766   4.923   4.872 -1.2861  0.5276 -1.5571
    3MOL0     H  379   6.857   5.049   5.071 -0.1306 -0.8419  0.2320
    3MOL0     H  380   6.684   5.104   5.609  0.0548  0.3418 -1.9531
    3MOL0     H  381   6.880   5.116   5.776  2.9977  0.6757  1.3577
    3MOL0     H  382   8.674   4.769   6.439 -0.6276  0.0351 -1.0534
    3MOL0     H  383   8.841   4.678   6.612  0.0256  0.9351  0.0416
    3MOL0     H  384   9.141   4.945   7.062 -0.0651 -0.4547  0.2353
    3MOL0     H  385   9.329   4.831   7.212  1.5657 -2.1358  0.0185
    3MOL0     H  386   9.527   4.593   7.107  2.1700 -2.9427 -1.8175
    3MOL0     H  387   9.419   4.460   7.059 -0.2529 -2.0951  1.2734
    3MOL0     H  388   9.542   4.437   7.325 -1.2717 -2.6662  0.3232
    3MOL0     H  389   9.486   4.315   7.214  0.3288 -0.0098  2.3002
    3MOL0     H  390   9.733   4.484   7.171 -1.4652  0.9941  2.8231
    3MOL0     H  391   9.674   4.379   7.040 -1.9611  2.8692 -0.4373
    3MOL0     H  392   9.781   4.301   7.312 -3.6451 -2.8184  1.9680
    3MOL0     H  393   9.681   4.189   7.237  1.3328 -0.6527  0.6108
    3MOL0     H  394  10.026   4.122   7.028 -0.6943  0.9894 -0.6215
    3MOL0     H  395   9.190   4.462   7.054  0.6474 -0.1847 -0.4852
    3MOL0     H  396   9.016   4.571   6.907 -1.4422  1.1978 -1.4620
    4MOL0     O  397   4.754   4.419   4.394  0.0856  0.7987  0.3257
    4MOL0     C  398   4.822   4.399   4.491 -0.8383  0.1454 -0.4233
    4MOL0     O  399   4.785   4.339   4.612  0.2452 -0.6001 -0.3480
    4MOL0     C  400   4.650   4.318   4.618 -0.0169  0.3320 -0.5599
    4MOL0     C  401   4.568   4.393   4.697  0.0175 -0.2609 -0.0707
    4MOL0     C  402   4.436   4.363   4.704 -0.4284  0.8652 -0.6338
    4MOL0     C  403   4.373   4.249   4.648 -0.1069 -0.1503  0.4163
    4MOL0     O  404   4.236   4.234   4.647 -0.4935  0.3390  0.6933
    4MOL0     C  405   4.176   4.315   4.543 -0.8642  0.2119 -0.9746
    4MOL0     C  406   4.023   4.287   4.520 -1.3938 -0.1778  0.3607
    4MOL0     C  407   3.979   4.140   4.502 -0.6445 -0.0072 -0.3706
    4MOL0     C  408   3.836   4.105   4.511  0.8770 -0.3687  0.5586
    4MOL0     C  409   3.827   3.965   4.579 -0.1920  0.0441 -0.2007
    4MOL0     C  410   3.692   3.943   4.649  0.7104  0.0285  0.4306
    4MOL0     C  411   3.573   3.923   4.549 -0.1155  0.1761  0.0948
    4MOL0     C  412   3.584   3.810   4.448  0.4737  0.7168  0.8355
    4MOL0     N  413   3.452   3.742   4.418 -0.2831  1.0101  0.0158
    4MOL0     C  414   3.378   3.738   4.302 -0.5883  0.2728  0.5449
    4MOL0     C  415   3.293   3.641   4.310  0.5159  0.1427 -0.0353
    4MOL0     C  416   3.213   3.597   4.185 -0.3253 -0.4280  0.3786
    4MOL0     C  417   3.092   3.688   4.152 -0.3174 -0.1073 -0.2582
    4MOL0     C  418   2.964   3.627   4.227  0.4555 -0.5450  0.2867
    4MOL0     C  419   2.960   3.666   4.374 -0.4635 -0.5008  0.5478
    4MOL0     O  420   2.878   3.576   4.455  0.5010 -0.5354  0.7726
    4MOL0     C  421   2.746   3.611   4.479  0.0952  0.7944  0.5035
    4MOL0     C  422   2.681   3.716   4.413 -0.2173 -0.4174 -0.7565
    4MOL0     C  423   2.547   3.748   4.445  0.5907  0.1750  0.0695
    4MOL0     C  424   2.486   3.672   4.545  0.2270 -0.2995 -0.8164
    4MOL0     C  425   2.343   3.706   4.583  0.0915  0.4673 -0.0544
    4MOL0     O  426   2.291   3.828   4.556  0.5615 -0.1464 -0.4712
    4MOL0     C  427   2.161   3.843   4.599 -0.1140  0.2612  0.4403
    4MOL0     C  428   2.052   3.763   4.571  0.2285 -0.2971 -0.4467
    4MOL0     C  429   1.923   3.782   4.629 -0.0438 -0.0839 -0.1726
    4MOL0     C  430   1.902   3.894   4.713  0.2775 -0.1307  0.5082
    4MOL0     O  431   1.776   3.900   4.763  0.4682  0.0603 -0.2659
    4MOL0     C  432   1.755   3.946   4.900  0.3181  0.9982 -0.0504
    4MOL0     C  433   1.666   3.838   4.963 -0.4603  0.2849  0.8847
    4MOL0     C  434   1.534   3.803   4.897  0.1705 -1.3591 -0.0449
    4MOL0     C  435   1.445   3.928   4.873 -0.0807  0.9267  0.7394
    4MOL0     C  436   1.405   3.989   5.002  0.2178 -0.8008 -0.2537
    4MOL0     C  437   1.308   4.105   4.985  0.8806 -0.8237 -1.0066
    4MOL0     C  438   1.166   4.061   4.974  1.0452 -0.2228 -0.3740
    4MOL0     C  439   1.067   4.173   4.987 -0.1715 -0.3490 -0.3074
    4MOL0    Cl  440   0.908   4.095   5.003 -0.0929 -0.0674 -0.0213
    4MOL0     C  441   2.018   3.972   4.752  0.3366  0.0499  0.0513
    4MOL0     C  442   2.142   3.950   4.692 -0.3598  0.5688 -1.2865
    4MOL0     O  443   2.283   3.614   4.638 -0.1473  0.3720  0.0706
    4MOL0     C  444   2.553   3.563   4.611 -0.1686  0.1313 -0.2553
    4MOL0     C  445   2.683   3.532   4.576  0.2267 -0.4832  0.2531
    4MOL0     N  446   3.295   3.583   4.439  0.8411 -0.6619 -0.0255
    4MOL0     N  447   3.378   3.657   4.503  0.0853  0.4148  0.0309
    4MOL0     C  448   4.451   4.174   4.560 -0.2766 -0.4662 -0.2505
    4MOL0     C  449   4.586   4.207   4.559 -0.4984 -0.5819  0.5807
    4MOL0     C  450   4.967   4.415   4.471 -0.4218 -1.2232  0.5655
    4MOL0     C  451   5.060   4.388   4.577 -0.4910 -0.6935  0.3880
    4MOL0     C  452   5.196   4.427   4.564  0.1508 -0.6771 -0.1652
    4MOL0     C  453   5.246   4.483   4.442 -0.4097 -0.5606  0.1794
    4MOL0     O  454   5.376   4.537   4.436  0.6848 -0.7692 -0.1077
    4MOL0     C  455   5.471   4.516   4.548 -0.6549 -0.1201  0.2433
    4MOL0     C  456   5.600   4.593   4.529 -0.0818 -0.3231  0.5970
    4MOL0     C  457   5.565   4.741   4.512  0.8763 -1.0433  0.9895
    4MOL0     C  458   5.694   4.822   4.547  0.1767  0.2892  0.4110
    4MOL0     C  459   5.669   4.968   4.569 -0.4964  0.0472 -0.3152
    4MOL0     C  460   5.632   5.079   4.590  0.2784  0.2097  0.0107
    4MOL0     C  461   5.154   4.507   4.338 -0.0263 -0.5813 -0.5659
    4MOL0     C  462   5.016   4.479   4.352  0.2069  0.0249 -0.5364
    4MOL0     H  463   4.597   4.475   4.762  0.8564 -2.5961  2.6919
    4MOL0     H  464   4.371   4.420   4.769 -0.7760 -0.1205 -0.1015
    4MOL0     H  465   4.222   4.300   4.444 -2.3240  2.3653 -2.0729
    4MOL0     H  466   4.184   4.420   4.575 -2.3239 -0.6483  2.6552
    4MOL0     H  467   3.997   4.352   4.436  1.0523  0.6332  0.1568
    4MOL0     H  468   3.973   4.334   4.605 -1.2655  4.2425 -1.7276
    4MOL0     H  469   4.039   4.085   4.575 -2.5950 -4.8435 -2.0332
    4MOL0     H  470   4.030   4.124   4.406  0.9163 -2.1660  0.7228
    4MOL0     H  471   3.789   4.175   4.582 -0.9927  0.0352 -0.9805
    4MOL0     H  472   3.785   4.107   4.414  2.9273 -3.2140 -0.7224
    4MOL0     H  473   3.909   3.950   4.650  0.0335  1.3633 -0.1513
    4MOL0     H  474   3.849   3.884   4.509 -1.0525 -0.4210  0.0606
    4MOL0     H  475   3.665   4.027   4.713 -2.7452  2.4764 -3.6525
    4MOL0     H  476   3.709   3.852   4.707  0.3119 -1.5381 -1.7871
    4MOL0     H  477   3.488   3.901   4.615  1.4896 -1.6780  1.6767
    4MOL0     H  478   3.546   4.015   4.498 -1.8192 -0.4764 -0.2395
    4MOL0     H  479   3.649   3.737   4.496 -2.2082 -1.3818  1.5397
    4MOL0     H  480   3.637   3.839   4.357 -0.3214 -0.6114 -0.0935
    4MOL0     H  481   3.413   3.786   4.211  1.5416 -2.0670  0.0108
    4MOL0     H  482   3.179   3.493   4.173 -3.1945  0.4770 -0.2190
    4MOL0     H  483   3.269   3.614   4.093 -3.5013 -3.3150 -2.4106
    4MOL0     H  484   3.076   3.682   4.044  0.6605 -0.2022 -0.4036
    4MOL0     H  485   3.110   3.791   4.183  1.3268 -0.3049 -0.4779
    4MOL0     H  486   2.873   3.669   4.184  1.4272  0.6931 -0.6370
    4MOL0     H  487   2.957   3.518   4.227  0.0643 -0.6174  3.6685
    4MOL0     H  488   2.943   3.773   4.380 -1.2329 -0.0556 -4.6114
    4MOL0     H  489   3.061   3.653   4.415 -0.3548  2.1532  1.3067
    4MOL0     H  490   2.711   3.769   4.323  0.3348 -1.5879 -1.2834
    4MOL0     H  491   2.501   3.827   4.387  2.8275  1.4654 -0.0832
    4MOL0     H  492   2.080   3.675   4.513 -0.9555 -1.4148  0.5925
    4MOL0     H  493   1.842   3.721   4.593 -1.5148  2.9204 -2.3927
    4MOL0     H  494   1.706   4.042   4.915  0.4108  0.8993  0.9157
    4MOL0     H  495   1.843   3.960   4.962  0.6398 -0.4062 -0.1553
    4MOL0     H  496   1.657   3.869   5.067 -0.7449 -1.4308  1.3911
    4MOL0     H  497   1.730   3.750   4.953 -0.7207  0.2726 -1.0680
    4MOL0     H  498   1.474   3.730   4.951  0.6667 -0.8458  1.2325
    4MOL0     H  499   1.556   3.758   4.799  2.7950 -2.1551  0.8321
    4MOL0     H  500   1.493   3.998   4.804 -1.6051  1.3664  0.0772
    4MOL0     H  501   1.347   3.908   4.830 -0.1408 -1.8909  1.9749
    4MOL0     H  502   1.499   4.022   5.049  3.4154 -4.2105 -3.5420
    4MOL0     H  503   1.357   3.914   5.064  0.6907 -1.0660 -0.2026
    4MOL0     H  504   1.338   4.170   4.902 -1.6113 -1.2546 -2.3757
    4MOL0     H  505   1.311   4.152   5.083  2.0168 -3.6936  0.4645
    4MOL0     H  506   1.144   4.012   4.879  0.6909  2.1517 -1.6042
    4MOL0     H  507   1.129   3.992   5.050 -0.0715 -0.1144 -0.8085
    4MOL0     H  508   1.062   4.235   4.897 -1.1890 -0.6564 -0.4769
    4MOL0     H  509   1.079   4.241   5.071 -1.4440  0.3058 -0.6325
    4MOL0     H  510   2.014   4.036   4.840  0.9674  1.1187 -0.6709
    4MOL0     H  511   2.229   4.008   4.722  1.5986 -1.1872 -3.1875
    4MOL0     H  512   2.503   3.500   4.684  1.3348 -0.4612  0.2861
    4MOL0     H  513   2.737   3.450   4.621  2.6773  1.5003  1.1917
    4MOL0     H  514   4.398   4.098   4.504  0.4017 -0.8826 -0.3375
    4MOL0     H  515   4.656   4.139   4.511  0.4837 -1.3125  2.9454
    4MOL0     H  516   5.038   4.339   4.671  0.7015  1.8330  2.0518
    4MOL0     H  517   5.267   4.397   4.640 -0.6685 -1.3176  0.3594
    4MOL0     H  518   5.493   4.410   4.560  3.5181  0.6341  0.6969
    4MOL0     H  519   5.431   4.559   4.641 -0.3457 -0.5080  0.5543
    4MOL0     H  520   5.659   4.582   4.621 -0.7127  1.0379  1.2006
    4MOL0     H  521   5.656   4.550   4.445  0.5254 -3.0386  2.2599
    4MOL0     H  522   5.478   4.768   4.573 -0.6462  0.8710 -1.8031
    4MOL0     H  523   5.524   4.757   4.412 -1.2066 -2.2793  1.5645
    4MOL0     H  524   5.737   4.784   4.640 -1.8209 -0.7096  0.9936
    4MOL0     H  525   5.769   4.808   4.470 -0.6276  0.2848 -0.3829
    4MOL0     H  526   5.600   5.181   4.589 -0.0631  0.1208 -1.9427
    4MOL0     H  527   5.184   4.547   4.242  2.6044 -1.2347 -0.1065
    4MOL0     H  528   4.950   4.491   4.267 -1.7507 -1.3429  0.7033
    5MOL0     O  529   6.164   1.539   8.729 -0.3589  0.0226 -0.8131
    5MOL0     C  530   6.132   1.554   8.612 -0.0520 -0.3140  0.6244
    5MOL0     O  531   6.212   1.561   8.501 -0.3189  0.6515 -0.8490
    5MOL0     C  532   6.345   1.564   8.506  0.2283 -1.1915  0.3264
    5MOL0     C  533   6.423   1.668   8.438 -0.1903  0.3260 -0.0866
    5MOL0     C  534   6.560   1.662   8.437 -0.7522  0.3629 -0.1024
    5MOL0     C  535   6.628   1.561   8.505 -0.7677 -0.0401  0.1454
    5MOL0     O  536   6.767   1.550   8.503  0.0199 -0.3667  0.8550
    5MOL0     C  537   6.818   1.566   8.367 -0.9385  0.5017 -1.0134
    5MOL0     C  538   6.829   1.426   8.310 -0.2403  0.1077 -0.1868
    5MOL0     C  539   6.966   1.369   8.345  0.8002 -0.0055 -0.4685
    5MOL0     C  540   6.983   1.218   8.308 -0.3481  0.8411  0.2038
    5MOL0     C  541   7.133   1.178   8.286  0.8410 -0.1367 -0.6006
    5MOL0     C  542   7.221   1.167   8.406 -0.2558  0.2539  0.5181
    5MOL0     C  543   7.366   1.164   8.363 -0.0236 -0.3246  0.6166
    5MOL0     C  544   7.450   1.189   8.484 -0.3831  0.6008 -0.4349
    5MOL0     N  545   7.591   1.178   8.456 -0.1001 -0.1133 -0.3500
    5MOL0     C  546   7.688   1.238   8.541  1.1055  0.6608 -0.8390
    5MOL0     C  547   7.800   1.199   8.476 -0.4366  1.0451 -0.4055
    5MOL0     C  548   7.946   1.237   8.511  0.3112  0.6695  0.0101
    5MOL0     C  549   8.030   1.303   8.411 -0.3582 -0.5551 -0.2196
    5MOL0     C  550   7.978   1.450   8.381 -0.2507  0.0925 -0.1396
    5MOL0     C  551   7.837   1.475   8.326  0.1389 -0.6013  0.5791
    5MOL0     O  552   7.737   1.487   8.425  0.0635  1.3793  0.0425
    5MOL0     C  553   7.609   1.514   8.380  0.4929 -0.4114 -0.5230
    5MOL0     C  554   7.531   1.606   8.463  0.1956  0.0940 -0.1197
    5MOL0     C  555   7.416   1.666   8.420 -0.3579  0.4025 -0.1313
    5MOL0     C  556   7.361   1.619   8.295  0.1124 -0.2904 -0.1178
    5MOL0     C  557   7.233   1.687   8.238 -0.2185  0.5460 -0.4242
    5MOL0     O  558   7.207   1.690   8.102  0.1990 -0.1820 -1.0828
    5MOL0     C  559   7.095   1.758   8.044 -0.0213  0.2072  0.5611
    5MOL0     C  560   7.030   1.862   8.104  0.0364 -0.0857  0.3896
    5MOL0     C  561   6.926   1.935   8.037 -0.0060  0.6135  0.3525
    5MOL0     C  562   6.893   1.902   7.902 -0.3068  0.1864 -0.0934
    5MOL0     O  563   6.809   1.967   7.821  0.7512 -0.4042 -0.0634
    5MOL0     C  564   6.773   2.103   7.846  0.5111  0.6130 -0.2959
    5MOL0     C  565   6.647   2.146   7.756  0.3091  0.0280  0.2536
    5MOL0     C  566   6.507   2.143   7.813 -0.4741  0.5333  0.5511
    5MOL0     C  567   6.398   2.176   7.709 -0.2235 -0.3162 -0.4164
    5MOL0     C  568   6.246   2.134   7.743 -0.7029  0.8676  0.1260
    5MOL0     C  569   6.204   2.155   7.895 -0.6821  0.1244  0.6338
    5MOL0     C  570   6.204   2.296   7.956  0.0551 -0.7330  0.0744
    5MOL0     C  571   6.081   2.369   7.931  0.1522 -0.4098  0.5537
    5MOL0    Cl  572   5.927   2.316   8.011  0.1621  0.2409  0.1355
    5MOL0     C  573   6.958   1.795   7.843  0.2393  0.2078  0.0355
    5MOL0     C  574   7.056   1.722   7.913 -0.3893 -0.0183 -0.0683
    5MOL0     O  575   7.161   1.731   8.323  0.4191  0.5329  0.0664
    5MOL0     C  576   7.434   1.536   8.211  0.7670 -0.4322 -0.3418
    5MOL0     C  577   7.550   1.492   8.249 -0.2393  1.0703  0.0562
    5MOL0     N  578   7.763   1.133   8.362 -0.3548  0.5862 -0.8240
    5MOL0     N  579   7.644   1.116   8.343 -0.4085  0.5613 -0.4087
    5MOL0     C  580   6.559   1.463   8.571 -0.7556 -1.0917 -0.1297
    5MOL0     C  581   6.414   1.465   8.567 -1.0638 -0.0704 -0.2078
    5MOL0     C  582   5.987   1.564   8.583 -0.5985  0.8058  0.1245
    5MOL0     C  583   5.906   1.507   8.680 -0.0440  0.2621  0.2253
    5MOL0     C  584   5.769   1.491   8.655 -0.2873 -1.1630  0.3101
    5MOL0     C  585   5.714   1.534   8.534 -0.1717 -0.4113  0.1937
    5MOL0     O  586   5.586   1.520   8.492  0.2298 -0.0983  0.5748
    5MOL0     C  587   5.500   1.442   8.578 -0.4595 -0.1582 -0.5180
    5MOL0     C  588   5.367   1.405   8.521  0.4975 -0.3349 -0.1891
    5MOL0     C  589   5.285   1.534   8.502  0.2354 -0.6112 -0.4931
    5MOL0     C  590   5.165   1.541   8.603 -0.4271  0.5092 -0.3188
    5MOL0     C  591   5.071   1.645   8.556 -0.7276  0.0467 -0.6298
    5MOL0     C  592   4.996   1.726   8.507 -1.3153  0.1951  0.3623
    5MOL0     C  593   5.797   1.589   8.435 -0.0990  0.7048 -0.7656
    5MOL0     C  594   5.930   1.605   8.458 -0.1851 -0.2810 -0.3053
    5MOL0     H  595   6.373   1.756   8.398 -0.4920  0.6343  0.9461
    5MOL0     H  596   6.619   1.742   8.396 -0.0824  0.7040  1.4682
    5MOL0     H  597   6.921   1.602   8.371 -1.4051  1.9357 -1.3685
    5MOL0     H  598   6.766   1.633   8.298  1.5886  2.7433 -0.8864
    5MOL0     H  599   6.828   1.429   8.201 -0.4048 -1.3368 -0.2413
    5MOL0     H  600   6.745   1.369   8.350  0.1969  1.4716  3.0214
    5MOL0     H  601   6.991   1.373   8.452  0.4469  1.8927 -0.4172
    5MOL0     H  602   7.042   1.427   8.291 -0.2001  1.5230 -0.2843
    5MOL0     H  603   6.962   1.151   8.392  2.8304 -1.8386 -0.9039
    5MOL0     H  604   6.927   1.188   8.220 -0.6392  0.3945  0.5354
    5MOL0     H  605   7.175   1.252   8.218 -0.7384 -0.7779 -2.3692
    5MOL0     H  606   7.135   1.084   8.230  1.9872 -1.2473  1.1635
    5MOL0     H  607   7.195   1.076   8.460  1.0652 -1.4060 -1.4768
    5MOL0     H  608   7.207   1.246   8.480 -0.9759  1.1831 -0.5690
    5MOL0     H  609   7.372   1.064   8.317 -1.0529 -0.9375  1.7435
    5MOL0     H  610   7.392   1.242   8.292  1.8525 -3.0938 -1.9994
    5MOL0     H  611   7.422   1.116   8.560 -0.5203 -1.4634 -2.3425
    5MOL0     H  612   7.425   1.288   8.522 -0.9628  0.1585  0.3559
    5MOL0     H  613   7.682   1.309   8.623  0.5066 -1.6526  1.2363
    5MOL0     H  614   7.999   1.145   8.538 -0.9831  0.4434  2.0318
    5MOL0     H  615   7.958   1.295   8.603  0.3899  0.5464  0.0781
    5MOL0     H  616   8.030   1.246   8.318 -2.0339 -2.5502  0.9238
    5MOL0     H  617   8.132   1.303   8.451 -0.7514  0.1591  0.8567
    5MOL0     H  618   7.971   1.498   8.480  1.1431  0.3185 -0.1269
    5MOL0     H  619   8.044   1.492   8.304 -2.2127 -1.9990 -3.1375
    5MOL0     H  620   7.813   1.393   8.258 -2.5958 -0.3942  1.1916
    5MOL0     H  621   7.845   1.566   8.267 -2.0014 -0.6251  0.1724
    5MOL0     H  622   7.584   1.636   8.553  2.3365 -0.3046 -1.1889
    5MOL0     H  623   7.375   1.760   8.456 -0.8720  0.4681 -0.8523
    5MOL0     H  624   7.064   1.900   8.199  1.2450 -0.9468  0.3171
    5MOL0     H  625   6.883   2.020   8.089 -1.5224  0.2046 -0.1852
    5MOL0     H  626   6.863   2.164   7.836  1.3008 -0.6546 -1.3273
    5MOL0     H  627   6.747   2.105   7.952  0.8015  1.2248 -0.2300
    5MOL0     H  628   6.648   2.089   7.663  2.0430  1.1360 -0.4624
    5MOL0     H  629   6.675   2.247   7.724  2.9784 -0.9767 -0.8676
    5MOL0     H  630   6.508   2.204   7.903 -2.0230  0.0652  0.9194
    5MOL0     H  631   6.473   2.046   7.851 -1.1811  0.3534 -0.4851
    5MOL0     H  632   6.397   2.286   7.709 -0.4236 -0.3139 -1.3078
    5MOL0     H  633   6.420   2.149   7.606  0.0252  2.6611 -1.2446
    5MOL0     H  634   6.232   2.028   7.718  0.3003  1.4249 -3.2775
    5MOL0     H  635   6.173   2.176   7.674  1.1163  0.4287 -2.1990
    5MOL0     H  636   6.266   2.089   7.957  1.6781 -2.9052 -4.3559
    5MOL0     H  637   6.104   2.114   7.908  0.3100 -1.4122  5.2402
    5MOL0     H  638   6.225   2.297   8.064  3.4669  1.2503 -0.4571
    5MOL0     H  639   6.294   2.349   7.922 -0.7534 -0.0760 -1.1361
    5MOL0     H  640   6.069   2.363   7.823  1.9100  3.7838 -0.0742
    5MOL0     H  641   6.092   2.478   7.944  0.0821  0.5182 -4.9672
    5MOL0     H  642   6.934   1.767   7.741  0.8079 -0.4584  0.0757
    5MOL0     H  643   7.102   1.641   7.857 -0.6699  1.5727 -2.7628
    5MOL0     H  644   7.400   1.507   8.113  4.7489 -0.3378 -1.9531
    5MOL0     H  645   7.607   1.423   8.189 -2.5140 -0.6634 -0.2609
    5MOL0     H  646   6.613   1.386   8.627  0.3711 -0.3082 -0.1058
    5MOL0     H  647   6.359   1.389   8.622 -0.8072 -1.4431 -1.7461
    5MOL0     H  648   5.946   1.477   8.776 -3.1750 -2.6827  0.7885
    5MOL0     H  649   5.713   1.443   8.734 -0.6879  0.7944  1.2573
    5MOL0     H  650   5.475   1.496   8.670  0.9711 -1.9552  1.0171
    5MOL0     H  651   5.546   1.347   8.606 -2.0838 -0.9917 -0.5398
    5MOL0     H  652   5.382   1.371   8.418  0.7067  2.4519 -1.1928
    5MOL0     H  653   5.311   1.343   8.591  0.1659  0.4208  0.2320
    5MOL0     H  654   5.257   1.535   8.396  2.7179 -1.1312 -1.2157
    5MOL0     H  655   5.346   1.624   8.515 -0.4287  0.0257 -1.5917
    5MOL0     H  656   5.107   1.448   8.600  0.7084 -0.2383 -0.0641
    5MOL0     H  657   5.193   1.554   8.708 -0.4334 -0.8344 -0.1293
    5MOL0     H  658   4.924   1.787   8.456 -0.4594 -1.0330 -2.5404
    5MOL0     H  659   5.751   1.620   8.341  1.0381  1.7698 -0.9927
    5MOL0     H  660   5.987   1.656   8.381 -0.0699 -3.7226 -2.7366
    6MOL0     O  661   2.601   4.097   3.762  0.2238 -0.0648  0.1830
    6MOL0     C  662   2.697   4.086   3.831  0.0518  0.0964  0.7274
    6MOL0     O  663   2.701   4.032   3.960  0.7188 -0.3644  0.1653
    6MOL0     C  664   2.589   3.976   4.020 -0.4712  0.1411 -0.1688
    6MOL0     C  665   2.562   3.842   4.028  0.2834 -0.8578  0.5536
    6MOL0     C  666   2.447   3.795   4.088  0.5112 -0.1560 -0.5358
    6MOL0     C  667   2.355   3.881   4.149  0.9612  0.7169  0.4647
    6MOL0     O  668   2.241   3.829   4.205  0.4930 -0.3857  0.7067
    6MOL0     C  669   2.103   3.873   4.193 -0.8790 -0.8846 -0.1866
    6MOL0     C  670   2.007   3.763   4.234  0.7964  0.7133 -0.0426
    6MOL0     C  671   1.866   3.803   4.276 -0.4960 -0.9986  0.5270
    6MOL0     C  672   1.767   3.839   4.163 -0.1653  0.5230 -0.0079
    6MOL0     C  673   1.786   3.964   4.074 -0.1381  0.7035 -0.4231
    6MOL0     C  674   1.663   4.009   4.000  0.2418  0.0138  0.1597
    6MOL0     C  675   1.583   3.893   3.925 -0.4195  0.5124 -0.6202
    6MOL0     C  676   1.461   3.951   3.859 -0.4973 -0.3825  0.6835
    6MOL0     N  677   1.412   3.840   3.772  0.3831 -0.0614 -0.0334
    6MOL0     C  678   1.475   3.795   3.655  0.0705  0.3533 -0.2131
    6MOL0     C  679   1.408   3.680   3.621  0.4718  0.2102  0.1604
    6MOL0     C  680   1.423   3.598   3.499 -0.0706  0.4692 -0.3483
    6MOL0     C  681   1.335   3.656   3.394  0.0204 -0.2014  0.0963
    6MOL0     C  682   1.326   3.562   3.267 -0.4517 -0.2345 -0.0360
    6MOL0     C  683   1.410   3.596   3.151 -0.1929 -0.1928  0.3107
    6MOL0     O  684   1.548   3.599   3.184  0.2591 -0.2608 -0.4270
    6MOL0     C  685   1.633   3.505   3.145 -0.5888  0.3667 -0.5627
    6MOL0     C  686   1.601   3.374   3.147  0.8350  0.5614  0.0701
    6MOL0     C  687   1.699   3.275   3.139  0.5009 -0.4829  0.8636
    6MOL0     C  688   1.840   3.313   3.122  0.2379  0.0629 -0.1694
    6MOL0     C  689   1.939   3.204   3.099 -0.3040  0.4689  1.0895
    6MOL0     O  690   2.065   3.238   3.127  0.6156  0.2800  0.0012
    6MOL0     C  691   2.170   3.149   3.105 -0.3408  0.0848 -0.0118
    6MOL0     C  692   2.185   3.060   2.994  0.6490 -0.4784 -0.2254
    6MOL0     C  693   2.300   2.988   2.965 -0.1310 -0.1070 -0.0872
    6MOL0     C  694   2.417   3.016   3.040  0.1738  0.9336 -0.1535
    6MOL0     O  695   2.529   2.942   3.022  0.3536 -0.1283 -0.1857
    6MOL0     C  696   2.542   2.850   2.910 -0.5201  0.0251 -0.3924
    6MOL0     C  697   2.560   2.920   2.771  0.0481  0.4253  0.5011
    6MOL0     C  698   2.631   2.837   2.661  0.9253  1.1107 -0.3506
    6MOL0     C  699   2.653   2.909   2.529  0.4584 -0.2415 -0.7324
    6MOL0     C  700   2.723   2.827   2.428  0.4631  1.0406  0.3228
    6MOL0     C  701   2.630   2.722   2.357 -0.4752 -0.3720 -0.0607
    6MOL0     C  702   2.691   2.670   2.219 -0.7104 -0.3706  0.1315
    6MOL0     C  703   2.671   2.517   2.205 -0.2662 -1.6069 -0.2637
    6MOL0    Cl  704   2.506   2.477   2.195  0.2803 -0.6227 -0.3920
    6MOL0     C  705   2.407   3.103   3.148  1.0243 -0.0392  0.3460
    6MOL0     C  706   2.283   3.164   3.183 -0.9720  1.1215 -0.4702
    6MOL0     O  707   1.897   3.092   3.078  0.1402 -0.0322 -0.0029
    6MOL0     C  708   1.870   3.446   3.108  0.3090 -0.0679  0.0471
    6MOL0     C  709   1.767   3.543   3.125 -1.1187  0.4284 -0.0864
    6MOL0     N  710   1.311   3.659   3.716 -0.0781 -0.1393  0.5563
    6MOL0     N  711   1.316   3.753   3.814 -0.2448 -0.5062 -0.2886
    6MOL0     C  712   2.384   4.019   4.145 -0.8668  0.1471  0.8559
    6MOL0     C  713   2.494   4.067   4.078  0.8093  0.9431  0.7591
    6MOL0     C  714   2.825   4.140   3.784 -0.3486  0.5719  0.6216
    6MOL0     C  715   2.831   4.241   3.687 -0.0983 -0.1195  0.8569
    6MOL0     C  716   2.956   4.281   3.646 -0.3481 -0.1322  0.0626
    6MOL0     C  717   3.067   4.222   3.695  0.1325  2.3208 -0.4204
    6MOL0     O  718   3.182   4.275   3.642  0.4916 -0.3705 -0.1975
    6MOL0     C  719   3.307   4.202   3.670 -0.3797 -0.7691  0.3670
    6MOL0     C  720   3.431   4.266   3.618 -0.8043 -0.0676  0.0747
    6MOL0     C  721   3.437   4.410   3.667 -1.1897  0.5585 -0.2327
    6MOL0     C  722   3.504   4.411   3.805  0.8967  0.3289 -0.0269
    6MOL0     C  723   3.649   4.393   3.782 -0.0140 -0.8745  0.0937
    6MOL0     C  724   3.765   4.380   3.759 -0.1293  0.8986 -0.5828
    6MOL0     C  725   3.061   4.118   3.788 -0.2925  0.7805 -0.9472
    6MOL0     C  726   2.941   4.067   3.834  0.1726 -0.1028  0.1080
    6MOL0     H  727   2.638   3.778   3.985 -0.2338 -0.5839 -0.8080
    6MOL0     H  728   2.429   3.688   4.095  1.2534 -0.2387  0.4077
    6MOL0     H  729   2.079   3.892   4.088 -1.3793 -0.3985  0.0104
    6MOL0     H  730   2.092   3.962   4.256 -0.7592 -1.4341  0.6279
    6MOL0     H  731   2.050   3.703   4.315  0.5077  0.8226  0.1943
    6MOL0     H  732   1.998   3.699   4.146  0.1678  1.5425 -0.6031
    6MOL0     H  733   1.879   3.889   4.343  2.7280  0.3407 -1.5706
    6MOL0     H  734   1.825   3.722   4.338 -2.8260 -0.0609  0.3245
    6MOL0     H  735   1.763   3.750   4.099 -0.7482 -0.4285  1.3111
    6MOL0     H  736   1.666   3.846   4.205 -1.4742 -1.7796 -2.4781
    6MOL0     H  737   1.873   3.947   4.010  1.0703  0.2226  1.2979
    6MOL0     H  738   1.804   4.046   4.144 -4.9920  1.3396  0.4418
    6MOL0     H  739   1.692   4.083   3.925 -0.3211  2.2832  2.0354
    6MOL0     H  740   1.590   4.057   4.067  0.4421  0.0392  0.3636
    6MOL0     H  741   1.646   3.843   3.851 -0.6938 -0.9858  0.1231
    6MOL0     H  742   1.549   3.827   4.006 -1.0799  1.8486  0.2402
    6MOL0     H  743   1.489   4.044   3.808  2.3760  0.0637  2.8238
    6MOL0     H  744   1.386   3.971   3.936 -0.1615 -0.5039  1.0432
    6MOL0     H  745   1.555   3.835   3.592 -0.2672 -1.9224 -2.2350
    6MOL0     H  746   1.394   3.495   3.524 -1.1647  1.3537  2.3626
    6MOL0     H  747   1.524   3.607   3.458 -0.4105  0.2166 -1.2876
    6MOL0     H  748   1.368   3.757   3.367 -1.0328  0.0889 -0.1640
    6MOL0     H  749   1.230   3.670   3.421 -0.1105  0.1885 -0.6059
    6MOL0     H  750   1.358   3.463   3.300  0.6470  0.6822  1.7842
    6MOL0     H  751   1.221   3.561   3.237 -0.7365 -0.8276  0.9689
    6MOL0     H  752   1.372   3.684   3.098  2.4271  1.6054  1.2380
    6MOL0     H  753   1.390   3.513   3.082  0.2345  0.3426 -0.4643
    6MOL0     H  754   1.499   3.337   3.147  0.7907  0.5348 -2.0639
    6MOL0     H  755   1.676   3.170   3.126  4.1298 -1.1722 -1.9860
    6MOL0     H  756   2.090   3.043   2.943 -0.8612 -1.1568  2.5962
    6MOL0     H  757   2.299   2.916   2.884  3.9602 -2.2887  1.4499
    6MOL0     H  758   2.466   2.771   2.913 -0.5206  0.0347  2.3758
    6MOL0     H  759   2.637   2.800   2.931 -1.4009 -0.7347  2.0793
    6MOL0     H  760   2.612   3.016   2.779 -0.2749  0.5057  1.9941
    6MOL0     H  761   2.461   2.954   2.740  0.3149  0.0945 -0.7659
    6MOL0     H  762   2.568   2.750   2.642  2.4343  0.1273 -1.0700
    6MOL0     H  763   2.726   2.792   2.692 -0.4618 -3.3900 -1.8028
    6MOL0     H  764   2.559   2.950   2.490  0.9514  1.8927  0.1669
    6MOL0     H  765   2.712   3.000   2.540 -0.4014  0.4309 -1.4753
    6MOL0     H  766   2.819   2.784   2.460 -0.3603 -0.0554  1.4198
    6MOL0     H  767   2.744   2.888   2.340  1.0608  0.4742  0.0680
    6MOL0     H  768   2.529   2.755   2.331 -0.2829 -1.1195 -1.9652
    6MOL0     H  769   2.611   2.638   2.424  2.2142 -1.6131 -0.7234
    6MOL0     H  770   2.647   2.714   2.129  0.9107 -1.4997 -1.2617
    6MOL0     H  771   2.798   2.687   2.208 -1.1770  1.6612 -2.2253
    6MOL0     H  772   2.718   2.474   2.293  0.6526  1.0359  0.6244
    6MOL0     H  773   2.718   2.485   2.111 -0.7603  1.1821 -1.5661
    6MOL0     H  774   2.490   3.118   3.216  0.7574  1.0737  0.4470
    6MOL0     H  775   2.277   3.225   3.272 -0.2196  1.7850 -0.8638
    6MOL0     H  776   1.971   3.468   3.072 -0.7109 -0.3610 -3.3815
    6MOL0     H  777   1.794   3.647   3.116 -2.3528  0.5960 -3.2834
    6MOL0     H  778   2.321   4.094   4.192  1.1692  1.9833  0.7856
    6MOL0     H  779   2.497   4.176   4.077  0.0606  0.9660  0.6998
    6MOL0     H  780   2.747   4.293   3.643  0.9523  0.6593 -0.2947
    6MOL0     H  781   2.978   4.359   3.574 -0.7772 -0.8034 -0.8139
    6MOL0     H  782   3.294   4.097   3.641 -2.4987 -0.1699 -1.1148
    6MOL0     H  783   3.313   4.194   3.779 -1.5185 -0.3578  0.4812
    6MOL0     H  784   3.526   4.215   3.637 -0.2215  0.9115 -0.1429
    6MOL0     H  785   3.428   4.270   3.509  2.3545  1.8661 -0.0722
    6MOL0     H  786   3.338   4.456   3.661 -1.0491  0.6843 -2.5791
    6MOL0     H  787   3.501   4.467   3.599  1.9873 -0.1819  1.9266
    6MOL0     H  788   3.486   4.511   3.846  1.4304  1.4958 -2.4817
    6MOL0     H  789   3.461   4.334   3.869 -3.3266  0.8346 -1.9497
    6MOL0     H  790   3.866   4.343   3.754 -0.7193 -0.8354 -0.2683
    6MOL0     H  791   3.154   4.069   3.817 -1.0927 -2.8271 -3.7285
    6MOL0     H  792   2.952   3.985   3.905  1.5798  0.7667  0.9436
    7MOL0     O  793   4.616   4.177   9.051  0.8082  0.0561  0.2627
    7MOL0     C  794   4.508   4.226   9.001 -0.3543  0.1355  0.0652
    7MOL0     O  795   4.486   4.355   8.946 -0.1959 -0.1840 -0.4843
    7MOL0     C  796   4.597   4.425   8.939 -0.3536 -0.0104 -0.6601
    7MOL0     C  797   4.608   4.546   9.019  0.1312 -0.0727 -0.3287
    7MOL0     C  798   4.725   4.634   9.011  0.2799 -0.2978  0.2770
    7MOL0     C  799   4.828   4.594   8.918 -0.0154 -0.6311 -0.0108
    7MOL0     O  800   4.948   4.653   8.906 -0.1254 -1.0375 -0.2745
    7MOL0     C  801   4.971   4.786   8.961 -0.0129 -0.3873 -0.6294
    7MOL0     C  802   5.126   4.799   8.983 -0.2734 -0.3309  0.3783
    7MOL0     C  803   5.205   4.765   8.856 -0.5212  0.5968  0.4814
    7MOL0     C  804   5.132   4.811   8.719  0.4061 -0.4691 -0.0424
    7MOL0     C  805   5.225   4.782   8.592 -0.8258  0.9688  0.5643
    7MOL0     C  806   5.273   4.637   8.577 -0.2691  0.4789  0.3896
    7MOL0     C  807   5.159   4.536   8.561  0.5270 -0.8031 -0.2497
    7MOL0     C  808   5.209   4.398   8.529  0.1102 -0.6924 -0.4526
    7MOL0     N  809   5.088   4.323   8.529  0.2184  0.1878 -0.1663
    7MOL0     C  810   5.005   4.309   8.423 -0.0680 -0.5859 -0.7707
    7MOL0     C  811   4.901   4.238   8.482  0.0998  0.7304  0.4283
    7MOL0     C  812   4.772   4.207   8.406 -1.1259  0.4405  0.2344
    7MOL0     C  813   4.697   4.334   8.378  0.3176 -0.1519  0.2773
    7MOL0     C  814   4.557   4.313   8.314  0.1107  0.6970 -0.5797
    7MOL0     C  815   4.487   4.444   8.269  0.5785  0.3408 -0.6980
    7MOL0     O  816   4.424   4.513   8.380  0.4935 -0.6882 -0.2400
    7MOL0     C  817   4.322   4.595   8.348  0.6844  0.9075  0.0048
    7MOL0     C  818   4.331   4.712   8.271  0.2842 -0.1872  0.2555
    7MOL0     C  819   4.219   4.792   8.249 -0.4253  0.1297  0.2167
    7MOL0     C  820   4.088   4.745   8.281  1.2037 -0.3757  0.9356
    7MOL0     C  821   3.969   4.828   8.257 -1.2019  0.0488  0.3804
    7MOL0     O  822   3.858   4.804   8.319  0.2905 -0.2630 -0.1929
    7MOL0     C  823   3.744   4.879   8.313  0.5664  0.0862  0.1317
    7MOL0     C  824   3.623   4.813   8.356 -0.0702 -0.1284  0.1364
    7MOL0     C  825   3.503   4.877   8.357 -0.2633 -0.3051 -0.3127
    7MOL0     C  826   3.493   5.013   8.311  0.8900  0.6838  0.1416
    7MOL0     O  827   3.372   5.078   8.294  0.1989 -0.5371  0.0070
    7MOL0     C  828   3.256   5.003   8.323  1.0198 -0.6765  0.5194
    7MOL0     C  829   3.137   5.098   8.324 -0.0679 -0.3781 -0.6162
    7MOL0     C  830   3.126   5.163   8.185  0.0987  0.2293 -0.1709
    7MOL0     C  831   3.031   5.274   8.188  0.9998  0.1853  0.7193
    7MOL0     C  832   2.880   5.230   8.213  0.6626 -0.2488  0.3505
    7MOL0     C  833   2.779   5.334   8.152 -0.4376  0.8651 -0.7821
    7MOL0     C  834   2.764   5.443   8.263  0.9738 -0.7110 -0.2968
    7MOL0     C  835   2.686   5.571   8.225  0.4606  0.4728  0.4408
    7MOL0    Cl  836   2.756   5.641   8.076 -0.3563  0.8262  0.1592
    7MOL0     C  837   3.603   5.083   8.279 -0.4618  0.3730  0.3521
    7MOL0     C  838   3.732   5.018   8.287 -0.8340 -0.1643  0.1188
    7MOL0     O  839   3.988   4.918   8.181 -0.1085  0.8476 -0.1242
    7MOL0     C  840   4.075   4.616   8.351 -0.2954  0.5244  0.0376
    7MOL0     C  841   4.193   4.546   8.383 -0.1263 -0.2711  0.4374
    7MOL0     N  842   4.926   4.221   8.616 -0.1329  1.2828 -0.4920
    7MOL0     N  843   5.039   4.267   8.644 -0.1645 -0.0865 -0.5495
    7MOL0     C  844   4.807   4.488   8.831  0.4423 -0.0730  0.2848
    7MOL0     C  845   4.699   4.401   8.850 -0.3527 -0.4365 -0.3438
    7MOL0     C  846   4.404   4.127   8.982  0.1551  0.0967 -0.6812
    7MOL0     C  847   4.272   4.157   8.930 -0.0599  0.1340  0.0910
    7MOL0     C  848   4.180   4.061   8.909 -0.1199 -0.5094 -0.3519
    7MOL0     C  849   4.197   3.937   8.955 -0.1682  0.1154 -0.0753
    7MOL0     O  850   4.104   3.837   8.965 -0.7480  0.5882 -0.5987
    7MOL0     C  851   3.967   3.862   8.928 -0.8537 -0.6145 -0.0475
    7MOL0     C  852   3.877   3.747   8.976 -0.6609  0.4810 -0.6709
    7MOL0     C  853   3.743   3.740   8.911 -0.2856 -0.4127  0.6691
    7MOL0     C  854   3.659   3.637   8.983  0.2547 -0.3337 -0.1959
    7MOL0     C  855   3.524   3.648   8.942  0.2956  0.7148  0.0562
    7MOL0     C  856   3.411   3.642   8.901  0.2058 -0.1146  0.0157
    7MOL0     C  857   4.328   3.900   8.998 -0.3106 -1.0300  0.0365
    7MOL0     C  858   4.428   3.992   9.014 -0.4052 -0.2712 -0.5579
    7MOL0     H  859   4.530   4.565   9.093  0.4049 -0.9177  0.2006
    7MOL0     H  860   4.748   4.716   9.078  1.0080  0.8867 -1.3506
    7MOL0     H  861   4.933   4.798   9.063 -0.3293 -0.9751 -0.6787
    7MOL0     H  862   4.928   4.872   8.909 -0.8792  2.1117  3.7383
    7MOL0     H  863   5.170   4.737   9.062 -2.1871 -0.5926  1.3130
    7MOL0     H  864   5.158   4.903   8.998  3.7394 -0.9013 -2.8075
    7MOL0     H  865   5.224   4.657   8.852 -1.2047  0.4946 -0.4526
    7MOL0     H  866   5.302   4.813   8.870 -0.9027  2.4771 -2.4963
    7MOL0     H  867   5.044   4.748   8.702 -0.9260  1.0641  0.8748
    7MOL0     H  868   5.109   4.918   8.718  0.0444 -0.4905 -2.7205
    7MOL0     H  869   5.318   4.836   8.610  0.8887 -1.7033  0.3473
    7MOL0     H  870   5.173   4.819   8.503 -3.9572  0.1584  1.9032
    7MOL0     H  871   5.333   4.608   8.664  0.4243  0.0417 -0.2196
    7MOL0     H  872   5.336   4.647   8.488 -0.9836  1.2348 -0.0427
    7MOL0     H  873   5.101   4.535   8.653  2.6074 -1.4941  1.1211
    7MOL0     H  874   5.109   4.568   8.468  2.2898 -3.0926 -2.1025
    7MOL0     H  875   5.275   4.362   8.608 -0.1224  3.1047  1.7431
    7MOL0     H  876   5.264   4.413   8.436  1.8839  2.1415  0.9006
    7MOL0     H  877   5.024   4.342   8.321  0.1277  3.0386  0.2931
    7MOL0     H  878   4.711   4.131   8.456 -0.1134 -1.4227 -1.2380
    7MOL0     H  879   4.804   4.168   8.309  1.8781 -0.7815  1.5797
    7MOL0     H  880   4.761   4.384   8.305 -0.1540 -2.4516 -1.8653
    7MOL0     H  881   4.681   4.394   8.468  1.0857  2.7084 -1.3926
    7MOL0     H  882   4.556   4.237   8.236  2.5415 -1.7791  1.5567
    7MOL0     H  883   4.491   4.269   8.390  0.0188 -0.2077 -1.1696
    7MOL0     H  884   4.411   4.417   8.195 -0.0940  1.0923 -0.3105
    7MOL0     H  885   4.560   4.513   8.225  2.0296 -1.0236 -0.5152
    7MOL0     H  886   4.426   4.755   8.241  0.3061 -1.3445 -1.4763
    7MOL0     H  887   4.225   4.882   8.188  0.5112 -0.6588 -0.8917
    7MOL0     H  888   3.629   4.709   8.387  1.1196  0.3543  1.6172
    7MOL0     H  889   3.409   4.829   8.382 -0.6833 -0.5526 -2.2377
    7MOL0     H  890   3.258   4.953   8.421  4.7222  0.3990  1.1582
    7MOL0     H  891   3.249   4.928   8.243 -3.7488  0.2936 -0.2884
    7MOL0     H  892   3.144   5.178   8.399  1.2161 -1.5308  0.5524
    7MOL0     H  893   3.044   5.044   8.346  0.0714  0.2876  2.0096
    7MOL0     H  894   3.098   5.090   8.108  0.9247 -0.6251  0.3086
    7MOL0     H  895   3.220   5.196   8.140  0.8898 -2.3051 -0.5803
    7MOL0     H  896   3.052   5.351   8.262 -2.3884 -2.0835  4.4984
    7MOL0     H  897   3.032   5.320   8.089  2.0197 -2.7300 -0.7367
    7MOL0     H  898   2.869   5.222   8.321 -2.1211  0.0674  0.1696
    7MOL0     H  899   2.849   5.136   8.166 -2.7398  1.4933 -1.2952
    7MOL0     H  900   2.682   5.286   8.133 -0.4574 -0.1488  1.6091
    7MOL0     H  901   2.821   5.375   8.060  0.5096  2.9246  0.5174
    7MOL0     H  902   2.708   5.404   8.348 -1.8395 -1.4916 -2.3739
    7MOL0     H  903   2.858   5.479   8.307  0.0682  1.4657  0.0144
    7MOL0     H  904   2.695   5.644   8.306  1.5974  2.8411 -1.6478
    7MOL0     H  905   2.579   5.554   8.215  0.8853 -2.2520 -0.2930
    7MOL0     H  906   3.584   5.182   8.240  0.3894  0.9003  1.2222
    7MOL0     H  907   3.823   5.077   8.279  0.7199 -2.5506 -0.9759
    7MOL0     H  908   3.975   4.578   8.370 -1.5442  2.7121 -1.7252
    7MOL0     H  909   4.196   4.453   8.439 -0.3834 -0.3461  0.3298
    7MOL0     H  910   4.887   4.459   8.764 -0.6439 -1.4420 -0.4695
    7MOL0     H  911   4.692   4.309   8.793 -1.8598 -0.1413 -0.6756
    7MOL0     H  912   4.249   4.262   8.917  0.4041  0.2474  0.1710
    7MOL0     H  913   4.090   4.093   8.857  0.4675 -0.5428 -1.4189
    7MOL0     H  914   3.951   3.885   8.822 -0.1209  5.4962  0.8303
    7MOL0     H  915   3.929   3.947   8.985  0.2207 -0.2611  0.1623
    7MOL0     H  916   3.933   3.655   8.958  2.6876  1.4685  3.1365
    7MOL0     H  917   3.876   3.768   9.084  3.2535  2.6431 -0.8554
    7MOL0     H  918   3.764   3.707   8.809 -1.5338  0.0930  0.2290
    7MOL0     H  919   3.697   3.839   8.901  0.1673 -0.3308 -0.6962
    7MOL0     H  920   3.705   3.539   8.964 -0.3646 -0.9213  1.1743
    7MOL0     H  921   3.676   3.653   9.090  1.9224  0.9865 -0.6231
    7MOL0     H  922   3.307   3.635   8.879  0.0742 -0.3875  0.7089
    7MOL0     H  923   4.336   3.795   9.022 -1.0997 -1.4062 -1.2756
    7MOL0     H  924   4.520   3.937   9.033 -2.1982 -4.2557 -2.2301
    8MOL0     O  925   4.092   9.742   0.434  0.2130  1.3214  0.6542
    8MOL0     C  926   4.137   9.709   0.327  0.2304  0.2193  0.5786
    8MOL0     O  927   4.070   9.716   0.216  0.1102 -0.2170  0.2361
    8MOL0     C  928   3.938   9.751   0.204 -0.0705 -0.0737 -0.5489
    8MOL0     C  929   3.842   9.708   0.294 -0.3861 -0.0790  0.0818
    8MOL0     C  930   3.712   9.755   0.282  0.9902 -0.3695  0.8127
    8MOL0     C  931   3.682   9.847   0.168  0.6062  0.8402 -1.6044
    8MOL0     O  932   3.566   9.914   0.137 -0.2773 -0.9583 -0.0557
    8MOL0     C  933   3.457   9.839   0.185 -0.2780 -0.4747 -0.6945
    8MOL0     C  934   3.326   9.907   0.138 -0.7085  0.0297 -0.4569
    8MOL0     C  935   3.205   9.860   0.218 -0.1577  0.6053  0.0378
    8MOL0     C  936   3.177   9.953   0.339  0.0334  0.2184  0.7287
    8MOL0     C  937   3.072   9.896   0.433 -0.4143  0.2434 -0.0148
    8MOL0     C  938   2.982  10.000   0.516  0.3899  0.1593 -0.3779
    8MOL0     C  939   2.853   9.948   0.558  0.2917  0.5408  0.7033
    8MOL0     C  940   2.778  10.058   0.632 -0.5592 -0.1723 -0.1230
    8MOL0     N  941   2.638  10.032   0.669 -0.4816 -0.6516  1.0557
    8MOL0     C  942   2.529  10.029   0.589 -0.3076  0.2784 -0.7213
    8MOL0     C  943   2.421  10.022   0.676 -1.1057 -0.0343 -0.4060
    8MOL0     C  944   2.279  10.041   0.635  0.0801  0.1238  0.3762
    8MOL0     C  945   2.193  10.101   0.744 -0.4210 -0.3908  0.0826
    8MOL0     C  946   2.154   9.981   0.833  0.7645 -0.3775  0.4188
    8MOL0     C  947   2.036  10.010   0.930 -0.4857  0.5308  0.0485
    8MOL0     O  948   2.007   9.883   0.996  0.2416 -0.3669 -0.2465
    8MOL0     C  949   1.880   9.846   1.000 -0.0228  0.3971  0.0720
    8MOL0     C  950   1.845   9.742   0.916  0.5677 -0.2545 -0.0778
    8MOL0     C  951   1.711   9.699   0.904  0.2378  0.2636  0.6192
    8MOL0     C  952   1.610   9.773   0.976  0.3213  0.6269 -0.2056
    8MOL0     C  953   1.466   9.735   0.970 -0.0493 -0.0186  0.1819
    8MOL0     O  954   1.433   9.611   0.921 -0.2239 -0.0533  0.4864
    8MOL0     C  955   1.304   9.586   0.908 -0.5259  0.2687 -0.3426
    8MOL0     C  956   1.222   9.629   0.807 -0.4360  0.3984  0.7954
    8MOL0     C  957   1.086   9.606   0.814  1.0464  0.2942  0.2061
    8MOL0     C  958   1.033   9.526   0.914 -0.4248  0.1303  0.2823
    8MOL0     O  959   0.897   9.500   0.927 -0.2333 -0.2881 -0.0036
    8MOL0     C  960   0.809   9.614   0.885 -0.9307 -0.2510 -0.2462
    8MOL0     C  961   0.674   9.585   0.939  0.4695 -0.1389 -1.3334
    8MOL0     C  962   0.562   9.686   0.908 -0.3726  0.1350  0.0033
    8MOL0     C  963   0.423   9.662   0.968  0.1693 -0.5133 -0.4480
    8MOL0     C  964   0.325   9.756   0.907  0.3911 -1.1086 -0.4103
    8MOL0     C  965   0.174   9.725   0.917  0.5481 -0.1993  0.2612
    8MOL0     C  966   0.078   9.847   0.908 -0.0082 -0.3091 -0.0270
    8MOL0     C  967   0.079   9.894   0.765  0.4041 -0.5409 -0.2936
    8MOL0    Cl  968  -0.011   9.783   0.661  0.0444 -0.1372  0.1424
    8MOL0     C  969   1.127   9.469   1.011  0.4649  0.1037 -0.1422
    8MOL0     C  970   1.258   9.503   1.016  0.5113  0.2056  0.7366
    8MOL0     O  971   1.387   9.820   1.018  0.0790 -0.3759 -0.2944
    8MOL0     C  972   1.650   9.880   1.057 -0.9554 -0.0666 -0.2396
    8MOL0     C  973   1.784   9.919   1.063 -0.0686 -0.0030  0.4824
    8MOL0     N  974   2.482  10.034   0.804 -0.1742 -0.2780  0.8821
    8MOL0     N  975   2.609  10.022   0.795  0.1784  0.4712 -0.5410
    8MOL0     C  976   3.780   9.875   0.086  0.6116 -0.1964 -0.0034
    8MOL0     C  977   3.913   9.834   0.099  0.4464 -0.5259  0.1880
    8MOL0     C  978   4.270   9.665   0.329 -0.2078  0.4315 -0.1395
    8MOL0     C  979   4.337   9.624   0.209 -0.3294  0.8054 -0.4133
    8MOL0     C  980   4.470   9.575   0.213 -0.2019  0.2612  0.2021
    8MOL0     C  981   4.535   9.577   0.335  0.1955 -0.3735 -0.2003
    8MOL0     O  982   4.667   9.532   0.334  0.0692  0.4776  0.7843
    8MOL0     C  983   4.715   9.448   0.437 -0.2975  0.3445 -0.2882
    8MOL0     C  984   4.823   9.527   0.500 -0.1359 -0.3418 -0.8476
    8MOL0     C  985   4.888   9.476   0.632  0.4389 -0.5642  0.0951
    8MOL0     C  986   4.971   9.342   0.633 -0.4853  0.3479  0.4093
    8MOL0     C  987   5.089   9.346   0.542 -0.4405 -0.1410  0.2242
    8MOL0     C  988   5.185   9.338   0.463  0.4860 -0.7009  0.9550
    8MOL0     C  989   4.472   9.632   0.451  0.0403  0.1322  0.5861
    8MOL0     C  990   4.336   9.668   0.451  0.0273 -0.3102 -0.0211
    8MOL0     H  991   3.874   9.632   0.364 -1.2919 -0.7307 -0.1978
    8MOL0     H  992   3.639   9.716   0.352  1.3819 -0.0714  1.3992
    8MOL0     H  993   3.468   9.836   0.293 -1.1443  0.0743 -0.5891
    8MOL0     H  994   3.459   9.735   0.150  1.7885 -1.4921  2.0842
    8MOL0     H  995   3.328   9.896   0.029  1.7941  1.0219 -0.5909
    8MOL0     H  996   3.343  10.015   0.133  1.5834 -0.3133 -1.7256
    8MOL0     H  997   3.206   9.755   0.248 -2.6996 -0.0464 -1.8095
    8MOL0     H  998   3.125   9.873   0.144 -1.3620  0.5504  1.2889
    8MOL0     H  999   3.277   9.961   0.383  2.5200 -2.9254 -3.5637
    8MOL0     H 1000   3.148  10.052   0.305  0.5705  0.2845  0.4475
    8MOL0     H 1001   3.127   9.826   0.497 -4.2728 -1.8246  1.3585
    8MOL0     H 1002   3.007   9.837   0.369  1.2606 -1.9392  0.1888
    8MOL0     H 1003   2.958  10.084   0.452 -0.6749 -1.7385 -2.6027
    8MOL0     H 1004   3.038  10.037   0.603  2.1905  2.4874 -2.4106
    8MOL0     H 1005   2.788   9.913   0.477  1.0841 -0.6357  0.5461
    8MOL0     H 1006   2.861   9.858   0.620  0.8198  0.4828  0.5569
    8MOL0     H 1007   2.768  10.142   0.563 -3.9590  0.0193  0.4533
    8MOL0     H 1008   2.834  10.078   0.724  0.0741 -0.2940 -0.4801
    8MOL0     H 1009   2.515  10.023   0.481 -3.3298 -2.0563 -0.3513
    8MOL0     H 1010   2.239   9.949   0.591 -1.2184  1.8807 -2.4078
    8MOL0     H 1011   2.272  10.103   0.545  0.3236  0.9927  0.9424
    8MOL0     H 1012   2.105  10.149   0.700  0.5806  1.0347 -0.4562
    8MOL0     H 1013   2.257  10.174   0.793  2.9205  0.1028 -4.3057
    8MOL0     H 1014   2.137   9.889   0.777 -1.3511 -0.3496  0.9248
    8MOL0     H 1015   2.241   9.956   0.895  1.6306 -0.5961 -0.8596
    8MOL0     H 1016   1.946  10.053   0.885 -1.9496  3.9113  5.2590
    8MOL0     H 1017   2.063  10.097   0.991  1.2519  1.7532 -2.3533
    8MOL0     H 1018   1.930   9.697   0.866  0.5493 -1.1922  0.6765
    8MOL0     H 1019   1.675   9.618   0.842 -0.3286  0.5296  0.5972
    8MOL0     H 1020   1.250   9.689   0.722  1.7224 -3.3823 -1.4241
    8MOL0     H 1021   1.012   9.629   0.739 -0.9780 -1.4405  1.5670
    8MOL0     H 1022   0.821   9.627   0.777  0.1091 -0.2396 -0.1391
    8MOL0     H 1023   0.845   9.709   0.925  0.9406 -1.1241  0.2408
    8MOL0     H 1024   0.682   9.573   1.048 -0.6451  0.9642 -1.0974
    8MOL0     H 1025   0.640   9.488   0.903 -0.8913 -0.3651  0.3960
    8MOL0     H 1026   0.544   9.678   0.801  0.0053  0.3309 -0.0744
    8MOL0     H 1027   0.609   9.782   0.933  0.4877 -0.2740 -0.0145
    8MOL0     H 1028   0.388   9.560   0.952 -2.4181  0.5418 -2.2442
    8MOL0     H 1029   0.429   9.678   1.076 -3.6072  1.7768 -0.3982
    8MOL0     H 1030   0.357   9.755   0.802  1.0985 -2.3556 -0.1963
    8MOL0     H 1031   0.334   9.860   0.939 -2.2719 -0.8822 -0.1586
    8MOL0     H 1032   0.157   9.676   1.013 -2.5616  0.8532  0.3761
    8MOL0     H 1033   0.147   9.653   0.840  0.6402 -2.2826  2.0902
    8MOL0     H 1034  -0.021   9.810   0.934  0.1099  0.1571  1.1323
    8MOL0     H 1035   0.105   9.933   0.970 -3.5405  2.4221 -1.9161
    8MOL0     H 1036   0.184   9.903   0.733  0.6356 -0.8038  0.3688
    8MOL0     H 1037   0.037   9.995   0.767  5.9133  2.1489  1.7419
    8MOL0     H 1038   1.082   9.396   1.077  0.7618 -3.6616 -3.6878
    8MOL0     H 1039   1.327   9.479   1.096 -0.9006  2.6583  2.8664
    8MOL0     H 1040   1.579   9.932   1.120 -1.5207  0.6940 -1.4729
    8MOL0     H 1041   1.811   9.995   1.136  2.9086 -0.4300 -0.0236
    8MOL0     H 1042   3.765   9.937  -0.002 -1.9107  1.0400  1.1880
    8MOL0     H 1043   3.995   9.864   0.035  1.3785  1.2103  2.0734
    8MOL0     H 1044   4.285   9.613   0.114 -0.2395 -1.0703 -0.2883
    8MOL0     H 1045   4.525   9.537   0.128 -2.8956 -2.8042 -0.3639
    8MOL0     H 1046   4.754   9.355   0.395 -0.3211 -0.7811  2.0326
    8MOL0     H 1047   4.631   9.421   0.501 -2.1436 -3.0518 -3.7130
    8MOL0     H 1048   4.899   9.551   0.425 -0.7234  1.6098 -0.8700
    8MOL0     H 1049   4.781   9.623   0.531 -3.3616 -2.3147  1.4555
    8MOL0     H 1050   4.806   9.466   0.704  0.6338 -3.5773  0.0311
    8MOL0     H 1051   4.954   9.559   0.656  1.3038 -0.4286 -2.4408
    8MOL0     H 1052   5.016   9.338   0.733 -1.6232  1.0064  0.9621
    8MOL0     H 1053   4.911   9.253   0.612  1.8253 -1.1796 -0.1165
    8MOL0     H 1054   5.266   9.313   0.398 -1.7353  0.0622 -2.3706
    8MOL0     H 1055   4.536   9.649   0.537  2.3190 -1.9226 -0.6080
    8MOL0     H 1056   4.304   9.713   0.545  1.1837  0.6661 -0.0845
    9MOL0     O 1057  10.278   6.642   7.702 -0.0307  0.3078  0.1027
    9MOL0     C 1058  10.373   6.614   7.776 -0.0377 -0.0930 -0.3022
    9MOL0     O 1059  10.361   6.545   7.905 -0.6944 -0.8381 -0.9773
    9MOL0     C 1060  10.250   6.502   7.969  0.1818  0.0607  0.0111
    9MOL0     C 1061  10.267   6.440   8.098 -0.5579 -0.1159 -0.1844
    9MOL0     C 1062  10.158   6.421   8.180  0.5387  0.7543 -0.6243
    9MOL0     C 1063  10.028   6.462   8.153 -1.0111 -0.4765 -0.4843
    9MOL0     O 1064   9.941   6.451   8.255 -0.9032  0.1609 -0.4543
    9MOL0     C 1065   9.909   6.308   8.276  0.8140 -0.6472  0.1920
    9MOL0     C 1066   9.763   6.279   8.323 -0.6937  0.2767  0.6123
    9MOL0     C 1067   9.751   6.143   8.393  0.2679  1.0067  0.1092
    9MOL0     C 1068   9.606   6.114   8.435  0.0083 -0.5339 -0.7411
    9MOL0     C 1069   9.596   5.970   8.482 -0.6445 -0.5284 -0.0898
    9MOL0     C 1070   9.454   5.930   8.510 -0.7424 -0.2620 -0.1391
    9MOL0     C 1071   9.391   5.856   8.387 -0.3891 -0.2795 -0.7582
    9MOL0     C 1072   9.252   5.779   8.416  0.2842 -0.4478 -0.9313
    9MOL0     N 1073   9.262   5.676   8.512 -0.7771  0.4153  0.1306
    9MOL0     C 1074   9.365   5.598   8.540 -0.0760  0.1702 -0.5864
    9MOL0     C 1075   9.326   5.517   8.650  0.0590  0.0831  0.5474
    9MOL0     C 1076   9.406   5.410   8.717 -0.2065 -0.8354  0.1772
    9MOL0     C 1077   9.338   5.360   8.851 -0.1084  0.1875  0.2893
    9MOL0     C 1078   9.217   5.281   8.823 -0.5816  0.3125  0.2561
    9MOL0     C 1079   9.201   5.188   8.943 -0.3263  0.0188  0.1782
    9MOL0     O 1080   9.083   5.115   8.954 -0.4905 -0.1091  0.5391
    9MOL0     C 1081   8.974   5.188   8.955 -0.3077 -1.5168  0.2122
    9MOL0     C 1082   8.914   5.211   9.082 -0.7876  0.4478 -0.5429
    9MOL0     C 1083   8.798   5.294   9.099 -0.6465 -0.0171 -0.0322
    9MOL0     C 1084   8.735   5.352   8.993 -0.1567 -0.3723 -0.1049
    9MOL0     C 1085   8.617   5.434   9.011  0.3603 -0.0392  0.5122
    9MOL0     O 1086   8.576   5.471   9.132  0.2204 -0.5896 -0.2594
    9MOL0     C 1087   8.448   5.530   9.148  0.0650  0.1664  1.3499
    9MOL0     C 1088   8.342   5.434   9.162  0.8456 -0.4262  0.6766
    9MOL0     C 1089   8.211   5.476   9.182  0.6202 -0.7146  0.3022
    9MOL0     C 1090   8.184   5.615   9.191  0.3693 -0.3260 -0.1940
    9MOL0     O 1091   8.057   5.667   9.212  0.2445 -0.2225 -0.1512
    9MOL0     C 1092   7.951   5.638   9.118 -0.6195  0.1279  0.0343
    9MOL0     C 1093   7.814   5.672   9.176 -0.0028 -1.6261 -0.0403
    9MOL0     C 1094   7.800   5.823   9.217  0.4903 -0.0742 -0.0786
    9MOL0     C 1095   7.750   5.907   9.103 -0.5284 -0.5528  0.2014
    9MOL0     C 1096   7.593   5.906   9.104  0.6878 -0.1236 -0.6042
    9MOL0     C 1097   7.534   5.994   8.993  0.0172 -0.4392 -0.4258
    9MOL0     C 1098   7.601   6.122   8.955  0.3781 -0.6516  0.0342
    9MOL0     C 1099   7.540   6.201   8.842 -0.0102  0.4530 -0.4107
    9MOL0    Cl 1100   7.396   6.301   8.907  0.1625  0.4522 -0.1282
    9MOL0     C 1101   8.286   5.714   9.176 -0.2827  0.5887  0.6511
    9MOL0     C 1102   8.412   5.666   9.156 -0.9582 -0.8627  0.1283
    9MOL0     O 1103   8.540   5.438   8.913 -0.2799  0.2720 -0.1142
    9MOL0     C 1104   8.785   5.317   8.863  0.3217  0.5595 -0.6848
    9MOL0     C 1105   8.903   5.240   8.849  0.7394  0.7896 -0.5536
    9MOL0     N 1106   9.191   5.546   8.678  0.2426  0.8462  0.2232
    9MOL0     N 1107   9.160   5.636   8.588  0.5393  0.0169  1.3792
    9MOL0     C 1108  10.003   6.521   8.031 -0.3308  0.8438  0.3994
    9MOL0     C 1109  10.115   6.534   7.940  0.1103  0.5488  0.1895
    9MOL0     C 1110  10.502   6.643   7.732 -0.3561  0.3705 -0.6876
    9MOL0     C 1111  10.611   6.628   7.819  0.1218 -0.3430 -0.3100
    9MOL0     C 1112  10.744   6.668   7.786 -0.1557 -0.4386  0.3592
    9MOL0     C 1113  10.771   6.725   7.659 -0.2324 -0.0261 -0.3066
    9MOL0     O 1114  10.882   6.784   7.613  0.0754  0.3560  0.4451
    9MOL0     C 1115  10.995   6.772   7.696  0.9747 -0.1101 -0.2933
    9MOL0     C 1116  11.115   6.827   7.622  0.5596 -0.2562  0.6590
    9MOL0     C 1117  11.211   6.884   7.727 -0.5792 -0.3288  0.2413
    9MOL0     C 1118  11.349   6.913   7.674  0.1268 -0.2529 -0.3499
    9MOL0     C 1119  11.401   6.799   7.593  0.6149  0.0995 -0.7063
    9MOL0     C 1120  11.459   6.719   7.526  0.2797  0.0763 -0.2092
    9MOL0     C 1121  10.665   6.737   7.568  0.3574 -0.0022  0.0567
    9MOL0     C 1122  10.533   6.693   7.603 -0.3067 -0.4586 -0.7959
    9MOL0     H 1123  10.367   6.415   8.133 -1.1939  0.6651  2.4077
    9MOL0     H 1124  10.183   6.388   8.280  2.4527 -2.6267 -2.0608
    9MOL0     H 1125   9.984   6.267   8.345  0.5240 -1.3016  0.1285
    9MOL0     H 1126   9.932   6.256   8.182  3.6784  2.1879 -0.8543
    9MOL0     H 1127   9.700   6.272   8.234 -0.4222  0.8378  0.3753
    9MOL0     H 1128   9.719   6.358   8.385  2.5105  1.0686  2.0571
    9MOL0     H 1129   9.821   6.130   8.476  0.9059  0.4656 -0.5053
    9MOL0     H 1130   9.775   6.063   8.322  0.1416 -1.2713  2.4901
    9MOL0     H 1131   9.587   6.183   8.518 -0.4709  1.5839 -2.5282
    9MOL0     H 1132   9.537   6.135   8.354  1.6716  1.6870 -1.7117
    9MOL0     H 1133   9.649   5.970   8.578 -1.4410  2.2827  0.4395
    9MOL0     H 1134   9.645   5.900   8.414  0.9919 -0.9610  1.4625
    9MOL0     H 1135   9.402   6.018   8.548  0.9515  0.3908  0.7879
    9MOL0     H 1136   9.454   5.866   8.599  0.1141  0.3438  0.3142
    9MOL0     H 1137   9.377   5.930   8.308  0.6890 -0.0257 -0.7347
    9MOL0     H 1138   9.459   5.779   8.349  0.9257 -0.7422  2.2505
    9MOL0     H 1139   9.224   5.731   8.322 -0.7043  0.0666 -0.9161
    9MOL0     H 1140   9.175   5.852   8.442  0.0287 -1.2695  0.7525
    9MOL0     H 1141   9.463   5.604   8.495  0.6686 -0.7521  0.8522
    9MOL0     H 1142   9.505   5.452   8.741 -1.0694  0.5452  1.4951
    9MOL0     H 1143   9.420   5.324   8.651  0.3613  1.1734 -2.4789
    9MOL0     H 1144   9.307   5.443   8.915 -1.3784 -0.3527  0.4132
    9MOL0     H 1145   9.413   5.303   8.906 -0.9923 -3.0022 -1.4932
    9MOL0     H 1146   9.133   5.350   8.807  0.5320  1.5394 -0.5322
    9MOL0     H 1147   9.215   5.218   8.734  1.1872  1.8907 -0.9667
    9MOL0     H 1148   9.224   5.241   9.036  0.9883 -0.2653  0.0320
    9MOL0     H 1149   9.284   5.119   8.930 -0.8425 -0.2921 -1.8963
    9MOL0     H 1150   8.954   5.151   9.164  1.8249 -1.0454 -2.7435
    9MOL0     H 1151   8.764   5.315   9.200  3.3603  1.8448  1.1364
    9MOL0     H 1152   8.361   5.328   9.150 -2.3008 -1.0071 -0.0558
    9MOL0     H 1153   8.121   5.417   9.201 -0.4078  0.3219 -1.1167
    9MOL0     H 1154   7.958   5.534   9.084  0.5579  0.1618  0.1177
    9MOL0     H 1155   7.984   5.696   9.030 -1.3531 -1.9395 -1.6836
    9MOL0     H 1156   7.792   5.616   9.268 -0.0217 -2.5926 -0.6195
    9MOL0     H 1157   7.734   5.650   9.105 -0.5820  0.3743 -0.0794
    9MOL0     H 1158   7.900   5.857   9.243  0.3009  0.4300  0.0111
    9MOL0     H 1159   7.732   5.834   9.303  1.0875 -1.9362  0.6759
    9MOL0     H 1160   7.788   6.009   9.107 -0.0913 -0.7341  0.7802
    9MOL0     H 1161   7.780   5.864   9.007 -2.4196 -0.9836 -0.2469
    9MOL0     H 1162   7.563   5.943   9.203  0.2144  0.5158 -0.9794
    9MOL0     H 1163   7.541   5.810   9.097 -0.6105  0.4826  0.2333
    9MOL0     H 1164   7.427   6.012   9.007 -0.0997 -0.1042 -1.7041
    9MOL0     H 1165   7.535   5.925   8.908  0.5547 -0.2888 -0.5425
    9MOL0     H 1166   7.608   6.186   9.044 -1.2142 -0.2927 -0.0516
    9MOL0     H 1167   7.700   6.109   8.913 -0.3383  1.0726 -2.4244
    9MOL0     H 1168   7.512   6.153   8.748 -0.8928  1.4626 -0.6890
    9MOL0     H 1169   7.621   6.265   8.805 -1.0579  1.9922 -0.1313
    9MOL0     H 1170   8.260   5.819   9.173  0.3912  0.7929  1.7130
    9MOL0     H 1171   8.493   5.738   9.150  0.9424 -2.9566 -0.9107
    9MOL0     H 1172   8.738   5.332   8.766  0.5029 -2.5599 -1.3629
    9MOL0     H 1173   8.938   5.224   8.748 -1.5572  1.9309 -1.6224
    9MOL0     H 1174   9.908   6.563   8.002  0.0623  0.9158 -0.8434
    9MOL0     H 1175  10.091   6.582   7.845  1.9017  1.8385  0.3391
    9MOL0     H 1176  10.588   6.586   7.916  0.0792 -0.8149 -0.5195
    9MOL0     H 1177  10.824   6.667   7.859 -0.5149  1.7609  0.8357
    9MOL0     H 1178  11.004   6.677   7.749 -0.8258  0.3044  0.8303
    9MOL0     H 1179  10.969   6.845   7.773 -1.8741  0.4590 -1.6527
    9MOL0     H 1180  11.157   6.752   7.554  2.5095  0.3103  1.1965
    9MOL0     H 1181  11.098   6.919   7.566  2.9073 -0.2065 -0.0414
    9MOL0     H 1182  11.223   6.815   7.812 -1.1822 -3.7332 -2.2140
    9MOL0     H 1183  11.177   6.979   7.768 -0.2787 -0.5449  1.0105
    9MOL0     H 1184  11.348   7.001   7.610 -0.3077 -0.9991 -1.3964
    9MOL0     H 1185  11.423   6.927   7.753  3.3574 -1.6119 -2.8935
    9MOL0     H 1186  11.512   6.647   7.466  2.2902 -0.9915  2.6028
    9MOL0     H 1187  10.676   6.772   7.466  1.2315 -0.8054 -0.1374
    9MOL0     H 1188  10.450   6.712   7.536 -1.3589  1.2971  0.8832
   10MOL0     O 1189  10.982   0.784   7.615 -0.1916  0.1061  0.1044
   10MOL0     C 1190  10.950   0.718   7.516  0.6534  0.8807 -0.0546
   10MOL0     O 1191  10.849   0.749   7.423 -0.3562 -0.3633  0.2074
   10MOL0     C 1192  10.761   0.852   7.441  0.5270 -0.0639  0.7425
   10MOL0     C 1193  10.702   0.905   7.327 -0.4502 -0.4829  0.2172
   10MOL0     C 1194  10.613   1.004   7.337  0.1911 -0.4832  0.1062
   10MOL0     C 1195  10.582   1.067   7.456  0.2148  1.4419 -0.6955
   10MOL0     O 1196  10.502   1.174   7.457  1.1073 -0.7243 -0.1489
   10MOL0     C 1197  10.456   1.237   7.580 -0.1843  0.0614  0.1151
   10MOL0     C 1198  10.337   1.327   7.552  0.3014 -0.0559  0.7698
   10MOL0     C 1199  10.212   1.260   7.514  0.1847  0.0795  0.4229
   10MOL0     C 1200  10.111   1.366   7.474 -0.4806 -0.1623 -0.8226
   10MOL0     C 1201  10.051   1.432   7.603  0.2852  0.0207  0.0803
   10MOL0     C 1202   9.973   1.564   7.560 -0.5071 -0.8099  0.5227
   10MOL0     C 1203   9.856   1.542   7.471  0.1808 -0.0115 -0.3337
   10MOL0     C 1204   9.797   1.681   7.440  0.0388 -0.0512  0.3544
   10MOL0     N 1205   9.660   1.670   7.389  0.2950  0.7518 -0.4373
   10MOL0     C 1206   9.624   1.625   7.263  0.1628 -0.6547 -0.6358
   10MOL0     C 1207   9.496   1.606   7.271  0.3645 -0.1501 -0.7127
   10MOL0     C 1208   9.418   1.555   7.157  0.4028 -0.2505  0.5210
   10MOL0     C 1209   9.268   1.586   7.160  0.0727 -0.4073  0.5622
   10MOL0     C 1210   9.191   1.538   7.027  0.6403 -0.3949 -0.8966
   10MOL0     C 1211   9.042   1.569   7.058 -0.2654  0.3181  0.8741
   10MOL0     O 1212   8.950   1.527   6.958 -0.6568 -0.0136 -0.3769
   10MOL0     C 1213   8.813   1.553   6.971  0.3912 -0.5677 -0.3835
   10MOL0     C 1214   8.739   1.548   6.854 -0.5206 -0.5014  0.6893
   10MOL0     C 1215   8.604   1.581   6.843  0.8718  0.2847 -0.0652
   10MOL0     C 1216   8.541   1.617   6.958  0.2866 -1.2223 -0.5454
   10MOL0     C 1217   8.396   1.644   6.966  0.5324  0.3114 -0.1592
   10MOL0     O 1218   8.342   1.660   7.090  0.8747 -0.1718 -0.3960
   10MOL0     C 1219   8.210   1.704   7.107  0.0785  0.7234  0.4164
   10MOL0     C 1220   8.125   1.763   7.014 -0.6333  0.8794  0.2483
   10MOL0     C 1221   7.987   1.772   7.035 -0.6623 -0.0474  0.1415
   10MOL0     C 1222   7.937   1.727   7.159  0.0186  0.5399  0.8117
   10MOL0     O 1223   7.802   1.722   7.164  1.0593  0.7911  0.7649
   10MOL0     C 1224   7.734   1.631   7.252  0.4329 -0.2499  0.6139
   10MOL0     C 1225   7.616   1.692   7.328 -0.0964 -0.2944 -0.5195
   10MOL0     C 1226   7.498   1.695   7.240 -0.1416 -0.6322  1.4906
   10MOL0     C 1227   7.508   1.789   7.125 -0.0344  0.0826 -0.6478
   10MOL0     C 1228   7.367   1.806   7.062 -0.1829  0.2632 -0.2008
   10MOL0     C 1229   7.249   1.852   7.150  0.2537  0.0002  0.1709
   10MOL0     C 1230   7.131   1.873   7.066  0.6693  0.2406  0.7075
   10MOL0     C 1231   7.025   1.952   7.132  0.1855 -0.4217 -0.3244
   10MOL0    Cl 1232   6.871   1.989   7.040 -0.1455 -0.1858  0.4203
   10MOL0     C 1233   8.025   1.682   7.260  0.4006 -0.0977 -0.4783
   10MOL0     C 1234   8.161   1.669   7.233  0.2356  0.6163  0.2876
   10MOL0     O 1235   8.343   1.646   6.852 -0.3520 -0.2444  0.1994
   10MOL0     C 1236   8.610   1.626   7.086 -0.7490  0.5791 -0.0635
   10MOL0     C 1237   8.747   1.597   7.087 -1.7993  0.3245 -0.5808
   10MOL0     N 1238   9.446   1.646   7.388  0.2090 -0.4081  0.0898
   10MOL0     N 1239   9.542   1.681   7.461 -0.4199  0.1532  0.3434
   10MOL0     C 1240  10.632   1.007   7.571 -0.4956 -0.4717 -0.0404
   10MOL0     C 1241  10.724   0.902   7.566  0.2691  0.3016  0.1758
   10MOL0     C 1242  11.035   0.613   7.477 -0.4318  2.1949 -0.7887
   10MOL0     C 1243  11.163   0.595   7.534 -0.3271  0.1955  0.4179
   10MOL0     C 1244  11.250   0.495   7.497 -0.0502  0.0057 -0.3426
   10MOL0     C 1245  11.205   0.400   7.406 -0.3764 -0.2491 -0.5747
   10MOL0     O 1246  11.289   0.305   7.364 -0.1089  0.9418  0.7703
   10MOL0     C 1247  11.399   0.336   7.269 -0.1017  0.3411  0.2281
   10MOL0     C 1248  11.515   0.423   7.324  0.7244  0.2134  0.3137
   10MOL0     C 1249  11.583   0.348   7.441  0.6783 -0.5943 -0.1865
   10MOL0     C 1250  11.710   0.420   7.483  0.1689 -0.1846  0.3038
   10MOL0     C 1251  11.676   0.543   7.555 -0.0647  0.3438 -0.6786
   10MOL0     C 1252  11.635   0.641   7.627  0.3990  0.3655 -0.1252
   10MOL0     C 1253  11.087   0.423   7.338 -0.5422  0.6459  0.6559
   10MOL0     C 1254  11.006   0.527   7.372  0.8499  1.1512 -0.0037
   10MOL0     H 1255  10.719   0.873   7.225  1.3840  1.6067 -0.2139
   10MOL0     H 1256  10.570   1.056   7.252  1.1949 -2.1368 -1.4869
   10MOL0     H 1257  10.533   1.298   7.629  1.3699 -2.5181  1.1363
   10MOL0     H 1258  10.427   1.173   7.664  0.0340  2.0784  1.7966
   10MOL0     H 1259  10.361   1.411   7.486 -0.4448  1.1577  1.9789
   10MOL0     H 1260  10.324   1.380   7.647 -0.1843  0.4440  0.4312
   10MOL0     H 1261  10.163   1.206   7.596 -0.0881  1.3443  1.1082
   10MOL0     H 1262  10.227   1.190   7.431 -3.8046 -1.2973  0.6450
   10MOL0     H 1263  10.167   1.443   7.420 -0.6961 -0.7668 -1.9358
   10MOL0     H 1264  10.041   1.330   7.398 -0.7161 -3.0078  0.6165
   10MOL0     H 1265  10.132   1.459   7.672  1.1998 -1.4017 -0.3959
   10MOL0     H 1266   9.977   1.365   7.648 -1.7494  1.4111 -1.0441
   10MOL0     H 1267  10.038   1.634   7.507 -2.4409 -0.0705 -0.9782
   10MOL0     H 1268   9.945   1.606   7.657 -1.1689  2.0790 -0.8047
   10MOL0     H 1269   9.873   1.493   7.374  0.5792 -0.0157 -0.2612
   10MOL0     H 1270   9.782   1.484   7.527  2.4519 -1.5528  1.2603
   10MOL0     H 1271   9.853   1.738   7.365 -0.2685 -0.9698 -0.5951
   10MOL0     H 1272   9.813   1.749   7.525  2.2010  0.0726 -0.0900
   10MOL0     H 1273   9.686   1.608   7.176  0.7931 -1.3681 -0.0556
   10MOL0     H 1274   9.447   1.451   7.143 -3.6645 -1.5966  0.8547
   10MOL0     H 1275   9.452   1.625   7.079 -0.2912  0.8659  1.2012
   10MOL0     H 1276   9.242   1.692   7.167 -2.2401 -0.7713 -1.2523
   10MOL0     H 1277   9.227   1.534   7.248  0.1962 -1.7100 -0.1266
   10MOL0     H 1278   9.225   1.598   6.943 -2.5939  1.7142 -0.8666
   10MOL0     H 1279   9.204   1.429   7.016 -2.0113 -1.1949  2.2947
   10MOL0     H 1280   9.035   1.676   7.081  3.4817  0.5518  1.6376
   10MOL0     H 1281   9.012   1.519   7.151 -1.6775 -0.4747  0.0346
   10MOL0     H 1282   8.800   1.509   6.773  0.2427 -1.2094  1.5825
   10MOL0     H 1283   8.546   1.554   6.755 -0.0301  0.2999  0.5109
   10MOL0     H 1284   8.177   1.792   6.923  2.8024 -0.4445  1.6142
   10MOL0     H 1285   7.924   1.821   6.961 -1.5051 -2.0845 -0.5523
   10MOL0     H 1286   7.803   1.582   7.321 -0.4071 -1.2445  0.7877
   10MOL0     H 1287   7.692   1.552   7.189 -2.2123  1.3598  0.2100
   10MOL0     H 1288   7.633   1.794   7.361 -1.9529 -0.4659  1.1417
   10MOL0     H 1289   7.581   1.635   7.415  1.6165 -1.6855 -0.6778
   10MOL0     H 1290   7.418   1.731   7.306 -0.5860  1.6739 -0.2128
   10MOL0     H 1291   7.472   1.598   7.196  2.5505 -0.3495 -1.0069
   10MOL0     H 1292   7.542   1.884   7.169  0.1193  0.5505 -1.7529
   10MOL0     H 1293   7.572   1.753   7.044  0.9013 -1.3442  0.6683
   10MOL0     H 1294   7.331   1.714   7.016 -0.9499  0.5715 -0.2263
   10MOL0     H 1295   7.393   1.881   6.986 -1.1947  0.0101 -0.8096
   10MOL0     H 1296   7.271   1.941   7.209  2.1527 -0.1421 -0.2482
   10MOL0     H 1297   7.216   1.773   7.219 -0.8258  0.4674  0.1993
   10MOL0     H 1298   7.144   1.924   6.970 -0.2793  0.5191  0.7110
   10MOL0     H 1299   7.082   1.777   7.045 -2.0796  1.9835 -1.7918
   10MOL0     H 1300   7.054   2.053   7.163  1.8461 -0.2121 -2.3486
   10MOL0     H 1301   6.991   1.897   7.220  0.5749  1.9847  1.4165
   10MOL0     H 1302   7.994   1.651   7.359  1.7880  1.2555  0.4248
   10MOL0     H 1303   8.233   1.637   7.308  3.3546  0.0330 -2.6695
   10MOL0     H 1304   8.563   1.655   7.179  0.1323 -1.7709  1.1972
   10MOL0     H 1305   8.799   1.602   7.182 -1.7222  0.7788 -0.6468
   10MOL0     H 1306  10.607   1.029   7.674  3.6126  0.6628  0.8816
   10MOL0     H 1307  10.754   0.855   7.659 -0.2043 -3.4905 -1.4159
   10MOL0     H 1308  11.195   0.675   7.601 -1.0225  1.2701 -0.5068
   10MOL0     H 1309  11.352   0.489   7.533  0.0971  2.1459 -0.2578
   10MOL0     H 1310  11.355   0.385   7.182  0.0217  1.5456  0.8326
   10MOL0     H 1311  11.426   0.234   7.240  0.0283  0.4892 -0.1681
   10MOL0     H 1312  11.589   0.441   7.245  1.0530  0.8108  0.7389
   10MOL0     H 1313  11.475   0.517   7.364 -0.0565  0.4203 -0.9262
   10MOL0     H 1314  11.607   0.248   7.402  0.2110 -1.1810  0.9679
   10MOL0     H 1315  11.520   0.343   7.531 -1.6075  3.8158 -1.2860
   10MOL0     H 1316  11.776   0.365   7.550  0.2979 -0.7898 -0.3067
   10MOL0     H 1317  11.768   0.447   7.394 -1.5327  0.1957 -0.7460
   10MOL0     H 1318  11.598   0.725   7.683 -5.1324 -1.3692 -0.5444
   10MOL0     H 1319  11.056   0.344   7.271  1.7217 -2.6272  3.1642
   10MOL0     H 1320  10.914   0.526   7.315 -0.0593  0.0616  1.4256
   11MOL0     O 1321   4.402  10.005   0.593  1.0360  0.5579  0.8066
   11MOL0     C 1322   4.465  10.023   0.489 -0.4533 -0.2203 -0.3371
   11MOL0     O 1323   4.418  10.070   0.373  0.1376  0.7247 -0.3004
   11MOL0     C 1324   4.288  10.116   0.361 -0.1779  0.0245  0.4397
   11MOL0     C 1325   4.263  10.214   0.261  0.3592 -0.6332 -0.6350
   11MOL0     C 1326   4.135  10.269   0.238  0.0535  1.0057 -0.0584
   11MOL0     C 1327   4.021  10.211   0.297 -0.0974 -0.3121 -0.5446
   11MOL0     O 1328   3.911  10.278   0.256 -0.0075 -0.5883 -0.5973
   11MOL0     C 1329   3.781  10.222   0.271  0.0660  0.3181 -0.0139
   11MOL0     C 1330   3.678  10.329   0.231 -0.2141 -0.2661 -0.1881
   11MOL0     C 1331   3.532  10.273   0.240 -0.7252 -0.0407 -0.3829
   11MOL0     C 1332   3.431  10.396   0.219 -0.0456  0.1909 -0.2759
   11MOL0     C 1333   3.294  10.360   0.276 -0.4303 -0.0204  0.0459
   11MOL0     C 1334   3.192  10.472   0.288 -0.5818 -0.0899  0.3666
   11MOL0     C 1335   3.062  10.419   0.353  0.2808  0.0947 -0.3493
   11MOL0     C 1336   2.966  10.348   0.261  0.5189 -0.1080 -0.7123
   11MOL0     N 1337   2.829  10.291   0.305 -0.2193  0.2049  0.0674
   11MOL0     C 1338   2.721  10.356   0.363 -0.7158 -0.2184  0.0921
   11MOL0     C 1339   2.620  10.267   0.369 -0.6016 -0.5984 -0.0360
   11MOL0     C 1340   2.483  10.315   0.409 -0.1992  0.3976 -0.2295
   11MOL0     C 1341   2.478  10.417   0.525 -0.2142 -0.3675  0.1011
   11MOL0     C 1342   2.331  10.425   0.582 -0.3006 -0.3761  0.1199
   11MOL0     C 1343   2.222  10.444   0.482 -0.1170 -0.0503 -0.2342
   11MOL0     O 1344   2.176  10.310   0.450 -0.1113 -0.4510 -0.3155
   11MOL0     C 1345   2.039  10.302   0.455  0.3822 -0.6972 -0.2687
   11MOL0     C 1346   2.001  10.194   0.379 -0.7174 -0.0948  0.0803
   11MOL0     C 1347   1.869  10.167   0.353 -0.4432  0.5849  0.4725
   11MOL0     C 1348   1.773  10.243   0.416 -0.7793  0.4803  0.6421
   11MOL0     C 1349   1.633  10.224   0.389  1.1223 -0.3946 -0.2311
   11MOL0     O 1350   1.549  10.329   0.409  0.2668 -0.2751  0.0815
   11MOL0     C 1351   1.417  10.313   0.403 -0.1331  0.8645 -0.0397
   11MOL0     C 1352   1.346  10.310   0.518  0.6484  1.2393 -0.3468
   11MOL0     C 1353   1.206  10.308   0.528 -0.5501 -0.0830  0.0673
   11MOL0     C 1354   1.137  10.312   0.412  0.8956  0.0990  0.3503
   11MOL0     O 1355   1.001  10.304   0.418  0.3000 -0.2633 -0.6852
   11MOL0     C 1356   0.923  10.274   0.307  0.2803 -0.0464  0.0769
   11MOL0     C 1357   0.777  10.236   0.342  1.3708 -0.4660 -0.4763
   11MOL0     C 1358   0.687  10.355   0.395  0.1722  0.4777  0.3819
   11MOL0     C 1359   0.541  10.295   0.427 -0.6653 -0.1701  0.0763
   11MOL0     C 1360   0.446  10.412   0.467  0.7206 -0.2411 -0.9312
   11MOL0     C 1361   0.323  10.367   0.552  0.3572  0.7968 -0.3393
   11MOL0     C 1362   0.241  10.240   0.490 -0.1817  0.5618  0.3966
   11MOL0     C 1363   0.108  10.226   0.549 -0.0429  0.7381 -0.3000
   11MOL0    Cl 1364  -0.001  10.371   0.530  0.0254 -0.0557  0.4150
   11MOL0     C 1365   1.207  10.329   0.288  0.1318  0.3399  0.5810
   11MOL0     C 1366   1.346  10.318   0.285 -0.0829 -0.1828  0.5535
   11MOL0     O 1367   1.595  10.116   0.353  0.2938 -0.7249 -0.2351
   11MOL0     C 1368   1.812  10.351   0.500  0.4132 -0.0596 -0.1990
   11MOL0     C 1369   1.942  10.378   0.518 -0.2208 -0.1534  0.9227
   11MOL0     N 1370   2.667  10.143   0.315  0.3278 -0.0541  0.3590
   11MOL0     N 1371   2.786  10.158   0.281 -0.1344  0.6088 -0.3198
   11MOL0     C 1372   4.041  10.107   0.390 -0.1030  0.9205  0.3714
   11MOL0     C 1373   4.169  10.065   0.423  0.7847  0.1629 -0.1017
   11MOL0     C 1374   4.604   9.979   0.478 -0.6323 -0.5643 -0.2003
   11MOL0     C 1375   4.688   9.964   0.586  0.5687 -0.3817  0.1953
   11MOL0     C 1376   4.817   9.913   0.567  1.0962  0.4326  0.3753
   11MOL0     C 1377   4.869   9.892   0.447  0.0200 -1.0047 -0.3299
   11MOL0     O 1378   4.992   9.829   0.434  0.2476  0.2263 -0.4012
   11MOL0     C 1379   5.102   9.829   0.526  0.9772 -0.2640  0.7074
   11MOL0     C 1380   5.157   9.969   0.558 -0.1618 -0.4806  0.1544
   11MOL0     C 1381   5.198  10.040   0.430 -0.1903 -0.0273  0.4174
   11MOL0     C 1382   5.304  10.147   0.442 -0.3628  0.5099 -0.2236
   11MOL0     C 1383   5.243  10.265   0.503  1.0343  0.6094 -0.7410
   11MOL0     C 1384   5.182  10.348   0.566 -1.0900 -0.0608  0.8723
   11MOL0     C 1385   4.795   9.923   0.336  0.1665 -1.1037  0.6376
   11MOL0     C 1386   4.666   9.966   0.356  0.6664 -0.0035  0.0939
   11MOL0     H 1387   4.351  10.235   0.201  0.2779 -0.9232 -0.8582
   11MOL0     H 1388   4.121  10.351   0.168 -1.8399  1.2379  0.5331
   11MOL0     H 1389   3.758  10.191   0.373  2.2089  1.0695  0.7541
   11MOL0     H 1390   3.769  10.137   0.204  1.7446  1.3913 -1.7774
   11MOL0     H 1391   3.685  10.373   0.131  0.7858  0.4952  0.2041
   11MOL0     H 1392   3.696  10.412   0.299  0.9487  0.9331 -1.8627
   11MOL0     H 1393   3.529  10.232   0.341  0.4123 -0.3473 -0.4566
   11MOL0     H 1394   3.523  10.187   0.173  3.7797 -1.3753  0.4214
   11MOL0     H 1395   3.471  10.485   0.271 -1.0485  0.3847  0.1894
   11MOL0     H 1396   3.405  10.420   0.116 -1.0370  3.2781  0.5761
   11MOL0     H 1397   3.305  10.332   0.381 -1.4340 -1.6371 -0.2363
   11MOL0     H 1398   3.249  10.274   0.225 -0.6421 -0.2297  0.5732
   11MOL0     H 1399   3.167  10.496   0.184  1.2726 -0.8650 -0.3194
   11MOL0     H 1400   3.236  10.555   0.344 -0.0012 -0.7618  0.9369
   11MOL0     H 1401   3.076  10.356   0.441  1.4916  0.3502 -0.3517
   11MOL0     H 1402   3.003  10.506   0.386  0.7654 -0.0517  0.9597
   11MOL0     H 1403   3.014  10.262   0.214 -3.9428 -3.3749  0.0704
   11MOL0     H 1404   2.962  10.423   0.181  0.4866  0.2267 -0.4015
   11MOL0     H 1405   2.717  10.463   0.382 -0.1376 -0.1934  0.0974
   11MOL0     H 1406   2.423  10.228   0.440 -2.6884  2.4605  1.1375
   11MOL0     H 1407   2.446  10.356   0.315 -0.4608 -0.7591 -0.6442
   11MOL0     H 1408   2.499  10.521   0.498  1.7713 -0.4419  1.0965
   11MOL0     H 1409   2.542  10.388   0.610 -0.0194 -0.9665 -0.2392
   11MOL0     H 1410   2.321  10.341   0.650  2.1749 -1.4137 -0.6822
   11MOL0     H 1411   2.331  10.518   0.641  0.9946 -1.2486  1.5509
   11MOL0     H 1412   2.265  10.495   0.396 -0.9648  1.2175  0.0637
   11MOL0     H 1413   2.149  10.516   0.521 -0.1665  0.2801 -0.9276
   11MOL0     H 1414   2.077  10.130   0.336 -1.1416  0.2800 -1.2852
   11MOL0     H 1415   1.853  10.085   0.283 -1.8622  1.6593 -0.5242
   11MOL0     H 1416   1.402  10.307   0.611 -0.3489  3.1890  0.3685
   11MOL0     H 1417   1.158  10.299   0.624  0.8759 -1.2611  0.7150
   11MOL0     H 1418   0.966  10.187   0.257 -2.4763 -1.3193 -0.2312
   11MOL0     H 1419   0.932  10.363   0.243  2.0251  0.1058  0.4857
   11MOL0     H 1420   0.785  10.169   0.429  1.2716  2.0543  1.5867
   11MOL0     H 1421   0.735  10.180   0.258 -1.3377  1.6963 -0.6763
   11MOL0     H 1422   0.672  10.437   0.324  2.5686 -0.5637 -1.4600
   11MOL0     H 1423   0.732  10.400   0.484  1.4086 -2.8876  1.5935
   11MOL0     H 1424   0.503  10.239   0.341 -1.6605 -0.5422  0.7427
   11MOL0     H 1425   0.542  10.224   0.510  0.2620 -0.5312 -0.2301
   11MOL0     H 1426   0.407  10.452   0.373  1.9122 -3.7864 -3.1682
   11MOL0     H 1427   0.498  10.484   0.529  0.9278 -2.8481  2.1944
   11MOL0     H 1428   0.252  10.447   0.571  0.7505  1.2596 -0.7641
   11MOL0     H 1429   0.356  10.337   0.652  1.1497  0.9012 -0.5619
   11MOL0     H 1430   0.225  10.266   0.385 -1.8465  0.3924  0.5892
   11MOL0     H 1431   0.290  10.142   0.491 -2.1286 -0.5551 -1.9748
   11MOL0     H 1432   0.127  10.216   0.656 -1.6851 -0.0288 -0.0489
   11MOL0     H 1433   0.058  10.141   0.502 -1.5410  1.9650 -1.0286
   11MOL0     H 1434   1.149  10.334   0.196 -2.1235  1.1191  1.9550
   11MOL0     H 1435   1.404  10.326   0.194  0.2937  3.4563  0.9457
   11MOL0     H 1436   1.736  10.412   0.548  0.4177 -0.6089  0.5171
   11MOL0     H 1437   1.953  10.463   0.584 -1.8065  0.1087  0.8834
   11MOL0     H 1438   3.960  10.049   0.433 -2.3663  2.9113 -0.8972
   11MOL0     H 1439   4.185   9.994   0.503  0.3879  2.4246  2.1028
   11MOL0     H 1440   4.650   9.984   0.685  3.7188 -1.6610  1.7930
   11MOL0     H 1441   4.871   9.904   0.661 -0.9750 -0.8042  1.5162
   11MOL0     H 1442   5.181   9.770   0.479 -0.0541 -0.8147 -0.4140
   11MOL0     H 1443   5.062   9.790   0.620  1.5191  1.8396  1.8828
   11MOL0     H 1444   5.082  10.036   0.601 -2.2427 -1.3485 -1.9075
   11MOL0     H 1445   5.236   9.967   0.634 -0.3043  0.2227  0.3301
   11MOL0     H 1446   5.117  10.074   0.366 -0.8926 -1.3900  0.5501
   11MOL0     H 1447   5.254   9.967   0.370 -0.1989  0.2831  0.0311
   11MOL0     H 1448   5.389  10.125   0.507  1.0946  3.6708 -0.9135
   11MOL0     H 1449   5.340  10.184   0.346 -1.7768  2.9821  0.1087
   11MOL0     H 1450   5.135  10.433   0.612  0.6372  1.1647  0.4762
   11MOL0     H 1451   4.821   9.904   0.233 -1.6738  1.2012 -0.3506
   11MOL0     H 1452   4.601   9.976   0.270 -1.0923  2.9665  1.6111
   12MOL0     O 1453   5.296   6.181   7.671  0.3887  0.2318  0.3365
   12MOL0     C 1454   5.393   6.168   7.602  0.8411  0.2074 -0.0665
   12MOL0     O 1455   5.424   6.051   7.541 -0.5620 -0.3306 -0.3335
   12MOL0     C 1456   5.340   5.947   7.552 -0.5578  0.1216 -0.4582
   12MOL0     C 1457   5.208   5.952   7.520 -0.4086  0.5382 -0.7792
   12MOL0     C 1458   5.129   5.838   7.525  0.2985 -0.0873 -0.4203
   12MOL0     C 1459   5.177   5.722   7.570  1.0274  0.2317  0.0273
   12MOL0     O 1460   5.113   5.601   7.567  0.1093 -0.2398 -0.6626
   12MOL0     C 1461   4.976   5.606   7.614 -0.2425 -1.1058 -0.0610
   12MOL0     C 1462   4.886   5.585   7.496  1.0601  0.4073 -0.7064
   12MOL0     C 1463   4.741   5.602   7.531 -0.2330  0.0074 -0.3035
   12MOL0     C 1464   4.654   5.595   7.407 -0.1625 -0.2276  0.6123
   12MOL0     C 1465   4.504   5.610   7.446 -0.0241 -0.1836  0.5209
   12MOL0     C 1466   4.412   5.614   7.316  0.2331  0.7491 -0.1895
   12MOL0     C 1467   4.272   5.626   7.356  1.0451  0.6777 -0.1473
   12MOL0     C 1468   4.167   5.592   7.245 -0.6244  0.0746 -0.7600
   12MOL0     N 1469   4.033   5.618   7.289  0.1661 -0.1646 -0.0539
   12MOL0     C 1470   3.977   5.741   7.275  0.7285 -0.6927  0.7603
   12MOL0     C 1471   3.852   5.724   7.325 -0.5751 -0.7451  0.9435
   12MOL0     C 1472   3.752   5.834   7.329  0.3292 -0.1802  0.7124
   12MOL0     C 1473   3.602   5.795   7.344  0.3271 -0.0287  0.3489
   12MOL0     C 1474   3.550   5.745   7.204  0.0789 -0.0233  0.1401
   12MOL0     C 1475   3.403   5.722   7.199 -0.3008  0.1782  1.0516
   12MOL0     O 1476   3.333   5.834   7.225  0.3041 -0.1690  0.1727
   12MOL0     C 1477   3.200   5.824   7.268 -0.7469  0.0183 -1.3037
   12MOL0     C 1478   3.126   5.706   7.292  0.1356 -0.5955 -0.6865
   12MOL0     C 1479   2.991   5.723   7.319  1.4616 -0.3629  0.0129
   12MOL0     C 1480   2.921   5.849   7.329  0.8095  0.0272  0.1700
   12MOL0     C 1481   2.774   5.858   7.362  0.3960  0.0464  0.3372
   12MOL0     O 1482   2.721   5.751   7.422 -0.1243 -1.0116  0.8369
   12MOL0     C 1483   2.586   5.758   7.471  0.9434 -0.7331  0.3510
   12MOL0     C 1484   2.481   5.677   7.417 -0.7216  0.2019 -0.0766
   12MOL0     C 1485   2.348   5.685   7.467 -0.7318  0.2247 -0.2397
   12MOL0     C 1486   2.323   5.760   7.579  0.2978 -0.0733 -0.1633
   12MOL0     O 1487   2.191   5.759   7.627 -0.0024 -0.0385  0.1279
   12MOL0     C 1488   2.173   5.834   7.756  0.7261 -0.1471 -0.2896
   12MOL0     C 1489   2.029   5.841   7.813  0.5681 -0.4283 -0.3292
   12MOL0     C 1490   1.934   5.874   7.700 -0.0483  0.1743  0.0896
   12MOL0     C 1491   1.793   5.896   7.752 -0.1050 -0.0485  0.0040
   12MOL0     C 1492   1.711   5.996   7.663  0.5999  0.2446  0.1270
   12MOL0     C 1493   1.574   6.009   7.733  0.1248 -0.8221 -0.9723
   12MOL0     C 1494   1.592   6.106   7.858  0.3840 -0.1949 -0.3489
   12MOL0     C 1495   1.458   6.149   7.921  0.0900 -0.6818 -0.7388
   12MOL0    Cl 1496   1.360   6.234   7.800 -0.3049 -0.1359 -0.3304
   12MOL0     C 1497   2.430   5.831   7.641  0.0890 -0.0072  0.4922
   12MOL0     C 1498   2.559   5.828   7.587 -0.3638  0.1449  0.0969
   12MOL0     O 1499   2.715   5.960   7.338 -0.1748  0.6972 -1.4214
   12MOL0     C 1500   3.000   5.969   7.325  0.5869  1.2814 -0.5088
   12MOL0     C 1501   3.137   5.947   7.304  0.0840  0.3533 -0.6959
   12MOL0     N 1502   3.836   5.596   7.380  0.1460 -0.5676  0.1532
   12MOL0     N 1503   3.943   5.536   7.353 -0.8397  1.0408  0.5420
   12MOL0     C 1504   5.305   5.731   7.629 -0.0671  0.8551  0.3097
   12MOL0     C 1505   5.389   5.836   7.611 -0.2650  0.7883  0.1659
   12MOL0     C 1506   5.504   6.271   7.623 -0.3858  0.5633 -0.0176
   12MOL0     C 1507   5.638   6.237   7.596 -0.6841 -0.5295  0.0861
   12MOL0     C 1508   5.741   6.325   7.616  0.8470 -0.4501 -1.0506
   12MOL0     C 1509   5.716   6.454   7.678  0.1316  0.6792 -0.6991
   12MOL0     O 1510   5.832   6.532   7.700  0.7717  0.4363 -0.6606
   12MOL0     C 1511   5.815   6.674   7.680  0.2666 -0.2231  0.3743
   12MOL0     C 1512   5.934   6.762   7.705 -0.3188  0.2829 -0.6238
   12MOL0     C 1513   5.991   6.746   7.848 -0.2325 -0.5000  0.3610
   12MOL0     C 1514   6.096   6.854   7.893  0.1416  0.0503  0.1331
   12MOL0     C 1515   6.218   6.834   7.816 -0.1152  0.5496  0.2178
   12MOL0     C 1516   6.323   6.823   7.748  0.4415  0.2326 -0.0113
   12MOL0     C 1517   5.581   6.493   7.692  0.5422 -0.4087  0.5469
   12MOL0     C 1518   5.479   6.401   7.674  0.5700  0.2142  0.4303
   12MOL0     H 1519   5.161   6.040   7.477 -1.2036  1.3274  1.5615
   12MOL0     H 1520   5.033   5.836   7.475  1.7770 -0.7275 -3.4688
   12MOL0     H 1521   4.955   5.702   7.663 -3.3739 -1.4027 -0.6230
   12MOL0     H 1522   4.962   5.519   7.679 -2.3500 -1.0551 -0.3734
   12MOL0     H 1523   4.905   5.486   7.454  2.0088  0.5729 -0.6729
   12MOL0     H 1524   4.913   5.664   7.426  0.8106  1.0972 -0.0478
   12MOL0     H 1525   4.731   5.703   7.572  1.8174  0.4814 -0.8485
   12MOL0     H 1526   4.706   5.547   7.619  2.6665  0.6353  1.3965
   12MOL0     H 1527   4.696   5.656   7.326 -2.7500  1.4417  0.4094
   12MOL0     H 1528   4.656   5.492   7.369 -0.2981  0.5623 -1.7044
   12MOL0     H 1529   4.488   5.700   7.506  0.6816 -1.3499  2.5627
   12MOL0     H 1530   4.481   5.526   7.511 -2.6169  1.5234  1.9712
   12MOL0     H 1531   4.427   5.523   7.257  2.1912 -0.2312  1.6616
   12MOL0     H 1532   4.445   5.695   7.251 -0.4661 -1.7178 -3.9592
   12MOL0     H 1533   4.256   5.553   7.435 -1.0408  0.9382 -0.2877
   12MOL0     H 1534   4.249   5.728   7.388 -0.8883 -0.2682  1.6719
   12MOL0     H 1535   4.179   5.491   7.205 -2.6842  0.6120 -2.9493
   12MOL0     H 1536   4.181   5.660   7.161  4.5144  1.7493  1.0699
   12MOL0     H 1537   4.019   5.828   7.226 -0.9149 -0.3067 -0.0466
   12MOL0     H 1538   3.763   5.895   7.239  2.9872 -1.9104 -0.2178
   12MOL0     H 1539   3.778   5.902   7.411  0.2407 -0.0117  0.6033
   12MOL0     H 1540   3.538   5.873   7.386 -0.5408  0.1871 -1.2784
   12MOL0     H 1541   3.602   5.710   7.413 -1.0552 -0.9650 -0.7455
   12MOL0     H 1542   3.581   5.818   7.128 -1.9337  2.4529  1.5232
   12MOL0     H 1543   3.591   5.644   7.196  0.6872  0.2315 -0.0660
   12MOL0     H 1544   3.376   5.627   7.244  0.4124 -2.1203 -2.8753
   12MOL0     H 1545   3.373   5.705   7.095 -0.4010  0.6898  0.9909
   12MOL0     H 1546   3.160   5.604   7.276  0.4162 -0.5204 -0.5904
   12MOL0     H 1547   2.935   5.631   7.325  1.9592 -0.5543  2.5359
   12MOL0     H 1548   2.506   5.619   7.329 -1.3993 -3.1613  1.7734
   12MOL0     H 1549   2.265   5.640   7.413 -0.1220  0.0236 -1.0316
   12MOL0     H 1550   2.200   5.939   7.746 -0.3358  0.0896 -0.7564
   12MOL0     H 1551   2.234   5.799   7.840 -3.0920  0.4842  3.0442
   12MOL0     H 1552   2.020   5.916   7.892 -1.6505 -1.4364  0.4339
   12MOL0     H 1553   2.008   5.742   7.852 -2.4877  0.7418  1.3033
   12MOL0     H 1554   1.925   5.785   7.637  2.1220  0.8607 -1.2955
   12MOL0     H 1555   1.979   5.956   7.644  0.4212  0.2688  0.6072
   12MOL0     H 1556   1.747   5.797   7.751 -2.1787  0.8183  2.1966
   12MOL0     H 1557   1.786   5.932   7.855 -5.4346 -1.8848  0.6231
   12MOL0     H 1558   1.685   5.944   7.571  3.7355 -1.4946  0.0996
   12MOL0     H 1559   1.767   6.086   7.635  2.2534 -1.0585 -0.9834
   12MOL0     H 1560   1.537   5.914   7.772  2.4218 -0.6002  2.1071
   12MOL0     H 1561   1.501   6.058   7.667  0.3288 -0.8316 -1.2079
   12MOL0     H 1562   1.664   6.064   7.930  1.5180 -2.6314 -2.7413
   12MOL0     H 1563   1.634   6.201   7.822  0.5804 -1.1255 -2.7628
   12MOL0     H 1564   1.477   6.224   7.998  2.6523 -0.1723 -1.7893
   12MOL0     H 1565   1.389   6.072   7.958 -2.3940  0.7861 -2.1002
   12MOL0     H 1566   2.433   5.885   7.735  1.5053  1.2713 -0.2434
   12MOL0     H 1567   2.644   5.880   7.630 -0.9015  0.5850  0.6415
   12MOL0     H 1568   2.956   6.067   7.337 -2.0702  0.2602 -1.3074
   12MOL0     H 1569   3.190   6.042   7.303 -0.0550  0.6349  3.0773
   12MOL0     H 1570   5.355   5.648   7.678 -0.3215 -0.1377 -1.0506
   12MOL0     H 1571   5.492   5.848   7.644 -0.6874  1.3443  1.3499
   12MOL0     H 1572   5.665   6.137   7.563  1.5480 -0.1745  0.6048
   12MOL0     H 1573   5.842   6.302   7.583  0.5471 -2.9919 -0.4246
   12MOL0     H 1574   5.742   6.710   7.753  2.2846  4.4901  0.4390
   12MOL0     H 1575   5.792   6.711   7.580  1.6945  0.8075  0.3864
   12MOL0     H 1576   6.005   6.751   7.622 -1.4357 -2.2860 -1.3452
   12MOL0     H 1577   5.900   6.866   7.698 -0.2584  0.5056  1.7272
   12MOL0     H 1578   6.034   6.646   7.860 -0.3387 -0.6443 -0.4168
   12MOL0     H 1579   5.904   6.751   7.914  0.1768 -0.5354  0.9141
   12MOL0     H 1580   6.054   6.952   7.869  0.4774 -0.3358 -2.3081
   12MOL0     H 1581   6.123   6.833   7.997  1.0697  0.4534 -0.0170
   12MOL0     H 1582   6.420   6.827   7.702  1.0922 -1.7429  1.0535
   12MOL0     H 1583   5.558   6.592   7.728  1.7776  0.2371 -0.3401
   12MOL0     H 1584   5.375   6.430   7.688  0.3089 -1.9615  4.3193
   13MOL0     O 1585   4.335  11.084   5.263 -0.3696 -0.3770 -0.8246
   13MOL0     C 1586   4.420  11.076   5.353  0.2357 -0.7926  0.0333
   13MOL0     O 1587   4.418  11.158   5.467 -0.3625 -0.4198 -0.9683
   13MOL0     C 1588   4.307  11.228   5.512 -0.8723 -0.2368 -0.4937
   13MOL0     C 1589   4.284  11.364   5.491  0.1844 -1.3657  0.2235
   13MOL0     C 1590   4.174  11.430   5.543 -0.1924  0.3059  0.2065
   13MOL0     C 1591   4.078  11.363   5.622  0.7241 -0.1592  0.1450
   13MOL0     O 1592   3.961  11.414   5.680 -0.1434 -0.2146  0.0974
   13MOL0     C 1593   3.942  11.553   5.688  0.5328  0.1807 -0.5430
   13MOL0     C 1594   3.801  11.589   5.741  0.0507 -0.6923 -0.6572
   13MOL0     C 1595   3.774  11.525   5.884  0.0550  0.6838  0.1877
   13MOL0     C 1596   3.641  11.550   5.949  0.1591 -0.0928  1.0972
   13MOL0     C 1597   3.614  11.689   5.986  0.1680  0.3667 -0.6273
   13MOL0     C 1598   3.476  11.708   6.060  0.1190 -0.3900 -0.0583
   13MOL0     C 1599   3.478  11.855   6.126 -0.8952 -0.0529  1.2486
   13MOL0     C 1600   3.359  11.869   6.215  0.6631 -0.6694 -0.6367
   13MOL0     N 1601   3.340  12.005   6.273  0.2504  1.0502 -0.4416
   13MOL0     C 1602   3.216  12.055   6.295 -0.2066  0.1439 -0.8469
   13MOL0     C 1603   3.231  12.154   6.382  0.4971 -0.1316 -0.2411
   13MOL0     C 1604   3.130  12.249   6.434 -0.1310 -1.2974 -0.3954
   13MOL0     C 1605   3.104  12.362   6.334 -0.3598 -0.4971  0.1074
   13MOL0     C 1606   2.994  12.455   6.377 -0.5951 -0.5174  0.2468
   13MOL0     C 1607   2.845  12.412   6.360  1.0582 -0.5328 -0.7349
   13MOL0     O 1608   2.757  12.523   6.392 -0.0845 -0.5459  0.4671
   13MOL0     C 1609   2.623  12.520   6.402 -0.2967  1.2277  0.0522
   13MOL0     C 1610   2.559  12.640   6.426 -0.4902 -0.1164  0.5110
   13MOL0     C 1611   2.422  12.645   6.430  0.9396 -0.5288  0.1062
   13MOL0     C 1612   2.345  12.530   6.394 -0.6031 -0.7816  0.2600
   13MOL0     C 1613   2.202  12.530   6.369 -0.2021  1.0587  0.2406
   13MOL0     O 1614   2.152  12.427   6.290 -0.1986 -0.2837 -0.4646
   13MOL0     C 1615   2.029  12.447   6.235  0.1054 -0.3969 -0.7985
   13MOL0     C 1616   2.017  12.485   6.101 -0.1690  0.9137  0.3853
   13MOL0     C 1617   1.890  12.501   6.038 -0.5187 -0.1118 -0.3232
   13MOL0     C 1618   1.779  12.468   6.109  0.1106 -0.5242  0.0130
   13MOL0     O 1619   1.663  12.464   6.040 -0.6970 -0.1397 -0.5868
   13MOL0     C 1620   1.610  12.580   5.980 -1.0061 -0.1207  0.1952
   13MOL0     C 1621   1.457  12.579   5.979  0.9131  0.6199 -0.0724
   13MOL0     C 1622   1.416  12.723   5.932 -0.2208 -0.5064 -0.2213
   13MOL0     C 1623   1.271  12.758   5.952 -0.7383 -0.0221  0.2220
   13MOL0     C 1624   1.230  12.904   5.941 -0.0031 -0.2039 -0.4837
   13MOL0     C 1625   1.108  12.950   6.010  0.6490  0.0660 -0.8995
   13MOL0     C 1626   1.090  13.096   6.035 -0.4686 -0.4011  0.9082
   13MOL0     C 1627   0.953  13.131   6.079  1.2144  0.4213  0.3493
   13MOL0    Cl 1628   0.827  13.100   5.964  0.5403 -0.2807  0.0308
   13MOL0     C 1629   1.785  12.430   6.238  0.1831  0.4411 -0.1316
   13MOL0     C 1630   1.911  12.414   6.302  0.4452 -0.1255 -0.1064
   13MOL0     O 1631   2.138  12.632   6.405  0.2439 -0.1493  0.5669
   13MOL0     C 1632   2.412  12.410   6.373 -0.3618  0.0764 -0.2003
   13MOL0     C 1633   2.553  12.401   6.382  0.6915 -0.4911  0.9547
   13MOL0     N 1634   3.360  12.162   6.407  0.3859  0.1093  0.0132
   13MOL0     N 1635   3.433  12.086   6.335 -0.0961  0.7600 -0.2946
   13MOL0     C 1636   4.101  11.228   5.650  1.0342 -0.2097  0.0388
   13MOL0     C 1637   4.218  11.159   5.602  0.2570  0.0588 -0.2766
   13MOL0     C 1638   4.533  10.988   5.315 -0.1289 -0.0412 -0.2494
   13MOL0     C 1639   4.525  10.908   5.198 -0.5051  1.0771  0.1903
   13MOL0     C 1640   4.637  10.824   5.172  0.2973  0.0378 -0.1881
   13MOL0     C 1641   4.753  10.823   5.257  0.7785 -0.8814 -0.4355
   13MOL0     O 1642   4.859  10.751   5.240 -0.2273  0.2762 -0.7020
   13MOL0     C 1643   4.872  10.690   5.116 -0.0628  0.2776  0.6822
   13MOL0     C 1644   5.019  10.654   5.108  0.8642 -0.1427  0.0833
   13MOL0     C 1645   5.059  10.560   5.216 -0.7649  0.3162  0.0447
   13MOL0     C 1646   5.198  10.488   5.191  0.2571 -0.3161 -0.1527
   13MOL0     C 1647   5.322  10.564   5.228  0.2914  0.0947 -0.4310
   13MOL0     C 1648   5.430  10.620   5.254 -0.1074  0.9793  0.9054
   13MOL0     C 1649   4.750  10.914   5.362  0.3772  1.1161 -0.4754
   13MOL0     C 1650   4.642  10.991   5.404 -0.1691  0.0721 -0.0688
   13MOL0     H 1651   4.347  11.413   5.417 -2.4873 -0.9875 -1.9417
   13MOL0     H 1652   4.165  11.537   5.531  2.0436  0.2256 -4.9554
   13MOL0     H 1653   3.942  11.596   5.587  1.6469 -1.2219 -1.1801
   13MOL0     H 1654   4.020  11.589   5.756 -1.1862 -1.0723  2.2548
   13MOL0     H 1655   3.724  11.544   5.678  0.1563  0.6233 -1.7689
   13MOL0     H 1656   3.794  11.698   5.736  1.1837 -0.5699 -0.0920
   13MOL0     H 1657   3.855  11.549   5.954 -1.4388  0.4728  2.0658
   13MOL0     H 1658   3.788  11.419   5.859  0.2227  0.2900  1.8241
   13MOL0     H 1659   3.564  11.519   5.877  2.3538  1.0300 -1.9533
   13MOL0     H 1660   3.618  11.487   6.036  1.0387  0.5025  1.7779
   13MOL0     H 1661   3.604  11.757   5.901  0.6895  1.9335  0.5144
   13MOL0     H 1662   3.700  11.722   6.046 -0.6122 -0.4195  0.9914
   13MOL0     H 1663   3.473  11.630   6.136 -0.7445 -1.0233 -0.7225
   13MOL0     H 1664   3.384  11.696   6.002  0.7080  0.4159 -1.2100
   13MOL0     H 1665   3.563  11.874   6.192 -1.6736  1.6436  1.8326
   13MOL0     H 1666   3.472  11.928   6.045 -0.7626  0.7649  1.9636
   13MOL0     H 1667   3.383  11.802   6.299  1.1980  1.0465  0.6211
   13MOL0     H 1668   3.268  11.836   6.164 -1.2157  0.6942  1.6374
   13MOL0     H 1669   3.119  12.033   6.250 -0.3895 -1.4770  0.2400
   13MOL0     H 1670   3.162  12.288   6.531  1.4460 -1.3070 -0.8833
   13MOL0     H 1671   3.035  12.197   6.448 -0.9558 -0.5782 -2.9295
   13MOL0     H 1672   3.080  12.326   6.233 -0.8556 -1.0703  0.4221
   13MOL0     H 1673   3.197  12.419   6.344  1.3175 -2.8160 -1.3352
   13MOL0     H 1674   3.026  12.484   6.478  2.2678  0.1547 -0.7365
   13MOL0     H 1675   3.020  12.542   6.316  1.4205 -0.0891  1.5962
   13MOL0     H 1676   2.827  12.322   6.419 -1.0579  0.2800 -0.0805
   13MOL0     H 1677   2.827  12.375   6.258  0.8988  1.7149 -1.5829
   13MOL0     H 1678   2.614  12.733   6.434 -0.1334 -0.1173 -1.3634
   13MOL0     H 1679   2.370  12.738   6.448  1.9579  0.3626 -1.2736
   13MOL0     H 1680   2.115  12.505   6.059  1.2964 -1.6675  2.2856
   13MOL0     H 1681   1.878  12.533   5.935 -1.3179  0.5255 -0.0472
   13MOL0     H 1682   1.641  12.586   5.876  2.0036  2.3963  1.0701
   13MOL0     H 1683   1.651  12.663   6.038 -0.5307 -0.1116 -0.1538
   13MOL0     H 1684   1.418  12.563   6.080  1.3193  0.8831  0.1256
   13MOL0     H 1685   1.420  12.508   5.904  0.8930 -0.0459  0.5490
   13MOL0     H 1686   1.443  12.747   5.829 -1.1993 -0.6017 -0.5104
   13MOL0     H 1687   1.475  12.788   5.998  2.3027  1.2347 -3.8648
   13MOL0     H 1688   1.205  12.699   5.890  1.3719 -2.0881 -0.1945
   13MOL0     H 1689   1.246  12.727   6.054  1.1293 -2.3721  0.0545
   13MOL0     H 1690   1.216  12.915   5.833  2.3531 -2.7636 -1.1617
   13MOL0     H 1691   1.323  12.956   5.965  0.1492 -0.7343  0.0851
   13MOL0     H 1692   1.101  12.886   6.099  2.8002 -1.6495 -1.8686
   13MOL0     H 1693   1.020  12.915   5.956  0.2696  0.5152 -0.5758
   13MOL0     H 1694   1.167  13.129   6.105 -2.0490  3.9106  0.8958
   13MOL0     H 1695   1.106  13.155   5.944  0.3827  1.8994  2.4699
   13MOL0     H 1696   0.946  13.238   6.100 -0.2832  0.7334 -1.5143
   13MOL0     H 1697   0.928  13.083   6.174 -2.0656 -0.7888 -0.9736
   13MOL0     H 1698   1.695  12.404   6.294  0.8158  1.3537  1.3895
   13MOL0     H 1699   1.908  12.357   6.395 -0.0249  0.5454  0.3003
   13MOL0     H 1700   2.354  12.325   6.337  1.7272 -0.9863 -1.1736
   13MOL0     H 1701   2.611  12.311   6.366 -1.2807 -1.8085  0.8833
   13MOL0     H 1702   4.026  11.167   5.700 -0.6223  2.8439  1.5807
   13MOL0     H 1703   4.223  11.051   5.613 -2.8769  0.0136  2.3474
   13MOL0     H 1704   4.448  10.915   5.122 -0.0338  0.9935 -0.3016
   13MOL0     H 1705   4.638  10.784   5.071 -0.9915 -1.0277  0.1852
   13MOL0     H 1706   4.841  10.755   5.034 -0.5466 -0.1365  0.5389
   13MOL0     H 1707   4.813  10.599   5.106  1.1986 -0.7709  2.2373
   13MOL0     H 1708   5.037  10.609   5.010  1.8073  0.5464 -0.0657
   13MOL0     H 1709   5.081  10.743   5.119  2.0235 -0.8618 -0.4569
   13MOL0     H 1710   4.985  10.480   5.214 -0.4991 -0.1747  3.4046
   13MOL0     H 1711   5.058  10.613   5.312  0.0135  1.9741 -0.8067
   13MOL0     H 1712   5.186  10.399   5.254 -1.6876  0.0460  0.0496
   13MOL0     H 1713   5.194  10.451   5.089  1.0739 -3.1963  0.7544
   13MOL0     H 1714   5.525  10.661   5.280  0.2032  1.0675 -0.3138
   13MOL0     H 1715   4.824  10.915   5.441 -1.8465  1.0848  1.7237
   13MOL0     H 1716   4.641  11.055   5.492  3.2593 -0.9507  0.8917
   14MOL0     O 1717  10.691   0.848   1.529  0.0540 -0.3460 -0.1863
   14MOL0     C 1718  10.744   0.930   1.606  0.6649 -0.0920  0.4370
   14MOL0     O 1719  10.679   0.993   1.701 -0.3888  0.0250  0.6129
   14MOL0     C 1720  10.541   0.982   1.708 -0.4426  0.3332 -0.2195
   14MOL0     C 1721  10.488   0.906   1.811  0.4488  0.0734 -0.3598
   14MOL0     C 1722  10.345   0.901   1.831  0.1599 -0.7122 -0.2923
   14MOL0     C 1723  10.264   0.978   1.740 -0.5371  0.1058  0.0297
   14MOL0     O 1724  10.128   0.972   1.767  0.2817 -0.6491 -1.2688
   14MOL0     C 1725  10.038   1.011   1.666 -0.3874  0.7527  0.2467
   14MOL0     C 1726   9.894   1.027   1.723 -0.1609  0.3603 -0.4765
   14MOL0     C 1727   9.797   1.107   1.640  1.0935  0.3760  0.4947
   14MOL0     C 1728   9.653   1.094   1.699  1.0927 -0.6215 -0.7666
   14MOL0     C 1729   9.548   1.158   1.602 -0.4030 -0.0940 -0.4026
   14MOL0     C 1730   9.403   1.162   1.635 -1.0250 -0.3297 -0.5992
   14MOL0     C 1731   9.305   1.251   1.546 -0.3521  1.0198 -0.5700
   14MOL0     C 1732   9.161   1.241   1.594 -0.1594 -0.2148  0.1638
   14MOL0     N 1733   9.078   1.318   1.499 -0.4815 -1.0217 -0.1231
   14MOL0     C 1734   8.969   1.254   1.440  0.1867  0.4400  0.0137
   14MOL0     C 1735   8.906   1.355   1.376 -0.3896  0.4988 -0.1398
   14MOL0     C 1736   8.777   1.336   1.296  0.3654 -0.4705 -0.6290
   14MOL0     C 1737   8.690   1.467   1.296 -0.5100  0.3924 -0.2316
   14MOL0     C 1738   8.647   1.518   1.434 -0.4353  0.1920 -0.3129
   14MOL0     C 1739   8.526   1.440   1.492 -0.1659  0.4936 -0.3294
   14MOL0     O 1740   8.411   1.467   1.418 -0.1199 -0.2457 -0.0025
   14MOL0     C 1741   8.302   1.385   1.437 -0.2513 -0.0430  0.2320
   14MOL0     C 1742   8.197   1.401   1.344  0.9030 -0.1790  0.2252
   14MOL0     C 1743   8.078   1.332   1.352 -0.2016  0.0359 -0.2041
   14MOL0     C 1744   8.054   1.251   1.464  0.3269  0.7635 -0.3199
   14MOL0     C 1745   7.918   1.193   1.476  0.6525  0.4502  0.0845
   14MOL0     O 1746   7.843   1.192   1.358 -0.1082 -0.5073 -0.0710
   14MOL0     C 1747   7.724   1.130   1.347  0.2196 -0.4545 -0.0271
   14MOL0     C 1748   7.619   1.209   1.308  0.3350  0.2191  0.9689
   14MOL0     C 1749   7.495   1.157   1.270 -0.1364 -0.3150  0.4285
   14MOL0     C 1750   7.478   1.018   1.273 -0.1982  0.1573 -0.2742
   14MOL0     O 1751   7.359   0.961   1.229  0.1867 -0.3759  1.0009
   14MOL0     C 1752   7.324   0.836   1.270  0.0053  1.2631 -0.5153
   14MOL0     C 1753   7.173   0.798   1.243  0.5417  0.4494 -0.1796
   14MOL0     C 1754   7.157   0.783   1.094 -0.0590  0.2734  0.3641
   14MOL0     C 1755   7.022   0.721   1.054 -0.2079 -0.5368 -0.2803
   14MOL0     C 1756   7.006   0.567   1.086  0.0208 -0.3011  0.0610
   14MOL0     C 1757   6.881   0.508   1.009 -0.2267 -0.0962 -0.3215
   14MOL0     C 1758   6.742   0.530   1.068 -0.4261  0.5288 -0.0733
   14MOL0     C 1759   6.640   0.500   0.963  0.3298 -0.2250  1.2079
   14MOL0    Cl 1760   6.512   0.603   1.032  0.3251  0.2382  0.3283
   14MOL0     C 1761   7.586   0.935   1.325 -0.2358  0.3265  0.4943
   14MOL0     C 1762   7.703   0.995   1.364  0.5375  0.1471  0.4634
   14MOL0     O 1763   7.880   1.151   1.583 -0.3078  0.3325 -0.4035
   14MOL0     C 1764   8.164   1.221   1.553 -0.0294 -0.7440 -0.3629
   14MOL0     C 1765   8.284   1.297   1.546  0.3951  0.1934 -0.1668
   14MOL0     N 1766   8.968   1.474   1.399  0.2310 -0.0488  0.2914
   14MOL0     N 1767   9.071   1.455   1.478  0.2769  0.3530  0.1811
   14MOL0     C 1768  10.323   1.051   1.631 -0.1023 -0.1531 -0.1267
   14MOL0     C 1769  10.461   1.051   1.614 -0.3334  0.5035  0.3262
   14MOL0     C 1770  10.886   0.959   1.582  0.5615 -0.4205 -0.2480
   14MOL0     C 1771  10.961   0.911   1.478  0.3043 -0.1769  0.2942
   14MOL0     C 1772  11.092   0.941   1.468  0.2250  0.2345  0.2836
   14MOL0     C 1773  11.157   1.031   1.557  0.4664 -0.9374 -0.5112
   14MOL0     O 1774  11.285   1.068   1.541 -0.0111  0.0818  0.0318
   14MOL0     C 1775  11.310   1.145   1.424  0.7992  0.4238 -0.2717
   14MOL0     C 1776  11.447   1.112   1.356 -0.3898 -0.0437  0.1308
   14MOL0     C 1777  11.443   0.960   1.314  0.9077  1.4182 -0.2776
   14MOL0     C 1778  11.551   0.918   1.223  0.2016  0.0561 -0.6948
   14MOL0     C 1779  11.607   0.779   1.236  0.5068  0.8890  0.0557
   14MOL0     C 1780  11.635   0.659   1.249  0.4033 -0.4366 -0.2219
   14MOL0     C 1781  11.083   1.082   1.661 -0.4620  0.6743 -0.3926
   14MOL0     C 1782  10.945   1.050   1.669  0.2835 -0.0236 -0.4203
   14MOL0     H 1783  10.561   0.863   1.880  0.5171 -0.8927 -1.0031
   14MOL0     H 1784  10.309   0.855   1.922  0.8424  3.2724  2.2613
   14MOL0     H 1785  10.030   0.934   1.589 -0.6872  1.8887 -0.8939
   14MOL0     H 1786  10.052   1.104   1.610 -1.6420  0.6490 -0.2706
   14MOL0     H 1787   9.902   1.059   1.827 -0.7310 -2.1988  0.4429
   14MOL0     H 1788   9.856   0.925   1.734 -0.9154  0.8067  1.6096
   14MOL0     H 1789   9.804   1.070   1.537 -2.3741  2.2836 -0.5598
   14MOL0     H 1790   9.812   1.215   1.638 -2.4052  1.0448  2.6153
   14MOL0     H 1791   9.629   0.988   1.713  3.8168 -1.5246 -2.1411
   14MOL0     H 1792   9.649   1.155   1.790 -1.7011 -1.9527  0.1061
   14MOL0     H 1793   9.559   1.114   1.503 -0.9612 -0.3128 -0.3741
   14MOL0     H 1794   9.578   1.262   1.587  1.4035 -0.5786 -0.3373
   14MOL0     H 1795   9.403   1.198   1.738  0.8705  1.7088 -1.2147
   14MOL0     H 1796   9.362   1.061   1.638 -0.4943 -0.5239  0.7359
   14MOL0     H 1797   9.341   1.354   1.546  1.0139  0.5794 -1.9216
   14MOL0     H 1798   9.317   1.219   1.442  0.6131  1.9639 -0.7631
   14MOL0     H 1799   9.136   1.286   1.690  0.7403 -0.6799  0.6284
   14MOL0     H 1800   9.135   1.134   1.594 -0.4992 -0.1342  0.4115
   14MOL0     H 1801   8.920   1.157   1.440  0.1400  0.4621 -0.1276
   14MOL0     H 1802   8.729   1.244   1.329 -1.3770  0.3498 -0.7279
   14MOL0     H 1803   8.801   1.316   1.191  0.1857 -3.7416 -0.1482
   14MOL0     H 1804   8.605   1.449   1.230  2.4710 -3.4430 -3.6357
   14MOL0     H 1805   8.746   1.549   1.250 -0.1645 -0.2802 -1.0368
   14MOL0     H 1806   8.724   1.511   1.511 -0.6494 -0.0237 -0.1156
   14MOL0     H 1807   8.642   1.627   1.426  0.2340  0.2629  0.1137
   14MOL0     H 1808   8.519   1.487   1.591 -0.4855  0.4269 -0.3187
   14MOL0     H 1809   8.553   1.334   1.489 -2.6911 -0.2142 -1.0825
   14MOL0     H 1810   8.210   1.470   1.260 -2.3534  1.7216  1.0783
   14MOL0     H 1811   8.001   1.349   1.278 -0.8636 -2.2587 -0.1394
   14MOL0     H 1812   7.631   1.315   1.289  0.5137  0.0009 -0.2179
   14MOL0     H 1813   7.410   1.222   1.253 -0.3289  0.6880  4.2066
   14MOL0     H 1814   7.330   0.827   1.379 -0.0514 -0.3055 -0.6238
   14MOL0     H 1815   7.391   0.765   1.220 -2.1853 -0.8857 -0.5786
   14MOL0     H 1816   7.117   0.880   1.289  0.9036 -0.4666  2.0016
   14MOL0     H 1817   7.144   0.704   1.292 -0.5806  0.4000 -0.8941
   14MOL0     H 1818   7.242   0.729   1.051  0.5615 -0.1800  2.0893
   14MOL0     H 1819   7.163   0.882   1.047 -2.6374  1.3663  2.0935
   14MOL0     H 1820   6.937   0.776   1.096 -0.8189 -1.2065 -0.6042
   14MOL0     H 1821   7.004   0.735   0.947  0.9857 -1.4072 -0.6163
   14MOL0     H 1822   7.010   0.549   1.194  0.2067  0.2637  0.1493
   14MOL0     H 1823   7.097   0.517   1.052  1.5044  2.0309  0.3966
   14MOL0     H 1824   6.894   0.400   1.007  0.6353  0.0072 -1.7348
   14MOL0     H 1825   6.891   0.544   0.906  1.2099 -1.1256 -0.5687
   14MOL0     H 1826   6.724   0.454   1.144  0.4706 -1.5642 -1.8267
   14MOL0     H 1827   6.739   0.629   1.114  1.5160  0.3046  0.6153
   14MOL0     H 1828   6.614   0.394   0.954 -1.3506  0.3527 -2.2885
   14MOL0     H 1829   6.663   0.540   0.864 -0.8709  2.4957  1.9396
   14MOL0     H 1830   7.587   0.827   1.326  0.0195  0.3291  0.8186
   14MOL0     H 1831   7.789   0.929   1.370  0.1130 -0.2953  2.1509
   14MOL0     H 1832   8.146   1.158   1.639 -3.5761 -0.6075 -0.8719
   14MOL0     H 1833   8.361   1.287   1.621  1.0986  0.3497 -0.8607
   14MOL0     H 1834  10.283   1.123   1.560 -0.1568 -0.2525 -0.1958
   14MOL0     H 1835  10.512   1.100   1.532  0.8957 -1.5577 -0.1895
   14MOL0     H 1836  10.912   0.843   1.409  1.1252  0.1373 -0.6253
   14MOL0     H 1837  11.155   0.907   1.386 -1.2233 -0.6109 -0.5123
   14MOL0     H 1838  11.306   1.247   1.463 -0.1829  0.1914  0.2726
   14MOL0     H 1839  11.224   1.138   1.358 -0.0021  0.0588  0.7834
   14MOL0     H 1840  11.464   1.177   1.270 -0.9990 -1.1944 -0.9000
   14MOL0     H 1841  11.533   1.125   1.422  1.0326  3.8429 -2.1536
   14MOL0     H 1842  11.350   0.928   1.268  1.8089 -1.3638 -0.3426
   14MOL0     H 1843  11.459   0.895   1.401  3.3852 -0.8435 -2.2732
   14MOL0     H 1844  11.518   0.935   1.120 -0.7893  2.2189 -0.0813
   14MOL0     H 1845  11.632   0.992   1.224  1.8726 -1.7033  0.1808
   14MOL0     H 1846  11.662   0.555   1.247  0.3147 -0.4517 -1.0001
   14MOL0     H 1847  11.126   1.159   1.724  2.0768  0.5639 -1.8292
   14MOL0     H 1848  10.888   1.101   1.746  1.9662  1.8823 -0.3472
   15MOL0     O 1849   9.725   9.659   4.115 -0.2989  0.9160  0.9607
   15MOL0     C 1850   9.775   9.579   4.030 -0.3948 -0.3229 -0.5990
   15MOL0     O 1851   9.712   9.545   3.915 -0.4937  0.2638 -0.0326
   15MOL0     C 1852   9.593   9.602   3.875  0.7652 -0.8019  0.0477
   15MOL0     C 1853   9.511   9.507   3.809  0.1388 -0.4148 -0.6183
   15MOL0     C 1854   9.388   9.553   3.753  0.1321 -0.3586  0.8634
   15MOL0     C 1855   9.357   9.694   3.753 -0.1600 -0.3444  0.9922
   15MOL0     O 1856   9.257   9.751   3.676 -0.2483 -0.2558  0.6025
   15MOL0     C 1857   9.168   9.666   3.604  0.2160 -0.0886  0.3178
   15MOL0     C 1858   9.078   9.595   3.697 -0.6715  0.0835 -0.6783
   15MOL0     C 1859   8.975   9.521   3.625  0.4721 -0.3370 -0.5154
   15MOL0     C 1860   8.888   9.439   3.723 -0.5312  0.0888  0.4038
   15MOL0     C 1861   8.802   9.346   3.645  0.3379 -0.4833 -0.1005
   15MOL0     C 1862   8.710   9.267   3.735 -0.4054  0.1422 -0.3412
   15MOL0     C 1863   8.660   9.141   3.659  0.3942 -0.2863 -0.3328
   15MOL0     C 1864   8.513   9.169   3.612 -0.4531  0.2359  0.9418
   15MOL0     N 1865   8.459   9.065   3.521  0.1121 -0.8486  0.2995
   15MOL0     C 1866   8.329   9.026   3.522  0.3943 -0.1514 -0.0193
   15MOL0     C 1867   8.314   8.925   3.432 -1.6505 -0.1943  0.0826
   15MOL0     C 1868   8.188   8.844   3.406  0.4224  0.7314  0.4210
   15MOL0     C 1869   8.193   8.708   3.472  0.7405 -0.1426  0.4015
   15MOL0     C 1870   8.060   8.637   3.443 -0.4886  0.4169  0.4450
   15MOL0     C 1871   8.061   8.514   3.527  0.7016 -0.1063  0.3748
   15MOL0     O 1872   7.959   8.415   3.502 -0.1498 -0.4410  0.0161
   15MOL0     C 1873   7.837   8.462   3.528  0.0298 -0.1562  0.9698
   15MOL0     C 1874   7.755   8.478   3.420  0.1294  0.9031 -0.1556
   15MOL0     C 1875   7.629   8.538   3.440 -0.9689  0.0153 -0.4203
   15MOL0     C 1876   7.582   8.578   3.561  0.0010 -0.2022 -0.2464
   15MOL0     C 1877   7.444   8.638   3.580  0.9946 -0.1277 -0.9332
   15MOL0     O 1878   7.406   8.680   3.708  0.1617  0.8066 -0.3247
   15MOL0     C 1879   7.278   8.736   3.731  0.5165  1.5493  0.6691
   15MOL0     C 1880   7.168   8.657   3.700  0.0168  0.4829 -0.1423
   15MOL0     C 1881   7.043   8.699   3.751 -1.0473 -0.1100  0.8500
   15MOL0     C 1882   7.022   8.824   3.814 -0.7776 -0.4534  0.2548
   15MOL0     O 1883   6.905   8.883   3.860  0.0093 -0.2094  0.1954
   15MOL0     C 1884   6.791   8.792   3.877  0.3990  0.2172 -0.1544
   15MOL0     C 1885   6.676   8.872   3.926 -0.0651  0.7749 -0.2968
   15MOL0     C 1886   6.550   8.791   3.964 -0.8173 -0.3512  0.8016
   15MOL0     C 1887   6.496   8.686   3.860  0.3127  1.6955  0.3719
   15MOL0     C 1888   6.350   8.629   3.882  0.0266  0.2040  0.6667
   15MOL0     C 1889   6.242   8.739   3.908  0.4530  0.1349 -0.1541
   15MOL0     C 1890   6.096   8.693   3.876  0.6554 -0.5349 -0.0425
   15MOL0     C 1891   6.056   8.584   3.971 -0.0739 -0.1166  0.3323
   15MOL0    Cl 1892   5.879   8.573   3.945  0.3606  0.6071 -0.5804
   15MOL0     C 1893   7.142   8.906   3.829 -0.2137 -0.4517 -0.4197
   15MOL0     C 1894   7.272   8.858   3.796  0.2867 -0.5982  0.1896
   15MOL0     O 1895   7.380   8.649   3.479  0.5125 -0.2391  0.1259
   15MOL0     C 1896   7.665   8.564   3.670  0.2318  0.2448 -0.4843
   15MOL0     C 1897   7.786   8.496   3.656  0.5071  0.2742 -0.0132
   15MOL0     N 1898   8.441   8.912   3.373 -0.4437  0.1626 -0.2423
   15MOL0     N 1899   8.527   8.994   3.438 -0.5138  0.4548  0.5432
   15MOL0     C 1900   9.444   9.779   3.818  0.3853 -0.0079  0.0518
   15MOL0     C 1901   9.565   9.740   3.871 -0.8966  0.7771 -0.2429
   15MOL0     C 1902   9.918   9.523   4.067 -0.3914  1.0708 -0.1761
   15MOL0     C 1903   9.992   9.576   4.172  1.1274 -0.7337 -0.2036
   15MOL0     C 1904  10.123   9.538   4.192  0.0628 -0.4151  0.0755
   15MOL0     C 1905  10.176   9.434   4.115 -0.0384  0.1703 -0.2915
   15MOL0     O 1906  10.304   9.381   4.137  0.3861  0.2256  0.8419
   15MOL0     C 1907  10.393   9.453   4.223 -0.3671 -0.0644 -0.8166
   15MOL0     C 1908  10.522   9.371   4.261 -0.4463 -0.8216  0.2990
   15MOL0     C 1909  10.493   9.237   4.321 -0.4819  0.6695  0.1981
   15MOL0     C 1910  10.606   9.179   4.406  0.1353 -0.0957 -0.4902
   15MOL0     C 1911  10.740   9.173   4.341 -0.7544  0.1877  0.1337
   15MOL0     C 1912  10.852   9.176   4.293  0.0819 -0.1013 -0.0838
   15MOL0     C 1913  10.104   9.383   4.012 -0.0916  0.5232  0.3439
   15MOL0     C 1914   9.980   9.421   3.987  0.2864 -0.3988 -0.9745
   15MOL0     H 1915   9.554   9.411   3.782 -1.3162 -0.7106 -2.0966
   15MOL0     H 1916   9.337   9.475   3.697  0.7598 -0.3906  0.3263
   15MOL0     H 1917   9.225   9.591   3.548  0.8262 -0.5734  1.5410
   15MOL0     H 1918   9.106   9.726   3.537  2.7999 -0.3375 -2.4990
   15MOL0     H 1919   9.043   9.678   3.759  2.2943 -0.6312  2.2453
   15MOL0     H 1920   9.138   9.520   3.749  1.4387  1.1856 -1.4306
   15MOL0     H 1921   9.025   9.458   3.551  0.7986  0.5930 -1.1090
   15MOL0     H 1922   8.911   9.590   3.569  0.8007 -0.9200 -1.6185
   15MOL0     H 1923   8.963   9.391   3.787  0.2047 -0.9991 -1.1998
   15MOL0     H 1924   8.824   9.508   3.778 -0.4353 -0.0273  0.6612
   15MOL0     H 1925   8.869   9.280   3.588 -1.0986 -0.5152 -1.8415
   15MOL0     H 1926   8.742   9.406   3.576  1.1680 -0.2059 -0.6008
   15MOL0     H 1927   8.627   9.316   3.787 -0.3888  0.4455 -0.5911
   15MOL0     H 1928   8.781   9.231   3.810  1.9530 -4.4297 -4.2291
   15MOL0     H 1929   8.725   9.116   3.575  1.6492 -1.5342  0.9613
   15MOL0     H 1930   8.673   9.055   3.726  0.6897  0.2604  0.3290
   15MOL0     H 1931   8.512   9.262   3.554 -2.4137  0.3211  1.0144
   15MOL0     H 1932   8.442   9.191   3.692  0.1847 -0.3165  1.6716
   15MOL0     H 1933   8.249   9.058   3.588  0.4350 -1.1402  0.5279
   15MOL0     H 1934   8.178   8.819   3.300  1.0345 -0.7901  0.6959
   15MOL0     H 1935   8.096   8.897   3.431 -1.2692 -1.4859 -0.7000
   15MOL0     H 1936   8.196   8.725   3.580 -0.1514  1.0103  0.2625
   15MOL0     H 1937   8.282   8.654   3.435  1.3018  0.0680  1.4127
   15MOL0     H 1938   7.976   8.701   3.472 -0.3129  0.1346  1.6261
   15MOL0     H 1939   8.070   8.615   3.336  3.8108 -0.2950  0.8375
   15MOL0     H 1940   8.050   8.551   3.629 -0.0529 -1.4153  0.7860
   15MOL0     H 1941   8.151   8.455   3.508 -0.0651 -1.0975 -0.2718
   15MOL0     H 1942   7.791   8.451   3.321  1.0860  0.8780  0.1826
   15MOL0     H 1943   7.566   8.564   3.356 -2.2530  0.4426  0.6337
   15MOL0     H 1944   7.177   8.558   3.656 -0.2517 -1.5804  3.9501
   15MOL0     H 1945   6.956   8.633   3.756 -0.5377 -0.6903  2.9665
   15MOL0     H 1946   6.821   8.706   3.937 -1.9138 -1.2037 -0.9082
   15MOL0     H 1947   6.764   8.735   3.787  0.7088 -1.5579  0.8234
   15MOL0     H 1948   6.651   8.957   3.862 -0.7876  0.8400  0.0648
   15MOL0     H 1949   6.706   8.927   4.015 -2.0337  3.4517 -1.1615
   15MOL0     H 1950   6.472   8.863   3.993  0.7107  1.6671  0.1548
   15MOL0     H 1951   6.560   8.729   4.053 -2.0159 -0.1427  1.1070
   15MOL0     H 1952   6.487   8.724   3.758  0.4240  1.2784  0.2052
   15MOL0     H 1953   6.567   8.603   3.858 -1.2530  0.2433  1.8856
   15MOL0     H 1954   6.351   8.557   3.963 -0.7180 -3.5168 -2.3630
   15MOL0     H 1955   6.313   8.567   3.800 -3.1247  0.7783  1.5240
   15MOL0     H 1956   6.271   8.832   3.860  1.0415  0.8530  1.5221
   15MOL0     H 1957   6.242   8.768   4.013 -2.0936  2.6826 -0.7586
   15MOL0     H 1958   6.022   8.772   3.887  1.6198  0.3432  0.3025
   15MOL0     H 1959   6.080   8.668   3.770 -1.9378 -1.5778  0.5399
   15MOL0     H 1960   6.090   8.599   4.074  1.2387 -0.7005  0.0137
   15MOL0     H 1961   6.098   8.486   3.945 -1.3570 -0.7195  0.4413
   15MOL0     H 1962   7.124   8.996   3.885  0.7870 -0.6238  0.2096
   15MOL0     H 1963   7.357   8.916   3.831  0.3338  0.7293 -1.9369
   15MOL0     H 1964   7.639   8.599   3.769 -1.0965  1.7889 -1.3229
   15MOL0     H 1965   7.849   8.487   3.744 -0.0723  0.0142  0.3794
   15MOL0     H 1966   9.423   9.885   3.833 -2.0201 -0.6245  1.6521
   15MOL0     H 1967   9.642   9.811   3.901  0.5812 -1.1966  0.8513
   15MOL0     H 1968   9.957   9.654   4.239  2.4009 -0.1786 -0.1397
   15MOL0     H 1969  10.185   9.596   4.259 -0.6373  0.2419  0.1725
   15MOL0     H 1970  10.357   9.457   4.326  0.2527 -1.1232 -0.5470
   15MOL0     H 1971  10.421   9.546   4.172 -2.9434  0.6026 -1.1529
   15MOL0     H 1972  10.587   9.361   4.174 -0.4806  2.5314 -0.2573
   15MOL0     H 1973  10.587   9.427   4.329 -0.9374 -1.2699  1.1574
   15MOL0     H 1974  10.480   9.167   4.238  1.8637 -1.2963  1.3533
   15MOL0     H 1975  10.398   9.236   4.376 -0.8884  1.4004 -0.4819
   15MOL0     H 1976  10.609   9.239   4.497 -2.2441 -0.0830 -0.3550
   15MOL0     H 1977  10.595   9.078   4.446 -0.3562  0.5670  1.1098
   15MOL0     H 1978  10.949   9.184   4.249 -0.4036  3.9713 -0.7710
   15MOL0     H 1979  10.144   9.309   3.945 -4.2591  0.5910 -2.5853
   15MOL0     H 1980   9.925   9.377   3.904  2.0948 -1.4094 -1.6941
   16MOL0     O 1981   0.818  10.036  10.011 -0.1961  0.2482 -0.2078
   16MOL0     C 1982   0.806  10.019  10.132 -0.3145  0.1945  0.0791
   16MOL0     O 1983   0.690  10.010  10.201  0.0317 -0.0502  0.1564
   16MOL0     C 1984   0.563  10.019  10.148 -0.4634 -0.0759  0.1928
   16MOL0     C 1985   0.524  10.099  10.036 -0.5366  0.1417 -0.2418
   16MOL0     C 1986   0.390  10.115  10.003  0.6967  0.4582  0.1323
   16MOL0     C 1987   0.282  10.049  10.066 -0.2131 -0.5903 -0.0438
   16MOL0     O 1988   0.159  10.087  10.032 -0.5312  0.1290  0.7612
   16MOL0     C 1989   0.046  10.020  10.092  0.1003  0.1083 -0.5509
   16MOL0     C 1990  -0.071  10.067  10.000 -0.6207  0.5122  0.0542
   16MOL0     C 1991  -0.193   9.971   9.996 -0.2945  0.4392 -0.5326
   16MOL0     C 1992  -0.314  10.029   9.929 -0.1219  0.0507  0.0254
   16MOL0     C 1993  -0.427   9.925   9.958 -0.2557  0.0410  0.4655
   16MOL0     C 1994  -0.564   9.984   9.913 -0.2618  0.2902 -0.6435
   16MOL0     C 1995  -0.684   9.883   9.926 -0.5751  0.2416  0.0851
   16MOL0     C 1996  -0.701   9.816  10.063  0.6426  0.4238 -0.2032
   16MOL0     N 1997  -0.835   9.766  10.080 -0.2763  0.4658 -0.0509
   16MOL0     C 1998  -0.891   9.666   9.997  0.2359 -0.3275  0.2326
   16MOL0     C 1999  -1.007   9.647  10.047 -0.0459 -0.6464  0.0124
   16MOL0     C 2000  -1.115   9.570   9.971  0.4411 -0.1562 -0.8499
   16MOL0     C 2001  -1.253   9.627   9.994  0.5085  0.4906 -0.0739
   16MOL0     C 2002  -1.349   9.563   9.897  0.2361 -0.4497 -0.2672
   16MOL0     C 2003  -1.504   9.573   9.930  0.2311  0.7148 -0.9375
   16MOL0     O 2004  -1.571   9.469   9.862 -0.0266 -0.5894  0.4758
   16MOL0     C 2005  -1.712   9.463   9.864  0.2320  0.3385 -0.5900
   16MOL0     C 2006  -1.783   9.556   9.943 -0.2575 -0.6387  0.0733
   16MOL0     C 2007  -1.919   9.538   9.959  0.6940  0.1534  0.6518
   16MOL0     C 2008  -1.981   9.437   9.881 -0.2650  0.0963 -0.0520
   16MOL0     C 2009  -2.129   9.422   9.891  0.4418  0.2785 -0.4852
   16MOL0     O 2010  -2.189   9.309   9.834 -0.1820  0.2906 -0.2387
   16MOL0     C 2011  -2.314   9.287   9.864  1.1214 -0.0990  0.3444
   16MOL0     C 2012  -2.336   9.166   9.922  1.3232  0.0885  0.9682
   16MOL0     C 2013  -2.454   9.128   9.971 -0.0808  0.3459 -0.7474
   16MOL0     C 2014  -2.563   9.221   9.952 -0.8867  0.4615 -0.9320
   16MOL0     O 2015  -2.675   9.179  10.018 -0.8098  0.1653  0.4144
   16MOL0     C 2016  -2.803   9.238  10.003 -0.2314 -0.5558 -0.0373
   16MOL0     C 2017  -2.912   9.143  10.049  0.4836  0.1736 -0.5915
   16MOL0     C 2018  -2.922   9.033   9.937  0.2811  0.2354  0.2686
   16MOL0     C 2019  -3.038   8.931   9.946 -0.4659  0.0713 -0.6341
   16MOL0     C 2020  -3.064   8.824   9.839 -0.4959  0.0021  0.0942
   16MOL0     C 2021  -3.162   8.718   9.888 -0.2625  0.6796 -0.5903
   16MOL0     C 2022  -3.184   8.602   9.792  0.5318 -0.2212 -0.0777
   16MOL0     C 2023  -3.082   8.494   9.791 -0.5519 -0.2372 -0.9210
   16MOL0    Cl 2024  -3.061   8.417   9.953 -0.1276 -0.2747  0.1589
   16MOL0     C 2025  -2.547   9.342   9.882  0.4296 -0.4203 -0.4454
   16MOL0     C 2026  -2.422   9.374   9.835 -0.0420 -0.8843  0.4138
   16MOL0     O 2027  -2.188   9.515   9.950  0.8074 -0.1850  0.3249
   16MOL0     C 2028  -1.907   9.348   9.807  0.2614  1.1981  0.2374
   16MOL0     C 2029  -1.771   9.358   9.798 -0.3787  0.3694  1.0745
   16MOL0     N 2030  -1.019   9.716  10.161 -0.2671  0.8310  0.2479
   16MOL0     N 2031  -0.912   9.782  10.182 -1.1416  0.7309  0.3327
   16MOL0     C 2032   0.315   9.976  10.183  0.1409 -0.7213  0.7458
   16MOL0     C 2033   0.453   9.960  10.216 -0.1922 -0.1698 -0.2042
   16MOL0     C 2034   0.925  10.004  10.210 -0.1917  1.0480 -0.6617
   16MOL0     C 2035   1.049   9.962  10.143  0.1144  0.0148 -0.2381
   16MOL0     C 2036   1.171   9.952  10.213  0.7398  1.0796 -0.4784
   16MOL0     C 2037   1.179   9.979  10.350 -0.3274 -0.1586  1.0274
   16MOL0     O 2038   1.307   9.969  10.401 -0.1750 -0.0850  0.5673
   16MOL0     C 2039   1.324  10.009  10.537 -0.4218 -0.3396  0.3834
   16MOL0     C 2040   1.463   9.970  10.591 -0.5149  0.5317 -0.5067
   16MOL0     C 2041   1.481  10.010  10.741 -0.6422  0.6336 -0.8361
   16MOL0     C 2042   1.597   9.937  10.809  0.0124  0.8553  0.5002
   16MOL0     C 2043   1.730   9.977  10.746  1.1050  0.6197 -0.5558
   16MOL0     C 2044   1.831  10.029  10.691 -0.7877  0.4910  0.0776
   16MOL0     C 2045   1.051  10.006  10.417  0.0003 -0.7215 -0.8037
   16MOL0     C 2046   0.931  10.036  10.346 -0.8801  0.2512  0.8529
   16MOL0     H 2047   0.590  10.149   9.966 -1.3549  1.7732  0.1059
   16MOL0     H 2048   0.370  10.187   9.924 -0.3177 -0.0723 -0.1174
   16MOL0     H 2049   0.028  10.042  10.197 -0.8307 -0.4103 -0.5926
   16MOL0     H 2050   0.057   9.912  10.081  2.3728  0.3062 -0.7628
   16MOL0     H 2051  -0.047  10.072   9.893 -2.2116  1.2008 -0.2972
   16MOL0     H 2052  -0.104  10.167  10.030  1.2100  0.5942  2.0850
   16MOL0     H 2053  -0.219   9.953  10.101 -2.1073 -0.6686 -1.1233
   16MOL0     H 2054  -0.167   9.877   9.946  0.7275  0.4117  0.0208
   16MOL0     H 2055  -0.342  10.124   9.975  2.5400  2.9881 -3.7051
   16MOL0     H 2056  -0.292  10.042   9.822  1.4221  1.1803  0.4344
   16MOL0     H 2057  -0.443   9.899  10.063 -1.0906 -2.1160 -0.1367
   16MOL0     H 2058  -0.410   9.827   9.913 -1.0719 -1.0150  2.3378
   16MOL0     H 2059  -0.560  10.019   9.810 -2.0296  0.5546 -0.6653
   16MOL0     H 2060  -0.588  10.067   9.980 -0.8286 -0.7596  0.4944
   16MOL0     H 2061  -0.773   9.942   9.898 -0.0302  0.8285 -0.4503
   16MOL0     H 2062  -0.678   9.806   9.849  0.8499 -2.6728  2.8951
   16MOL0     H 2063  -0.680   9.890  10.141 -0.4021 -2.1364  2.6996
   16MOL0     H 2064  -0.626   9.738  10.079  0.4836  0.6217  1.6382
   16MOL0     H 2065  -0.856   9.614   9.908 -2.3737 -2.2538  0.1992
   16MOL0     H 2066  -1.115   9.476  10.026  1.0937  1.4712  2.1819
   16MOL0     H 2067  -1.084   9.558   9.867  0.7349 -1.0957 -0.6576
   16MOL0     H 2068  -1.242   9.734   9.973  1.3920  0.3372 -0.4160
   16MOL0     H 2069  -1.279   9.619  10.100 -2.5383  1.7185 -0.6253
   16MOL0     H 2070  -1.336   9.612   9.800  0.3902 -0.2810 -0.1624
   16MOL0     H 2071  -1.320   9.458   9.888  3.9150  0.3695  0.2679
   16MOL0     H 2072  -1.541   9.670   9.895 -0.4871  0.4281 -0.9936
   16MOL0     H 2073  -1.507   9.557  10.038  5.1270  1.2595 -0.5073
   16MOL0     H 2074  -1.733   9.637   9.994 -0.8872  0.3273 -0.8091
   16MOL0     H 2075  -1.976   9.619  10.005 -1.0713 -1.5619  1.6509
   16MOL0     H 2076  -2.260   9.091   9.943  0.5782 -0.8467  0.3983
   16MOL0     H 2077  -2.484   9.043  10.031 -0.5912  0.4722 -0.8124
   16MOL0     H 2078  -2.807   9.258   9.896 -1.2341  0.9019  0.2381
   16MOL0     H 2079  -2.805   9.325  10.069 -1.3534 -2.2739  2.3336
   16MOL0     H 2080  -3.011   9.189  10.062  1.1605  2.3702 -2.5755
   16MOL0     H 2081  -2.893   9.120  10.154 -2.7466 -0.5403 -0.0369
   16MOL0     H 2082  -2.828   8.980   9.922 -0.2287 -0.3114 -1.1552
   16MOL0     H 2083  -2.943   9.087   9.844  0.9877  0.9314  0.4958
   16MOL0     H 2084  -3.010   8.878  10.038 -1.1712 -1.7065 -1.4010
   16MOL0     H 2085  -3.122   8.998   9.965  2.5511  3.8619  0.6839
   16MOL0     H 2086  -2.965   8.785   9.814  0.6261  4.2431 -3.2829
   16MOL0     H 2087  -3.104   8.865   9.746  0.5216  0.0541 -0.3388
   16MOL0     H 2088  -3.255   8.771   9.910 -0.9302 -0.6796 -0.0545
   16MOL0     H 2089  -3.134   8.677   9.985 -0.5664 -0.0568 -0.8082
   16MOL0     H 2090  -3.280   8.562   9.826 -1.0526  4.2315  1.3850
   16MOL0     H 2091  -3.194   8.648   9.694 -1.3134  0.4992  0.4071
   16MOL0     H 2092  -2.984   8.527   9.753 -1.5030  3.5628 -0.4762
   16MOL0     H 2093  -3.112   8.423   9.713 -0.0145 -1.8857  0.3033
   16MOL0     H 2094  -2.631   9.406   9.859  0.0473 -0.0513  1.7531
   16MOL0     H 2095  -2.400   9.467   9.783 -0.6352  0.1006  1.8584
   16MOL0     H 2096  -1.952   9.261   9.760 -0.7893  1.9289 -0.1681
   16MOL0     H 2097  -1.710   9.296   9.733 -1.5118  0.1392  0.1957
   16MOL0     H 2098   0.242   9.943  10.256 -0.1480  3.3234  2.5104
   16MOL0     H 2099   0.478   9.902  10.304 -2.1291 -0.5535  0.1242
   16MOL0     H 2100   1.031   9.945  10.038 -2.5221  0.0045  0.1542
   16MOL0     H 2101   1.259   9.912  10.163  1.8895  0.6694  1.7505
   16MOL0     H 2102   1.245   9.966  10.599 -1.1828  0.0901 -0.2687
   16MOL0     H 2103   1.320  10.118  10.549  0.8993 -0.2728  0.4328
   16MOL0     H 2104   1.479   9.862  10.581  1.1269  0.8801 -1.9338
   16MOL0     H 2105   1.541  10.023  10.536 -1.2785  1.8024 -0.3861
   16MOL0     H 2106   1.386   9.971  10.780  1.3384 -0.7445  3.1752
   16MOL0     H 2107   1.478  10.115  10.770  1.1009  0.4719  0.0534
   16MOL0     H 2108   1.597   9.945  10.919 -1.4407 -2.3713  0.8590
   16MOL0     H 2109   1.589   9.828  10.795  1.7297  0.9054 -1.1374
   16MOL0     H 2110   1.919  10.063  10.639  1.6070  1.5450  4.2765
   16MOL0     H 2111   1.060  10.045  10.518  0.0169  1.1961 -1.4993
   16MOL0     H 2112   0.845  10.083  10.391 -1.1185  1.2660 -0.6119
   17MOL0     O 2113   7.045  10.490   6.125 -0.1724  0.3798  0.0072
   17MOL0     C 2114   7.131  10.463   6.209 -0.0250  0.7541 -0.6935
   17MOL0     O 2115   7.132  10.514   6.339 -0.7293  0.3046 -0.3289
   17MOL0     C 2116   7.035  10.592   6.399 -0.5399 -0.6372  0.7055
   17MOL0     C 2117   7.075  10.654   6.519 -0.1643  0.3285  0.5033
   17MOL0     C 2118   6.988  10.751   6.584 -0.4142  0.1304  0.6004
   17MOL0     C 2119   6.870  10.787   6.517 -0.4501  0.7057  0.5623
   17MOL0     O 2120   6.789  10.883   6.570  0.2554 -0.1564 -0.1640
   17MOL0     C 2121   6.740  10.839   6.702 -1.1211  0.1754  0.3230
   17MOL0     C 2122   6.601  10.770   6.691  0.7065 -0.4540  0.1593
   17MOL0     C 2123   6.493  10.857   6.635 -0.4384  0.5470 -0.1904
   17MOL0     C 2124   6.438  10.816   6.498  0.0638 -0.4641  0.4410
   17MOL0     C 2125   6.362  10.919   6.428 -0.0642 -0.1883 -0.3109
   17MOL0     C 2126   6.237  10.945   6.517 -0.5267 -0.3355  0.1131
   17MOL0     C 2127   6.146  11.043   6.442 -0.0496 -0.2492  0.0987
   17MOL0     C 2128   6.060  10.967   6.341 -0.1077  0.4544  0.3128
   17MOL0     N 2129   5.947  11.052   6.299  0.7169 -0.1147  0.1058
   17MOL0     C 2130   5.818  11.047   6.350 -0.2207  0.6291 -0.5905
   17MOL0     C 2131   5.746  11.123   6.259  0.0312  0.7752 -1.4551
   17MOL0     C 2132   5.596  11.147   6.236  0.9810  0.2811  0.4640
   17MOL0     C 2133   5.556  11.144   6.090  0.1377  0.4599  0.6060
   17MOL0     C 2134   5.400  11.153   6.070 -0.4563  0.1553 -0.8453
   17MOL0     C 2135   5.338  11.288   6.112  0.3567  0.6232  0.3207
   17MOL0     O 2136   5.195  11.275   6.100 -0.1406  0.5761 -0.2245
   17MOL0     C 2137   5.119  11.383   6.117 -0.2835 -0.7891 -0.4796
   17MOL0     C 2138   4.989  11.349   6.131  0.9247 -0.6415 -1.2032
   17MOL0     C 2139   4.890  11.451   6.138 -0.6211 -0.4579 -0.3582
   17MOL0     C 2140   4.922  11.588   6.122  0.5876  0.0869 -0.9292
   17MOL0     C 2141   4.810  11.696   6.131  0.0767  0.1807  0.4668
   17MOL0     O 2142   4.686  11.654   6.125  0.1438  0.1827  0.1570
   17MOL0     C 2143   4.573  11.740   6.150 -0.5200  0.0327 -0.0629
   17MOL0     C 2144   4.557  11.876   6.158 -0.4562 -0.1528  0.9582
   17MOL0     C 2145   4.430  11.938   6.179  0.0271  0.7233 -0.0703
   17MOL0     C 2146   4.321  11.851   6.196 -0.0507 -0.1007  0.6330
   17MOL0     O 2147   4.192  11.895   6.221 -0.0132 -0.1257  0.3951
   17MOL0     C 2148   4.186  12.019   6.280  0.0983 -0.4494 -0.1677
   17MOL0     C 2149   4.065  12.014   6.379  0.2372  0.5997  0.3538
   17MOL0     C 2150   4.064  12.120   6.480  0.4668 -0.2789  0.5779
   17MOL0     C 2151   3.965  12.226   6.443  0.0171 -0.0312 -0.2813
   17MOL0     C 2152   3.946  12.320   6.566  0.9868 -0.0558  1.1302
   17MOL0     C 2153   3.826  12.416   6.521 -0.1870  1.0952 -1.1387
   17MOL0     C 2154   3.790  12.529   6.615  0.2284 -0.3960 -0.1421
   17MOL0     C 2155   3.900  12.635   6.599 -0.4772 -0.2120 -0.5587
   17MOL0    Cl 2156   3.906  12.706   6.436  0.1361  0.0905  0.1476
   17MOL0     C 2157   4.326  11.719   6.174 -0.1409  0.3373 -0.8305
   17MOL0     C 2158   4.451  11.661   6.148 -0.8074  0.4131 -0.2858
   17MOL0     O 2159   4.851  11.812   6.142 -0.0154 -0.6327 -0.3905
   17MOL0     C 2160   5.057  11.617   6.106  0.9801 -1.2793  1.2863
   17MOL0     C 2161   5.153  11.516   6.106 -0.5937 -0.2995  0.7720
   17MOL0     N 2162   5.838  11.176   6.169  0.4612  0.0132  0.2147
   17MOL0     N 2163   5.956  11.130   6.197 -0.4337  0.3479  0.0769
   17MOL0     C 2164   6.834  10.736   6.389 -0.3789  1.4004  0.0686
   17MOL0     C 2165   6.911  10.630   6.338 -0.8801  0.2541  0.9057
   17MOL0     C 2166   7.251  10.378   6.166 -0.1664 -0.6135  0.2432
   17MOL0     C 2167   7.367  10.372   6.245 -0.1271  0.0740  0.1996
   17MOL0     C 2168   7.481  10.301   6.206  0.2475  0.4476 -0.8916
   17MOL0     C 2169   7.475  10.224   6.093 -0.5757 -0.2515  0.3690
   17MOL0     O 2170   7.592  10.155   6.059  0.6017 -0.5902 -0.6783
   17MOL0     C 2171   7.622  10.159   5.920  1.0369  0.1397  0.1521
   17MOL0     C 2172   7.756  10.092   5.906 -0.6580  0.6867 -0.1775
   17MOL0     C 2173   7.753   9.948   5.945  0.5110  0.5503  0.6552
   17MOL0     C 2174   7.893   9.885   5.926  0.4240 -0.2802  0.1348
   17MOL0     C 2175   7.911   9.750   5.990  0.8122  0.1445  0.2684
   17MOL0     C 2176   7.933   9.641   6.049 -0.3367  0.0546  0.3894
   17MOL0     C 2177   7.353  10.222   6.014 -0.9362  0.1150 -0.2388
   17MOL0     C 2178   7.243  10.297   6.048 -0.6235  0.0091  0.0562
   17MOL0     H 2179   7.164  10.615   6.566 -0.3187  0.0945  0.6048
   17MOL0     H 2180   7.008  10.803   6.677 -1.1082 -1.8563  1.9271
   17MOL0     H 2181   6.726  10.923   6.770  1.3429  1.2353 -0.3937
   17MOL0     H 2182   6.812  10.775   6.752  1.4426  2.2349 -0.5038
   17MOL0     H 2183   6.577  10.737   6.793 -1.4349  1.0982  0.2190
   17MOL0     H 2184   6.607  10.675   6.638  1.1435 -2.5374  3.5826
   17MOL0     H 2185   6.522  10.962   6.629 -0.0970  0.3752 -3.7316
   17MOL0     H 2186   6.406  10.848   6.702 -0.5074  0.2084 -0.3194
   17MOL0     H 2187   6.520  10.780   6.435 -0.8744 -1.4416 -0.2416
   17MOL0     H 2188   6.375  10.730   6.517  1.2005 -1.2385  0.8258
   17MOL0     H 2189   6.337  10.881   6.329  0.7264  1.3099 -1.1097
   17MOL0     H 2190   6.419  11.011   6.414  0.1213 -0.2684 -0.1041
   17MOL0     H 2191   6.282  11.004   6.598  3.3752  3.3159 -4.1704
   17MOL0     H 2192   6.187  10.857   6.559 -1.4350  1.7028  3.7587
   17MOL0     H 2193   6.087  11.112   6.503  1.5815  0.9926  0.3403
   17MOL0     H 2194   6.214  11.107   6.387 -0.5146 -1.4696 -1.9976
   17MOL0     H 2195   6.010  10.880   6.384  0.2852  0.4805  0.8295
   17MOL0     H 2196   6.121  10.934   6.256 -0.9402 -2.9451  0.8833
   17MOL0     H 2197   5.797  10.987   6.438  4.2020  0.1774  0.3913
   17MOL0     H 2198   5.565  11.244   6.276 -0.2217 -0.5392  1.6058
   17MOL0     H 2199   5.544  11.083   6.307 -0.5464  3.0319  1.9905
   17MOL0     H 2200   5.587  11.051   6.041 -0.8141  0.9578 -0.9936
   17MOL0     H 2201   5.607  11.232   6.051 -1.1096  1.5966  1.4927
   17MOL0     H 2202   5.373  11.136   5.965 -0.4199  1.1701 -1.0284
   17MOL0     H 2203   5.350  11.072   6.124 -0.0180 -0.2653 -1.0696
   17MOL0     H 2204   5.376  11.369   6.048 -1.0468  0.1875 -1.1324
   17MOL0     H 2205   5.349  11.310   6.219 -3.5736  1.0430  0.7752
   17MOL0     H 2206   4.961  11.245   6.148 -2.3251  0.1586 -1.0361
   17MOL0     H 2207   4.787  11.426   6.160 -1.1080  0.3681 -1.5601
   17MOL0     H 2208   4.642  11.943   6.163  0.4633 -1.1370 -0.5539
   17MOL0     H 2209   4.429  12.044   6.199 -1.3671  1.2502 -2.5678
   17MOL0     H 2210   4.181  12.098   6.204  1.0938 -1.2090 -1.0488
   17MOL0     H 2211   4.270  12.037   6.348  1.1804 -3.3139 -0.6276
   17MOL0     H 2212   4.074  11.918   6.431 -0.3417  1.0422  1.2882
   17MOL0     H 2213   3.973  12.010   6.320 -0.0088 -1.1207  0.7807
   17MOL0     H 2214   4.162  12.163   6.505  0.1864 -0.6962  2.5876
   17MOL0     H 2215   4.027  12.069   6.570 -4.2331 -0.8290 -1.3704
   17MOL0     H 2216   3.990  12.290   6.358 -3.1439 -1.4296 -2.4519
   17MOL0     H 2217   3.869  12.179   6.419  1.4299 -3.0237 -0.5434
   17MOL0     H 2218   4.039  12.373   6.586  0.9123  2.2026 -3.3374
   17MOL0     H 2219   3.919  12.263   6.656 -0.7033 -1.5080 -0.2033
   17MOL0     H 2220   3.742  12.347   6.530  1.1133 -0.3174  1.0122
   17MOL0     H 2221   3.821  12.437   6.413  0.6124 -2.2168 -1.9256
   17MOL0     H 2222   3.693  12.573   6.587  0.8048  1.6422  0.8604
   17MOL0     H 2223   3.770  12.494   6.717  2.3106 -1.2934 -0.0000
   17MOL0     H 2224   3.995  12.584   6.616 -0.3999  0.1556  0.1686
   17MOL0     H 2225   3.884  12.717   6.670  0.2759 -1.7544  1.5021
   17MOL0     H 2226   4.244  11.655   6.204  1.1998  0.2962  3.3445
   17MOL0     H 2227   4.462  11.554   6.131  0.0931  0.7093 -1.7445
   17MOL0     H 2228   5.077  11.724   6.102 -0.6919 -0.9813 -1.3230
   17MOL0     H 2229   5.258  11.541   6.095 -0.9707  0.7304 -0.6680
   17MOL0     H 2230   6.749  10.776   6.334  1.7249  0.7138 -4.0838
   17MOL0     H 2231   6.881  10.581   6.246  0.6445  2.0584 -0.6640
   17MOL0     H 2232   7.369  10.427   6.339  0.7015  0.1291  0.1545
   17MOL0     H 2233   7.568  10.324   6.265 -1.1503  2.8750  0.3841
   17MOL0     H 2234   7.618  10.260   5.879  1.5684  0.1794  0.1946
   17MOL0     H 2235   7.550  10.098   5.863 -0.3109  2.4515 -0.7496
   17MOL0     H 2236   7.796  10.103   5.805 -0.8706 -0.3086 -0.3872
   17MOL0     H 2237   7.828  10.137   5.975 -0.4792  0.3679 -0.1519
   17MOL0     H 2238   7.674   9.897   5.889  0.6388 -1.6439  2.3082
   17MOL0     H 2239   7.723   9.940   6.050  0.4332 -2.9965  0.4821
   17MOL0     H 2240   7.926   9.885   5.821  2.6848  5.6167  0.4743
   17MOL0     H 2241   7.974   9.947   5.966  2.5298 -2.5295 -0.4106
   17MOL0     H 2242   7.956   9.550   6.100 -0.9271 -1.0672 -1.2347
   17MOL0     H 2243   7.336  10.152   5.932 -2.4204  1.7044 -1.3735
   17MOL0     H 2244   7.155  10.308   5.987 -0.1680  0.3239 -0.5602
   18MOL0     O 2245   6.724   2.042   0.370 -0.6751 -0.4030  0.7197
   18MOL0     C 2246   6.829   1.991   0.318  0.3501  0.5834 -0.5120
   18MOL0     O 2247   6.829   1.874   0.245  0.1605 -0.5478 -0.4484
   18MOL0     C 2248   6.716   1.798   0.240 -0.2301 -1.4724  0.6456
   18MOL0     C 2249   6.720   1.671   0.273  0.4088  0.6989 -0.3739
   18MOL0     C 2250   6.603   1.592   0.272 -0.8065 -0.3676  0.8414
   18MOL0     C 2251   6.489   1.646   0.223  0.0352  0.5581  0.5792
   18MOL0     O 2252   6.364   1.585   0.222  0.4194  0.1161 -0.2448
   18MOL0     C 2253   6.360   1.437   0.226 -0.0653  0.3121  0.5385
   18MOL0     C 2254   6.214   1.372   0.192 -0.2806  0.2770  0.5411
   18MOL0     C 2255   6.115   1.390   0.300  0.6623 -0.0600  1.0598
   18MOL0     C 2256   6.002   1.297   0.276 -0.8021  0.4335  1.4825
   18MOL0     C 2257   5.882   1.333   0.349  0.4776  0.0444 -0.7292
   18MOL0     C 2258   5.756   1.285   0.268  0.0585  0.4534 -0.4471
   18MOL0     C 2259   5.618   1.284   0.340 -0.8415  1.0750 -0.3373
   18MOL0     C 2260   5.570   1.427   0.351 -0.3394 -0.2124  0.6393
   18MOL0     N 2261   5.464   1.448   0.455  0.2610  0.2303 -0.6042
   18MOL0     C 2262   5.474   1.413   0.588 -0.3469 -1.1420 -0.1266
   18MOL0     C 2263   5.353   1.423   0.644  0.9089  0.2313 -0.2331
   18MOL0     C 2264   5.335   1.369   0.788  0.7933 -0.2002  0.2807
   18MOL0     C 2265   5.201   1.410   0.838  0.3384 -0.0591 -1.1139
   18MOL0     C 2266   5.197   1.360   0.980  0.4160  0.2008  0.0182
   18MOL0     C 2267   5.071   1.421   1.036 -0.1275 -0.7033 -0.8247
   18MOL0     O 2268   5.040   1.361   1.167 -0.2092  0.8385  0.0765
   18MOL0     C 2269   4.914   1.359   1.222 -0.4023 -0.0437 -0.2899
   18MOL0     C 2270   4.902   1.304   1.350 -0.6220  0.9154 -1.0970
   18MOL0     C 2271   4.781   1.291   1.412 -0.5868 -0.3475  0.2139
   18MOL0     C 2272   4.662   1.329   1.355 -0.6880 -0.3122  1.4880
   18MOL0     C 2273   4.536   1.312   1.430  1.0249  0.8296 -0.0986
   18MOL0     O 2274   4.542   1.302   1.573 -0.1685 -0.0570  0.3224
   18MOL0     C 2275   4.420   1.330   1.645 -1.1509 -0.3268 -0.7062
   18MOL0     C 2276   4.339   1.438   1.615  0.4607  0.1784  0.9048
   18MOL0     C 2277   4.236   1.475   1.704  0.4113 -0.6791  0.2116
   18MOL0     C 2278   4.211   1.397   1.819  0.2705 -0.5198  0.7174
   18MOL0     O 2279   4.110   1.433   1.898  0.1885 -0.5372 -0.1109
   18MOL0     C 2280   4.061   1.351   2.004 -0.6403  1.0710  0.7240
   18MOL0     C 2281   3.949   1.414   2.087 -0.3802 -0.6376 -0.0069
   18MOL0     C 2282   3.811   1.405   2.024 -0.1148 -0.1057  0.1357
   18MOL0     C 2283   3.707   1.472   2.109 -0.0273 -0.5293 -1.7806
   18MOL0     C 2284   3.578   1.504   2.030 -0.3775  0.7253 -0.0714
   18MOL0     C 2285   3.468   1.556   2.126 -0.2075  0.7963 -0.3062
   18MOL0     C 2286   3.342   1.590   2.045  0.4083 -0.3273  0.1766
   18MOL0     C 2287   3.226   1.638   2.134 -0.2246 -0.3551 -0.4021
   18MOL0    Cl 2288   3.140   1.516   2.235 -0.0024  0.1575  0.0656
   18MOL0     C 2289   4.301   1.296   1.849 -0.1563  0.2630 -0.6482
   18MOL0     C 2290   4.408   1.263   1.765 -0.4018 -0.0970  0.0708
   18MOL0     O 2291   4.430   1.329   1.365 -0.4531 -0.2543 -0.2431
   18MOL0     C 2292   4.677   1.379   1.220 -0.5460  0.3292  0.2058
   18MOL0     C 2293   4.798   1.405   1.163 -0.1751 -0.2019 -0.1770
   18MOL0     N 2294   5.268   1.449   0.535  0.7883 -0.3308  0.1084
   18MOL0     N 2295   5.333   1.447   0.429 -0.2237 -0.2507 -0.3413
   18MOL0     C 2296   6.491   1.779   0.186  0.4463  0.6580  0.2599
   18MOL0     C 2297   6.602   1.856   0.186 -0.3605  0.0128 -0.2627
   18MOL0     C 2298   6.960   2.066   0.310 -0.2499 -0.1876 -0.0343
   18MOL0     C 2299   6.964   2.214   0.326  0.2720  0.4927 -0.0892
   18MOL0     C 2300   7.078   2.295   0.304  0.4960  0.2176 -0.0050
   18MOL0     C 2301   7.195   2.217   0.274 -0.0742  0.3158  0.0773
   18MOL0     O 2302   7.316   2.285   0.294 -0.0637 -0.0573  0.8149
   18MOL0     C 2303   7.439   2.229   0.251 -0.4847 -0.3591  1.0012
   18MOL0     C 2304   7.560   2.310   0.287 -0.5053 -0.0531  0.8600
   18MOL0     C 2305   7.685   2.260   0.206  0.2641 -0.4713 -0.4252
   18MOL0     C 2306   7.814   2.339   0.253 -0.2839 -0.2394 -0.5027
   18MOL0     C 2307   7.936   2.307   0.180  0.9585 -0.1253  0.3978
   18MOL0     C 2308   8.033   2.274   0.113  0.3682  0.0095 -0.3142
   18MOL0     C 2309   7.195   2.082   0.249 -0.7691 -0.1095 -0.7779
   18MOL0     C 2310   7.075   2.004   0.258 -0.0858  0.4463  0.4274
   18MOL0     H 2311   6.807   1.621   0.315 -0.6248 -1.8148 -1.0535
   18MOL0     H 2312   6.585   1.489   0.301 -0.2619 -0.4889  0.7733
   18MOL0     H 2313   6.379   1.410   0.330  0.0790  0.6412  0.5977
   18MOL0     H 2314   6.429   1.394   0.153 -1.2227  1.5987 -1.4379
   18MOL0     H 2315   6.235   1.268   0.167 -2.0251  0.7682 -4.0164
   18MOL0     H 2316   6.178   1.422   0.102  1.5737  1.1227  0.2339
   18MOL0     H 2317   6.083   1.495   0.296  0.5966 -0.1090 -1.1102
   18MOL0     H 2318   6.155   1.367   0.399  2.0581  0.0241  0.5475
   18MOL0     H 2319   5.973   1.292   0.170  0.7593 -2.1984  1.0755
   18MOL0     H 2320   6.046   1.199   0.297 -1.2250 -0.3204 -0.8623
   18MOL0     H 2321   5.870   1.441   0.359 -2.0361 -0.1394 -1.1915
   18MOL0     H 2322   5.887   1.289   0.449 -0.7965  2.9249  0.7419
   18MOL0     H 2323   5.771   1.179   0.249  0.9909  1.0911 -4.0588
   18MOL0     H 2324   5.754   1.340   0.173 -0.2582 -3.1047 -2.6608
   18MOL0     H 2325   5.544   1.228   0.283 -1.2913  1.9032 -0.5890
   18MOL0     H 2326   5.630   1.230   0.435  2.6271  0.7445 -0.8548
   18MOL0     H 2327   5.529   1.445   0.251 -0.1109  1.1558  0.7630
   18MOL0     H 2328   5.650   1.502   0.347  0.7141 -1.3560 -2.4134
   18MOL0     H 2329   5.566   1.409   0.646  0.8227 -1.9985 -1.9578
   18MOL0     H 2330   5.417   1.397   0.855 -0.1855  0.6057  1.1725
   18MOL0     H 2331   5.331   1.261   0.772  2.9334 -0.1187 -1.2897
   18MOL0     H 2332   5.125   1.353   0.785  1.0259  0.4673 -2.7406
   18MOL0     H 2333   5.180   1.517   0.838  0.7511  0.0802  1.2530
   18MOL0     H 2334   5.171   1.254   0.973 -2.7913  0.9796 -3.6485
   18MOL0     H 2335   5.287   1.390   1.034  0.7997 -0.9449  0.0427
   18MOL0     H 2336   4.989   1.410   0.964  0.4948 -0.1489 -1.6257
   18MOL0     H 2337   5.087   1.528   1.047 -0.6195 -0.8332  1.9406
   18MOL0     H 2338   4.981   1.254   1.405 -0.4156  2.7516  0.3895
   18MOL0     H 2339   4.775   1.247   1.512 -1.1436 -0.5719  0.0851
   18MOL0     H 2340   4.366   1.506   1.535  2.3293 -0.0810  1.2615
   18MOL0     H 2341   4.177   1.565   1.691  0.0396 -0.9069  0.3281
   18MOL0     H 2342   4.148   1.326   2.065 -0.1372 -0.9080 -0.6921
   18MOL0     H 2343   4.017   1.262   1.958 -0.5816  2.5048 -2.3404
   18MOL0     H 2344   3.973   1.519   2.104 -0.9010 -0.7735  1.7529
   18MOL0     H 2345   3.943   1.378   2.190  0.8923  1.6968  0.9427
   18MOL0     H 2346   3.783   1.299   2.027 -0.6834  0.0505  0.6023
   18MOL0     H 2347   3.817   1.446   1.923 -0.0156  2.5107  1.1381
   18MOL0     H 2348   3.696   1.413   2.200 -0.8232  1.2856 -0.6320
   18MOL0     H 2349   3.744   1.569   2.144 -0.2940 -1.5932  1.8612
   18MOL0     H 2350   3.538   1.413   1.985 -2.8101  0.9152  1.5531
   18MOL0     H 2351   3.610   1.574   1.951 -1.9017  0.4612 -0.9629
   18MOL0     H 2352   3.514   1.639   2.181  0.7422 -1.1168  1.9421
   18MOL0     H 2353   3.436   1.482   2.200 -2.7181  1.8455 -0.2343
   18MOL0     H 2354   3.378   1.673   1.984 -2.2034  0.2795 -0.6799
   18MOL0     H 2355   3.312   1.509   1.977  1.0308  1.4872 -2.4285
   18MOL0     H 2356   3.151   1.695   2.078 -0.1294  1.2142  1.0073
   18MOL0     H 2357   3.274   1.713   2.197  1.4404 -0.2409 -1.7069
   18MOL0     H 2358   4.281   1.234   1.936 -2.6992 -2.2862 -2.8552
   18MOL0     H 2359   4.479   1.183   1.784  0.2900  0.9996  2.4412
   18MOL0     H 2360   4.589   1.421   1.173 -0.3174 -0.0363 -0.5642
   18MOL0     H 2361   4.795   1.452   1.065  1.2241 -0.9758 -0.6302
   18MOL0     H 2362   6.404   1.814   0.131 -0.4110 -0.5154  0.8241
   18MOL0     H 2363   6.594   1.960   0.156 -0.8093 -0.2775 -1.1746
   18MOL0     H 2364   6.865   2.259   0.328  0.7142  1.4970 -0.4402
   18MOL0     H 2365   7.088   2.401   0.320 -0.3538  0.4737 -1.0449
   18MOL0     H 2366   7.436   2.222   0.141  1.1982 -4.7418  1.0204
   18MOL0     H 2367   7.447   2.127   0.290 -1.3921  0.0122  2.1968
   18MOL0     H 2368   7.542   2.416   0.267  0.8997  0.3571  1.6946
   18MOL0     H 2369   7.590   2.303   0.391 -1.1180 -0.7285  0.9988
   18MOL0     H 2370   7.666   2.279   0.100  1.8885 -1.0238 -0.8404
   18MOL0     H 2371   7.701   2.153   0.223 -0.6917 -0.3960  1.2465
   18MOL0     H 2372   7.785   2.444   0.247 -1.2984 -0.4664  0.0939
   18MOL0     H 2373   7.829   2.318   0.359 -2.1763  1.5748  0.1769
   18MOL0     H 2374   8.125   2.241   0.070  2.0928  0.2630  2.8926
   18MOL0     H 2375   7.287   2.028   0.232  1.8159  3.8231 -0.5331
   18MOL0     H 2376   7.077   1.896   0.243  3.2878  0.3127  1.0961
   19MOL0     O 2377   5.497   7.447   8.786 -0.8308 -0.8570  0.8246
   19MOL0     C 2378   5.551   7.498   8.886 -0.8859  0.5202  0.7707
   19MOL0     O 2379   5.483   7.519   8.997  0.2793 -0.6294 -0.4428
   19MOL0     C 2380   5.349   7.483   9.002  0.3197  0.9506 -0.3621
   19MOL0     C 2381   5.248   7.580   8.982  0.1521 -0.9397  0.7275
   19MOL0     C 2382   5.113   7.542   8.996 -1.2694 -1.2187  0.5231
   19MOL0     C 2383   5.076   7.408   9.020  0.1016 -1.1384  0.6447
   19MOL0     O 2384   4.943   7.374   9.011  0.6820 -0.5208 -0.6260
   19MOL0     C 2385   4.896   7.266   9.096 -0.0413 -0.4442  0.2047
   19MOL0     C 2386   4.748   7.276   9.105 -0.0937 -0.1933 -1.3814
   19MOL0     C 2387   4.683   7.183   9.220 -0.1323 -0.9240 -0.1185
   19MOL0     C 2388   4.544   7.136   9.186  0.9304  0.5202 -0.0395
   19MOL0     C 2389   4.434   7.246   9.193 -0.4182  0.1148 -0.1393
   19MOL0     C 2390   4.291   7.188   9.176  0.0609  0.1495  0.8506
   19MOL0     C 2391   4.194   7.300   9.190 -0.1158 -0.2008  0.0153
   19MOL0     C 2392   4.055   7.268   9.140  0.3677  0.2190  0.9800
   19MOL0     N 2393   3.984   7.157   9.207  0.2386  0.0802  0.3866
   19MOL0     C 2394   3.930   7.160   9.332 -0.0459  0.1792  0.2823
   19MOL0     C 2395   3.861   7.038   9.338  0.2723 -0.2852 -0.1757
   19MOL0     C 2396   3.777   6.976   9.451  0.7316 -0.3694  0.0377
   19MOL0     C 2397   3.771   7.055   9.586  0.0727  0.5800 -0.2215
   19MOL0     C 2398   3.692   6.984   9.702  0.4244  0.4063  0.5881
   19MOL0     C 2399   3.668   7.077   9.818 -0.4142  0.6049 -0.1863
   19MOL0     O 2400   3.578   7.180   9.788  0.9593 -0.5213  0.0248
   19MOL0     C 2401   3.440   7.163   9.785 -1.0813  0.1487 -0.5689
   19MOL0     C 2402   3.366   7.068   9.854 -0.9585 -0.4987  0.2972
   19MOL0     C 2403   3.232   7.042   9.835  0.6618  0.4462  0.6996
   19MOL0     C 2404   3.151   7.130   9.751  0.0910  0.1133  0.2963
   19MOL0     C 2405   3.005   7.110   9.731 -0.0092 -0.3406  0.4690
   19MOL0     O 2406   2.923   7.197   9.656 -0.2643 -0.1469  0.6783
   19MOL0     C 2407   2.796   7.176   9.633 -0.0378  0.4483  0.1951
   19MOL0     C 2408   2.744   7.236   9.508 -0.9982  0.2419 -0.5066
   19MOL0     C 2409   2.610   7.227   9.469 -0.2145 -1.1117  0.7316
   19MOL0     C 2410   2.518   7.171   9.556  0.2487  0.6625  0.7177
   19MOL0     O 2411   2.383   7.164   9.548  0.5554  0.4489 -0.3181
   19MOL0     C 2412   2.306   7.208   9.429  0.0782  0.0225  0.2337
   19MOL0     C 2413   2.162   7.167   9.452 -0.3956  0.2444 -0.8770
   19MOL0     C 2414   2.070   7.247   9.370  0.5087  0.3323  0.0353
   19MOL0     C 2415   1.923   7.257   9.425 -0.2537  0.0162  0.1726
   19MOL0     C 2416   1.897   7.394   9.491 -0.1410  0.5086 -0.7853
   19MOL0     C 2417   1.759   7.409   9.555 -0.1647  1.5258  0.0019
   19MOL0     C 2418   1.744   7.343   9.703 -0.3838  0.0702  0.1918
   19MOL0     C 2419   1.629   7.430   9.760 -0.7575  1.4948  0.3732
   19MOL0    Cl 2420   1.589   7.368   9.927  0.3687 -0.1016 -0.2632
   19MOL0     C 2421   2.564   7.113   9.675 -0.0824 -0.3281  0.1877
   19MOL0     C 2422   2.702   7.113   9.709  0.2199  0.9077  0.7687
   19MOL0     O 2423   2.962   7.015   9.797 -0.1450  0.6264 -0.4032
   19MOL0     C 2424   3.228   7.235   9.688  0.4867  0.0257  0.2551
   19MOL0     C 2425   3.367   7.240   9.694 -0.0455 -0.0628 -0.7618
   19MOL0     N 2426   3.884   6.973   9.218 -0.4239  0.3197  0.1463
   19MOL0     N 2427   3.963   7.038   9.143  0.2164  0.4047 -0.2017
   19MOL0     C 2428   5.173   7.314   9.028  0.1504  0.2002 -0.8659
   19MOL0     C 2429   5.316   7.348   9.026 -1.0411  0.0318  0.5478
   19MOL0     C 2430   5.692   7.527   8.868  0.0122 -0.7433 -0.9075
   19MOL0     C 2431   5.773   7.510   8.747 -0.2985  0.1678  0.3295
   19MOL0     C 2432   5.906   7.543   8.757 -0.5077  0.0092 -0.0898
   19MOL0     C 2433   5.967   7.604   8.871  0.5195 -0.4062  0.2850
   19MOL0     O 2434   6.106   7.609   8.865  0.3186 -0.1351  0.5855
   19MOL0     C 2435   6.187   7.631   8.983  0.3424 -0.0153 -0.4580
   19MOL0     C 2436   6.334   7.619   8.951 -0.0469  0.4343 -0.1855
   19MOL0     C 2437   6.392   7.722   8.850  1.3332 -0.5067  0.0879
   19MOL0     C 2438   6.492   7.670   8.750  0.3973 -0.6323  0.3334
   19MOL0     C 2439   6.635   7.661   8.796  0.0467 -0.0158 -0.4158
   19MOL0     C 2440   6.749   7.659   8.839  0.1961  0.0382  0.8781
   19MOL0     C 2441   5.888   7.622   8.987 -0.1941  0.1906  0.0566
   19MOL0     C 2442   5.757   7.576   8.985 -0.1098  0.0698  1.0658
   19MOL0     H 2443   5.272   7.686   8.984 -0.5437 -0.7883  1.7914
   19MOL0     H 2444   5.052   7.631   8.981  2.0857  1.7229  2.9139
   19MOL0     H 2445   4.941   7.272   9.196  1.3574 -2.5422 -0.2368
   19MOL0     H 2446   4.928   7.170   9.055 -0.4840  0.0615 -1.3828
   19MOL0     H 2447   4.707   7.243   9.008 -0.3801  0.0047 -1.3290
   19MOL0     H 2448   4.709   7.377   9.111 -3.0041 -1.2169 -1.3979
   19MOL0     H 2449   4.688   7.243   9.312  0.2433 -1.5973  0.3092
   19MOL0     H 2450   4.750   7.098   9.231 -0.2215 -0.8459  1.2928
   19MOL0     H 2451   4.549   7.094   9.086  2.9108 -0.1167  0.2811
   19MOL0     H 2452   4.515   7.061   9.260  1.1579  1.1698  0.7366
   19MOL0     H 2453   4.453   7.327   9.122  1.7896  3.2015  3.5021
   19MOL0     H 2454   4.446   7.301   9.288 -1.3261  2.1809 -1.1555
   19MOL0     H 2455   4.281   7.111   9.253  2.5446 -0.7764  0.3518
   19MOL0     H 2456   4.277   7.140   9.079 -1.8263  0.6669  0.8261
   19MOL0     H 2457   4.191   7.324   9.296  4.5465  2.0871 -0.1197
   19MOL0     H 2458   4.233   7.388   9.137  2.6194 -2.3462 -1.8255
   19MOL0     H 2459   4.049   7.248   9.032 -0.6845  0.1386  1.0481
   19MOL0     H 2460   4.001   7.361   9.159 -0.2091 -0.1564  1.2004
   19MOL0     H 2461   3.934   7.250   9.393  1.3643  0.2659  0.0931
   19MOL0     H 2462   3.815   6.877   9.477  1.4853  0.5521  2.7502
   19MOL0     H 2463   3.674   6.975   9.416  0.3160  0.5299  1.1904
   19MOL0     H 2464   3.727   7.154   9.572  0.4713  0.5063 -2.2773
   19MOL0     H 2465   3.873   7.063   9.627 -0.8225 -1.6844  2.8695
   19MOL0     H 2466   3.595   6.947   9.668 -0.7205  1.2324  2.7342
   19MOL0     H 2467   3.748   6.904   9.750  0.9638 -0.7917 -1.8532
   19MOL0     H 2468   3.767   7.110   9.852  1.7301 -1.0634 -4.0355
   19MOL0     H 2469   3.634   7.006   9.894  1.6387 -1.0388 -0.6774
   19MOL0     H 2470   3.412   7.004   9.929  0.1717  1.3060  1.1964
   19MOL0     H 2471   3.186   6.966   9.898  0.7950 -0.0277  0.2341
   19MOL0     H 2472   2.813   7.298   9.454 -2.7511  2.1159 -0.7127
   19MOL0     H 2473   2.581   7.271   9.374  2.0225  1.2969  1.0826
   19MOL0     H 2474   2.350   7.170   9.336 -0.5157  2.9390 -1.3792
   19MOL0     H 2475   2.305   7.317   9.419 -2.7056  0.4105  3.2138
   19MOL0     H 2476   2.136   7.186   9.556  0.9969  2.7921 -0.9209
   19MOL0     H 2477   2.162   7.058   9.436  2.1116 -0.6209  3.4386
   19MOL0     H 2478   2.070   7.207   9.269 -0.5624  0.9894 -0.2443
   19MOL0     H 2479   2.107   7.350   9.359 -0.9038  0.7328 -1.4712
   19MOL0     H 2480   1.854   7.234   9.342 -1.0306  0.1193  0.7778
   19MOL0     H 2481   1.905   7.173   9.493  2.8820  0.3080  1.4920
   19MOL0     H 2482   1.896   7.472   9.415 -1.9068 -0.7113 -2.1120
   19MOL0     H 2483   1.982   7.410   9.558  0.0392  2.4576 -1.4344
   19MOL0     H 2484   1.686   7.370   9.483 -0.7990  3.1213 -0.2743
   19MOL0     H 2485   1.758   7.518   9.556  0.1649  1.5679 -1.6013
   19MOL0     H 2486   1.733   7.235   9.700 -2.2032  0.1832  1.4505
   19MOL0     H 2487   1.836   7.374   9.754  1.4555 -3.0532 -0.9325
   19MOL0     H 2488   1.541   7.428   9.695 -0.1002 -2.4050 -0.6368
   19MOL0     H 2489   1.646   7.538   9.757  0.6307  1.3038  0.5183
   19MOL0     H 2490   2.492   7.071   9.745  2.6161 -1.7092  2.3657
   19MOL0     H 2491   2.721   7.042   9.789 -2.8911  0.2659  1.0575
   19MOL0     H 2492   3.178   7.291   9.610  1.8784 -0.3449 -0.9449
   19MOL0     H 2493   3.420   7.321   9.645 -0.7080  0.0213 -1.3570
   19MOL0     H 2494   5.141   7.211   9.038  0.6569  0.2103  1.4312
   19MOL0     H 2495   5.398   7.277   9.029 -1.4599 -0.4375  0.9905
   19MOL0     H 2496   5.733   7.465   8.656 -1.6050 -1.8619  1.8262
   19MOL0     H 2497   5.969   7.530   8.670  0.5285 -0.3425  0.6892
   19MOL0     H 2498   6.160   7.571   9.071 -0.1880 -0.8529 -1.1714
   19MOL0     H 2499   6.159   7.732   9.014 -0.6835  0.0825 -1.5894
   19MOL0     H 2500   6.384   7.629   9.048  1.9249  0.6282 -1.1811
   19MOL0     H 2501   6.347   7.514   8.921  1.7833 -0.5780  3.5987
   19MOL0     H 2502   6.428   7.802   8.916 -2.6936  0.2102  1.7095
   19MOL0     H 2503   6.311   7.773   8.797  2.2991  1.0881  0.0675
   19MOL0     H 2504   6.454   7.576   8.711  0.5007 -0.4731 -0.1569
   19MOL0     H 2505   6.493   7.746   8.672 -2.5829  0.0066  0.8124
   19MOL0     H 2506   6.853   7.647   8.862  0.2438  0.1807  0.7388
   19MOL0     H 2507   5.941   7.654   9.076  0.6840 -1.6040  0.2167
   19MOL0     H 2508   5.724   7.590   9.088 -0.4355  0.4418  0.9120
   20MOL0     O 2509   8.540   6.066  10.977  0.0247 -0.2563  0.4761
   20MOL0     C 2510   8.492   6.170  10.936 -0.0929  0.8581 -0.0725
   20MOL0     O 2511   8.357   6.199  10.912  0.8148  0.3483  0.3921
   20MOL0     C 2512   8.261   6.099  10.949 -0.4631  0.3210 -0.6396
   20MOL0     C 2513   8.166   6.070  10.862 -0.1429 -0.1414  0.3782
   20MOL0     C 2514   8.076   5.982  10.897 -0.1055  0.1216 -0.1316
   20MOL0     C 2515   8.061   5.925  11.026  0.7944 -0.7703  0.4657
   20MOL0     O 2516   7.951   5.847  11.067  0.8220 -0.7187  0.7857
   20MOL0     C 2517   7.853   5.797  10.977 -0.0878 -0.6867  0.7165
   20MOL0     C 2518   7.729   5.734  11.048 -0.4336  0.6647  0.4421
   20MOL0     C 2519   7.768   5.594  11.108  0.8930  0.2607 -0.8063
   20MOL0     C 2520   7.640   5.537  11.172 -0.3010 -0.6289 -0.1691
   20MOL0     C 2521   7.659   5.384  11.207  0.3665 -0.3545  0.5137
   20MOL0     C 2522   7.537   5.317  11.284 -1.2955  0.2174  0.1829
   20MOL0     C 2523   7.412   5.309  11.201 -0.3542  0.5284 -0.4811
   20MOL0     C 2524   7.300   5.232  11.278 -0.1583 -0.8189 -0.2852
   20MOL0     N 2525   7.168   5.268  11.231  0.7055  0.2303 -0.0872
   20MOL0     C 2526   7.093   5.379  11.269  0.2117 -0.7646  1.3606
   20MOL0     C 2527   6.971   5.369  11.209  0.1313  0.4314  0.1521
   20MOL0     C 2528   6.850   5.459  11.199  0.2335  0.4847 -0.3491
   20MOL0     C 2529   6.853   5.563  11.082  0.0548  0.3919 -0.9489
   20MOL0     C 2530   6.827   5.488  10.951  0.0518  0.3282  0.1972
   20MOL0     C 2531   6.889   5.556  10.830 -0.1549 -0.1446 -0.3397
   20MOL0     O 2532   6.853   5.501  10.703  0.0435 -0.1271  0.3092
   20MOL0     C 2533   6.734   5.542  10.644  0.6469 -1.1434  0.0627
   20MOL0     C 2534   6.622   5.592  10.710  0.0978 -0.1641  0.2275
   20MOL0     C 2535   6.522   5.647  10.632 -0.2242 -0.9034 -0.0248
   20MOL0     C 2536   6.517   5.642  10.493 -1.0859  0.5408 -1.0515
   20MOL0     C 2537   6.409   5.707  10.418 -0.2867  0.2939  0.5766
   20MOL0     O 2538   6.338   5.788  10.493  0.5365 -0.9100 -0.1976
   20MOL0     C 2539   6.219   5.838  10.435 -0.1188 -0.2342  0.4392
   20MOL0     C 2540   6.130   5.773  10.345  0.2265  0.0175  0.3399
   20MOL0     C 2541   6.017   5.835  10.288 -0.2264  0.4896 -0.7225
   20MOL0     C 2542   5.981   5.968  10.320 -0.5936 -0.3540 -0.3386
   20MOL0     O 2543   5.869   6.029  10.278  0.4862 -0.4226 -0.2122
   20MOL0     C 2544   5.747   5.966  10.291  0.4064 -0.2084  0.5196
   20MOL0     C 2545   5.645   6.053  10.232  0.4386 -0.1443  0.1745
   20MOL0     C 2546   5.505   5.989  10.241  0.3661  0.1847 -0.4016
   20MOL0     C 2547   5.431   5.985  10.113  0.6109 -0.0600  0.3433
   20MOL0     C 2548   5.315   5.885  10.134  0.0512 -0.1930  0.3196
   20MOL0     C 2549   5.239   5.849  10.000  0.2016 -0.0040 -0.5813
   20MOL0     C 2550   5.105   5.782  10.032  0.1320  0.0158  0.2200
   20MOL0     C 2551   5.054   5.697   9.913 -0.3794 -0.2828 -0.8887
   20MOL0    Cl 2552   5.050   5.803   9.767 -0.1067 -0.1614 -0.4727
   20MOL0     C 2553   6.066   6.038  10.413  0.2458  0.4450  0.1946
   20MOL0     C 2554   6.180   5.975  10.464  0.7892 -0.2136 -0.6085
   20MOL0     O 2555   6.395   5.682  10.294  0.5621 -0.8537 -0.0985
   20MOL0     C 2556   6.623   5.570  10.429  0.4020 -0.8084  0.6315
   20MOL0     C 2557   6.732   5.525  10.502  0.0348 -0.2270 -0.2385
   20MOL0     N 2558   6.967   5.243  11.150  0.1815  0.1795 -1.1541
   20MOL0     N 2559   7.088   5.196  11.154 -0.2852 -0.1238 -1.3836
   20MOL0     C 2560   8.157   5.951  11.115 -0.0024  0.4323  0.9027
   20MOL0     C 2561   8.252   6.039  11.076  0.4327  0.2002 -0.4523
   20MOL0     C 2562   8.598   6.271  10.899  0.0827  0.1630  0.3429
   20MOL0     C 2563   8.735   6.243  10.889 -0.4506  0.3915  0.2615
   20MOL0     C 2564   8.835   6.326  10.841  0.2979  0.2446 -0.0769
   20MOL0     C 2565   8.797   6.452  10.791 -0.4753 -0.4811 -0.2203
   20MOL0     O 2566   8.886   6.540  10.745 -0.4115  0.1005 -0.3029
   20MOL0     C 2567   8.909   6.546  10.600 -0.3303  0.1431 -0.1643
   20MOL0     C 2568   8.937   6.693  10.555  0.2513 -0.3643  0.3466
   20MOL0     C 2569   9.000   6.691  10.418 -0.0282  0.6426  0.0441
   20MOL0     C 2570   9.160   6.686  10.429  0.4757 -0.3201  0.4703
   20MOL0     C 2571   9.217   6.569  10.366  0.6396 -0.3728  0.7946
   20MOL0     C 2572   9.282   6.486  10.296 -0.3216  0.4395 -0.4411
   20MOL0     C 2573   8.664   6.494  10.818 -0.1042  0.6237  0.6547
   20MOL0     C 2574   8.572   6.400  10.871  0.6403 -0.3138 -0.5441
   20MOL0     H 2575   8.164   6.112  10.762  1.4306  1.0877  0.8117
   20MOL0     H 2576   8.001   5.959  10.822 -2.0118  4.6233  0.0848
   20MOL0     H 2577   7.896   5.722  10.910 -0.2085 -0.3380  0.2419
   20MOL0     H 2578   7.819   5.886  10.923  3.5367  0.9504  0.8444
   20MOL0     H 2579   7.657   5.727  10.967  2.6099  1.3996 -2.5811
   20MOL0     H 2580   7.692   5.805  11.122 -0.7957  1.8114 -0.7996
   20MOL0     H 2581   7.841   5.614  11.188  0.3309  0.4140 -0.3275
   20MOL0     H 2582   7.811   5.530  11.030 -0.4930 -1.2284 -0.3894
   20MOL0     H 2583   7.617   5.596  11.261 -0.3131 -0.0143 -0.5796
   20MOL0     H 2584   7.552   5.554  11.109 -0.7160  2.2093  1.0576
   20MOL0     H 2585   7.752   5.371  11.264  2.5256 -0.8683 -2.8135
   20MOL0     H 2586   7.684   5.323  11.119 -0.6942 -1.9844  1.2955
   20MOL0     H 2587   7.516   5.368  11.378 -1.5534  1.7534 -0.6796
   20MOL0     H 2588   7.565   5.215  11.312 -2.2993 -0.7487 -2.1121
   20MOL0     H 2589   7.376   5.408  11.169 -0.5776  0.3404 -0.8264
   20MOL0     H 2590   7.441   5.254  11.111 -0.9216  1.4519 -1.2454
   20MOL0     H 2591   7.305   5.264  11.382 -1.8149 -0.9414 -0.1498
   20MOL0     H 2592   7.318   5.124  11.268  1.6000 -0.3475 -3.3751
   20MOL0     H 2593   7.127   5.471  11.315 -0.1864  0.7531 -1.1447
   20MOL0     H 2594   6.841   5.508  11.296 -1.1603  2.2649 -1.3146
   20MOL0     H 2595   6.760   5.398  11.188  1.3458 -1.2671 -0.0521
   20MOL0     H 2596   6.951   5.612  11.080  0.9889 -1.4119 -1.0499
   20MOL0     H 2597   6.776   5.640  11.095 -0.7429 -0.6681  1.0021
   20MOL0     H 2598   6.879   5.391  10.951  0.1848  0.3566 -1.5336
   20MOL0     H 2599   6.724   5.455  10.933  0.8034 -1.2976 -1.5407
   20MOL0     H 2600   6.998   5.553  10.824 -0.1626 -1.8359 -0.0410
   20MOL0     H 2601   6.859   5.661  10.828  1.7051  0.4357  0.1183
   20MOL0     H 2602   6.619   5.595  10.819  3.0371 -1.2934  0.4234
   20MOL0     H 2603   6.435   5.680  10.686 -0.6096 -0.6677 -0.7833
   20MOL0     H 2604   6.159   5.672  10.319 -0.9313 -0.2142 -0.0952
   20MOL0     H 2605   5.957   5.780  10.216 -1.5783  3.0700 -1.6993
   20MOL0     H 2606   5.728   5.939  10.396  0.5739 -1.3503  0.2686
   20MOL0     H 2607   5.756   5.868  10.244 -0.2118  0.8572 -1.9748
   20MOL0     H 2608   5.687   6.050  10.131  1.0473  0.6420  0.3987
   20MOL0     H 2609   5.648   6.157  10.265  0.6456 -0.3568  0.8465
   20MOL0     H 2610   5.447   6.054  10.307 -0.3274 -0.1163 -0.7060
   20MOL0     H 2611   5.509   5.889  10.287  0.7316 -0.5353 -1.9285
   20MOL0     H 2612   5.390   6.081  10.079 -2.8568 -0.9385  1.6522
   20MOL0     H 2613   5.503   5.950  10.039 -1.2650 -1.7125 -0.8244
   20MOL0     H 2614   5.244   5.937  10.200 -1.9074  0.9240 -2.4302
   20MOL0     H 2615   5.352   5.799  10.190 -0.4814  0.1272  1.1840
   20MOL0     H 2616   5.295   5.776   9.941  1.3801 -0.0137  0.5025
   20MOL0     H 2617   5.214   5.940   9.945  0.9077  0.7120  0.2482
   20MOL0     H 2618   5.122   5.711  10.114  0.4710 -0.4486 -0.2421
   20MOL0     H 2619   5.026   5.855  10.053 -0.2118  0.2657 -1.7378
   20MOL0     H 2620   4.956   5.657   9.943  0.9530 -0.5263  4.1099
   20MOL0     H 2621   5.113   5.605   9.910 -0.4389 -0.5883  2.5012
   20MOL0     H 2622   6.037   6.137  10.448 -0.4999 -0.3891  2.0867
   20MOL0     H 2623   6.240   6.032  10.534  0.7245  0.0326 -0.7542
   20MOL0     H 2624   6.618   5.553  10.322 -0.3007  0.0973  0.5132
   20MOL0     H 2625   6.821   5.483  10.456  0.3198 -2.0086  1.7669
   20MOL0     H 2626   8.147   5.914  11.216  2.8874 -0.2235  1.0242
   20MOL0     H 2627   8.333   6.060  11.145  0.7228  0.7161 -0.9411
   20MOL0     H 2628   8.776   6.146  10.915  3.0241  1.4448 -0.7624
   20MOL0     H 2629   8.936   6.288  10.845  0.3947  0.5527  0.6922
   20MOL0     H 2630   8.826   6.501  10.545 -0.1132  0.7765 -1.0245
   20MOL0     H 2631   8.990   6.475  10.582 -3.5688 -2.8027 -5.7325
   20MOL0     H 2632   8.848   6.757  10.555  1.1395  0.9530  1.2241
   20MOL0     H 2633   9.008   6.744  10.622  2.6513 -2.9281 -0.0946
   20MOL0     H 2634   8.977   6.781  10.360  0.5244  0.4727 -0.4610
   20MOL0     H 2635   8.962   6.605  10.362 -2.9863  1.8158  0.0821
   20MOL0     H 2636   9.214   6.764  10.373 -1.3751  1.2818  0.8176
   20MOL0     H 2637   9.184   6.676  10.536  2.7931  0.1669  0.0625
   20MOL0     H 2638   9.334   6.410  10.241 -1.5945 -0.0465 -1.0401
   20MOL0     H 2639   8.638   6.600  10.810  0.8885  0.7563 -1.1584
   20MOL0     H 2640   8.469   6.432  10.887  0.3174 -2.6698  3.2412
   21MOL0     O 2641  10.826   6.667   7.066 -0.3590  0.9997 -0.0011
   21MOL0     C 2642  10.759   6.625   7.160 -0.0508  0.3830  0.8927
   21MOL0     O 2643  10.807   6.566   7.267 -0.2122 -0.0568  0.1848
   21MOL0     C 2644  10.937   6.544   7.262 -0.2564 -0.0507 -0.1750
   21MOL0     C 2645  10.995   6.438   7.187 -0.0810 -0.8790 -0.3776
   21MOL0     C 2646  11.135   6.415   7.185 -0.8342  0.9321  0.2346
   21MOL0     C 2647  11.218   6.499   7.255  0.4435  0.0822 -0.4696
   21MOL0     O 2648  11.352   6.502   7.258 -0.1511  0.0605 -0.0733
   21MOL0     C 2649  11.425   6.398   7.199  0.5899 -0.0141  0.8241
   21MOL0     C 2650  11.560   6.412   7.257 -0.3649  0.5521  0.8230
   21MOL0     C 2651  11.654   6.287   7.227  0.2582  0.2667  0.0019
   21MOL0     C 2652  11.800   6.331   7.238  0.7506 -0.2211 -0.3673
   21MOL0     C 2653  11.898   6.243   7.163  0.1133 -0.1814 -0.6344
   21MOL0     C 2654  11.871   6.092   7.174 -0.5385 -0.4244  0.1386
   21MOL0     C 2655  11.975   6.002   7.110  0.2813 -0.4378  0.5085
   21MOL0     C 2656  12.032   6.043   6.977  0.3717 -0.5854 -0.0230
   21MOL0     N 2657  11.932   5.996   6.880 -1.1987 -0.4365  0.1178
   21MOL0     C 2658  11.835   6.075   6.831 -0.2754 -0.1473 -0.7517
   21MOL0     C 2659  11.771   5.989   6.745  0.4327  0.6211 -0.3258
   21MOL0     C 2660  11.648   6.022   6.657 -0.5886  0.7207 -0.2267
   21MOL0     C 2661  11.515   5.979   6.717 -0.4858 -0.4031  1.3080
   21MOL0     C 2662  11.508   5.831   6.726  0.9964 -0.0504  0.0078
   21MOL0     C 2663  11.372   5.788   6.782 -0.1724 -0.2752  0.2062
   21MOL0     O 2664  11.344   5.864   6.897  0.1459  0.5887  0.3452
   21MOL0     C 2665  11.216   5.884   6.934  0.1667  1.3075 -0.1175
   21MOL0     C 2666  11.183   5.998   7.002  0.0034  0.8121  0.0772
   21MOL0     C 2667  11.063   6.006   7.061  0.0800  0.1081 -0.3936
   21MOL0     C 2668  10.966   5.902   7.044  0.2312 -0.6124  1.0300
   21MOL0     C 2669  10.820   5.927   7.072 -1.0502  0.1948 -0.2863
   21MOL0     O 2670  10.731   5.821   7.039 -0.6801 -0.3488  0.0995
   21MOL0     C 2671  10.602   5.831   7.086 -0.3833 -0.3910  0.6848
   21MOL0     C 2672  10.515   5.793   6.989  0.8250 -0.1693  0.1090
   21MOL0     C 2673  10.375   5.825   7.012 -0.8509  0.3104  0.6443
   21MOL0     C 2674  10.327   5.876   7.133  0.1811 -0.5217 -0.2519
   21MOL0     O 2675  10.195   5.886   7.146  0.2666 -0.6868  0.1070
   21MOL0     C 2676  10.140   5.900   7.278 -1.0540  0.9230 -1.3011
   21MOL0     C 2677  10.000   5.877   7.259  0.6409  0.4409  0.3776
   21MOL0     C 2678   9.979   5.727   7.238 -0.0960  0.2480 -0.2287
   21MOL0     C 2679   9.843   5.694   7.172  0.3026  0.4747 -0.4022
   21MOL0     C 2680   9.833   5.543   7.135 -0.1379 -1.2435  0.0368
   21MOL0     C 2681   9.926   5.500   7.024 -0.2266 -0.3494  0.4904
   21MOL0     C 2682   9.913   5.343   7.009  0.6653 -0.2054 -0.6559
   21MOL0     C 2683  10.006   5.285   6.904  0.4711  0.1507  0.7978
   21MOL0    Cl 2684   9.991   5.332   6.739  0.1885  0.4336  0.1529
   21MOL0     C 2685  10.419   5.899   7.239  0.7584  0.1368  0.2730
   21MOL0     C 2686  10.554   5.881   7.209 -0.8305 -0.0453  0.3368
   21MOL0     O 2687  10.796   6.041   7.133  1.0836  0.6313 -0.0868
   21MOL0     C 2688  10.997   5.784   6.978 -0.2350  0.2625  1.2210
   21MOL0     C 2689  11.123   5.777   6.922 -0.9736  0.2526 -0.7419
   21MOL0     N 2690  11.840   5.869   6.731 -0.1772 -0.5540  0.0632
   21MOL0     N 2691  11.937   5.874   6.814 -0.1848 -0.3351 -0.4131
   21MOL0     C 2692  11.158   6.596   7.332 -0.1933 -0.3354  0.2863
   21MOL0     C 2693  11.020   6.623   7.335 -0.8128  0.1228 -0.6801
   21MOL0     C 2694  10.609   6.631   7.154 -0.1915 -0.6270  0.0624
   21MOL0     C 2695  10.536   6.584   7.261  0.4038 -0.1174 -0.8304
   21MOL0     C 2696  10.398   6.595   7.260 -1.0050 -0.4587  0.6745
   21MOL0     C 2697  10.319   6.661   7.160 -1.3396 -0.1872  1.0437
   21MOL0     O 2698  10.183   6.659   7.149 -1.1111  0.6780  0.2016
   21MOL0     C 2699  10.103   6.752   7.230 -0.4624  0.1019  0.4474
   21MOL0     C 2700   9.994   6.822   7.149 -0.3020  0.6534 -0.1405
   21MOL0     C 2701  10.037   6.858   7.008 -0.3476 -0.1323 -1.4286
   21MOL0     C 2702   9.935   6.938   6.927 -0.5271 -0.9399 -1.0965
   21MOL0     C 2703   9.807   6.872   6.897  0.2970 -0.8303  0.1071
   21MOL0     C 2704   9.700   6.826   6.862  0.7184  0.5070 -0.2352
   21MOL0     C 2705  10.396   6.719   7.063 -1.0965  0.4255 -0.1540
   21MOL0     C 2706  10.541   6.715   7.062  0.6889 -0.9993 -0.2829
   21MOL0     H 2707  10.921   6.388   7.126 -0.8706  1.4604 -1.4655
   21MOL0     H 2708  11.174   6.332   7.126 -0.9928 -0.2447  1.7271
   21MOL0     H 2709  11.422   6.403   7.089 -0.7416 -1.7593  0.7349
   21MOL0     H 2710  11.384   6.299   7.222 -0.6727  1.2019  4.5562
   21MOL0     H 2711  11.559   6.435   7.364  0.4482 -1.2495  1.2554
   21MOL0     H 2712  11.606   6.499   7.209 -0.4555  1.4398  2.2787
   21MOL0     H 2713  11.626   6.246   7.130 -0.6396  1.4445 -0.2550
   21MOL0     H 2714  11.642   6.213   7.307 -0.0606  1.6057  1.2414
   21MOL0     H 2715  11.820   6.432   7.201  1.1550 -0.9281 -2.2391
   21MOL0     H 2716  11.821   6.338   7.345  1.6136  0.7886 -0.5801
   21MOL0     H 2717  12.002   6.261   7.193 -0.0987 -1.6079  1.1419
   21MOL0     H 2718  11.891   6.272   7.058 -1.0470  1.2169 -0.2018
   21MOL0     H 2719  11.773   6.073   7.129 -1.6062  1.8917  1.3204
   21MOL0     H 2720  11.856   6.058   7.277  1.7412  1.7281  1.2872
   21MOL0     H 2721  12.061   5.999   7.178  1.1738  1.3539 -0.4746
   21MOL0     H 2722  11.933   5.902   7.104  1.0163 -0.7384  0.2268
   21MOL0     H 2723  12.120   5.981   6.959 -0.3484 -2.1576  1.5385
   21MOL0     H 2724  12.047   6.151   6.967  0.8397 -0.5722  0.7317
   21MOL0     H 2725  11.789   6.169   6.861 -0.5185 -0.3386 -0.5182
   21MOL0     H 2726  11.659   5.993   6.552 -2.7903 -1.0137 -0.0457
   21MOL0     H 2727  11.659   6.130   6.669 -1.8615  0.5934  3.3653
   21MOL0     H 2728  11.432   6.005   6.651 -1.7491 -2.9160  1.7756
   21MOL0     H 2729  11.488   6.023   6.813 -0.3214 -2.8067  2.5419
   21MOL0     H 2730  11.513   5.803   6.621  2.6123 -0.2443  0.1197
   21MOL0     H 2731  11.588   5.798   6.792  0.6937  0.3711  0.5981
   21MOL0     H 2732  11.369   5.679   6.795 -5.2235 -0.3632  0.3012
   21MOL0     H 2733  11.299   5.815   6.705  0.4646  4.1508  0.8990
   21MOL0     H 2734  11.264   6.068   7.022 -0.8879  1.5144  1.3911
   21MOL0     H 2735  11.042   6.090   7.127 -1.6574 -0.1188 -0.6091
   21MOL0     H 2736  10.550   5.759   6.893 -0.8357 -1.5455 -0.0669
   21MOL0     H 2737  10.307   5.801   6.931  0.8112  0.2132 -0.7856
   21MOL0     H 2738  10.165   6.000   7.315  2.0388  0.7980 -2.7124
   21MOL0     H 2739  10.186   5.822   7.339  1.4377  1.8872 -1.8402
   21MOL0     H 2740   9.963   5.927   7.169  2.2831  0.3423 -0.4002
   21MOL0     H 2741   9.940   5.924   7.337  2.3547  0.1128  1.9775
   21MOL0     H 2742   9.985   5.684   7.338 -1.0027  2.4336  0.8233
   21MOL0     H 2743  10.052   5.681   7.171 -1.5758 -2.4530 -0.1398
   21MOL0     H 2744   9.765   5.721   7.243  0.2996 -0.2062 -0.1399
   21MOL0     H 2745   9.836   5.755   7.081 -0.7990 -0.7504 -1.1665
   21MOL0     H 2746   9.731   5.519   7.102 -0.0969  0.6521 -1.7031
   21MOL0     H 2747   9.855   5.491   7.228  0.8144 -3.6795 -1.4671
   21MOL0     H 2748  10.027   5.525   7.058 -0.7076 -1.1069  2.6042
   21MOL0     H 2749   9.898   5.544   6.927 -0.8883 -2.9723 -0.5853
   21MOL0     H 2750   9.928   5.290   7.103  1.6724  0.1678 -0.5962
   21MOL0     H 2751   9.809   5.322   6.983  0.6252 -0.9828  0.1083
   21MOL0     H 2752  10.002   5.176   6.901  1.7833  0.0996 -1.5654
   21MOL0     H 2753  10.108   5.316   6.932 -0.0296  2.5431  0.2576
   21MOL0     H 2754  10.388   5.925   7.340  0.7070 -1.6689  0.7594
   21MOL0     H 2755  10.627   5.907   7.285  0.9939 -0.9655 -1.0280
   21MOL0     H 2756  10.929   5.701   6.964 -1.3568  1.2608  0.6149
   21MOL0     H 2757  11.158   5.685   6.875  1.4634  2.2405 -3.2115
   21MOL0     H 2758  11.231   6.650   7.392  1.7400 -0.4905 -1.8001
   21MOL0     H 2759  10.969   6.700   7.392  0.0940  0.8445 -0.8197
   21MOL0     H 2760  10.585   6.530   7.342  0.8761  1.9094  0.3050
   21MOL0     H 2761  10.341   6.544   7.337 -1.0633 -0.8560  0.3665
   21MOL0     H 2762  10.157   6.830   7.285  2.8819  0.0582 -2.4247
   21MOL0     H 2763  10.049   6.698   7.309 -0.6116  1.4797  1.3225
   21MOL0     H 2764   9.906   6.757   7.144 -1.0020  1.6143 -1.0837
   21MOL0     H 2765   9.966   6.912   7.205 -1.6459  0.5671 -0.6340
   21MOL0     H 2766  10.050   6.762   6.957 -1.4696 -0.9692 -0.2037
   21MOL0     H 2767  10.131   6.914   7.018 -0.8757  0.7260 -1.1621
   21MOL0     H 2768   9.916   7.035   6.974 -0.1723 -1.5446  0.3311
   21MOL0     H 2769   9.978   6.956   6.828 -1.6742 -0.3181 -1.5106
   21MOL0     H 2770   9.615   6.778   6.817  0.9289  2.2388 -2.6213
   21MOL0     H 2771  10.340   6.769   6.985 -0.9674 -2.8102 -2.5188
   21MOL0     H 2772  10.605   6.758   6.985 -0.2655 -0.7623 -0.9652
   22MOL0     O 2773   5.491  10.958   3.888  0.3950 -0.3358 -0.3653
   22MOL0     C 2774   5.523  10.864   3.817 -0.8713  0.7118 -0.3026
   22MOL0     O 2775   5.459  10.736   3.799 -0.8227  0.3041  0.4363
   22MOL0     C 2776   5.337  10.711   3.865  0.6412 -0.8538  1.0139
   22MOL0     C 2777   5.238  10.811   3.899 -0.0628 -0.0516  0.7917
   22MOL0     C 2778   5.129  10.769   3.980  0.1258 -0.0688 -0.1885
   22MOL0     C 2779   5.104  10.630   4.008  0.0526 -0.3210  0.6441
   22MOL0     O 2780   4.987  10.580   4.065 -0.1952  0.7750  0.1930
   22MOL0     C 2781   4.899  10.666   4.139  0.0223  0.9024 -0.1932
   22MOL0     C 2782   4.763  10.607   4.117  0.9529  0.0592 -0.3910
   22MOL0     C 2783   4.652  10.681   4.191 -0.2007  0.5281  0.1900
   22MOL0     C 2784   4.516  10.607   4.166 -0.2263 -0.0489  0.2339
   22MOL0     C 2785   4.397  10.657   4.256 -0.0493 -0.4734 -0.1400
   22MOL0     C 2786   4.345  10.797   4.209 -0.1236  0.0449  0.1303
   22MOL0     C 2787   4.313  10.892   4.330  0.5337 -0.2786  0.1352
   22MOL0     C 2788   4.210  10.834   4.430 -0.2348  0.2838  0.2742
   22MOL0     N 2789   4.079  10.863   4.372 -0.0176 -0.2704 -0.0841
   22MOL0     C 2790   4.027  10.781   4.275 -0.9722 -0.2273  0.8234
   22MOL0     C 2791   3.914  10.833   4.251  0.6497 -0.0690 -0.8613
   22MOL0     C 2792   3.818  10.794   4.141  0.0041 -0.1214 -0.1373
   22MOL0     C 2793   3.687  10.731   4.190 -0.7889 -0.3133  0.1555
   22MOL0     C 2794   3.628  10.819   4.304  0.2987 -0.0758  0.1203
   22MOL0     C 2795   3.491  10.762   4.347  0.3842  0.3753 -0.4367
   22MOL0     O 2796   3.397  10.800   4.240  0.3885 -0.0445  0.2348
   22MOL0     C 2797   3.265  10.754   4.242 -0.2342 -0.7945 -0.1069
   22MOL0     C 2798   3.212  10.675   4.342 -0.6668  0.7908  0.9016
   22MOL0     C 2799   3.077  10.625   4.330  0.8739 -0.3957 -0.2915
   22MOL0     C 2800   2.989  10.664   4.223  0.0663  0.1036  0.7035
   22MOL0     C 2801   2.843  10.624   4.230 -0.2709 -0.6884  0.3856
   22MOL0     O 2802   2.764  10.682   4.135  0.3627  0.4503  0.0117
   22MOL0     C 2803   2.628  10.665   4.156  0.5597 -0.0043 -0.1909
   22MOL0     C 2804   2.559  10.617   4.045 -1.1204 -0.2653  0.6164
   22MOL0     C 2805   2.423  10.585   4.054  0.4612 -0.3923  0.2089
   22MOL0     C 2806   2.350  10.614   4.173  0.1222  0.7189  0.3153
   22MOL0     O 2807   2.216  10.602   4.198  0.3606 -1.0171 -0.1482
   22MOL0     C 2808   2.138  10.506   4.122 -0.0880 -1.3672  0.5724
   22MOL0     C 2809   1.991  10.515   4.178 -0.1188  0.4001 -0.5934
   22MOL0     C 2810   1.892  10.473   4.069 -0.1630 -0.0218 -0.5112
   22MOL0     C 2811   1.761  10.412   4.141 -0.2654 -0.5338 -0.3406
   22MOL0     C 2812   1.663  10.366   4.033  0.2041 -1.1893  0.8230
   22MOL0     C 2813   1.522  10.345   4.086  0.1006  0.4118 -0.0611
   22MOL0     C 2814   1.428  10.338   3.963  0.2574 -0.3291  0.2745
   22MOL0     C 2815   1.284  10.295   3.990  0.3029 -0.0235  0.6544
   22MOL0    Cl 2816   1.256  10.135   4.077 -0.4183  0.2120  0.0397
   22MOL0     C 2817   2.423  10.653   4.288  0.3859  0.2890  0.3872
   22MOL0     C 2818   2.560  10.684   4.276  0.0084  0.3463 -0.3037
   22MOL0     O 2819   2.805  10.544   4.312  0.5180  0.3181  0.8614
   22MOL0     C 2820   3.042  10.756   4.126  0.1240 -0.5090  0.2349
   22MOL0     C 2821   3.173  10.805   4.147 -0.3727  0.4233  0.2025
   22MOL0     N 2822   3.895  10.951   4.326 -0.1473  0.0369  0.2584
   22MOL0     N 2823   3.993  10.972   4.401 -0.2732  0.1606 -1.0857
   22MOL0     C 2824   5.200  10.542   3.949 -0.3010 -0.7099 -0.2452
   22MOL0     C 2825   5.317  10.580   3.881  0.0100  0.4883 -0.2126
   22MOL0     C 2826   5.631  10.910   3.725 -0.2710 -0.5401 -0.5554
   22MOL0     C 2827   5.704  11.033   3.749 -0.0780 -0.6913  0.6962
   22MOL0     C 2828   5.797  11.081   3.660 -0.7361 -0.0816  0.1663
   22MOL0     C 2829   5.837  11.000   3.559 -0.8572 -0.5449  0.1848
   22MOL0     O 2830   5.938  11.035   3.468  0.0541  0.2946 -0.5491
   22MOL0     C 2831   6.060  11.097   3.521 -0.1204  0.0106 -0.2770
   22MOL0     C 2832   6.178  11.078   3.426 -0.3439 -0.2604 -0.4800
   22MOL0     C 2833   6.316  11.077   3.500 -0.2592  0.2035  0.7920
   22MOL0     C 2834   6.380  10.938   3.512 -0.6130  0.8637  0.4435
   22MOL0     C 2835   6.485  10.952   3.611 -0.0345 -0.3259  0.1243
   22MOL0     C 2836   6.563  10.954   3.707 -0.3995 -0.2209 -0.0123
   22MOL0     C 2837   5.779  10.881   3.541 -0.6457  0.6587  0.0662
   22MOL0     C 2838   5.678  10.834   3.621  0.4366  0.3884  0.7671
   22MOL0     H 2839   5.252  10.916   3.876  1.7146 -0.5698 -0.7350
   22MOL0     H 2840   5.060  10.844   4.018 -1.3851 -1.8309  0.7272
   22MOL0     H 2841   4.901  10.771   4.108  1.7515  1.3715  1.3288
   22MOL0     H 2842   4.922  10.665   4.246  0.9477 -0.0150 -0.3875
   22MOL0     H 2843   4.765  10.506   4.160 -0.4340  0.3242  0.3648
   22MOL0     H 2844   4.750  10.597   4.009  1.1782 -1.4562 -0.2964
   22MOL0     H 2845   4.643  10.785   4.158 -3.5171  0.6175  1.0484
   22MOL0     H 2846   4.676  10.690   4.297 -1.4998  2.3568  0.3707
   22MOL0     H 2847   4.483  10.638   4.066  2.6112  2.5201 -0.0315
   22MOL0     H 2848   4.516  10.497   4.173  0.0653  0.0155  1.3794
   22MOL0     H 2849   4.444  10.660   4.354  3.8434  0.1030 -1.8315
   22MOL0     H 2850   4.313  10.588   4.269  0.0972 -0.3891  1.3282
   22MOL0     H 2851   4.261  10.770   4.144 -1.0362 -1.5566  1.8961
   22MOL0     H 2852   4.417  10.837   4.136  2.1604  0.1119  2.2828
   22MOL0     H 2853   4.405  10.918   4.383  0.7745 -0.1646 -0.3288
   22MOL0     H 2854   4.280  10.988   4.291  1.7936  0.9067  1.8320
   22MOL0     H 2855   4.222  10.885   4.526 -1.3766 -0.1342  0.6567
   22MOL0     H 2856   4.213  10.727   4.451  0.6043 -0.1231 -1.6627
   22MOL0     H 2857   4.062  10.691   4.225 -1.6903  0.8406 -1.7880
   22MOL0     H 2858   3.882  10.745   4.067  1.8212  1.2478  0.4371
   22MOL0     H 2859   3.788  10.886   4.090  0.9477  0.1897 -0.1535
   22MOL0     H 2860   3.708  10.629   4.222 -2.5818 -1.3791 -1.7885
   22MOL0     H 2861   3.610  10.725   4.113  0.5165  2.1413 -1.5103
   22MOL0     H 2862   3.680  10.827   4.400 -1.8128  3.0831  1.1749
   22MOL0     H 2863   3.623  10.922   4.268  2.4659  0.5358  1.3784
   22MOL0     H 2864   3.470  10.808   4.443  1.1211 -1.7099  0.8017
   22MOL0     H 2865   3.497  10.653   4.359 -0.0707  0.0515 -2.6474
   22MOL0     H 2866   3.265  10.637   4.428 -4.4487  1.1356  3.6451
   22MOL0     H 2867   3.042  10.561   4.411  1.4796  3.2550  3.1196
   22MOL0     H 2868   2.619  10.602   3.956 -0.0659  2.8264  0.7083
   22MOL0     H 2869   2.370  10.555   3.964 -1.7861 -0.1081  1.3800
   22MOL0     H 2870   2.185  10.409   4.142  0.7838 -1.7916 -2.9537
   22MOL0     H 2871   2.141  10.528   4.015  0.9958  0.1987  0.8872
   22MOL0     H 2872   1.963  10.616   4.208  3.8641  0.5912  3.6402
   22MOL0     H 2873   1.985  10.449   4.265 -5.1599 -0.1798 -1.1028
   22MOL0     H 2874   1.946  10.400   4.008  4.1442  1.1636  1.5138
   22MOL0     H 2875   1.869  10.560   4.006 -2.2141 -0.5448 -0.5446
   22MOL0     H 2876   1.802  10.325   4.194  3.3209  1.1069 -0.1449
   22MOL0     H 2877   1.724  10.485   4.213  3.7890  2.0128 -0.5093
   22MOL0     H 2878   1.700  10.280   3.978  1.6328  0.1627 -0.4273
   22MOL0     H 2879   1.659  10.441   3.953 -2.0880 -2.8258 -0.7404
   22MOL0     H 2880   1.500  10.428   4.154  1.0499 -1.0717  2.1648
   22MOL0     H 2881   1.511  10.249   4.137 -1.3720 -0.4866 -1.9105
   22MOL0     H 2882   1.429  10.432   3.908  0.3367 -0.4027  0.1487
   22MOL0     H 2883   1.471  10.261   3.897 -0.0079 -0.4045  0.1867
   22MOL0     H 2884   1.217  10.306   3.904  0.9059  0.9702  0.2972
   22MOL0     H 2885   1.240  10.372   4.053 -1.4429  1.0429 -1.6971
   22MOL0     H 2886   2.373  10.668   4.383  0.5772 -0.7077  0.6525
   22MOL0     H 2887   2.609  10.703   4.371 -0.6919  1.7573 -0.2017
   22MOL0     H 2888   2.994  10.790   4.036  0.3332 -2.0562 -0.5020
   22MOL0     H 2889   3.211  10.878   4.076 -1.6631  1.2149  0.3002
   22MOL0     H 2890   5.185  10.435   3.962  0.5039 -0.5905  2.3140
   22MOL0     H 2891   5.385  10.502   3.849  0.5903  1.2556 -0.8997
   22MOL0     H 2892   5.669  11.102   3.824 -1.5476 -2.1153  1.3827
   22MOL0     H 2893   5.835  11.182   3.662 -4.2578  1.5142 -2.0510
   22MOL0     H 2894   6.082  11.061   3.622  0.3461  1.2260  0.0628
   22MOL0     H 2895   6.051  11.205   3.537 -1.5428 -0.3922  2.3911
   22MOL0     H 2896   6.162  10.982   3.377  2.2357 -2.3102  2.3165
   22MOL0     H 2897   6.176  11.159   3.352  2.9839  0.9595  0.5787
   22MOL0     H 2898   6.294  11.122   3.597 -1.5462  1.5308 -0.0808
   22MOL0     H 2899   6.385  11.140   3.445 -0.4493  0.2098  0.5593
   22MOL0     H 2900   6.325  10.856   3.561  2.7984 -1.9967 -0.1185
   22MOL0     H 2901   6.421  10.896   3.420 -0.2069 -1.4553  1.6053
   22MOL0     H 2902   6.637  10.940   3.784 -0.2217 -2.9869 -0.5834
   22MOL0     H 2903   5.811  10.815   3.461 -2.0591  0.4656 -0.3667
   22MOL0     H 2904   5.630  10.738   3.602  1.8994  0.4832 -5.5554
   23MOL0     O 2905   3.700  10.212   6.332  0.2240  0.3480  0.3234
   23MOL0     C 2906   3.680  10.154   6.218 -0.2420  0.2099  0.0186
   23MOL0     O 2907   3.576  10.078   6.187  0.6613 -0.2815  0.0199
   23MOL0     C 2908   3.481  10.075   6.288 -0.5801  1.7407  0.8474
   23MOL0     C 2909   3.364  10.156   6.288  0.1550  0.1967 -0.1149
   23MOL0     C 2910   3.275  10.159   6.394  1.0777 -0.5197 -0.0571
   23MOL0     C 2911   3.295  10.066   6.498  0.6501 -0.3876  0.2828
   23MOL0     O 2912   3.210  10.062   6.606 -0.6734 -0.4181  0.0296
   23MOL0     C 2913   3.069  10.057   6.579 -0.0366  0.8778 -1.0868
   23MOL0     C 2914   2.992  10.074   6.713 -0.2135  1.2441 -0.9876
   23MOL0     C 2915   2.957   9.940   6.793 -0.2581 -0.2030 -0.3313
   23MOL0     C 2916   3.089   9.858   6.820 -0.2221  0.7614 -0.0268
   23MOL0     C 2917   3.149   9.900   6.963  0.0562  0.3710  0.3396
   23MOL0     C 2918   3.247   9.803   7.020 -0.3431 -0.7687 -0.1221
   23MOL0     C 2919   3.350   9.759   6.911 -0.4677 -0.2770 -0.3867
   23MOL0     C 2920   3.475   9.710   6.984  0.2453 -0.4513  0.0686
   23MOL0     N 2921   3.559   9.628   6.898  0.4441 -0.2959  0.2577
   23MOL0     C 2922   3.544   9.494   6.868  0.1799 -0.8543 -0.9757
   23MOL0     C 2923   3.651   9.466   6.789 -0.1148  0.7318 -0.6088
   23MOL0     C 2924   3.683   9.336   6.712 -0.2766 -0.0548  0.4865
   23MOL0     C 2925   3.786   9.252   6.783 -0.3002 -0.1117  0.5193
   23MOL0     C 2926   3.812   9.120   6.704 -0.4510 -1.1977 -0.0943
   23MOL0     C 2927   3.913   9.043   6.803  0.4068 -0.0782  0.4945
   23MOL0     O 2928   3.949   8.918   6.742  0.2858 -0.2644 -0.2818
   23MOL0     C 2929   4.061   8.923   6.664  0.7452  0.1511  0.6329
   23MOL0     C 2930   4.039   8.950   6.529 -0.5124  1.2741 -0.4874
   23MOL0     C 2931   4.151   8.965   6.438 -0.9532 -0.2373 -0.3250
   23MOL0     C 2932   4.286   8.946   6.488  0.4567  0.0169 -0.8627
   23MOL0     C 2933   4.402   8.957   6.399 -0.2436 -0.3114 -0.0350
   23MOL0     O 2934   4.523   8.891   6.429 -0.2481  0.3520  0.2389
   23MOL0     C 2935   4.618   8.896   6.329  0.0507  0.5502 -0.1784
   23MOL0     C 2936   4.613   8.819   6.210 -0.2474  0.0740  0.4663
   23MOL0     C 2937   4.722   8.832   6.123  0.4240 -0.0877 -0.2506
   23MOL0     C 2938   4.832   8.905   6.157  0.4305  0.1422  0.0343
   23MOL0     O 2939   4.949   8.919   6.084 -0.4945 -0.1815 -0.4285
   23MOL0     C 2940   4.992   8.801   6.000  0.5134 -0.5947 -0.1663
   23MOL0     C 2941   5.143   8.813   5.981 -0.3186  0.2198 -0.5782
   23MOL0     C 2942   5.171   8.939   5.897 -0.3941 -0.7350  0.1825
   23MOL0     C 2943   5.323   8.961   5.874 -0.2180 -0.7723 -0.9102
   23MOL0     C 2944   5.368   8.894   5.750  0.2209 -0.2046  0.2842
   23MOL0     C 2945   5.518   8.921   5.728  0.1018  0.0498  0.1891
   23MOL0     C 2946   5.552   8.867   5.589 -0.5995 -0.2382  0.2397
   23MOL0     C 2947   5.704   8.860   5.563 -1.0051  0.1257 -0.0063
   23MOL0    Cl 2948   5.796   8.772   5.684 -0.4903  0.1053 -0.1457
   23MOL0     C 2949   4.837   8.986   6.266  0.6162 -0.2157  0.3844
   23MOL0     C 2950   4.723   8.991   6.352  0.1130  0.6064 -1.0505
   23MOL0     O 2951   4.389   9.044   6.317 -0.1732 -0.2147 -0.3691
   23MOL0     C 2952   4.296   8.909   6.623 -0.1329  0.1366 -0.2088
   23MOL0     C 2953   4.193   8.898   6.710  0.6544 -0.7560 -0.5353
   23MOL0     N 2954   3.733   9.578   6.784 -0.7284  0.0260 -0.1347
   23MOL0     N 2955   3.679   9.677   6.841  0.4186 -0.3076 -0.1694
   23MOL0     C 2956   3.408   9.990   6.504 -0.4241  0.4326 -0.1237
   23MOL0     C 2957   3.503   9.991   6.395 -0.6121  0.0807 -0.2170
   23MOL0     C 2958   3.770  10.202   6.103 -0.5235 -0.4714  1.0934
   23MOL0     C 2959   3.866  10.305   6.133  0.0280  0.4763  0.9758
   23MOL0     C 2960   3.955  10.343   6.031  0.7859 -0.3930 -0.0464
   23MOL0     C 2961   3.957  10.288   5.906  0.4218  0.5092  0.2207
   23MOL0     O 2962   4.048  10.348   5.822  0.5088  0.6176  0.3965
   23MOL0     C 2963   4.032  10.311   5.680  0.0732  0.1026 -0.7071
   23MOL0     C 2964   4.132  10.394   5.596  0.2561  0.1261 -0.5086
   23MOL0     C 2965   4.090  10.541   5.576  0.9234 -0.2328 -0.3805
   23MOL0     C 2966   4.199  10.642   5.560 -0.0519  0.6531  1.1761
   23MOL0     C 2967   4.161  10.771   5.514 -0.2589 -0.1425  0.8809
   23MOL0     C 2968   4.139  10.868   5.449 -1.2474  0.1532 -0.2783
   23MOL0     C 2969   3.850  10.199   5.876  0.5338  0.1709  0.4652
   23MOL0     C 2970   3.765  10.148   5.978  1.0420 -0.0532 -0.0071
   23MOL0     H 2971   3.350  10.216   6.199 -0.9155  0.3622  0.1462
   23MOL0     H 2972   3.194  10.231   6.397  1.7500  0.5258 -3.1562
   23MOL0     H 2973   3.049   9.959   6.536 -1.3811  0.6580 -0.0397
   23MOL0     H 2974   3.035  10.139   6.515  0.0763  3.3619  1.7866
   23MOL0     H 2975   2.895  10.119   6.689 -0.4740  1.4444  0.3630
   23MOL0     H 2976   3.051  10.134   6.782 -0.7029 -0.4025  0.9598
   23MOL0     H 2977   2.894   9.872   6.734  1.7175 -1.3045 -1.2849
   23MOL0     H 2978   2.905   9.953   6.888 -0.2001  0.7270 -0.4162
   23MOL0     H 2979   3.059   9.753   6.827  0.2231  0.6408  0.1214
   23MOL0     H 2980   3.174   9.874   6.752 -0.0297  1.2072  0.3114
   23MOL0     H 2981   3.072   9.923   7.037 -1.1302 -0.9741 -0.4199
   23MOL0     H 2982   3.202   9.991   6.933 -1.0176  1.1940  0.8904
   23MOL0     H 2983   3.191   9.717   7.057 -0.3340 -2.3540 -3.3758
   23MOL0     H 2984   3.293   9.847   7.108 -2.5633  3.2925 -0.7300
   23MOL0     H 2985   3.299   9.679   6.856  1.8190 -1.8438 -0.3459
   23MOL0     H 2986   3.392   9.828   6.837 -1.7646  0.5233 -0.4205
   23MOL0     H 2987   3.440   9.658   7.074  2.9224 -1.7039  0.4721
   23MOL0     H 2988   3.533   9.792   7.028  0.4809 -0.4493 -0.2465
   23MOL0     H 2989   3.470   9.421   6.901  0.1670 -0.2025  0.5152
   23MOL0     H 2990   3.724   9.358   6.613 -0.1472  1.0592  0.7686
   23MOL0     H 2991   3.588   9.283   6.713 -0.2458 -0.1211  1.4119
   23MOL0     H 2992   3.732   9.213   6.869 -4.1845 -1.3541 -2.1809
   23MOL0     H 2993   3.867   9.310   6.826 -1.9281  0.3664  3.2024
   23MOL0     H 2994   3.718   9.070   6.681 -0.1993 -1.0581 -1.4988
   23MOL0     H 2995   3.861   9.134   6.607 -1.8012 -1.9625 -0.9125
   23MOL0     H 2996   3.853   9.032   6.894 -1.7940 -1.3283 -1.0401
   23MOL0     H 2997   4.008   9.096   6.821 -0.5360  1.1141  2.2543
   23MOL0     H 2998   3.933   8.964   6.508 -0.9165  0.3358  0.8028
   23MOL0     H 2999   4.127   8.987   6.334  0.9208  0.6021 -0.6357
   23MOL0     H 3000   4.533   8.749   6.192 -0.5614  0.4869  0.2262
   23MOL0     H 3001   4.713   8.762   6.041 -2.3342 -0.6871  0.4566
   23MOL0     H 3002   4.947   8.815   5.901  1.8062  0.7145 -0.6142
   23MOL0     H 3003   4.968   8.704   6.045 -0.7717  0.1031  0.7267
   23MOL0     H 3004   5.181   8.724   5.929  0.0705 -1.6583  2.6993
   23MOL0     H 3005   5.185   8.820   6.081  1.0478  1.5528 -1.2063
   23MOL0     H 3006   5.134   9.026   5.953 -1.0806 -0.4924 -0.6273
   23MOL0     H 3007   5.115   8.937   5.803  1.3014 -0.9523 -0.8692
   23MOL0     H 3008   5.331   9.070   5.862 -0.3563 -0.7181 -0.5327
   23MOL0     H 3009   5.378   8.933   5.964 -0.3627 -0.4268 -0.7107
   23MOL0     H 3010   5.326   8.944   5.662  2.7961  0.4283 -0.6601
   23MOL0     H 3011   5.354   8.787   5.763  1.9630 -0.5060 -0.0820
   23MOL0     H 3012   5.569   8.852   5.796 -1.9224 -1.7831 -0.0214
   23MOL0     H 3013   5.543   9.027   5.729  1.4782 -0.0330 -4.3184
   23MOL0     H 3014   5.509   8.767   5.601 -0.5661 -0.0397  2.4823
   23MOL0     H 3015   5.504   8.934   5.517  1.6068  0.8288 -0.3182
   23MOL0     H 3016   5.755   8.955   5.544  1.0232 -1.0505 -0.6871
   23MOL0     H 3017   5.715   8.800   5.472 -2.6645 -0.8972  0.4115
   23MOL0     H 3018   4.920   9.053   6.289  0.6834  0.2113 -1.0057
   23MOL0     H 3019   4.719   9.055   6.440  2.7851 -1.3180  0.6330
   23MOL0     H 3020   4.397   8.915   6.663 -0.4235  0.9130  0.4287
   23MOL0     H 3021   4.209   8.873   6.815 -1.2076 -0.9813 -0.2779
   23MOL0     H 3022   3.422   9.925   6.590 -1.4231  1.0549  0.5207
   23MOL0     H 3023   3.584   9.919   6.392 -2.8284 -2.5523 -1.8877
   23MOL0     H 3024   3.882  10.342   6.233  1.4203  0.7946  0.6627
   23MOL0     H 3025   4.032  10.415   6.054 -1.6227  1.7693  1.8854
   23MOL0     H 3026   3.931  10.333   5.645 -1.8410 -3.7073  1.7099
   23MOL0     H 3027   4.056  10.205   5.675  0.3956  0.0613  1.0503
   23MOL0     H 3028   4.228  10.398   5.649 -0.0884 -0.5781  0.1838
   23MOL0     H 3029   4.142  10.346   5.499  0.0693  0.0655 -0.4985
   23MOL0     H 3030   4.018  10.571   5.652 -0.2472 -0.7242 -1.2582
   23MOL0     H 3031   4.034  10.542   5.481 -0.9594  1.3170  0.6840
   23MOL0     H 3032   4.237  10.651   5.662 -0.4699 -2.8156  1.7612
   23MOL0     H 3033   4.282  10.621   5.492  0.0123 -0.0853  1.4673
   23MOL0     H 3034   4.116  10.966   5.411  0.2776  1.1685  1.2846
   23MOL0     H 3035   3.833  10.151   5.780  2.1582 -3.1538  1.6849
   23MOL0     H 3036   3.693  10.068   5.961  3.6332 -2.7860  1.0762
   24MOL0     O 3037   3.619   8.672   4.034 -0.6868 -0.4321 -0.0266
   24MOL0     C 3038   3.666   8.681   3.918  0.4060  0.0757 -0.5502
   24MOL0     O 3039   3.598   8.716   3.798  1.0897 -0.5595 -0.0935
   24MOL0     C 3040   3.462   8.735   3.826  0.3063  0.2346 -0.6772
   24MOL0     C 3041   3.386   8.618   3.807  0.7041  0.5168  0.3645
   24MOL0     C 3042   3.246   8.625   3.836  1.0828 -0.2939  0.3704
   24MOL0     C 3043   3.182   8.739   3.894  0.8422  0.7772  0.4879
   24MOL0     O 3044   3.040   8.727   3.912 -0.1005 -0.3497 -0.1593
   24MOL0     C 3045   2.975   8.830   3.981  0.6985  0.2395  0.3396
   24MOL0     C 3046   2.880   8.902   3.881  0.9759 -0.5991  0.0099
   24MOL0     C 3047   2.765   8.822   3.818 -0.0257 -0.1703  0.3080
   24MOL0     C 3048   2.663   8.923   3.755  0.5153  0.1798  0.4267
   24MOL0     C 3049   2.555   8.838   3.685 -0.0544 -0.3974  0.6567
   24MOL0     C 3050   2.466   8.929   3.600  0.4782 -0.2440  0.3007
   24MOL0     C 3051   2.396   9.041   3.682  0.0415 -0.1680  0.2126
   24MOL0     C 3052   2.265   9.092   3.621 -0.0098  0.0667 -0.1119
   24MOL0     N 3053   2.280   9.192   3.517  0.0873  0.0811  0.3614
   24MOL0     C 3054   2.274   9.174   3.383  0.2123  0.4657 -0.0668
   24MOL0     C 3055   2.278   9.299   3.330 -0.6881  0.1082  0.4372
   24MOL0     C 3056   2.270   9.316   3.186 -0.2040  0.4755 -0.6486
   24MOL0     C 3057   2.175   9.425   3.138  0.7079  0.3486 -1.1183
   24MOL0     C 3058   2.233   9.502   3.016  0.1734  0.8355  0.0168
   24MOL0     C 3059   2.269   9.396   2.912 -0.1297 -0.3303  0.8538
   24MOL0     O 3060   2.237   9.472   2.795 -0.4891 -0.4135 -0.2605
   24MOL0     C 3061   2.114   9.459   2.734 -0.1634 -0.1352  0.0870
   24MOL0     C 3062   2.107   9.470   2.599  0.1209  0.0800  0.0025
   24MOL0     C 3063   1.981   9.474   2.533  1.1456 -0.5315 -0.3998
   24MOL0     C 3064   1.858   9.464   2.608  1.1498  0.6777  0.2854
   24MOL0     C 3065   1.728   9.485   2.541 -0.2832 -0.5295  0.0870
   24MOL0     O 3066   1.615   9.501   2.619 -0.0148 -0.1508 -0.4369
   24MOL0     C 3067   1.491   9.509   2.567  0.6459 -0.4652  0.6941
   24MOL0     C 3068   1.444   9.565   2.441 -0.0932  0.0833 -0.5367
   24MOL0     C 3069   1.311   9.560   2.414  0.3382 -0.1007  0.2636
   24MOL0     C 3070   1.212   9.513   2.497  0.0340 -0.7944 -0.3842
   24MOL0     O 3071   1.081   9.499   2.456  0.1920 -0.3307  0.3725
   24MOL0     C 3072   1.028   9.603   2.366  0.4330 -0.1217 -0.8686
   24MOL0     C 3073   0.873   9.575   2.353 -0.5953 -0.2914 -0.0714
   24MOL0     C 3074   0.778   9.707   2.338 -1.1803  0.2636  0.3761
   24MOL0     C 3075   0.639   9.665   2.299 -0.4771 -0.4206  0.6474
   24MOL0     C 3076   0.546   9.788   2.294 -0.4897 -0.0679  0.4446
   24MOL0     C 3077   0.403   9.750   2.261 -0.2594 -0.1846 -0.1626
   24MOL0     C 3078   0.307   9.864   2.255 -0.1745 -0.4033 -0.4479
   24MOL0     C 3079   0.166   9.815   2.233  0.6444 -0.7603  0.1706
   24MOL0    Cl 3080   0.118   9.698   2.362  0.5591 -0.6726  0.0434
   24MOL0     C 3081   1.255   9.473   2.623 -0.0467  0.4739 -0.4202
   24MOL0     C 3082   1.394   9.473   2.657  1.0407 -0.2112  0.0305
   24MOL0     O 3083   1.719   9.485   2.416 -0.6048 -0.3861 -0.8382
   24MOL0     C 3084   1.872   9.437   2.740  1.1365  0.1679 -0.4359
   24MOL0     C 3085   1.995   9.432   2.804 -0.4858  1.0957 -0.7195
   24MOL0     N 3086   2.289   9.393   3.428  0.1454  0.3951 -0.3453
   24MOL0     N 3087   2.291   9.326   3.543  0.3377  0.3352 -1.2501
   24MOL0     C 3088   3.259   8.854   3.915 -0.3809  0.2069 -0.8024
   24MOL0     C 3089   3.392   8.850   3.865  0.3010 -0.6897  0.3098
   24MOL0     C 3090   3.811   8.671   3.904  0.7077 -0.2929 -0.0677
   24MOL0     C 3091   3.877   8.724   3.795 -1.3479 -1.0035 -0.0341
   24MOL0     C 3092   4.011   8.709   3.772 -0.1815  0.2929 -0.2060
   24MOL0     C 3093   4.095   8.645   3.864 -0.3099  0.5042 -0.4235
   24MOL0     O 3094   4.234   8.639   3.836  1.0123 -0.2595 -0.2190
   24MOL0     C 3095   4.310   8.575   3.936  0.3511  0.0361  0.1212
   24MOL0     C 3096   4.459   8.585   3.907 -0.4525  0.7089  0.2191
   24MOL0     C 3097   4.516   8.492   3.796  0.1550 -0.1582  0.2394
   24MOL0     C 3098   4.656   8.515   3.794  0.1628 -0.2934 -1.4874
   24MOL0     C 3099   4.723   8.456   3.678  0.2598  0.0189  0.8875
   24MOL0     C 3100   4.784   8.416   3.586  0.2870 -0.5270  1.2494
   24MOL0     C 3101   4.027   8.592   3.979 -1.1182  0.4448  1.1427
   24MOL0     C 3102   3.890   8.598   3.993 -0.2258  0.3729  0.1047
   24MOL0     H 3103   3.430   8.526   3.771 -1.4173 -0.2616 -0.4263
   24MOL0     H 3104   3.197   8.529   3.831 -3.5489  1.7799  1.0987
   24MOL0     H 3105   3.038   8.905   4.029  0.7032 -0.1606  0.9811
   24MOL0     H 3106   2.916   8.787   4.063  0.1260  0.3694  0.0021
   24MOL0     H 3107   2.936   8.953   3.802  2.0236 -2.9167 -0.8366
   24MOL0     H 3108   2.827   8.969   3.949 -0.2129 -0.4984 -0.9795
   24MOL0     H 3109   2.719   8.757   3.893 -1.7460  0.9857  0.3131
   24MOL0     H 3110   2.792   8.751   3.740 -1.1834 -0.9868  0.6156
   24MOL0     H 3111   2.627   8.985   3.837  2.2549 -0.0083  1.3967
   24MOL0     H 3112   2.721   8.986   3.688  2.1249 -1.6439 -0.0011
   24MOL0     H 3113   2.492   8.779   3.753 -1.7308 -2.1529 -2.1637
   24MOL0     H 3114   2.598   8.760   3.622  1.0481  1.5481 -1.0999
   24MOL0     H 3115   2.387   8.867   3.556  1.4936 -1.6180  0.3379
   24MOL0     H 3116   2.526   8.975   3.521 -0.5217  2.5285  1.0425
   24MOL0     H 3117   2.360   9.008   3.780 -1.6379 -1.1325 -0.6920
   24MOL0     H 3118   2.463   9.127   3.698 -0.1220  0.8084 -3.5515
   24MOL0     H 3119   2.206   9.130   3.705  1.9196  2.8250  0.1018
   24MOL0     H 3120   2.211   9.006   3.579  1.8513 -2.0300  1.5573
   24MOL0     H 3121   2.265   9.081   3.328  2.7539  1.0085 -1.5623
   24MOL0     H 3122   2.233   9.222   3.144 -0.7957 -0.0131  0.9082
   24MOL0     H 3123   2.373   9.332   3.152  0.4615 -1.3051  0.3684
   24MOL0     H 3124   2.158   9.496   3.219  1.8221  2.3588 -2.5394
   24MOL0     H 3125   2.071   9.395   3.124  0.4353 -1.1276  2.8314
   24MOL0     H 3126   2.164   9.581   2.986  1.2744  1.0528 -2.1082
   24MOL0     H 3127   2.332   9.544   3.037  0.0988  0.8938  0.2530
   24MOL0     H 3128   2.205   9.308   2.924  1.4005 -1.9461 -1.8130
   24MOL0     H 3129   2.373   9.363   2.907 -0.3883 -0.9518 -2.3224
   24MOL0     H 3130   2.194   9.486   2.537 -0.1985  0.7034 -0.2902
   24MOL0     H 3131   1.979   9.481   2.424 -1.0105  1.4541 -0.3158
   24MOL0     H 3132   1.514   9.595   2.365 -1.0539  0.2742 -1.3645
   24MOL0     H 3133   1.277   9.584   2.314 -3.2201  0.8885  1.5640
   24MOL0     H 3134   1.078   9.586   2.270  1.8822 -2.2819  0.1660
   24MOL0     H 3135   1.046   9.702   2.407 -2.7554  0.2894 -0.2231
   24MOL0     H 3136   0.827   9.526   2.439 -1.1635 -1.5331 -1.0430
   24MOL0     H 3137   0.856   9.510   2.267  1.1156  1.5347 -1.8962
   24MOL0     H 3138   0.839   9.766   2.269  0.1773 -0.3000  1.0491
   24MOL0     H 3139   0.770   9.755   2.436 -3.9772  0.9325 -0.1045
   24MOL0     H 3140   0.645   9.610   2.205  0.7628 -2.8914  2.0833
   24MOL0     H 3141   0.593   9.596   2.370 -3.9593 -0.3562 -1.3090
   24MOL0     H 3142   0.596   9.849   2.219 -1.9311  0.5621 -0.0294
   24MOL0     H 3143   0.538   9.843   2.388  1.6863  2.2358 -0.6085
   24MOL0     H 3144   0.372   9.671   2.329 -0.7991 -0.2913 -0.5231
   24MOL0     H 3145   0.408   9.697   2.165  2.1565 -0.3520 -0.0111
   24MOL0     H 3146   0.298   9.907   2.355 -1.7857 -2.0890  0.1943
   24MOL0     H 3147   0.329   9.945   2.185  1.2356 -0.4038 -0.0247
   24MOL0     H 3148   0.153   9.768   2.135 -4.3580  2.2975 -0.9863
   24MOL0     H 3149   0.099   9.901   2.234 -0.5139 -1.6357  0.5473
   24MOL0     H 3150   1.180   9.439   2.693  1.5890  2.0090  2.2531
   24MOL0     H 3151   1.419   9.425   2.751  1.2842 -0.2791 -0.0686
   24MOL0     H 3152   1.783   9.438   2.803  0.1924  0.8161 -1.7239
   24MOL0     H 3153   1.992   9.408   2.910  0.4809  0.4076 -0.8353
   24MOL0     H 3154   3.216   8.947   3.950 -0.5972 -0.8874  2.1591
   24MOL0     H 3155   3.454   8.938   3.882  1.3447 -0.8818 -2.0863
   24MOL0     H 3156   3.821   8.793   3.732 -1.4939  0.4127  1.5732
   24MOL0     H 3157   4.055   8.754   3.683  1.9547 -3.0192 -1.0171
   24MOL0     H 3158   4.275   8.476   3.966 -5.8595  2.0576  1.0836
   24MOL0     H 3159   4.309   8.640   4.025 -0.0452  1.6595 -1.0238
   24MOL0     H 3160   4.497   8.683   3.873  2.3116  0.3272  1.8609
   24MOL0     H 3161   4.507   8.566   4.004  2.8277 -2.6006 -1.7698
   24MOL0     H 3162   4.467   8.538   3.709  0.0250  2.1660  1.4545
   24MOL0     H 3163   4.493   8.388   3.822  3.2331 -0.6168  1.4941
   24MOL0     H 3164   4.673   8.624   3.793 -2.7173  0.2328 -2.4547
   24MOL0     H 3165   4.702   8.472   3.883 -3.0817 -0.1138  0.4289
   24MOL0     H 3166   4.834   8.371   3.502  0.1401  0.6729  0.4995
   24MOL0     H 3167   4.080   8.528   4.048  2.2546  0.6479 -1.0424
   24MOL0     H 3168   3.835   8.556   4.077 -0.8027 -0.2961 -0.5904
   25MOL0     O 3169   8.572   8.049   9.023 -0.2364 -0.5510  0.3953
   25MOL0     C 3170   8.609   7.938   9.045 -0.2041  1.4298 -0.2392
   25MOL0     O 3171   8.532   7.846   9.100  0.5839 -0.6636  0.3607
   25MOL0     C 3172   8.400   7.870   9.108 -0.3383  0.1716 -0.3026
   25MOL0     C 3173   8.318   7.850   8.995 -0.2956  0.3073  0.0248
   25MOL0     C 3174   8.171   7.843   9.002 -0.9870  0.9766 -0.5692
   25MOL0     C 3175   8.112   7.859   9.132 -0.3209  0.7579 -0.6438
   25MOL0     O 3176   7.977   7.846   9.142 -0.2008 -0.3467  0.6302
   25MOL0     C 3177   7.905   7.829   9.264 -0.5274  0.8332  0.2283
   25MOL0     C 3178   7.780   7.752   9.228 -0.6296 -0.0675 -0.6624
   25MOL0     C 3179   7.679   7.856   9.177  0.4837 -0.4905 -0.4763
   25MOL0     C 3180   7.541   7.784   9.166  0.2950 -0.1052  0.0148
   25MOL0     C 3181   7.436   7.846   9.083  0.2342  0.1205 -0.8153
   25MOL0     C 3182   7.480   7.887   8.942  1.4328 -0.5895 -0.3334
   25MOL0     C 3183   7.353   7.960   8.887  0.3198 -0.3367 -0.4293
   25MOL0     C 3184   7.401   8.028   8.751  0.7000  0.4051 -0.9143
   25MOL0     N 3185   7.292   8.126   8.706  0.2865  0.0015 -0.5709
   25MOL0     C 3186   7.219   8.209   8.777  0.1092 -1.3048  0.2210
   25MOL0     C 3187   7.144   8.279   8.687  0.5358  0.7521 -0.4950
   25MOL0     C 3188   7.037   8.386   8.722 -0.5703  0.2235  0.4172
   25MOL0     C 3189   6.888   8.338   8.702  0.1473 -0.6196 -0.4951
   25MOL0     C 3190   6.803   8.466   8.736 -0.5486 -0.1669 -0.2767
   25MOL0     C 3191   6.659   8.427   8.745  0.5208 -0.0685  0.1671
   25MOL0     O 3192   6.592   8.526   8.825  0.4055  0.5957  0.0273
   25MOL0     C 3193   6.460   8.503   8.854  0.0463 -0.9276  0.4621
   25MOL0     C 3194   6.407   8.563   8.964  0.1882  0.2254 -0.6346
   25MOL0     C 3195   6.274   8.547   8.998  0.7449 -1.3497 -0.4818
   25MOL0     C 3196   6.192   8.461   8.930 -0.4087  0.2402 -0.4113
   25MOL0     C 3197   6.051   8.474   8.963  0.3546  0.6210  0.4441
   25MOL0     O 3198   6.005   8.589   9.021 -0.0141 -0.4654  0.5799
   25MOL0     C 3199   5.867   8.599   9.058 -0.6910  0.3202  0.2072
   25MOL0     C 3200   5.824   8.542   9.176  1.3129  0.8303 -0.0030
   25MOL0     C 3201   5.691   8.566   9.210 -0.1337 -1.2135 -0.2898
   25MOL0     C 3202   5.598   8.647   9.135 -0.4560  0.3000 -0.3186
   25MOL0     O 3203   5.478   8.658   9.195 -0.4487  0.9622 -0.3144
   25MOL0     C 3204   5.386   8.751   9.135 -0.3871 -0.1090 -0.5075
   25MOL0     C 3205   5.286   8.777   9.253  0.6980 -0.2561 -0.9707
   25MOL0     C 3206   5.165   8.852   9.201  0.4666  0.4584  0.4061
   25MOL0     C 3207   5.051   8.856   9.308 -0.1514  0.3047 -0.3041
   25MOL0     C 3208   4.931   8.933   9.252 -0.2518 -0.1231 -0.0404
   25MOL0     C 3209   4.812   8.973   9.349 -1.0511  0.1257 -0.5350
   25MOL0     C 3210   4.737   9.087   9.278  1.2841 -0.2711 -0.1728
   25MOL0     C 3211   4.630   9.157   9.347 -0.4506 -0.1602  0.4466
   25MOL0    Cl 3212   4.474   9.064   9.348 -0.3980  0.1164 -0.2184
   25MOL0     C 3213   5.652   8.699   9.019 -0.9577 -0.5579  0.3263
   25MOL0     C 3214   5.783   8.676   8.986 -0.2858  0.0364 -0.1572
   25MOL0     O 3215   5.983   8.382   8.914  0.4567 -0.0801 -0.4108
   25MOL0     C 3216   6.248   8.389   8.825  0.2657 -0.3371  0.5232
   25MOL0     C 3217   6.378   8.406   8.793  0.5841 -0.0492 -0.2758
   25MOL0     N 3218   7.167   8.226   8.565  0.0037  0.7887  0.4837
   25MOL0     N 3219   7.253   8.130   8.576  0.3597  0.0513 -0.1023
   25MOL0     C 3220   8.191   7.876   9.247 -0.4054 -0.0312  0.0357
   25MOL0     C 3221   8.333   7.884   9.236  0.0252  0.2784  0.5806
   25MOL0     C 3222   8.742   7.894   9.005  0.4125  0.1781 -0.2036
   25MOL0     C 3223   8.825   7.991   8.942 -0.3119  0.3563  0.2355
   25MOL0     C 3224   8.962   7.951   8.911  0.4464 -0.4905  0.8560
   25MOL0     C 3225   9.001   7.823   8.936 -0.2260  1.1402  0.1082
   25MOL0     O 3226   9.123   7.770   8.893  0.9902 -0.1812  0.3047
   25MOL0     C 3227   9.207   7.851   8.818 -0.4619  0.3029 -0.0028
   25MOL0     C 3228   9.325   7.759   8.770  1.1962 -0.1875 -1.1063
   25MOL0     C 3229   9.408   7.832   8.668 -0.7040 -0.7788 -0.1214
   25MOL0     C 3230   9.510   7.736   8.609  0.1003  0.2366  0.4906
   25MOL0     C 3231   9.601   7.687   8.712  0.6006  0.0164 -0.3259
   25MOL0     C 3232   9.673   7.663   8.807 -0.0488  0.5272 -0.4255
   25MOL0     C 3233   8.910   7.724   8.968 -0.4430  0.1178  0.3426
   25MOL0     C 3234   8.781   7.759   9.014 -0.3170 -0.4988  0.1390
   25MOL0     H 3235   8.359   7.826   8.897 -0.9715 -1.1896  0.0881
   25MOL0     H 3236   8.102   7.825   8.920 -1.6463 -1.5829  0.4480
   25MOL0     H 3237   7.890   7.929   9.304  0.8085  1.8263 -1.5733
   25MOL0     H 3238   7.962   7.767   9.333  1.3889 -1.1737 -2.8912
   25MOL0     H 3239   7.737   7.701   9.314 -1.5622 -0.9080 -1.5959
   25MOL0     H 3240   7.812   7.675   9.157  0.1560  0.4788 -0.9211
   25MOL0     H 3241   7.703   7.902   9.080  0.1070 -1.0042 -0.8188
   25MOL0     H 3242   7.669   7.941   9.245  2.3438 -0.3430 -0.3439
   25MOL0     H 3243   7.576   7.698   9.107  0.4614  0.9063 -1.4264
   25MOL0     H 3244   7.496   7.761   9.263 -1.0468  1.3751 -0.2286
   25MOL0     H 3245   7.400   7.935   9.134  1.2795  0.7086 -1.0802
   25MOL0     H 3246   7.360   7.770   9.060  0.9682 -0.5796 -0.9720
   25MOL0     H 3247   7.512   7.799   8.887  1.3220 -1.6134  1.1934
   25MOL0     H 3248   7.566   7.954   8.938  1.7278 -0.9774 -0.5214
   25MOL0     H 3249   7.278   7.883   8.864 -1.3192  1.1349 -0.1796
   25MOL0     H 3250   7.322   8.032   8.963  0.4829  0.2818 -0.9394
   25MOL0     H 3251   7.425   7.948   8.681 -1.8075 -1.5385  0.2680
   25MOL0     H 3252   7.498   8.078   8.758  0.2673  1.4937 -2.1798
   25MOL0     H 3253   7.234   8.233   8.881 -0.9613  3.0261 -0.4127
   25MOL0     H 3254   7.056   8.468   8.652 -0.4342  2.0827  2.5315
   25MOL0     H 3255   7.057   8.414   8.825  1.7647 -2.4226  0.8224
   25MOL0     H 3256   6.864   8.255   8.769  1.2288 -0.1257  0.5459
   25MOL0     H 3257   6.869   8.297   8.603 -4.2156  1.7014 -0.8753
   25MOL0     H 3258   6.833   8.501   8.835  0.0890 -1.0909 -0.1325
   25MOL0     H 3259   6.813   8.546   8.662 -0.6567  0.0682 -0.0373
   25MOL0     H 3260   6.650   8.329   8.794 -1.2841 -0.1601 -0.2570
   25MOL0     H 3261   6.616   8.414   8.645 -3.9782  1.1869  1.6851
   25MOL0     H 3262   6.468   8.627   9.027 -2.4391  2.1620  0.1137
   25MOL0     H 3263   6.228   8.594   9.084  2.0215 -2.4074  0.8251
   25MOL0     H 3264   5.875   8.485   9.253  0.5819 -0.7355 -0.6094
   25MOL0     H 3265   5.662   8.541   9.311  0.6075  2.3739  0.9831
   25MOL0     H 3266   5.329   8.701   9.056 -1.8616  1.6080 -0.5727
   25MOL0     H 3267   5.432   8.844   9.100 -3.4191  1.4649 -0.6098
   25MOL0     H 3268   5.339   8.833   9.330  1.4513 -3.8453  1.3138
   25MOL0     H 3269   5.264   8.681   9.299 -3.1668  1.0281  0.2218
   25MOL0     H 3270   5.128   8.793   9.117 -0.9771  2.6525 -0.6126
   25MOL0     H 3271   5.193   8.955   9.174 -3.0743  0.9135 -2.2247
   25MOL0     H 3272   5.010   8.755   9.316  0.9989 -0.2758 -1.3552
   25MOL0     H 3273   5.093   8.886   9.405 -0.5777  0.4498 -0.1614
   25MOL0     H 3274   4.887   8.877   9.168 -1.9236  0.4428  0.4234
   25MOL0     H 3275   4.975   9.023   9.208 -1.1266  1.2953  1.8821
   25MOL0     H 3276   4.851   9.003   9.447 -0.6161 -2.2723  0.0750
   25MOL0     H 3277   4.756   8.883   9.375  1.0142 -0.9444  0.4851
   25MOL0     H 3278   4.808   9.156   9.232  0.4674 -0.0906 -1.2053
   25MOL0     H 3279   4.698   9.043   9.186  1.9386  1.5280 -1.3792
   25MOL0     H 3280   4.608   9.243   9.282 -1.5394 -0.6650  0.1142
   25MOL0     H 3281   4.659   9.198   9.444 -1.0241 -0.2124  0.6478
   25MOL0     H 3282   5.592   8.766   8.959 -1.7686 -1.7966 -0.2945
   25MOL0     H 3283   5.818   8.723   8.895 -0.4900 -2.0313 -1.3706
   25MOL0     H 3284   6.193   8.320   8.761  1.0501  0.6608 -1.3083
   25MOL0     H 3285   6.403   8.349   8.705  0.5558 -1.5759  0.6822
   25MOL0     H 3286   8.143   7.885   9.344 -2.7013  1.1670 -1.1227
   25MOL0     H 3287   8.390   7.907   9.326  1.3319  1.1584 -0.4345
   25MOL0     H 3288   8.796   8.093   8.920 -1.3978 -0.3552 -1.8312
   25MOL0     H 3289   9.031   8.026   8.874 -1.0308  0.4949 -0.0212
   25MOL0     H 3290   9.257   7.928   8.877  0.9678 -1.6362  1.4580
   25MOL0     H 3291   9.170   7.903   8.729  1.2908 -0.7034 -1.4110
   25MOL0     H 3292   9.384   7.705   8.845  3.9711 -0.9267 -3.6483
   25MOL0     H 3293   9.265   7.685   8.716 -0.0790  1.2946 -1.8207
   25MOL0     H 3294   9.464   7.915   8.714  3.3273 -3.8162  1.0868
   25MOL0     H 3295   9.347   7.879   8.591 -1.5617 -0.1859  0.8932
   25MOL0     H 3296   9.454   7.650   8.570 -1.9236  1.8287 -0.2883
   25MOL0     H 3297   9.556   7.794   8.529  0.8831 -0.1924  0.6169
   25MOL0     H 3298   9.738   7.642   8.890 -1.7507 -0.7353  0.6797
   25MOL0     H 3299   8.950   7.624   8.966 -0.9074 -0.1128 -2.7595
   25MOL0     H 3300   8.701   7.686   9.026 -0.8655 -0.0508 -0.7282
   26MOL0     O 3301   5.061   8.296  11.161 -0.0049  0.1538  0.1111
   26MOL0     C 3302   5.047   8.179  11.121 -0.7752 -0.2546  0.5863
   26MOL0     O 3303   4.939   8.131  11.050  0.6232 -0.7804  0.4902
   26MOL0     C 3304   4.841   8.225  11.022 -0.2085 -0.4531 -0.6522
   26MOL0     C 3305   4.873   8.341  10.949  0.6685  0.1482  1.4387
   26MOL0     C 3306   4.781   8.446  10.928 -0.0303  0.3557 -0.9100
   26MOL0     C 3307   4.647   8.433  10.979  0.4064  0.1251 -0.8462
   26MOL0     O 3308   4.554   8.531  10.961  0.0346  0.3670 -0.2676
   26MOL0     C 3309   4.408   8.503  10.971 -0.4121  0.3352 -0.4888
   26MOL0     C 3310   4.320   8.604  10.900  0.1263  0.1278 -0.1599
   26MOL0     C 3311   4.166   8.562  10.906 -0.4539  0.2331 -0.7917
   26MOL0     C 3312   4.091   8.672  10.821  0.1166  0.2164  0.4494
   26MOL0     C 3313   3.941   8.645  10.821 -0.2873 -1.1133  0.1256
   26MOL0     C 3314   3.878   8.777  10.758  0.7360  0.1339  0.0610
   26MOL0     C 3315   3.729   8.766  10.719  0.0276 -0.2518 -0.5502
   26MOL0     C 3316   3.651   8.780  10.853 -0.2678  0.8699 -0.5408
   26MOL0     N 3317   3.636   8.924  10.873 -1.1926 -0.8060  0.1979
   26MOL0     C 3318   3.571   9.012  10.792  0.3172  0.0431 -0.2143
   26MOL0     C 3319   3.585   9.135  10.856  0.5207 -0.8306  0.6439
   26MOL0     C 3320   3.534   9.264  10.787 -0.4099 -0.3178 -0.4202
   26MOL0     C 3321   3.508   9.368  10.894  0.1501  0.4838 -1.3114
   26MOL0     C 3322   3.410   9.478  10.859  0.1390  0.4308 -0.6822
   26MOL0     C 3323   3.259   9.435  10.857 -0.3680 -0.6777 -0.6432
   26MOL0     O 3324   3.176   9.548  10.884 -0.1800 -0.1861 -0.3949
   26MOL0     C 3325   3.046   9.543  10.838 -0.7014  1.2869 -0.4206
   26MOL0     C 3326   2.975   9.643  10.883  0.7243 -0.1882  0.4993
   26MOL0     C 3327   2.836   9.641  10.863  0.8493  0.3281 -0.5144
   26MOL0     C 3328   2.765   9.536  10.802  0.5204 -0.0415  0.2713
   26MOL0     C 3329   2.616   9.539  10.791  0.4395 -0.2025 -0.0829
   26MOL0     O 3330   2.554   9.434  10.721 -0.3570 -0.3117 -0.4810
   26MOL0     C 3331   2.419   9.416  10.712  0.2409 -0.1249 -0.0128
   26MOL0     C 3332   2.333   9.513  10.671 -1.1762 -0.0307 -0.1467
   26MOL0     C 3333   2.195   9.501  10.651  0.0866  0.5917  0.3857
   26MOL0     C 3334   2.137   9.381  10.684  0.2926 -0.2073  0.3261
   26MOL0     O 3335   2.004   9.362  10.692 -0.0176 -0.3701 -0.8757
   26MOL0     C 3336   1.916   9.434  10.607  1.5318  0.1223 -0.3460
   26MOL0     C 3337   1.770   9.447  10.664  0.3434 -0.1894  0.3078
   26MOL0     C 3338   1.685   9.534  10.578 -0.2085  0.4791  0.5429
   26MOL0     C 3339   1.547   9.544  10.622  1.6974 -0.2285  0.1202
   26MOL0     C 3340   1.447   9.576  10.509 -0.1008 -0.6887 -0.3680
   26MOL0     C 3341   1.308   9.604  10.564 -0.3917 -0.1678  0.7984
   26MOL0     C 3342   1.190   9.618  10.461 -0.3465  0.6421  0.6157
   26MOL0     C 3343   1.061   9.640  10.541 -0.6741 -0.5719  0.0889
   26MOL0    Cl 3344   0.925   9.618  10.424 -0.0482  0.0947  0.1110
   26MOL0     C 3345   2.224   9.275  10.717 -0.3998  0.4721 -0.6488
   26MOL0     C 3346   2.370   9.287  10.717  0.1834  0.3554  0.8509
   26MOL0     O 3347   2.557   9.641  10.831  0.0259 -0.2123  0.4166
   26MOL0     C 3348   2.840   9.435  10.749 -1.0726 -0.2985 -0.4766
   26MOL0     C 3349   2.984   9.436  10.766  0.5213  0.6486  0.2369
   26MOL0     N 3350   3.665   9.127  10.964  0.4054  1.0648 -0.2241
   26MOL0     N 3351   3.694   8.998  10.976  0.1486 -0.0457  1.2020
   26MOL0     C 3352   4.621   8.314  11.055  0.4025  0.8278 -0.6865
   26MOL0     C 3353   4.717   8.211  11.073  0.7619 -0.4098 -0.0321
   26MOL0     C 3354   5.167   8.088  11.155 -0.1840  0.3427 -0.0340
   26MOL0     C 3355   5.276   8.131  11.231  0.5497 -0.5678  0.6102
   26MOL0     C 3356   5.386   8.054  11.243  0.8255 -0.3691  0.1001
   26MOL0     C 3357   5.392   7.921  11.191 -0.1845  0.5897 -0.0435
   26MOL0     O 3358   5.493   7.834  11.215  0.0659  0.1046  0.0451
   26MOL0     C 3359   5.593   7.858  11.323 -0.0399 -0.2542 -0.5022
   26MOL0     C 3360   5.707   7.934  11.268 -0.0529  0.6931  0.8215
   26MOL0     C 3361   5.749   7.884  11.123  1.1657 -0.2654 -0.1035
   26MOL0     C 3362   5.794   7.743  11.109  0.2041 -0.5080 -0.1522
   26MOL0     C 3363   5.904   7.725  11.202 -0.0118  0.2207  0.1552
   26MOL0     C 3364   6.008   7.724  11.268 -0.7219 -0.6227 -0.1039
   26MOL0     C 3365   5.278   7.875  11.118  0.2318 -0.3331 -0.3845
   26MOL0     C 3366   5.174   7.958  11.100  0.2797  0.1456 -0.7033
   26MOL0     H 3367   4.972   8.350  10.905 -0.3539 -1.4544 -1.5413
   26MOL0     H 3368   4.805   8.524  10.856  1.4505  1.3428  0.5960
   26MOL0     H 3369   4.386   8.495  11.077 -1.2744 -2.1098 -0.7930
   26MOL0     H 3370   4.386   8.404  10.931 -0.8040  0.1419  0.2022
   26MOL0     H 3371   4.350   8.611  10.795  2.7199  4.1141  0.6486
   26MOL0     H 3372   4.342   8.702  10.943  0.2290 -0.1861  0.5200
   26MOL0     H 3373   4.139   8.561  11.012 -0.1361  0.5413 -0.7066
   26MOL0     H 3374   4.154   8.461  10.866  2.3049 -0.5293  0.1162
   26MOL0     H 3375   4.105   8.774  10.856  0.8819  1.3080 -2.7393
   26MOL0     H 3376   4.113   8.675  10.714 -1.0335 -0.6783  0.1621
   26MOL0     H 3377   3.889   8.616  10.912  0.4913 -0.6738  0.7288
   26MOL0     H 3378   3.930   8.559  10.754  0.1687  1.7174 -3.9891
   26MOL0     H 3379   3.934   8.801  10.667  0.2522  1.2833  0.0402
   26MOL0     H 3380   3.899   8.860  10.826  3.4263  0.8288 -1.4588
   26MOL0     H 3381   3.703   8.843  10.647  0.9061  1.1563  0.5814
   26MOL0     H 3382   3.697   8.672  10.674 -0.0062  1.3800 -4.2319
   26MOL0     H 3383   3.691   8.731  10.942  0.0969  1.4916 -0.3529
   26MOL0     H 3384   3.547   8.747  10.854 -1.0055  2.8579 -2.5591
   26MOL0     H 3385   3.533   8.985  10.694  0.1099 -1.7213  0.3123
   26MOL0     H 3386   3.436   9.249  10.740 -1.4508  2.3400  0.7380
   26MOL0     H 3387   3.606   9.312  10.719 -0.5319  1.7454  0.8348
   26MOL0     H 3388   3.603   9.412  10.925 -0.5240  0.6468  0.6968
   26MOL0     H 3389   3.467   9.338  10.991  0.3052  1.5150 -0.9144
   26MOL0     H 3390   3.422   9.556  10.935  1.4998  0.3840 -0.8274
   26MOL0     H 3391   3.443   9.530  10.768  2.3271  4.2185  2.0056
   26MOL0     H 3392   3.242   9.362  10.937  2.0790 -0.6087  0.0441
   26MOL0     H 3393   3.239   9.396  10.758  0.1314 -0.0773 -0.9899
   26MOL0     H 3394   3.009   9.738  10.922  0.4065  1.5587 -3.0841
   26MOL0     H 3395   2.785   9.729  10.900  1.3822 -0.9068  3.6233
   26MOL0     H 3396   2.372   9.611  10.646 -3.9409  1.3104  0.4056
   26MOL0     H 3397   2.136   9.587  10.621 -2.4341 -0.0140  3.1936
   26MOL0     H 3398   1.922   9.389  10.508  2.6988 -0.8786  0.1578
   26MOL0     H 3399   1.936   9.541  10.595 -0.5282  0.6730  0.6847
   26MOL0     H 3400   1.764   9.484  10.767  1.9719  0.8212  0.0752
   26MOL0     H 3401   1.723   9.349  10.676  0.0448  0.1908  3.0053
   26MOL0     H 3402   1.692   9.487  10.480 -2.0458 -2.8796  1.8577
   26MOL0     H 3403   1.724   9.636  10.577 -0.0622  0.4523 -1.7880
   26MOL0     H 3404   1.510   9.451  10.665 -3.4162  2.9521  3.6994
   26MOL0     H 3405   1.536   9.613  10.707 -2.6586  2.6245 -2.3634
   26MOL0     H 3406   1.450   9.491  10.440  1.5645 -1.1582  0.2329
   26MOL0     H 3407   1.478   9.666  10.455 -1.5627  0.6541  0.9314
   26MOL0     H 3408   1.311   9.690  10.632 -0.0870 -0.6120  1.3454
   26MOL0     H 3409   1.289   9.518  10.628  3.7291 -1.9165 -0.0368
   26MOL0     H 3410   1.205   9.700  10.390 -2.2460 -0.9091 -1.7017
   26MOL0     H 3411   1.186   9.524  10.406 -2.5229  0.2756  1.3094
   26MOL0     H 3412   1.060   9.740  10.586  2.5506 -1.3182  2.1734
   26MOL0     H 3413   1.052   9.565  10.621  1.6769 -1.2184 -0.1959
   26MOL0     H 3414   2.179   9.177  10.732  0.5495 -0.2046 -2.0279
   26MOL0     H 3415   2.436   9.209  10.755 -0.1108  0.3336  1.3211
   26MOL0     H 3416   2.799   9.358  10.684  2.0396 -0.4264 -2.4954
   26MOL0     H 3417   3.040   9.351  10.729  0.7864  0.2735  1.4467
   26MOL0     H 3418   4.524   8.298  11.102  2.0287  0.1424  2.8319
   26MOL0     H 3419   4.700   8.123  11.134  0.2447  0.0589  0.5073
   26MOL0     H 3420   5.280   8.236  11.261  0.9508  0.3643 -2.3830
   26MOL0     H 3421   5.467   8.089  11.306  0.1246  1.4872  0.0368
   26MOL0     H 3422   5.630   7.764  11.364 -1.3551 -1.2477 -1.4871
   26MOL0     H 3423   5.547   7.902  11.412  0.2645 -1.1134  0.0978
   26MOL0     H 3424   5.678   8.039  11.278 -2.6189  0.0770  0.6119
   26MOL0     H 3425   5.791   7.922  11.337  0.1124 -0.5053  0.4370
   26MOL0     H 3426   5.825   7.951  11.082  0.9890 -0.2869 -0.4678
   26MOL0     H 3427   5.673   7.901  11.046  2.9713 -2.9117 -2.6925
   26MOL0     H 3428   5.713   7.676  11.136  1.0239 -0.5828  2.3637
   26MOL0     H 3429   5.817   7.721  11.004 -3.8297  0.2094 -1.3514
   26MOL0     H 3430   6.099   7.703  11.320 -0.3586  1.3484  0.1323
   26MOL0     H 3431   5.282   7.783  11.061 -1.0314 -1.0210  0.5947
   26MOL0     H 3432   5.095   7.927  11.033  1.2529  0.5745 -2.0814
   27MOL0     O 3433   0.610   9.800   6.601 -0.6275  0.0980 -0.0561
   27MOL0     C 3434   0.686   9.885   6.644 -0.8644  0.2412 -0.1070
   27MOL0     O 3435   0.650   9.976   6.743 -0.4109 -0.0219  0.1651
   27MOL0     C 3436   0.523   9.970   6.796 -0.3350  0.0499 -0.0177
   27MOL0     C 3437   0.441  10.082   6.782 -0.9798 -0.6176 -0.1001
   27MOL0     C 3438   0.320  10.083   6.847 -0.0258 -0.2127 -0.1754
   27MOL0     C 3439   0.276   9.975   6.922 -0.4495 -0.1078 -0.8084
   27MOL0     O 3440   0.161   9.984   7.005  0.3281  0.1151 -0.5717
   27MOL0     C 3441   0.070   9.870   6.989 -0.2056  0.1835  0.2334
   27MOL0     C 3442  -0.052   9.896   7.079 -0.0668 -0.3732 -0.1312
   27MOL0     C 3443  -0.155   9.779   7.070  0.1701  0.4386  0.2006
   27MOL0     C 3444  -0.245   9.786   7.198 -0.6258  0.8632  1.0539
   27MOL0     C 3445  -0.356   9.675   7.195  0.7212 -0.0305  0.3187
   27MOL0     C 3446  -0.486   9.704   7.284 -0.0053  0.2422 -0.4752
   27MOL0     C 3447  -0.578   9.809   7.239  0.0804  0.0923  0.9072
   27MOL0     C 3448  -0.655   9.759   7.116  0.2042  0.4372 -0.1254
   27MOL0     N 3449  -0.714   9.622   7.144 -0.2231 -0.2529  0.7868
   27MOL0     C 3450  -0.804   9.592   7.241  0.2066 -0.4906 -0.6728
   27MOL0     C 3451  -0.822   9.462   7.236  0.1538  0.1142  0.5585
   27MOL0     C 3452  -0.916   9.383   7.331  0.2909  0.2216 -0.3811
   27MOL0     C 3453  -1.057   9.432   7.316 -0.3163  0.5818  0.1766
   27MOL0     C 3454  -1.167   9.348   7.404  0.1335 -0.6952 -0.4065
   27MOL0     C 3455  -1.293   9.435   7.415  0.0812 -0.2046 -0.0943
   27MOL0     O 3456  -1.393   9.360   7.470  0.2782  0.1789 -0.9668
   27MOL0     C 3457  -1.524   9.394   7.470  0.5536  0.0469 -0.2402
   27MOL0     C 3458  -1.572   9.514   7.408  0.0201  0.7684 -0.5098
   27MOL0     C 3459  -1.707   9.545   7.420 -0.3619  0.7464 -0.9364
   27MOL0     C 3460  -1.795   9.458   7.485  0.8760 -0.4983 -0.0800
   27MOL0     C 3461  -1.936   9.504   7.503 -0.0647 -0.0484  0.0932
   27MOL0     O 3462  -2.036   9.415   7.501 -0.3707 -0.2109 -0.1250
   27MOL0     C 3463  -2.162   9.467   7.499 -1.0808  0.1093 -0.4936
   27MOL0     C 3464  -2.209   9.519   7.382  0.6513 -0.1594 -0.0485
   27MOL0     C 3465  -2.326   9.588   7.374 -0.1225 -0.0383  0.3872
   27MOL0     C 3466  -2.400   9.617   7.490  0.3757 -0.0944  0.1249
   27MOL0     O 3467  -2.502   9.706   7.481  0.1909 -0.3438  0.2108
   27MOL0     C 3468  -2.616   9.670   7.558 -0.2016  0.4288  1.0915
   27MOL0     C 3469  -2.748   9.659   7.473 -0.5132  0.1326 -0.1247
   27MOL0     C 3470  -2.823   9.794   7.420 -0.1296 -0.5279 -0.5087
   27MOL0     C 3471  -2.884   9.853   7.539 -0.0431 -0.1266  0.5905
   27MOL0     C 3472  -2.982   9.964   7.510  0.6946  0.4759  0.1207
   27MOL0     C 3473  -3.072   9.999   7.629  0.4166 -0.3510 -0.5313
   27MOL0     C 3474  -2.991  10.033   7.760 -1.0774 -0.1282  0.1247
   27MOL0     C 3475  -2.895  10.153   7.728 -0.0974  0.5378  0.2605
   27MOL0    Cl 3476  -2.990  10.301   7.696 -0.3994 -0.0024  0.2183
   27MOL0     C 3477  -2.351   9.559   7.608 -0.2875  0.5523  0.5278
   27MOL0     C 3478  -2.240   9.473   7.609 -0.3484  0.3810  1.1244
   27MOL0     O 3479  -1.947   9.622   7.526  0.9577 -1.3093 -0.2238
   27MOL0     C 3480  -1.752   9.332   7.537  0.7102  0.9842  0.0821
   27MOL0     C 3481  -1.614   9.309   7.530  0.2683  0.6043  0.5127
   27MOL0     N 3482  -0.763   9.411   7.117 -0.1142 -0.3265 -0.8524
   27MOL0     N 3483  -0.691   9.512   7.075  0.3859  0.0550  0.1957
   27MOL0     C 3484   0.364   9.857   6.933 -0.3276  0.1937  0.0113
   27MOL0     C 3485   0.487   9.863   6.869  0.0544  0.3523  0.2065
   27MOL0     C 3486   0.824   9.889   6.592  0.5834  0.1612  0.0895
   27MOL0     C 3487   0.908   9.994   6.624  0.4980  0.3417  0.4762
   27MOL0     C 3488   1.044   9.978   6.589 -0.7574  0.0426  0.1025
   27MOL0     C 3489   1.098   9.866   6.527  0.5999  0.1767 -0.0912
   27MOL0     O 3490   1.232   9.846   6.514  0.2878 -0.4962 -0.3321
   27MOL0     C 3491   1.320   9.962   6.548  0.7571  0.3652  0.6316
   27MOL0     C 3492   1.348   9.987   6.692  0.6314 -0.2119 -0.4396
   27MOL0     C 3493   1.476  10.060   6.711 -0.2095  0.2419 -0.6886
   27MOL0     C 3494   1.492  10.090   6.858 -0.3320 -1.0192 -0.8805
   27MOL0     C 3495   1.416  10.207   6.905  0.0297  0.1116  0.2714
   27MOL0     C 3496   1.363  10.296   6.963  0.2726  0.4804 -0.0760
   27MOL0     C 3497   1.011   9.770   6.489  0.7442 -0.6279  0.1680
   27MOL0     C 3498   0.870   9.777   6.518 -0.6643  0.1692  0.3799
   27MOL0     H 3499   0.482  10.166   6.727  0.7884  0.2489  2.3331
   27MOL0     H 3500   0.257  10.171   6.839 -1.0126 -0.7733  1.0559
   27MOL0     H 3501   0.120   9.781   7.027  0.0805 -0.5350 -1.6953
   27MOL0     H 3502   0.040   9.875   6.884 -2.1230  0.3491  0.7533
   27MOL0     H 3503  -0.105   9.989   7.055 -0.0401  0.5995  3.1405
   27MOL0     H 3504  -0.009   9.908   7.179 -0.5528  5.6754 -0.2902
   27MOL0     H 3505  -0.095   9.688   7.073  0.1256  0.4354  1.3158
   27MOL0     H 3506  -0.216   9.789   6.980  1.3203 -1.3827 -0.8425
   27MOL0     H 3507  -0.182   9.762   7.284  1.1163 -1.8552 -0.8024
   27MOL0     H 3508  -0.288   9.886   7.202  1.1031  1.6422  0.9699
   27MOL0     H 3509  -0.322   9.580   7.238 -2.3737 -0.0403  3.1872
   27MOL0     H 3510  -0.395   9.652   7.095  1.3446 -1.4133  0.3677
   27MOL0     H 3511  -0.451   9.745   7.379 -1.0378  1.4127 -0.5804
   27MOL0     H 3512  -0.533   9.606   7.296  1.4873 -0.4936 -0.4350
   27MOL0     H 3513  -0.644   9.846   7.317 -0.7518 -1.3914  0.9511
   27MOL0     H 3514  -0.516   9.887   7.194 -0.3063 -2.0471 -4.0363
   27MOL0     H 3515  -0.581   9.755   7.036  3.4555 -4.4158  2.6258
   27MOL0     H 3516  -0.735   9.828   7.091 -0.5771  0.7038  2.7459
   27MOL0     H 3517  -0.841   9.660   7.316  2.4562 -1.2035  1.2260
   27MOL0     H 3518  -0.881   9.382   7.434  0.8965  1.6754 -0.5447
   27MOL0     H 3519  -0.922   9.279   7.298 -2.2534  0.2395 -0.1944
   27MOL0     H 3520  -1.101   9.448   7.218 -0.4055 -0.7726 -0.0343
   27MOL0     H 3521  -1.059   9.536   7.350  1.0583  1.0547 -1.0495
   27MOL0     H 3522  -1.183   9.250   7.358  0.9600 -2.2586  2.4572
   27MOL0     H 3523  -1.132   9.329   7.505  2.5916  1.2199 -0.8026
   27MOL0     H 3524  -1.324   9.471   7.316  0.1331  1.9478  0.6248
   27MOL0     H 3525  -1.265   9.520   7.477 -1.8193  2.3244 -2.5152
   27MOL0     H 3526  -1.510   9.588   7.360  2.0032 -0.5548 -0.1217
   27MOL0     H 3527  -1.734   9.646   7.389 -1.0107  2.2107  3.6999
   27MOL0     H 3528  -2.140   9.521   7.298 -0.9813 -0.8188 -1.4403
   27MOL0     H 3529  -2.365   9.639   7.287  0.4770 -0.3096 -0.0440
   27MOL0     H 3530  -2.629   9.746   7.636 -0.8114  1.2334  0.2344
   27MOL0     H 3531  -2.607   9.566   7.591  1.5474 -0.4425 -1.7790
   27MOL0     H 3532  -2.816   9.601   7.536  0.9530  0.3413  1.7562
   27MOL0     H 3533  -2.730   9.598   7.384 -0.8153 -0.9949  0.5611
   27MOL0     H 3534  -2.898   9.755   7.350 -2.6207  2.3342  0.3703
   27MOL0     H 3535  -2.753   9.853   7.361 -0.0180 -2.2394 -2.1989
   27MOL0     H 3536  -2.934   9.775   7.598 -1.8697  2.1052  2.1622
   27MOL0     H 3537  -2.805   9.884   7.607  1.5251 -2.7543  0.1093
   27MOL0     H 3538  -3.059   9.924   7.442 -2.3347 -2.3582  4.6729
   27MOL0     H 3539  -2.930  10.051   7.469 -0.1327  1.3999  0.9675
   27MOL0     H 3540  -3.133   9.914   7.661  0.1256 -0.2397 -0.7940
   27MOL0     H 3541  -3.140  10.082   7.612 -1.2430 -1.0436  2.0898
   27MOL0     H 3542  -3.050  10.041   7.852  0.4022  0.4915  1.0638
   27MOL0     H 3543  -2.925   9.946   7.776 -1.1709 -0.5057 -1.4269
   27MOL0     H 3544  -2.822  10.127   7.650  1.2699 -4.0355  2.7183
   27MOL0     H 3545  -2.841  10.177   7.819  0.7356 -2.2996  0.6051
   27MOL0     H 3546  -2.380   9.590   7.708  2.2787 -1.0386  1.8751
   27MOL0     H 3547  -2.197   9.410   7.687 -1.6938 -3.5068 -1.0265
   27MOL0     H 3548  -1.823   9.257   7.569  0.8360  1.6934  2.1576
   27MOL0     H 3549  -1.587   9.214   7.576  1.2130  0.9684  0.7318
   27MOL0     H 3550   0.340   9.780   7.006 -1.3587  1.3122  0.9092
   27MOL0     H 3551   0.557   9.781   6.877 -0.0007  0.3296  0.4920
   27MOL0     H 3552   0.882  10.074   6.694 -1.5097  2.5941 -2.5767
   27MOL0     H 3553   1.100  10.060   6.631 -3.2695  0.1351  3.7685
   27MOL0     H 3554   1.281  10.048   6.492 -1.6987 -1.9653 -1.5553
   27MOL0     H 3555   1.413   9.937   6.497  2.8558  2.3973  3.2306
   27MOL0     H 3556   1.273  10.046   6.747  1.3732  0.8912 -0.5884
   27MOL0     H 3557   1.351   9.887   6.737  2.1673 -1.1025 -2.3998
   27MOL0     H 3558   1.476  10.154   6.655  0.5908 -2.2709 -5.3938
   27MOL0     H 3559   1.562  10.000   6.682  0.7530  1.2380  0.0056
   27MOL0     H 3560   1.492  10.007   6.930 -1.7373  1.1252  1.7781
   27MOL0     H 3561   1.593  10.131   6.861 -1.2878  1.4150  0.1395
   27MOL0     H 3562   1.304  10.376   7.004 -1.3282  0.2680 -1.8203
   27MOL0     H 3563   1.064   9.690   6.439 -0.1707 -0.3208 -1.3601
   27MOL0     H 3564   0.810   9.693   6.483  0.6443 -0.8663  0.5542
   28MOL0     O 3565   7.277   1.031   8.788  0.5267 -0.5994  0.0039
   28MOL0     C 3566   7.251   1.032   8.912  0.1190 -0.0849  0.4562
   28MOL0     O 3567   7.123   1.032   8.963  0.3763 -0.4068 -0.2801
   28MOL0     C 3568   7.015   1.057   8.883  0.2632  0.8136 -0.1486
   28MOL0     C 3569   6.895   1.021   8.937 -0.1757  0.0585 -0.1462
   28MOL0     C 3570   6.776   1.032   8.853 -0.3656 -0.5977 -0.3859
   28MOL0     C 3571   6.780   1.105   8.727 -0.1712  0.6126 -0.0487
   28MOL0     O 3572   6.682   1.116   8.634 -0.9360  0.2769  0.7823
   28MOL0     C 3573   6.553   1.068   8.679 -0.5100 -0.5412  0.6136
   28MOL0     C 3574   6.455   1.103   8.565  0.3034 -0.2543 -0.4233
   28MOL0     C 3575   6.311   1.116   8.619  0.1905 -0.1507 -0.5043
   28MOL0     C 3576   6.217   1.140   8.506 -0.9737 -0.1343  0.3576
   28MOL0     C 3577   6.077   1.154   8.562  0.9054 -0.6533  0.8381
   28MOL0     C 3578   5.972   1.168   8.451  0.8707 -0.3035  0.0232
   28MOL0     C 3579   5.829   1.157   8.507  0.3991 -1.3534 -0.0207
   28MOL0     C 3580   5.787   1.011   8.531 -0.0008  0.3912 -0.0160
   28MOL0     N 3581   5.643   0.997   8.517 -0.5240 -0.9234 -0.6713
   28MOL0     C 3582   5.576   1.009   8.398 -0.3182  0.6902 -0.0937
   28MOL0     C 3583   5.447   1.025   8.423  0.5280 -0.6300  0.3166
   28MOL0     C 3584   5.345   1.060   8.315  0.2674 -0.0482  0.2526
   28MOL0     C 3585   5.196   1.030   8.334  0.1882 -0.9398 -0.7613
   28MOL0     C 3586   5.128   1.144   8.416  0.2236  0.9091 -0.6170
   28MOL0     C 3587   4.982   1.096   8.443  0.7251  0.4800  1.2305
   28MOL0     O 3588   4.913   1.142   8.328 -0.0275  0.0994  0.0456
   28MOL0     C 3589   4.781   1.096   8.309  0.8863 -0.1722 -0.4451
   28MOL0     C 3590   4.709   1.140   8.197  0.2244 -1.2825  0.8128
   28MOL0     C 3591   4.574   1.112   8.169 -0.2456  0.0751  0.1610
   28MOL0     C 3592   4.506   1.023   8.262  1.0042 -0.7898  0.2512
   28MOL0     C 3593   4.359   1.000   8.247  0.4327  0.2391  0.4004
   28MOL0     O 3594   4.298   0.902   8.331  0.9441  0.1367  0.4483
   28MOL0     C 3595   4.176   0.852   8.291  1.1026 -0.2002 -0.4768
   28MOL0     C 3596   4.090   0.800   8.389 -0.3886 -0.3618  0.5703
   28MOL0     C 3597   3.957   0.774   8.358  1.0580 -0.6963  0.2825
   28MOL0     C 3598   3.900   0.779   8.230  0.2015  0.4176 -0.2718
   28MOL0     O 3599   3.765   0.761   8.215  0.1012 -0.4038 -0.3914
   28MOL0     C 3600   3.715   0.772   8.082  0.3144  0.3761  0.3830
   28MOL0     C 3601   3.563   0.718   8.072 -0.0754 -0.2394 -0.5711
   28MOL0     C 3602   3.474   0.832   8.129  0.0914 -0.1808  0.1336
   28MOL0     C 3603   3.328   0.791   8.122  0.2680  0.8855 -1.0694
   28MOL0     C 3604   3.226   0.901   8.157  0.4797 -0.1213 -0.2994
   28MOL0     C 3605   3.089   0.844   8.178 -0.5408  0.4358 -0.3951
   28MOL0     C 3606   3.001   0.926   8.281 -0.0463 -0.1843  0.0007
   28MOL0     C 3607   2.856   0.871   8.282 -0.3234 -0.2707  0.9387
   28MOL0    Cl 3608   2.735   0.991   8.344  0.1819  0.4449  0.1922
   28MOL0     C 3609   3.995   0.802   8.129 -0.0968  0.7219 -0.1854
   28MOL0     C 3610   4.123   0.855   8.156 -0.3027 -0.2084  0.4712
   28MOL0     O 3611   4.296   1.074   8.166 -0.7362 -0.0305 -0.7251
   28MOL0     C 3612   4.577   0.967   8.360  0.1602  0.0388 -0.1086
   28MOL0     C 3613   4.709   1.010   8.388  0.7451 -0.0225  0.4145
   28MOL0     N 3614   5.437   1.013   8.558 -1.0102 -0.0680 -0.2984
   28MOL0     N 3615   5.551   0.996   8.617 -0.1706 -0.1908 -0.6020
   28MOL0     C 3616   6.901   1.152   8.689  0.2349  0.0395 -0.7117
   28MOL0     C 3617   7.019   1.139   8.771  0.3271  0.3021  0.4647
   28MOL0     C 3618   7.359   1.041   9.010 -0.0628  0.4127 -0.2218
   28MOL0     C 3619   7.477   1.102   8.974 -0.8295  0.8604 -0.8718
   28MOL0     C 3620   7.572   1.119   9.069 -0.5390 -0.0983  0.8812
   28MOL0     C 3621   7.556   1.081   9.199  0.4099 -0.6914  0.1438
   28MOL0     O 3622   7.648   1.109   9.294  0.0284 -0.6031 -0.2935
   28MOL0     C 3623   7.749   1.009   9.295 -0.0253 -0.2715  0.4430
   28MOL0     C 3624   7.819   1.036   9.430 -0.1790 -0.8031 -0.3032
   28MOL0     C 3625   7.940   0.942   9.440  0.2469  0.2938  0.5191
   28MOL0     C 3626   8.030   0.986   9.554 -0.0745  0.8005 -0.2701
   28MOL0     C 3627   7.965   0.968   9.684  0.1150 -0.1843 -0.0652
   28MOL0     C 3628   7.927   0.953   9.787  0.0719  0.8442 -1.1105
   28MOL0     C 3629   7.440   1.006   9.224 -0.1037 -0.0717 -0.2401
   28MOL0     C 3630   7.344   0.982   9.130 -0.3765 -0.0102 -0.3782
   28MOL0     H 3631   6.886   0.946   9.015  0.2874  2.2807  2.1615
   28MOL0     H 3632   6.685   0.982   8.884 -0.9877 -0.9331 -2.5797
   28MOL0     H 3633   6.520   1.118   8.770  1.6675 -0.6532  1.5180
   28MOL0     H 3634   6.553   0.961   8.704  2.6835 -0.6120  0.7507
   28MOL0     H 3635   6.449   1.024   8.490 -2.2672  1.3393 -2.1023
   28MOL0     H 3636   6.489   1.188   8.504 -0.4975 -1.2440 -2.3332
   28MOL0     H 3637   6.308   1.198   8.691 -0.1702 -0.5653 -0.0419
   28MOL0     H 3638   6.285   1.022   8.668 -2.1477 -0.3296 -1.8982
   28MOL0     H 3639   6.244   1.225   8.443  0.5224 -0.8120  0.0527
   28MOL0     H 3640   6.217   1.064   8.428 -0.2774 -0.8596  1.0419
   28MOL0     H 3641   6.076   1.249   8.615 -1.0359 -0.1616  0.0263
   28MOL0     H 3642   6.055   1.073   8.633  0.9066  0.7235  2.4578
   28MOL0     H 3643   5.982   1.091   8.374  1.9674 -0.5301  0.3633
   28MOL0     H 3644   5.997   1.264   8.405  1.3061 -0.0233  0.8221
   28MOL0     H 3645   5.835   1.212   8.602  2.7178  2.6315 -2.2032
   28MOL0     H 3646   5.766   1.208   8.434 -0.6558 -3.4543 -0.6530
   28MOL0     H 3647   5.820   0.979   8.631  2.1779  2.8766  0.1840
   28MOL0     H 3648   5.827   0.944   8.455 -1.2964  0.9669 -1.2468
   28MOL0     H 3649   5.629   1.010   8.303  0.9701  0.8951  0.6055
   28MOL0     H 3650   5.385   0.995   8.237  0.1403 -0.4974  0.5574
   28MOL0     H 3651   5.351   1.160   8.270 -1.4578 -1.2419 -2.9353
   28MOL0     H 3652   5.182   0.933   8.381  1.3329 -0.9595 -0.4291
   28MOL0     H 3653   5.129   1.027   8.248 -0.8412  2.9505 -0.3269
   28MOL0     H 3654   5.185   1.157   8.509 -0.3682 -0.5730 -0.0154
   28MOL0     H 3655   5.129   1.242   8.368 -0.0704  0.9962 -0.4479
   28MOL0     H 3656   4.951   1.154   8.530 -0.9254 -0.8400  1.5725
   28MOL0     H 3657   4.975   0.987   8.451  2.1067  0.3948  1.5128
   28MOL0     H 3658   4.758   1.210   8.130  0.1458  1.6729  3.6231
   28MOL0     H 3659   4.534   1.154   8.077  3.6429  0.1592 -1.6739
   28MOL0     H 3660   4.127   0.810   8.491  0.4835  2.2251  0.0770
   28MOL0     H 3661   3.892   0.750   8.442 -4.2315  0.1035 -3.1239
   28MOL0     H 3662   3.779   0.718   8.012  0.2745  0.8131  0.0081
   28MOL0     H 3663   3.713   0.878   8.054 -1.1045 -0.1909 -1.8875
   28MOL0     H 3664   3.545   0.628   8.132 -0.9250  2.1983  3.1012
   28MOL0     H 3665   3.546   0.693   7.967  1.7354 -1.9409 -0.5150
   28MOL0     H 3666   3.487   0.925   8.073 -0.4913  0.7296  1.4795
   28MOL0     H 3667   3.495   0.873   8.228 -2.9544  2.8658 -0.2859
   28MOL0     H 3668   3.320   0.760   8.017  1.7238  1.0543 -1.2600
   28MOL0     H 3669   3.319   0.710   8.195 -1.5965  1.5201 -0.5306
   28MOL0     H 3670   3.241   0.968   8.073  1.1730  2.5686  1.8269
   28MOL0     H 3671   3.258   0.954   8.248 -3.2948  0.2628  0.9854
   28MOL0     H 3672   3.098   0.742   8.214 -0.7657  0.2472 -0.8631
   28MOL0     H 3673   3.047   0.825   8.078  1.1419 -0.3633 -0.9917
   28MOL0     H 3674   3.052   0.907   8.376 -0.0670 -0.7006 -0.0876
   28MOL0     H 3675   3.002   1.033   8.259 -1.1096  0.0370  0.9399
   28MOL0     H 3676   2.858   0.771   8.327 -1.0703  0.2500  2.1687
   28MOL0     H 3677   2.823   0.863   8.178 -0.8270 -0.1750  1.0903
   28MOL0     H 3678   3.959   0.794   8.027 -1.3825 -2.8095  0.4107
   28MOL0     H 3679   4.195   0.888   8.081  1.8516 -1.8955  1.7076
   28MOL0     H 3680   4.528   0.894   8.424  0.6422  0.3138  0.5783
   28MOL0     H 3681   4.749   0.968   8.480 -1.7085 -0.6869  1.2688
   28MOL0     H 3682   6.893   1.207   8.595 -0.7158 -0.3609 -0.8765
   28MOL0     H 3683   7.103   1.186   8.720 -0.1522 -0.0084 -0.6266
   28MOL0     H 3684   7.488   1.136   8.872 -0.1756  2.3120 -0.3466
   28MOL0     H 3685   7.658   1.180   9.044 -0.0057 -1.8848 -2.2873
   28MOL0     H 3686   7.814   1.010   9.206 -1.8829  1.4237 -0.9922
   28MOL0     H 3687   7.702   0.910   9.295 -0.8540  0.0007 -2.6347
   28MOL0     H 3688   7.863   1.136   9.434  1.2751 -1.3725 -1.0316
   28MOL0     H 3689   7.760   1.017   9.520  1.2844  1.0261  1.1287
   28MOL0     H 3690   7.995   0.946   9.346  1.8171 -1.5836  1.3062
   28MOL0     H 3691   7.894   0.845   9.462 -0.2681  1.0367  3.0595
   28MOL0     H 3692   8.123   0.929   9.547 -0.6919 -0.0847 -1.9469
   28MOL0     H 3693   8.043   1.094   9.543  1.3893  0.8162  1.1393
   28MOL0     H 3694   7.880   0.948   9.883 -3.7712  0.9255 -2.7753
   28MOL0     H 3695   7.444   0.981   9.329 -0.2077 -0.7630 -0.3978
   28MOL0     H 3696   7.252   0.927   9.147 -1.0476  1.5995  1.7578
   29MOL0     O 3697   2.295   5.821   6.684  0.2484 -0.7574  0.3043
   29MOL0     C 3698   2.271   5.940   6.705  0.3144 -0.3207 -0.5085
   29MOL0     O 3699   2.150   5.995   6.731 -0.2600  0.3253  0.3338
   29MOL0     C 3700   2.042   5.911   6.696 -0.3521 -0.9612 -0.2164
   29MOL0     C 3701   2.023   5.789   6.759  0.0800 -0.1351 -0.5036
   29MOL0     C 3702   1.909   5.714   6.727  0.0590  0.4448 -0.1985
   29MOL0     C 3703   1.804   5.768   6.651 -0.3086 -0.4315 -0.3612
   29MOL0     O 3704   1.688   5.695   6.638 -0.0579 -0.5581 -0.1057
   29MOL0     C 3705   1.627   5.693   6.514  0.5488  0.0388  0.3172
   29MOL0     C 3706   1.523   5.579   6.511 -0.7524 -0.2217 -0.5158
   29MOL0     C 3707   1.405   5.601   6.617  0.7599  0.6819 -0.1393
   29MOL0     C 3708   1.317   5.475   6.614 -0.1417 -0.2434 -0.0562
   29MOL0     C 3709   1.220   5.463   6.735  0.3927 -0.3135 -0.0069
   29MOL0     C 3710   1.143   5.594   6.763 -0.6316  0.0200 -0.4668
   29MOL0     C 3711   1.049   5.580   6.883  1.0115  0.0189  1.4060
   29MOL0     C 3712   0.972   5.712   6.904  0.8772 -0.2562 -0.0954
   29MOL0     N 3713   0.926   5.730   7.048  0.1123 -1.0810 -0.0151
   29MOL0     C 3714   0.817   5.673   7.111 -0.1198 -0.1346 -0.0957
   29MOL0     C 3715   0.833   5.724   7.236 -0.1120  0.7410 -0.3996
   29MOL0     C 3716   0.748   5.689   7.360 -0.0763 -0.3001  0.5940
   29MOL0     C 3717   0.634   5.591   7.330  0.5331  0.4973  0.8230
   29MOL0     C 3718   0.591   5.518   7.454 -0.7790  0.4404  0.1241
   29MOL0     C 3719   0.463   5.441   7.436 -1.0292 -0.0295 -0.1675
   29MOL0     O 3720   0.438   5.362   7.550  0.0671 -0.1288  0.6150
   29MOL0     C 3721   0.311   5.380   7.599 -0.0211  0.4351  1.2613
   29MOL0     C 3722   0.198   5.340   7.521  0.6380  0.3221 -0.6671
   29MOL0     C 3723   0.076   5.340   7.576 -0.1326  0.0709  0.4086
   29MOL0     C 3724   0.044   5.392   7.701 -0.5343 -0.2171  0.1824
   29MOL0     C 3725  -0.090   5.381   7.753  0.0418  0.5293  0.3347
   29MOL0     O 3726  -0.183   5.295   7.691  0.5482  0.1915  0.5053
   29MOL0     C 3727  -0.303   5.299   7.754  0.3563  0.2245 -0.5083
   29MOL0     C 3728  -0.425   5.341   7.698 -0.3403  1.0141  0.6899
   29MOL0     C 3729  -0.545   5.308   7.764 -0.1106 -0.9358 -0.2000
   29MOL0     C 3730  -0.554   5.250   7.892 -0.6936  0.1838  0.6153
   29MOL0     O 3731  -0.661   5.209   7.961 -0.3495 -0.0670 -0.4407
   29MOL0     C 3732  -0.801   5.224   7.918  0.0230  0.4389 -0.1059
   29MOL0     C 3733  -0.893   5.128   8.005 -1.0297  0.2433 -0.5266
   29MOL0     C 3734  -1.040   5.160   7.989  0.3727 -0.2600  0.0814
   29MOL0     C 3735  -1.120   5.095   8.104 -0.5428  0.1997 -0.2341
   29MOL0     C 3736  -1.260   5.154   8.104  0.2471 -0.0745 -0.0735
   29MOL0     C 3737  -1.344   5.106   8.224  0.5823  0.3258 -0.2689
   29MOL0     C 3738  -1.457   5.196   8.241  0.2882  0.0341 -0.1619
   29MOL0     C 3739  -1.550   5.123   8.338 -0.2270  0.6835 -0.1044
   29MOL0    Cl 3740  -1.691   5.228   8.369 -0.1078  0.7725  0.2230
   29MOL0     C 3741  -0.431   5.222   7.953  0.8849  0.0153 -0.1684
   29MOL0     C 3742  -0.306   5.239   7.883  0.2570  0.0644 -0.6974
   29MOL0     O 3743  -0.114   5.462   7.838  0.4093  0.0624  0.2182
   29MOL0     C 3744   0.155   5.431   7.771 -0.1113 -0.4346  0.2877
   29MOL0     C 3745   0.282   5.428   7.729 -0.0056 -0.1880  0.0534
   29MOL0     N 3746   0.941   5.807   7.245  0.3876  0.1437 -0.8588
   29MOL0     N 3747   0.998   5.815   7.135  0.1491  0.3014  0.5527
   29MOL0     C 3748   1.822   5.897   6.594 -0.7886 -1.0385 -0.2943
   29MOL0     C 3749   1.942   5.969   6.615  1.4384 -0.4079  0.2541
   29MOL0     C 3750   2.390   6.036   6.704  0.1690  0.0100  0.2357
   29MOL0     C 3751   2.387   6.162   6.759 -0.3451 -0.3739 -0.1983
   29MOL0     C 3752   2.495   6.251   6.754  0.1904  0.1170  0.3428
   29MOL0     C 3753   2.618   6.208   6.705 -0.3266 -0.3644  0.3843
   29MOL0     O 3754   2.731   6.291   6.709  1.0870  0.1952 -0.0575
   29MOL0     C 3755   2.849   6.246   6.645  0.6126 -0.0874 -1.1868
   29MOL0     C 3756   2.973   6.326   6.676 -0.1402  0.1183 -0.5541
   29MOL0     C 3757   3.101   6.242   6.648  0.1082 -0.6703  0.2135
   29MOL0     C 3758   3.233   6.326   6.668  0.5719 -0.4846  0.1729
   29MOL0     C 3759   3.337   6.236   6.631 -0.2921 -0.0741 -0.3953
   29MOL0     C 3760   3.432   6.177   6.589 -1.0860  0.1100 -0.3744
   29MOL0     C 3761   2.629   6.082   6.653 -0.1322  0.0670 -0.1161
   29MOL0     C 3762   2.518   5.997   6.643 -0.5037  0.0361  0.3777
   29MOL0     H 3763   2.101   5.760   6.829  0.4562 -0.8835 -1.2136
   29MOL0     H 3764   1.899   5.613   6.765  2.7941  1.1085  2.7727
   29MOL0     H 3765   1.689   5.671   6.426 -2.1772 -1.6422 -1.3303
   29MOL0     H 3766   1.575   5.789   6.503 -1.6882 -1.2254 -0.9675
   29MOL0     H 3767   1.561   5.476   6.514  0.4561  0.1951  2.3776
   29MOL0     H 3768   1.480   5.577   6.411 -3.0627 -0.8106  0.4161
   29MOL0     H 3769   1.350   5.693   6.595  1.7922  0.5914 -3.6631
   29MOL0     H 3770   1.452   5.613   6.715 -3.2201 -0.2782  2.1404
   29MOL0     H 3771   1.265   5.464   6.518 -0.5654 -0.0891  0.1537
   29MOL0     H 3772   1.387   5.390   6.615  0.8343  0.4642  3.2133
   29MOL0     H 3773   1.290   5.452   6.819  2.8436 -0.7982 -1.9827
   29MOL0     H 3774   1.147   5.382   6.734  0.0810 -0.0445  0.4562
   29MOL0     H 3775   1.077   5.608   6.677 -0.9260  0.3362 -0.1946
   29MOL0     H 3776   1.203   5.684   6.779 -1.3120  0.4501 -0.2799
   29MOL0     H 3777   0.987   5.492   6.862  2.5695 -0.7059 -0.3725
   29MOL0     H 3778   1.092   5.557   6.981 -1.1823 -2.0118  1.9938
   29MOL0     H 3779   0.879   5.705   6.847  1.4447  2.4699 -1.5357
   29MOL0     H 3780   1.033   5.802   6.888  0.2412  0.2246  0.1568
   29MOL0     H 3781   0.743   5.605   7.070 -0.5350 -1.0463  2.0267
   29MOL0     H 3782   0.721   5.781   7.412  0.6737 -0.2612  0.9291
   29MOL0     H 3783   0.812   5.635   7.431  0.9694  1.6693  1.2192
   29MOL0     H 3784   0.679   5.505   7.279  0.1476 -0.8871  2.6859
   29MOL0     H 3785   0.548   5.630   7.275 -0.9089 -2.6363  0.6262
   29MOL0     H 3786   0.682   5.464   7.482  0.4179  2.2918 -0.0526
   29MOL0     H 3787   0.560   5.586   7.534  0.0549  0.9602  0.0141
   29MOL0     H 3788   0.475   5.373   7.351  0.6729 -0.8586  0.6927
   29MOL0     H 3789   0.391   5.519   7.409  0.6135  1.8062  0.4770
   29MOL0     H 3790   0.195   5.290   7.425 -1.7303  0.5720 -0.7820
   29MOL0     H 3791  -0.005   5.302   7.514  1.5680 -0.2800 -1.7236
   29MOL0     H 3792  -0.418   5.391   7.602 -3.6726  2.1258  0.9132
   29MOL0     H 3793  -0.637   5.325   7.709  0.5524  2.2156 -0.5239
   29MOL0     H 3794  -0.802   5.209   7.809  0.4630 -0.4674  0.0001
   29MOL0     H 3795  -0.838   5.324   7.941  1.8584  1.6361 -1.9415
   29MOL0     H 3796  -0.853   5.136   8.106 -0.2877 -1.9517 -0.5973
   29MOL0     H 3797  -0.876   5.023   7.980  0.4604  0.3743 -0.1434
   29MOL0     H 3798  -1.070   5.118   7.893  1.3117 -0.9829  0.0931
   29MOL0     H 3799  -1.052   5.268   7.981 -1.9126 -0.5556 -1.6195
   29MOL0     H 3800  -1.121   4.987   8.088  2.2127  0.4423 -2.8266
   29MOL0     H 3801  -1.074   5.132   8.197  1.0676  0.7916 -1.2303
   29MOL0     H 3802  -1.303   5.118   8.010  1.7370 -4.5463  0.6850
   29MOL0     H 3803  -1.255   5.263   8.098 -0.1036 -0.1118 -1.6091
   29MOL0     H 3804  -1.293   5.101   8.320 -1.2362 -0.6266  0.6932
   29MOL0     H 3805  -1.371   5.000   8.217  2.7121 -0.3585  0.8391
   29MOL0     H 3806  -1.422   5.291   8.281 -1.3135  0.2222  0.8791
   29MOL0     H 3807  -1.507   5.204   8.144 -1.4178 -4.0891  0.1913
   29MOL0     H 3808  -1.492   5.091   8.425  2.2072  1.9332 -1.1701
   29MOL0     H 3809  -1.586   5.030   8.293 -0.2751 -0.6566  2.4793
   29MOL0     H 3810  -0.425   5.176   8.051  0.3735  0.2171 -0.0421
   29MOL0     H 3811  -0.211   5.211   7.926  0.2434  1.6168  0.4300
   29MOL0     H 3812   0.140   5.452   7.876 -0.0916  0.9107  0.0401
   29MOL0     H 3813   0.367   5.461   7.788  0.4558 -0.0809 -0.6578
   29MOL0     H 3814   1.754   5.953   6.531  0.9769 -0.3538 -1.6576
   29MOL0     H 3815   1.967   6.066   6.574 -0.7479 -0.3230 -1.0145
   29MOL0     H 3816   2.295   6.195   6.806 -0.0561  0.5196 -0.2273
   29MOL0     H 3817   2.496   6.353   6.790  2.1737  0.9526 -1.8290
   29MOL0     H 3818   2.843   6.230   6.537 -1.0801 -3.3896 -0.7394
   29MOL0     H 3819   2.881   6.150   6.688 -1.0792  1.0714  3.2694
   29MOL0     H 3820   2.977   6.410   6.606 -2.1499  0.6035 -0.1471
   29MOL0     H 3821   2.964   6.368   6.776  0.4900 -3.1493  1.0114
   29MOL0     H 3822   3.101   6.209   6.544  0.0346 -1.9903  0.6192
   29MOL0     H 3823   3.109   6.151   6.707  0.1604  1.4329  3.7831
   29MOL0     H 3824   3.231   6.403   6.590  2.3804 -1.4520 -0.8894
   29MOL0     H 3825   3.239   6.370   6.767 -1.8482  0.3643  0.0144
   29MOL0     H 3826   3.510   6.124   6.539  0.5980  1.6653  0.5157
   29MOL0     H 3827   2.721   6.046   6.607 -0.6416 -2.4781  0.6638
   29MOL0     H 3828   2.525   5.899   6.598  3.4427  0.7858 -1.0350
   30MOL0     O 3829   0.861   1.097   5.972 -0.3555  0.0673 -0.0998
   30MOL0     C 3830   0.937   1.173   6.036  0.4678 -0.1033  0.5348
   30MOL0     O 3831   0.911   1.301   6.076 -0.0016  0.3317  0.4324
   30MOL0     C 3832   0.794   1.361   6.038 -0.2330  0.6339 -1.1743
   30MOL0     C 3833   0.726   1.354   5.915 -0.1239  0.3386 -0.1095
   30MOL0     C 3834   0.615   1.429   5.892  0.3392  0.7825 -0.1141
   30MOL0     C 3835   0.571   1.522   5.986  1.1022 -0.7091 -0.4737
   30MOL0     O 3836   0.475   1.615   5.950  0.1798  0.2940  0.3905
   30MOL0     C 3837   0.451   1.645   5.814 -0.2071  0.9724  0.6145
   30MOL0     C 3838   0.328   1.746   5.796 -0.5039  0.3024  0.5678
   30MOL0     C 3839   0.304   1.779   5.650 -0.8604  0.3267 -0.3904
   30MOL0     C 3840   0.315   1.934   5.637 -0.2107  0.5595 -0.1685
   30MOL0     C 3841   0.229   1.976   5.517  0.2058  0.8179 -0.4331
   30MOL0     C 3842   0.202   2.125   5.543 -0.1900 -0.6073 -0.1123
   30MOL0     C 3843   0.147   2.188   5.416 -0.2142  0.1099  0.2355
   30MOL0     C 3844   0.160   2.332   5.426 -0.5924  0.0532 -0.0092
   30MOL0     N 3845   0.045   2.392   5.487 -0.2266  0.0421 -0.2704
   30MOL0     C 3846   0.040   2.455   5.608  0.4126  0.3764  0.1044
   30MOL0     C 3847  -0.071   2.525   5.614  0.3111 -0.4779  0.9440
   30MOL0     C 3848  -0.121   2.610   5.726 -0.7086  0.7017  0.6599
   30MOL0     C 3849  -0.240   2.539   5.797 -0.0223  0.2447  0.0839
   30MOL0     C 3850  -0.367   2.611   5.765  0.7586 -0.2018 -0.2534
   30MOL0     C 3851  -0.495   2.581   5.857  0.4304 -0.0051  1.2753
   30MOL0     O 3852  -0.483   2.637   5.987 -0.1240 -0.5235 -0.3842
   30MOL0     C 3853  -0.595   2.645   6.057  0.4622  0.0083  0.1038
   30MOL0     C 3854  -0.582   2.731   6.167  0.3756 -1.5522 -0.2536
   30MOL0     C 3855  -0.677   2.750   6.267  0.8982 -0.3117  0.3288
   30MOL0     C 3856  -0.805   2.680   6.257 -0.5785 -0.3283 -0.0065
   30MOL0     C 3857  -0.907   2.684   6.360 -0.4912  0.7041 -0.1024
   30MOL0     O 3858  -1.029   2.617   6.342 -1.3312 -0.4444 -0.1652
   30MOL0     C 3859  -1.130   2.613   6.438  0.9537  0.0065  0.8487
   30MOL0     C 3860  -1.266   2.593   6.391  0.0079 -0.2378 -0.1561
   30MOL0     C 3861  -1.374   2.591   6.481  0.1636 -0.1237 -0.0671
   30MOL0     C 3862  -1.348   2.605   6.617 -0.1477  0.5711  0.3200
   30MOL0     O 3863  -1.463   2.625   6.692 -0.0735  0.1635 -0.5212
   30MOL0     C 3864  -1.453   2.672   6.824  0.7164 -0.3170 -0.2433
   30MOL0     C 3865  -1.454   2.826   6.841 -0.3275 -0.7458 -0.2016
   30MOL0     C 3866  -1.317   2.893   6.865 -1.6638  1.2309  0.1938
   30MOL0     C 3867  -1.237   2.821   6.968 -0.5992 -0.0253 -0.5566
   30MOL0     C 3868  -1.137   2.919   7.039  0.3231  0.7359  0.1269
   30MOL0     C 3869  -1.040   2.834   7.123 -0.4450 -0.1389 -0.0483
   30MOL0     C 3870  -0.938   2.928   7.186 -0.2978  0.0392  0.1318
   30MOL0     C 3871  -0.831   2.869   7.277  0.1962  0.7585  0.4283
   30MOL0    Cl 3872  -0.720   2.984   7.332 -0.7405  0.1251  0.1998
   30MOL0     C 3873  -1.216   2.600   6.665  0.2554  0.0456  0.0727
   30MOL0     C 3874  -1.112   2.613   6.577 -0.6649 -0.2395  0.6462
   30MOL0     O 3875  -0.876   2.741   6.459 -0.4212 -0.3723  0.0635
   30MOL0     C 3876  -0.819   2.598   6.145 -0.3744  1.6374 -0.1178
   30MOL0     C 3877  -0.717   2.575   6.046 -0.0422 -0.4670  0.2052
   30MOL0     N 3878  -0.137   2.512   5.488 -0.6888  0.8366  1.4108
   30MOL0     N 3879  -0.055   2.434   5.417 -0.2589  0.3422 -0.1802
   30MOL0     C 3880   0.636   1.526   6.112  0.7237 -1.2129  0.6140
   30MOL0     C 3881   0.749   1.441   6.138 -0.3096 -0.5850 -0.3004
   30MOL0     C 3882   1.067   1.113   6.081 -0.0853 -0.3408 -0.1575
   30MOL0     C 3883   1.088   0.974   6.066 -0.1790  0.0273  0.2707
   30MOL0     C 3884   1.201   0.912   6.119  0.2212 -0.6671  0.0310
   30MOL0     C 3885   1.293   0.976   6.207 -0.4771 -0.4924  0.3172
   30MOL0     O 3886   1.394   0.928   6.284  0.2865 -0.1805  0.9229
   30MOL0     C 3887   1.483   0.852   6.213 -0.7535  1.2458 -0.6347
   30MOL0     C 3888   1.573   0.800   6.315 -0.9198  0.1377 -0.0093
   30MOL0     C 3889   1.717   0.786   6.261 -0.3621  0.4328  0.1828
   30MOL0     C 3890   1.820   0.765   6.375 -0.3867 -0.3650 -0.2291
   30MOL0     C 3891   1.803   0.631   6.448 -0.0780 -0.3098 -0.0766
   30MOL0     C 3892   1.801   0.537   6.521 -0.7737  0.3821 -0.6120
   30MOL0     C 3893   1.261   1.110   6.222 -0.0915 -0.5665  0.1707
   30MOL0     C 3894   1.151   1.181   6.161  1.0577 -0.1138 -0.8436
   30MOL0     H 3895   0.767   1.299   5.831  2.1008 -1.4682  2.0067
   30MOL0     H 3896   0.572   1.402   5.796  0.6362 -1.7543  0.3791
   30MOL0     H 3897   0.426   1.554   5.759 -2.1454  0.8233  1.6666
   30MOL0     H 3898   0.541   1.691   5.773 -0.9449  2.5279  0.6673
   30MOL0     H 3899   0.348   1.834   5.857  1.9463  0.2531 -0.0157
   30MOL0     H 3900   0.234   1.702   5.830 -1.7498  3.4051  1.4531
   30MOL0     H 3901   0.205   1.739   5.624 -0.1911 -0.6263 -1.5193
   30MOL0     H 3902   0.372   1.732   5.579  0.8964 -3.1856  3.2191
   30MOL0     H 3903   0.267   1.982   5.723  1.0328 -0.0949  0.9312
   30MOL0     H 3904   0.415   1.978   5.625 -0.9713  2.6129  0.5941
   30MOL0     H 3905   0.132   1.927   5.529  0.4643  0.6423  1.1805
   30MOL0     H 3906   0.278   1.954   5.421 -1.3530  3.2789 -1.9032
   30MOL0     H 3907   0.293   2.179   5.569 -0.5880 -0.5198  1.1645
   30MOL0     H 3908   0.135   2.128   5.629  0.2478 -1.7179  0.2798
   30MOL0     H 3909   0.202   2.147   5.331  1.5987 -0.9871  1.8413
   30MOL0     H 3910   0.043   2.162   5.395 -0.2508  0.7267 -0.3649
   30MOL0     H 3911   0.170   2.350   5.319 -2.0708 -4.3769 -1.0930
   30MOL0     H 3912   0.252   2.366   5.475  0.3408 -2.0832 -0.1648
   30MOL0     H 3913   0.122   2.458   5.680  0.1608  0.9579  0.3738
   30MOL0     H 3914  -0.134   2.709   5.681  2.2444  1.3612  1.0176
   30MOL0     H 3915  -0.030   2.634   5.783 -0.0929  0.5907 -0.2585
   30MOL0     H 3916  -0.230   2.552   5.905 -2.9462  0.6831  0.3822
   30MOL0     H 3917  -0.247   2.435   5.763 -2.0286  0.9356 -1.8058
   30MOL0     H 3918  -0.342   2.717   5.770  1.4444 -0.2933 -1.4922
   30MOL0     H 3919  -0.409   2.606   5.664 -0.0520  2.1802 -0.0833
   30MOL0     H 3920  -0.513   2.473   5.863 -0.4239  0.0733  0.3639
   30MOL0     H 3921  -0.582   2.626   5.808  1.4784 -1.5089 -2.3065
   30MOL0     H 3922  -0.485   2.777   6.179  0.3667 -1.3593 -0.9135
   30MOL0     H 3923  -0.654   2.818   6.347  0.4833 -2.2770  2.2105
   30MOL0     H 3924  -1.274   2.576   6.284  0.5500  1.4308 -0.4938
   30MOL0     H 3925  -1.472   2.576   6.438 -0.0168  1.5749 -0.2808
   30MOL0     H 3926  -1.368   2.625   6.874  0.0944 -3.0050 -1.5063
   30MOL0     H 3927  -1.542   2.640   6.878  2.0789 -1.2888  1.5705
   30MOL0     H 3928  -1.519   2.837   6.928  2.5311  0.3758  1.9418
   30MOL0     H 3929  -1.501   2.875   6.755 -3.0735 -2.6775  0.0863
   30MOL0     H 3930  -1.322   2.998   6.896  2.8321  1.4237  1.0585
   30MOL0     H 3931  -1.264   2.894   6.770 -1.2043  1.4715  0.4486
   30MOL0     H 3932  -1.310   2.788   7.042 -1.8822 -0.4784 -1.9655
   30MOL0     H 3933  -1.187   2.731   6.933  1.9772  1.0893 -0.0186
   30MOL0     H 3934  -1.193   2.987   7.103  1.8710  1.2614  0.9673
   30MOL0     H 3935  -1.091   2.978   6.959  0.9360 -1.6679 -1.4075
   30MOL0     H 3936  -0.976   2.766   7.066  1.3378 -1.2104  3.0046
   30MOL0     H 3937  -1.103   2.777   7.193 -1.2268  2.0649  1.1525
   30MOL0     H 3938  -0.893   2.985   7.104  1.3890 -0.2440  0.8124
   30MOL0     H 3939  -0.997   2.996   7.247 -0.8173 -1.8766  1.8750
   30MOL0     H 3940  -0.787   2.794   7.211 -2.3027  0.6862 -1.3091
   30MOL0     H 3941  -0.876   2.819   7.364  1.2221 -0.2274  0.4243
   30MOL0     H 3942  -1.201   2.593   6.772  0.3164  0.1415  0.0698
   30MOL0     H 3943  -1.012   2.610   6.618  0.5147 -1.2266 -2.0947
   30MOL0     H 3944  -0.900   2.529   6.127 -0.1662  1.9709 -2.7483
   30MOL0     H 3945  -0.735   2.499   5.970 -1.5903 -0.9290  0.9971
   30MOL0     H 3946   0.601   1.592   6.191 -0.6838 -0.9361 -0.2192
   30MOL0     H 3947   0.800   1.433   6.234  0.0553 -0.5345 -0.4905
   30MOL0     H 3948   1.029   0.906   6.005  1.8474 -1.0574 -0.5773
   30MOL0     H 3949   1.206   0.804   6.111  0.3871 -0.5271 -2.2909
   30MOL0     H 3950   1.547   0.918   6.154  2.7056  0.1907  1.6047
   30MOL0     H 3951   1.444   0.773   6.149  0.9143 -1.1459  1.1053
   30MOL0     H 3952   1.571   0.871   6.398 -0.3732  1.1274 -0.8191
   30MOL0     H 3953   1.542   0.700   6.347 -0.1448  0.1100  0.6489
   30MOL0     H 3954   1.753   0.871   6.203  2.4087 -1.1260 -0.5878
   30MOL0     H 3955   1.717   0.693   6.203 -1.5848  1.6299 -1.8495
   30MOL0     H 3956   1.919   0.761   6.329 -0.1627  0.4020  0.1591
   30MOL0     H 3957   1.828   0.850   6.444  2.1486 -3.8872  4.3933
   30MOL0     H 3958   1.792   0.449   6.580 -0.2394  1.8546  1.8271
   30MOL0     H 3959   1.331   1.168   6.282  1.4747 -1.8458 -0.3616
   30MOL0     H 3960   1.150   1.289   6.168  0.8370 -0.1653  0.0140
   31MOL0     O 3961   7.502   7.918   6.337  0.6215 -0.7939  0.1997
   31MOL0     C 3962   7.588   8.005   6.326 -1.2288  0.6833  0.7948
   31MOL0     O 3963   7.570   8.139   6.340 -0.0856  0.0361 -0.5796
   31MOL0     C 3964   7.450   8.170   6.398  0.0175 -0.1889 -0.1497
   31MOL0     C 3965   7.338   8.216   6.328  0.7731 -0.1577  0.6731
   31MOL0     C 3966   7.233   8.254   6.408  0.6317  0.2116 -0.7877
   31MOL0     C 3967   7.229   8.244   6.551 -0.8324 -0.1837 -0.3103
   31MOL0     O 3968   7.111   8.267   6.616  0.4136 -0.1020 -0.1863
   31MOL0     C 3969   7.072   8.194   6.730 -0.0370 -0.5517 -0.9639
   31MOL0     C 3970   6.928   8.232   6.770  0.3162  0.2746  0.8143
   31MOL0     C 3971   6.897   8.374   6.786  0.0637  0.0836 -0.6767
   31MOL0     C 3972   6.749   8.392   6.800 -0.4241  0.7302  0.2645
   31MOL0     C 3973   6.705   8.540   6.845 -0.0134  0.6867 -0.8304
   31MOL0     C 3974   6.564   8.575   6.786 -0.7747  0.4691  0.7320
   31MOL0     C 3975   6.445   8.496   6.852 -0.2966  0.2652  1.0549
   31MOL0     C 3976   6.425   8.517   7.002 -0.2633  0.6279  0.1952
   31MOL0     N 3977   6.394   8.654   7.037  0.5723  0.1913 -1.0470
   31MOL0     C 3978   6.269   8.700   7.024  0.1155 -0.6505 -0.6076
   31MOL0     C 3979   6.284   8.830   7.044  0.1284 -0.7340  0.2078
   31MOL0     C 3980   6.174   8.933   7.022 -0.7157  0.1532 -0.6867
   31MOL0     C 3981   6.133   9.001   7.151 -0.1776 -0.1037 -0.7878
   31MOL0     C 3982   6.068   8.914   7.258 -0.1222  0.0121  0.2629
   31MOL0     C 3983   5.920   8.936   7.267 -1.0371  1.5811 -0.1087
   31MOL0     O 3984   5.884   9.065   7.325  1.0343  0.3749 -0.1925
   31MOL0     C 3985   5.757   9.084   7.372  0.0246 -0.0956 -0.0982
   31MOL0     C 3986   5.733   9.216   7.408  0.4056  0.4280  0.1775
   31MOL0     C 3987   5.604   9.249   7.464 -0.1786  1.4540 -0.4045
   31MOL0     C 3988   5.503   9.153   7.472  0.2764  0.8568 -0.1569
   31MOL0     C 3989   5.364   9.189   7.520 -0.4650  0.1212 -1.4314
   31MOL0     O 3990   5.272   9.095   7.505 -0.0210 -0.6367  0.0542
   31MOL0     C 3991   5.152   9.085   7.576 -0.2002  0.2470  0.4762
   31MOL0     C 3992   5.118   9.159   7.693  0.3755  0.7494 -0.6256
   31MOL0     C 3993   4.987   9.148   7.747 -0.2250  0.6309  0.7685
   31MOL0     C 3994   4.897   9.057   7.692 -0.2590  0.0075  0.0188
   31MOL0     O 3995   4.774   9.060   7.757  1.0084 -0.0121 -0.2343
   31MOL0     C 3996   4.666   8.970   7.721 -0.2561 -0.0772  0.1611
   31MOL0     C 3997   4.545   8.988   7.817 -0.7100 -0.2294  1.3843
   31MOL0     C 3998   4.586   8.944   7.961  0.1363  0.0697 -0.5129
   31MOL0     C 3999   4.479   8.950   8.071  0.1464  0.2955 -0.0979
   31MOL0     C 4000   4.355   8.863   8.034  0.4331 -0.8100 -0.0789
   31MOL0     C 4001   4.378   8.716   8.015 -0.0575  0.0819  0.1856
   31MOL0     C 4002   4.257   8.644   7.959 -0.2195  0.3144  0.4754
   31MOL0     C 4003   4.118   8.685   8.015 -0.1010 -0.0842 -0.3862
   31MOL0    Cl 4004   3.993   8.565   7.981 -0.0678 -0.4901  0.0034
   31MOL0     C 4005   4.943   8.978   7.586  0.0538  0.3944 -0.2126
   31MOL0     C 4006   5.062   8.997   7.531  0.2108  0.3946 -0.4498
   31MOL0     O 4007   5.355   9.292   7.590  0.1732  0.4048  0.0458
   31MOL0     C 4008   5.531   9.023   7.427 -0.3964  0.8369 -0.5042
   31MOL0     C 4009   5.654   8.990   7.377 -1.0129  0.1814  0.4642
   31MOL0     N 4010   6.417   8.867   7.074 -0.0773 -0.5797 -0.0189
   31MOL0     N 4011   6.483   8.753   7.072  0.2077 -0.6423 -0.0206
   31MOL0     C 4012   7.345   8.190   6.619  0.3218  0.6768  0.3681
   31MOL0     C 4013   7.450   8.150   6.541  0.1084  0.4282 -0.0045
   31MOL0     C 4014   7.714   7.962   6.254 -0.3254 -0.5368  0.0218
   31MOL0     C 4015   7.741   7.826   6.228  0.8322  0.3180 -1.2464
   31MOL0     C 4016   7.862   7.787   6.173  0.3866  0.5342 -0.0730
   31MOL0     C 4017   7.961   7.882   6.142 -0.1476  0.1681 -0.5565
   31MOL0     O 4018   8.072   7.834   6.081  0.2053  0.8386  0.3562
   31MOL0     C 4019   8.197   7.911   6.105  0.2519 -0.5650 -0.3685
   31MOL0     C 4020   8.307   7.805   6.098 -0.4038  0.8172  0.3502
   31MOL0     C 4021   8.443   7.868   6.133 -0.7359  0.0941  0.2389
   31MOL0     C 4022   8.546   7.762   6.126  1.1228 -0.8683 -0.1588
   31MOL0     C 4023   8.676   7.818   6.164  0.9870 -0.1500 -0.0439
   31MOL0     C 4024   8.789   7.852   6.177 -1.2261 -0.2457 -0.6390
   31MOL0     C 4025   7.931   8.017   6.156 -0.7951  0.0257 -1.1241
   31MOL0     C 4026   7.807   8.059   6.202  0.0339  0.6979  0.1108
   31MOL0     H 4027   7.339   8.219   6.220  0.9005 -3.0460  0.5111
   31MOL0     H 4028   7.143   8.298   6.368 -0.1923  0.5020  1.2554
   31MOL0     H 4029   7.146   8.215   6.808 -0.2354 -4.5149  0.5441
   31MOL0     H 4030   7.068   8.087   6.704  0.2400 -0.3081 -2.0490
   31MOL0     H 4031   6.910   8.165   6.855  0.5103  1.2670  1.6468
   31MOL0     H 4032   6.873   8.193   6.684  0.0802  1.2970  0.4879
   31MOL0     H 4033   6.938   8.443   6.711  2.4644  1.7688  2.0066
   31MOL0     H 4034   6.951   8.400   6.878 -0.0592 -3.3752  0.5037
   31MOL0     H 4035   6.697   8.373   6.706 -1.1643 -1.7846  1.0899
   31MOL0     H 4036   6.710   8.323   6.875 -1.9944  0.9041 -0.3570
   31MOL0     H 4037   6.779   8.618   6.824  3.4650 -2.2849 -0.5770
   31MOL0     H 4038   6.699   8.532   6.954 -2.8509 -2.9362 -1.0525
   31MOL0     H 4039   6.555   8.552   6.680 -1.2505 -0.5279  0.9672
   31MOL0     H 4040   6.540   8.681   6.801  0.6573  1.1161 -1.1943
   31MOL0     H 4041   6.352   8.525   6.802  0.9577  3.5151  0.3093
   31MOL0     H 4042   6.452   8.391   6.822 -0.2368  0.7625 -0.7808
   31MOL0     H 4043   6.516   8.482   7.052 -1.0097  0.9609  1.8562
   31MOL0     H 4044   6.349   8.445   7.034  1.4833 -0.4124  2.2516
   31MOL0     H 4045   6.181   8.642   6.999 -0.7883  0.3460  0.1959
   31MOL0     H 4046   6.091   8.882   6.972  0.8421 -2.1976 -0.9860
   31MOL0     H 4047   6.209   9.016   6.960 -0.1931  1.0943  0.8139
   31MOL0     H 4048   6.056   9.073   7.119 -0.1589 -0.2911 -1.2647
   31MOL0     H 4049   6.222   9.053   7.187  0.0876 -0.2135 -1.2753
   31MOL0     H 4050   6.083   8.810   7.228  0.4649  0.1531  0.0555
   31MOL0     H 4051   6.111   8.939   7.355  0.3992  2.1113 -0.4594
   31MOL0     H 4052   5.882   8.853   7.328 -1.3821  2.0521  0.3221
   31MOL0     H 4053   5.878   8.924   7.167  2.1130 -0.0873 -1.3910
   31MOL0     H 4054   5.815   9.287   7.406  0.4605  0.3561 -0.2106
   31MOL0     H 4055   5.579   9.344   7.510 -2.8327 -1.0788  4.1285
   31MOL0     H 4056   5.181   9.231   7.743  1.3587 -1.4846  1.5586
   31MOL0     H 4057   4.956   9.205   7.834 -0.8570 -0.4227  1.2519
   31MOL0     H 4058   4.686   8.863   7.711  0.9955  0.3198 -2.2437
   31MOL0     H 4059   4.636   8.995   7.619  1.7182  3.9264  0.3686
   31MOL0     H 4060   4.461   8.925   7.787 -0.5557 -0.3238  1.1514
   31MOL0     H 4061   4.531   9.096   7.825 -0.3111 -0.2638  2.8479
   31MOL0     H 4062   4.669   9.013   7.974  0.7680 -0.6986 -0.4307
   31MOL0     H 4063   4.619   8.841   7.952 -0.3958 -0.0639 -1.0082
   31MOL0     H 4064   4.512   8.893   8.159 -2.0985 -3.2579 -1.3177
   31MOL0     H 4065   4.446   9.051   8.097 -1.4173 -0.3813  0.7330
   31MOL0     H 4066   4.310   8.903   7.943  0.4876 -0.5987 -0.0142
   31MOL0     H 4067   4.282   8.871   8.116  1.8433  2.9183  1.0225
   31MOL0     H 4068   4.415   8.678   8.111  0.7441  2.1428  0.7368
   31MOL0     H 4069   4.466   8.698   7.953 -1.7419  3.9349 -3.8383
   31MOL0     H 4070   4.248   8.667   7.852 -0.1041  1.2855  0.6603
   31MOL0     H 4071   4.269   8.536   7.966  1.3748  0.1441 -3.0479
   31MOL0     H 4072   4.095   8.777   7.961  0.1563  0.0502 -0.2665
   31MOL0     H 4073   4.126   8.700   8.123  2.6383  1.7459 -0.7401
   31MOL0     H 4074   4.883   8.894   7.553  0.6493  0.3325 -1.1774
   31MOL0     H 4075   5.087   8.934   7.446 -1.1683 -0.1965 -0.4485
   31MOL0     H 4076   5.467   8.935   7.428 -0.0449  0.5749  1.1924
   31MOL0     H 4077   5.675   8.886   7.353  2.6296  0.9963 -0.6080
   31MOL0     H 4078   7.354   8.160   6.723 -0.6701 -2.5778 -0.3465
   31MOL0     H 4079   7.540   8.126   6.598  0.7184  3.1339  0.2883
   31MOL0     H 4080   7.666   7.755   6.262  1.6913 -1.0868 -2.1744
   31MOL0     H 4081   7.898   7.686   6.155  0.1738  0.5718 -0.7560
   31MOL0     H 4082   8.188   7.944   6.209 -2.7196 -4.1486  0.7211
   31MOL0     H 4083   8.214   8.002   6.048 -0.5597 -0.1401  0.0520
   31MOL0     H 4084   8.291   7.730   6.175 -1.8561  2.3882  1.6495
   31MOL0     H 4085   8.310   7.753   6.002  0.6510 -0.6966  1.1721
   31MOL0     H 4086   8.445   7.906   6.236 -0.5132 -0.8647  0.5987
   31MOL0     H 4087   8.465   7.949   6.064  1.9767 -1.2895 -0.6506
   31MOL0     H 4088   8.518   7.682   6.196  1.3919 -0.5621  0.3050
   31MOL0     H 4089   8.550   7.717   6.027 -1.3820 -3.1277  0.6418
   31MOL0     H 4090   8.891   7.876   6.201 -1.6456  1.0643 -0.1119
   31MOL0     H 4091   8.006   8.095   6.148  0.5064 -1.1142 -0.5019
   31MOL0     H 4092   7.787   8.165   6.214  1.1986  1.0821 -1.0584
   32MOL0     O 4093   3.230   8.363   8.196 -0.8179 -0.5536  0.6291
   32MOL0     C 4094   3.277   8.325   8.302  0.4551 -0.1982 -0.7244
   32MOL0     O 4095   3.206   8.290   8.416 -0.0194 -0.3164  0.1721
   32MOL0     C 4096   3.070   8.303   8.426  0.4172 -0.9982 -0.3371
   32MOL0     C 4097   2.989   8.403   8.370 -0.7240  0.3899  0.3595
   32MOL0     C 4098   2.852   8.418   8.386 -0.4265  0.5368 -0.1305
   32MOL0     C 4099   2.781   8.332   8.471 -0.5135  0.2178  0.7425
   32MOL0     O 4100   2.649   8.346   8.499 -0.2021 -0.0072 -0.1719
   32MOL0     C 4101   2.579   8.223   8.512  0.1085 -0.4468  0.3265
   32MOL0     C 4102   2.436   8.260   8.503  0.4504  0.9909 -0.0866
   32MOL0     C 4103   2.346   8.137   8.503 -0.1781  0.5439  0.5015
   32MOL0     C 4104   2.194   8.156   8.483  0.2991 -0.7616 -0.1980
   32MOL0     C 4105   2.135   8.022   8.433 -0.1097 -0.3610 -0.8567
   32MOL0     C 4106   1.993   8.005   8.499 -0.2590 -0.9578 -0.8442
   32MOL0     C 4107   1.903   7.897   8.426 -0.0812 -0.5233 -0.3686
   32MOL0     C 4108   1.973   7.795   8.348  0.4805  0.3273  0.6363
   32MOL0     N 4109   2.060   7.694   8.417 -0.3184 -0.9703  0.7664
   32MOL0     C 4110   2.046   7.633   8.539  0.2046 -0.0980  0.3959
   32MOL0     C 4111   2.141   7.539   8.549  0.4575 -0.0684 -0.5282
   32MOL0     C 4112   2.168   7.453   8.667 -0.4468  0.5164  0.5621
   32MOL0     C 4113   2.081   7.330   8.690 -0.2812 -0.1400 -0.3602
   32MOL0     C 4114   2.142   7.242   8.804  0.1284 -0.1845  0.0173
   32MOL0     C 4115   2.172   7.331   8.930 -0.3140  0.0034  0.2502
   32MOL0     O 4116   2.074   7.430   8.955 -0.6526 -0.4887 -0.5228
   32MOL0     C 4117   1.940   7.406   8.987 -0.1395 -0.1103  0.6012
   32MOL0     C 4118   1.868   7.282   8.980 -0.1498 -0.0680 -0.1441
   32MOL0     C 4119   1.731   7.275   9.003 -0.6684  0.1549  0.0640
   32MOL0     C 4120   1.669   7.400   9.024  0.4255  0.4337  0.0144
   32MOL0     C 4121   1.519   7.393   9.062 -0.0485 -0.6502 -0.6423
   32MOL0     O 4122   1.470   7.278   9.124 -1.1220  0.2212 -0.0344
   32MOL0     C 4123   1.343   7.261   9.165 -0.2317  0.1144  0.9451
   32MOL0     C 4124   1.230   7.294   9.082 -0.7994 -0.4844 -0.2355
   32MOL0     C 4125   1.108   7.265   9.134 -0.9231 -0.4177  0.4130
   32MOL0     C 4126   1.084   7.191   9.253 -0.9599 -0.4439  1.0676
   32MOL0     O 4127   0.951   7.171   9.295  0.2802 -0.5889 -0.4898
   32MOL0     C 4128   0.915   7.039   9.327 -0.8280  0.2848 -0.2553
   32MOL0     C 4129   0.867   7.041   9.467 -0.2168  0.4883  0.5133
   32MOL0     C 4130   0.805   6.906   9.497 -0.2306  0.2851  0.7112
   32MOL0     C 4131   0.775   6.891   9.647  0.1250  0.3347 -0.0873
   32MOL0     C 4132   0.698   6.756   9.669 -0.2919 -0.7685  0.0204
   32MOL0     C 4133   0.657   6.745   9.815  0.0126  0.2235  0.0272
   32MOL0     C 4134   0.579   6.605   9.838  0.3466 -0.4851  1.0367
   32MOL0     C 4135   0.525   6.586   9.985 -0.1639 -1.1074 -0.8877
   32MOL0    Cl 4136   0.398   6.462   9.962  0.3336  0.2096  0.2419
   32MOL0     C 4137   1.197   7.162   9.330  0.4169  0.0533  0.1405
   32MOL0     C 4138   1.325   7.193   9.288 -1.0817 -0.7085  0.7833
   32MOL0     O 4139   1.446   7.490   9.038 -0.6027  0.5824  0.0867
   32MOL0     C 4140   1.732   7.523   9.023 -0.6472 -0.4629  1.0737
   32MOL0     C 4141   1.873   7.525   9.017 -0.0646 -0.0368  0.5233
   32MOL0     N 4142   2.222   7.551   8.434 -0.1188 -0.9374  0.1376
   32MOL0     N 4143   2.167   7.644   8.359 -0.5304 -0.5497  0.4393
   32MOL0     C 4144   2.861   8.239   8.536  1.0235  0.3309 -0.2546
   32MOL0     C 4145   2.997   8.225   8.522  0.2060  0.4641  0.4217
   32MOL0     C 4146   3.425   8.322   8.315 -0.7691 -0.1148 -0.6412
   32MOL0     C 4147   3.479   8.268   8.435  0.1641  0.0612 -0.5484
   32MOL0     C 4148   3.613   8.271   8.457  0.0197 -0.1439 -0.6149
   32MOL0     C 4149   3.697   8.332   8.360 -0.2082 -0.3124 -0.0167
   32MOL0     O 4150   3.837   8.319   8.364  0.2297  0.4721 -0.6831
   32MOL0     C 4151   3.902   8.251   8.472  0.1862 -0.4572  0.4133
   32MOL0     C 4152   4.054   8.266   8.477  0.9852  0.2222  0.7196
   32MOL0     C 4153   4.125   8.189   8.360  0.0587  0.3723  0.4612
   32MOL0     C 4154   4.141   8.280   8.240  0.8040  0.5617 -0.2389
   32MOL0     C 4155   4.232   8.391   8.268 -0.0247 -0.2106  0.1779
   32MOL0     C 4156   4.330   8.460   8.287 -1.0671  0.8629  0.3779
   32MOL0     C 4157   3.643   8.391   8.242 -0.3841  0.0437  0.2345
   32MOL0     C 4158   3.505   8.395   8.225  1.3514 -0.2188  0.5402
   32MOL0     H 4159   3.029   8.475   8.300  1.9657 -1.8696 -0.6317
   32MOL0     H 4160   2.808   8.499   8.330 -3.3070 -2.0805 -2.0062
   32MOL0     H 4161   2.602   8.184   8.611  0.2465  0.1328  0.5254
   32MOL0     H 4162   2.601   8.153   8.431 -0.5322 -0.1069 -0.1533
   32MOL0     H 4163   2.419   8.308   8.406  0.7355 -0.4440 -0.8757
   32MOL0     H 4164   2.407   8.321   8.589  1.1844 -0.9133  1.5917
   32MOL0     H 4165   2.355   8.088   8.600  0.1074  0.5920  0.4992
   32MOL0     H 4166   2.374   8.072   8.419 -0.1541 -0.0021  0.9262
   32MOL0     H 4167   2.145   8.178   8.578 -1.3262  0.4102 -1.2545
   32MOL0     H 4168   2.162   8.242   8.424 -0.0167  1.0195  2.4159
   32MOL0     H 4169   2.201   7.941   8.465 -0.3489 -0.2206  0.0125
   32MOL0     H 4170   2.133   8.025   8.323 -2.0241 -0.7762 -0.8601
   32MOL0     H 4171   1.940   8.100   8.493 -1.7589 -1.6665  0.5121
   32MOL0     H 4172   2.005   7.981   8.605 -1.7111 -0.5668 -0.5730
   32MOL0     H 4173   1.840   7.846   8.500  0.3753  0.8690  1.0405
   32MOL0     H 4174   1.833   7.957   8.367  0.3099 -0.1676 -0.4772
   32MOL0     H 4175   2.033   7.835   8.266 -0.6492 -0.9101 -0.8501
   32MOL0     H 4176   1.893   7.739   8.300 -0.2611  3.0168 -1.5133
   32MOL0     H 4177   1.967   7.664   8.607 -0.5628 -2.4634  0.6535
   32MOL0     H 4178   2.157   7.511   8.759  0.0852 -1.4795  1.9515
   32MOL0     H 4179   2.270   7.414   8.657 -0.2739  0.4791  2.1706
   32MOL0     H 4180   2.073   7.267   8.600  0.6485 -1.7034  0.5962
   32MOL0     H 4181   1.980   7.361   8.719 -0.8164 -3.0131  1.2342
   32MOL0     H 4182   2.095   7.150   8.841  2.8464 -1.1626  1.3262
   32MOL0     H 4183   2.235   7.207   8.759 -0.7406  2.3611 -4.2736
   32MOL0     H 4184   2.269   7.376   8.908 -0.1764  0.8991  2.4355
   32MOL0     H 4185   2.171   7.261   9.014 -3.2251 -4.0918 -2.7657
   32MOL0     H 4186   1.923   7.189   8.971 -2.6564 -2.0615  3.0356
   32MOL0     H 4187   1.677   7.182   9.016  1.0489 -0.8918 -0.0903
   32MOL0     H 4188   1.235   7.344   8.986  2.1672 -4.5143 -2.5061
   32MOL0     H 4189   1.023   7.292   9.072 -1.5732 -1.0806  0.9973
   32MOL0     H 4190   1.005   6.981   9.304  0.0195  1.5712 -0.2649
   32MOL0     H 4191   0.830   7.005   9.266 -2.0308  0.7974  1.0706
   32MOL0     H 4192   0.796   7.124   9.466 -1.4640 -0.5270 -1.1795
   32MOL0     H 4193   0.956   7.051   9.530  1.4702 -0.1526 -1.6636
   32MOL0     H 4194   0.878   6.829   9.470 -2.0712 -0.8238 -1.4135
   32MOL0     H 4195   0.706   6.906   9.449 -0.6706 -1.1491  1.5331
   32MOL0     H 4196   0.859   6.894   9.717 -2.1401 -2.8821  3.1779
   32MOL0     H 4197   0.715   6.979   9.671  3.3008  2.7074 -0.2268
   32MOL0     H 4198   0.765   6.674   9.642  1.3542  0.7764 -0.7901
   32MOL0     H 4199   0.614   6.763   9.598 -0.8003  3.5573  0.7721
   32MOL0     H 4200   0.592   6.829   9.839  1.6753  1.6207 -0.1527
   32MOL0     H 4201   0.749   6.745   9.874 -0.6739 -1.6867  1.1928
   32MOL0     H 4202   0.490   6.616   9.775  1.2060 -0.6723 -0.2369
   32MOL0     H 4203   0.634   6.520   9.799  2.8582  2.1246 -1.6114
   32MOL0     H 4204   0.478   6.674  10.029  0.9283 -0.5150 -0.8709
   32MOL0     H 4205   0.609   6.546  10.042  1.5860  2.5693 -0.5873
   32MOL0     H 4206   1.178   7.128   9.432  0.6515 -2.7180 -0.6382
   32MOL0     H 4207   1.410   7.173   9.351  0.7381  1.8139 -0.6773
   32MOL0     H 4208   1.688   7.618   9.051 -1.0366 -0.9236  2.0329
   32MOL0     H 4209   1.931   7.617   9.017 -2.9414  1.9268  0.4998
   32MOL0     H 4210   2.817   8.170   8.607  1.2368 -1.7830 -2.0767
   32MOL0     H 4211   3.043   8.153   8.589 -0.5047  0.1889  0.6133
   32MOL0     H 4212   3.425   8.230   8.521  0.1092  0.8498 -0.2214
   32MOL0     H 4213   3.656   8.237   8.551  0.8421 -1.9567 -1.6029
   32MOL0     H 4214   3.900   8.142   8.484 -1.4756 -0.5855 -0.6729
   32MOL0     H 4215   3.859   8.297   8.561  0.0040  0.3307 -0.0673
   32MOL0     H 4216   4.072   8.373   8.464  2.1871  0.0629  0.9552
   32MOL0     H 4217   4.087   8.237   8.578 -1.5198 -0.2278  1.4679
   32MOL0     H 4218   4.063   8.101   8.343  1.5335 -0.6075 -0.0702
   32MOL0     H 4219   4.226   8.167   8.395 -0.6269  0.3448  2.6052
   32MOL0     H 4220   4.159   8.221   8.149 -0.5743  1.9244 -1.4636
   32MOL0     H 4221   4.046   8.330   8.219 -0.9362 -2.6674 -0.7246
   32MOL0     H 4222   4.416   8.518   8.313  1.5675 -2.7140  0.3251
   32MOL0     H 4223   3.713   8.428   8.169 -1.4362  0.6388 -0.5060
   32MOL0     H 4224   3.456   8.442   8.140  0.0362  0.9131  1.8702
   33MOL0     O 4225   9.171   3.340   5.640  0.7804  0.0017 -0.0153
   33MOL0     C 4226   9.266   3.355   5.567 -0.8469 -0.3777 -0.3190
   33MOL0     O 4227   9.284   3.433   5.459 -0.1010  0.0279  0.0281
   33MOL0     C 4228   9.167   3.472   5.396  0.2291 -1.2994  0.5776
   33MOL0     C 4229   9.160   3.602   5.346  0.1273 -0.1347 -0.3005
   33MOL0     C 4230   9.038   3.643   5.283  0.1635  0.0381  0.2920
   33MOL0     C 4231   8.933   3.558   5.280  0.7197 -0.1703  0.1716
   33MOL0     O 4232   8.818   3.618   5.240 -0.5162  0.5470  0.0492
   33MOL0     C 4233   8.731   3.656   5.350 -0.2731  0.2875  0.2762
   33MOL0     C 4234   8.620   3.747   5.297 -0.3962  1.1738 -0.1421
   33MOL0     C 4235   8.502   3.668   5.246  1.2372  0.7294 -0.1771
   33MOL0     C 4236   8.396   3.757   5.195 -0.4453 -0.5457  0.2598
   33MOL0     C 4237   8.281   3.694   5.124  0.9547 -0.2493  0.1860
   33MOL0     C 4238   8.214   3.790   5.014  0.5565  0.9480 -0.2804
   33MOL0     C 4239   8.070   3.745   4.974  0.0190 -0.1324  0.1568
   33MOL0     C 4240   7.993   3.834   4.870 -0.3224 -0.2886  0.0262
   33MOL0     N 4241   7.856   3.791   4.865 -0.6962  0.5338  0.1601
   33MOL0     C 4242   7.753   3.868   4.912 -0.5307  0.3856  0.2860
   33MOL0     C 4243   7.636   3.806   4.868  0.5678 -0.3764 -1.0293
   33MOL0     C 4244   7.498   3.851   4.905 -0.6275  0.1448 -0.0654
   33MOL0     C 4245   7.444   3.956   4.811  0.0134  0.6670  0.8236
   33MOL0     C 4246   7.303   3.972   4.850 -0.3543 -0.2564  0.1250
   33MOL0     C 4247   7.221   4.071   4.767 -0.5225  0.1699  0.3156
   33MOL0     O 4248   7.213   4.040   4.630  0.1001  0.0217  0.7633
   33MOL0     C 4249   7.092   3.980   4.586  0.0741  0.4213  0.2607
   33MOL0     C 4250   7.075   3.968   4.441 -0.3297 -0.7905 -0.6309
   33MOL0     C 4251   6.962   3.910   4.390 -0.3383  0.0785  0.4818
   33MOL0     C 4252   6.859   3.861   4.471  0.6899  0.2147 -0.0936
   33MOL0     C 4253   6.737   3.818   4.392  0.0242  0.3759 -0.4533
   33MOL0     O 4254   6.732   3.831   4.258 -0.2085  0.5674 -0.3969
   33MOL0     C 4255   6.638   3.765   4.184 -0.6151  0.8510 -0.2406
   33MOL0     C 4256   6.511   3.821   4.179  0.0161 -0.2221  0.0127
   33MOL0     C 4257   6.409   3.755   4.101  0.0324  0.4180  0.2108
   33MOL0     C 4258   6.437   3.645   4.021 -0.1140 -0.0578 -0.1526
   33MOL0     O 4259   6.350   3.603   3.933  0.5072 -0.6530  0.1495
   33MOL0     C 4260   6.268   3.504   3.978  0.6367 -0.0067  0.0920
   33MOL0     C 4261   6.171   3.458   3.872 -0.5666  0.1880  0.2893
   33MOL0     C 4262   6.103   3.327   3.936  0.1576  0.4105 -0.5578
   33MOL0     C 4263   5.980   3.270   3.852  0.0118 -0.0774 -0.6014
   33MOL0     C 4264   5.903   3.185   3.945 -0.2091 -0.6700 -0.3711
   33MOL0     C 4265   5.780   3.132   3.873  0.0713 -0.3079 -0.6616
   33MOL0     C 4266   5.684   3.071   3.975  0.4631 -0.4449  0.3558
   33MOL0     C 4267   5.548   3.020   3.913  0.2547  0.6101 -0.3699
   33MOL0    Cl 4268   5.422   2.964   4.032 -0.3718 -0.3286  0.0199
   33MOL0     C 4269   6.569   3.602   4.011 -0.2645  0.1756 -0.4218
   33MOL0     C 4270   6.665   3.669   4.091 -0.3234 -0.1746  0.0053
   33MOL0     O 4271   6.644   3.766   4.458  0.0422 -0.1916 -0.4313
   33MOL0     C 4272   6.884   3.856   4.611 -0.0490  0.1580 -0.3106
   33MOL0     C 4273   6.997   3.912   4.664  0.0660  0.4292 -1.0372
   33MOL0     N 4274   7.671   3.708   4.782 -0.0525 -0.0619  0.4122
   33MOL0     N 4275   7.802   3.701   4.784 -0.2769 -0.0086 -0.4607
   33MOL0     C 4276   8.940   3.425   5.325  0.5533 -0.2438 -0.0105
   33MOL0     C 4277   9.066   3.381   5.373  0.5015 -0.6946  0.2949
   33MOL0     C 4278   9.387   3.273   5.604  0.0144  1.0920  0.3931
   33MOL0     C 4279   9.394   3.191   5.709 -0.9225  0.0849 -0.3050
   33MOL0     C 4280   9.507   3.097   5.733  0.5016  0.4427  0.0351
   33MOL0     C 4281   9.617   3.096   5.651  0.3362  0.0696 -0.5890
   33MOL0     O 4282   9.722   3.014   5.686 -0.4721 -0.1845  0.2456
   33MOL0     C 4283   9.857   3.072   5.675 -0.5432 -0.7757 -0.0189
   33MOL0     C 4284   9.876   3.192   5.775  0.3196  0.4749 -0.3223
   33MOL0     C 4285  10.014   3.250   5.773 -0.5381 -0.4148  0.2116
   33MOL0     C 4286  10.045   3.324   5.651 -0.4909  0.0490 -0.0043
   33MOL0     C 4287  10.180   3.384   5.683 -1.7368 -0.0991  0.1447
   33MOL0     C 4288  10.286   3.438   5.716  0.0515 -0.3385  0.2882
   33MOL0     C 4289   9.617   3.187   5.543  1.3265 -1.0795 -0.3787
   33MOL0     C 4290   9.499   3.268   5.517  0.1333  0.5894 -0.4543
   33MOL0     H 4291   9.248   3.665   5.344  0.6817 -0.9112 -1.2310
   33MOL0     H 4292   9.034   3.746   5.248 -0.4730 -0.6869 -1.9487
   33MOL0     H 4293   8.797   3.706   5.421  2.2229  0.2635 -1.8740
   33MOL0     H 4294   8.683   3.564   5.386  1.2783 -1.3232 -1.5261
   33MOL0     H 4295   8.655   3.816   5.219  1.2867 -0.9225 -1.3498
   33MOL0     H 4296   8.585   3.799   5.386  1.0056  0.4497  0.8649
   33MOL0     H 4297   8.463   3.608   5.328  2.1038  0.8076  0.3111
   33MOL0     H 4298   8.534   3.602   5.166 -0.5435 -1.7443  1.0301
   33MOL0     H 4299   8.351   3.829   5.265 -0.5217  2.6821 -2.8346
   33MOL0     H 4300   8.449   3.828   5.131  0.5057  0.5547  2.1418
   33MOL0     H 4301   8.209   3.667   5.202  0.6462 -2.5451 -0.7963
   33MOL0     H 4302   8.304   3.605   5.064 -0.2760 -0.4460 -0.0263
   33MOL0     H 4303   8.274   3.785   4.922 -2.4598 -1.2406 -2.3077
   33MOL0     H 4304   8.218   3.889   5.060  0.0591 -1.2883  5.2994
   33MOL0     H 4305   8.088   3.654   4.917 -0.6150  0.4117 -0.9446
   33MOL0     H 4306   8.013   3.717   5.063  1.4493  1.0125  1.4694
   33MOL0     H 4307   8.035   3.815   4.770  1.0320 -0.7185  0.6461
   33MOL0     H 4308   7.990   3.940   4.896 -1.2263 -0.8052  2.2604
   33MOL0     H 4309   7.763   3.949   4.983  2.1600 -0.3326  0.8506
   33MOL0     H 4310   7.501   3.885   5.010  1.4484 -0.5122  0.1404
   33MOL0     H 4311   7.437   3.761   4.903  1.4859 -1.4461  1.6170
   33MOL0     H 4312   7.449   3.922   4.707 -0.2205  2.0909  0.3214
   33MOL0     H 4313   7.501   4.049   4.817  0.3456  0.5323 -0.0973
   33MOL0     H 4314   7.247   3.878   4.842 -1.5625  0.3699  1.0293
   33MOL0     H 4315   7.303   4.004   4.954  0.7277  0.0366  0.0503
   33MOL0     H 4316   7.272   4.167   4.772  1.4985 -0.8246  0.0419
   33MOL0     H 4317   7.122   4.077   4.813 -1.1457 -0.1501 -0.9395
   33MOL0     H 4318   7.156   4.005   4.379  0.3832  0.0975  0.7766
   33MOL0     H 4319   6.936   3.908   4.285 -2.8801 -2.1720  1.0514
   33MOL0     H 4320   6.481   3.905   4.241 -0.1344 -1.3302  1.5302
   33MOL0     H 4321   6.307   3.789   4.088 -0.5277 -2.0057 -2.6251
   33MOL0     H 4322   6.210   3.554   4.055  1.9970 -1.8474  2.4406
   33MOL0     H 4323   6.332   3.422   4.013  1.8523  0.4708 -0.9279
   33MOL0     H 4324   6.225   3.435   3.780  1.5409  1.7467  1.0732
   33MOL0     H 4325   6.101   3.536   3.841  0.6428 -0.4982 -5.0655
   33MOL0     H 4326   6.061   3.354   4.033  0.3490 -0.2766 -0.2860
   33MOL0     H 4327   6.169   3.244   3.958 -1.9303 -0.5828  2.7310
   33MOL0     H 4328   5.920   3.354   3.813 -0.9774 -0.6419 -0.3344
   33MOL0     H 4329   6.020   3.212   3.769  1.9654  2.4693 -1.5829
   33MOL0     H 4330   5.861   3.240   4.029 -3.2320  0.4674 -2.4455
   33MOL0     H 4331   5.965   3.103   3.980 -1.1040 -2.1482 -2.0559
   33MOL0     H 4332   5.808   3.058   3.797  0.6520  0.8641 -1.6306
   33MOL0     H 4333   5.727   3.213   3.823  2.5060  1.5834 -0.3680
   33MOL0     H 4334   5.732   2.980   4.012  3.5952  0.2295 -1.6414
   33MOL0     H 4335   5.663   3.139   4.058 -1.5225  0.6524 -0.9566
   33MOL0     H 4336   5.580   2.938   3.848  2.3020 -0.0324  1.3407
   33MOL0     H 4337   5.496   3.086   3.843 -3.1289 -1.0785  0.3431
   33MOL0     H 4338   6.595   3.521   3.944 -0.3517  0.2720 -0.5718
   33MOL0     H 4339   6.772   3.651   4.089 -0.2139  0.1713  1.3952
   33MOL0     H 4340   6.826   3.804   4.686  3.1939 -2.5603  0.5976
   33MOL0     H 4341   7.011   3.925   4.771  1.3541  1.8436 -1.3351
   33MOL0     H 4342   8.852   3.361   5.319 -1.4235  1.6241  4.2995
   33MOL0     H 4343   9.082   3.276   5.396  2.7016 -0.2173  1.1414
   33MOL0     H 4344   9.314   3.200   5.781 -1.4099  0.4952 -0.8868
   33MOL0     H 4345   9.503   3.017   5.806 -3.0067  0.6139  0.2075
   33MOL0     H 4346   9.877   3.097   5.570  2.8200 -5.0491 -0.6664
   33MOL0     H 4347   9.931   2.995   5.698  0.4976 -0.2125 -1.3493
   33MOL0     H 4348   9.800   3.269   5.761  0.0369 -0.0915 -2.1082
   33MOL0     H 4349   9.873   3.144   5.873 -0.2855 -1.8991 -1.4407
   33MOL0     H 4350  10.082   3.166   5.789 -2.4161 -1.9457  0.4412
   33MOL0     H 4351  10.027   3.310   5.863  2.1430  1.2056 -1.0990
   33MOL0     H 4352  10.060   3.260   5.563  2.1015  1.1812 -0.4928
   33MOL0     H 4353   9.960   3.387   5.624 -0.2314  0.9028  1.1315
   33MOL0     H 4354  10.374   3.486   5.752  0.4806 -1.7144  1.1547
   33MOL0     H 4355   9.697   3.212   5.475 -0.0513  2.2709 -0.9720
   33MOL0     H 4356   9.508   3.313   5.419  1.5029 -2.0236 -1.6074
   34MOL0     O 4357   0.169   3.076   0.158 -0.2360  0.0305  0.3346
   34MOL0     C 4358   0.182   3.160   0.249 -0.2767  0.1167  0.4723
   34MOL0     O 4359   0.100   3.174   0.355 -0.3231  0.1058 -0.0869
   34MOL0     C 4360  -0.016   3.096   0.355  0.3363 -0.2906  0.7334
   34MOL0     C 4361  -0.023   2.995   0.443 -1.3849 -0.2274  1.1387
   34MOL0     C 4362  -0.139   2.918   0.451 -0.1386 -0.2637 -0.3825
   34MOL0     C 4363  -0.252   2.943   0.381  0.0097  0.7293  0.4446
   34MOL0     O 4364  -0.357   2.850   0.395  0.0602 -0.3850  0.0938
   34MOL0     C 4365  -0.487   2.888   0.353 -0.0606 -0.4277 -0.3929
   34MOL0     C 4366  -0.585   2.774   0.391 -0.5306  0.9760  0.8336
   34MOL0     C 4367  -0.735   2.807   0.358  0.6860 -0.5500 -0.3551
   34MOL0     C 4368  -0.777   2.923   0.442  0.0519 -0.1652 -0.1351
   34MOL0     C 4369  -0.936   2.943   0.434 -0.9382  0.3786 -0.1757
   34MOL0     C 4370  -0.994   2.990   0.296 -0.2833  0.8095  0.5216
   34MOL0     C 4371  -1.147   3.012   0.299  0.6625 -0.1331 -0.3283
   34MOL0     C 4372  -1.159   3.163   0.331 -0.0936 -0.6014 -0.3336
   34MOL0     N 4373  -1.300   3.194   0.305  0.2221  0.4481 -1.4070
   34MOL0     C 4374  -1.398   3.192   0.405 -0.0199  0.8811  0.4602
   34MOL0     C 4375  -1.504   3.243   0.340 -0.0303  0.0838 -0.2961
   34MOL0     C 4376  -1.632   3.298   0.406  0.3947 -0.6092  0.1031
   34MOL0     C 4377  -1.597   3.443   0.459 -0.4866 -0.2086  0.6757
   34MOL0     C 4378  -1.727   3.505   0.502  0.5247 -0.1386  0.2913
   34MOL0     C 4379  -1.778   3.615   0.405  0.6282  0.1139 -0.4051
   34MOL0     O 4380  -1.889   3.695   0.465 -0.4872  0.2166  0.0071
   34MOL0     C 4381  -2.013   3.693   0.408  0.4699  0.8640  0.7064
   34MOL0     C 4382  -2.080   3.791   0.339  0.9143  0.0685  0.2828
   34MOL0     C 4383  -2.202   3.772   0.271 -0.3143  0.7574 -0.2871
   34MOL0     C 4384  -2.270   3.645   0.281 -0.3639 -0.0786  0.0272
   34MOL0     C 4385  -2.399   3.619   0.205 -0.2519 -0.5162  0.3250
   34MOL0     O 4386  -2.454   3.492   0.240  0.1511 -0.4934  0.1320
   34MOL0     C 4387  -2.574   3.457   0.191  0.0719 -0.4870 -0.5596
   34MOL0     C 4388  -2.667   3.393   0.275 -0.7845  0.3868  0.5990
   34MOL0     C 4389  -2.795   3.343   0.221 -1.0613 -0.0099  0.2380
   34MOL0     C 4390  -2.820   3.348   0.080  0.8487  0.5628  0.8865
   34MOL0     O 4391  -2.927   3.279   0.022 -0.0188 -0.2514  0.5902
   34MOL0     C 4392  -3.022   3.203   0.096  0.5000 -0.8474  0.2708
   34MOL0     C 4393  -3.142   3.169   0.005 -0.6458 -0.3484  0.1096
   34MOL0     C 4394  -3.234   3.281  -0.033  0.8726 -0.1385  0.4313
   34MOL0     C 4395  -3.306   3.331   0.087  0.2745 -0.1660 -0.4943
   34MOL0     C 4396  -3.390   3.457   0.034 -0.2707  0.8924 -0.0123
   34MOL0     C 4397  -3.484   3.503   0.145  0.1840 -0.2439  0.1072
   34MOL0     C 4398  -3.530   3.644   0.107 -0.5529 -1.2082  0.2236
   34MOL0     C 4399  -3.661   3.685   0.185 -0.5977  1.0252  0.1432
   34MOL0    Cl 4400  -3.741   3.808   0.094 -0.3038 -0.0554 -0.1224
   34MOL0     C 4401  -2.733   3.422   0.006 -0.3328 -0.7031  0.3859
   34MOL0     C 4402  -2.616   3.481   0.062 -0.3287 -1.0056  0.6842
   34MOL0     O 4403  -2.454   3.702   0.138  0.4795  0.0403 -0.1620
   34MOL0     C 4404  -2.203   3.551   0.356 -1.2422 -0.3831 -0.2619
   34MOL0     C 4405  -2.075   3.573   0.411  0.0562 -0.3077  0.1095
   34MOL0     N 4406  -1.476   3.256   0.207  0.0822  0.2019  0.3769
   34MOL0     N 4407  -1.346   3.229   0.190 -0.4453  0.2704  0.0486
   34MOL0     C 4408  -0.254   3.044   0.284  0.0535  0.0727  0.4098
   34MOL0     C 4409  -0.136   3.119   0.269 -0.5948 -0.8549  0.6073
   34MOL0     C 4410   0.305   3.234   0.251 -0.7356 -0.7739  0.2271
   34MOL0     C 4411   0.393   3.235   0.139 -0.3212  0.4063  0.2191
   34MOL0     C 4412   0.521   3.300   0.141  0.3721 -0.5573 -0.2842
   34MOL0     C 4413   0.563   3.368   0.256  0.4421 -0.1677  0.5709
   34MOL0     O 4414   0.692   3.418   0.248  0.4446 -0.6124  0.2210
   34MOL0     C 4415   0.737   3.510   0.355  0.4976  0.9790  0.3176
   34MOL0     C 4416   0.828   3.612   0.288  0.3745 -0.0017  0.2399
   34MOL0     C 4417   0.940   3.552   0.209  0.0033  0.6331 -0.3049
   34MOL0     C 4418   1.024   3.668   0.157  0.5211 -0.4234 -0.9139
   34MOL0     C 4419   1.100   3.733   0.266  0.0933  0.2699 -0.6839
   34MOL0     C 4420   1.170   3.781   0.352  0.1553  0.0837  0.3885
   34MOL0     C 4421   0.476   3.380   0.366  0.2737 -0.2900  0.6226
   34MOL0     C 4422   0.351   3.313   0.363 -0.1046  0.3174 -0.7877
   34MOL0     H 4423   0.068   2.960   0.491 -1.0270 -1.7124 -0.5365
   34MOL0     H 4424  -0.126   2.831   0.515 -0.8123 -0.4660 -0.5181
   34MOL0     H 4425  -0.490   2.891   0.244 -3.0356 -1.7932 -0.4587
   34MOL0     H 4426  -0.509   2.989   0.389  1.3607  0.5207 -2.0246
   34MOL0     H 4427  -0.579   2.742   0.496 -0.2603 -0.1328  0.4926
   34MOL0     H 4428  -0.544   2.687   0.339  0.2454  1.9544 -0.2479
   34MOL0     H 4429  -0.801   2.722   0.376 -0.6589  0.3552 -0.8681
   34MOL0     H 4430  -0.743   2.831   0.251  2.2959  0.6264 -0.2516
   34MOL0     H 4431  -0.751   2.914   0.548  1.7638  3.4724 -0.0755
   34MOL0     H 4432  -0.729   3.015   0.405 -0.6186 -0.3445 -1.5364
   34MOL0     H 4433  -0.954   3.025   0.504 -2.3764  0.5096 -0.6665
   34MOL0     H 4434  -0.979   2.848   0.468  2.1355 -1.2912 -0.5519
   34MOL0     H 4435  -0.973   2.913   0.222 -0.3813  0.2096  1.1063
   34MOL0     H 4436  -0.935   3.079   0.271  1.3984  0.0320  1.5146
   34MOL0     H 4437  -1.183   2.981   0.200  3.3319 -1.8713 -0.8791
   34MOL0     H 4438  -1.197   2.948   0.372 -0.2534 -2.3166 -2.7255
   34MOL0     H 4439  -1.099   3.233   0.272 -1.3739  2.2172  1.4946
   34MOL0     H 4440  -1.140   3.164   0.438 -1.1742  1.1779 -0.1110
   34MOL0     H 4441  -1.376   3.162   0.507  1.7251 -1.4864 -0.4904
   34MOL0     H 4442  -1.662   3.234   0.490  0.8623 -0.2958  0.5099
   34MOL0     H 4443  -1.707   3.313   0.329  1.2494  1.2401 -0.4077
   34MOL0     H 4444  -1.547   3.499   0.380 -1.4743  2.2557  1.7183
   34MOL0     H 4445  -1.536   3.429   0.549 -0.6561 -1.0935  0.6634
   34MOL0     H 4446  -1.807   3.431   0.506 -2.3725  2.6943 -0.5360
   34MOL0     H 4447  -1.710   3.549   0.601  0.5360 -1.5575  0.9468
   34MOL0     H 4448  -1.810   3.557   0.318 -1.5839  1.5626 -0.6587
   34MOL0     H 4449  -1.699   3.686   0.380  0.9158  1.2181  3.0296
   34MOL0     H 4450  -2.038   3.891   0.343 -0.8836  0.8179  1.9772
   34MOL0     H 4451  -2.250   3.859   0.226  1.7273  0.9326 -2.2933
   34MOL0     H 4452  -2.632   3.374   0.377  1.3775  0.4306 -0.0827
   34MOL0     H 4453  -2.860   3.282   0.283 -2.2748  1.9652  1.0123
   34MOL0     H 4454  -3.052   3.261   0.184  2.2253 -1.2108  1.1406
   34MOL0     H 4455  -2.980   3.107   0.127 -1.3889 -0.9953  2.6841
   34MOL0     H 4456  -3.203   3.089   0.047 -1.9186 -0.1284 -1.2445
   34MOL0     H 4457  -3.112   3.139  -0.096 -3.2284 -1.0011 -0.5339
   34MOL0     H 4458  -3.308   3.248  -0.107 -0.8693  0.2521  1.9188
   34MOL0     H 4459  -3.171   3.362  -0.071 -1.1382  1.0753 -0.5079
   34MOL0     H 4460  -3.374   3.253   0.122  1.9803 -1.8429 -0.7607
   34MOL0     H 4461  -3.230   3.365   0.158  1.3468 -2.0025 -0.7040
   34MOL0     H 4462  -3.449   3.418  -0.049  1.2511 -2.4277  0.3272
   34MOL0     H 4463  -3.314   3.534   0.014  0.0226  0.3510 -1.0415
   34MOL0     H 4464  -3.431   3.518   0.240  1.8956 -0.6345 -0.7539
   34MOL0     H 4465  -3.570   3.438   0.161 -0.2080  0.1808 -0.2596
   34MOL0     H 4466  -3.447   3.714   0.119 -0.3338 -1.5650  0.8442
   34MOL0     H 4467  -3.559   3.650   0.002 -0.0784  1.9088  0.1992
   34MOL0     H 4468  -3.625   3.712   0.285  2.9006 -2.4015 -0.0015
   34MOL0     H 4469  -3.732   3.604   0.207 -0.4116  1.0273  0.7779
   34MOL0     H 4470  -2.750   3.424  -0.101 -0.5790 -1.3850  0.4086
   34MOL0     H 4471  -2.543   3.532   0.000  1.1165  1.0351  3.8321
   34MOL0     H 4472  -2.251   3.459   0.389 -1.0030  0.0010  1.1893
   34MOL0     H 4473  -2.018   3.493   0.457 -1.2744 -2.1229 -1.2191
   34MOL0     H 4474  -0.337   3.054   0.215 -0.0680  0.0948  0.5583
   34MOL0     H 4475  -0.131   3.187   0.185  1.9323  0.3515  1.6097
   34MOL0     H 4476   0.356   3.176   0.055 -0.8404 -3.3582  2.8080
   34MOL0     H 4477   0.589   3.272   0.062 -0.1149 -0.6981 -0.6557
   34MOL0     H 4478   0.791   3.447   0.427 -0.0735  2.1297  1.8186
   34MOL0     H 4479   0.660   3.553   0.420 -1.3349  3.0455 -2.9431
   34MOL0     H 4480   0.766   3.677   0.226 -2.5514 -0.5281  2.3740
   34MOL0     H 4481   0.867   3.669   0.372  0.1281 -0.3928  0.6242
   34MOL0     H 4482   0.908   3.505   0.116 -0.5392 -1.4721  0.8771
   34MOL0     H 4483   0.991   3.473   0.265 -0.3026 -1.2759 -2.5405
   34MOL0     H 4484   1.086   3.620   0.080  1.2992 -0.3731 -0.3320
   34MOL0     H 4485   0.959   3.736   0.102 -1.1266 -0.4694  0.8436
   34MOL0     H 4486   1.222   3.829   0.432  0.6608  2.7180 -1.3813
   34MOL0     H 4487   0.508   3.426   0.459 -0.2231  0.8377  0.2532
   34MOL0     H 4488   0.281   3.330   0.443  1.4913  2.7250  0.2137
   35MOL0     O 4489   1.747   5.028   8.546  0.2571  0.6752  0.3350
   35MOL0     C 4490   1.768   5.089   8.648  0.8404 -0.2502 -0.2083
   35MOL0     O 4491   1.683   5.185   8.698  0.3288  0.1981  0.0860
   35MOL0     C 4492   1.554   5.206   8.651  0.6960  0.0712 -0.2126
   35MOL0     C 4493   1.477   5.109   8.585  0.3862  0.2745 -0.4749
   35MOL0     C 4494   1.355   5.147   8.518  0.3378  0.2707  0.2153
   35MOL0     C 4495   1.300   5.272   8.545 -0.6114 -0.5185 -0.0616
   35MOL0     O 4496   1.181   5.303   8.491  0.4604 -0.1481 -0.2765
   35MOL0     C 4497   1.054   5.290   8.573 -0.2703 -0.1107  0.1840
   35MOL0     C 4498   0.947   5.389   8.529  0.4972  0.3696  0.0177
   35MOL0     C 4499   0.896   5.378   8.386 -0.8048  0.0999  0.3828
   35MOL0     C 4500   0.814   5.490   8.333  0.1937  0.5325 -0.1175
   35MOL0     C 4501   0.684   5.502   8.408  0.0861 -0.0994 -0.3737
   35MOL0     C 4502   0.596   5.629   8.361 -0.0722  0.2947  0.7509
   35MOL0     C 4503   0.458   5.619   8.424  0.8454  0.5221  0.3707
   35MOL0     C 4504   0.378   5.506   8.350 -0.2958  0.8837 -0.8461
   35MOL0     N 4505   0.239   5.534   8.360 -0.1432  0.0242  0.1737
   35MOL0     C 4506   0.163   5.606   8.271 -0.4345 -0.6018 -1.7238
   35MOL0     C 4507   0.034   5.546   8.283  0.0219  0.6757  0.5641
   35MOL0     C 4508  -0.091   5.578   8.208  0.6155 -0.5232 -0.0177
   35MOL0     C 4509  -0.219   5.512   8.245  0.0060  1.2556 -0.5868
   35MOL0     C 4510  -0.330   5.552   8.146  0.1777  0.2887  0.1701
   35MOL0     C 4511  -0.466   5.487   8.169  0.3467 -0.1182  0.1413
   35MOL0     O 4512  -0.557   5.580   8.108  0.6584  0.4038  0.4729
   35MOL0     C 4513  -0.696   5.559   8.133 -0.3177  1.1864  0.1077
   35MOL0     C 4514  -0.745   5.437   8.193 -0.7170 -0.3183  0.1289
   35MOL0     C 4515  -0.880   5.425   8.214  0.0772  0.5554  0.3157
   35MOL0     C 4516  -0.973   5.523   8.186 -1.2032  0.2690 -0.0920
   35MOL0     C 4517  -1.119   5.507   8.223  0.0505 -0.1768  0.1408
   35MOL0     O 4518  -1.208   5.597   8.165 -0.2410  0.6271  0.1255
   35MOL0     C 4519  -1.338   5.577   8.179 -0.4143  0.6782  0.4103
   35MOL0     C 4520  -1.404   5.606   8.300 -1.3798 -0.3006 -0.2170
   35MOL0     C 4521  -1.540   5.588   8.304  0.2749  0.0135 -0.3825
   35MOL0     C 4522  -1.620   5.553   8.189  0.4514 -0.2153 -0.2096
   35MOL0     O 4523  -1.759   5.547   8.186 -0.4458 -0.1559  0.5213
   35MOL0     C 4524  -1.831   5.473   8.081  0.1815 -0.7482 -0.8175
   35MOL0     C 4525  -1.978   5.464   8.116 -0.0755  0.9867 -0.2857
   35MOL0     C 4526  -1.993   5.368   8.240 -0.2430 -0.0251 -0.5588
   35MOL0     C 4527  -2.141   5.351   8.267  0.5896  0.3403 -0.7204
   35MOL0     C 4528  -2.143   5.275   8.405 -0.4810  0.3937  0.1502
   35MOL0     C 4529  -2.283   5.270   8.466  0.0461  0.7915  0.2196
   35MOL0     C 4530  -2.393   5.186   8.385  0.2118  0.3425 -0.7343
   35MOL0     C 4531  -2.518   5.162   8.468  0.4742  0.6834  1.1619
   35MOL0    Cl 4532  -2.469   5.050   8.612 -0.1323 -0.5798 -0.0264
   35MOL0     C 4533  -1.547   5.537   8.068 -0.7610  0.7106 -0.6645
   35MOL0     C 4534  -1.412   5.550   8.062 -0.4227 -0.2454  0.1713
   35MOL0     O 4535  -1.154   5.416   8.297  0.3224 -0.1480  0.0502
   35MOL0     C 4536  -0.922   5.641   8.118 -1.1568  0.2848 -0.3793
   35MOL0     C 4537  -0.783   5.655   8.092  0.7461 -0.6114  0.6303
   35MOL0     N 4538   0.034   5.462   8.397  0.2215  0.3567  0.5055
   35MOL0     N 4539   0.160   5.452   8.436 -0.5154 -0.3926 -0.5394
   35MOL0     C 4540   1.364   5.360   8.637  0.1889 -0.9771  0.5995
   35MOL0     C 4541   1.496   5.331   8.681 -0.6279 -0.2444 -0.5386
   35MOL0     C 4542   1.893   5.051   8.711 -0.3636 -0.1774 -0.4679
   35MOL0     C 4543   1.952   5.130   8.813 -0.9692 -0.4810 -0.3751
   35MOL0     C 4544   2.073   5.091   8.875 -0.3073  0.1720 -0.2832
   35MOL0     C 4545   2.138   4.974   8.835 -0.5323 -0.1450  0.0796
   35MOL0     O 4546   2.240   4.916   8.916  0.5130 -0.8202 -0.4286
   35MOL0     C 4547   2.363   4.993   8.909 -0.0978  0.2670  0.4807
   35MOL0     C 4548   2.461   4.902   8.972 -0.9406 -0.2760  0.2799
   35MOL0     C 4549   2.518   4.790   8.883 -0.4078  0.0382  0.0401
   35MOL0     C 4550   2.633   4.715   8.954 -0.2520  0.2745 -0.4559
   35MOL0     C 4551   2.752   4.808   8.974  0.1989  0.3796  0.7074
   35MOL0     C 4552   2.857   4.873   8.984  0.2299 -0.1518 -0.6400
   35MOL0     C 4553   2.084   4.890   8.743  0.5493 -0.4079 -1.1718
   35MOL0     C 4554   1.961   4.925   8.684  0.0616 -0.7900  1.1126
   35MOL0     H 4555   1.513   5.009   8.563 -1.5827  0.0215 -3.0062
   35MOL0     H 4556   1.296   5.084   8.452  1.7355 -0.6899 -0.1673
   35MOL0     H 4557   1.074   5.302   8.680 -1.9431  0.9374  0.4141
   35MOL0     H 4558   1.034   5.183   8.564  4.1410 -1.1406  0.1787
   35MOL0     H 4559   0.984   5.491   8.541 -1.6745  1.1122  0.9199
   35MOL0     H 4560   0.866   5.382   8.603 -0.8155  1.9159 -1.2064
   35MOL0     H 4561   0.833   5.289   8.383 -0.0183 -0.4677  0.4982
   35MOL0     H 4562   0.979   5.353   8.319  0.8986  0.3837  2.2878
   35MOL0     H 4563   0.868   5.584   8.350  0.5863 -0.0584  2.2926
   35MOL0     H 4564   0.789   5.476   8.228 -1.6733  0.8350  0.2406
   35MOL0     H 4565   0.699   5.518   8.515 -0.4301 -1.4561 -0.0798
   35MOL0     H 4566   0.638   5.402   8.406  2.6422 -1.3607 -0.0532
   35MOL0     H 4567   0.588   5.642   8.253 -1.5423 -2.3870  0.4724
   35MOL0     H 4568   0.640   5.724   8.394  2.1191  0.3049 -1.8445
   35MOL0     H 4569   0.460   5.601   8.532 -2.2800  0.1273  0.4529
   35MOL0     H 4570   0.400   5.711   8.414  3.1969  2.1097  0.6907
   35MOL0     H 4571   0.401   5.416   8.407 -2.8854  3.0964  4.3613
   35MOL0     H 4572   0.409   5.499   8.245 -4.8733  0.1494 -2.3698
   35MOL0     H 4573   0.200   5.679   8.201 -1.9932  1.0225 -0.9389
   35MOL0     H 4574  -0.066   5.565   8.102  0.9797 -0.4481  0.0570
   35MOL0     H 4575  -0.109   5.683   8.234  2.7021 -0.2563  0.5995
   35MOL0     H 4576  -0.253   5.533   8.346  2.1661  1.5611  0.1403
   35MOL0     H 4577  -0.205   5.403   8.247 -1.4129  0.9888 -2.4701
   35MOL0     H 4578  -0.335   5.661   8.153  0.4540  0.6028 -3.1416
   35MOL0     H 4579  -0.297   5.536   8.043 -0.0855  2.8852 -0.3839
   35MOL0     H 4580  -0.479   5.467   8.276 -0.3390 -2.5586 -0.3299
   35MOL0     H 4581  -0.471   5.390   8.118  1.8626  0.1241 -0.5197
   35MOL0     H 4582  -0.683   5.351   8.215  1.8343  1.5797  0.7410
   35MOL0     H 4583  -0.915   5.331   8.257  0.2326  0.4917  0.3040
   35MOL0     H 4584  -1.350   5.647   8.385  2.0139 -1.5324 -1.5717
   35MOL0     H 4585  -1.602   5.600   8.392 -0.5074 -2.2087 -0.5546
   35MOL0     H 4586  -1.784   5.374   8.078 -0.2816 -0.9621 -1.1576
   35MOL0     H 4587  -1.813   5.511   7.980  1.4931 -0.4124 -0.4724
   35MOL0     H 4588  -2.039   5.424   8.034 -2.0282 -0.1944  1.6229
   35MOL0     H 4589  -2.021   5.558   8.151 -0.0240  0.1378  2.3141
   35MOL0     H 4590  -1.940   5.420   8.320  0.7419 -4.2664  1.8329
   35MOL0     H 4591  -1.943   5.272   8.222  1.0688  0.2342  1.4047
   35MOL0     H 4592  -2.186   5.451   8.267 -1.7840 -0.5160  2.7235
   35MOL0     H 4593  -2.195   5.296   8.189  1.1228  1.3612 -1.8464
   35MOL0     H 4594  -2.081   5.341   8.466 -1.0838  2.0376 -0.9471
   35MOL0     H 4595  -2.094   5.178   8.403 -1.5150 -0.2075  1.8116
   35MOL0     H 4596  -2.308   5.375   8.479  3.0125  1.6830 -0.5588
   35MOL0     H 4597  -2.263   5.220   8.561  2.5898 -1.9330 -1.5777
   35MOL0     H 4598  -2.415   5.228   8.286 -0.1961 -1.0616 -1.2654
   35MOL0     H 4599  -2.352   5.087   8.361 -0.6226  0.3323 -2.2377
   35MOL0     H 4600  -2.600   5.103   8.427  1.9523 -1.0190  0.4930
   35MOL0     H 4601  -2.572   5.248   8.508 -1.3132  0.4243 -0.5872
   35MOL0     H 4602  -1.608   5.533   7.978 -0.0062  0.6330 -1.1766
   35MOL0     H 4603  -1.354   5.532   7.972  0.6785 -1.1615  1.0278
   35MOL0     H 4604  -0.996   5.711   8.081 -0.4522  0.0945 -2.2782
   35MOL0     H 4605  -0.726   5.739   8.055  0.5394  0.9007  3.4968
   35MOL0     H 4606   1.321   5.448   8.684  1.3887 -0.2176  0.3092
   35MOL0     H 4607   1.554   5.397   8.744  1.1701 -3.4398  1.4474
   35MOL0     H 4608   1.913   5.218   8.864 -1.5128 -2.3179  2.6359
   35MOL0     H 4609   2.121   5.146   8.955  2.2986 -1.7654 -0.3769
   35MOL0     H 4610   2.353   5.087   8.965  3.6105  1.0736  0.0403
   35MOL0     H 4611   2.396   5.009   8.806  0.5201 -2.2507  0.2231
   35MOL0     H 4612   2.544   4.966   9.005 -2.0330  1.6108 -0.4492
   35MOL0     H 4613   2.421   4.853   9.061  2.4600 -0.3905  1.9048
   35MOL0     H 4614   2.548   4.829   8.785 -1.7015 -2.2006 -1.3276
   35MOL0     H 4615   2.442   4.713   8.867 -0.4610  0.2913 -1.0463
   35MOL0     H 4616   2.599   4.683   9.053  1.4371 -0.5389 -0.1072
   35MOL0     H 4617   2.647   4.626   8.893  2.4387  1.0812 -1.1678
   35MOL0     H 4618   2.954   4.912   9.005  1.9977 -3.0828 -2.5408
   35MOL0     H 4619   2.121   4.790   8.723  0.0509 -0.4614 -1.8971
   35MOL0     H 4620   1.913   4.868   8.605  2.6219  1.9352 -2.7837
   36MOL0     O 4621   9.097   0.957   1.401  0.0949  0.3772 -0.0725
   36MOL0     C 4622   9.112   0.838   1.402 -0.3217  0.1671  0.1568
   36MOL0     O 4623   9.008   0.744   1.410 -0.3057 -0.0169  0.0105
   36MOL0     C 4624   8.883   0.794   1.378  0.7006 -0.0584 -0.3163
   36MOL0     C 4625   8.838   0.773   1.247 -0.3681 -0.0649  0.0868
   36MOL0     C 4626   8.713   0.817   1.210 -0.7451 -0.0414  0.0553
   36MOL0     C 4627   8.626   0.875   1.305  0.4210  1.4290  0.5631
   36MOL0     O 4628   8.504   0.931   1.272  0.0629 -0.1459 -0.4506
   36MOL0     C 4629   8.497   0.979   1.132  0.6048 -0.0464  0.1940
   36MOL0     C 4630   8.400   1.096   1.138 -0.2481  0.1269  0.8915
   36MOL0     C 4631   8.247   1.060   1.111 -0.8012 -0.2818 -0.5044
   36MOL0     C 4632   8.193   0.980   1.232  0.1418 -0.5289 -0.0630
   36MOL0     C 4633   8.043   0.947   1.221  0.5424  0.6531 -0.6034
   36MOL0     C 4634   8.006   0.845   1.103  0.5932  0.2714  0.3489
   36MOL0     C 4635   7.863   0.835   1.078  0.8106 -0.2557 -0.5280
   36MOL0     C 4636   7.843   0.792   0.934 -0.2456 -0.1673  0.4380
   36MOL0     N 4637   7.908   0.667   0.883 -0.2278 -0.8032  0.3046
   36MOL0     C 4638   8.032   0.661   0.832 -0.3150  0.2432 -0.2468
   36MOL0     C 4639   8.059   0.532   0.805  0.4135  0.1767 -0.7410
   36MOL0     C 4640   8.180   0.470   0.737 -0.1301 -0.2528 -0.3765
   36MOL0     C 4641   8.291   0.435   0.831  0.0409  0.3644 -0.4056
   36MOL0     C 4642   8.354   0.560   0.895  0.1186  0.2809  0.3525
   36MOL0     C 4643   8.459   0.517   0.998  0.6226  0.1845  0.3343
   36MOL0     O 4644   8.547   0.419   0.941 -0.5957 -0.7877 -0.8615
   36MOL0     C 4645   8.675   0.454   0.911 -0.8634 -0.0576  0.1069
   36MOL0     C 4646   8.728   0.587   0.914  1.2059 -0.2243  0.7756
   36MOL0     C 4647   8.864   0.608   0.870  0.6472 -0.2004 -0.5094
   36MOL0     C 4648   8.939   0.506   0.812  0.6513 -1.1296  0.5389
   36MOL0     C 4649   9.075   0.539   0.765  0.8567  0.1793  0.1238
   36MOL0     O 4650   9.151   0.437   0.705 -0.3712 -0.0786 -0.2093
   36MOL0     C 4651   9.278   0.461   0.668  0.1365  0.2944 -0.6172
   36MOL0     C 4652   9.326   0.397   0.551 -0.3855 -0.3183  0.3376
   36MOL0     C 4653   9.467   0.390   0.516  0.1334 -0.0135 -0.1492
   36MOL0     C 4654   9.558   0.445   0.607 -1.0273  0.3908  0.5830
   36MOL0     O 4655   9.701   0.451   0.593  0.2053  0.2522  0.6739
   36MOL0     C 4656   9.777   0.354   0.506 -0.4412 -0.0787  0.3148
   36MOL0     C 4657   9.925   0.384   0.502 -0.1692  0.1697 -0.2824
   36MOL0     C 4658   9.982   0.352   0.639 -0.6257  0.1462  0.0770
   36MOL0     C 4659  10.137   0.354   0.652 -0.9204  0.2168 -1.0277
   36MOL0     C 4660  10.186   0.499   0.621  0.2800 -0.1141 -0.2049
   36MOL0     C 4661  10.340   0.508   0.621 -0.7597 -0.1130 -0.1604
   36MOL0     C 4662  10.392   0.456   0.484 -0.4400  0.2013  0.0425
   36MOL0     C 4663  10.542   0.462   0.450 -0.6582 -0.7281 -0.1526
   36MOL0    Cl 4664  10.628   0.345   0.560  0.5921 -0.0482 -0.0899
   36MOL0     C 4665   9.509   0.497   0.728  0.1552 -0.1279 -0.2010
   36MOL0     C 4666   9.373   0.502   0.759  0.0700 -0.0948 -0.3432
   36MOL0     O 4667   9.113   0.653   0.790 -0.0243  0.2352 -0.7075
   36MOL0     C 4668   8.880   0.378   0.799 -0.3952  0.3278  0.2690
   36MOL0     C 4669   8.749   0.353   0.847  0.8779  0.2725 -0.4053
   36MOL0     N 4670   7.948   0.465   0.860 -0.0963 -0.5240  0.3162
   36MOL0     N 4671   7.851   0.550   0.894 -0.0299  0.5375  0.0727
   36MOL0     C 4672   8.668   0.890   1.436 -0.6739 -0.4502  0.8533
   36MOL0     C 4673   8.795   0.851   1.466 -0.5385 -0.0691  0.4685
   36MOL0     C 4674   9.253   0.792   1.428  0.3535 -0.0834  0.4020
   36MOL0     C 4675   9.362   0.879   1.413  0.2986 -0.1323  0.2581
   36MOL0     C 4676   9.492   0.838   1.438 -0.6522  0.1762 -0.5153
   36MOL0     C 4677   9.524   0.704   1.455 -0.7507  0.3517  0.0188
   36MOL0     O 4678   9.653   0.662   1.472 -0.0122  0.6100 -0.2770
   36MOL0     C 4679   9.669   0.537   1.540  0.0834  0.0187 -0.0372
   36MOL0     C 4680   9.817   0.502   1.548  0.6223 -0.1667  0.8614
   36MOL0     C 4681   9.898   0.620   1.606  0.4257  0.3775  0.0854
   36MOL0     C 4682  10.036   0.579   1.651  0.2601  0.2828 -0.6637
   36MOL0     C 4683  10.032   0.457   1.735  0.5955 -0.1741 -0.2794
   36MOL0     C 4684  10.018   0.364   1.818 -0.5249 -0.6111  0.6139
   36MOL0     C 4685   9.416   0.620   1.464 -0.7958 -0.0849 -1.5413
   36MOL0     C 4686   9.273   0.662   1.450 -0.3691  0.6150 -0.3079
   36MOL0     H 4687   8.893   0.721   1.170  1.9484  1.4842  0.5698
   36MOL0     H 4688   8.671   0.818   1.110  0.7509  3.9168 -0.7124
   36MOL0     H 4689   8.454   0.901   1.068 -3.1447 -1.7711  4.3036
   36MOL0     H 4690   8.591   1.018   1.092 -0.9403  2.3124 -1.3227
   36MOL0     H 4691   8.429   1.168   1.062  1.5830 -0.1133  1.3248
   36MOL0     H 4692   8.414   1.144   1.235 -1.5453  0.7602  0.7809
   36MOL0     H 4693   8.241   1.004   1.016 -1.6489 -0.3516 -0.4136
   36MOL0     H 4694   8.193   1.154   1.106  0.1260  0.3971  1.3313
   36MOL0     H 4695   8.247   0.887   1.253  0.1735 -0.9492 -1.8904
   36MOL0     H 4696   8.202   1.049   1.317  1.2436 -0.9011  0.1444
   36MOL0     H 4697   7.985   1.039   1.217 -0.7836 -0.0044  1.6853
   36MOL0     H 4698   8.007   0.890   1.307 -0.0498  0.2756 -1.0948
   36MOL0     H 4699   8.042   0.751   1.146 -2.3107 -0.3419  1.6741
   36MOL0     H 4700   8.070   0.860   1.015 -0.9208  0.8637 -0.6803
   36MOL0     H 4701   7.813   0.757   1.137 -0.6844  0.6641 -0.5395
   36MOL0     H 4702   7.800   0.924   1.083 -0.1918 -0.9919  2.5271
   36MOL0     H 4703   7.880   0.872   0.869  1.5054 -0.0972  1.4465
   36MOL0     H 4704   7.735   0.785   0.916 -0.0956  2.2171 -2.0095
   36MOL0     H 4705   8.091   0.744   0.795 -1.4200 -0.2995 -3.5724
   36MOL0     H 4706   8.219   0.538   0.661 -1.7486  2.6853  1.2091
   36MOL0     H 4707   8.152   0.378   0.687  0.8142 -0.1704 -1.0721
   36MOL0     H 4708   8.369   0.394   0.766  0.6586  0.3764  0.3053
   36MOL0     H 4709   8.255   0.365   0.907 -0.7436 -1.7543 -2.6032
   36MOL0     H 4710   8.393   0.628   0.819 -1.0102 -0.9575 -1.4295
   36MOL0     H 4711   8.269   0.606   0.945  0.2618 -1.7499  2.6320
   36MOL0     H 4712   8.409   0.465   1.080  0.5339  3.8605  2.8366
   36MOL0     H 4713   8.483   0.611   1.048 -3.8609  2.7230 -1.6231
   36MOL0     H 4714   8.666   0.667   0.954 -1.1114 -1.0080 -1.0678
   36MOL0     H 4715   8.899   0.709   0.888 -0.1038  0.4131 -2.2037
   36MOL0     H 4716   9.262   0.352   0.476  2.4949 -1.0853 -1.8652
   36MOL0     H 4717   9.492   0.355   0.416 -0.5685  1.7558 -1.0062
   36MOL0     H 4718   9.733   0.355   0.406 -0.3272  0.6946  0.2685
   36MOL0     H 4719   9.756   0.254   0.545  0.4291  0.0333  1.1050
   36MOL0     H 4720   9.928   0.491   0.475 -1.4220  0.2322 -0.2547
   36MOL0     H 4721   9.982   0.318   0.437  0.3355  0.5793 -0.2682
   36MOL0     H 4722   9.956   0.250   0.670  1.1709 -0.8587 -1.4991
   36MOL0     H 4723   9.947   0.426   0.711  0.3151  0.5724  0.1149
   36MOL0     H 4724  10.168   0.333   0.755  0.5578  2.1540 -1.0238
   36MOL0     H 4725  10.187   0.275   0.596 -1.9818 -0.5934 -0.8528
   36MOL0     H 4726  10.148   0.564   0.701 -4.0260 -1.5347 -0.8138
   36MOL0     H 4727  10.143   0.537   0.527  2.0894  4.1671  0.4567
   36MOL0     H 4728  10.386   0.445   0.699 -0.8619 -0.9996 -0.8000
   36MOL0     H 4729  10.363   0.613   0.638 -3.6460  0.5148  0.2265
   36MOL0     H 4730  10.366   0.351   0.467  1.4462 -0.0779 -1.5093
   36MOL0     H 4731  10.345   0.513   0.404  2.0419 -1.1615 -2.5505
   36MOL0     H 4732  10.581   0.564   0.453  1.9807 -1.6771  1.8074
   36MOL0     H 4733  10.554   0.414   0.352 -2.2109 -4.0112  1.1024
   36MOL0     H 4734   9.581   0.548   0.791  0.3175 -1.1699  0.4774
   36MOL0     H 4735   9.337   0.533   0.857 -2.7068 -3.1808 -0.2032
   36MOL0     H 4736   8.942   0.296   0.764  1.5548  1.3791  1.1310
   36MOL0     H 4737   8.710   0.252   0.851 -1.3808  1.1118  3.0235
   36MOL0     H 4738   8.593   0.919   1.510 -1.1471 -1.2980  0.7244
   36MOL0     H 4739   8.827   0.842   1.569 -3.0071 -3.2002  1.1311
   36MOL0     H 4740   9.347   0.981   1.377  2.8151 -0.0795 -0.8501
   36MOL0     H 4741   9.574   0.909   1.435 -0.3325 -0.2256 -2.4087
   36MOL0     H 4742   9.618   0.453   1.491  0.6846 -0.2976 -0.1277
   36MOL0     H 4743   9.624   0.543   1.640  0.0898  2.0209 -0.1174
   36MOL0     H 4744   9.814   0.406   1.599  0.3421  1.4043  4.0524
   36MOL0     H 4745   9.863   0.487   1.449 -0.6433  1.6768 -0.0769
   36MOL0     H 4746   9.845   0.651   1.697  0.2183 -0.1960  0.1608
   36MOL0     H 4747   9.891   0.710   1.544  1.0433 -0.7906 -1.7608
   36MOL0     H 4748  10.098   0.558   1.563 -1.1010 -0.4378 -1.4855
   36MOL0     H 4749  10.080   0.662   1.705  1.4006 -1.2177  0.8208
   36MOL0     H 4750  10.003   0.282   1.885 -0.2440 -2.5464 -1.5758
   36MOL0     H 4751   9.425   0.512   1.468 -2.3720 -0.2164 -0.7964
   36MOL0     H 4752   9.192   0.591   1.468  0.6004  0.1456  2.8103
   37MOL0     O 4753   4.178   8.134   3.316 -0.3528  0.5987  0.7714
   37MOL0     C 4754   4.102   8.226   3.309  0.9970 -0.4144  0.6780
   37MOL0     O 4755   4.146   8.345   3.282 -0.1872  0.2952 -1.0079
   37MOL0     C 4756   4.286   8.374   3.285 -0.3535 -0.4612 -0.1063
   37MOL0     C 4757   4.335   8.451   3.386 -0.8902 -0.0848 -0.7052
   37MOL0     C 4758   4.473   8.496   3.374 -0.3311  0.1199 -0.2785
   37MOL0     C 4759   4.554   8.448   3.266 -0.1191  0.3285  0.0422
   37MOL0     O 4760   4.686   8.478   3.260 -0.1362  0.2869  0.5206
   37MOL0     C 4761   4.715   8.617   3.296 -0.3950  0.6949  0.7223
   37MOL0     C 4762   4.824   8.676   3.212  0.0998  0.5295 -0.5530
   37MOL0     C 4763   4.953   8.600   3.247  0.4314 -0.5196 -0.1338
   37MOL0     C 4764   5.074   8.673   3.191 -0.7019  0.0150  1.0750
   37MOL0     C 4765   5.212   8.595   3.194 -0.2957  0.0378 -0.8316
   37MOL0     C 4766   5.203   8.447   3.133  0.9607  0.5836  0.6298
   37MOL0     C 4767   5.326   8.376   3.120 -0.1191  0.4209 -0.4143
   37MOL0     C 4768   5.312   8.267   3.000  0.1804 -0.2132  0.3869
   37MOL0     N 4769   5.193   8.178   3.015 -0.7607 -0.1088 -0.4147
   37MOL0     C 4770   5.181   8.069   3.100 -0.1891  0.5939 -0.1710
   37MOL0     C 4771   5.052   8.029   3.090 -0.0768  0.2660 -0.5914
   37MOL0     C 4772   4.989   7.906   3.151  0.3668 -0.9829  0.4230
   37MOL0     C 4773   4.875   7.938   3.254  0.1314  0.5127  0.7895
   37MOL0     C 4774   4.741   8.002   3.194  0.3099  0.2996  0.6555
   37MOL0     C 4775   4.652   8.055   3.300  0.0301  0.7959  0.1615
   37MOL0     O 4776   4.622   7.946   3.392 -0.0714 -0.8880  0.0983
   37MOL0     C 4777   4.517   7.978   3.471 -0.4009 -0.1357  1.0059
   37MOL0     C 4778   4.471   8.113   3.493  0.2066 -0.5905 -0.2718
   37MOL0     C 4779   4.352   8.132   3.568 -0.2562  0.5559 -0.6246
   37MOL0     C 4780   4.286   8.018   3.612  0.2957  0.7289  0.4387
   37MOL0     C 4781   4.155   8.036   3.679  0.6246  0.4472 -0.9394
   37MOL0     O 4782   4.097   8.156   3.660  1.4843 -0.8083 -0.5671
   37MOL0     C 4783   3.972   8.174   3.705  0.5358 -1.1076 -0.1007
   37MOL0     C 4784   3.938   8.305   3.742  0.3530 -1.4454 -0.4656
   37MOL0     C 4785   3.800   8.339   3.754 -0.7223  0.5489 -0.1180
   37MOL0     C 4786   3.704   8.240   3.744 -0.4663  0.0541  0.0308
   37MOL0     O 4787   3.573   8.277   3.765  0.1358 -0.4439  0.2329
   37MOL0     C 4788   3.482   8.166   3.811  0.6750 -0.1414 -0.0502
   37MOL0     C 4789   3.341   8.219   3.818  0.4227  0.5987  0.0219
   37MOL0     C 4790   3.296   8.277   3.683  0.5196 -0.0675  0.8388
   37MOL0     C 4791   3.275   8.170   3.579  0.7930  1.3138 -0.2457
   37MOL0     C 4792   3.198   8.225   3.460 -0.6567 -0.0912  0.2538
   37MOL0     C 4793   3.051   8.262   3.500  0.1094 -0.0275 -0.2283
   37MOL0     C 4794   2.949   8.233   3.384  0.2162 -0.0339 -0.2911
   37MOL0     C 4795   2.964   8.346   3.282  0.0101  1.0385  0.7086
   37MOL0    Cl 4796   3.104   8.328   3.176  0.1668  0.0698  0.1262
   37MOL0     C 4797   3.741   8.107   3.711  0.0359 -0.1346  0.8721
   37MOL0     C 4798   3.873   8.078   3.689  0.7101 -0.3291  0.8115
   37MOL0     O 4799   4.112   7.944   3.745  0.6563 -0.3416 -0.0658
   37MOL0     C 4800   4.338   7.889   3.604 -0.4518 -0.1063 -0.4194
   37MOL0     C 4801   4.448   7.873   3.526 -0.2370 -0.3324  0.5065
   37MOL0     N 4802   4.991   8.110   3.002 -0.0398 -0.1190 -0.2668
   37MOL0     N 4803   5.073   8.190   2.943  0.1933  0.1031 -0.3492
   37MOL0     C 4804   4.507   8.357   3.177  0.0211 -0.2805 -0.4074
   37MOL0     C 4805   4.375   8.321   3.180  0.1151  0.1576 -0.3365
   37MOL0     C 4806   3.951   8.202   3.324  0.3128  0.2331  1.3920
   37MOL0     C 4807   3.871   8.304   3.368  0.2634 -0.1312  0.6791
   37MOL0     C 4808   3.733   8.280   3.376  0.2340  0.0039  0.7486
   37MOL0     C 4809   3.669   8.161   3.343  0.1817  0.3737  0.4038
   37MOL0     O 4810   3.533   8.131   3.347  0.3258  0.2436 -0.4976
   37MOL0     C 4811   3.473   8.078   3.232 -1.0288 -0.9828  0.3974
   37MOL0     C 4812   3.521   8.162   3.113 -0.7579  0.4769 -0.1214
   37MOL0     C 4813   3.422   8.134   2.997 -0.0736 -0.2275  0.3138
   37MOL0     C 4814   3.488   8.161   2.864 -0.3951  0.2328  0.5845
   37MOL0     C 4815   3.525   8.310   2.838 -0.1933  0.8772 -1.0519
   37MOL0     C 4816   3.547   8.425   2.831  0.4965  0.0169  1.1909
   37MOL0     C 4817   3.759   8.055   3.312  0.1188 -0.7131  0.3701
   37MOL0     C 4818   3.892   8.076   3.293  0.0674  0.1893  0.4564
   37MOL0     H 4819   4.275   8.484   3.470  0.3137 -0.2996  0.2671
   37MOL0     H 4820   4.515   8.552   3.457 -1.7901  1.6945 -0.5378
   37MOL0     H 4821   4.726   8.622   3.404 -2.0400  0.0526  0.9501
   37MOL0     H 4822   4.630   8.683   3.271 -0.5677 -0.1659 -1.1190
   37MOL0     H 4823   4.824   8.781   3.241 -0.7069  0.4241 -0.1412
   37MOL0     H 4824   4.804   8.678   3.104  2.9872  2.1220 -1.1505
   37MOL0     H 4825   4.945   8.507   3.190 -3.9824 -0.0811 -0.5870
   37MOL0     H 4826   4.969   8.583   3.354  1.3541  1.7709  0.1452
   37MOL0     H 4827   5.063   8.689   3.083  0.3059  2.1156  1.2190
   37MOL0     H 4828   5.092   8.772   3.234  1.3860 -0.0205  0.3913
   37MOL0     H 4829   5.254   8.584   3.295  0.5548 -0.6210 -1.2463
   37MOL0     H 4830   5.289   8.651   3.142 -0.3828  1.2259  0.2597
   37MOL0     H 4831   5.151   8.457   3.037 -0.3099  2.2593  1.4331
   37MOL0     H 4832   5.136   8.385   3.193 -1.0112  0.5166 -1.5008
   37MOL0     H 4833   5.415   8.438   3.103  2.1101 -2.3239  0.3405
   37MOL0     H 4834   5.342   8.334   3.219  0.6475  2.6038  0.4563
   37MOL0     H 4835   5.399   8.201   2.996  0.7838  0.6331 -0.8026
   37MOL0     H 4836   5.314   8.324   2.907 -2.9505 -0.8762 -0.2139
   37MOL0     H 4837   5.251   8.009   3.158  0.5277  0.9464 -0.6525
   37MOL0     H 4838   5.072   7.858   3.202 -0.7488 -2.5588  0.8454
   37MOL0     H 4839   4.951   7.844   3.069  2.1751  0.5690 -1.7271
   37MOL0     H 4840   4.915   8.017   3.317  0.3377  0.6873  0.4426
   37MOL0     H 4841   4.853   7.841   3.300  0.4489 -0.8987 -1.8092
   37MOL0     H 4842   4.765   8.078   3.119  0.8535 -0.0167  0.5007
   37MOL0     H 4843   4.691   7.923   3.137  0.8178 -0.0070  0.6266
   37MOL0     H 4844   4.568   8.107   3.252  0.7108  1.5335 -0.2607
   37MOL0     H 4845   4.716   8.127   3.352  1.2212  1.4079 -1.9938
   37MOL0     H 4846   4.514   8.207   3.459 -3.2127  1.3179  0.3068
   37MOL0     H 4847   4.317   8.235   3.565  3.3053  1.9400 -0.4788
   37MOL0     H 4848   4.012   8.379   3.769 -3.6158  3.0725 -0.6554
   37MOL0     H 4849   3.769   8.436   3.795 -0.9631  0.1059  0.7845
   37MOL0     H 4850   3.524   8.128   3.904  0.7417  0.8268  0.3194
   37MOL0     H 4851   3.484   8.085   3.737 -1.7528  1.5402 -2.1678
   37MOL0     H 4852   3.340   8.292   3.900  2.6001  1.5798 -0.7522
   37MOL0     H 4853   3.271   8.137   3.839  0.9613 -0.3583 -1.7265
   37MOL0     H 4854   3.370   8.351   3.649 -0.9321  1.6864  1.3559
   37MOL0     H 4855   3.203   8.330   3.706 -1.7138 -2.1684 -2.5570
   37MOL0     H 4856   3.369   8.121   3.552  1.2104 -0.1120  3.3129
   37MOL0     H 4857   3.212   8.086   3.609  0.0935  1.6743 -0.6650
   37MOL0     H 4858   3.197   8.149   3.381  0.3317 -0.9157  1.0053
   37MOL0     H 4859   3.263   8.305   3.423  1.2267 -1.0382  1.3834
   37MOL0     H 4860   3.048   8.370   3.520 -1.3207  0.2197 -1.5685
   37MOL0     H 4861   3.027   8.209   3.593  3.4688 -0.4719  0.5109
   37MOL0     H 4862   2.973   8.145   3.323  0.0956  0.2594 -0.7602
   37MOL0     H 4863   2.844   8.227   3.415 -0.6285  2.1082 -2.4731
   37MOL0     H 4864   2.975   8.444   3.329 -0.5917  2.7483 -2.4555
   37MOL0     H 4865   2.870   8.344   3.226 -0.5632  3.8316  1.4307
   37MOL0     H 4866   3.671   8.030   3.679 -0.6870 -0.3991  2.9240
   37MOL0     H 4867   3.896   7.975   3.667  2.5262  0.5894 -2.3255
   37MOL0     H 4868   4.294   7.803   3.653 -0.0755  1.9625  3.9531
   37MOL0     H 4869   4.478   7.771   3.505  0.4726 -0.1576  0.6589
   37MOL0     H 4870   4.578   8.335   3.098 -0.3389 -0.8741 -0.5784
   37MOL0     H 4871   4.326   8.262   3.104  2.4435 -2.2422 -0.1007
   37MOL0     H 4872   3.914   8.404   3.376  0.2614  0.0877 -1.5772
   37MOL0     H 4873   3.670   8.357   3.420 -0.2562 -0.3996  0.7712
   37MOL0     H 4874   3.367   8.095   3.248 -0.6166  0.4695  1.7559
   37MOL0     H 4875   3.483   7.969   3.227 -2.3261 -1.1836  1.6551
   37MOL0     H 4876   3.528   8.269   3.133  4.8245  0.0144  2.2002
   37MOL0     H 4877   3.621   8.126   3.088 -0.6460  1.9348 -2.0918
   37MOL0     H 4878   3.340   8.206   2.986 -1.1517 -1.5733 -0.8524
   37MOL0     H 4879   3.376   8.036   2.984  1.9132 -0.9406 -2.0280
   37MOL0     H 4880   3.580   8.103   2.849 -1.4425 -1.0588 -1.2000
   37MOL0     H 4881   3.419   8.136   2.783  0.5086  1.5858 -0.6588
   37MOL0     H 4882   3.560   8.531   2.818 -0.6715  0.0647  0.1510
   37MOL0     H 4883   3.717   7.956   3.294  2.5487 -1.6221 -0.6582
   37MOL0     H 4884   3.951   7.986   3.278 -2.5333 -1.6517  0.4981
   38MOL0     O 4885  10.204   6.169   9.770 -0.6969  0.6963 -0.0606
   38MOL0     C 4886  10.241   6.167   9.651  0.0398 -0.2017 -0.7411
   38MOL0     O 4887  10.163   6.135   9.543  0.3323  0.5468 -0.3145
   38MOL0     C 4888  10.038   6.120   9.570  0.5680  0.1925  0.5837
   38MOL0     C 4889   9.995   5.994   9.601 -0.7002  0.3168  0.5347
   38MOL0     C 4890   9.858   5.967   9.638 -0.6058  0.9386 -0.0291
   38MOL0     C 4891   9.771   6.075   9.635  0.7927  0.3075 -0.0284
   38MOL0     O 4892   9.641   6.063   9.665  0.4034  0.2222  0.3037
   38MOL0     C 4893   9.572   5.943   9.619  0.7049 -0.3401 -0.1306
   38MOL0     C 4894   9.552   5.921   9.464 -0.1747 -0.3372 -0.3969
   38MOL0     C 4895   9.496   5.783   9.440 -1.1000  0.0297  0.1500
   38MOL0     C 4896   9.371   5.752   9.524  0.6455 -1.2155 -0.0619
   38MOL0     C 4897   9.297   5.629   9.470  0.6397  0.1480  0.6991
   38MOL0     C 4898   9.190   5.672   9.375 -0.2661  0.0322  0.6207
   38MOL0     C 4899   9.107   5.550   9.333 -0.2729  0.2610  0.3248
   38MOL0     C 4900   8.962   5.584   9.291  0.6643 -0.3450  0.1584
   38MOL0     N 4901   8.873   5.610   9.395 -0.1525 -0.1744 -0.2918
   38MOL0     C 4902   8.780   5.707   9.397  0.4384  0.6009  0.0751
   38MOL0     C 4903   8.737   5.719   9.526  0.1646 -0.0699 -0.0827
   38MOL0     C 4904   8.647   5.829   9.583  0.2272  0.4483 -0.7161
   38MOL0     C 4905   8.511   5.784   9.609 -0.3107  0.1724 -0.4466
   38MOL0     C 4906   8.419   5.744   9.488  0.0659  0.8012 -0.3249
   38MOL0     C 4907   8.275   5.729   9.534 -0.7938 -0.2571 -1.2072
   38MOL0     O 4908   8.221   5.834   9.612 -0.4694 -0.1884  1.0195
   38MOL0     C 4909   8.088   5.866   9.611  0.5162 -0.2702 -0.7867
   38MOL0     C 4910   8.055   5.994   9.657 -0.6412 -0.7273 -0.1765
   38MOL0     C 4911   7.926   6.037   9.677  0.2780 -0.4807 -0.0322
   38MOL0     C 4912   7.821   5.947   9.642  0.3543 -0.6543  0.4781
   38MOL0     C 4913   7.679   5.986   9.658  0.3682  0.1435 -0.1711
   38MOL0     O 4914   7.588   5.895   9.614 -0.5776  0.4387 -0.1277
   38MOL0     C 4915   7.456   5.910   9.633 -0.4061 -0.0744  0.7435
   38MOL0     C 4916   7.380   5.956   9.526  0.4887  0.1026 -0.3295
   38MOL0     C 4917   7.238   5.962   9.535 -0.4262  0.4582 -0.9442
   38MOL0     C 4918   7.176   5.920   9.659  0.3339 -0.1875  0.8723
   38MOL0     O 4919   7.037   5.921   9.649 -0.5875 -0.1221  0.2035
   38MOL0     C 4920   6.961   5.925   9.764  0.1615 -0.0475  0.1587
   38MOL0     C 4921   6.811   5.926   9.728 -0.1859  0.7601 -0.1664
   38MOL0     C 4922   6.709   5.944   9.838  0.0489 -0.3364  1.2032
   38MOL0     C 4923   6.749   5.870   9.972 -0.3219  0.9966 -0.0202
   38MOL0     C 4924   6.636   5.871  10.072  1.0734  0.3197  0.1709
   38MOL0     C 4925   6.620   6.013  10.124 -0.0048 -0.3730 -0.2168
   38MOL0     C 4926   6.517   6.019  10.229  0.4908 -0.4487 -0.5986
   38MOL0     C 4927   6.481   6.165  10.258  0.0915 -0.1395 -0.2929
   38MOL0    Cl 4928   6.352   6.232  10.153  0.3699 -0.0734 -0.1588
   38MOL0     C 4929   7.256   5.886   9.769 -0.5578  0.1776 -0.1608
   38MOL0     C 4930   7.396   5.879   9.755 -0.6852  0.4483 -0.0405
   38MOL0     O 4931   7.652   6.094   9.712 -0.1481  0.0699 -0.3345
   38MOL0     C 4932   7.857   5.819   9.591  0.2037  0.2057 -0.1719
   38MOL0     C 4933   7.990   5.775   9.571 -0.9269 -0.5953 -0.3323
   38MOL0     N 4934   8.806   5.622   9.597  0.2188 -0.6034  1.4169
   38MOL0     N 4935   8.891   5.553   9.516 -0.0234  0.0797  0.9016
   38MOL0     C 4936   9.816   6.204   9.593 -0.6053 -0.0187  0.2689
   38MOL0     C 4937   9.948   6.230   9.556 -0.4374 -0.4545 -0.2452
   38MOL0     C 4938  10.381   6.209   9.630  0.0406 -0.3989  0.4772
   38MOL0     C 4939  10.415   6.247   9.506 -0.6324  0.0712  0.5610
   38MOL0     C 4940  10.549   6.297   9.487 -0.0802 -0.7995 -0.1202
   38MOL0     C 4941  10.644   6.311   9.585 -0.5711  1.3919 -0.0341
   38MOL0     O 4942  10.771   6.356   9.557  0.3550 -0.0282 -0.4563
   38MOL0     C 4943  10.774   6.496   9.526  0.1918 -1.1816 -0.1652
   38MOL0     C 4944  10.881   6.534   9.423 -0.2365 -0.2001 -0.8204
   38MOL0     C 4945  11.018   6.528   9.491 -0.7908  0.0614  0.1020
   38MOL0     C 4946  11.135   6.550   9.394 -0.1382  0.2844  0.6924
   38MOL0     C 4947  11.252   6.485   9.453 -0.3760  0.1936  0.1588
   38MOL0     C 4948  11.358   6.439   9.492 -0.4612 -0.3421 -0.6026
   38MOL0     C 4949  10.605   6.264   9.715 -0.7950  0.1819 -0.8828
   38MOL0     C 4950  10.471   6.229   9.737  0.0274  0.9006 -0.2268
   38MOL0     H 4951  10.072   5.917   9.605 -1.6046 -0.6164  4.2399
   38MOL0     H 4952   9.832   5.870   9.679  3.5982 -1.3196 -1.9703
   38MOL0     H 4953   9.471   5.950   9.660  1.2829 -2.5997  1.8640
   38MOL0     H 4954   9.620   5.858   9.667  2.6011 -0.5260 -2.1955
   38MOL0     H 4955   9.641   5.934   9.402 -1.3583 -2.3070 -2.6773
   38MOL0     H 4956   9.485   5.996   9.421  0.4499 -0.5801 -1.8603
   38MOL0     H 4957   9.575   5.715   9.473  1.3907  3.3669  1.6338
   38MOL0     H 4958   9.486   5.769   9.332  2.1156  0.6722 -0.3308
   38MOL0     H 4959   9.393   5.738   9.630 -1.7328  2.1444  1.0625
   38MOL0     H 4960   9.315   5.846   9.524  4.6529  1.4054 -0.8408
   38MOL0     H 4961   9.244   5.579   9.552  0.3351  0.4201  0.6686
   38MOL0     H 4962   9.368   5.559   9.425  1.2510  0.8325  0.5996
   38MOL0     H 4963   9.240   5.716   9.288  0.1779 -0.9691  0.3467
   38MOL0     H 4964   9.133   5.753   9.421 -0.8967  0.3476 -0.6546
   38MOL0     H 4965   9.152   5.518   9.239  1.4719 -0.4826  1.3710
   38MOL0     H 4966   9.092   5.466   9.402 -0.2124 -2.2430 -2.5120
   38MOL0     H 4967   8.913   5.503   9.238 -1.1799  0.9370 -0.1851
   38MOL0     H 4968   8.982   5.672   9.228  3.0544  0.5792  2.0278
   38MOL0     H 4969   8.747   5.759   9.308 -1.7051  0.0195  0.4721
   38MOL0     H 4970   8.637   5.913   9.514  1.6756  0.5223 -0.8831
   38MOL0     H 4971   8.684   5.866   9.679 -2.9434  1.7016  0.1585
   38MOL0     H 4972   8.461   5.862   9.668 -0.3502  0.9843 -1.5346
   38MOL0     H 4973   8.520   5.704   9.684  0.5291 -0.1790 -0.9060
   38MOL0     H 4974   8.431   5.817   9.407  0.4453  1.1777  0.0690
   38MOL0     H 4975   8.452   5.646   9.454  1.6574  0.0204  3.0540
   38MOL0     H 4976   8.273   5.638   9.595  0.7800  0.9167  0.7142
   38MOL0     H 4977   8.215   5.713   9.444  1.7689 -1.9603 -2.7394
   38MOL0     H 4978   8.140   6.054   9.687  0.5203 -2.0120 -0.8351
   38MOL0     H 4979   7.904   6.137   9.712  1.7837 -0.2826  0.4299
   38MOL0     H 4980   7.440   5.996   9.446  2.4708  1.3656  1.6756
   38MOL0     H 4981   7.173   6.000   9.457 -3.2713  0.9479  1.4755
   38MOL0     H 4982   6.982   6.006   9.834 -2.5457 -1.1495  2.4661
   38MOL0     H 4983   6.975   5.833   9.821 -1.5205 -0.7184 -0.4245
   38MOL0     H 4984   6.805   5.826   9.685  0.0938  1.7123 -2.5757
   38MOL0     H 4985   6.795   5.999   9.648  0.6699 -0.0248 -1.0838
   38MOL0     H 4986   6.612   5.907   9.804 -0.3622  0.9914  0.8857
   38MOL0     H 4987   6.695   6.051   9.852  0.0017  0.5864 -3.9922
   38MOL0     H 4988   6.764   5.764   9.949  0.2412  1.2491 -0.8779
   38MOL0     H 4989   6.841   5.921  10.003 -0.6868  0.6660  1.7071
   38MOL0     H 4990   6.662   5.809  10.158  0.5187 -1.9748 -1.2254
   38MOL0     H 4991   6.541   5.832  10.034  1.6617 -1.8497  0.7862
   38MOL0     H 4992   6.576   6.069  10.040 -1.7300 -3.1965 -1.3174
   38MOL0     H 4993   6.709   6.062  10.165  0.6604 -1.1990 -0.6461
   38MOL0     H 4994   6.432   5.959  10.195 -0.8656  0.6096  0.8021
   38MOL0     H 4995   6.553   5.964  10.316 -4.0561 -0.6374  1.4689
   38MOL0     H 4996   6.561   6.239  10.265  1.4387 -1.4010 -1.6269
   38MOL0     H 4997   6.426   6.168  10.352 -2.3785 -4.0576 -1.3639
   38MOL0     H 4998   7.206   5.855   9.860 -4.2854 -0.3999 -2.1758
   38MOL0     H 4999   7.452   5.849   9.843 -1.4140 -0.6284  0.0594
   38MOL0     H 5000   7.774   5.752   9.577  0.3138  0.1141 -0.3905
   38MOL0     H 5001   8.020   5.674   9.547  0.1535 -0.6470  1.0693
   38MOL0     H 5002   9.757   6.293   9.575  3.6699  3.3654  1.2260
   38MOL0     H 5003   9.985   6.323   9.515  0.8633 -0.2305  1.3557
   38MOL0     H 5004  10.345   6.243   9.423  0.6116  0.6042 -0.5412
   38MOL0     H 5005  10.586   6.336   9.393  1.6805  0.6658  1.1034
   38MOL0     H 5006  10.789   6.559   9.614 -0.0447  0.4663 -1.2605
   38MOL0     H 5007  10.684   6.528   9.473  1.2930  1.4117 -0.5947
   38MOL0     H 5008  10.882   6.461   9.342  2.6912 -0.6229 -0.4910
   38MOL0     H 5009  10.867   6.636   9.387 -0.6889 -0.5492 -1.6598
   38MOL0     H 5010  11.032   6.429   9.535 -0.4413  0.0003 -0.1342
   38MOL0     H 5011  11.021   6.599   9.574 -0.6931 -2.1204  2.0755
   38MOL0     H 5012  11.123   6.502   9.297  2.0707 -2.4990  1.6489
   38MOL0     H 5013  11.163   6.655   9.377 -0.9379 -0.0087 -3.4602
   38MOL0     H 5014  11.454   6.398   9.520 -1.6584 -1.8729  1.6150
   38MOL0     H 5015  10.677   6.256   9.795 -1.1270  2.3449 -0.3164
   38MOL0     H 5016  10.450   6.197   9.838  1.0580 -0.6658 -0.4550
   39MOL0     O 5017  10.290   6.781   6.740  0.3728 -0.3762 -0.0861
   39MOL0     C 5018  10.356   6.683   6.716  0.0292  0.4254  0.4879
   39MOL0     O 5019  10.307   6.554   6.688  0.0967 -0.4202 -0.5060
   39MOL0     C 5020  10.171   6.532   6.699  0.9660 -0.1097  0.0348
   39MOL0     C 5021  10.101   6.504   6.581  0.5339 -0.0995 -0.4363
   39MOL0     C 5022   9.965   6.487   6.583  0.2600  0.6139 -0.3545
   39MOL0     C 5023   9.897   6.489   6.708  0.0638 -0.1885  1.6849
   39MOL0     O 5024   9.765   6.459   6.715 -0.2540  0.0355 -0.2865
   39MOL0     C 5025   9.717   6.358   6.625 -0.0765  0.2357  0.1724
   39MOL0     C 5026   9.596   6.413   6.553  0.3968 -0.1599 -0.2283
   39MOL0     C 5027   9.559   6.331   6.433 -0.3465  0.3429 -0.5276
   39MOL0     C 5028   9.495   6.192   6.460 -1.0142 -0.6161 -0.2945
   39MOL0     C 5029   9.361   6.196   6.540  1.0671 -0.7898 -0.3627
   39MOL0     C 5030   9.276   6.067   6.536  0.6425  0.7573 -0.2283
   39MOL0     C 5031   9.143   6.075   6.616 -0.2108  0.5957  0.2516
   39MOL0     C 5032   9.043   6.173   6.556 -0.6010 -1.1771  0.4662
   39MOL0     N 5033   8.979   6.124   6.437 -0.0283 -0.2662  0.2044
   39MOL0     C 5034   8.905   6.008   6.433  0.5399 -0.4128  0.1204
   39MOL0     C 5035   8.856   6.009   6.304 -0.8325  1.2314  0.7937
   39MOL0     C 5036   8.758   5.906   6.248 -0.2734 -0.1010  0.1253
   39MOL0     C 5037   8.828   5.775   6.195  0.3241 -0.3044  0.9600
   39MOL0     C 5038   8.746   5.684   6.102 -0.0408 -0.5069  0.5974
   39MOL0     C 5039   8.842   5.579   6.043  0.2644  0.4744 -0.3490
   39MOL0     O 5040   8.927   5.637   5.942 -0.2877  0.1106 -0.5373
   39MOL0     C 5041   9.038   5.575   5.896  0.6200  0.5481 -0.2565
   39MOL0     C 5042   9.106   5.459   5.956 -0.0185  0.2945 -0.0536
   39MOL0     C 5043   9.219   5.404   5.896 -0.0422  0.2825  0.2546
   39MOL0     C 5044   9.277   5.472   5.785 -0.6130  0.1783 -0.7617
   39MOL0     C 5045   9.401   5.413   5.713  0.2504  0.2926 -0.3162
   39MOL0     O 5046   9.433   5.474   5.602 -0.4922  0.1555 -0.5848
   39MOL0     C 5047   9.529   5.433   5.515  0.4163 -0.5946 -0.4916
   39MOL0     C 5048   9.606   5.320   5.534 -0.3618 -0.5478 -0.9008
   39MOL0     C 5049   9.704   5.286   5.432  0.0761  1.3786 -0.4106
   39MOL0     C 5050   9.721   5.377   5.324 -0.3709 -0.0584 -0.9506
   39MOL0     O 5051   9.823   5.347   5.236 -0.0015 -0.6542  0.5170
   39MOL0     C 5052   9.932   5.446   5.233  0.3294 -0.4031 -0.9823
   39MOL0     C 5053  10.067   5.381   5.200  0.1793 -0.6677 -0.4038
   39MOL0     C 5054  10.132   5.276   5.292 -0.8408 -0.4015 -1.1997
   39MOL0     C 5055  10.245   5.213   5.199  0.8562 -0.5654  0.6343
   39MOL0     C 5056  10.317   5.097   5.275 -0.3117  0.2696 -0.0975
   39MOL0     C 5057  10.422   5.019   5.186  0.3200 -0.0920 -0.0139
   39MOL0     C 5058  10.515   4.935   5.277  0.3353 -0.3732 -0.1007
   39MOL0     C 5059  10.613   4.840   5.203 -0.7614  0.3200 -0.5485
   39MOL0    Cl 5060  10.700   4.927   5.075  0.3587  0.4558  0.3303
   39MOL0     C 5061   9.646   5.495   5.312  0.3184 -0.2880 -0.6441
   39MOL0     C 5062   9.548   5.520   5.413 -0.5590 -1.6105 -0.5185
   39MOL0     O 5063   9.475   5.334   5.773  1.0676 -0.2652  0.9124
   39MOL0     C 5064   9.218   5.586   5.733  1.2455  0.0502  0.6150
   39MOL0     C 5065   9.099   5.632   5.789 -1.3232  0.0948  0.3364
   39MOL0     N 5066   8.903   6.117   6.239  0.1896  0.3734  0.3270
   39MOL0     N 5067   8.987   6.183   6.318  0.9439  0.0175 -0.2794
   39MOL0     C 5068   9.962   6.526   6.827 -0.3888  0.4299  0.0408
   39MOL0     C 5069  10.101   6.541   6.819  0.9657  0.3342  0.0249
   39MOL0     C 5070  10.503   6.703   6.698  0.4003  0.0861  0.2337
   39MOL0     C 5071  10.546   6.831   6.677  0.0959  0.5248  0.0576
   39MOL0     C 5072  10.684   6.867   6.672  0.7146 -0.5026  0.6898
   39MOL0     C 5073  10.777   6.760   6.674  0.3973  0.3746  0.2897
   39MOL0     O 5074  10.911   6.799   6.677 -1.1099 -0.1351  0.0496
   39MOL0     C 5075  10.970   6.782   6.547 -0.0283  0.0376  0.6673
   39MOL0     C 5076  10.921   6.889   6.446  0.3366  0.7706 -0.4976
   39MOL0     C 5077  10.964   7.036   6.471  0.1977 -0.7206 -0.0959
   39MOL0     C 5078  10.911   7.127   6.353  0.3289  0.4867  0.2600
   39MOL0     C 5079  10.762   7.132   6.333  0.0777 -0.3683 -0.2474
   39MOL0     C 5080  10.646   7.117   6.307 -0.4333 -0.9037 -0.2766
   39MOL0     C 5081  10.742   6.625   6.686 -0.0347  0.4519 -0.1301
   39MOL0     C 5082  10.602   6.591   6.698  0.0620 -0.1573 -0.7829
   39MOL0     H 5083  10.153   6.491   6.487 -0.3263 -0.1305 -0.9206
   39MOL0     H 5084   9.914   6.470   6.489  1.2732  1.5873 -1.0925
   39MOL0     H 5085   9.678   6.278   6.688  1.0373 -1.7563 -1.5291
   39MOL0     H 5086   9.788   6.308   6.558 -0.1635 -0.4438  0.5846
   39MOL0     H 5087   9.625   6.511   6.516 -1.4603  1.5303  2.4332
   39MOL0     H 5088   9.514   6.424   6.625  0.2237  0.0888 -0.4630
   39MOL0     H 5089   9.645   6.326   6.366  0.5567 -0.2612  0.6435
   39MOL0     H 5090   9.489   6.396   6.378  2.1596  4.2654  0.4838
   39MOL0     H 5091   9.480   6.137   6.367  1.2896  0.2339 -1.2441
   39MOL0     H 5092   9.565   6.128   6.515 -1.6487 -2.0723 -1.1352
   39MOL0     H 5093   9.289   6.260   6.489  0.3005 -1.2042  0.1841
   39MOL0     H 5094   9.370   6.227   6.645 -2.7404 -0.0382 -0.1078
   39MOL0     H 5095   9.329   5.982   6.581 -0.1101 -0.4120 -1.4937
   39MOL0     H 5096   9.257   6.051   6.430  3.3825  2.5032 -1.0839
   39MOL0     H 5097   9.093   5.977   6.617  1.4934 -0.3130  0.5699
   39MOL0     H 5098   9.178   6.094   6.717  0.9413  2.8560 -0.5123
   39MOL0     H 5099   9.093   6.269   6.539 -1.3588 -0.8647 -0.0919
   39MOL0     H 5100   8.958   6.180   6.625 -0.2433 -0.7838  0.8722
   39MOL0     H 5101   8.886   5.937   6.513 -0.1573  0.0011  0.3219
   39MOL0     H 5102   8.708   5.956   6.165  1.8070  0.1484 -1.0651
   39MOL0     H 5103   8.686   5.885   6.327 -2.5252 -2.0894 -2.2577
   39MOL0     H 5104   8.861   5.718   6.283 -0.0725  0.7921  1.8391
   39MOL0     H 5105   8.922   5.813   6.153 -1.1920  4.6387  1.3819
   39MOL0     H 5106   8.659   5.642   6.154  0.3061 -0.2797  1.3755
   39MOL0     H 5107   8.716   5.740   6.014 -1.6886 -2.7892 -0.4013
   39MOL0     H 5108   8.778   5.504   5.996 -0.8004 -0.0487  1.7551
   39MOL0     H 5109   8.902   5.537   6.125  0.2061  1.5531  0.2720
   39MOL0     H 5110   9.053   5.409   6.037 -1.6638 -0.1238 -1.3490
   39MOL0     H 5111   9.277   5.322   5.938  0.7873  0.4996 -0.4332
   39MOL0     H 5112   9.595   5.246   5.613  1.0246 -0.6690 -0.8048
   39MOL0     H 5113   9.752   5.189   5.432 -1.2367  0.6926  0.7870
   39MOL0     H 5114   9.944   5.504   5.325 -1.3555  2.3561 -2.3537
   39MOL0     H 5115   9.908   5.521   5.157  1.4382  0.3049 -0.6583
   39MOL0     H 5116  10.138   5.464   5.200 -0.5627 -0.0177 -1.2047
   39MOL0     H 5117  10.059   5.346   5.097  1.1625  0.0931 -0.7545
   39MOL0     H 5118  10.061   5.204   5.332 -1.3951  1.3519  1.1620
   39MOL0     H 5119  10.174   5.321   5.382  0.7505 -1.0854 -1.5494
   39MOL0     H 5120  10.201   5.168   5.110 -0.2115  0.0548  0.8196
   39MOL0     H 5121  10.310   5.296   5.173  1.7698 -0.7724  2.1124
   39MOL0     H 5122  10.244   5.021   5.305  0.2972 -0.3446 -0.1347
   39MOL0     H 5123  10.365   5.141   5.363 -0.0261  2.1481 -1.1575
   39MOL0     H 5124  10.471   5.099   5.129 -3.0104  1.7078 -0.6132
   39MOL0     H 5125  10.366   4.966   5.109  0.7374 -0.6804  0.0795
   39MOL0     H 5126  10.566   5.007   5.343 -0.3321 -0.2747  0.3190
   39MOL0     H 5127  10.452   4.865   5.333 -2.5488 -0.0763 -2.7223
   39MOL0     H 5128  10.567   4.748   5.167  1.1393 -0.3784 -1.3263
   39MOL0     H 5129  10.683   4.805   5.279 -1.6605 -2.0060 -0.7382
   39MOL0     H 5130   9.649   5.567   5.231 -0.8483 -0.5797 -0.9727
   39MOL0     H 5131   9.496   5.614   5.400  0.5610 -1.1597 -1.9491
   39MOL0     H 5132   9.255   5.627   5.639  1.8225 -2.8016 -0.4878
   39MOL0     H 5133   9.049   5.718   5.747  1.1031  1.0487 -0.7790
   39MOL0     H 5134   9.914   6.529   6.925  0.0139 -3.2597  0.4952
   39MOL0     H 5135  10.161   6.559   6.907 -1.0124 -2.6698  2.1684
   39MOL0     H 5136  10.467   6.905   6.661 -0.1645 -0.1052 -1.8152
   39MOL0     H 5137  10.709   6.971   6.658 -2.4006  0.7020  2.9766
   39MOL0     H 5138  10.948   6.683   6.505  2.9295 -1.4881  2.3866
   39MOL0     H 5139  11.077   6.790   6.571 -0.1090  0.8432  0.7969
   39MOL0     H 5140  10.952   6.858   6.345  0.5022  1.6712 -0.7325
   39MOL0     H 5141  10.812   6.885   6.435  0.4137  1.0561 -1.5644
   39MOL0     H 5142  11.071   7.051   6.484  0.2799  0.1982 -1.5336
   39MOL0     H 5143  10.911   7.076   6.558 -1.3571 -0.3987 -1.1377
   39MOL0     H 5144  10.943   7.228   6.381  2.3179  0.1171 -0.4976
   39MOL0     H 5145  10.962   7.102   6.260 -1.5948  2.4507 -1.4381
   39MOL0     H 5146  10.541   7.108   6.287 -0.3160  0.3442 -1.6904
   39MOL0     H 5147  10.822   6.551   6.688 -1.7501 -1.5101 -0.1965
   39MOL0     H 5148  10.561   6.493   6.720 -1.0760  0.1898 -1.3438
   40MOL0     O 5149   6.524   8.562   8.138  0.1815  0.0604  0.2879
   40MOL0     C 5150   6.608   8.576   8.231 -0.6549  1.2939  0.0392
   40MOL0     O 5151   6.586   8.609   8.360  0.7146 -0.6734 -0.7865
   40MOL0     C 5152   6.460   8.586   8.417  0.5147  0.3576  0.3654
   40MOL0     C 5153   6.400   8.691   8.489  0.5093  0.6803 -0.6873
   40MOL0     C 5154   6.273   8.679   8.547  0.0387 -0.8432 -0.0228
   40MOL0     C 5155   6.206   8.564   8.530  0.4674 -0.1371  0.3456
   40MOL0     O 5156   6.075   8.569   8.578 -0.8581  0.0018  0.9447
   40MOL0     C 5157   5.999   8.450   8.557  0.4937 -0.3762  0.2410
   40MOL0     C 5158   5.851   8.477   8.611  0.0282 -0.1694  0.9335
   40MOL0     C 5159   5.760   8.358   8.617  0.7723  0.2613  0.1463
   40MOL0     C 5160   5.627   8.395   8.686  1.0378  0.0034  0.2365
   40MOL0     C 5161   5.530   8.280   8.731 -0.7877 -0.8991  0.2234
   40MOL0     C 5162   5.402   8.351   8.793 -0.8762  0.2725  0.4699
   40MOL0     C 5163   5.314   8.245   8.858 -0.1536 -0.7827  0.8946
   40MOL0     C 5164   5.226   8.176   8.754 -0.0314 -0.0281 -0.4469
   40MOL0     N 5165   5.145   8.083   8.835 -0.2395 -0.4778 -0.4571
   40MOL0     C 5166   5.018   8.112   8.881 -0.3608  0.9359  0.1852
   40MOL0     C 5167   4.990   8.007   8.967 -0.2298  0.1633  0.1421
   40MOL0     C 5168   4.862   7.989   9.047 -0.1352  0.1021 -0.3874
   40MOL0     C 5169   4.804   7.853   9.015 -0.4045  0.3594  0.4220
   40MOL0     C 5170   4.694   7.814   9.120 -1.1839 -0.2284  1.0429
   40MOL0     C 5171   4.587   7.716   9.061 -0.2200  0.5515 -0.0075
   40MOL0     O 5172   4.513   7.674   9.176  0.0355  0.2770 -0.3653
   40MOL0     C 5173   4.375   7.686   9.172 -0.8290  1.1670  0.3943
   40MOL0     C 5174   4.315   7.652   9.052 -0.6303 -0.4029  0.0946
   40MOL0     C 5175   4.173   7.663   9.047 -1.3397 -0.5286  0.2187
   40MOL0     C 5176   4.098   7.696   9.155  0.2221  0.0955  0.5798
   40MOL0     C 5177   3.951   7.673   9.150 -0.7136 -0.3831  0.2667
   40MOL0     O 5178   3.890   7.683   9.026 -0.1467 -0.3629  0.3040
   40MOL0     C 5179   3.756   7.690   9.030  0.6397  0.1918 -0.4278
   40MOL0     C 5180   3.688   7.808   9.054 -0.5220  0.8452 -0.3885
   40MOL0     C 5181   3.551   7.820   9.063  0.9189 -0.0447  0.6072
   40MOL0     C 5182   3.481   7.697   9.048  0.4475 -0.4045 -0.0188
   40MOL0     O 5183   3.345   7.698   9.043 -0.8746 -0.3539  0.8684
   40MOL0     C 5184   3.289   7.655   9.164  1.0745 -0.3941  0.7518
   40MOL0     C 5185   3.136   7.615   9.140 -0.2571 -0.4288  0.2412
   40MOL0     C 5186   3.068   7.540   9.259 -0.2562 -0.2015 -0.0113
   40MOL0     C 5187   2.932   7.482   9.210  0.3179 -0.5469 -0.6396
   40MOL0     C 5188   2.816   7.593   9.240 -0.1910  0.5591  0.6132
   40MOL0     C 5189   2.695   7.563   9.157  0.1564 -1.3242 -0.1381
   40MOL0     C 5190   2.582   7.665   9.171  0.8072  0.1628  0.0431
   40MOL0     C 5191   2.438   7.633   9.121 -0.0200 -0.0117 -0.1619
   40MOL0    Cl 5192   2.375   7.489   9.207 -0.1850 -0.0800 -0.2549
   40MOL0     C 5193   3.550   7.570   9.029  0.0487  0.0602 -0.0010
   40MOL0     C 5194   3.685   7.578   9.021 -0.6611 -0.3276  1.3594
   40MOL0     O 5195   3.892   7.636   9.254 -0.4527  0.5282  0.5684
   40MOL0     C 5196   4.160   7.742   9.267  0.3547 -0.3063  0.9624
   40MOL0     C 5197   4.303   7.733   9.277 -0.3383  0.9676  1.0571
   40MOL0     N 5198   5.097   7.913   8.951  0.1129 -0.5652  0.9109
   40MOL0     N 5199   5.186   7.957   8.872  0.0090 -0.9138  0.2089
   40MOL0     C 5200   6.267   8.458   8.455  0.3061 -0.0733 -0.2998
   40MOL0     C 5201   6.389   8.470   8.394  0.1028  0.4987 -1.0537
   40MOL0     C 5202   6.751   8.545   8.213 -0.7690 -0.1542 -0.2778
   40MOL0     C 5203   6.812   8.588   8.099 -0.7546  0.4712  1.0218
   40MOL0     C 5204   6.946   8.548   8.085 -0.3080 -0.3235  0.1252
   40MOL0     C 5205   7.022   8.472   8.177  0.0391 -1.0608 -0.0208
   40MOL0     O 5206   7.146   8.434   8.136 -0.0021 -0.2135  0.3920
   40MOL0     C 5207   7.234   8.361   8.216  0.4219  0.4753 -0.3530
   40MOL0     C 5208   7.310   8.437   8.323 -0.1079  0.0500 -1.1232
   40MOL0     C 5209   7.408   8.548   8.272 -1.0730  0.2912  0.3090
   40MOL0     C 5210   7.508   8.575   8.386 -0.1620 -0.0551 -0.5233
   40MOL0     C 5211   7.614   8.476   8.391 -0.8426 -0.6842 -0.6488
   40MOL0     C 5212   7.685   8.382   8.405  0.1832  0.8743 -1.0177
   40MOL0     C 5213   6.950   8.421   8.288 -0.2981 -0.5533 -0.1138
   40MOL0     C 5214   6.814   8.460   8.309  0.7123  0.4607 -0.0186
   40MOL0     H 5215   6.466   8.775   8.508  2.3162 -1.1854  2.0337
   40MOL0     H 5216   6.222   8.763   8.593 -2.8715 -2.7021  0.4087
   40MOL0     H 5217   6.044   8.373   8.621 -1.2937 -1.1908  0.5550
   40MOL0     H 5218   6.004   8.411   8.455  3.1472 -1.1193  0.5815
   40MOL0     H 5219   5.804   8.558   8.555 -2.1293 -1.9420 -0.0030
   40MOL0     H 5220   5.860   8.514   8.713 -0.3818 -1.3699  1.4307
   40MOL0     H 5221   5.821   8.288   8.676  1.7452  0.7278 -0.2800
   40MOL0     H 5222   5.741   8.317   8.517 -3.2337  1.4042  0.2736
   40MOL0     H 5223   5.647   8.465   8.768 -0.3896  2.3836 -1.3006
   40MOL0     H 5224   5.570   8.459   8.617  0.8214  0.2939  0.6843
   40MOL0     H 5225   5.593   8.220   8.797  1.0991 -0.9898 -1.5566
   40MOL0     H 5226   5.500   8.219   8.645  0.6083  0.9387 -1.6867
   40MOL0     H 5227   5.345   8.411   8.722  3.0318  2.8368 -0.8192
   40MOL0     H 5228   5.438   8.428   8.862 -0.3701  1.7485 -1.3613
   40MOL0     H 5229   5.376   8.166   8.902  0.8713 -0.3532  0.2592
   40MOL0     H 5230   5.251   8.293   8.933 -1.4731 -1.5838  0.3226
   40MOL0     H 5231   5.284   8.126   8.675  0.2295  0.4253 -0.5449
   40MOL0     H 5232   5.158   8.247   8.706 -0.7455  0.7031  1.5818
   40MOL0     H 5233   4.968   8.207   8.864 -0.8592  0.2378 -2.9508
   40MOL0     H 5234   4.790   8.069   9.028  2.1312  2.1404 -0.8013
   40MOL0     H 5235   4.891   7.988   9.153  0.5756 -1.6633 -0.5589
   40MOL0     H 5236   4.874   7.769   9.019 -0.7916 -0.2532 -2.6013
   40MOL0     H 5237   4.763   7.860   8.913  1.9034  0.3560 -0.5771
   40MOL0     H 5238   4.734   7.776   9.214 -1.2648  1.0807  1.6330
   40MOL0     H 5239   4.642   7.907   9.145  1.2287  0.8687  2.2803
   40MOL0     H 5240   4.634   7.625   9.022  1.5792 -0.0533  3.1812
   40MOL0     H 5241   4.526   7.760   8.982 -0.9087 -0.2922  0.0438
   40MOL0     H 5242   4.361   7.603   8.967 -3.6648 -0.7707 -1.4703
   40MOL0     H 5243   4.128   7.631   8.953  0.0454 -2.3518  0.1262
   40MOL0     H 5244   3.748   7.897   9.067  0.9345 -0.2439  0.7413
   40MOL0     H 5245   3.503   7.914   9.088 -2.4008 -1.4658  0.1299
   40MOL0     H 5246   3.292   7.732   9.241 -3.2476 -0.6509  1.3943
   40MOL0     H 5247   3.359   7.575   9.191  0.9484 -0.3847  1.1051
   40MOL0     H 5248   3.122   7.562   9.045  0.3145  0.3610 -0.2978
   40MOL0     H 5249   3.086   7.710   9.120  1.5989  1.1583  2.6216
   40MOL0     H 5250   3.049   7.605   9.344  0.2485 -0.8988  0.6408
   40MOL0     H 5251   3.136   7.459   9.287  1.3304  0.0706 -2.7177
   40MOL0     H 5252   2.943   7.456   9.104 -3.2008 -0.8724 -1.0445
   40MOL0     H 5253   2.907   7.389   9.263  0.7639  0.4849  1.4962
   40MOL0     H 5254   2.847   7.697   9.246  0.7866  0.3038  0.2318
   40MOL0     H 5255   2.793   7.560   9.342  3.3181 -4.0771  0.2721
   40MOL0     H 5256   2.667   7.463   9.191  2.4313 -2.3156 -0.9835
   40MOL0     H 5257   2.710   7.555   9.049 -3.7308  1.6054 -1.1435
   40MOL0     H 5258   2.564   7.675   9.279  0.7403  0.7815 -0.0209
   40MOL0     H 5259   2.619   7.761   9.134  0.4275  0.8935  1.4705
   40MOL0     H 5260   2.431   7.602   9.016 -1.0933 -0.9595  0.1643
   40MOL0     H 5261   2.369   7.714   9.146 -0.9484 -0.6222 -0.6417
   40MOL0     H 5262   3.500   7.475   9.014 -1.6346  0.6207  1.6683
   40MOL0     H 5263   3.740   7.494   8.980 -0.9807 -0.6562  1.5970
   40MOL0     H 5264   4.107   7.774   9.356  3.0923  0.1085  2.5740
   40MOL0     H 5265   4.349   7.752   9.373 -3.0951 -1.8923  3.1873
   40MOL0     H 5266   6.216   8.363   8.444 -1.8827  1.2128 -2.4305
   40MOL0     H 5267   6.436   8.389   8.339 -0.6483  1.0144 -2.4985
   40MOL0     H 5268   6.756   8.650   8.030  0.9807  1.3364  0.3179
   40MOL0     H 5269   7.002   8.589   8.002 -1.6633  0.5295 -0.4083
   40MOL0     H 5270   7.306   8.318   8.145 -0.2062 -1.4829  0.1141
   40MOL0     H 5271   7.176   8.273   8.246  1.2038  0.0528 -0.0543
   40MOL0     H 5272   7.243   8.480   8.398  3.5853  0.8508  2.0744
   40MOL0     H 5273   7.369   8.355   8.366 -0.3159 -0.2305 -1.3704
   40MOL0     H 5274   7.367   8.647   8.248  1.7388  1.5834  0.3629
   40MOL0     H 5275   7.459   8.504   8.186 -1.3387 -2.1078  1.3029
   40MOL0     H 5276   7.555   8.673   8.373  1.1620 -0.8088 -1.6340
   40MOL0     H 5277   7.465   8.577   8.487  3.3976 -0.0773  1.1630
   40MOL0     H 5278   7.727   8.284   8.415 -2.4181 -0.1813  1.0398
   40MOL0     H 5279   6.998   8.340   8.343  2.3865  0.6322 -0.5503
   40MOL0     H 5280   6.754   8.425   8.392  3.4303  0.5859  2.1301
   41MOL0     O 5281  10.043   4.788   6.497 -0.4941  0.7957  0.0278
   41MOL0     C 5282  10.078   4.876   6.577 -0.2029  0.6665  0.0014
   41MOL0     O 5283   9.999   4.931   6.666 -0.0181  0.2158 -0.1192
   41MOL0     C 5284   9.866   4.889   6.675  0.2346  0.7506  0.1316
   41MOL0     C 5285   9.832   4.755   6.696 -1.0058 -0.9831  0.0431
   41MOL0     C 5286   9.705   4.710   6.715 -1.3681 -0.0073  0.7917
   41MOL0     C 5287   9.597   4.799   6.726 -0.1594 -0.1624  0.0071
   41MOL0     O 5288   9.476   4.746   6.747 -0.9094 -0.2573  0.5217
   41MOL0     C 5289   9.355   4.826   6.753 -0.0553  0.1644  0.3613
   41MOL0     C 5290   9.305   4.827   6.612 -0.3090  0.2202  0.3603
   41MOL0     C 5291   9.168   4.888   6.584 -0.2620 -0.6286 -0.2303
   41MOL0     C 5292   9.167   5.033   6.623  0.8092 -0.2720  0.2061
   41MOL0     C 5293   9.027   5.086   6.592 -0.4846 -1.1054 -0.5367
   41MOL0     C 5294   9.018   5.235   6.631  1.4663  0.5880  0.6166
   41MOL0     C 5295   8.881   5.298   6.615  0.7134  0.0078 -0.2258
   41MOL0     C 5296   8.799   5.266   6.491 -0.2884 -0.2175 -0.3718
   41MOL0     N 5297   8.706   5.378   6.471  0.3780 -0.3298  0.5052
   41MOL0     C 5298   8.582   5.399   6.524  0.2271  0.0797  0.2067
   41MOL0     C 5299   8.541   5.518   6.477  0.3657 -0.9781 -1.2362
   41MOL0     C 5300   8.414   5.583   6.523 -0.5690 -0.8030 -0.9968
   41MOL0     C 5301   8.288   5.518   6.463 -0.0670 -0.1995  0.1531
   41MOL0     C 5302   8.169   5.610   6.491  0.3194  0.0878  0.1795
   41MOL0     C 5303   8.051   5.600   6.380  0.1061  0.3377  0.6722
   41MOL0     O 5304   7.976   5.716   6.379 -0.4675  0.1626  0.4460
   41MOL0     C 5305   7.863   5.731   6.300 -0.3116  0.5165 -0.4291
   41MOL0     C 5306   7.812   5.857   6.299 -0.4348  0.1924 -0.1722
   41MOL0     C 5307   7.720   5.902   6.206  0.0877 -0.6622 -0.3275
   41MOL0     C 5308   7.677   5.802   6.115 -0.6506  0.2342  0.0519
   41MOL0     C 5309   7.586   5.846   6.006 -0.0516  0.7240 -0.7590
   41MOL0     O 5310   7.550   5.746   5.924  0.1582 -0.1835  0.4285
   41MOL0     C 5311   7.442   5.763   5.839 -0.7001  0.8107  0.1468
   41MOL0     C 5312   7.415   5.871   5.759  0.1795 -0.0896 -0.2146
   41MOL0     C 5313   7.308   5.886   5.674  1.1049 -0.1422  0.1874
   41MOL0     C 5314   7.213   5.782   5.665 -1.0629  0.4468 -0.1884
   41MOL0     O 5315   7.098   5.797   5.583 -0.1905  0.3423 -0.4227
   41MOL0     C 5316   7.016   5.909   5.585  0.4831  0.6038 -0.3403
   41MOL0     C 5317   6.904   5.888   5.486 -0.2177 -0.3305 -0.5698
   41MOL0     C 5318   6.849   5.743   5.489 -0.0035  1.2252 -0.1985
   41MOL0     C 5319   6.711   5.731   5.417 -0.2023 -0.7874 -0.7914
   41MOL0     C 5320   6.658   5.589   5.404 -0.1048 -0.1683 -0.1237
   41MOL0     C 5321   6.515   5.592   5.352 -0.0121  1.0618  0.7738
   41MOL0     C 5322   6.454   5.457   5.332 -0.3574  0.8199 -1.3837
   41MOL0     C 5323   6.321   5.464   5.263  0.4540 -0.3518  0.2603
   41MOL0    Cl 5324   6.251   5.295   5.250  0.2330  0.0175 -0.1327
   41MOL0     C 5325   7.236   5.663   5.736 -0.0274  0.4936  0.7347
   41MOL0     C 5326   7.357   5.651   5.822  0.2612 -0.0573  0.0743
   41MOL0     O 5327   7.548   5.961   5.999  0.2572  0.4326 -0.2009
   41MOL0     C 5328   7.725   5.674   6.115 -0.1847  0.6954 -0.1540
   41MOL0     C 5329   7.818   5.631   6.209 -0.4897 -0.5723  0.1644
   41MOL0     N 5330   8.641   5.566   6.390  0.0221  0.6753  0.0108
   41MOL0     N 5331   8.737   5.483   6.393 -0.5176 -0.5248  1.1475
   41MOL0     C 5332   9.628   4.929   6.719 -0.1020 -0.3094  0.3575
   41MOL0     C 5333   9.759   4.979   6.690  0.1961  0.2341  0.4648
   41MOL0     C 5334  10.221   4.913   6.588 -0.6864 -0.1882  0.5477
   41MOL0     C 5335  10.316   4.836   6.505 -0.2857  0.0798  0.5053
   41MOL0     C 5336  10.452   4.864   6.498  0.0605 -0.2717 -0.1087
   41MOL0     C 5337  10.507   4.966   6.574 -1.3658 -0.2920 -0.2660
   41MOL0     O 5338  10.646   5.001   6.568 -0.6130  0.1120 -0.0934
   41MOL0     C 5339  10.686   5.141   6.539  0.4665  0.4138  0.3527
   41MOL0     C 5340  10.835   5.168   6.576  0.3784 -0.1790  0.3181
   41MOL0     C 5341  10.938   5.057   6.543  0.1986  0.5263 -0.1767
   41MOL0     C 5342  10.963   5.020   6.395  0.2967  0.4672 -0.9819
   41MOL0     C 5343  11.044   4.902   6.383 -0.0681  1.2018 -0.1085
   41MOL0     C 5344  11.099   4.794   6.382 -0.2901 -0.2082  0.8487
   41MOL0     C 5345  10.417   5.052   6.636  0.0616  0.6674 -0.3049
   41MOL0     C 5346  10.274   5.029   6.647 -0.2264  0.5103  0.3017
   41MOL0     H 5347   9.913   4.683   6.703 -0.1401 -0.2868 -2.1100
   41MOL0     H 5348   9.687   4.603   6.725  0.0682 -0.7208 -2.6871
   41MOL0     H 5349   9.374   4.926   6.794  2.1135 -0.3852  0.7962
   41MOL0     H 5350   9.281   4.775   6.814  1.4216  0.8265  2.8569
   41MOL0     H 5351   9.303   4.726   6.570  3.3038 -0.1508  0.7646
   41MOL0     H 5352   9.373   4.884   6.549 -1.7703  0.7418 -0.8034
   41MOL0     H 5353   9.090   4.831   6.636  0.0929 -0.0704  0.9313
   41MOL0     H 5354   9.143   4.864   6.480  1.4350  0.0909 -0.8337
   41MOL0     H 5355   9.180   5.049   6.730  0.7265  2.8068 -0.1728
   41MOL0     H 5356   9.244   5.095   6.575 -1.2780  3.9032  1.8160
   41MOL0     H 5357   8.948   5.038   6.650 -1.5235 -0.9874 -1.8079
   41MOL0     H 5358   9.006   5.073   6.485  2.3937 -2.0735 -1.0859
   41MOL0     H 5359   9.085   5.291   6.565  0.9591  2.3088  1.4855
   41MOL0     H 5360   9.047   5.255   6.734  2.8824 -0.8215  0.5199
   41MOL0     H 5361   8.823   5.281   6.706 -1.2974 -0.7498 -1.5916
   41MOL0     H 5362   8.896   5.406   6.622  0.8098 -0.0654  0.8647
   41MOL0     H 5363   8.741   5.175   6.510 -2.6772  1.6883  2.2462
   41MOL0     H 5364   8.868   5.264   6.406  1.1337  1.2852  0.6919
   41MOL0     H 5365   8.533   5.327   6.589  0.9996 -0.1832  0.5073
   41MOL0     H 5366   8.416   5.686   6.487  0.5649  0.0768  1.4257
   41MOL0     H 5367   8.401   5.586   6.631 -0.9794 -0.1341 -1.0641
   41MOL0     H 5368   8.265   5.416   6.494 -2.9011  0.6326  1.0791
   41MOL0     H 5369   8.309   5.516   6.356 -0.0544  2.4779  0.0182
   41MOL0     H 5370   8.125   5.586   6.588  1.8970 -0.6328  0.7464
   41MOL0     H 5371   8.198   5.716   6.486  0.2594  0.0600 -0.7845
   41MOL0     H 5372   7.993   5.508   6.391 -0.0435  0.4140  0.5330
   41MOL0     H 5373   8.107   5.600   6.285 -0.8134  0.4960  0.1212
   41MOL0     H 5374   7.853   5.932   6.366  0.4361  1.7414 -2.3267
   41MOL0     H 5375   7.683   6.004   6.196  1.4666  0.1941  2.2598
   41MOL0     H 5376   7.483   5.954   5.769  1.3671 -1.2850  2.3821
   41MOL0     H 5377   7.284   5.975   5.616 -3.2534  1.5289  3.9046
   41MOL0     H 5378   7.076   5.997   5.559 -1.3933  2.4374  1.0839
   41MOL0     H 5379   6.964   5.911   5.681 -0.7243 -1.5191 -0.8942
   41MOL0     H 5380   6.950   5.912   5.390 -2.3071  1.3459 -1.2113
   41MOL0     H 5381   6.831   5.963   5.516 -0.6120 -0.6424 -0.7463
   41MOL0     H 5382   6.849   5.722   5.596 -0.6695 -0.3245 -0.4694
   41MOL0     H 5383   6.923   5.678   5.440 -0.4032  0.4724  0.1769
   41MOL0     H 5384   6.643   5.796   5.472 -0.3975 -1.4029 -0.2855
   41MOL0     H 5385   6.725   5.779   5.320 -0.2892  1.4629  0.2581
   41MOL0     H 5386   6.656   5.535   5.499  1.4111  1.8310  1.1123
   41MOL0     H 5387   6.717   5.517   5.347 -0.9359 -0.5279 -0.5625
   41MOL0     H 5388   6.539   5.635   5.254  1.9362  1.5496  1.4162
   41MOL0     H 5389   6.447   5.660   5.403 -0.9323  2.2940 -1.8756
   41MOL0     H 5390   6.527   5.396   5.278  2.2060  2.1241  0.4007
   41MOL0     H 5391   6.432   5.418   5.432 -4.4725  4.6547 -0.5298
   41MOL0     H 5392   6.338   5.504   5.162 -0.5137 -0.8746 -0.1277
   41MOL0     H 5393   6.256   5.536   5.314  0.1626 -0.9358  0.7319
   41MOL0     H 5394   7.167   5.579   5.731  2.6747 -1.8425  0.2965
   41MOL0     H 5395   7.380   5.558   5.873  2.3428  0.7811  0.7541
   41MOL0     H 5396   7.692   5.603   6.039 -0.3895  0.0813  0.4918
   41MOL0     H 5397   7.860   5.531   6.214 -2.1394 -1.2580  1.1350
   41MOL0     H 5398   9.548   5.002   6.725  0.5030  0.2992  1.3312
   41MOL0     H 5399   9.777   5.083   6.664  4.3056 -0.8702 -2.0217
   41MOL0     H 5400  10.281   4.767   6.428 -3.1068  2.9756 -1.0325
   41MOL0     H 5401  10.518   4.800   6.440 -1.4050 -1.3086 -0.6767
   41MOL0     H 5402  10.627   5.199   6.611  0.2021 -1.6638  1.8893
   41MOL0     H 5403  10.665   5.169   6.435 -1.8164  0.9492  0.8931
   41MOL0     H 5404  10.859   5.255   6.514 -0.7150 -0.6129 -0.7542
   41MOL0     H 5405  10.846   5.197   6.681 -3.2493 -1.3057  1.1576
   41MOL0     H 5406  10.905   4.967   6.595 -0.8034 -0.5084 -2.4487
   41MOL0     H 5407  11.033   5.092   6.585  1.0690 -0.0338 -1.6042
   41MOL0     H 5408  10.872   5.001   6.337 -0.3447 -2.3460  0.7282
   41MOL0     H 5409  11.024   5.097   6.347 -0.5601  1.1656 -0.9785
   41MOL0     H 5410  11.153   4.703   6.369  0.8240  0.4063  1.0243
   41MOL0     H 5411  10.461   5.132   6.694  2.2466 -0.4645 -0.3086
   41MOL0     H 5412  10.202   5.097   6.692  2.0243  2.5576  1.0187
   42MOL0     O 5413   8.263   5.944   7.724  0.5456 -0.1211  0.4612
   42MOL0     C 5414   8.240   5.993   7.613 -0.4971  0.3584  0.0404
   42MOL0     O 5415   8.129   5.985   7.548  0.3881  0.5353 -0.3772
   42MOL0     C 5416   8.013   5.971   7.612  0.2732 -0.0427 -0.3912
   42MOL0     C 5417   7.914   5.888   7.553 -0.4235  0.2031 -0.6434
   42MOL0     C 5418   7.794   5.865   7.628  0.2883 -0.7774 -0.2829
   42MOL0     C 5419   7.773   5.936   7.747 -0.2678  0.0796 -0.4664
   42MOL0     O 5420   7.663   5.923   7.821  0.3505 -0.7390 -0.2037
   42MOL0     C 5421   7.556   5.844   7.772 -0.1829  0.3756  0.7173
   42MOL0     C 5422   7.429   5.854   7.852  0.4191  0.1639 -0.7602
   42MOL0     C 5423   7.438   5.803   7.994  1.4518  0.9354 -0.3667
   42MOL0     C 5424   7.301   5.743   8.025 -0.2257 -0.5702  0.0003
   42MOL0     C 5425   7.281   5.714   8.177  0.6411  0.2219  0.1081
   42MOL0     C 5426   7.395   5.646   8.258  0.7284 -0.3997  0.3739
   42MOL0     C 5427   7.360   5.588   8.393  0.2756  0.0020  0.5730
   42MOL0     C 5428   7.482   5.533   8.467 -0.2519  0.4712  0.5714
   42MOL0     N 5429   7.456   5.467   8.594 -0.2095  0.5274 -0.3080
   42MOL0     C 5430   7.545   5.385   8.658 -0.0541 -0.9370  0.2538
   42MOL0     C 5431   7.485   5.338   8.766 -0.0713  0.5213  0.5813
   42MOL0     C 5432   7.544   5.232   8.855 -0.2728  0.0624 -0.0109
   42MOL0     C 5433   7.439   5.114   8.870 -0.6679 -0.6436  0.0190
   42MOL0     C 5434   7.397   5.048   8.736  0.4778 -0.1239 -1.2668
   42MOL0     C 5435   7.497   4.986   8.651  0.4127  0.2376 -0.4589
   42MOL0     O 5436   7.598   4.924   8.728  0.3433 -0.6753  0.2335
   42MOL0     C 5437   7.688   4.835   8.661 -0.3049 -1.3374 -0.6116
   42MOL0     C 5438   7.674   4.787   8.531  0.1791 -0.7662 -0.2247
   42MOL0     C 5439   7.771   4.710   8.470  0.2701 -0.0454 -0.0821
   42MOL0     C 5440   7.900   4.704   8.529  0.4285  0.4961  0.8556
   42MOL0     C 5441   8.006   4.630   8.454  0.2249  0.2531 -0.3836
   42MOL0     O 5442   8.127   4.626   8.511  0.2040  0.8830  0.7092
   42MOL0     C 5443   8.230   4.573   8.429 -0.4423  0.9436  0.6065
   42MOL0     C 5444   8.260   4.614   8.299 -0.2891  0.2204 -0.2671
   42MOL0     C 5445   8.375   4.570   8.228 -0.5316  0.0076  0.4190
   42MOL0     C 5446   8.460   4.486   8.289 -0.6269 -0.2815 -0.3121
   42MOL0     O 5447   8.579   4.471   8.219 -0.5918  0.6071  0.4403
   42MOL0     C 5448   8.674   4.365   8.263  0.6276 -0.4703 -0.5848
   42MOL0     C 5449   8.776   4.420   8.368  0.5644  0.3126  1.2762
   42MOL0     C 5450   8.850   4.297   8.414  0.5548  0.0466  0.8525
   42MOL0     C 5451   8.970   4.333   8.513 -0.1985 -0.6993 -0.1968
   42MOL0     C 5452   9.085   4.226   8.503 -0.4500 -0.0421 -0.9431
   42MOL0     C 5453   9.208   4.290   8.575  0.0308  0.3956 -0.7165
   42MOL0     C 5454   9.343   4.236   8.528  0.6511  0.4217  0.1147
   42MOL0     C 5455   9.445   4.218   8.638  1.1651 -0.9494 -0.0498
   42MOL0    Cl 5456   9.460   4.366   8.756  0.3585 -0.2257 -0.2730
   42MOL0     C 5457   8.433   4.429   8.411 -0.2900 -0.0168  0.7506
   42MOL0     C 5458   8.322   4.480   8.489  1.0872  0.0773  0.0750
   42MOL0     O 5459   7.969   4.581   8.352 -0.5961  0.5582  1.2535
   42MOL0     C 5460   7.916   4.751   8.663 -0.0599  0.2812  0.6349
   42MOL0     C 5461   7.812   4.815   8.733 -0.6682  0.2824  0.4149
   42MOL0     N 5462   7.350   5.379   8.752  0.7500 -1.0011 -0.0815
   42MOL0     N 5463   7.332   5.451   8.645 -0.3233  0.3428  0.0350
   42MOL0     C 5464   7.862   6.027   7.796 -0.0498  0.6412 -0.3574
   42MOL0     C 5465   7.987   6.043   7.729 -0.9420 -0.5742  0.0316
   42MOL0     C 5466   8.362   6.056   7.556 -0.0432  0.8361 -0.4785
   42MOL0     C 5467   8.358   6.094   7.421  0.5219  0.0062  0.2752
   42MOL0     C 5468   8.473   6.149   7.366  0.4261 -0.1100 -0.1952
   42MOL0     C 5469   8.596   6.141   7.432 -0.3175 -0.2895 -1.1394
   42MOL0     O 5470   8.721   6.165   7.364  0.2009 -0.0597 -0.3304
   42MOL0     C 5471   8.845   6.102   7.393 -0.5587 -0.1070  0.3284
   42MOL0     C 5472   8.948   6.115   7.279  0.2230 -0.2047 -0.2762
   42MOL0     C 5473   8.883   6.050   7.157 -0.7340  0.7493  0.5719
   42MOL0     C 5474   8.974   6.054   7.031 -0.6470  0.0204 -0.0587
   42MOL0     C 5475   9.075   5.945   7.050  0.8932 -0.4873  0.9854
   42MOL0     C 5476   9.148   5.845   7.072 -0.5323 -0.4669  0.3817
   42MOL0     C 5477   8.597   6.105   7.568 -0.2148  0.0825 -0.4203
   42MOL0     C 5478   8.476   6.068   7.629 -0.2904 -0.0079 -0.2474
   42MOL0     H 5479   7.941   5.825   7.469 -0.0589  0.9310 -1.0782
   42MOL0     H 5480   7.732   5.781   7.600 -0.6828 -0.3203  0.4525
   42MOL0     H 5481   7.584   5.739   7.773  1.4182  0.7642  0.1814
   42MOL0     H 5482   7.539   5.859   7.665 -2.9837 -3.4343  0.4356
   42MOL0     H 5483   7.353   5.791   7.806  0.1458  0.0863 -0.2136
   42MOL0     H 5484   7.400   5.959   7.859 -1.0652 -0.3238  1.6931
   42MOL0     H 5485   7.474   5.872   8.071  1.1593  0.0854  0.5546
   42MOL0     H 5486   7.514   5.724   7.991  0.6318  0.1486 -1.3990
   42MOL0     H 5487   7.226   5.820   8.004  1.0893  0.6961 -0.2165
   42MOL0     H 5488   7.278   5.657   7.962  0.3629 -0.8305  0.1366
   42MOL0     H 5489   7.193   5.649   8.186 -0.0388  0.9346 -1.1505
   42MOL0     H 5490   7.248   5.806   8.226 -0.2148 -0.3603  0.6463
   42MOL0     H 5491   7.474   5.721   8.256 -0.1355  0.5269 -0.0785
   42MOL0     H 5492   7.423   5.571   8.183  1.6768 -0.8780  1.1847
   42MOL0     H 5493   7.324   5.672   8.454  1.7603  0.7444  0.4716
   42MOL0     H 5494   7.284   5.510   8.382  1.1606 -0.6764 -0.9983
   42MOL0     H 5495   7.553   5.609   8.501  0.5800  0.7062 -1.5173
   42MOL0     H 5496   7.541   5.467   8.402 -0.2864  0.3279  0.6849
   42MOL0     H 5497   7.649   5.374   8.630  0.4783  0.4515  1.5603
   42MOL0     H 5498   7.576   5.285   8.946  0.0687  2.1303 -1.2789
   42MOL0     H 5499   7.634   5.188   8.812 -0.1318 -1.2514  1.5324
   42MOL0     H 5500   7.354   5.160   8.922  1.4340  0.5285  2.6003
   42MOL0     H 5501   7.472   5.034   8.937  4.8700 -0.8081 -2.4155
   42MOL0     H 5502   7.326   4.972   8.767 -1.9365  3.1414  2.1544
   42MOL0     H 5503   7.326   5.112   8.682 -2.8678 -0.6623  2.1021
   42MOL0     H 5504   7.541   5.063   8.588  0.7713 -0.5379 -1.1871
   42MOL0     H 5505   7.439   4.917   8.589 -2.3815 -1.2124  3.3631
   42MOL0     H 5506   7.584   4.810   8.475 -0.8505 -3.3322  0.2692
   42MOL0     H 5507   7.733   4.667   8.378 -1.8277  0.6606  0.3831
   42MOL0     H 5508   8.217   4.693   8.239  0.6126 -0.3902 -1.7950
   42MOL0     H 5509   8.397   4.612   8.130 -1.2934  0.1406  0.3010
   42MOL0     H 5510   8.730   4.333   8.174  0.0160  0.2730 -1.2581
   42MOL0     H 5511   8.622   4.276   8.297 -1.4287  0.9578  0.1759
   42MOL0     H 5512   8.723   4.473   8.448  0.5575  0.2013  1.3474
   42MOL0     H 5513   8.838   4.492   8.315 -1.9456  0.7238 -1.3279
   42MOL0     H 5514   8.888   4.239   8.328 -0.0426 -2.7403  2.3411
   42MOL0     H 5515   8.785   4.222   8.459 -1.0901 -1.5583 -3.5667
   42MOL0     H 5516   9.013   4.423   8.467  2.7117 -0.2901  2.9359
   42MOL0     H 5517   8.936   4.363   8.612 -0.8588  1.0334 -0.9063
   42MOL0     H 5518   9.099   4.191   8.400  0.3398 -1.7126 -0.3078
   42MOL0     H 5519   9.055   4.138   8.561  1.2103  0.7814  1.2920
   42MOL0     H 5520   9.185   4.278   8.681 -1.7507 -3.2162 -1.3811
   42MOL0     H 5521   9.218   4.396   8.550  3.1990 -0.1295 -2.2664
   42MOL0     H 5522   9.324   4.143   8.474 -1.5367  1.4517 -1.0171
   42MOL0     H 5523   9.391   4.312   8.465 -1.0257  3.0824  1.8541
   42MOL0     H 5524   9.544   4.212   8.592  1.0755  4.0981 -1.4704
   42MOL0     H 5525   9.421   4.127   8.694  1.3927 -0.8643  0.1829
   42MOL0     H 5526   8.497   4.356   8.460 -0.7651  0.4316  2.0819
   42MOL0     H 5527   8.294   4.440   8.586  2.8516 -1.6316 -0.0735
   42MOL0     H 5528   8.016   4.740   8.704  0.5688 -0.8287 -1.0640
   42MOL0     H 5529   7.819   4.836   8.839 -1.8872  0.2203  0.5160
   42MOL0     H 5530   7.842   6.085   7.885  0.2223  3.7645 -2.1929
   42MOL0     H 5531   8.057   6.113   7.772  2.0384 -3.6440  0.5697
   42MOL0     H 5532   8.269   6.076   7.362  0.1414 -0.3731  0.9506
   42MOL0     H 5533   8.464   6.178   7.262  0.2000 -0.9966 -0.4337
   42MOL0     H 5534   8.841   5.993   7.400  0.1072 -0.8404 -5.4554
   42MOL0     H 5535   8.895   6.135   7.484 -1.0625 -2.2058  1.4005
   42MOL0     H 5536   8.967   6.219   7.251  2.8343 -0.4489  0.2596
   42MOL0     H 5537   9.047   6.075   7.303  0.2308 -0.4558 -0.7098
   42MOL0     H 5538   8.789   6.102   7.134  0.9372  3.9421  0.3584
   42MOL0     H 5539   8.858   5.947   7.182 -1.7585  0.2076 -2.3410
   42MOL0     H 5540   8.918   6.048   6.936 -1.6873 -0.0518  0.5415
   42MOL0     H 5541   9.018   6.154   7.028 -0.3579 -0.1153 -2.4548
   42MOL0     H 5542   9.196   5.760   7.118 -0.8310 -0.1781  1.2425
   42MOL0     H 5543   8.689   6.117   7.624 -1.6075  2.9249  1.5375
   42MOL0     H 5544   8.483   6.047   7.735  2.6016  0.2881 -0.3089
   43MOL0     O 5545   3.631   9.868   1.190  0.2773  0.1428 -0.5165
   43MOL0     C 5546   3.629   9.767   1.118 -0.9306 -0.2771 -0.4487
   43MOL0     O 5547   3.522   9.699   1.077  0.0717  0.2063 -0.0338
   43MOL0     C 5548   3.391   9.731   1.130  0.8149 -0.0173  1.0878
   43MOL0     C 5549   3.286   9.762   1.041  0.8762 -0.1455 -0.0650
   43MOL0     C 5550   3.157   9.784   1.093  0.6418 -0.4377 -0.1381
   43MOL0     C 5551   3.132   9.758   1.233  0.0133  0.3637 -0.0161
   43MOL0     O 5552   3.008   9.754   1.274  0.8872 -0.8715  0.4645
   43MOL0     C 5553   2.927   9.634   1.250 -0.1931  0.2026 -0.1697
   43MOL0     C 5554   2.785   9.676   1.265  0.1842 -0.1370  0.0120
   43MOL0     C 5555   2.706   9.711   1.132 -0.1518  1.3859  0.7886
   43MOL0     C 5556   2.565   9.748   1.165  0.6233  0.0689 -0.5819
   43MOL0     C 5557   2.466   9.754   1.043  0.0558 -0.7928 -0.2182
   43MOL0     C 5558   2.408   9.626   0.992  0.2503  0.3623 -0.4043
   43MOL0     C 5559   2.281   9.648   0.901 -0.1425 -0.0618 -0.2436
   43MOL0     C 5560   2.256   9.541   0.789 -0.5676 -0.5844 -0.4126
   43MOL0     N 5561   2.135   9.546   0.710  0.1182  0.4837  0.2240
   43MOL0     C 5562   2.114   9.632   0.606 -0.0929 -0.1466  0.9325
   43MOL0     C 5563   1.999   9.603   0.552  0.0034  0.3679 -1.0526
   43MOL0     C 5564   1.929   9.681   0.447  0.0669 -0.1547  0.0845
   43MOL0     C 5565   1.972   9.833   0.449  0.2074  0.3262 -0.2524
   43MOL0     C 5566   1.929   9.899   0.582 -0.3196  0.3912  0.4880
   43MOL0     C 5567   1.780   9.910   0.605 -0.2169  0.4814 -0.6675
   43MOL0     O 5568   1.751  10.003   0.707  0.2227  0.0065 -0.4916
   43MOL0     C 5569   1.616  10.026   0.732  0.6085  0.1649 -0.3642
   43MOL0     C 5570   1.585  10.128   0.831  0.5375  0.2056  0.9991
   43MOL0     C 5571   1.448  10.149   0.873 -0.3715 -0.1299  0.1035
   43MOL0     C 5572   1.346  10.091   0.800  0.8844  0.6147 -1.0534
   43MOL0     C 5573   1.206  10.102   0.836 -0.1921 -1.1959  1.2033
   43MOL0     O 5574   1.104  10.038   0.767 -0.7666 -0.6999 -0.0847
   43MOL0     C 5575   0.977  10.090   0.796 -0.4176 -1.0770  0.6289
   43MOL0     C 5576   0.910  10.044   0.909 -0.2275  0.2748 -0.4119
   43MOL0     C 5577   0.782  10.086   0.941  0.2938  0.5449  0.3683
   43MOL0     C 5578   0.700  10.165   0.855 -0.4323  0.6055  0.6061
   43MOL0     O 5579   0.568  10.211   0.878 -0.1375 -0.2763 -0.0721
   43MOL0     C 5580   0.476  10.149   0.964 -0.0608  0.5765 -0.9210
   43MOL0     C 5581   0.332  10.208   0.947 -0.1074  0.0336  0.1101
   43MOL0     C 5582   0.226  10.171   1.061  0.1015 -0.8115  1.0266
   43MOL0     C 5583   0.080  10.219   1.044 -0.1551  0.6209 -0.5927
   43MOL0     C 5584   0.051  10.375   1.051 -0.7455  0.5091  0.6348
   43MOL0     C 5585   0.034  10.430   0.906  0.9671 -0.1049 -0.3228
   43MOL0     C 5586  -0.015  10.579   0.905 -0.2839  0.3771 -0.1258
   43MOL0     C 5587  -0.073  10.612   0.773 -0.2408  0.3776  0.6245
   43MOL0    Cl 5588  -0.230  10.521   0.748  0.6276  0.4261 -0.2898
   43MOL0     C 5589   0.768  10.215   0.740 -0.0432  0.7271 -0.6933
   43MOL0     C 5590   0.903  10.173   0.714 -0.9154 -0.4041  0.4030
   43MOL0     O 5591   1.186  10.177   0.933 -0.1052 -0.1403  0.5097
   43MOL0     C 5592   1.381   9.996   0.706  0.6731 -0.0130  0.6388
   43MOL0     C 5593   1.509   9.959   0.669 -0.0842  0.1715  0.0499
   43MOL0     N 5594   1.947   9.503   0.633 -0.0551 -0.1165 -0.4305
   43MOL0     N 5595   2.030   9.468   0.724 -0.1067  0.3415  0.3396
   43MOL0     C 5596   3.236   9.714   1.315 -0.6706 -0.3385  0.8562
   43MOL0     C 5597   3.363   9.709   1.267 -0.1930 -0.2144  0.4129
   43MOL0     C 5598   3.769   9.712   1.091 -0.5625 -0.9058  0.4734
   43MOL0     C 5599   3.880   9.774   1.154  0.5022 -0.4536 -0.0373
   43MOL0     C 5600   4.005   9.718   1.153  0.2964 -0.4133  0.4760
   43MOL0     C 5601   4.022   9.593   1.103 -0.7293  0.4326 -0.1593
   43MOL0     O 5602   4.145   9.530   1.137 -0.0062 -0.0062  0.0224
   43MOL0     C 5603   4.191   9.451   1.022 -0.2912  0.3128 -0.5048
   43MOL0     C 5604   4.343   9.411   1.042 -0.9693  0.6536  0.2376
   43MOL0     C 5605   4.394   9.331   0.919  0.1478  0.9884 -0.6113
   43MOL0     C 5606   4.541   9.306   0.910 -0.4916 -0.5802  0.0586
   43MOL0     C 5607   4.568   9.236   0.782 -0.9747 -0.1940  0.0288
   43MOL0     C 5608   4.580   9.190   0.671 -0.4267 -0.2054 -0.5587
   43MOL0     C 5609   3.913   9.528   1.035  0.0863 -1.2251  0.3091
   43MOL0     C 5610   3.793   9.596   1.011 -0.4200  0.4396 -0.3600
   43MOL0     H 5611   3.299   9.778   0.934 -1.8788  0.6219 -0.3504
   43MOL0     H 5612   3.067   9.813   1.041 -1.0481 -1.3179  2.1512
   43MOL0     H 5613   2.959   9.556   1.320  1.5342 -1.3848 -2.5293
   43MOL0     H 5614   2.955   9.589   1.154  0.7332 -2.2656  1.1485
   43MOL0     H 5615   2.776   9.758   1.337  0.1666 -0.6527  0.6074
   43MOL0     H 5616   2.731   9.591   1.306  0.6304 -0.0975  0.6908
   43MOL0     H 5617   2.700   9.615   1.080  1.9587  2.1009 -0.8942
   43MOL0     H 5618   2.755   9.782   1.065  0.5208 -0.5301 -0.8442
   43MOL0     H 5619   2.535   9.667   1.232  0.9937 -1.0696 -1.7596
   43MOL0     H 5620   2.553   9.845   1.215  0.7761  0.7507 -1.8313
   43MOL0     H 5621   2.520   9.806   0.963 -2.0919  0.1214 -1.1626
   43MOL0     H 5622   2.378   9.812   1.073  0.2779  0.5902 -2.0285
   43MOL0     H 5623   2.390   9.568   1.083  2.1623  1.1296  0.5158
   43MOL0     H 5624   2.481   9.564   0.940 -0.4711  1.7957 -3.3095
   43MOL0     H 5625   2.191   9.661   0.962 -0.0057  0.6966 -0.1996
   43MOL0     H 5626   2.294   9.742   0.847  3.1111 -1.5084 -2.2158
   43MOL0     H 5627   2.271   9.444   0.838  1.9801  1.0200  2.3165
   43MOL0     H 5628   2.346   9.551   0.727  0.7493 -0.8071  1.4075
   43MOL0     H 5629   2.173   9.717   0.572  0.9719 -2.1182 -2.6578
   43MOL0     H 5630   1.824   9.697   0.471 -0.1524  2.3635 -2.0298
   43MOL0     H 5631   1.945   9.635   0.349 -0.3352 -0.7713  0.2995
   43MOL0     H 5632   1.933   9.890   0.365  2.1826  2.4898  0.2154
   43MOL0     H 5633   2.080   9.844   0.434  0.1059  1.6704 -0.0954
   43MOL0     H 5634   1.976   9.847   0.666 -0.1846  1.4336  1.0726
   43MOL0     H 5635   1.959  10.004   0.583  0.7273  0.1000  0.9520
   43MOL0     H 5636   1.748   9.810   0.635 -1.8285  1.1864  0.0717
   43MOL0     H 5637   1.727   9.925   0.511 -0.2746 -0.9669 -0.8828
   43MOL0     H 5638   1.673  10.186   0.858  0.8269  1.2022 -1.6974
   43MOL0     H 5639   1.434  10.223   0.951 -1.8871 -0.6199  0.3150
   43MOL0     H 5640   0.959   9.991   0.990 -1.6477  1.8199  1.5279
   43MOL0     H 5641   0.725  10.046   1.025 -1.9743  0.9664 -0.8744
   43MOL0     H 5642   0.497  10.161   1.071 -0.4833  0.0827 -0.7805
   43MOL0     H 5643   0.474  10.042   0.942  0.4097 -0.0379  1.6547
   43MOL0     H 5644   0.295  10.166   0.854 -0.4682 -3.6171  1.7346
   43MOL0     H 5645   0.355  10.315   0.936  1.8972 -0.5572 -2.2610
   43MOL0     H 5646   0.264  10.215   1.154 -2.9403  0.3566  1.8414
   43MOL0     H 5647   0.228  10.062   1.067 -2.0331 -1.0290 -0.8202
   43MOL0     H 5648   0.038  10.178   0.951 -1.7330  0.2114  0.2783
   43MOL0     H 5649   0.020  10.169   1.120  1.5201 -2.5301 -1.1316
   43MOL0     H 5650   0.133  10.416   1.112 -1.0065 -1.9960  2.8421
   43MOL0     H 5651  -0.042  10.389   1.107  0.0769 -0.8904  2.4735
   43MOL0     H 5652  -0.048  10.374   0.859  1.5715  2.5238 -5.2781
   43MOL0     H 5653   0.119  10.410   0.840 -0.6502 -0.7066 -2.3575
   43MOL0     H 5654  -0.082  10.619   0.982 -2.0470  0.6942 -1.7503
   43MOL0     H 5655   0.078  10.635   0.909 -0.7080  1.3119 -2.2163
   43MOL0     H 5656  -0.004  10.559   0.707  0.9969  2.3596  0.2454
   43MOL0     H 5657  -0.089  10.720   0.761 -2.6343 -0.0790 -1.0633
   43MOL0     H 5658   0.708  10.274   0.672 -2.3981 -0.5574  0.1480
   43MOL0     H 5659   0.956  10.187   0.620  2.0086  1.3564  2.1859
   43MOL0     H 5660   1.300   9.947   0.652  2.1770 -1.3897 -0.5024
   43MOL0     H 5661   1.527   9.879   0.598 -1.1382  1.4842 -1.8153
   43MOL0     H 5662   3.231   9.684   1.419 -1.6766 -0.2787  0.8350
   43MOL0     H 5663   3.449   9.682   1.328  1.5389  1.1858 -1.2517
   43MOL0     H 5664   3.881   9.861   1.219 -0.8131 -1.0176  0.7866
   43MOL0     H 5665   4.086   9.771   1.201 -0.0603  0.0215  0.5984
   43MOL0     H 5666   4.178   9.495   0.923  0.5546 -1.1661 -1.2946
   43MOL0     H 5667   4.142   9.354   1.019  0.8216 -0.3580  1.1358
   43MOL0     H 5668   4.404   9.500   1.059 -0.1681  0.1523  0.0346
   43MOL0     H 5669   4.354   9.342   1.127  0.8710 -0.0439 -0.5201
   43MOL0     H 5670   4.363   9.382   0.827 -1.2851  2.1089  0.4625
   43MOL0     H 5671   4.341   9.235   0.921 -0.5252  1.2706 -2.5945
   43MOL0     H 5672   4.597   9.399   0.920 -0.9698 -0.1591 -0.9945
   43MOL0     H 5673   4.575   9.242   0.992  0.6225 -1.5610 -1.1340
   43MOL0     H 5674   4.593   9.144   0.575 -0.9356  1.8936 -1.6887
   43MOL0     H 5675   3.935   9.433   0.988  2.4193 -1.9112  2.5637
   43MOL0     H 5676   3.724   9.538   0.950 -0.1643  1.6936 -1.9202
   44MOL0     O 5677   6.265   3.549   2.664 -0.3403 -0.1614 -0.6118
   44MOL0     C 5678   6.283   3.486   2.567 -0.3001  0.8443 -0.1528
   44MOL0     O 5679   6.217   3.498   2.449 -0.0864 -1.3592  0.7948
   44MOL0     C 5680   6.121   3.592   2.428  1.0089 -0.2572  0.0809
   44MOL0     C 5681   6.150   3.731   2.429 -0.5848 -0.0085 -0.4768
   44MOL0     C 5682   6.050   3.826   2.407  0.2891 -1.2259  0.9160
   44MOL0     C 5683   5.919   3.792   2.382 -0.8173 -0.0805 -0.7099
   44MOL0     O 5684   5.825   3.887   2.377 -0.1220  0.5378 -0.2579
   44MOL0     C 5685   5.776   3.903   2.241  0.3340  0.4700 -0.1202
   44MOL0     C 5686   5.712   4.045   2.225 -1.0799 -0.1254  0.3541
   44MOL0     C 5687   5.692   4.073   2.072 -0.0243 -0.7346  0.1190
   44MOL0     C 5688   5.642   4.217   2.055  0.3529  0.2694  0.7792
   44MOL0     C 5689   5.492   4.233   2.098 -0.1735 -0.6181  0.1728
   44MOL0     C 5690   5.447   4.364   2.051 -0.7224 -0.0734 -0.0832
   44MOL0     C 5691   5.295   4.379   2.079 -0.3974 -0.2212  0.4676
   44MOL0     C 5692   5.209   4.440   1.975  0.2156 -0.5221 -0.9227
   44MOL0     N 5693   5.201   4.357   1.853 -0.3759  0.4519 -0.3389
   44MOL0     C 5694   5.152   4.231   1.850 -1.0193 -0.2347  0.3726
   44MOL0     C 5695   5.199   4.172   1.735  0.9578 -0.3073 -1.0265
   44MOL0     C 5696   5.152   4.036   1.684 -0.4183 -0.2859  0.9589
   44MOL0     C 5697   5.039   4.033   1.582  0.0479 -0.8824 -0.3539
   44MOL0     C 5698   5.011   3.891   1.532 -0.4240  1.0462 -0.2893
   44MOL0     C 5699   4.865   3.867   1.500 -0.4942 -0.2356 -0.5225
   44MOL0     O 5700   4.825   3.929   1.378  0.7668 -0.0024 -0.1084
   44MOL0     C 5701   4.694   3.951   1.357  0.6454  0.1934 -0.6334
   44MOL0     C 5702   4.592   3.898   1.439 -0.6842 -0.7672 -0.9089
   44MOL0     C 5703   4.457   3.922   1.413 -0.7591 -0.6192  0.6287
   44MOL0     C 5704   4.433   4.015   1.310 -0.4348  0.0206  0.0988
   44MOL0     C 5705   4.295   4.073   1.292 -0.7607 -0.3980 -1.1194
   44MOL0     O 5706   4.209   4.051   1.395  0.7417 -0.4675 -0.3876
   44MOL0     C 5707   4.080   4.096   1.414  0.1788 -0.1492  1.1560
   44MOL0     C 5708   3.995   4.153   1.319 -0.0167  0.1216  0.1716
   44MOL0     C 5709   3.863   4.190   1.350 -0.1285  0.2843 -0.1382
   44MOL0     C 5710   3.822   4.182   1.486  0.3922 -0.0955 -0.9848
   44MOL0     O 5711   3.691   4.223   1.517 -0.7058 -0.1240  0.1218
   44MOL0     C 5712   3.676   4.316   1.619 -0.5255 -0.0229  0.0664
   44MOL0     C 5713   3.536   4.368   1.600 -0.9281  0.4140  0.8160
   44MOL0     C 5714   3.423   4.265   1.638 -0.3649 -0.3651 -0.2551
   44MOL0     C 5715   3.373   4.172   1.519 -0.1995 -0.8790 -0.1781
   44MOL0     C 5716   3.242   4.097   1.553  0.3755  0.4861  0.4392
   44MOL0     C 5717   3.122   4.184   1.550  0.2830 -1.0307 -0.4745
   44MOL0     C 5718   3.011   4.111   1.635 -0.3091 -0.3143  0.7676
   44MOL0     C 5719   2.891   4.193   1.647  0.4565 -0.2141  0.6917
   44MOL0    Cl 5720   2.840   4.246   1.497  0.0166  0.1567  0.1226
   44MOL0     C 5721   3.911   4.129   1.578  0.4933 -0.7663  0.8347
   44MOL0     C 5722   4.042   4.089   1.541  0.1091 -1.0535 -0.4823
   44MOL0     O 5723   4.278   4.158   1.203  0.2173  0.6185 -0.0952
   44MOL0     C 5724   4.530   4.056   1.220  0.2582  0.7988  0.7017
   44MOL0     C 5725   4.660   4.029   1.243 -0.0035 -0.1573 -0.5114
   44MOL0     N 5726   5.285   4.260   1.673  0.5098  0.3934  0.2837
   44MOL0     N 5727   5.284   4.370   1.745 -0.2961  0.5036  0.0952
   44MOL0     C 5728   5.888   3.657   2.386 -0.3506  0.3867  0.1714
   44MOL0     C 5729   5.992   3.560   2.399  1.5544 -0.0506  0.4249
   44MOL0     C 5730   6.402   3.394   2.581  0.4191 -0.2210  0.4295
   44MOL0     C 5731   6.492   3.402   2.688 -0.0121 -0.5353 -0.1500
   44MOL0     C 5732   6.603   3.314   2.696 -0.7684 -0.0988  0.6347
   44MOL0     C 5733   6.626   3.223   2.590  0.2155 -0.1746 -0.2347
   44MOL0     O 5734   6.738   3.141   2.597 -0.5894 -0.3668 -0.2291
   44MOL0     C 5735   6.735   3.013   2.527  0.4002 -0.5447  0.3134
   44MOL0     C 5736   6.799   2.893   2.578  0.3403  0.0083 -0.2738
   44MOL0     C 5737   6.756   2.857   2.720 -0.3570  0.7269  0.6000
   44MOL0     C 5738   6.609   2.803   2.735  0.4225  0.7734 -0.8746
   44MOL0     C 5739   6.594   2.741   2.870  0.3373  0.2170  0.4461
   44MOL0     C 5740   6.575   2.683   2.981  0.5068  0.0968  0.3924
   44MOL0     C 5741   6.542   3.223   2.476 -0.0042 -0.4824 -0.5350
   44MOL0     C 5742   6.423   3.298   2.482  0.6351  0.7404  0.2182
   44MOL0     H 5743   6.250   3.766   2.454 -0.5074 -0.3967 -0.2260
   44MOL0     H 5744   6.075   3.931   2.394  1.2492 -1.7580 -2.4139
   44MOL0     H 5745   5.704   3.822   2.222  1.7695 -0.6186 -1.1240
   44MOL0     H 5746   5.862   3.893   2.175  1.1131 -0.4207  0.9892
   44MOL0     H 5747   5.788   4.115   2.262  1.1051 -1.3423 -1.6262
   44MOL0     H 5748   5.614   4.055   2.274 -3.0947  0.7297 -3.4927
   44MOL0     H 5749   5.614   4.004   2.040  0.4136 -0.8214 -0.7978
   44MOL0     H 5750   5.776   4.051   2.006 -1.1676  3.9306 -3.4513
   44MOL0     H 5751   5.708   4.291   2.101  0.5495 -0.0104  0.9524
   44MOL0     H 5752   5.635   4.232   1.947 -3.1228  0.6965  0.9639
   44MOL0     H 5753   5.478   4.227   2.207 -1.5483  0.7192  0.0955
   44MOL0     H 5754   5.426   4.153   2.062 -1.4884 -0.5080  2.1753
   44MOL0     H 5755   5.470   4.367   1.944  0.6026  1.1218  0.2100
   44MOL0     H 5756   5.506   4.437   2.108 -3.0260  2.0026 -0.1636
   44MOL0     H 5757   5.249   4.282   2.099 -1.7202  0.2250 -0.2465
   44MOL0     H 5758   5.282   4.438   2.170  1.2542  2.3157 -0.8105
   44MOL0     H 5759   5.241   4.544   1.967  4.9975 -1.5728  0.8671
   44MOL0     H 5760   5.103   4.440   2.002 -0.0684  1.0842 -1.9031
   44MOL0     H 5761   5.077   4.186   1.914 -1.9104 -2.5336 -2.1090
   44MOL0     H 5762   5.134   3.962   1.763 -0.4775 -1.6329 -0.2658
   44MOL0     H 5763   5.239   3.997   1.630  0.8813  0.5856  2.3780
   44MOL0     H 5764   5.070   4.095   1.497  1.1662  1.7123  1.7952
   44MOL0     H 5765   4.949   4.083   1.619  1.3769  2.4659 -1.2451
   44MOL0     H 5766   5.077   3.853   1.454  0.7503 -1.5057  1.7833
   44MOL0     H 5767   5.029   3.825   1.617  0.7745 -1.0910 -2.1046
   44MOL0     H 5768   4.817   3.906   1.590 -0.1790  1.6434 -1.1149
   44MOL0     H 5769   4.857   3.758   1.499 -1.4449 -0.2302  1.4000
   44MOL0     H 5770   4.614   3.833   1.523  0.5598  2.4759  1.4733
   44MOL0     H 5771   4.379   3.881   1.475 -0.3986 -1.7258  0.3645
   44MOL0     H 5772   4.015   4.169   1.214 -1.6687 -0.7244 -0.3022
   44MOL0     H 5773   3.789   4.215   1.275  1.1725  1.7953 -0.9648
   44MOL0     H 5774   3.737   4.404   1.594  0.9813 -1.1176 -0.2648
   44MOL0     H 5775   3.696   4.274   1.718 -1.2724 -0.9008 -0.1370
   44MOL0     H 5776   3.529   4.398   1.495  3.3152  1.3125  0.6188
   44MOL0     H 5777   3.531   4.467   1.647 -1.9085  0.9528 -0.3681
   44MOL0     H 5778   3.339   4.318   1.683  0.3421 -0.5105  1.3322
   44MOL0     H 5779   3.454   4.200   1.721 -2.1592  0.7743  1.3966
   44MOL0     H 5780   3.355   4.238   1.433 -2.0050  0.5489  1.2147
   44MOL0     H 5781   3.445   4.094   1.491 -0.8150 -0.9554 -1.6375
   44MOL0     H 5782   3.248   4.042   1.648 -1.8696  0.6383  0.7437
   44MOL0     H 5783   3.233   4.018   1.478 -1.7523 -0.3424  1.4745
   44MOL0     H 5784   3.095   4.201   1.445  0.7950  2.9436 -0.1389
   44MOL0     H 5785   3.138   4.282   1.597 -1.5480 -1.2411  0.6740
   44MOL0     H 5786   2.999   4.017   1.581  0.1214  0.3312 -0.4838
   44MOL0     H 5787   3.049   4.097   1.737  0.0164  0.9007  0.8360
   44MOL0     H 5788   2.911   4.283   1.706  0.8987 -0.6437  1.2116
   44MOL0     H 5789   2.812   4.141   1.702  0.1098  1.7132  2.1236
   44MOL0     H 5790   3.878   4.122   1.681 -0.9581 -1.0973  0.3711
   44MOL0     H 5791   4.111   4.043   1.611  0.3488  0.4741  0.3233
   44MOL0     H 5792   4.497   4.114   1.134 -3.1389 -0.3386  1.0973
   44MOL0     H 5793   4.744   4.072   1.189 -0.4431 -1.9392 -2.7598
   44MOL0     H 5794   5.782   3.634   2.380  0.5539 -4.3961 -2.9839
   44MOL0     H 5795   5.963   3.455   2.397  0.7045  0.1788  0.0062
   44MOL0     H 5796   6.480   3.473   2.769  1.6982 -0.1485 -0.2141
   44MOL0     H 5797   6.675   3.329   2.776  1.5109  4.4437 -1.8616
   44MOL0     H 5798   6.773   3.024   2.425 -1.0718 -1.1476 -0.3345
   44MOL0     H 5799   6.628   2.991   2.518 -0.2646  2.6786 -0.9954
   44MOL0     H 5800   6.773   2.804   2.519  0.9601  0.1751 -0.8070
   44MOL0     H 5801   6.907   2.911   2.577  0.5735 -0.1351  4.1995
   44MOL0     H 5802   6.761   2.945   2.785  0.3036 -0.0771  1.6767
   44MOL0     H 5803   6.834   2.789   2.754 -0.6223 -0.2701 -0.6896
   44MOL0     H 5804   6.544   2.891   2.730  1.2297  1.5944  1.8152
   44MOL0     H 5805   6.580   2.730   2.658 -0.7341  2.0159 -1.6506
   44MOL0     H 5806   6.560   2.618   3.065  0.3416 -0.0167  0.2750
   44MOL0     H 5807   6.560   3.164   2.386 -0.4424  1.0057 -1.6434
   44MOL0     H 5808   6.354   3.278   2.400 -2.0287  2.3590  1.9425
   45MOL0     O 5809   1.815  10.796   7.678  0.5286  0.1118 -0.4653
   45MOL0     C 5810   1.811  10.904   7.624  1.0326  0.1624 -0.6852
   45MOL0     O 5811   1.720  10.961   7.540 -0.4380 -0.4845  0.2107
   45MOL0     C 5812   1.595  10.906   7.520 -1.2107  0.2284  0.0680
   45MOL0     C 5813   1.507  10.856   7.617 -0.4101  0.6458  0.4418
   45MOL0     C 5814   1.392  10.791   7.578 -0.2135 -0.6468 -0.4703
   45MOL0     C 5815   1.368  10.768   7.444  0.4357  0.0784 -0.1041
   45MOL0     O 5816   1.262  10.691   7.413  0.0850  0.7582 -0.3993
   45MOL0     C 5817   1.292  10.561   7.361  0.1282 -0.5533 -0.2240
   45MOL0     C 5818   1.193  10.455   7.420  0.1925 -0.5576  0.2347
   45MOL0     C 5819   1.227  10.316   7.377  0.0098  0.4981  0.2946
   45MOL0     C 5820   1.122  10.216   7.431  0.3561 -0.4121 -0.0957
   45MOL0     C 5821   1.156  10.071   7.420 -0.7456  0.1499 -0.2143
   45MOL0     C 5822   1.045   9.975   7.443  0.3271  0.2789 -0.5040
   45MOL0     C 5823   0.971  10.002   7.579  0.6476  0.6218 -0.5136
   45MOL0     C 5824   0.873   9.884   7.624 -0.6400  0.3787 -1.0422
   45MOL0     N 5825   0.966   9.764   7.629 -0.8693  0.5063 -0.2129
   45MOL0     C 5826   1.048   9.740   7.741 -0.0999 -0.0420 -0.3158
   45MOL0     C 5827   1.073   9.604   7.730  0.4427 -0.2717 -0.0855
   45MOL0     C 5828   1.158   9.538   7.821 -0.1333  0.7505  0.0529
   45MOL0     C 5829   1.307   9.564   7.795  0.2208 -0.7481  0.0053
   45MOL0     C 5830   1.341   9.568   7.649 -0.0625 -0.2069  0.0137
   45MOL0     C 5831   1.466   9.651   7.630 -0.5221 -0.9411 -0.3984
   45MOL0     O 5832   1.437   9.794   7.656 -0.6187  0.4518  0.9001
   45MOL0     C 5833   1.546   9.879   7.643 -0.1019 -0.0380  0.4898
   45MOL0     C 5834   1.681   9.843   7.606  0.2407  0.6756  0.2195
   45MOL0     C 5835   1.789   9.934   7.620 -0.1166 -0.4036 -0.2428
   45MOL0     C 5836   1.759  10.071   7.649 -0.6336  0.5129 -0.2442
   45MOL0     C 5837   1.865  10.172   7.680 -0.5265 -0.9409 -0.2944
   45MOL0     O 5838   1.815  10.285   7.722  0.2214 -0.3223 -0.3958
   45MOL0     C 5839   1.914  10.375   7.768 -0.7955  0.2866  0.5545
   45MOL0     C 5840   1.965  10.480   7.683 -0.8281 -0.1513 -0.1334
   45MOL0     C 5841   2.054  10.579   7.733  0.5099 -0.4531  0.7013
   45MOL0     C 5842   2.088  10.576   7.866  0.5227 -0.3122  0.8345
   45MOL0     O 5843   2.171  10.671   7.915  0.2413  0.2194  0.4799
   45MOL0     C 5844   2.303  10.654   7.856 -0.2572 -0.5194  0.5454
   45MOL0     C 5845   2.400  10.751   7.922 -0.2811  0.0018  0.4454
   45MOL0     C 5846   2.515  10.780   7.823  0.0388 -0.1957 -0.5311
   45MOL0     C 5847   2.606  10.892   7.885 -0.2336 -0.2181 -0.1991
   45MOL0     C 5848   2.730  10.933   7.795  0.8608 -0.4257 -0.1634
   45MOL0     C 5849   2.815  11.033   7.868  0.1711  0.7216  1.0783
   45MOL0     C 5850   2.776  11.182   7.861  0.5545  0.3575  0.9638
   45MOL0     C 5851   2.852  11.265   7.971  0.7420  0.3000  0.4840
   45MOL0    Cl 5852   2.818  11.428   7.938 -0.1513 -0.3229  0.0576
   45MOL0     C 5853   2.047  10.473   7.951 -0.3349 -0.4535  0.9528
   45MOL0     C 5854   1.955  10.384   7.902  1.1801  0.4347  0.6898
   45MOL0     O 5855   1.986  10.147   7.657 -0.5578 -0.6395 -0.0155
   45MOL0     C 5856   1.628  10.106   7.655  0.3636  0.2583 -0.0547
   45MOL0     C 5857   1.526  10.017   7.653 -0.4249  0.2301 -0.2175
   45MOL0     N 5858   1.000   9.555   7.630  0.6005 -0.0967  0.1421
   45MOL0     N 5859   0.929   9.647   7.569 -0.3706  0.3012  0.0902
   45MOL0     C 5860   1.441  10.837   7.343  0.7481 -0.3792  0.8659
   45MOL0     C 5861   1.556  10.901   7.383 -0.7363  0.4241  0.0022
   45MOL0     C 5862   1.915  11.001   7.681 -0.2419  0.2158 -0.1359
   45MOL0     C 5863   1.920  11.144   7.653  0.3303 -0.2057  0.9941
   45MOL0     C 5864   2.027  11.226   7.694  0.3229 -0.3877  0.3487
   45MOL0     C 5865   2.127  11.173   7.772 -0.3630 -0.6788 -1.0464
   45MOL0     O 5866   2.228  11.251   7.825  0.1491 -0.0812 -0.2756
   45MOL0     C 5867   2.326  11.313   7.750 -0.6466  0.8212 -0.2959
   45MOL0     C 5868   2.397  11.411   7.835  0.8339 -0.4879  1.2199
   45MOL0     C 5869   2.517  11.482   7.760  0.6731  1.2492  0.0267
   45MOL0     C 5870   2.474  11.601   7.676 -0.8813  0.3301  0.6192
   45MOL0     C 5871   2.598  11.650   7.623  0.4572  0.5594  0.6141
   45MOL0     C 5872   2.702  11.682   7.572  0.1481  0.0575 -0.7656
   45MOL0     C 5873   2.123  11.041   7.811 -0.2106 -0.6673  0.2030
   45MOL0     C 5874   2.025  10.960   7.756  0.1197  0.5954 -0.9201
   45MOL0     H 5875   1.535  10.869   7.721  0.2317  1.3956  0.1873
   45MOL0     H 5876   1.323  10.757   7.655 -0.7054  0.1697 -0.5333
   45MOL0     H 5877   1.390  10.536   7.402 -0.7078 -1.0181  1.5793
   45MOL0     H 5878   1.297  10.575   7.252 -2.5857  0.6755 -0.2526
   45MOL0     H 5879   1.095  10.489   7.384 -0.4612 -2.1561  0.4122
   45MOL0     H 5880   1.203  10.461   7.528  2.7893  1.6741 -0.0306
   45MOL0     H 5881   1.329  10.289   7.402 -0.9646 -2.5060  1.4102
   45MOL0     H 5882   1.209  10.308   7.269 -0.5424  2.6568  0.1689
   45MOL0     H 5883   1.116  10.233   7.539 -1.9385 -0.7271 -0.1270
   45MOL0     H 5884   1.023  10.223   7.385  0.5541 -2.3925 -0.9668
   45MOL0     H 5885   1.240  10.051   7.487 -2.2009  1.3840  2.1191
   45MOL0     H 5886   1.202  10.046   7.324 -0.9914 -2.4905  0.2640
   45MOL0     H 5887   1.084   9.874   7.431  0.6226  0.4335 -0.8477
   45MOL0     H 5888   0.980   9.998   7.358  1.9948  1.1016 -1.5984
   45MOL0     H 5889   1.033  10.026   7.666 -0.1715 -0.6593  0.4742
   45MOL0     H 5890   0.893  10.076   7.555 -1.8234 -1.2740  1.0982
   45MOL0     H 5891   0.805   9.861   7.542  0.9396 -1.1609 -1.9962
   45MOL0     H 5892   0.822   9.903   7.719 -0.9923 -0.0659 -1.1418
   45MOL0     H 5893   1.083   9.815   7.811 -2.1020  1.0849 -0.4435
   45MOL0     H 5894   1.164   9.429   7.814  1.2231  0.7792  0.4169
   45MOL0     H 5895   1.131   9.569   7.923  1.0395  0.5042  0.4579
   45MOL0     H 5896   1.373   9.494   7.848  3.0073  2.3705  1.0210
   45MOL0     H 5897   1.334   9.662   7.836  1.7599 -0.0531 -2.4313
   45MOL0     H 5898   1.349   9.466   7.611 -3.2262 -1.3566  2.0209
   45MOL0     H 5899   1.271   9.631   7.593  0.4143 -0.3102 -0.7136
   45MOL0     H 5900   1.507   9.643   7.529  2.4123  1.2591  0.4678
   45MOL0     H 5901   1.546   9.612   7.693  1.0866  0.1262 -1.6842
   45MOL0     H 5902   1.704   9.737   7.599  2.1122  1.1512 -1.7756
   45MOL0     H 5903   1.895   9.914   7.613  0.5112  2.3555  0.3198
   45MOL0     H 5904   1.938  10.483   7.578 -0.0643  0.9595 -0.3191
   45MOL0     H 5905   2.095  10.657   7.669 -2.7498  2.4029  1.8129
   45MOL0     H 5906   2.301  10.679   7.749 -4.1029  0.7298  0.7516
   45MOL0     H 5907   2.344  10.554   7.870  2.3410  0.3386 -0.4113
   45MOL0     H 5908   2.435  10.730   8.023  2.8568 -0.1271 -0.5546
   45MOL0     H 5909   2.356  10.851   7.925 -0.0547  0.0807  1.1836
   45MOL0     H 5910   2.478  10.819   7.728  0.1094  2.9151  0.5828
   45MOL0     H 5911   2.563  10.683   7.806 -0.7645 -0.8531  0.7323
   45MOL0     H 5912   2.547  10.983   7.901 -0.0456 -0.1203 -0.0636
   45MOL0     H 5913   2.647  10.854   7.979 -2.4571 -1.5740  0.2951
   45MOL0     H 5914   2.690  10.969   7.700  3.9618 -0.6707 -1.6944
   45MOL0     H 5915   2.778  10.837   7.779 -0.3261 -0.8767 -1.1795
   45MOL0     H 5916   2.917  11.019   7.829  0.3360  0.4489  1.6100
   45MOL0     H 5917   2.827  11.000   7.971 -1.0618 -1.4303  0.6019
   45MOL0     H 5918   2.807  11.222   7.764 -1.8934 -3.3867 -1.6312
   45MOL0     H 5919   2.667  11.191   7.872  0.5255 -0.7654  1.6504
   45MOL0     H 5920   2.956  11.228   7.969  0.0603 -1.8427 -2.6809
   45MOL0     H 5921   2.815  11.240   8.071  1.0359  0.8596  0.7376
   45MOL0     H 5922   2.067  10.485   8.057  3.9865  1.6287  0.1429
   45MOL0     H 5923   1.928  10.306   7.972 -0.0938  0.1776 -0.0545
   45MOL0     H 5924   1.597  10.210   7.663  1.4127  0.5845 -0.0361
   45MOL0     H 5925   1.426  10.059   7.659 -1.7309 -2.4978 -1.2710
   45MOL0     H 5926   1.407  10.832   7.240  1.3217 -3.7817  0.7059
   45MOL0     H 5927   1.613  10.952   7.306  0.1384  1.2128  1.1344
   45MOL0     H 5928   1.845  11.174   7.581 -0.6213 -1.2125  1.5560
   45MOL0     H 5929   2.036  11.329   7.662 -0.1390 -0.1173  1.0673
   45MOL0     H 5930   2.286  11.357   7.658  1.0743  1.2281 -0.8942
   45MOL0     H 5931   2.399  11.240   7.715  0.0290  0.4843  1.6661
   45MOL0     H 5932   2.321  11.486   7.860 -1.6279 -2.9242  1.4334
   45MOL0     H 5933   2.422  11.351   7.923 -2.7420 -2.1660  1.2629
   45MOL0     H 5934   2.554  11.409   7.687 -1.8250  1.2181 -1.3097
   45MOL0     H 5935   2.598  11.510   7.828  1.8019  1.8853 -1.4997
   45MOL0     H 5936   2.415  11.577   7.587 -0.1045  1.7827 -0.3246
   45MOL0     H 5937   2.427  11.680   7.735  0.3083  1.4204  0.1476
   45MOL0     H 5938   2.795  11.710   7.528 -0.3328 -1.7477 -3.1199
   45MOL0     H 5939   2.203  10.990   7.863 -0.7393 -1.4702  0.2330
   45MOL0     H 5940   2.042  10.854   7.770  0.1167  0.5352 -1.3652
   46MOL0     O 5941   0.038   4.376   8.555  0.0580 -0.0092  0.6444
   46MOL0     C 5942   0.098   4.298   8.630  0.1737  0.1251  0.1981
   46MOL0     O 5943   0.040   4.223   8.731 -0.0180 -0.4619 -0.4690
   46MOL0     C 5944  -0.095   4.201   8.723  0.1317  1.2724 -1.0190
   46MOL0     C 5945  -0.143   4.167   8.851 -0.7724  0.9859 -0.4166
   46MOL0     C 5946  -0.278   4.148   8.861  0.2382 -0.0864  1.1665
   46MOL0     C 5947  -0.366   4.145   8.748 -0.7803 -0.3727 -0.3271
   46MOL0     O 5948  -0.506   4.148   8.761 -0.5708  0.5619 -0.1415
   46MOL0     C 5949  -0.582   4.194   8.651  0.4114 -0.3440  0.7373
   46MOL0     C 5950  -0.725   4.190   8.700  0.0848  0.7562  1.1086
   46MOL0     C 5951  -0.779   4.044   8.716 -0.0109 -0.1829 -0.0819
   46MOL0     C 5952  -0.931   4.036   8.716  0.7164  1.0012  0.3217
   46MOL0     C 5953  -0.989   3.897   8.747  1.1566 -0.6899  0.3524
   46MOL0     C 5954  -1.143   3.913   8.763  0.2454  0.2236 -0.2126
   46MOL0     C 5955  -1.207   3.789   8.822 -0.0817  0.8830  0.2480
   46MOL0     C 5956  -1.358   3.796   8.822  0.8293  0.1134 -0.0204
   46MOL0     N 5957  -1.406   3.878   8.937  0.0138 -0.0036  1.3853
   46MOL0     C 5958  -1.475   3.994   8.915  0.5631 -0.4350 -0.2512
   46MOL0     C 5959  -1.519   4.022   9.037 -0.2488  0.1811 -0.0638
   46MOL0     C 5960  -1.619   4.129   9.068  0.3039 -0.4292 -0.3260
   46MOL0     C 5961  -1.755   4.067   9.083  0.6801  0.0568 -0.6158
   46MOL0     C 5962  -1.859   4.172   9.092  0.1961 -0.1231  0.1767
   46MOL0     C 5963  -1.999   4.115   9.104  0.4792  0.1787 -0.4128
   46MOL0     O 5964  -2.094   4.221   9.106  0.8337 -0.1144 -0.3664
   46MOL0     C 5965  -2.226   4.181   9.103 -1.4024  0.2933  0.4158
   46MOL0     C 5966  -2.312   4.246   9.015 -0.6957  0.3874 -0.2918
   46MOL0     C 5967  -2.446   4.203   9.008 -0.1159  0.1005 -0.3684
   46MOL0     C 5968  -2.489   4.083   9.084 -1.0360 -0.6966  0.2517
   46MOL0     C 5969  -2.623   4.026   9.077 -0.0351 -0.0686 -0.4693
   46MOL0     O 5970  -2.721   4.108   9.042 -0.1953  0.3411 -0.2381
   46MOL0     C 5971  -2.853   4.079   9.021  0.3271 -0.0067  0.3367
   46MOL0     C 5972  -2.940   4.189   9.046  0.6735 -0.0269 -0.1157
   46MOL0     C 5973  -3.080   4.175   9.014 -0.6816 -0.3920  0.1257
   46MOL0     C 5974  -3.124   4.053   8.951  0.4530  0.4044 -1.4802
   46MOL0     O 5975  -3.257   4.027   8.918  0.0726 -0.4451  0.3534
   46MOL0     C 5976  -3.347   4.023   9.032 -0.3928  0.1589  0.1468
   46MOL0     C 5977  -3.486   3.974   8.981 -0.1371  0.7338  0.2426
   46MOL0     C 5978  -3.497   3.816   8.984 -0.8095  0.4278 -0.3287
   46MOL0     C 5979  -3.548   3.765   9.111  0.6720 -0.3244  0.1097
   46MOL0     C 5980  -3.567   3.611   9.106  0.4719 -0.1885 -0.4723
   46MOL0     C 5981  -3.699   3.568   9.034 -0.5175  0.3853  0.6160
   46MOL0     C 5982  -3.723   3.416   9.052 -0.0824 -0.2060 -0.3389
   46MOL0     C 5983  -3.822   3.342   8.967  0.3798  0.1556 -0.2510
   46MOL0    Cl 5984  -3.991   3.379   8.997 -0.2022 -0.5205 -0.1241
   46MOL0     C 5985  -3.027   3.952   8.926  0.4234 -0.2815  0.0271
   46MOL0     C 5986  -2.894   3.965   8.962  0.5522  0.6239  0.0547
   46MOL0     O 5987  -2.632   3.910   9.104  0.8170  0.3086  0.1194
   46MOL0     C 5988  -2.397   4.024   9.176 -0.1779 -0.4516  0.4446
   46MOL0     C 5989  -2.268   4.074   9.182  0.3335  0.3122 -0.6474
   46MOL0     N 5990  -1.469   3.930   9.133  1.3570  0.6858  0.3408
   46MOL0     N 5991  -1.405   3.838   9.066 -0.5107 -0.7935  0.4445
   46MOL0     C 5992  -0.310   4.166   8.621  0.3301 -0.2578  0.5398
   46MOL0     C 5993  -0.174   4.208   8.610  0.5914 -0.6703  0.6417
   46MOL0     C 5994   0.248   4.302   8.639 -0.4979 -0.1052 -0.6120
   46MOL0     C 5995   0.328   4.218   8.714 -0.0022  0.1743  0.1641
   46MOL0     C 5996   0.467   4.221   8.712 -0.7706 -0.1392 -0.7373
   46MOL0     C 5997   0.535   4.320   8.640  0.6685  0.1214 -0.1617
   46MOL0     O 5998   0.665   4.326   8.628 -0.3136 -0.9998 -0.5236
   46MOL0     C 5999   0.733   4.248   8.542 -0.1603  0.6608  0.2021
   46MOL0     C 6000   0.817   4.145   8.614  0.2529  0.4992  0.1873
   46MOL0     C 6001   0.936   4.089   8.538 -0.9627  0.0421  0.0037
   46MOL0     C 6002   1.042   4.191   8.531  0.1044 -0.2084  0.8359
   46MOL0     C 6003   1.088   4.239   8.668  0.3303  0.5155 -1.4967
   46MOL0     C 6004   1.142   4.271   8.776  0.7890  0.6618 -0.3513
   46MOL0     C 6005   0.453   4.421   8.579 -0.4884  0.8985 -0.6137
   46MOL0     C 6006   0.311   4.401   8.572  0.5771  0.1118 -0.4857
   46MOL0     H 6007  -0.078   4.156   8.937  0.3097  1.1231 -1.2108
   46MOL0     H 6008  -0.317   4.120   8.958 -1.4968  2.3538  1.2742
   46MOL0     H 6009  -0.569   4.125   8.567 -0.6929  1.9372 -1.4303
   46MOL0     H 6010  -0.562   4.296   8.620  0.2558 -0.0593  1.5472
   46MOL0     H 6011  -0.779   4.235   8.616  1.9096 -1.4514 -1.4401
   46MOL0     H 6012  -0.739   4.246   8.793 -0.4894  0.1865  1.3730
   46MOL0     H 6013  -0.727   4.004   8.804  3.5572  0.1933 -1.8377
   46MOL0     H 6014  -0.738   3.987   8.632  0.4122  0.8538 -0.5954
   46MOL0     H 6015  -0.957   4.100   8.800  1.9640  3.2384 -0.9166
   46MOL0     H 6016  -0.990   4.072   8.631 -1.1495 -3.8957 -0.8306
   46MOL0     H 6017  -0.959   3.840   8.835 -0.5570 -2.1800  0.0363
   46MOL0     H 6018  -0.966   3.844   8.654  1.0949  2.3520 -1.5231
   46MOL0     H 6019  -1.188   3.954   8.672 -1.6096  1.3360  1.1607
   46MOL0     H 6020  -1.160   3.996   8.831 -0.3331 -0.5340  0.5880
   46MOL0     H 6021  -1.163   3.706   8.767 -2.2786 -0.1959 -0.0081
   46MOL0     H 6022  -1.166   3.776   8.923 -0.4486 -0.2166  0.2674
   46MOL0     H 6023  -1.403   3.699   8.842  0.7894  0.0043 -0.6039
   46MOL0     H 6024  -1.383   3.830   8.721  3.5758 -0.5518 -1.0182
   46MOL0     H 6025  -1.498   4.040   8.820  1.4380  1.4527  0.3936
   46MOL0     H 6026  -1.630   4.194   8.980  2.6295 -1.3994 -1.4328
   46MOL0     H 6027  -1.584   4.195   9.147 -0.7114 -1.9423  1.4475
   46MOL0     H 6028  -1.767   4.008   9.174 -3.7371  1.2721 -0.1759
   46MOL0     H 6029  -1.781   4.000   9.001  0.9490  0.7171 -1.2526
   46MOL0     H 6030  -1.848   4.243   9.175  1.1183 -0.5283  0.4104
   46MOL0     H 6031  -1.860   4.242   9.007 -0.4650  0.4148  0.6114
   46MOL0     H 6032  -2.006   4.071   9.204  0.5044  2.3005  0.5720
   46MOL0     H 6033  -2.024   4.057   9.014  1.5910  0.7149 -1.0783
   46MOL0     H 6034  -2.274   4.332   8.961  0.6392  1.0040  1.5619
   46MOL0     H 6035  -2.523   4.249   8.949  0.1015  0.8606 -0.0670
   46MOL0     H 6036  -2.903   4.279   9.095  1.2878 -1.0119  1.3050
   46MOL0     H 6037  -3.161   4.245   9.032 -0.2164  1.9505 -5.1245
   46MOL0     H 6038  -3.352   4.126   9.068 -1.0588  0.4292 -0.6810
   46MOL0     H 6039  -3.309   3.955   9.110  0.5312 -0.7662 -1.0629
   46MOL0     H 6040  -3.491   4.011   8.878  0.4755  1.5039  0.4705
   46MOL0     H 6041  -3.572   4.026   9.024 -0.6028  1.9500 -2.0073
   46MOL0     H 6042  -3.400   3.768   8.967 -0.5373  0.4913  0.9482
   46MOL0     H 6043  -3.559   3.777   8.903 -2.6764 -1.0140  1.6543
   46MOL0     H 6044  -3.486   3.797   9.195 -0.1465 -0.8734  0.9510
   46MOL0     H 6045  -3.645   3.812   9.129 -0.0816 -0.0239 -3.8840
   46MOL0     H 6046  -3.565   3.587   9.213  2.2052  1.6995 -0.0191
   46MOL0     H 6047  -3.474   3.578   9.058  1.2635  1.7875 -0.3648
   46MOL0     H 6048  -3.703   3.591   8.927 -2.9897 -1.5381  0.2065
   46MOL0     H 6049  -3.771   3.628   9.089  0.6125  0.4581  2.0644
   46MOL0     H 6050  -3.625   3.367   9.044  0.8854  0.9063  3.1271
   46MOL0     H 6051  -3.751   3.402   9.156  3.2710 -1.0400  0.5779
   46MOL0     H 6052  -3.823   3.237   8.996 -1.3092  0.0091 -0.7442
   46MOL0     H 6053  -3.801   3.356   8.860  1.2069 -1.9641 -0.4248
   46MOL0     H 6054  -3.061   3.864   8.873  2.1347 -0.4773 -0.8302
   46MOL0     H 6055  -2.830   3.881   8.941 -0.4119  0.4220 -2.4046
   46MOL0     H 6056  -2.428   3.927   9.214 -0.7488 -0.7547 -0.7406
   46MOL0     H 6057  -2.198   4.022   9.246 -0.9071 -4.0600 -2.5024
   46MOL0     H 6058  -0.368   4.179   8.531 -0.0734  2.9004  1.1553
   46MOL0     H 6059  -0.143   4.232   8.509 -0.3489  0.5060  0.6163
   46MOL0     H 6060   0.283   4.144   8.780  2.8462  0.3645  2.5293
   46MOL0     H 6061   0.526   4.146   8.763 -0.7362 -0.5140 -1.3132
   46MOL0     H 6062   0.796   4.315   8.483  1.8995 -0.8785  0.5513
   46MOL0     H 6063   0.661   4.201   8.473 -1.7709  1.6911  1.1251
   46MOL0     H 6064   0.854   4.190   8.707 -0.1982  2.0732 -0.3587
   46MOL0     H 6065   0.759   4.064   8.657  2.6003  0.1334  2.9624
   46MOL0     H 6066   0.907   4.060   8.437  0.0538  0.7598 -0.4953
   46MOL0     H 6067   0.976   3.997   8.584 -0.2147 -0.1412 -0.9845
   46MOL0     H 6068   1.120   4.153   8.464 -0.7750 -0.8764  0.1521
   46MOL0     H 6069   0.999   4.277   8.477 -0.0885 -0.8302 -0.0320
   46MOL0     H 6070   1.153   4.292   8.880 -0.7941 -0.9116  0.1866
   46MOL0     H 6071   0.488   4.507   8.523 -0.7097 -0.4743 -2.9540
   46MOL0     H 6072   0.263   4.475   8.508  2.7482 -1.3281 -4.1017
   47MOL0     O 6073   8.224   8.957   7.132 -0.0911  0.5606  0.0144
   47MOL0     C 6074   8.296   9.033   7.081 -0.1025  0.3404 -0.4997
   47MOL0     O 6075   8.261   9.166   7.052 -0.3495 -0.5022  0.3758
   47MOL0     C 6076   8.126   9.204   7.066  0.6084 -0.5657  0.3681
   47MOL0     C 6077   8.016   9.124   7.029  0.1886 -1.1180 -0.1328
   47MOL0     C 6078   7.887   9.176   7.029  0.2980 -0.8395 -0.3453
   47MOL0     C 6079   7.866   9.302   7.092  0.2553 -0.1991 -0.2715
   47MOL0     O 6080   7.744   9.361   7.115 -0.0708 -0.6203  0.0990
   47MOL0     C 6081   7.631   9.277   7.124 -0.2258 -1.0083  0.3653
   47MOL0     C 6082   7.538   9.338   7.232 -0.8129  1.6022 -0.5147
   47MOL0     C 6083   7.478   9.474   7.195 -0.5678  0.0781 -0.1503
   47MOL0     C 6084   7.411   9.534   7.316 -0.7326  0.2470 -0.7083
   47MOL0     C 6085   7.332   9.662   7.279 -0.4014  0.3853 -0.1708
   47MOL0     C 6086   7.308   9.739   7.411 -0.2641  0.1174  0.0499
   47MOL0     C 6087   7.417   9.858   7.428 -0.5763  0.0765  1.5447
   47MOL0     C 6088   7.410   9.945   7.545  0.9594  0.2197  0.6792
   47MOL0     N 6089   7.296  10.036   7.525 -0.1840 -0.1949 -0.3655
   47MOL0     C 6090   7.179  10.015   7.598  0.4023 -0.5281  0.4740
   47MOL0     C 6091   7.104  10.123   7.557 -1.1855  0.2402 -0.4065
   47MOL0     C 6092   6.961  10.151   7.605 -0.0996 -0.6853 -0.7884
   47MOL0     C 6093   6.944  10.298   7.647 -0.4466 -0.1032  0.3317
   47MOL0     C 6094   6.897  10.386   7.530 -0.4411  0.1524 -0.1625
   47MOL0     C 6095   6.896  10.535   7.572 -0.0715  0.2625 -0.7743
   47MOL0     O 6096   6.805  10.551   7.688  0.3713 -0.5374  0.3415
   47MOL0     C 6097   6.681  10.597   7.661 -0.4070 -0.0903  0.1848
   47MOL0     C 6098   6.642  10.699   7.580 -0.6503 -0.4837 -0.4621
   47MOL0     C 6099   6.512  10.741   7.574  0.3170  0.2699  0.2129
   47MOL0     C 6100   6.413  10.670   7.638  0.0254  0.3703  0.0849
   47MOL0     C 6101   6.272  10.717   7.624  0.5146 -0.4066 -0.6891
   47MOL0     O 6102   6.243  10.845   7.581 -0.2371  0.2093 -0.7123
   47MOL0     C 6103   6.119  10.901   7.611  0.8003  0.2268  0.5556
   47MOL0     C 6104   6.021  10.933   7.514  0.3995  0.5434  0.1608
   47MOL0     C 6105   5.890  10.970   7.552  0.6713  0.1506 -0.3130
   47MOL0     C 6106   5.852  10.992   7.690  0.2284  0.3468  0.5344
   47MOL0     O 6107   5.721  11.033   7.694 -0.0190  0.3144 -0.0527
   47MOL0     C 6108   5.672  11.050   7.832 -0.0033  0.4333  1.4422
   47MOL0     C 6109   5.520  10.998   7.826 -0.0261 -0.1409 -0.5991
   47MOL0     C 6110   5.425  11.097   7.754 -0.1284  0.3478 -0.1571
   47MOL0     C 6111   5.272  11.047   7.765 -0.6802 -0.4855 -0.4392
   47MOL0     C 6112   5.245  10.912   7.685  0.0686  0.2195 -0.0078
   47MOL0     C 6113   5.099  10.879   7.699 -1.1633 -0.6272 -0.2459
   47MOL0     C 6114   5.064  10.749   7.610  0.6792 -0.7578 -1.5195
   47MOL0     C 6115   4.965  10.663   7.689  0.9148 -0.4342  0.2329
   47MOL0    Cl 6116   4.814  10.753   7.736  0.0777  0.2399  0.0874
   47MOL0     C 6117   5.954  10.976   7.789 -0.2143  0.1571  0.3315
   47MOL0     C 6118   6.083  10.925   7.743  0.0780 -0.8398 -0.6400
   47MOL0     O 6119   6.188  10.635   7.664  0.3521 -0.5319  1.1202
   47MOL0     C 6120   6.450  10.552   7.714 -0.5482 -0.5907 -0.4972
   47MOL0     C 6121   6.583  10.514   7.725  0.2519 -0.0869  0.0918
   47MOL0     N 6122   7.176  10.197   7.469 -0.1099 -0.0378 -0.2063
   47MOL0     N 6123   7.294  10.147   7.453 -0.3423  0.2325  0.1457
   47MOL0     C 6124   7.976   9.380   7.124  1.0343 -1.0112 -0.3507
   47MOL0     C 6125   8.098   9.337   7.109 -0.0877 -0.1370 -0.2251
   47MOL0     C 6126   8.430   8.994   7.038  0.3629  0.0616  0.1476
   47MOL0     C 6127   8.518   9.084   6.968 -0.1978  0.6451  0.0008
   47MOL0     C 6128   8.634   9.040   6.902 -0.2577  0.2054  0.4775
   47MOL0     C 6129   8.668   8.908   6.918 -0.7087 -0.7909  0.2113
   47MOL0     O 6130   8.783   8.857   6.854 -0.3722 -0.0653  0.8047
   47MOL0     C 6131   8.907   8.922   6.879  0.1879  0.2562  0.0725
   47MOL0     C 6132   8.992   8.935   6.750  0.3510 -0.6426  1.6482
   47MOL0     C 6133   8.910   9.022   6.652 -0.6299  0.6823  0.0609
   47MOL0     C 6134   8.996   9.041   6.525 -0.3942  0.3442  0.2456
   47MOL0     C 6135   8.920   9.106   6.419  0.2072 -0.1284 -0.1464
   47MOL0     C 6136   8.860   9.154   6.329 -0.3006  0.2991 -0.4710
   47MOL0     C 6137   8.601   8.827   7.002 -0.5377  0.9329  0.1355
   47MOL0     C 6138   8.483   8.866   7.060  0.4255 -0.7850 -0.3630
   47MOL0     H 6139   8.033   9.032   6.974 -0.8486 -2.2364  1.3402
   47MOL0     H 6140   7.796   9.136   6.984  0.2056  0.5077 -1.4355
   47MOL0     H 6141   7.654   9.173   7.148  0.6897 -0.5411  1.5902
   47MOL0     H 6142   7.580   9.280   7.027 -1.6514  0.7838  1.1393
   47MOL0     H 6143   7.594   9.348   7.326 -1.9275 -0.0054  0.3677
   47MOL0     H 6144   7.469   9.256   7.254  0.0488  0.4178 -2.0284
   47MOL0     H 6145   7.407   9.457   7.113 -1.3404 -0.1010  0.5323
   47MOL0     H 6146   7.542   9.552   7.152 -2.8583  2.7687  0.9490
   47MOL0     H 6147   7.344   9.458   7.359 -0.4817  1.6415  2.4292
   47MOL0     H 6148   7.491   9.566   7.383 -2.2357  3.5591 -0.3113
   47MOL0     H 6149   7.230   9.630   7.254 -0.1739 -0.6216  0.1360
   47MOL0     H 6150   7.370   9.729   7.202  2.5507 -0.0844  0.7761
   47MOL0     H 6151   7.311   9.682   7.504  1.3659 -1.0084 -0.6483
   47MOL0     H 6152   7.210   9.787   7.416 -0.4933 -0.3087 -0.3144
   47MOL0     H 6153   7.512   9.805   7.435  0.5135  1.5493 -0.7447
   47MOL0     H 6154   7.418   9.914   7.334  1.5787 -1.5209  0.5455
   47MOL0     H 6155   7.489  10.020   7.557 -0.6268  2.0064  0.4304
   47MOL0     H 6156   7.396   9.883   7.634 -0.1696 -1.3966 -0.5748
   47MOL0     H 6157   7.170   9.932   7.668  0.0699  1.5961  3.1371
   47MOL0     H 6158   6.948  10.083   7.689  1.2569 -0.3773 -0.3053
   47MOL0     H 6159   6.887  10.129   7.527 -1.1203 -0.8470  0.1966
   47MOL0     H 6160   7.036  10.331   7.697  0.7188 -2.4223 -0.1452
   47MOL0     H 6161   6.863  10.293   7.720  3.0236 -0.2966  4.6055
   47MOL0     H 6162   6.973  10.376   7.452  0.4071 -2.0193  0.8408
   47MOL0     H 6163   6.798  10.350   7.501 -0.0970 -0.6642 -0.3483
   47MOL0     H 6164   6.862  10.592   7.486 -0.8977 -0.7955 -1.1722
   47MOL0     H 6165   6.996  10.576   7.588  0.6570 -1.2758 -1.2060
   47MOL0     H 6166   6.718  10.759   7.531 -0.3696 -2.0182 -2.0013
   47MOL0     H 6167   6.483  10.831   7.521 -0.6555  0.4253  0.9697
   47MOL0     H 6168   6.028  10.914   7.408  2.3006 -0.1546  0.3574
   47MOL0     H 6169   5.811  10.981   7.478  0.0591  1.8189  0.5310
   47MOL0     H 6170   5.682  11.154   7.864 -1.3373  0.7190  0.9782
   47MOL0     H 6171   5.722  10.985   7.904  1.2673 -1.7717 -1.2397
   47MOL0     H 6172   5.486  10.986   7.929 -0.9897 -1.1682 -1.0139
   47MOL0     H 6173   5.501  10.901   7.778 -3.8750 -1.1189  2.4006
   47MOL0     H 6174   5.449  11.107   7.648 -0.6290  0.2223 -0.2843
   47MOL0     H 6175   5.437  11.199   7.792 -1.0598 -0.0211  1.2150
   47MOL0     H 6176   5.259  11.021   7.871 -0.2843 -2.7928 -0.8846
   47MOL0     H 6177   5.210  11.133   7.741 -0.9950  0.2212  2.4830
   47MOL0     H 6178   5.313  10.833   7.717  2.1154  2.3270  1.1061
   47MOL0     H 6179   5.261  10.936   7.579 -1.5516  1.1601 -0.0754
   47MOL0     H 6180   5.038  10.965   7.669 -0.6354 -0.7109 -1.6512
   47MOL0     H 6181   5.068  10.864   7.802 -2.1527 -1.8715 -0.6972
   47MOL0     H 6182   5.015  10.794   7.524  1.2356  2.8768 -0.1231
   47MOL0     H 6183   5.154  10.697   7.574 -0.4921 -2.6028 -1.8884
   47MOL0     H 6184   5.018  10.622   7.776 -1.0127 -1.5891  0.9374
   47MOL0     H 6185   4.934  10.579   7.626  0.2014 -0.6930  0.9205
   47MOL0     H 6186   5.941  10.990   7.896  0.1983 -1.7842  0.6673
   47MOL0     H 6187   6.156  10.908   7.821  0.1065  0.1699 -0.4377
   47MOL0     H 6188   6.375  10.510   7.780  0.1965  0.6573  1.2129
   47MOL0     H 6189   6.609  10.417   7.768 -0.0692 -0.7250 -1.1155
   47MOL0     H 6190   7.952   9.480   7.157  1.3232 -1.3359  0.8640
   47MOL0     H 6191   8.187   9.390   7.143 -0.7607 -0.0213  1.4417
   47MOL0     H 6192   8.484   9.186   6.958 -0.2708  0.4550 -2.2384
   47MOL0     H 6193   8.708   9.094   6.845  1.4724 -1.5786  0.9078
   47MOL0     H 6194   8.964   8.878   6.961  1.7606 -0.1810 -1.2033
   47MOL0     H 6195   8.897   9.025   6.914  0.9796  0.4185 -0.1716
   47MOL0     H 6196   9.086   8.989   6.762  2.0529 -2.4181 -2.0362
   47MOL0     H 6197   9.018   8.837   6.708 -2.1354 -0.9980  0.7511
   47MOL0     H 6198   8.894   9.119   6.699 -1.7237 -0.0979  1.3809
   47MOL0     H 6199   8.820   8.982   6.606 -0.2300  1.3887 -1.3955
   47MOL0     H 6200   9.077   9.110   6.552 -1.7028  2.1732 -0.3193
   47MOL0     H 6201   9.048   8.948   6.498 -2.5994 -1.4301  1.7665
   47MOL0     H 6202   8.814   9.189   6.239  2.3528 -1.8799 -2.8438
   47MOL0     H 6203   8.630   8.724   7.022 -3.9371 -0.4166 -0.9870
   47MOL0     H 6204   8.419   8.805   7.123 -2.4875 -0.3507 -2.6501
   48MOL0     O 6205   7.082   7.040   3.967 -0.0348 -0.0795 -0.0740
   48MOL0     C 6206   7.092   6.964   3.877 -0.5963 -0.0917  0.0043
   48MOL0     O 6207   6.993   6.886   3.824 -0.9723  0.1127 -0.4422
   48MOL0     C 6208   6.882   6.883   3.903 -0.3758  1.2056  0.7010
   48MOL0     C 6209   6.869   6.796   4.010 -0.2360 -0.3906 -0.0419
   48MOL0     C 6210   6.746   6.784   4.067  0.4616 -0.2261 -0.7162
   48MOL0     C 6211   6.638   6.865   4.037 -0.6627  0.2368 -0.0033
   48MOL0     O 6212   6.509   6.837   4.088 -0.4042 -0.8213 -0.0510
   48MOL0     C 6213   6.478   6.733   4.176 -0.6058  0.0900 -0.0837
   48MOL0     C 6214   6.329   6.720   4.206 -0.1985 -0.4159 -0.2457
   48MOL0     C 6215   6.279   6.857   4.243 -0.0813 -0.5123 -0.4890
   48MOL0     C 6216   6.130   6.844   4.295 -0.1229  0.1803  0.2986
   48MOL0     C 6217   6.067   6.976   4.322 -0.1442 -0.0646 -0.1517
   48MOL0     C 6218   5.912   6.961   4.324  0.3145  0.2366  0.4502
   48MOL0     C 6219   5.855   7.094   4.358  1.1279 -0.3767 -0.0898
   48MOL0     C 6220   5.704   7.089   4.354 -1.1791  0.5971 -0.1827
   48MOL0     N 6221   5.660   7.155   4.476 -0.1749  0.4700  0.3949
   48MOL0     C 6222   5.702   7.124   4.606  0.0374  0.0683 -0.6820
   48MOL0     C 6223   5.640   7.205   4.686 -0.2164  0.0473 -0.6726
   48MOL0     C 6224   5.644   7.192   4.840  0.0638  0.0688 -0.0325
   48MOL0     C 6225   5.544   7.093   4.899 -0.5047  0.0912 -0.5178
   48MOL0     C 6226   5.405   7.155   4.871  0.3484 -0.3093  0.0515
   48MOL0     C 6227   5.291   7.075   4.940 -0.3971  0.7292 -0.4905
   48MOL0     O 6228   5.163   7.131   4.913  1.0242 -0.2614 -0.0751
   48MOL0     C 6229   5.058   7.075   4.987  0.1935  0.0046  0.1794
   48MOL0     C 6230   4.931   7.094   4.944  0.1917  0.4102  0.3930
   48MOL0     C 6231   4.813   7.040   5.006 -0.6924  0.5501 -0.1169
   48MOL0     C 6232   4.837   6.946   5.106 -0.2768 -0.6519 -0.8100
   48MOL0     C 6233   4.723   6.874   5.168  0.2945  0.4020  0.1715
   48MOL0     O 6234   4.733   6.849   5.307 -0.2597  0.0725 -0.0144
   48MOL0     C 6235   4.641   6.775   5.371  0.3300 -0.2033  0.3229
   48MOL0     C 6236   4.677   6.697   5.480  0.4722 -0.2648 -0.4035
   48MOL0     C 6237   4.585   6.628   5.564  0.0851 -0.4402 -0.3235
   48MOL0     C 6238   4.452   6.634   5.540 -0.1019  0.1330  0.0572
   48MOL0     O 6239   4.363   6.574   5.626  0.5994  0.2178 -0.7468
   48MOL0     C 6240   4.385   6.447   5.694  0.2681  0.2834  0.6070
   48MOL0     C 6241   4.379   6.332   5.589  0.6416  0.1113  0.2610
   48MOL0     C 6242   4.504   6.239   5.605 -0.2332 -0.6520  0.1062
   48MOL0     C 6243   4.491   6.116   5.516 -0.0636 -0.2700  0.8328
   48MOL0     C 6244   4.612   6.037   5.542 -0.4039  0.9748 -0.4464
   48MOL0     C 6245   4.611   5.917   5.450  0.7116  0.2817 -0.0182
   48MOL0     C 6246   4.518   5.805   5.489  0.2227 -0.1186 -0.2626
   48MOL0     C 6247   4.571   5.681   5.419  0.9454  0.2559  0.4587
   48MOL0    Cl 6248   4.713   5.619   5.509 -0.2806 -0.1922 -0.2784
   48MOL0     C 6249   4.412   6.719   5.438  1.1253 -0.1582 -0.4600
   48MOL0     C 6250   4.496   6.792   5.358 -0.7240 -0.0734  0.4140
   48MOL0     O 6251   4.634   6.836   5.093 -0.5310  0.4263  0.1641
   48MOL0     C 6252   4.971   6.925   5.158 -0.4452  0.0361 -0.2620
   48MOL0     C 6253   5.077   6.995   5.096  0.1091  0.8976  0.2337
   48MOL0     N 6254   5.568   7.305   4.616 -0.6267  0.8678 -0.2537
   48MOL0     N 6255   5.590   7.279   4.491 -0.5230  0.2260 -0.6028
   48MOL0     C 6256   6.658   6.951   3.933  0.0661  0.2883 -0.2535
   48MOL0     C 6257   6.778   6.961   3.862  0.0705  0.0732 -0.2288
   48MOL0     C 6258   7.227   6.956   3.812  0.6413  0.3998  0.9762
   48MOL0     C 6259   7.239   6.922   3.675  0.2352  0.1574  0.5841
   48MOL0     C 6260   7.360   6.930   3.614  0.6134  0.5126 -0.4555
   48MOL0     C 6261   7.466   6.976   3.688  0.0581 -0.1486  0.3232
   48MOL0     O 6262   7.587   7.014   3.624 -0.1590  0.1242 -0.6189
   48MOL0     C 6263   7.629   6.972   3.504 -0.0333  0.2590  0.4741
   48MOL0     C 6264   7.685   6.833   3.508 -1.1764  0.1023  0.3394
   48MOL0     C 6265   7.828   6.838   3.556 -1.0579  0.4255 -0.0287
   48MOL0     C 6266   7.898   6.696   3.567 -0.6006  0.0755  0.0854
   48MOL0     C 6267   7.835   6.607   3.660 -0.0673  0.0128 -0.0928
   48MOL0     C 6268   7.808   6.511   3.732 -0.3899 -0.8070 -0.2021
   48MOL0     C 6269   7.457   7.005   3.824  0.2226 -0.1664  0.2817
   48MOL0     C 6270   7.337   6.995   3.883  0.6865 -0.6314  0.7529
   48MOL0     H 6271   6.949   6.728   4.038 -0.2671  0.2606  1.7536
   48MOL0     H 6272   6.731   6.709   4.144 -1.1195  0.4232 -0.3565
   48MOL0     H 6273   6.540   6.758   4.262 -0.3848  1.1861 -0.5522
   48MOL0     H 6274   6.512   6.639   4.132 -0.0894  1.2519 -2.2821
   48MOL0     H 6275   6.317   6.654   4.293  0.9515  0.4240  0.5870
   48MOL0     H 6276   6.276   6.680   4.119  0.3688  0.4570 -1.0098
   48MOL0     H 6277   6.284   6.924   4.158 -0.6136  0.8634  0.5220
   48MOL0     H 6278   6.341   6.901   4.322 -2.2103 -2.4911  2.5273
   48MOL0     H 6279   6.072   6.797   4.215 -2.2967  1.3153  1.1067
   48MOL0     H 6280   6.115   6.777   4.380 -0.0260 -1.6523 -1.0626
   48MOL0     H 6281   6.100   7.043   4.242 -0.4771 -0.9518 -1.0511
   48MOL0     H 6282   6.109   7.007   4.418 -2.5859 -0.6038  1.1711
   48MOL0     H 6283   5.878   6.895   4.404 -1.3349  0.2981 -0.1686
   48MOL0     H 6284   5.864   6.923   4.233  0.5142 -0.0231  0.4530
   48MOL0     H 6285   5.887   7.140   4.452 -0.7144  0.9867 -0.0835
   48MOL0     H 6286   5.881   7.160   4.274 -0.0373 -0.3207 -0.4243
   48MOL0     H 6287   5.663   6.987   4.353  3.2218 -1.4226  0.3771
   48MOL0     H 6288   5.669   7.151   4.272  0.8095  1.8875 -0.1427
   48MOL0     H 6289   5.761   7.042   4.645  0.7000  0.3800 -1.0160
   48MOL0     H 6290   5.620   7.294   4.873 -1.9622 -0.0965 -0.8918
   48MOL0     H 6291   5.743   7.163   4.877 -1.9565 -1.6351  4.9718
   48MOL0     H 6292   5.577   7.080   5.003 -1.7827 -1.7182 -0.2935
   48MOL0     H 6293   5.555   6.993   4.858  3.2324 -1.1032  2.8024
   48MOL0     H 6294   5.410   7.250   4.924  2.4204  0.1938 -0.9434
   48MOL0     H 6295   5.380   7.171   4.766  1.6049  0.2314 -0.1785
   48MOL0     H 6296   5.307   7.075   5.048 -3.1133 -0.1443  0.0036
   48MOL0     H 6297   5.303   6.971   4.908  1.1294  0.3994  1.0203
   48MOL0     H 6298   4.914   7.167   4.865 -1.3368 -2.3305 -2.0243
   48MOL0     H 6299   4.712   7.066   4.978 -0.3870  0.7132 -1.1419
   48MOL0     H 6300   4.781   6.680   5.503  0.6528  1.7744  0.5475
   48MOL0     H 6301   4.623   6.559   5.638 -0.0686 -0.4426 -0.2449
   48MOL0     H 6302   4.301   6.426   5.760  0.0967 -1.3972 -0.0863
   48MOL0     H 6303   4.475   6.448   5.757 -1.0916 -1.4565  2.7248
   48MOL0     H 6304   4.388   6.371   5.487  0.5641 -0.5404  0.0042
   48MOL0     H 6305   4.287   6.274   5.599  0.7015  0.1256  0.9475
   48MOL0     H 6306   4.513   6.197   5.705 -0.0485 -2.4842 -0.6452
   48MOL0     H 6307   4.597   6.292   5.584 -0.2982 -0.5681  0.0310
   48MOL0     H 6308   4.401   6.056   5.531  0.9309 -3.6760 -4.2936
   48MOL0     H 6309   4.498   6.156   5.414 -0.1028 -0.8421  0.6023
   48MOL0     H 6310   4.619   6.012   5.648  1.0240  2.4923 -0.1411
   48MOL0     H 6311   4.702   6.093   5.516 -0.3455  0.5704 -1.1646
   48MOL0     H 6312   4.711   5.873   5.453  0.1918 -1.1012 -1.4042
   48MOL0     H 6313   4.593   5.941   5.345 -3.1824  0.7495  0.5906
   48MOL0     H 6314   4.514   5.776   5.595 -2.9898  1.9912  0.3389
   48MOL0     H 6315   4.416   5.825   5.454 -0.2037  0.0919  1.0429
   48MOL0     H 6316   4.591   5.693   5.312 -0.5695 -2.1188 -0.1670
   48MOL0     H 6317   4.488   5.610   5.422 -0.9927  2.3617  0.0879
   48MOL0     H 6318   4.304   6.725   5.430  0.7439 -4.7247 -0.9764
   48MOL0     H 6319   4.458   6.856   5.279  1.7338 -0.2974 -1.0613
   48MOL0     H 6320   4.992   6.861   5.243 -1.3945  1.4501  1.0909
   48MOL0     H 6321   5.178   6.974   5.131  0.7002  3.8239  0.5654
   48MOL0     H 6322   6.577   7.014   3.899 -0.6119 -1.2334 -1.6523
   48MOL0     H 6323   6.794   7.028   3.778  3.1824 -0.7079 -0.3518
   48MOL0     H 6324   7.145   6.895   3.628  0.5600 -0.7990  0.4469
   48MOL0     H 6325   7.364   6.917   3.507  0.7087  3.5722 -0.9080
   48MOL0     H 6326   7.686   7.046   3.447  0.2516  0.8861  1.5503
   48MOL0     H 6327   7.544   6.969   3.435  0.1099  0.2456  0.2951
   48MOL0     H 6328   7.618   6.771   3.568 -1.8397  0.9725  0.5189
   48MOL0     H 6329   7.691   6.791   3.407  3.6040 -1.9020  1.1864
   48MOL0     H 6330   7.834   6.890   3.653  1.7092 -1.7006  1.0728
   48MOL0     H 6331   7.897   6.895   3.493 -1.1399 -0.2738 -0.7612
   48MOL0     H 6332   7.891   6.652   3.467 -1.9619 -3.2388  1.4966
   48MOL0     H 6333   8.003   6.718   3.590 -0.0451 -2.2137  0.0090
   48MOL0     H 6334   7.762   6.432   3.788 -0.8516  1.2297  2.4739
   48MOL0     H 6335   7.545   7.047   3.872  0.7378  2.5642 -2.6888
   48MOL0     H 6336   7.339   7.009   3.991 -2.1933 -0.9637  0.9232
   49MOL0     O 6337   9.522   8.738   3.518 -0.0502  0.0169 -0.0719
   49MOL0     C 6338   9.515   8.760   3.399 -0.5512 -0.6804  0.0946
   49MOL0     O 6339   9.396   8.748   3.325  0.6094  0.4651 -0.0111
   49MOL0     C 6340   9.278   8.741   3.397  0.6590  0.5851  0.5034
   49MOL0     C 6341   9.245   8.640   3.497 -0.2873  0.0390  0.0448
   49MOL0     C 6342   9.106   8.616   3.533 -0.5763 -0.9015  0.5280
   49MOL0     C 6343   9.004   8.691   3.474  0.2255 -0.4576  0.4191
   49MOL0     O 6344   8.880   8.645   3.502  0.2445 -0.3037 -0.5530
   49MOL0     C 6345   8.763   8.710   3.475 -0.3227 -0.7449 -0.1390
   49MOL0     C 6346   8.646   8.623   3.529  0.0426  0.0807  0.1071
   49MOL0     C 6347   8.669   8.590   3.678  0.7250  0.9346 -0.7940
   49MOL0     C 6348   8.526   8.540   3.731 -0.0639 -0.3550  0.5195
   49MOL0     C 6349   8.515   8.517   3.887  0.1889 -0.1510  0.5896
   49MOL0     C 6350   8.379   8.452   3.932  0.0463  0.5819  0.4654
   49MOL0     C 6351   8.371   8.302   3.884 -0.0510 -0.7574  0.1754
   49MOL0     C 6352   8.222   8.267   3.858 -0.3460  0.8014  0.0239
   49MOL0     N 6353   8.129   8.310   3.969 -0.0170 -0.5503  0.4166
   49MOL0     C 6354   8.085   8.233   4.069 -0.3170 -0.5422 -0.1170
   49MOL0     C 6355   7.992   8.309   4.133 -0.3860 -0.4136 -0.3811
   49MOL0     C 6356   7.898   8.275   4.251  0.3137  0.1340  0.2948
   49MOL0     C 6357   7.777   8.192   4.195 -0.7028  0.2213 -0.4665
   49MOL0     C 6358   7.688   8.128   4.308  0.3414 -0.8390  0.1957
   49MOL0     C 6359   7.585   8.037   4.244 -0.7907  0.2160 -0.1194
   49MOL0     O 6360   7.474   8.112   4.196  0.0853 -0.6828 -0.2953
   49MOL0     C 6361   7.341   8.068   4.198 -0.4921  0.0082  0.2782
   49MOL0     C 6362   7.302   7.935   4.212  0.1967 -0.0795  1.0936
   49MOL0     C 6363   7.173   7.889   4.212  0.3864  0.8309 -0.1322
   49MOL0     C 6364   7.069   7.979   4.182  0.4343  0.2677 -0.1949
   49MOL0     C 6365   6.926   7.940   4.170 -0.2188 -0.1583  0.3955
   49MOL0     O 6366   6.887   7.832   4.244  0.2464 -0.1007 -0.1309
   49MOL0     C 6367   6.759   7.771   4.230  0.3746  0.2904  0.1945
   49MOL0     C 6368   6.695   7.720   4.341 -0.3927 -0.3311 -0.2255
   49MOL0     C 6369   6.578   7.657   4.337 -0.1532  0.2620  0.0002
   49MOL0     C 6370   6.517   7.626   4.211 -0.5111 -0.2701  0.2314
   49MOL0     O 6371   6.399   7.548   4.201  0.3763  1.6536 -0.4514
   49MOL0     C 6372   6.323   7.514   4.326 -0.3266 -0.5963  0.1244
   49MOL0     C 6373   6.221   7.404   4.283 -0.8308  0.3390 -0.0274
   49MOL0     C 6374   6.097   7.410   4.368  0.2738  0.3401  0.0516
   49MOL0     C 6375   6.010   7.536   4.355  0.7872 -0.5749  0.5592
   49MOL0     C 6376   5.862   7.518   4.413  0.2228  0.6275  0.0487
   49MOL0     C 6377   5.781   7.637   4.382 -0.7002 -0.4753  0.0784
   49MOL0     C 6378   5.639   7.628   4.437 -0.6570  0.1949  0.3324
   49MOL0     C 6379   5.532   7.685   4.347  0.4486 -0.1939  0.0098
   49MOL0    Cl 6380   5.527   7.860   4.344  0.4360 -0.1241  0.3100
   49MOL0     C 6381   6.574   7.676   4.091 -0.3012  0.5611  0.1030
   49MOL0     C 6382   6.698   7.745   4.106  0.6472 -0.4483  0.2637
   49MOL0     O 6383   6.855   8.001   4.086 -0.7203 -0.4674  0.1394
   49MOL0     C 6384   7.099   8.107   4.147  1.0857  0.1437 -0.5017
   49MOL0     C 6385   7.233   8.150   4.162 -0.4183  0.3843 -0.8440
   49MOL0     N 6386   7.984   8.434   4.071 -0.2142  0.8099  0.1157
   49MOL0     N 6387   8.064   8.433   3.978 -0.2492  0.4414  0.4741
   49MOL0     C 6388   9.036   8.793   3.386 -0.3767 -0.3366 -0.1229
   49MOL0     C 6389   9.171   8.818   3.344  0.1790 -0.4588 -0.1041
   49MOL0     C 6390   9.645   8.782   3.324  1.3073  0.2452 -0.2808
   49MOL0     C 6391   9.766   8.794   3.387 -1.3976  0.7842  0.0887
   49MOL0     C 6392   9.889   8.806   3.306 -0.0111  0.7810 -0.6324
   49MOL0     C 6393   9.880   8.824   3.164 -0.4064  0.2942  0.2761
   49MOL0     O 6394   9.983   8.840   3.082  0.2958 -0.3547  0.0742
   49MOL0     C 6395  10.119   8.830   3.122 -0.2833  0.9687  1.6725
   49MOL0     C 6396  10.162   8.961   3.178  0.0704  0.3823  0.8041
   49MOL0     C 6397  10.311   8.947   3.216 -0.2705  0.3065 -0.4170
   49MOL0     C 6398  10.378   9.073   3.280  0.2050 -0.0794  0.0584
   49MOL0     C 6399  10.515   9.056   3.318  0.0662 -0.2189 -0.1792
   49MOL0     C 6400  10.627   9.030   3.366  1.4791  0.0718  0.0695
   49MOL0     C 6401   9.753   8.816   3.108  0.2460  0.2410  0.7600
   49MOL0     C 6402   9.638   8.796   3.182  0.1467  0.6297 -0.0810
   49MOL0     H 6403   9.326   8.572   3.519 -0.2243 -0.0536 -0.4588
   49MOL0     H 6404   9.082   8.531   3.596  1.0536 -0.9955  1.0905
   49MOL0     H 6405   8.761   8.707   3.366  1.5505  2.0201 -0.3560
   49MOL0     H 6406   8.761   8.810   3.520  1.1708 -1.5389  1.8238
   49MOL0     H 6407   8.637   8.532   3.469  0.1149 -0.7272  1.2786
   49MOL0     H 6408   8.558   8.688   3.522 -0.6606 -0.9759 -1.2788
   49MOL0     H 6409   8.701   8.677   3.737  1.8555  0.1709 -0.2403
   49MOL0     H 6410   8.746   8.516   3.702 -0.3569 -0.4828 -1.5831
   49MOL0     H 6411   8.458   8.620   3.700  2.3669  1.6523  0.0313
   49MOL0     H 6412   8.498   8.445   3.684  1.3620 -1.3406  1.5459
   49MOL0     H 6413   8.543   8.606   3.944  1.2827  1.3208 -2.0862
   49MOL0     H 6414   8.590   8.444   3.915 -2.6024 -3.3854  0.2741
   49MOL0     H 6415   8.294   8.510   3.894 -0.4240  1.1201  2.2863
   49MOL0     H 6416   8.363   8.447   4.040 -1.8845  1.1064  0.2452
   49MOL0     H 6417   8.425   8.274   3.793 -0.6788 -0.8911 -0.1630
   49MOL0     H 6418   8.419   8.251   3.968  0.6626  0.1290  0.3196
   49MOL0     H 6419   8.214   8.160   3.840  1.0569 -0.0098  3.4421
   49MOL0     H 6420   8.174   8.329   3.781  0.2892  1.0977 -0.1390
   49MOL0     H 6421   8.114   8.129   4.082 -2.7938 -1.4336 -1.1416
   49MOL0     H 6422   7.873   8.370   4.299 -2.9210  0.9824 -2.6769
   49MOL0     H 6423   7.961   8.218   4.320 -0.0277  0.7811  1.1540
   49MOL0     H 6424   7.801   8.106   4.132  0.4332 -1.4188  2.0044
   49MOL0     H 6425   7.712   8.255   4.134  0.6248  3.4059  1.1641
   49MOL0     H 6426   7.745   8.074   4.384  0.9319 -0.9410 -0.3133
   49MOL0     H 6427   7.634   8.210   4.356 -0.0876 -0.0383 -1.5854
   49MOL0     H 6428   7.561   7.960   4.319  0.1233  0.8030  0.7920
   49MOL0     H 6429   7.626   7.985   4.157  0.3575 -0.8982  1.0470
   49MOL0     H 6430   7.380   7.859   4.209  0.1951 -0.1416 -2.8528
   49MOL0     H 6431   7.154   7.782   4.220  1.8227  0.4343 -1.4142
   49MOL0     H 6432   6.729   7.744   4.441 -0.3604 -1.7360  0.1216
   49MOL0     H 6433   6.538   7.636   4.435  1.4974 -1.8328  0.2767
   49MOL0     H 6434   6.275   7.604   4.363 -1.4183 -0.2804 -1.8948
   49MOL0     H 6435   6.394   7.476   4.400  1.1956  0.2343 -0.8608
   49MOL0     H 6436   6.260   7.302   4.291  0.2047  0.6969 -0.3294
   49MOL0     H 6437   6.198   7.409   4.176  1.5046 -1.0330 -0.6732
   49MOL0     H 6438   6.120   7.411   4.476  2.4157  0.6698 -0.3558
   49MOL0     H 6439   6.030   7.325   4.353 -2.0657  2.3064 -1.2838
   49MOL0     H 6440   6.061   7.620   4.403  1.1063 -0.6223  0.3045
   49MOL0     H 6441   5.990   7.572   4.253 -0.8755  1.6783  1.5753
   49MOL0     H 6442   5.863   7.506   4.522  4.3344  1.9041  0.3326
   49MOL0     H 6443   5.821   7.429   4.365  1.9228 -0.0452 -0.2455
   49MOL0     H 6444   5.786   7.659   4.275 -0.2354 -1.2798 -0.0697
   49MOL0     H 6445   5.830   7.729   4.416 -0.9823 -0.4089  0.3107
   49MOL0     H 6446   5.617   7.521   4.434  3.0730 -0.6901 -1.0023
   49MOL0     H 6447   5.635   7.668   4.539 -1.1026 -1.3588  0.9446
   49MOL0     H 6448   5.433   7.645   4.370  0.4140  0.2224  0.5990
   49MOL0     H 6449   5.552   7.654   4.244 -0.3435  0.7753 -0.4514
   49MOL0     H 6450   6.546   7.654   3.988  1.0837 -4.8092  0.5849
   49MOL0     H 6451   6.746   7.791   4.019 -1.7007  0.3601 -0.6669
   49MOL0     H 6452   7.035   8.190   4.120  2.3497  1.2146 -0.3299
   49MOL0     H 6453   7.259   8.255   4.152 -1.2725  0.9831  2.1607
   49MOL0     H 6454   8.962   8.850   3.330 -1.8003 -1.6571  0.3518
   49MOL0     H 6455   9.195   8.883   3.261 -2.7457  0.5454 -0.2824
   49MOL0     H 6456   9.763   8.796   3.495 -0.6690  3.8209  0.1306
   49MOL0     H 6457   9.983   8.813   3.359 -1.1543  0.1855  1.6341
   49MOL0     H 6458  10.169   8.804   3.028 -0.5698  3.6154  0.7166
   49MOL0     H 6459  10.137   8.745   3.189  0.7298 -0.6750 -0.5368
   49MOL0     H 6460  10.158   9.033   3.096 -0.6459 -0.1078  0.3934
   49MOL0     H 6461  10.109   8.990   3.269 -0.4983  0.3256  0.4955
   49MOL0     H 6462  10.366   8.912   3.128  0.2783 -2.0530  0.7878
   49MOL0     H 6463  10.326   8.860   3.281  2.2894  1.4758  0.7095
   49MOL0     H 6464  10.360   9.154   3.210 -1.7590 -0.6551 -0.1615
   49MOL0     H 6465  10.325   9.088   3.375 -1.1206 -0.7930 -0.5349
   49MOL0     H 6466  10.725   8.995   3.394  2.3134  0.0339 -2.6131
   49MOL0     H 6467   9.745   8.825   3.000  2.1804  1.3830  0.6577
   49MOL0     H 6468   9.539   8.789   3.137  0.5931  2.6740 -1.5047
   50MOL0     O 6469   2.160   7.836   2.818  0.1613 -0.2252  0.4100
   50MOL0     C 6470   2.264   7.885   2.862 -0.4895  1.1324  0.3197
   50MOL0     O 6471   2.281   7.927   2.993  0.1313  0.0301  0.2889
   50MOL0     C 6472   2.184   7.906   3.088 -0.6051 -0.8554 -0.0447
   50MOL0     C 6473   2.116   8.017   3.125  0.2366 -0.7634  0.5490
   50MOL0     C 6474   2.024   8.015   3.229 -0.2388  0.8041  0.1002
   50MOL0     C 6475   1.994   7.891   3.289 -0.6081  1.2569 -0.2467
   50MOL0     O 6476   1.902   7.875   3.388 -0.1014 -0.1295  0.6216
   50MOL0     C 6477   1.763   7.900   3.359 -0.1303 -0.0308 -0.3448
   50MOL0     C 6478   1.692   7.872   3.485  1.2759  0.0490  0.3290
   50MOL0     C 6479   1.721   7.982   3.599  1.3854  0.8211  0.0972
   50MOL0     C 6480   1.615   7.961   3.714  0.0812  0.8351  0.7989
   50MOL0     C 6481   1.617   8.081   3.807  0.1049 -0.0722  0.1947
   50MOL0     C 6482   1.537   8.068   3.942 -0.7217  0.0038 -0.2155
   50MOL0     C 6483   1.608   8.152   4.051  0.5580  0.0512  0.5233
   50MOL0     C 6484   1.530   8.177   4.181 -0.8762 -0.0313 -0.3515
   50MOL0     N 6485   1.458   8.056   4.215  0.2877 -0.0644 -0.1463
   50MOL0     C 6486   1.520   7.948   4.288 -0.4918  0.0229 -0.7621
   50MOL0     C 6487   1.424   7.857   4.299  0.3917 -0.6615 -0.5853
   50MOL0     C 6488   1.433   7.735   4.384  0.1360 -0.0689 -0.0800
   50MOL0     C 6489   1.341   7.725   4.498  0.0355  0.0486 -0.5180
   50MOL0     C 6490   1.358   7.606   4.589  0.4688  0.4906 -0.1613
   50MOL0     C 6491   1.243   7.575   4.682 -0.7956  0.4898  0.6465
   50MOL0     O 6492   1.137   7.535   4.595  0.2332  0.3532  0.3904
   50MOL0     C 6493   1.013   7.550   4.649 -0.4188 -0.0289  0.2184
   50MOL0     C 6494   0.938   7.437   4.675 -0.1060 -0.6391  0.7473
   50MOL0     C 6495   0.799   7.438   4.677 -0.3163 -0.4580  0.8731
   50MOL0     C 6496   0.732   7.560   4.648  0.1573  0.3714 -0.6107
   50MOL0     C 6497   0.584   7.562   4.628 -0.0928  0.9777 -0.7058
   50MOL0     O 6498   0.519   7.438   4.622  0.6803 -1.1152 -0.3366
   50MOL0     C 6499   0.381   7.429   4.618 -0.6291 -0.3653  0.1226
   50MOL0     C 6500   0.304   7.502   4.531  0.0893 -1.0126 -0.8630
   50MOL0     C 6501   0.167   7.484   4.522  0.5215  0.5153  0.0395
   50MOL0     C 6502   0.108   7.372   4.586  0.6693  0.4260 -0.3153
   50MOL0     O 6503  -0.026   7.350   4.592  0.4689 -0.2471  0.0460
   50MOL0     C 6504  -0.114   7.435   4.513  0.1632 -0.6369 -0.3430
   50MOL0     C 6505  -0.264   7.382   4.516  0.0252 -0.3079 -0.3822
   50MOL0     C 6506  -0.351   7.453   4.411 -0.1863 -0.7321 -0.0710
   50MOL0     C 6507  -0.498   7.404   4.434 -0.9422 -0.8278  0.5961
   50MOL0     C 6508  -0.576   7.469   4.316 -0.4459  1.4809 -0.0711
   50MOL0     C 6509  -0.718   7.397   4.320  0.0117 -0.7153  0.0718
   50MOL0     C 6510  -0.789   7.404   4.185  0.3062 -0.5759  0.3359
   50MOL0     C 6511  -0.929   7.340   4.196 -0.0423 -0.6590 -0.2906
   50MOL0    Cl 6512  -0.989   7.339   4.025 -0.3960  0.0918 -0.2010
   50MOL0     C 6513   0.193   7.284   4.660  0.0678  0.1519 -0.1156
   50MOL0     C 6514   0.332   7.313   4.675  0.6005  0.6698  0.0505
   50MOL0     O 6515   0.536   7.674   4.617  0.2617  0.0173 -0.5488
   50MOL0     C 6516   0.807   7.678   4.638  0.5200 -0.9946 -0.3341
   50MOL0     C 6517   0.945   7.673   4.638  0.0804 -0.2645  0.3345
   50MOL0     N 6518   1.309   7.909   4.240 -0.9300  0.2475 -0.9047
   50MOL0     N 6519   1.333   8.029   4.185 -0.2202  0.9792 -0.3051
   50MOL0     C 6520   2.073   7.780   3.256  0.5033  0.0066 -0.6689
   50MOL0     C 6521   2.172   7.785   3.152 -0.4993  0.5113  0.3359
   50MOL0     C 6522   2.380   7.899   2.766  0.2793  0.2804  0.3180
   50MOL0     C 6523   2.504   7.897   2.814 -0.7469  0.4546 -0.0116
   50MOL0     C 6524   2.615   7.921   2.733  0.4119  0.4813  1.0814
   50MOL0     C 6525   2.600   7.936   2.592  0.0186 -0.1618 -0.0571
   50MOL0     O 6526   2.701   7.961   2.498 -0.3302 -1.1284 -0.1748
   50MOL0     C 6527   2.836   7.931   2.546  0.5107  0.3268  0.2730
   50MOL0     C 6528   2.904   8.049   2.608 -0.0849 -0.0470  0.1801
   50MOL0     C 6529   3.001   8.011   2.711 -0.6875  0.1406  0.2474
   50MOL0     C 6530   3.087   8.130   2.746 -0.3716  0.7464 -0.0201
   50MOL0     C 6531   3.179   8.184   2.642  0.4586 -0.8382 -0.0339
   50MOL0     C 6532   3.255   8.222   2.553  0.8654  1.0249 -0.8748
   50MOL0     C 6533   2.470   7.920   2.543 -0.2803  0.4911 -0.3803
   50MOL0     C 6534   2.361   7.920   2.628  0.2280 -0.3241 -0.0911
   50MOL0     H 6535   2.133   8.106   3.066  0.6225 -1.1555  0.0473
   50MOL0     H 6536   1.964   8.099   3.261  1.2236  0.7060  3.4813
   50MOL0     H 6537   1.730   7.826   3.286  1.8879 -2.4351  0.9984
   50MOL0     H 6538   1.752   8.002   3.322  0.6875 -0.9554 -3.3764
   50MOL0     H 6539   1.732   7.773   3.509  2.1224 -0.4209 -2.7246
   50MOL0     H 6540   1.586   7.857   3.460  2.1982 -0.3943 -3.9721
   50MOL0     H 6541   1.707   8.079   3.551 -0.4759  1.0063  0.9064
   50MOL0     H 6542   1.824   7.967   3.633  0.0479  1.2187  5.1624
   50MOL0     H 6543   1.513   7.941   3.678  0.2189 -1.1682  1.4216
   50MOL0     H 6544   1.638   7.867   3.764  2.0011  0.9973  0.2954
   50MOL0     H 6545   1.569   8.164   3.753 -1.4477  0.8158  2.7709
   50MOL0     H 6546   1.723   8.101   3.828 -0.1785  3.2171 -0.8540
   50MOL0     H 6547   1.537   7.963   3.973  2.1235 -0.2130 -0.6956
   50MOL0     H 6548   1.442   8.117   3.917  0.5312  1.9467 -1.4173
   50MOL0     H 6549   1.705   8.104   4.067  1.3151  0.8047 -1.4900
   50MOL0     H 6550   1.634   8.253   4.016 -0.4102  0.6687  1.5201
   50MOL0     H 6551   1.460   8.261   4.176 -0.3776  0.4566  0.6629
   50MOL0     H 6552   1.605   8.211   4.253  0.9054 -2.2527 -1.0434
   50MOL0     H 6553   1.621   7.943   4.326 -0.4846 -0.2552 -0.8134
   50MOL0     H 6554   1.534   7.731   4.427 -0.5422 -1.9972  1.5009
   50MOL0     H 6555   1.414   7.642   4.330 -3.3903 -0.3613  1.4159
   50MOL0     H 6556   1.236   7.726   4.466 -0.8395 -0.7532  2.0622
   50MOL0     H 6557   1.354   7.812   4.563 -0.4991 -0.2241 -0.0421
   50MOL0     H 6558   1.380   7.515   4.531 -0.9559  0.1546 -0.2104
   50MOL0     H 6559   1.446   7.629   4.649  0.9565 -0.9084 -0.3137
   50MOL0     H 6560   1.215   7.669   4.731 -1.5733 -0.2194  1.5988
   50MOL0     H 6561   1.268   7.499   4.757 -3.4881  1.8188  3.0888
   50MOL0     H 6562   0.981   7.338   4.678 -0.4036 -0.7789  0.4825
   50MOL0     H 6563   0.758   7.337   4.676  1.5905 -1.3140  2.5265
   50MOL0     H 6564   0.348   7.584   4.475  2.5988 -1.6460  0.0414
   50MOL0     H 6565   0.115   7.558   4.462  0.7398 -0.4675 -1.4266
   50MOL0     H 6566  -0.072   7.438   4.412  1.6093 -1.7541  0.1926
   50MOL0     H 6567  -0.112   7.535   4.556 -3.1844 -0.3529 -0.6154
   50MOL0     H 6568  -0.312   7.402   4.613 -0.7084  2.4733 -1.2310
   50MOL0     H 6569  -0.269   7.273   4.505  0.0286 -0.7549  2.9520
   50MOL0     H 6570  -0.323   7.436   4.307  1.5218  3.3178 -0.4579
   50MOL0     H 6571  -0.344   7.561   4.425 -1.2690 -0.2204 -2.8772
   50MOL0     H 6572  -0.503   7.295   4.427 -0.3387 -0.9189  1.4275
   50MOL0     H 6573  -0.536   7.426   4.534 -0.3288 -0.4851  0.7576
   50MOL0     H 6574  -0.529   7.462   4.217  1.3447  3.3547  0.5694
   50MOL0     H 6575  -0.589   7.577   4.327  0.5070  1.5959 -0.0448
   50MOL0     H 6576  -0.772   7.446   4.401 -0.5410 -3.4298  1.4362
   50MOL0     H 6577  -0.711   7.292   4.350  0.5598 -0.7616 -0.2115
   50MOL0     H 6578  -0.797   7.509   4.155  2.0057 -0.2913  0.7679
   50MOL0     H 6579  -0.728   7.355   4.109  0.6563 -2.2053  1.6145
   50MOL0     H 6580  -1.000   7.392   4.262 -1.2753 -0.7078 -1.5209
   50MOL0     H 6581  -0.918   7.236   4.227 -4.0059 -1.2857 -0.4272
   50MOL0     H 6582   0.164   7.184   4.691  1.6040 -0.0251  0.8807
   50MOL0     H 6583   0.399   7.240   4.719 -0.0753 -2.0290 -2.9996
   50MOL0     H 6584   0.760   7.774   4.618 -1.9256 -1.7490  1.2188
   50MOL0     H 6585   0.992   7.769   4.619 -1.3384  0.0119 -2.2784
   50MOL0     H 6586   2.063   7.696   3.324 -0.5809  1.9861  1.7857
   50MOL0     H 6587   2.218   7.695   3.113 -1.6753 -0.8217  1.8572
   50MOL0     H 6588   2.523   7.880   2.920  0.3307 -0.5131 -0.3347
   50MOL0     H 6589   2.712   7.926   2.782  1.5432  0.7646 -1.0724
   50MOL0     H 6590   2.899   7.895   2.464 -0.8501  0.4911 -0.8896
   50MOL0     H 6591   2.836   7.845   2.613 -0.4024  2.1962  2.7958
   50MOL0     H 6592   2.968   8.090   2.529 -0.4193 -0.7818 -0.4873
   50MOL0     H 6593   2.833   8.127   2.639  1.8589  0.7871  2.9491
   50MOL0     H 6594   3.070   7.930   2.684 -0.4889  0.6344 -0.7616
   50MOL0     H 6595   2.936   7.985   2.796 -0.6945  0.7468  0.4304
   50MOL0     H 6596   3.021   8.214   2.770  1.8614  2.2005  1.5766
   50MOL0     H 6597   3.148   8.091   2.829 -0.0378 -0.2029 -0.7012
   50MOL0     H 6598   3.322   8.245   2.473 -1.0766  1.2249 -2.5072
   50MOL0     H 6599   2.449   7.934   2.437 -0.7782  0.1979 -0.3250
   50MOL0     H 6600   2.260   7.923   2.588 -0.1749 -0.5691  0.8603
   51MOL0     O 6601   5.239   9.961   1.734 -0.5390 -0.5726  0.4195
   51MOL0     C 6602   5.301  10.060   1.694  0.6759  0.1834  0.4205
   51MOL0     O 6603   5.239  10.174   1.649 -0.0967 -0.5510  0.0661
   51MOL0     C 6604   5.098  10.177   1.671 -0.3105  0.1039 -0.3353
   51MOL0     C 6605   5.043  10.280   1.758 -0.5748 -0.1297  0.2597
   51MOL0     C 6606   4.909  10.294   1.774 -0.2781 -0.5884  0.1425
   51MOL0     C 6607   4.815  10.200   1.727 -1.3551 -0.1261 -1.0352
   51MOL0     O 6608   4.680  10.212   1.759 -0.0920  0.3135 -0.1305
   51MOL0     C 6609   4.620  10.098   1.828 -0.6866 -0.8742 -0.1691
   51MOL0     C 6610   4.471  10.089   1.792 -0.2563  0.3613  0.2045
   51MOL0     C 6611   4.405  10.224   1.800 -0.3493 -0.1619  0.9305
   51MOL0     C 6612   4.247  10.212   1.794 -0.3866  0.4380  0.6576
   51MOL0     C 6613   4.173  10.353   1.818 -0.4651  1.2428 -0.1201
   51MOL0     C 6614   4.022  10.336   1.803 -0.2584  0.6424  0.7140
   51MOL0     C 6615   3.953  10.259   1.905  0.1525  0.7720 -0.8903
   51MOL0     C 6616   3.809  10.319   1.919 -1.2704  0.0213  0.3670
   51MOL0     N 6617   3.715  10.244   2.010  0.0791 -0.1292 -0.5309
   51MOL0     C 6618   3.708  10.274   2.142 -0.1134 -0.1320  0.4718
   51MOL0     C 6619   3.636  10.178   2.194 -0.3389  1.2894  0.4631
   51MOL0     C 6620   3.595  10.162   2.343 -0.2089 -0.2727 -0.1604
   51MOL0     C 6621   3.458  10.222   2.373 -0.1320 -0.5613 -0.0450
   51MOL0     C 6622   3.360  10.182   2.265  0.2436 -0.1476 -0.2680
   51MOL0     C 6623   3.214  10.182   2.307  0.1680  0.1827 -0.4811
   51MOL0     O 6624   3.124  10.164   2.187 -0.1750  0.2565  0.3967
   51MOL0     C 6625   2.997  10.208   2.201  0.2455 -0.7570 -0.1440
   51MOL0     C 6626   2.939  10.249   2.325  0.1026 -1.2565  0.1721
   51MOL0     C 6627   2.800  10.302   2.326 -0.5219  0.0979 -0.9470
   51MOL0     C 6628   2.731  10.323   2.210 -0.2428 -0.2933 -0.1787
   51MOL0     C 6629   2.598  10.391   2.207 -0.0744  0.4847  0.2367
   51MOL0     O 6630   2.527  10.371   2.090  0.3512 -0.7747  0.5013
   51MOL0     C 6631   2.401  10.429   2.074  0.3884 -0.3666 -0.9679
   51MOL0     C 6632   2.368  10.446   1.938  0.3932 -0.2073 -0.1800
   51MOL0     C 6633   2.240  10.494   1.904  0.2326 -0.7692  0.2014
   51MOL0     C 6634   2.148  10.537   1.998 -0.2638 -0.7587  1.0406
   51MOL0     O 6635   2.035  10.602   1.948  0.5407  0.0487 -0.5962
   51MOL0     C 6636   1.935  10.646   2.048 -0.3443  0.4663  1.1139
   51MOL0     C 6637   1.825  10.715   1.971 -0.7508  1.2871  0.2603
   51MOL0     C 6638   1.753  10.819   2.059 -0.2965  0.1932  0.2975
   51MOL0     C 6639   1.632  10.864   1.971  0.1401 -0.1402 -0.0154
   51MOL0     C 6640   1.547  10.973   2.044 -0.4020 -0.3863  0.0220
   51MOL0     C 6641   1.401  10.975   1.989  0.4440  0.4792  0.1968
   51MOL0     C 6642   1.304  11.076   2.064  0.0124 -0.8132 -0.2721
   51MOL0     C 6643   1.330  11.227   2.030  0.3565  0.8167  0.8971
   51MOL0    Cl 6644   1.312  11.269   1.850  0.5626  0.2209 -0.0293
   51MOL0     C 6645   2.183  10.514   2.135 -0.2676  0.1856 -0.0826
   51MOL0     C 6646   2.306  10.463   2.171  0.6581  0.5935  0.2560
   51MOL0     O 6647   2.557  10.463   2.300  0.3317  0.1555 -0.2358
   51MOL0     C 6648   2.796  10.282   2.090  0.5270  0.5275 -0.2619
   51MOL0     C 6649   2.922  10.227   2.083  0.0763 -0.6095 -0.6426
   51MOL0     N 6650   3.611  10.081   2.103  0.5418  0.1601  0.4386
   51MOL0     N 6651   3.654  10.127   1.989  0.1482 -0.0263 -0.1699
   51MOL0     C 6652   4.874  10.094   1.650  0.3740  0.4525 -0.5700
   51MOL0     C 6653   5.013  10.080   1.628  0.3654 -0.7422 -0.1721
   51MOL0     C 6654   5.450  10.054   1.701 -0.5823  0.0454  0.6414
   51MOL0     C 6655   5.513   9.941   1.758  0.2849 -0.3137  0.2020
   51MOL0     C 6656   5.642   9.927   1.773 -0.1590 -0.1045 -0.4091
   51MOL0     C 6657   5.726  10.028   1.730  0.1826 -0.1720  0.1382
   51MOL0     O 6658   5.865  10.018   1.736 -0.3271  0.2491  0.0501
   51MOL0     C 6659   5.930   9.914   1.816 -1.0084  0.2691  0.1734
   51MOL0     C 6660   6.081   9.961   1.840  0.3582 -0.0912 -0.0035
   51MOL0     C 6661   6.088  10.074   1.945 -0.8218 -0.1752  0.2627
   51MOL0     C 6662   6.231  10.123   1.957 -0.7348  1.6689 -0.0465
   51MOL0     C 6663   6.315  10.025   2.033  0.5711  0.2105 -1.1838
   51MOL0     C 6664   6.377   9.962   2.123 -0.1510  0.0612  0.7036
   51MOL0     C 6665   5.669  10.143   1.660 -0.2310 -0.8387 -0.0128
   51MOL0     C 6666   5.529  10.156   1.642  0.2421  0.6985 -0.7127
   51MOL0     H 6667   5.112  10.340   1.817  1.3621 -1.8587 -0.0964
   51MOL0     H 6668   4.860  10.372   1.831 -0.1571 -0.5350  0.1746
   51MOL0     H 6669   4.617  10.110   1.936 -1.9827 -1.9023 -0.0571
   51MOL0     H 6670   4.678  10.006   1.813  2.3874  1.0563 -0.8641
   51MOL0     H 6671   4.419  10.030   1.868  0.4867  1.0399  1.2710
   51MOL0     H 6672   4.472  10.045   1.692  1.6835 -0.7088  0.6367
   51MOL0     H 6673   4.448  10.282   1.718  1.1301 -1.4984  0.7116
   51MOL0     H 6674   4.425  10.278   1.893 -1.8114 -1.1954  1.8797
   51MOL0     H 6675   4.215  10.181   1.694  0.6003  1.9256 -0.1680
   51MOL0     H 6676   4.213  10.144   1.872 -0.1808  0.0332  0.4018
   51MOL0     H 6677   4.217  10.436   1.762  3.5953  0.1647  1.1363
   51MOL0     H 6678   4.186  10.391   1.919 -0.3124 -0.0317  0.3531
   51MOL0     H 6679   3.992  10.290   1.709 -0.6642  0.7542  0.7866
   51MOL0     H 6680   3.985  10.438   1.795  0.3266  0.7629 -0.6192
   51MOL0     H 6681   3.964  10.151   1.894  2.0581  0.8101  0.1952
   51MOL0     H 6682   4.000  10.274   2.003 -0.3490 -2.1047 -0.1306
   51MOL0     H 6683   3.767  10.328   1.818  1.8366 -1.0970 -1.1520
   51MOL0     H 6684   3.818  10.425   1.944 -1.2035  0.5793 -1.8136
   51MOL0     H 6685   3.740  10.369   2.185 -3.8350  1.2700  0.4800
   51MOL0     H 6686   3.663  10.222   2.404  1.7712  0.3663 -2.8313
   51MOL0     H 6687   3.598  10.059   2.379  0.4404  0.2918  1.5081
   51MOL0     H 6688   3.472  10.330   2.375 -2.9571 -0.1338  1.8099
   51MOL0     H 6689   3.422  10.179   2.467  1.3689 -2.9966 -0.4925
   51MOL0     H 6690   3.369  10.251   2.181  1.4001 -1.6190 -1.4096
   51MOL0     H 6691   3.389  10.081   2.237  2.8479 -0.0451  1.6910
   51MOL0     H 6692   3.198  10.277   2.359  0.8268 -0.5010  1.0330
   51MOL0     H 6693   3.196  10.107   2.384  1.8791  2.7308  2.6286
   51MOL0     H 6694   2.988  10.234   2.420  1.1663  2.0076  0.2546
   51MOL0     H 6695   2.759  10.327   2.423  0.0739 -1.3793 -0.2922
   51MOL0     H 6696   2.436  10.427   1.856  4.1596  0.7461  2.4474
   51MOL0     H 6697   2.224  10.516   1.799  0.3992  0.7193  0.4684
   51MOL0     H 6698   1.972  10.727   2.112 -1.0483 -0.9901  3.5159
   51MOL0     H 6699   1.896  10.560   2.103 -1.8306 -2.2305 -3.6335
   51MOL0     H 6700   1.760  10.632   1.942 -0.3774  1.3666 -0.8427
   51MOL0     H 6701   1.869  10.770   1.887  3.4766 -0.7034  0.9495
   51MOL0     H 6702   1.821  10.902   2.080 -0.3529 -0.0396  1.4465
   51MOL0     H 6703   1.723  10.773   2.154  0.4042  0.1196  0.4896
   51MOL0     H 6704   1.669  10.903   1.875 -0.4047  1.1037  0.2580
   51MOL0     H 6705   1.573  10.772   1.968 -0.6681  0.2915  1.5916
   51MOL0     H 6706   1.589  11.071   2.021  0.1752 -0.6964 -0.2596
   51MOL0     H 6707   1.546  10.957   2.152 -3.1547  3.6587  0.8046
   51MOL0     H 6708   1.340  10.891   2.022 -1.9973  2.4312  0.9904
   51MOL0     H 6709   1.412  10.989   1.881 -0.5757 -1.2709 -0.1677
   51MOL0     H 6710   1.198  11.071   2.037  0.1160  1.3725 -1.3282
   51MOL0     H 6711   1.322  11.061   2.171 -1.6148  0.2516  0.1763
   51MOL0     H 6712   1.429  11.259   2.062 -0.1804  2.0323  1.4113
   51MOL0     H 6713   1.253  11.289   2.078 -0.1216  0.7793  0.1896
   51MOL0     H 6714   2.109  10.540   2.210 -0.0757 -1.8895  0.8981
   51MOL0     H 6715   2.318  10.435   2.275 -1.2807 -0.8005  0.1427
   51MOL0     H 6716   2.747  10.289   1.994 -2.5288  0.4506  1.1617
   51MOL0     H 6717   2.977  10.183   2.000  0.5314 -3.0575  0.8433
   51MOL0     H 6718   4.810  10.013   1.617  2.3516 -1.3739 -0.1540
   51MOL0     H 6719   5.043   9.991   1.572 -1.6307 -2.0240  0.6549
   51MOL0     H 6720   5.453   9.860   1.798 -1.3282  1.5761  1.8651
   51MOL0     H 6721   5.679   9.838   1.822 -0.1704  0.5053  0.7384
   51MOL0     H 6722   5.917   9.821   1.759  0.0340  0.4739 -0.4241
   51MOL0     H 6723   5.883   9.903   1.914 -1.4195  2.0583  0.2131
   51MOL0     H 6724   6.136   9.872   1.873 -1.5536 -0.4703  2.4453
   51MOL0     H 6725   6.113  10.001   1.743 -1.1256 -0.5190 -0.7013
   51MOL0     H 6726   6.061  10.043   2.047  1.9870  2.0222  1.8165
   51MOL0     H 6727   6.030  10.162   1.916  0.2282  0.2105 -0.6750
   51MOL0     H 6728   6.271  10.142   1.856  1.5416  1.1544  0.6856
   51MOL0     H 6729   6.227  10.215   2.017  1.0902  2.7679 -1.4734
   51MOL0     H 6730   6.413   9.893   2.197  1.8927  0.6274  0.3136
   51MOL0     H 6731   5.746  10.212   1.629  0.5837 -1.7134  0.0441
   51MOL0     H 6732   5.476  10.238   1.594 -2.0158  1.5417  2.8400
   52MOL0     O 6733   6.878   2.472   0.084  0.5331  0.2255  0.5649
   52MOL0     C 6734   6.837   2.424  -0.018  0.6033  0.1472 -0.3806
   52MOL0     O 6735   6.892   2.446  -0.141  0.2643 -0.2190 -0.0757
   52MOL0     C 6736   6.973   2.560  -0.145  0.2014  0.6980 -0.1178
   52MOL0     C 6737   7.107   2.536  -0.135 -0.3826  0.4377  0.3127
   52MOL0     C 6738   7.202   2.634  -0.163  0.1247 -1.4104 -0.3586
   52MOL0     C 6739   7.158   2.765  -0.185 -0.1105  0.5717 -0.2057
   52MOL0     O 6740   7.231   2.879  -0.206  0.6365  0.0237  0.3704
   52MOL0     C 6741   7.379   2.854  -0.196 -0.6962  0.3781  0.3977
   52MOL0     C 6742   7.433   2.792  -0.329  0.1998 -0.2067 -0.4106
   52MOL0     C 6743   7.412   2.880  -0.461  0.2938  0.4119 -0.0116
   52MOL0     C 6744   7.509   3.003  -0.483 -0.5558 -0.0769 -0.2910
   52MOL0     C 6745   7.489   3.091  -0.612  0.4278 -0.5109  0.3869
   52MOL0     C 6746   7.343   3.124  -0.635 -0.2868  0.3386 -0.2328
   52MOL0     C 6747   7.321   3.204  -0.755  1.2336  0.5261 -1.3581
   52MOL0     C 6748   7.177   3.243  -0.764  0.4522 -1.1645  0.3456
   52MOL0     N 6749   7.144   3.362  -0.690 -0.8480  0.2238 -0.3869
   52MOL0     C 6750   7.107   3.485  -0.736  0.7856  0.5844  0.1359
   52MOL0     C 6751   7.105   3.571  -0.630 -0.0056  0.0839  0.0337
   52MOL0     C 6752   7.054   3.709  -0.640 -0.5832  0.1343  0.2765
   52MOL0     C 6753   6.906   3.723  -0.662  0.6339  0.2264  0.4586
   52MOL0     C 6754   6.857   3.866  -0.680  0.0775 -0.9909  0.1069
   52MOL0     C 6755   6.704   3.882  -0.701  0.3825  0.3903  0.2940
   52MOL0     O 6756   6.690   4.021  -0.746 -0.2735  0.5485 -0.2981
   52MOL0     C 6757   6.555   4.051  -0.762 -0.2415 -0.0948  0.1355
   52MOL0     C 6758   6.449   3.964  -0.798 -0.7011 -0.0280 -0.0457
   52MOL0     C 6759   6.323   4.009  -0.827  1.0191  0.0705  1.2712
   52MOL0     C 6760   6.288   4.146  -0.822  0.5372  1.1885 -0.0974
   52MOL0     C 6761   6.158   4.194  -0.863 -0.1429 -0.5048  0.1640
   52MOL0     O 6762   6.078   4.099  -0.929  0.2698  0.2508  0.3639
   52MOL0     C 6763   5.943   4.137  -0.953 -0.2258 -0.2602 -0.2717
   52MOL0     C 6764   5.908   4.241  -1.035  0.0600 -0.3282  0.3837
   52MOL0     C 6765   5.770   4.282  -1.058 -0.1395  0.2208 -0.1729
   52MOL0     C 6766   5.676   4.207  -0.988  0.7947  0.5574 -0.1742
   52MOL0     O 6767   5.536   4.243  -0.983  0.1090  0.4107 -0.6911
   52MOL0     C 6768   5.497   4.378  -1.006 -0.6602  1.4386 -0.1405
   52MOL0     C 6769   5.355   4.410  -0.975  0.0377 -0.5650 -0.0170
   52MOL0     C 6770   5.251   4.335  -1.061 -1.6593  0.0748  1.0840
   52MOL0     C 6771   5.111   4.387  -1.034  0.3097 -0.6208 -0.3901
   52MOL0     C 6772   4.997   4.312  -1.098  0.0717  0.3024  0.6634
   52MOL0     C 6773   5.007   4.299  -1.251 -0.1910  0.0653  0.9919
   52MOL0     C 6774   4.878   4.260  -1.322  0.0901  1.1862 -0.3246
   52MOL0     C 6775   4.911   4.225  -1.469  0.5580  0.1201 -0.2427
   52MOL0    Cl 6776   4.751   4.184  -1.543 -0.0598 -0.0666 -0.2999
   52MOL0     C 6777   5.718   4.092  -0.913  0.1354 -0.2619  0.9270
   52MOL0     C 6778   5.847   4.063  -0.891  0.5621 -0.0690 -0.3119
   52MOL0     O 6779   6.123   4.307  -0.833  0.1847  0.2391  0.1451
   52MOL0     C 6780   6.386   4.233  -0.785  0.5959 -0.1252  0.0034
   52MOL0     C 6781   6.514   4.191  -0.749 -0.6326  0.6138  0.4825
   52MOL0     N 6782   7.143   3.500  -0.516 -0.3433  0.3694  0.4536
   52MOL0     N 6783   7.164   3.379  -0.550 -0.2399  0.0229  0.8662
   52MOL0     C 6784   7.015   2.790  -0.176  0.1848  0.3434 -0.2866
   52MOL0     C 6785   6.919   2.692  -0.160  0.1225  1.2027  0.3613
   52MOL0     C 6786   6.717   2.344  -0.017 -0.2828  0.1544 -0.6987
   52MOL0     C 6787   6.667   2.276  -0.127 -0.6275 -0.1456 -0.9952
   52MOL0     C 6788   6.550   2.195  -0.101  0.4219  0.0048  0.5361
   52MOL0     C 6789   6.483   2.183   0.016  0.5174 -0.7789 -0.8748
   52MOL0     O 6790   6.375   2.097   0.033 -0.3158  0.0986  0.5919
   52MOL0     C 6791   6.264   2.142   0.104 -0.1950 -0.0486  0.4047
   52MOL0     C 6792   6.168   2.026   0.110 -0.1149  1.1471 -0.1538
   52MOL0     C 6793   6.132   1.983  -0.035  0.3113 -0.0785 -0.4774
   52MOL0     C 6794   5.989   1.918  -0.070 -0.3029 -0.0945 -0.8192
   52MOL0     C 6795   5.959   1.806   0.026  0.3133 -0.3789  1.1044
   52MOL0     C 6796   5.921   1.713   0.085  0.7108 -0.0846  0.2988
   52MOL0     C 6797   6.537   2.258   0.122  0.2373 -0.2329  0.5464
   52MOL0     C 6798   6.654   2.329   0.107 -0.9215 -0.0426  0.2398
   52MOL0     H 6799   7.145   2.443  -0.093  0.3479  0.9424  0.8078
   52MOL0     H 6800   7.306   2.602  -0.164  0.4960 -0.2799 -1.6606
   52MOL0     H 6801   7.405   2.790  -0.111  2.3346  1.4458  0.4090
   52MOL0     H 6802   7.427   2.952  -0.187 -1.6057  1.0900 -1.9432
   52MOL0     H 6803   7.382   2.697  -0.345 -0.6512  0.5103 -2.2294
   52MOL0     H 6804   7.541   2.778  -0.325  0.1554 -0.4246  0.1429
   52MOL0     H 6805   7.304   2.899  -0.466 -0.2856 -2.3213  0.5025
   52MOL0     H 6806   7.427   2.811  -0.545  0.9961 -2.3860  2.2625
   52MOL0     H 6807   7.504   3.069  -0.395 -1.2261  0.6562 -0.8527
   52MOL0     H 6808   7.609   2.959  -0.482 -1.8675 -3.6352  3.5632
   52MOL0     H 6809   7.510   3.033  -0.702 -4.1555 -0.9665 -0.6257
   52MOL0     H 6810   7.548   3.183  -0.610 -1.7774  0.9976 -0.5774
   52MOL0     H 6811   7.305   3.181  -0.550  1.1840  2.2379 -0.7701
   52MOL0     H 6812   7.296   3.026  -0.642 -0.9611  0.6153  0.3494
   52MOL0     H 6813   7.388   3.290  -0.764  0.2167  1.4565 -0.3771
   52MOL0     H 6814   7.339   3.140  -0.842  1.4255 -0.2016 -0.7928
   52MOL0     H 6815   7.110   3.163  -0.733 -0.0791 -0.6503  0.5469
   52MOL0     H 6816   7.156   3.278  -0.866  3.4141 -1.1492 -0.3553
   52MOL0     H 6817   7.087   3.511  -0.839 -0.0736  4.0794  1.0566
   52MOL0     H 6818   7.103   3.770  -0.717 -0.2638 -0.4233  0.0386
   52MOL0     H 6819   7.077   3.762  -0.547 -0.0859  1.6114 -0.6469
   52MOL0     H 6820   6.855   3.680  -0.575 -0.6854 -0.4931 -0.6312
   52MOL0     H 6821   6.867   3.660  -0.742  1.7887 -1.2695  1.0169
   52MOL0     H 6822   6.887   3.920  -0.590  0.7140 -1.2383  0.0536
   52MOL0     H 6823   6.907   3.904  -0.770  0.9407 -0.4959  0.7868
   52MOL0     H 6824   6.651   3.868  -0.607 -1.3905 -1.1693 -0.8742
   52MOL0     H 6825   6.659   3.805  -0.765  1.8264  2.4751 -3.6055
   52MOL0     H 6826   6.471   3.859  -0.814 -1.1845 -0.1472  0.0452
   52MOL0     H 6827   6.253   3.936  -0.868  1.2887  1.8752 -2.9087
   52MOL0     H 6828   5.982   4.306  -1.081 -3.0711  1.9712 -1.8093
   52MOL0     H 6829   5.747   4.362  -1.128  1.4247  0.0813 -0.8904
   52MOL0     H 6830   5.511   4.385  -1.115 -0.6289  1.4650 -0.1357
   52MOL0     H 6831   5.562   4.450  -0.956 -1.1247  1.1785  0.8661
   52MOL0     H 6832   5.356   4.519  -0.978  1.1934 -0.5739 -1.7230
   52MOL0     H 6833   5.333   4.379  -0.873  0.2353  2.0597  0.8874
   52MOL0     H 6834   5.248   4.229  -1.036 -1.9986  0.2710  1.9065
   52MOL0     H 6835   5.282   4.349  -1.165  3.2355 -0.3164  2.2811
   52MOL0     H 6836   5.086   4.407  -0.930 -3.5861  2.3195 -1.5995
   52MOL0     H 6837   5.112   4.489  -1.075 -0.3127  0.0276  1.1587
   52MOL0     H 6838   4.899   4.358  -1.080  0.2561  0.4250  1.4006
   52MOL0     H 6839   4.993   4.211  -1.055 -2.1433  0.6667  1.4877
   52MOL0     H 6840   5.081   4.228  -1.288 -1.8590 -0.3338 -1.9645
   52MOL0     H 6841   5.031   4.392  -1.303 -1.3908 -0.8291 -1.3378
   52MOL0     H 6842   4.834   4.172  -1.274  1.3627 -0.1244 -1.4762
   52MOL0     H 6843   4.807   4.343  -1.312 -1.5767 -0.2866  0.7227
   52MOL0     H 6844   4.973   4.135  -1.457 -0.3891 -0.5505 -0.2984
   52MOL0     H 6845   4.958   4.304  -1.528 -0.2003  2.1113  1.7225
   52MOL0     H 6846   5.641   4.036  -0.860  0.3328  0.0504  1.5595
   52MOL0     H 6847   5.867   3.983  -0.820  2.1577  1.6420  1.2908
   52MOL0     H 6848   6.365   4.340  -0.782 -1.1480 -0.4661  0.9107
   52MOL0     H 6849   6.579   4.272  -0.718 -2.4223  0.6951  4.6441
   52MOL0     H 6850   6.983   2.894  -0.187 -1.6239 -0.3455 -2.1428
   52MOL0     H 6851   6.812   2.710  -0.172  0.0782 -0.0630 -1.8264
   52MOL0     H 6852   6.713   2.288  -0.224 -2.4559  1.5390 -1.7290
   52MOL0     H 6853   6.512   2.135  -0.183  5.1740 -2.7769  0.0338
   52MOL0     H 6854   6.211   2.229   0.064  1.2052  1.2162  1.1884
   52MOL0     H 6855   6.281   2.172   0.208 -2.0736 -0.1273  0.7652
   52MOL0     H 6856   6.220   1.947   0.166 -0.6535  1.2001  0.4357
   52MOL0     H 6857   6.072   2.050   0.157 -1.3070 -3.5765  0.3607
   52MOL0     H 6858   6.213   1.914  -0.061 -0.2665 -1.5212  1.3175
   52MOL0     H 6859   6.143   2.074  -0.094  1.3762  1.9065  2.5764
   52MOL0     H 6860   5.901   1.980  -0.055  0.5882  0.8204  0.8806
   52MOL0     H 6861   5.984   1.883  -0.174 -1.2828  1.9032 -1.4897
   52MOL0     H 6862   5.872   1.631   0.132  2.9789 -1.4924  0.3660
   52MOL0     H 6863   6.487   2.262   0.218 -2.4199  2.4021 -0.7528
   52MOL0     H 6864   6.690   2.373   0.199 -1.3090  0.7586  0.0153
   53MOL0     O 6865   3.566   8.573   2.163 -0.6206 -0.1092 -0.9665
   53MOL0     C 6866   3.651   8.526   2.237 -0.6808 -0.3334 -0.5987
   53MOL0     O 6867   3.652   8.543   2.380 -0.3482  0.0030 -0.5078
   53MOL0     C 6868   3.561   8.625   2.432  0.1184 -0.8414  0.1600
   53MOL0     C 6869   3.460   8.580   2.521  0.9025 -0.7075 -0.4374
   53MOL0     C 6870   3.367   8.670   2.569  0.2259  0.4850  0.2061
   53MOL0     C 6871   3.370   8.802   2.529  0.0758 -0.0461  0.0064
   53MOL0     O 6872   3.274   8.881   2.584  0.0681  0.5483  0.0758
   53MOL0     C 6873   3.267   9.019   2.546 -0.4369 -0.3085 -0.4133
   53MOL0     C 6874   3.133   9.077   2.602 -0.5524  0.8033 -0.3008
   53MOL0     C 6875   3.096   9.216   2.544  0.6140 -0.2631  0.6954
   53MOL0     C 6876   2.950   9.250   2.542 -0.6078  0.1273 -0.6103
   53MOL0     C 6877   2.932   9.405   2.538 -0.0688 -0.2270  0.7022
   53MOL0     C 6878   2.792   9.439   2.522 -0.3597  0.2514 -0.4626
   53MOL0     C 6879   2.707   9.392   2.636 -0.2688  0.1434  0.0788
   53MOL0     C 6880   2.729   9.471   2.775  0.0798 -0.4421  0.5803
   53MOL0     N 6881   2.677   9.606   2.771  0.6473  0.4696 -0.2732
   53MOL0     C 6882   2.548   9.640   2.749 -0.1659 -0.8297 -0.2205
   53MOL0     C 6883   2.548   9.771   2.735  0.1205  0.2569  0.8488
   53MOL0     C 6884   2.422   9.841   2.702 -0.5469  0.1213 -1.0776
   53MOL0     C 6885   2.343   9.788   2.583  0.0648  0.4424  0.0502
   53MOL0     C 6886   2.220   9.874   2.584  0.1509 -0.5972 -0.0406
   53MOL0     C 6887   2.149   9.895   2.449 -0.2202 -0.7554  0.8040
   53MOL0     O 6888   2.099   9.771   2.402  0.5584 -0.3326 -0.4405
   53MOL0     C 6889   1.983   9.789   2.335  0.6852  0.5327  0.1372
   53MOL0     C 6890   1.858   9.801   2.398  0.0320  0.5503 -0.3455
   53MOL0     C 6891   1.732   9.814   2.320 -0.4904 -0.4934 -0.2016
   53MOL0     C 6892   1.734   9.808   2.177  0.1497 -0.0844 -0.1046
   53MOL0     C 6893   1.608   9.813   2.094  0.3498  0.1957 -0.0123
   53MOL0     O 6894   1.504   9.845   2.165 -0.0034 -0.1438 -0.6091
   53MOL0     C 6895   1.390   9.877   2.109 -0.0893 -0.8185 -0.1981
   53MOL0     C 6896   1.335  10.007   2.137 -0.2967 -0.3452  0.2881
   53MOL0     C 6897   1.215  10.047   2.081  0.1250 -0.7799 -0.6565
   53MOL0     C 6898   1.129   9.953   2.027 -0.3944 -0.1596  0.0358
   53MOL0     O 6899   1.007   9.999   1.977 -0.2602  0.7179  0.2597
   53MOL0     C 6900   0.934   9.912   1.890 -0.2805 -0.5755  0.2808
   53MOL0     C 6901   0.798   9.973   1.852  0.0263  0.3072 -0.7139
   53MOL0     C 6902   0.694   9.888   1.791  0.2636  0.1840 -0.5527
   53MOL0     C 6903   0.652   9.755   1.850 -0.6811  0.2856 -0.8811
   53MOL0     C 6904   0.510   9.715   1.819  0.1150 -0.8696  0.3568
   53MOL0     C 6905   0.442   9.598   1.888 -0.4659  0.4148  0.3193
   53MOL0     C 6906   0.301   9.585   1.822 -0.0250  0.0639  1.0594
   53MOL0     C 6907   0.202   9.494   1.910 -0.2490  0.0609 -0.2495
   53MOL0    Cl 6908   0.020   9.538   1.873 -0.2204 -0.0227  0.5472
   53MOL0     C 6909   1.181   9.827   2.000  0.0631 -1.5839  0.7669
   53MOL0     C 6910   1.306   9.784   2.047  0.4341  0.4928  1.2038
   53MOL0     O 6911   1.613   9.794   1.973 -0.1719 -0.6636  0.2683
   53MOL0     C 6912   1.864   9.794   2.114  0.8832 -0.0115  0.0085
   53MOL0     C 6913   1.980   9.792   2.193  0.3755  0.0046 -0.2265
   53MOL0     N 6914   2.672   9.816   2.742  0.5346  0.1688 -0.3633
   53MOL0     N 6915   2.750   9.724   2.766  0.4832  0.6233  0.4451
   53MOL0     C 6916   3.480   8.851   2.454  0.6882 -0.2755 -0.4061
   53MOL0     C 6917   3.570   8.760   2.405 -0.0163 -0.6064 -0.2603
   53MOL0     C 6918   3.753   8.442   2.190 -0.3042  0.1420  0.4128
   53MOL0     C 6919   3.763   8.401   2.054  0.2942  0.1328  0.2342
   53MOL0     C 6920   3.863   8.322   2.010 -0.3388 -0.3582 -0.6940
   53MOL0     C 6921   3.956   8.280   2.102 -0.1337  0.2663 -0.7083
   53MOL0     O 6922   4.044   8.189   2.051 -0.4958  0.3778 -0.2863
   53MOL0     C 6923   4.172   8.168   2.126 -0.3604  0.5615  0.2614
   53MOL0     C 6924   4.242   8.034   2.070  0.5440  0.2948 -0.2868
   53MOL0     C 6925   4.338   8.053   1.957  0.5593  0.1241  0.2330
   53MOL0     C 6926   4.249   8.079   1.829 -0.2225 -0.5005  0.3801
   53MOL0     C 6927   4.350   8.107   1.730 -0.1311 -0.1871  0.3933
   53MOL0     C 6928   4.432   8.155   1.663 -0.8538  0.3407  0.3397
   53MOL0     C 6929   3.947   8.311   2.237  0.7340  0.2320  0.5871
   53MOL0     C 6930   3.855   8.402   2.280  0.1424 -0.1911 -0.2279
   53MOL0     H 6931   3.438   8.474   2.531  1.7693 -0.7539  1.4108
   53MOL0     H 6932   3.296   8.639   2.645  0.9134  1.6847  1.3795
   53MOL0     H 6933   3.268   9.025   2.437  0.8698 -1.4809 -0.4874
   53MOL0     H 6934   3.348   9.075   2.592 -2.2143  1.1326  1.0976
   53MOL0     H 6935   3.140   9.085   2.711  3.2729  1.0958 -0.4437
   53MOL0     H 6936   3.056   9.009   2.565  0.2026 -0.2606  0.0343
   53MOL0     H 6937   3.135   9.224   2.442 -1.6338  1.6347 -0.0974
   53MOL0     H 6938   3.146   9.296   2.601 -2.4598  0.1253  3.0862
   53MOL0     H 6939   2.901   9.203   2.456  1.4580 -0.8217 -1.3243
   53MOL0     H 6940   2.902   9.203   2.629 -2.7210 -0.3668 -1.9708
   53MOL0     H 6941   2.988   9.454   2.458 -0.3155  0.5971  1.0132
   53MOL0     H 6942   2.969   9.447   2.632  0.1577  0.8606  0.1428
   53MOL0     H 6943   2.752   9.398   2.429 -1.4064  3.7133 -1.6969
   53MOL0     H 6944   2.763   9.544   2.508 -2.8119 -0.3197 -0.2559
   53MOL0     H 6945   2.604   9.399   2.602  0.8188 -1.0448 -4.0017
   53MOL0     H 6946   2.727   9.285   2.646 -1.0119 -0.1876 -1.6946
   53MOL0     H 6947   2.834   9.482   2.802 -0.6498  0.4509  3.4719
   53MOL0     H 6948   2.668   9.407   2.841 -0.4723  0.6136  1.1130
   53MOL0     H 6949   2.471   9.562   2.752  0.2798 -1.2753  2.7436
   53MOL0     H 6950   2.458   9.941   2.676 -1.8668 -0.0177 -3.8802
   53MOL0     H 6951   2.363   9.841   2.794  2.3220  0.3413  0.8954
   53MOL0     H 6952   2.322   9.682   2.600  0.9901  0.7109  3.3511
   53MOL0     H 6953   2.401   9.800   2.490 -0.5432 -0.9559 -0.5456
   53MOL0     H 6954   2.151   9.840   2.662  0.0196 -2.5735 -0.9387
   53MOL0     H 6955   2.252   9.972   2.621 -1.5282 -1.7981  5.6381
   53MOL0     H 6956   2.223   9.931   2.376  1.9133 -1.6057  2.4411
   53MOL0     H 6957   2.081   9.981   2.458  0.0774 -0.6037  1.7348
   53MOL0     H 6958   1.853   9.821   2.504 -2.0627  1.0262 -0.4825
   53MOL0     H 6959   1.638   9.828   2.371 -1.2932  2.0892 -2.1868
   53MOL0     H 6960   1.390  10.088   2.183  1.5024  0.3677 -2.8306
   53MOL0     H 6961   1.189  10.152   2.093 -0.7554 -1.2536  3.0381
   53MOL0     H 6962   0.923   9.817   1.943 -1.1091 -1.9342 -2.1550
   53MOL0     H 6963   0.984   9.893   1.795 -0.9271  0.8809 -0.3802
   53MOL0     H 6964   0.818  10.056   1.784 -2.0028  2.4460  1.1438
   53MOL0     H 6965   0.757  10.019   1.942  0.1618 -0.0828 -0.4490
   53MOL0     H 6966   0.724   9.868   1.687 -1.0758  1.5601 -1.2453
   53MOL0     H 6967   0.608   9.953   1.775  0.7743  0.9217 -0.3820
   53MOL0     H 6968   0.724   9.681   1.814 -0.3746  0.7704 -1.2906
   53MOL0     H 6969   0.667   9.752   1.958  0.6394  1.1244 -1.0130
   53MOL0     H 6970   0.504   9.702   1.710  0.3080  0.3737  0.1838
   53MOL0     H 6971   0.447   9.803   1.835  1.5096  1.1520 -3.8172
   53MOL0     H 6972   0.438   9.617   1.995  0.6222 -1.9417  0.8360
   53MOL0     H 6973   0.505   9.510   1.873 -0.7091 -0.0815  2.0859
   53MOL0     H 6974   0.262   9.687   1.824 -1.7359 -0.4559 -1.5339
   53MOL0     H 6975   0.325   9.545   1.723 -1.8736  2.5343 -0.5029
   53MOL0     H 6976   0.233   9.519   2.012  3.6087  2.2515 -1.7470
   53MOL0     H 6977   0.215   9.389   1.881 -0.9269 -0.5443  1.5100
   53MOL0     H 6978   1.120   9.752   1.951 -0.6665  0.6821 -2.0157
   53MOL0     H 6979   1.335   9.684   2.017 -0.6004  0.5470 -0.0960
   53MOL0     H 6980   1.868   9.794   2.006 -0.7865 -3.3094 -0.1937
   53MOL0     H 6981   2.066   9.781   2.128 -1.4441 -3.9366 -2.3062
   53MOL0     H 6982   3.510   8.953   2.431  3.1832 -0.4746  1.5780
   53MOL0     H 6983   3.658   8.782   2.345  2.8218 -0.5655  3.5536
   53MOL0     H 6984   3.682   8.425   1.986  0.0489  0.1063  0.5144
   53MOL0     H 6985   3.869   8.303   1.903  0.5742 -0.4218 -0.6388
   53MOL0     H 6986   4.150   8.147   2.230  1.0768  0.1366  0.5068
   53MOL0     H 6987   4.246   8.249   2.124  0.5734 -0.1732  2.2557
   53MOL0     H 6988   4.297   7.991   2.154 -0.9423  0.3879  0.7676
   53MOL0     H 6989   4.166   7.961   2.040 -1.4308  2.2251 -0.2511
   53MOL0     H 6990   4.412   7.972   1.958  0.6016  0.1652  0.4744
   53MOL0     H 6991   4.406   8.133   1.989  0.2599  1.0820 -1.4200
   53MOL0     H 6992   4.191   7.989   1.806  2.2559 -2.9526  2.9605
   53MOL0     H 6993   4.174   8.159   1.836 -0.4667 -0.8462  1.9947
   53MOL0     H 6994   4.513   8.169   1.594 -0.6191  3.1600  1.0586
   53MOL0     H 6995   4.007   8.274   2.319  0.2077  0.6275  1.1685
   53MOL0     H 6996   3.858   8.443   2.381  2.1136 -1.2964  0.2204
   54MOL0     O 6997   0.590   9.671   5.975 -0.2389 -0.3416 -0.6545
   54MOL0     C 6998   0.559   9.660   6.091  0.7268 -0.3756  0.2515
   54MOL0     O 6999   0.635   9.694   6.199 -0.4244 -0.2565  0.7921
   54MOL0     C 7000   0.767   9.719   6.176 -0.7721 -0.1545  0.0009
   54MOL0     C 7001   0.827   9.837   6.211  0.6578 -0.6928 -0.4733
   54MOL0     C 7002   0.959   9.855   6.200 -0.0837 -0.4145 -0.3079
   54MOL0     C 7003   1.042   9.772   6.130 -0.6248  0.7226  0.0377
   54MOL0     O 7004   1.169   9.795   6.090 -0.5946 -0.1728 -0.4271
   54MOL0     C 7005   1.251   9.874   6.178 -0.0124  0.1738 -0.1321
   54MOL0     C 7006   1.398   9.845   6.155  0.3244  0.0789  0.7238
   54MOL0     C 7007   1.430   9.697   6.177 -0.1451 -0.0503 -0.6660
   54MOL0     C 7008   1.575   9.684   6.203  0.5868  0.9999  0.0051
   54MOL0     C 7009   1.628   9.540   6.201  1.0615  0.3738 -0.4555
   54MOL0     C 7010   1.771   9.520   6.153 -0.0523 -0.1095  0.9537
   54MOL0     C 7011   1.881   9.586   6.236  0.4487 -0.0108  0.1255
   54MOL0     C 7012   2.015   9.544   6.189 -0.4322 -0.0963  0.2279
   54MOL0     N 7013   2.061   9.430   6.265  0.0845  0.2028  0.4670
   54MOL0     C 7014   2.051   9.300   6.212 -0.6416 -0.4286 -0.0076
   54MOL0     C 7015   2.101   9.216   6.305  0.6735  0.1916 -0.0697
   54MOL0     C 7016   2.106   9.067   6.294  0.9494 -0.6561  1.0085
   54MOL0     C 7017   1.998   8.982   6.377  0.2837 -0.4667 -0.3927
   54MOL0     C 7018   1.857   9.020   6.342  0.0293 -0.3049  0.5004
   54MOL0     C 7019   1.754   8.934   6.416  0.3872  0.1811 -0.7990
   54MOL0     O 7020   1.712   8.814   6.347  0.0001  0.2768 -0.6699
   54MOL0     C 7021   1.579   8.777   6.349  0.4120  0.1589 -0.5536
   54MOL0     C 7022   1.543   8.699   6.248  0.4903  0.2632  0.5994
   54MOL0     C 7023   1.408   8.683   6.214 -0.0293  0.0439 -0.2153
   54MOL0     C 7024   1.309   8.734   6.294  0.5349 -0.5288 -0.8922
   54MOL0     C 7025   1.166   8.706   6.271  0.8991 -0.1452  0.4873
   54MOL0     O 7026   1.082   8.783   6.347  0.6503 -0.1253  0.1721
   54MOL0     C 7027   0.942   8.781   6.341 -0.5073 -0.0703 -0.3917
   54MOL0     C 7028   0.887   8.877   6.425 -0.0767 -0.4336 -0.2580
   54MOL0     C 7029   0.747   8.892   6.442 -0.6922 -0.9369  0.3331
   54MOL0     C 7030   0.662   8.818   6.359 -0.1368 -0.3316  0.3959
   54MOL0     O 7031   0.526   8.842   6.372 -0.5471  0.3008  0.5824
   54MOL0     C 7032   0.444   8.734   6.342 -0.4446 -0.4279 -0.4124
   54MOL0     C 7033   0.319   8.764   6.430  0.0730  0.6078 -0.1727
   54MOL0     C 7034   0.224   8.870   6.375  0.0412  0.3630 -0.0247
   54MOL0     C 7035   0.109   8.908   6.469 -0.1355  0.0615  0.5607
   54MOL0     C 7036  -0.010   8.977   6.398  0.8948 -0.0830 -0.5001
   54MOL0     C 7037  -0.132   8.996   6.494 -0.2334 -0.2632 -0.2107
   54MOL0     C 7038  -0.262   9.035   6.421  0.7830  0.0969 -0.4615
   54MOL0     C 7039  -0.385   9.025   6.510 -0.2365 -0.2424  0.3931
   54MOL0    Cl 7040  -0.350   9.120   6.655  0.0460 -0.0672 -0.0788
   54MOL0     C 7041   0.717   8.722   6.270  0.5861 -0.2332 -0.8463
   54MOL0     C 7042   0.856   8.706   6.258 -0.2725 -0.0040  0.8624
   54MOL0     O 7043   1.144   8.621   6.188 -0.2708 -0.1501  0.0822
   54MOL0     C 7044   1.342   8.805   6.410 -0.2613  0.2982 -0.1991
   54MOL0     C 7045   1.473   8.833   6.438  0.6940 -0.8073 -0.3177
   54MOL0     N 7046   2.135   9.301   6.420  0.2487  0.1686 -0.3280
   54MOL0     N 7047   2.109   9.422   6.390  0.2065  0.2323 -0.2212
   54MOL0     C 7048   0.992   9.653   6.087  0.8609 -0.1876  0.0829
   54MOL0     C 7049   0.852   9.623   6.111  0.2007 -0.3445  0.9891
   54MOL0     C 7050   0.417   9.644   6.115  0.7632  0.0319  0.2118
   54MOL0     C 7051   0.323   9.643   6.010 -0.0741  0.0206 -0.7487
   54MOL0     C 7052   0.186   9.614   6.027  0.7909 -0.2044 -1.6246
   54MOL0     C 7053   0.148   9.578   6.162 -0.9283 -0.6108 -0.9437
   54MOL0     O 7054   0.014   9.558   6.179 -0.1713 -0.2924 -0.2739
   54MOL0     C 7055  -0.032   9.507   6.306 -0.2623 -0.1016  1.5679
   54MOL0     C 7056  -0.167   9.443   6.290 -0.6726 -0.0513 -0.3082
   54MOL0     C 7057  -0.292   9.535   6.310  0.0046  0.6821 -0.0538
   54MOL0     C 7058  -0.277   9.683   6.251  0.1194  0.5110 -0.9637
   54MOL0     C 7059  -0.410   9.749   6.266 -0.3194  0.0980  0.4025
   54MOL0     C 7060  -0.521   9.791   6.261 -0.7831  0.1900 -0.1716
   54MOL0     C 7061   0.240   9.579   6.267  0.0038 -0.3964 -0.1317
   54MOL0     C 7062   0.369   9.605   6.244 -0.1430 -0.2621 -0.3039
   54MOL0     H 7063   0.768   9.896   6.281 -0.1198 -2.2907  0.2646
   54MOL0     H 7064   1.000   9.948   6.237 -2.2615  0.8737 -0.9809
   54MOL0     H 7065   1.235   9.845   6.282 -0.9735  1.8494  0.2269
   54MOL0     H 7066   1.226   9.980   6.171 -0.9713 -0.1101 -1.4422
   54MOL0     H 7067   1.463   9.910   6.215  1.7195 -1.0852  0.5164
   54MOL0     H 7068   1.415   9.869   6.049 -0.5973 -1.0822  0.2878
   54MOL0     H 7069   1.404   9.642   6.087  3.0590 -0.8123 -1.2629
   54MOL0     H 7070   1.372   9.652   6.258  0.5580  1.2456  0.6286
   54MOL0     H 7071   1.618   9.743   6.121  1.9116 -0.0823 -0.1154
   54MOL0     H 7072   1.595   9.730   6.300  1.5552 -0.7640  0.6862
   54MOL0     H 7073   1.569   9.473   6.138  4.3675 -2.7426 -0.6351
   54MOL0     H 7074   1.626   9.491   6.299  3.4124 -1.4493 -1.2079
   54MOL0     H 7075   1.764   9.565   6.053 -1.2884  0.2502  1.2003
   54MOL0     H 7076   1.794   9.413   6.145 -1.2616 -0.4310  1.6844
   54MOL0     H 7077   1.871   9.694   6.220 -0.0466  0.1286  1.2799
   54MOL0     H 7078   1.866   9.573   6.344 -0.6875 -0.8071 -0.1140
   54MOL0     H 7079   2.085   9.626   6.210  0.9320 -0.2813 -2.9802
   54MOL0     H 7080   2.023   9.527   6.082  0.1822 -3.2684  0.6773
   54MOL0     H 7081   2.023   9.264   6.114 -1.7880  0.4160 -0.0094
   54MOL0     H 7082   2.208   9.029   6.305  1.9610  0.3320 -3.2067
   54MOL0     H 7083   2.085   9.059   6.187 -1.4901 -0.3849  1.4123
   54MOL0     H 7084   2.012   9.018   6.479 -1.2480 -0.2371 -0.2474
   54MOL0     H 7085   2.003   8.874   6.365 -2.8713 -0.7722  0.2164
   54MOL0     H 7086   1.833   9.123   6.368  0.3181 -0.4365  1.3199
   54MOL0     H 7087   1.840   9.013   6.235 -1.8963  1.1374  0.6525
   54MOL0     H 7088   1.668   9.001   6.415 -0.8903 -1.3897 -2.3335
   54MOL0     H 7089   1.785   8.911   6.518 -0.7573 -2.3886 -0.9398
   54MOL0     H 7090   1.624   8.657   6.189  0.1999  2.6104 -1.6399
   54MOL0     H 7091   1.377   8.623   6.129  2.1466  0.9908 -1.7784
   54MOL0     H 7092   0.953   8.938   6.486  1.1283 -0.6817 -1.2646
   54MOL0     H 7093   0.700   8.964   6.509  0.2179  0.4410 -0.4603
   54MOL0     H 7094   0.484   8.635   6.364 -2.9884 -1.7385 -1.2561
   54MOL0     H 7095   0.409   8.731   6.238 -0.3333  0.9917 -0.5014
   54MOL0     H 7096   0.353   8.795   6.529  4.1149 -0.6407 -0.9736
   54MOL0     H 7097   0.250   8.682   6.451  0.2611  0.4667 -0.1096
   54MOL0     H 7098   0.183   8.813   6.291 -0.7146 -2.2497  1.9697
   54MOL0     H 7099   0.279   8.960   6.349  0.8646 -0.5621 -1.6566
   54MOL0     H 7100   0.055   8.822   6.511 -0.3136  0.0258  0.2568
   54MOL0     H 7101   0.144   8.971   6.552 -2.0400  2.1722 -0.1407
   54MOL0     H 7102  -0.041   8.921   6.309 -0.9918  0.0514  0.0345
   54MOL0     H 7103   0.017   9.074   6.355  0.1761  0.1458 -0.4346
   54MOL0     H 7104  -0.097   9.073   6.564  1.7751  1.0590 -2.5123
   54MOL0     H 7105  -0.147   8.905   6.553  1.1008 -0.2100  0.2428
   54MOL0     H 7106  -0.253   9.142   6.402 -0.0297 -0.0131 -1.5407
   54MOL0     H 7107  -0.279   8.991   6.322  2.2560 -0.3112 -0.5534
   54MOL0     H 7108  -0.407   8.920   6.529 -4.4259 -0.1393 -2.4549
   54MOL0     H 7109  -0.474   9.068   6.461 -2.2332  3.6916  6.3522
   54MOL0     H 7110   0.650   8.667   6.205  1.2039 -1.1356 -0.7319
   54MOL0     H 7111   0.898   8.645   6.179 -4.0326 -2.0205  0.1754
   54MOL0     H 7112   1.260   8.840   6.472 -1.0614  1.9548 -2.0962
   54MOL0     H 7113   1.491   8.908   6.514 -1.0234 -1.9720  1.3338
   54MOL0     H 7114   1.056   9.584   6.032  0.2576 -0.7166  0.0255
   54MOL0     H 7115   0.817   9.523   6.084  1.3052 -0.4862 -0.0156
   54MOL0     H 7116   0.367   9.675   5.916  0.3943  0.9355 -0.2318
   54MOL0     H 7117   0.112   9.622   5.948 -0.6245  0.2557 -0.2735
   54MOL0     H 7118  -0.036   9.587   6.380  2.8545  0.2154  1.4907
   54MOL0     H 7119   0.040   9.433   6.342  0.1662 -0.1889  0.5593
   54MOL0     H 7120  -0.164   9.395   6.192  3.5758  0.8197 -0.8132
   54MOL0     H 7121  -0.167   9.360   6.361 -1.6854 -1.7239 -2.1789
   54MOL0     H 7122  -0.322   9.528   6.415 -0.4751 -0.2951 -0.2382
   54MOL0     H 7123  -0.375   9.490   6.254  0.7953 -0.5071 -0.3214
   54MOL0     H 7124  -0.205   9.742   6.308 -0.2705 -1.3490  1.6730
   54MOL0     H 7125  -0.241   9.681   6.148  2.0564 -0.4199 -0.3308
   54MOL0     H 7126  -0.626   9.813   6.267 -0.6215  0.6527  1.3014
   54MOL0     H 7127   0.205   9.560   6.368 -2.4894 -0.2758 -0.8933
   54MOL0     H 7128   0.430   9.591   6.333 -0.7159  0.5428  0.2286
   55MOL0     O 7129   5.481  11.269   2.457  0.8118 -0.4748 -0.7744
   55MOL0     C 7130   5.530  11.164   2.422 -0.5365 -0.7977 -0.7598
   55MOL0     O 7131   5.467  11.061   2.356  0.0293 -0.1202 -0.1044
   55MOL0     C 7132   5.331  11.069   2.355  0.0097 -0.0236 -0.4195
   55MOL0     C 7133   5.253  11.074   2.469 -0.1201  0.2443  0.3886
   55MOL0     C 7134   5.116  11.091   2.469 -0.8803  0.7819  0.1037
   55MOL0     C 7135   5.055  11.112   2.345  0.2330  0.7285  0.9044
   55MOL0     O 7136   4.922  11.134   2.350 -0.0500 -0.4733 -0.1065
   55MOL0     C 7137   4.850  11.144   2.233  0.0643 -0.4444  0.0156
   55MOL0     C 7138   4.713  11.167   2.284 -0.1433 -0.5165  0.1444
   55MOL0     C 7139   4.607  11.189   2.172 -0.9828  0.3522 -0.1877
   55MOL0     C 7140   4.479  11.224   2.233  0.3124 -0.1638  0.3943
   55MOL0     C 7141   4.374  11.247   2.128  0.4403 -0.2724 -0.6877
   55MOL0     C 7142   4.357  11.140   2.026 -0.6290  0.1742 -0.7285
   55MOL0     C 7143   4.227  11.158   1.937 -0.1944  0.4106 -0.0376
   55MOL0     C 7144   4.108  11.121   2.019 -0.1547 -0.0205 -0.0060
   55MOL0     N 7145   3.982  11.137   1.942  0.7515 -0.0487  0.9895
   55MOL0     C 7146   3.887  11.239   1.953 -0.4676  0.1664  0.0633
   55MOL0     C 7147   3.804  11.235   1.849  0.4350  0.5247  0.3524
   55MOL0     C 7148   3.694  11.324   1.818  0.2958 -0.4411 -0.5390
   55MOL0     C 7149   3.560  11.262   1.833  0.0939  0.1209  0.2480
   55MOL0     C 7150   3.461  11.374   1.807 -1.7464 -0.5457 -0.0506
   55MOL0     C 7151   3.322  11.315   1.792 -1.0456 -0.1952 -0.0008
   55MOL0     O 7152   3.228  11.408   1.756 -0.7289 -0.5111 -0.0532
   55MOL0     C 7153   3.169  11.491   1.848  0.3058 -0.0369  0.4295
   55MOL0     C 7154   3.195  11.496   1.984  1.2896 -0.3695 -0.6610
   55MOL0     C 7155   3.147  11.597   2.064 -0.4880 -0.3252 -0.3113
   55MOL0     C 7156   3.048  11.685   2.024  0.2230  0.1699  0.7690
   55MOL0     C 7157   2.984  11.786   2.119 -0.4533  0.2583 -0.2922
   55MOL0     O 7158   2.872  11.846   2.068  0.1637  0.0402  0.4861
   55MOL0     C 7159   2.776  11.906   2.148 -0.8747 -0.2585  0.1200
   55MOL0     C 7160   2.644  11.898   2.106 -0.8358  1.2590  0.2489
   55MOL0     C 7161   2.546  11.963   2.183 -0.2686 -0.4201  0.3374
   55MOL0     C 7162   2.571  12.042   2.292 -0.4258  0.6057  0.1086
   55MOL0     O 7163   2.467  12.114   2.344 -0.2462  0.8331 -0.1387
   55MOL0     C 7164   2.480  12.159   2.477 -0.6987  2.0778 -0.4008
   55MOL0     C 7165   2.471  12.059   2.596 -0.5178  0.1427 -0.9515
   55MOL0     C 7166   2.372  11.942   2.597  0.5176 -0.3103  0.4288
   55MOL0     C 7167   2.235  11.977   2.663 -1.2229 -0.4725  0.6678
   55MOL0     C 7168   2.160  12.064   2.559  0.7519 -0.3653 -0.2725
   55MOL0     C 7169   2.033  12.125   2.619 -0.4889  0.0451  0.1091
   55MOL0     C 7170   1.948  12.035   2.708  0.1681  0.4928  0.5633
   55MOL0     C 7171   1.809  12.096   2.747  0.6667  0.5883 -0.2863
   55MOL0    Cl 7172   1.690  12.007   2.847 -0.0240 -0.1337 -0.3144
   55MOL0     C 7173   2.707  12.051   2.331 -0.9713  0.8240 -0.2736
   55MOL0     C 7174   2.811  11.978   2.264  0.2348  0.2967 -0.1194
   55MOL0     O 7175   3.025  11.802   2.235 -0.3873 -1.0995 -0.9431
   55MOL0     C 7176   3.018  11.675   1.881 -0.0125 -0.7834 -0.7313
   55MOL0     C 7177   3.071  11.588   1.796 -0.4004 -1.0129 -0.2090
   55MOL0     N 7178   3.837  11.112   1.789 -0.4999  0.2469  0.1437
   55MOL0     N 7179   3.931  11.047   1.850  0.0555  0.0077 -0.7513
   55MOL0     C 7180   5.124  11.093   2.227  0.0418 -0.0040 -0.6105
   55MOL0     C 7181   5.263  11.077   2.232 -0.0589 -0.1748 -0.1754
   55MOL0     C 7182   5.672  11.149   2.463  0.5389 -0.1106  0.3403
   55MOL0     C 7183   5.751  11.255   2.495  0.4915 -0.3354 -0.0325
   55MOL0     C 7184   5.885  11.226   2.538  0.5091  0.3434  0.4559
   55MOL0     C 7185   5.936  11.096   2.521  0.8029 -0.3745 -0.9890
   55MOL0     O 7186   6.068  11.068   2.546 -0.7085  0.4354  0.6455
   55MOL0     C 7187   6.169  11.163   2.589 -0.0424  0.0254 -0.2562
   55MOL0     C 7188   6.294  11.071   2.600 -0.0413 -0.4023 -0.7118
   55MOL0     C 7189   6.331  11.011   2.469  1.0683 -0.2765  0.0014
   55MOL0     C 7190   6.453  10.930   2.469  0.0927  0.1289  0.7130
   55MOL0     C 7191   6.570  11.014   2.509  0.3838  0.2634 -0.7790
   55MOL0     C 7192   6.648  11.104   2.535 -0.1085  0.3982 -0.5167
   55MOL0     C 7193   5.857  10.995   2.477 -0.2476  0.7935 -0.5518
   55MOL0     C 7194   5.727  11.018   2.455  1.1391  0.1171 -0.0065
   55MOL0     H 7195   5.318  11.064   2.556 -0.8494 -0.1986  0.8988
   55MOL0     H 7196   5.061  11.095   2.562 -1.7120  2.4914 -0.4082
   55MOL0     H 7197   4.857  11.052   2.174 -3.2192 -2.0979  1.9425
   55MOL0     H 7198   4.885  11.231   2.176  1.6171 -1.5705 -0.8252
   55MOL0     H 7199   4.706  11.247   2.358 -0.5631 -0.8277  0.4473
   55MOL0     H 7200   4.686  11.081   2.347 -0.4741 -1.4018 -1.1817
   55MOL0     H 7201   4.606  11.099   2.109 -1.9823 -1.0701  1.7401
   55MOL0     H 7202   4.636  11.270   2.105 -0.5071  0.5541  0.2646
   55MOL0     H 7203   4.446  11.151   2.306  1.0750  3.2308  4.5187
   55MOL0     H 7204   4.494  11.315   2.293  0.1580 -1.2104  2.0778
   55MOL0     H 7205   4.396  11.337   2.070  2.0782 -1.8328 -2.6566
   55MOL0     H 7206   4.280  11.261   2.181  1.2788  0.7989  0.5771
   55MOL0     H 7207   4.349  11.040   2.069 -0.6779  0.7609  0.6569
   55MOL0     H 7208   4.445  11.141   1.961  0.3171  1.3995  0.5069
   55MOL0     H 7209   4.234  11.258   1.894  5.2594  0.4409  0.2520
   55MOL0     H 7210   4.235  11.090   1.852  1.9240  0.2673  0.2291
   55MOL0     H 7211   4.101  11.185   2.107  0.2758  0.2551 -0.1719
   55MOL0     H 7212   4.104  11.017   2.053 -1.9728 -0.2061 -0.6613
   55MOL0     H 7213   3.883  11.329   2.013 -1.9350  2.2312 -2.9041
   55MOL0     H 7214   3.718  11.359   1.717  3.4079  0.2169  0.3170
   55MOL0     H 7215   3.704  11.411   1.882  0.0114 -0.0823 -0.9752
   55MOL0     H 7216   3.557  11.219   1.934  3.5457 -0.0093  0.4444
   55MOL0     H 7217   3.550  11.178   1.764 -2.3353  0.0410  0.6288
   55MOL0     H 7218   3.460  11.449   1.887 -1.1788  0.7679 -1.2342
   55MOL0     H 7219   3.488  11.417   1.710 -2.1639  1.8105  0.8080
   55MOL0     H 7220   3.287  11.259   1.879  0.8219 -1.6081 -0.0945
   55MOL0     H 7221   3.328  11.238   1.714 -1.0460  0.0655 -0.2610
   55MOL0     H 7222   3.257  11.415   2.022  0.3589 -1.2240 -0.9409
   55MOL0     H 7223   3.191  11.599   2.163  0.1363  0.9760 -0.5916
   55MOL0     H 7224   2.618  11.854   2.011 -1.8290  2.8736 -0.2800
   55MOL0     H 7225   2.444  11.953   2.147  0.2042 -2.2571 -0.6032
   55MOL0     H 7226   2.391  12.216   2.503 -1.3403 -0.4123  3.8361
   55MOL0     H 7227   2.569  12.218   2.502 -0.7470  0.8453  3.4778
   55MOL0     H 7228   2.463  12.113   2.691  0.2201 -0.0666 -0.7648
   55MOL0     H 7229   2.568  12.008   2.596 -1.4601 -1.7655  0.1449
   55MOL0     H 7230   2.412  11.856   2.651  0.5170  0.0253  0.9728
   55MOL0     H 7231   2.350  11.917   2.493 -0.0641  0.9159  0.2384
   55MOL0     H 7232   2.175  11.892   2.699 -2.4609  0.5822  1.1798
   55MOL0     H 7233   2.272  12.032   2.750  2.9138 -2.5254  0.4455
   55MOL0     H 7234   2.140  11.989   2.481  4.4943 -1.1652 -0.6887
   55MOL0     H 7235   2.210  12.152   2.516  0.7546  1.1098  2.5772
   55MOL0     H 7236   1.968  12.157   2.537 -0.9163  0.2684  0.5304
   55MOL0     H 7237   2.058  12.215   2.676 -2.9979  0.6009  0.4396
   55MOL0     H 7238   1.928  11.938   2.661 -0.1285 -0.5934  2.7920
   55MOL0     H 7239   2.007  12.019   2.798 -2.2466 -1.6070  1.8947
   55MOL0     H 7240   1.761  12.115   2.650  1.9690  0.5457 -0.9634
   55MOL0     H 7241   1.808  12.192   2.798  2.1684  1.3693 -1.6293
   55MOL0     H 7242   2.739  12.105   2.420  0.1226  1.9244 -1.2955
   55MOL0     H 7243   2.913  11.986   2.301 -0.4072  0.6260  1.7317
   55MOL0     H 7244   2.931  11.730   1.846 -2.7050 -2.6400  2.4279
   55MOL0     H 7245   3.036  11.594   1.694 -1.7492 -0.0207  0.2778
   55MOL0     H 7246   5.084  11.105   2.127  0.9210  0.2710 -0.9460
   55MOL0     H 7247   5.320  11.082   2.140  1.3819 -0.2061  0.6777
   55MOL0     H 7248   5.708  11.355   2.489  0.9900 -0.2223 -3.9003
   55MOL0     H 7249   5.951  11.309   2.563  2.0529 -1.3739  2.4986
   55MOL0     H 7250   6.149  11.198   2.690  1.0436 -2.5400  0.9622
   55MOL0     H 7251   6.182  11.243   2.515 -0.1744  1.0079  0.7696
   55MOL0     H 7252   6.371  11.140   2.633 -1.3914  0.3958  0.9077
   55MOL0     H 7253   6.286  10.992   2.675 -2.4704 -0.3647 -0.8258
   55MOL0     H 7254   6.318  11.093   2.398 -0.5769 -0.7369 -0.2871
   55MOL0     H 7255   6.256  10.941   2.430 -1.0921  2.7312 -1.6156
   55MOL0     H 7256   6.443  10.852   2.545 -2.1557  1.1253  1.5110
   55MOL0     H 7257   6.467  10.890   2.368 -1.4369  1.1039  0.0784
   55MOL0     H 7258   6.727  11.176   2.542 -0.3485  0.6846 -0.7587
   55MOL0     H 7259   5.896  10.893   2.476 -4.7699 -1.2021  1.0253
   55MOL0     H 7260   5.662  10.935   2.433 -0.3105  1.4198 -0.7918
   56MOL0     O 7261   3.280   7.812   9.504 -0.0174  0.7791  0.5534
   56MOL0     C 7262   3.301   7.715   9.574 -0.7456  0.1233  0.0011
   56MOL0     O 7263   3.206   7.639   9.629 -0.3733  0.8656  0.3076
   56MOL0     C 7264   3.072   7.666   9.633  0.7229 -0.2251 -0.3255
   56MOL0     C 7265   3.009   7.792   9.626 -0.6313  0.5030 -0.3282
   56MOL0     C 7266   2.871   7.813   9.613  0.1751  0.0028  0.6680
   56MOL0     C 7267   2.794   7.695   9.610  0.0374 -0.5190 -1.0716
   56MOL0     O 7268   2.654   7.714   9.591 -0.1960  0.1223  0.4079
   56MOL0     C 7269   2.560   7.613   9.549 -0.0969 -0.3534 -0.0047
   56MOL0     C 7270   2.499   7.566   9.678 -0.5058 -0.2638  0.3487
   56MOL0     C 7271   2.426   7.673   9.751  0.2928  0.1858 -0.0124
   56MOL0     C 7272   2.391   7.628   9.902  0.6827 -0.3043 -0.4331
   56MOL0     C 7273   2.453   7.718  10.008 -0.2120 -0.3192 -0.4552
   56MOL0     C 7274   2.353   7.831  10.054  0.1501 -0.2510  0.3243
   56MOL0     C 7275   2.255   7.801  10.168  0.0602  0.9809 -0.2177
   56MOL0     C 7276   2.248   7.653  10.203 -0.1079 -0.9061  0.1609
   56MOL0     N 7277   2.124   7.617  10.279 -0.1504  0.2288 -0.2874
   56MOL0     C 7278   2.001   7.606  10.225  1.1822  0.3304  0.1460
   56MOL0     C 7279   1.925   7.550  10.322 -0.6495 -0.3201  0.5671
   56MOL0     C 7280   1.778   7.522  10.303 -1.4593  0.1666  0.0354
   56MOL0     C 7281   1.703   7.632  10.378  0.0029  0.1428  0.2592
   56MOL0     C 7282   1.721   7.628  10.533  0.2605  0.5857 -0.7199
   56MOL0     C 7283   1.698   7.488  10.599  1.0989  0.9179 -0.1766
   56MOL0     O 7284   1.602   7.402  10.542 -0.0601 -0.1094  0.4420
   56MOL0     C 7285   1.470   7.405  10.579 -0.0370  0.0949  0.0838
   56MOL0     C 7286   1.411   7.478  10.683 -0.4840  0.4974  0.2634
   56MOL0     C 7287   1.271   7.482  10.704  0.2044  0.2554 -0.3686
   56MOL0     C 7288   1.195   7.392  10.629  0.7149 -0.7714  0.0940
   56MOL0     C 7289   1.055   7.368  10.654 -0.2176  0.0488  0.3706
   56MOL0     O 7290   1.013   7.390  10.776  0.6627 -0.1284 -0.3217
   56MOL0     C 7291   0.886   7.363  10.826  0.1388  0.7547 -0.5678
   56MOL0     C 7292   0.841   7.448  10.927 -0.6574 -0.6208 -0.0560
   56MOL0     C 7293   0.714   7.451  10.985 -0.2392 -0.8734  0.3714
   56MOL0     C 7294   0.618   7.359  10.945  1.0359  0.3648 -0.4312
   56MOL0     O 7295   0.486   7.359  10.996  0.1803  0.3679 -1.0163
   56MOL0     C 7296   0.405   7.236  10.992  0.4002 -0.1014 -0.9606
   56MOL0     C 7297   0.290   7.268  11.084 -0.3456 -0.5949  0.1595
   56MOL0     C 7298   0.204   7.140  11.103  0.4325 -0.4056 -0.3214
   56MOL0     C 7299   0.118   7.151  11.230  0.6144 -0.0738 -0.2141
   56MOL0     C 7300   0.005   7.052  11.216 -0.3484 -0.2688 -0.5195
   56MOL0     C 7301  -0.088   7.051  11.331  0.0202 -0.7155  0.0846
   56MOL0     C 7302  -0.167   6.911  11.335 -0.4579 -0.4951  0.0497
   56MOL0     C 7303  -0.227   6.880  11.471  1.0553  0.6698  0.3638
   56MOL0    Cl 7304  -0.343   7.012  11.521  0.1748 -0.1118  0.0037
   56MOL0     C 7305   0.663   7.265  10.847  0.4327 -0.4177  0.9502
   56MOL0     C 7306   0.791   7.266  10.780  0.2849  0.4836  0.0022
   56MOL0     O 7307   0.983   7.328  10.556  0.8584  0.8052 -0.2315
   56MOL0     C 7308   1.251   7.319  10.523  0.0894 -0.4041 -0.1508
   56MOL0     C 7309   1.388   7.328  10.501  0.1847 -0.1972  0.7020
   56MOL0     N 7310   2.001   7.538  10.436  0.2085 -0.0343 -0.4905
   56MOL0     N 7311   2.123   7.570  10.404 -0.0590  0.0644  0.0276
   56MOL0     C 7312   2.850   7.568   9.645 -0.2995  0.1589  0.1411
   56MOL0     C 7313   2.986   7.553   9.647  0.0991 -0.6408 -0.2739
   56MOL0     C 7314   3.437   7.672   9.591  0.1719  0.1715  0.6147
   56MOL0     C 7315   3.464   7.595   9.701 -0.4374  0.7797 -0.2661
   56MOL0     C 7316   3.594   7.546   9.717  0.3659 -0.0093 -0.0327
   56MOL0     C 7317   3.700   7.590   9.632 -1.3042 -0.1717 -0.2069
   56MOL0     O 7318   3.824   7.545   9.654 -0.1841  0.0546  0.8077
   56MOL0     C 7319   3.895   7.594   9.766  0.2639  0.1272 -0.0716
   56MOL0     C 7320   4.032   7.536   9.729  0.0347 -0.9508 -1.0171
   56MOL0     C 7321   4.124   7.557   9.850  0.3085  0.2992 -0.0913
   56MOL0     C 7322   4.278   7.576   9.812 -0.2247  0.2749 -0.1070
   56MOL0     C 7323   4.359   7.598   9.933 -1.0340 -0.5965  0.0881
   56MOL0     C 7324   4.440   7.621  10.027  0.3647  0.3688 -0.1623
   56MOL0     C 7325   3.671   7.654   9.515 -0.0512 -0.4550  0.2605
   56MOL0     C 7326   3.543   7.699   9.497 -0.0121 -0.2610 -0.2891
   56MOL0     H 7327   3.065   7.884   9.610  0.3051 -0.3334 -2.0422
   56MOL0     H 7328   2.829   7.910   9.590  0.8684  0.6285  1.9247
   56MOL0     H 7329   2.609   7.533   9.493 -2.5620 -3.0962  1.5114
   56MOL0     H 7330   2.489   7.664   9.483  0.7067  1.2784  0.3443
   56MOL0     H 7331   2.582   7.524   9.736  0.4748  0.9428 -0.1329
   56MOL0     H 7332   2.432   7.482   9.657 -2.0830  1.1571 -0.5002
   56MOL0     H 7333   2.336   7.700   9.695  0.1598  0.3606  0.2864
   56MOL0     H 7334   2.483   7.765   9.759  1.1264 -0.3762  0.7564
   56MOL0     H 7335   2.283   7.613   9.909  0.0982  2.7890 -1.3292
   56MOL0     H 7336   2.445   7.534   9.920  2.4762  0.6055 -0.8630
   56MOL0     H 7337   2.551   7.760   9.981 -0.1321 -0.4176 -0.3203
   56MOL0     H 7338   2.479   7.664  10.100  2.3328  1.8020  0.2040
   56MOL0     H 7339   2.305   7.876   9.966  0.7904 -0.6820 -0.2542
   56MOL0     H 7340   2.407   7.912  10.103  0.2869  0.1163 -0.4184
   56MOL0     H 7341   2.266   7.864  10.256  1.3337  2.4646 -1.3770
   56MOL0     H 7342   2.159   7.831  10.124 -0.5435  1.6587  1.4870
   56MOL0     H 7343   2.337   7.624  10.259  0.8001 -1.4307 -1.4703
   56MOL0     H 7344   2.234   7.587  10.117  0.2352 -1.0357  0.2048
   56MOL0     H 7345   1.968   7.641  10.128 -1.2244 -0.3197  0.6740
   56MOL0     H 7346   1.740   7.422  10.327 -1.1380  0.1055  0.2954
   56MOL0     H 7347   1.747   7.533  10.199  1.0505  2.0061 -0.5965
   56MOL0     H 7348   1.595   7.619  10.363 -0.2198  0.9034  1.1052
   56MOL0     H 7349   1.734   7.732  10.346 -0.9934  0.9825  1.8100
   56MOL0     H 7350   1.818   7.674  10.555  0.6254 -1.1449  1.7847
   56MOL0     H 7351   1.638   7.690  10.569 -0.4029 -0.0054 -1.2001
   56MOL0     H 7352   1.675   7.496  10.706 -1.3704  1.2736 -0.6756
   56MOL0     H 7353   1.785   7.421  10.592 -1.0756 -2.1202  0.0862
   56MOL0     H 7354   1.472   7.546  10.742 -1.4216  3.8076 -2.2212
   56MOL0     H 7355   1.224   7.550  10.774  0.3068 -1.5518  1.5457
   56MOL0     H 7356   0.907   7.527  10.961 -1.2222 -0.3030  0.3296
   56MOL0     H 7357   0.685   7.523  11.061  1.9128 -0.2588  0.6742
   56MOL0     H 7358   0.470   7.155  11.026  0.9413 -0.2780 -2.3619
   56MOL0     H 7359   0.371   7.213  10.891 -1.3981 -0.6181 -0.2791
   56MOL0     H 7360   0.229   7.353  11.053 -0.1405 -0.6280 -0.3430
   56MOL0     H 7361   0.335   7.296  11.180  0.3383 -0.2496 -0.2529
   56MOL0     H 7362   0.261   7.049  11.125 -2.2071 -2.1880 -0.3736
   56MOL0     H 7363   0.141   7.128  11.014 -1.9231  4.2602  0.4024
   56MOL0     H 7364   0.181   7.131  11.317 -0.8286  0.7790  1.0803
   56MOL0     H 7365   0.081   7.253  11.243 -0.5651 -0.5817  0.5723
   56MOL0     H 7366   0.054   6.955  11.203 -0.3913 -0.1493 -1.7348
   56MOL0     H 7367  -0.043   7.083  11.122  0.6580  2.7493 -0.1646
   56MOL0     H 7368  -0.164   7.127  11.309  0.9067 -0.0177 -0.6262
   56MOL0     H 7369  -0.035   7.073  11.424  2.0857 -0.1592 -1.1584
   56MOL0     H 7370  -0.251   6.899  11.265 -2.1688  1.4875  1.6170
   56MOL0     H 7371  -0.091   6.835  11.316  0.2417  0.8301 -3.1492
   56MOL0     H 7372  -0.146   6.867  11.543  2.5575 -1.2323 -1.5405
   56MOL0     H 7373  -0.280   6.784  11.476 -0.0311  1.3048  1.6972
   56MOL0     H 7374   0.590   7.198  10.802 -0.6000  1.9010 -1.0694
   56MOL0     H 7375   0.817   7.194  10.704  1.0023  0.5499  0.1827
   56MOL0     H 7376   1.192   7.248  10.466  0.6307  0.7017 -2.1887
   56MOL0     H 7377   1.437   7.271  10.422  2.2374  1.9283  0.3242
   56MOL0     H 7378   2.787   7.479   9.641  1.8849 -1.4481 -0.4879
   56MOL0     H 7379   3.040   7.459   9.653  2.3342  0.6869  3.2544
   56MOL0     H 7380   3.397   7.566   9.780 -1.3735  1.7894 -0.6707
   56MOL0     H 7381   3.612   7.476   9.798  0.6270 -0.3087 -0.3412
   56MOL0     H 7382   3.856   7.554   9.860 -2.0103  1.8998 -0.1798
   56MOL0     H 7383   3.895   7.703   9.776  0.7059  0.0693  0.6241
   56MOL0     H 7384   4.021   7.433   9.693 -3.2364 -1.2100  0.3419
   56MOL0     H 7385   4.072   7.598   9.649 -1.0614 -1.2458 -1.8237
   56MOL0     H 7386   4.109   7.472   9.918  1.6726  1.2783  1.5113
   56MOL0     H 7387   4.087   7.648   9.898 -1.8471 -0.4925 -0.1153
   56MOL0     H 7388   4.306   7.482   9.764 -0.7856 -0.1445  0.3664
   56MOL0     H 7389   4.287   7.667   9.753  1.1492  0.7224  0.7486
   56MOL0     H 7390   4.505   7.647  10.108 -0.5400  1.6858  0.1840
   56MOL0     H 7391   3.752   7.668   9.443 -0.2701  0.5579  0.2045
   56MOL0     H 7392   3.519   7.757   9.408 -0.5967  0.0315  0.0564
   57MOL0     O 7393   7.829  10.318   0.008 -0.5962  0.2167  0.3656
   57MOL0     C 7394   7.810  10.364   0.117 -0.3091 -0.0610  0.0526
   57MOL0     O 7395   7.715  10.318   0.205 -0.6799 -0.2357  0.7475
   57MOL0     C 7396   7.646  10.208   0.172  0.2242 -0.3236  0.6991
   57MOL0     C 7397   7.693  10.089   0.207  0.1895 -0.9243 -0.4260
   57MOL0     C 7398   7.615   9.978   0.174 -0.5122 -1.0788  0.1378
   57MOL0     C 7399   7.492   9.975   0.115 -0.0873 -0.2595 -0.5426
   57MOL0     O 7400   7.431   9.851   0.108  1.2764  0.1964  0.3003
   57MOL0     C 7401   7.303   9.848   0.039  0.0518  0.6934 -0.0265
   57MOL0     C 7402   7.258   9.700   0.009  0.1531  0.1551  0.1558
   57MOL0     C 7403   7.363   9.599  -0.021 -0.1958 -0.1042  0.0360
   57MOL0     C 7404   7.304   9.460  -0.062  0.5809  0.3311  0.7459
   57MOL0     C 7405   7.417   9.365  -0.104 -0.8990 -0.7941  0.0326
   57MOL0     C 7406   7.527   9.410  -0.206  0.1264 -0.3747 -0.0183
   57MOL0     C 7407   7.474   9.443  -0.342 -0.9799  1.1142 -0.7750
   57MOL0     C 7408   7.592   9.479  -0.437 -0.2759 -0.0883 -0.6767
   57MOL0     N 7409   7.559   9.510  -0.576 -0.0473  0.0268 -0.2094
   57MOL0     C 7410   7.465   9.439  -0.646  0.2291  0.7555  0.1628
   57MOL0     C 7411   7.482   9.490  -0.772 -0.0847 -0.0089  0.1787
   57MOL0     C 7412   7.411   9.465  -0.902 -0.8261  0.5451  0.1741
   57MOL0     C 7413   7.271   9.526  -0.902 -0.1926  0.2440 -0.9783
   57MOL0     C 7414   7.194   9.508  -1.028  0.1380  0.2549 -0.3604
   57MOL0     C 7415   7.066   9.592  -1.026 -0.0474  0.0717  0.0803
   57MOL0     O 7416   6.987   9.531  -0.923  0.3049 -0.5777  0.1684
   57MOL0     C 7417   6.850   9.543  -0.919  0.4127 -1.3062  0.3103
   57MOL0     C 7418   6.769   9.630  -0.989  0.4886 -0.2021 -0.4465
   57MOL0     C 7419   6.632   9.655  -0.963  0.0754  0.8539  0.6970
   57MOL0     C 7420   6.566   9.584  -0.856 -0.7304 -0.1568  0.0481
   57MOL0     C 7421   6.433   9.624  -0.795 -0.1907 -0.8049 -0.0707
   57MOL0     O 7422   6.403   9.752  -0.809  0.5020  0.3791 -0.2133
   57MOL0     C 7423   6.276   9.771  -0.759  0.5273 -0.2763  0.3591
   57MOL0     C 7424   6.250   9.770  -0.622 -0.1280 -0.1715  0.2655
   57MOL0     C 7425   6.120   9.799  -0.578 -0.2432  0.7447  0.2567
   57MOL0     C 7426   6.014   9.823  -0.668 -0.2205  0.2580 -0.1040
   57MOL0     O 7427   5.902   9.866  -0.607  0.0479 -0.4332 -0.2864
   57MOL0     C 7428   5.802   9.930  -0.693  1.2694  1.3093  0.5338
   57MOL0     C 7429   5.665   9.923  -0.619  0.6378  0.1835 -0.0612
   57MOL0     C 7430   5.651  10.007  -0.482  0.0172 -0.0612 -0.0087
   57MOL0     C 7431   5.679  10.158  -0.517  0.4079  0.7928 -0.3284
   57MOL0     C 7432   5.615  10.245  -0.407 -0.1484  0.4842  0.2427
   57MOL0     C 7433   5.622  10.387  -0.461  0.0004 -1.2645 -0.3953
   57MOL0     C 7434   5.594  10.486  -0.342  0.3712  1.1277  0.0456
   57MOL0     C 7435   5.437  10.513  -0.351 -0.3350  0.0207 -0.5188
   57MOL0    Cl 7436   5.325  10.377  -0.300 -0.3961 -0.0629  0.0193
   57MOL0     C 7437   6.049   9.844  -0.798  0.1562  0.4418  0.4475
   57MOL0     C 7438   6.179   9.816  -0.848 -0.7951 -0.3696 -0.4647
   57MOL0     O 7439   6.373   9.536  -0.741  0.1790 -0.8066  0.0790
   57MOL0     C 7440   6.646   9.496  -0.781 -0.1468 -0.2721  0.1581
   57MOL0     C 7441   6.780   9.477  -0.819  0.2770 -0.0843  0.0398
   57MOL0     N 7442   7.583   9.582  -0.775  0.2716  0.3872 -0.2381
   57MOL0     N 7443   7.632   9.589  -0.659  0.2395  0.0515 -0.4422
   57MOL0     C 7444   7.441  10.097   0.082  0.3618 -0.4379 -0.4999
   57MOL0     C 7445   7.524  10.213   0.103  0.1866 -0.3078 -0.3881
   57MOL0     C 7446   7.896  10.468   0.166 -0.4655  0.0559 -0.1629
   57MOL0     C 7447   7.889  10.497   0.311 -0.5505 -0.3379 -0.6926
   57MOL0     C 7448   7.970  10.603   0.355  0.4210 -0.3811  0.1421
   57MOL0     C 7449   8.054  10.667   0.276 -1.3043 -0.3176 -0.2330
   57MOL0     O 7450   8.125  10.766   0.345  0.5276 -0.6411  0.0123
   57MOL0     C 7451   8.189  10.872   0.268  0.0758  0.8392 -0.4252
   57MOL0     C 7452   8.325  10.824   0.219  0.4976  0.5072  0.4407
   57MOL0     C 7453   8.434  10.827   0.333  0.2199  0.0943  0.2208
   57MOL0     C 7454   8.479  10.971   0.361  0.5155  0.3238  0.1171
   57MOL0     C 7455   8.584  10.974   0.461 -0.1396 -0.6787  0.5539
   57MOL0     C 7456   8.685  10.958   0.530 -0.5389  0.2728  0.5572
   57MOL0     C 7457   8.069  10.636   0.142  0.6704  0.0856 -0.0767
   57MOL0     C 7458   7.987  10.537   0.089 -0.1046  0.0371  0.6618
   57MOL0     H 7459   7.783  10.079   0.267  0.8444 -0.7908 -1.3725
   57MOL0     H 7460   7.661   9.887   0.213  1.0228 -1.6280 -2.6797
   57MOL0     H 7461   7.294   9.891  -0.061 -1.4141  2.1669  0.6999
   57MOL0     H 7462   7.233   9.884   0.114  1.0332  2.2181  0.2082
   57MOL0     H 7463   7.190   9.702  -0.077  0.2898 -0.6968  0.0240
   57MOL0     H 7464   7.216   9.668   0.105  0.5228  1.8338  0.9102
   57MOL0     H 7465   7.433   9.587   0.062 -0.3135 -1.3305 -0.0347
   57MOL0     H 7466   7.429   9.637  -0.100  2.4342  0.9216  2.5729
   57MOL0     H 7467   7.247   9.416   0.021 -1.6154  0.1434 -0.7661
   57MOL0     H 7468   7.232   9.474  -0.143  1.5344 -0.2950 -0.2334
   57MOL0     H 7469   7.371   9.272  -0.138  1.1964 -1.9157  0.0738
   57MOL0     H 7470   7.469   9.341  -0.011  0.7848  0.2439 -0.5855
   57MOL0     H 7471   7.609   9.339  -0.214  0.1922 -0.1812 -1.2420
   57MOL0     H 7472   7.575   9.502  -0.170 -0.7144  0.9382 -2.0681
   57MOL0     H 7473   7.408   9.361  -0.374 -2.0192  2.5070 -2.3595
   57MOL0     H 7474   7.411   9.532  -0.333 -2.2672  0.1013  0.9867
   57MOL0     H 7475   7.662   9.396  -0.432 -0.9946 -0.6444  0.8561
   57MOL0     H 7476   7.640   9.564  -0.388 -0.3936 -0.0060 -0.7018
   57MOL0     H 7477   7.391   9.368  -0.611 -2.3914  1.6541 -3.0229
   57MOL0     H 7478   7.404   9.357  -0.918 -0.1014  0.5267 -0.0623
   57MOL0     H 7479   7.471   9.506  -0.984 -0.4764 -0.5272 -0.1237
   57MOL0     H 7480   7.280   9.628  -0.864  1.4909 -0.0569 -0.4906
   57MOL0     H 7481   7.215   9.470  -0.827  0.5287 -0.5607 -1.0259
   57MOL0     H 7482   7.261   9.554  -1.102  2.0519 -0.7887  0.6474
   57MOL0     H 7483   7.174   9.401  -1.037  0.9651 -0.3425  3.3031
   57MOL0     H 7484   7.009   9.584  -1.119  0.4241 -0.4667 -0.1630
   57MOL0     H 7485   7.087   9.699  -1.018  1.3435 -0.2373  0.7429
   57MOL0     H 7486   6.822   9.681  -1.069  2.0006  0.4752  0.9445
   57MOL0     H 7487   6.566   9.719  -1.022  0.5148  2.1168  1.5200
   57MOL0     H 7488   6.318   9.734  -0.545 -1.4262 -0.2781  1.3953
   57MOL0     H 7489   6.102   9.796  -0.471 -1.6665  0.7021  0.0436
   57MOL0     H 7490   5.786   9.860  -0.776 -2.8633  2.1796  0.4067
   57MOL0     H 7491   5.819  10.032  -0.728 -0.5168  0.7797 -2.1781
   57MOL0     H 7492   5.637   9.819  -0.601 -1.0216  0.2443 -1.9997
   57MOL0     H 7493   5.594   9.965  -0.690 -1.0685 -3.5689 -0.8058
   57MOL0     H 7494   5.716   9.975  -0.400  2.0280 -0.7678 -1.7885
   57MOL0     H 7495   5.545   9.986  -0.465  0.4817 -1.6910  1.2377
   57MOL0     H 7496   5.785  10.181  -0.509 -0.2058  4.4356 -1.0803
   57MOL0     H 7497   5.630  10.185  -0.611 -0.6354  2.3515  0.6174
   57MOL0     H 7498   5.669  10.248  -0.312 -1.7423 -0.2093  1.2178
   57MOL0     H 7499   5.515  10.210  -0.382  0.1452  1.2909  2.9390
   57MOL0     H 7500   5.556  10.400  -0.548 -0.7012 -0.7793  0.1994
   57MOL0     H 7501   5.727  10.399  -0.487  0.2789 -3.3519 -0.4259
   57MOL0     H 7502   5.619  10.439  -0.246  0.4468 -0.9986 -0.9723
   57MOL0     H 7503   5.655  10.574  -0.363  1.6400 -0.0760 -1.5552
   57MOL0     H 7504   5.430  10.549  -0.454  3.8279  1.3323 -0.5317
   57MOL0     H 7505   5.424  10.593  -0.277  0.6024 -2.0066  1.9884
   57MOL0     H 7506   5.973   9.872  -0.870 -3.6985 -4.4963  1.9769
   57MOL0     H 7507   6.217   9.848  -0.945  1.4710  1.4993  0.9289
   57MOL0     H 7508   6.597   9.429  -0.711 -0.9010  2.0403  1.9638
   57MOL0     H 7509   6.832   9.396  -0.769 -2.0839 -1.6218  0.1489
   57MOL0     H 7510   7.338  10.097   0.048  0.7507 -0.5592 -1.7159
   57MOL0     H 7511   7.493  10.313   0.075  3.2532  1.1943  1.1874
   57MOL0     H 7512   7.831  10.454   0.392  0.1545  3.0222  1.8089
   57MOL0     H 7513   7.957  10.643   0.455  2.4245  0.4319  0.1258
   57MOL0     H 7514   8.200  10.958   0.334  0.0594 -0.7811  1.8084
   57MOL0     H 7515   8.123  10.894   0.183 -1.2979 -2.3113 -0.3364
   57MOL0     H 7516   8.326  10.719   0.190  0.2215  0.8171 -0.7514
   57MOL0     H 7517   8.358  10.884   0.134 -2.6909  0.7162 -0.8056
   57MOL0     H 7518   8.521  10.764   0.309  1.1592  1.7809 -0.9853
   57MOL0     H 7519   8.394  10.777   0.422  1.8494 -0.3224  0.7493
   57MOL0     H 7520   8.520  11.028   0.277  0.6163  0.3341  0.1726
   57MOL0     H 7521   8.393  11.024   0.403  0.0397  0.4945 -1.0368
   57MOL0     H 7522   8.774  10.935   0.586 -1.0392  0.5679  1.5061
   57MOL0     H 7523   8.136  10.681   0.069  0.1120  1.5416  0.2829
   57MOL0     H 7524   7.989  10.509  -0.015 -0.5786 -2.5126  1.2818
   58MOL0     O 7525  10.540   3.220   7.617  0.0472 -0.0244  0.5721
   58MOL0     C 7526  10.571   3.334   7.582  0.9315  0.2832  0.3363
   58MOL0     O 7527  10.474   3.440   7.576 -0.1936 -0.0026 -0.0864
   58MOL0     C 7528  10.360   3.412   7.520  0.7502 -0.5233  0.4705
   58MOL0     C 7529  10.261   3.496   7.568  0.9258 -0.0180 -0.5523
   58MOL0     C 7530  10.128   3.478   7.531  1.2311 -0.5482  0.0285
   58MOL0     C 7531  10.092   3.374   7.436  0.7462 -0.2393 -0.6695
   58MOL0     O 7532   9.956   3.343   7.407 -0.7589 -0.5848  0.0879
   58MOL0     C 7533   9.859   3.380   7.505  0.3486  0.0217  0.8195
   58MOL0     C 7534   9.733   3.323   7.448 -0.9291  0.0989  0.0912
   58MOL0     C 7535   9.672   3.405   7.340  0.1371  0.0530  0.2527
   58MOL0     C 7536   9.526   3.359   7.317  0.5246  0.2778  0.1188
   58MOL0     C 7537   9.446   3.454   7.218  1.3371  0.3896 -0.4291
   58MOL0     C 7538   9.314   3.374   7.174 -0.0245 -0.8052 -0.1745
   58MOL0     C 7539   9.352   3.290   7.050 -0.1814  0.8279  0.5975
   58MOL0     C 7540   9.263   3.160   7.038 -0.0110  0.0913  0.7728
   58MOL0     N 7541   9.120   3.194   7.003 -0.0435 -0.2420  0.4154
   58MOL0     C 7542   9.078   3.297   6.912  0.3688  0.7305 -0.3332
   58MOL0     C 7543   8.945   3.262   6.882  0.3255  0.2352  0.1993
   58MOL0     C 7544   8.862   3.334   6.782  0.1823 -0.8035 -0.7700
   58MOL0     C 7545   8.710   3.313   6.792 -0.1319  0.2795  0.1301
   58MOL0     C 7546   8.622   3.417   6.722 -0.5328 -0.4707  0.1751
   58MOL0     C 7547   8.623   3.397   6.569 -0.0186  0.5464 -0.8215
   58MOL0     O 7548   8.577   3.509   6.489 -0.3354  0.1300  0.1160
   58MOL0     C 7549   8.443   3.538   6.502 -1.0001 -0.0166 -0.2573
   58MOL0     C 7550   8.365   3.513   6.394 -0.9454  0.0302 -0.0434
   58MOL0     C 7551   8.228   3.548   6.386  0.5401  0.2456  0.6099
   58MOL0     C 7552   8.177   3.619   6.495  0.5868 -0.1523 -0.2874
   58MOL0     C 7553   8.036   3.660   6.494  0.1970 -0.6577  0.1290
   58MOL0     O 7554   7.997   3.772   6.566  0.2401 -0.1379  0.7489
   58MOL0     C 7555   7.864   3.813   6.559  0.4558  1.0666 -0.2928
   58MOL0     C 7556   7.834   3.925   6.481  0.3101  0.7838 -0.6166
   58MOL0     C 7557   7.693   3.954   6.466 -0.3403  0.4330  0.4077
   58MOL0     C 7558   7.592   3.879   6.528  0.2931 -0.5382 -0.2959
   58MOL0     O 7559   7.466   3.930   6.500  0.3718 -0.3912  0.3317
   58MOL0     C 7560   7.390   3.955   6.618  0.5791  0.1223 -0.4266
   58MOL0     C 7561   7.247   4.010   6.597  0.7607  0.6265 -0.7808
   58MOL0     C 7562   7.172   4.008   6.732 -0.3613  0.4258 -0.5425
   58MOL0     C 7563   7.239   4.099   6.836 -0.2214  1.3768 -0.4011
   58MOL0     C 7564   7.158   4.113   6.957  0.8981 -0.8988 -0.4733
   58MOL0     C 7565   7.242   4.206   7.057 -0.0820  1.0734 -0.2526
   58MOL0     C 7566   7.160   4.226   7.188  1.1289 -1.1538 -0.1537
   58MOL0     C 7567   7.252   4.258   7.316  0.5390  0.1593 -0.3314
   58MOL0    Cl 7568   7.366   4.127   7.348 -0.4009  0.3729 -0.0206
   58MOL0     C 7569   7.626   3.774   6.608  0.5198 -0.2652  0.4622
   58MOL0     C 7570   7.760   3.742   6.631  0.0041  0.1128 -0.4967
   58MOL0     O 7571   7.960   3.592   6.431 -0.2403  0.2617 -0.0384
   58MOL0     C 7572   8.255   3.649   6.601  0.1766 -0.8960  0.4295
   58MOL0     C 7573   8.393   3.610   6.605  0.6667  0.0101  0.2205
   58MOL0     N 7574   8.908   3.152   6.958 -0.0941 -0.3056 -0.5033
   58MOL0     N 7575   9.010   3.122   7.040 -0.7515  0.1006  0.8399
   58MOL0     C 7576  10.190   3.300   7.380 -0.7672  0.0128 -0.4918
   58MOL0     C 7577  10.326   3.322   7.424 -0.3044 -0.2110 -0.4841
   58MOL0     C 7578  10.704   3.353   7.529 -0.0639 -0.5544 -0.6320
   58MOL0     C 7579  10.788   3.244   7.492  0.3616 -0.8249  0.2876
   58MOL0     C 7580  10.926   3.266   7.458 -0.1833 -0.2312  0.8641
   58MOL0     C 7581  10.967   3.396   7.431 -0.0233  0.0985 -0.0841
   58MOL0     O 7582  11.102   3.414   7.399  0.6171 -0.0492 -0.0740
   58MOL0     C 7583  11.159   3.549   7.403 -0.1678 -0.3222  0.1935
   58MOL0     C 7584  11.311   3.533   7.379  0.0886  0.6020 -0.0622
   58MOL0     C 7585  11.382   3.671   7.350 -0.4447 -0.0383 -0.4009
   58MOL0     C 7586  11.516   3.664   7.267 -0.3663  0.2747 -0.0144
   58MOL0     C 7587  11.622   3.603   7.339  0.7110  0.0653  0.7894
   58MOL0     C 7588  11.726   3.572   7.381 -0.7924 -0.2409  0.7660
   58MOL0     C 7589  10.880   3.504   7.466  0.4244  0.1585  0.2837
   58MOL0     C 7590  10.752   3.483   7.511  0.4211  0.7350  0.8360
   58MOL0     H 7591  10.282   3.564   7.649  2.7220 -3.2222  1.8862
   58MOL0     H 7592  10.060   3.559   7.555 -0.0675 -1.3763 -0.7048
   58MOL0     H 7593   9.846   3.486   7.529 -1.1923 -0.4807  2.4172
   58MOL0     H 7594   9.890   3.338   7.601  1.5881 -1.1247 -0.0288
   58MOL0     H 7595   9.660   3.325   7.529 -0.1982 -1.4152  0.8131
   58MOL0     H 7596   9.743   3.218   7.418  1.2108 -0.1504  1.4579
   58MOL0     H 7597   9.736   3.390   7.253  1.2608  0.6204  0.9580
   58MOL0     H 7598   9.688   3.508   7.370  2.0531 -0.5335  1.3988
   58MOL0     H 7599   9.539   3.257   7.281  0.6656  0.3209  0.0490
   58MOL0     H 7600   9.479   3.352   7.416  0.2795  0.9110  0.0560
   58MOL0     H 7601   9.511   3.480   7.134  1.9634  2.8423  0.7207
   58MOL0     H 7602   9.420   3.544   7.274  0.5561 -0.4171  0.5487
   58MOL0     H 7603   9.242   3.450   7.142 -0.9528 -1.7689 -0.4525
   58MOL0     H 7604   9.269   3.325   7.261  0.2797  1.0674  1.0848
   58MOL0     H 7605   9.345   3.341   6.954  2.0110 -1.5211 -0.9498
   58MOL0     H 7606   9.455   3.253   7.055 -0.0042  1.3023  0.4461
   58MOL0     H 7607   9.266   3.098   7.128 -1.8775  0.5605  1.2011
   58MOL0     H 7608   9.303   3.105   6.953  0.5384  1.1918  0.2986
   58MOL0     H 7609   9.134   3.379   6.868  1.6895  1.3069  2.2098
   58MOL0     H 7610   8.889   3.333   6.676  0.2973  2.5514 -0.8847
   58MOL0     H 7611   8.870   3.440   6.808 -4.4511 -0.5332  0.5330
   58MOL0     H 7612   8.689   3.303   6.899  0.6120  2.8153  0.5733
   58MOL0     H 7613   8.684   3.216   6.748 -0.7364 -0.4587  2.0311
   58MOL0     H 7614   8.520   3.412   6.764  0.5893 -1.4476  3.0346
   58MOL0     H 7615   8.659   3.517   6.746 -0.9038 -0.3445  0.2400
   58MOL0     H 7616   8.570   3.305   6.539 -2.6816  1.6852  0.1249
   58MOL0     H 7617   8.728   3.390   6.541  0.3276  0.7279  0.3939
   58MOL0     H 7618   8.396   3.473   6.298 -4.3921 -3.1787 -0.0344
   58MOL0     H 7619   8.176   3.536   6.291  3.7862 -0.7286 -1.2286
   58MOL0     H 7620   7.903   3.986   6.424  2.5508 -0.5618  0.5120
   58MOL0     H 7621   7.677   4.043   6.407  2.5485  0.7851  0.0222
   58MOL0     H 7622   7.448   4.026   6.678  1.7003 -2.7622  2.2063
   58MOL0     H 7623   7.379   3.859   6.671 -0.6197  0.7429  0.5085
   58MOL0     H 7624   7.201   3.951   6.518  3.6514 -2.3878 -0.4432
   58MOL0     H 7625   7.257   4.111   6.556 -3.3926  0.3749 -2.9205
   58MOL0     H 7626   7.163   3.905   6.770  2.5509  0.2025 -0.2016
   58MOL0     H 7627   7.072   4.046   6.713 -1.1606 -0.8243  0.9090
   58MOL0     H 7628   7.335   4.052   6.860  0.8404  1.6750 -3.5511
   58MOL0     H 7629   7.263   4.198   6.798  2.0675  0.9406 -0.2654
   58MOL0     H 7630   7.127   4.014   6.994 -0.0495 -0.3709  0.1744
   58MOL0     H 7631   7.065   4.163   6.931 -0.5369 -1.1089  3.5995
   58MOL0     H 7632   7.251   4.301   7.004 -2.5305  2.0780  0.9561
   58MOL0     H 7633   7.338   4.160   7.082 -1.2003 -0.3670  1.7339
   58MOL0     H 7634   7.090   4.308   7.174  1.7972 -0.8234 -1.8284
   58MOL0     H 7635   7.093   4.141   7.201  3.8399 -3.1290  2.2206
   58MOL0     H 7636   7.179   4.268   7.397 -1.2004 -2.9077 -1.3345
   58MOL0     H 7637   7.314   4.347   7.313  1.0627 -0.1955 -0.2160
   58MOL0     H 7638   7.554   3.708   6.655 -0.1044  2.6031  3.9770
   58MOL0     H 7639   7.795   3.658   6.691 -0.7633 -1.4228 -2.0864
   58MOL0     H 7640   8.226   3.719   6.678  1.5951  2.2130 -1.6188
   58MOL0     H 7641   8.458   3.639   6.686 -1.1528  2.4293  0.9325
   58MOL0     H 7642  10.160   3.220   7.313  2.5936 -1.1725 -0.8078
   58MOL0     H 7643  10.403   3.267   7.372 -0.4389 -2.5707  1.6535
   58MOL0     H 7644  10.742   3.147   7.506 -0.4989 -0.3675  0.7104
   58MOL0     H 7645  10.991   3.185   7.426  1.5890  1.0872  1.0122
   58MOL0     H 7646  11.145   3.598   7.500  0.8738  0.1727  0.1140
   58MOL0     H 7647  11.120   3.611   7.322 -0.1068 -0.4221  0.0871
   58MOL0     H 7648  11.357   3.481   7.464 -2.6326 -1.3748  0.3227
   58MOL0     H 7649  11.331   3.463   7.297  0.0719 -0.7222  1.0269
   58MOL0     H 7650  11.413   3.713   7.446  1.3626 -0.5716 -0.7010
   58MOL0     H 7651  11.314   3.741   7.302 -0.1448 -0.8967 -2.1398
   58MOL0     H 7652  11.492   3.606   7.178  0.2900 -1.0742  0.6590
   58MOL0     H 7653  11.552   3.760   7.230  0.0832  0.5488  1.1090
   58MOL0     H 7654  11.825   3.541   7.408 -0.8173 -0.0355  1.1105
   58MOL0     H 7655  10.918   3.606   7.462  2.6844 -0.4942  2.5391
   58MOL0     H 7656  10.694   3.568   7.546  0.7171  0.2642  2.5707
   59MOL0     O 7657   7.566  10.390   0.691 -0.7774  0.1646  0.1858
   59MOL0     C 7658   7.652  10.309   0.659 -0.5814  0.5544 -0.2067
   59MOL0     O 7659   7.624  10.198   0.593  0.3666  0.4842 -0.3116
   59MOL0     C 7660   7.505  10.171   0.525 -0.6071 -0.0040 -0.2665
   59MOL0     C 7661   7.471  10.039   0.510  0.8134  0.0139  0.1810
   59MOL0     C 7662   7.343  10.015   0.449 -0.7264  0.1088 -0.1648
   59MOL0     C 7663   7.268  10.118   0.388 -0.3762 -0.9738 -0.6838
   59MOL0     O 7664   7.135  10.109   0.343 -1.2813 -0.2895  0.2071
   59MOL0     C 7665   7.050   9.996   0.373 -0.5438  0.2295 -0.0662
   59MOL0     C 7666   6.892  10.009   0.341  0.0018 -0.1115 -0.4605
   59MOL0     C 7667   6.820  10.122   0.414 -0.9402 -0.1661  1.0606
   59MOL0     C 7668   6.674  10.143   0.368  0.4084 -1.1554 -0.5400
   59MOL0     C 7669   6.581  10.027   0.404 -0.4007 -0.2330  0.6780
   59MOL0     C 7670   6.540  10.009   0.552 -0.4005  0.3345 -0.2102
   59MOL0     C 7671   6.561   9.869   0.612 -0.0291 -0.2025 -0.1442
   59MOL0     C 7672   6.469   9.773   0.548 -0.0546  0.2659 -0.4618
   59MOL0     N 7673   6.332   9.819   0.588 -0.6108 -0.4424  0.1798
   59MOL0     C 7674   6.294   9.862   0.713 -0.4053  0.4034 -0.9619
   59MOL0     C 7675   6.165   9.900   0.705  0.6618  0.3653 -0.2676
   59MOL0     C 7676   6.078   9.935   0.823 -1.0302 -1.0143  0.4917
   59MOL0     C 7677   5.937   9.862   0.824  0.1197 -0.2546 -0.4988
   59MOL0     C 7678   5.869   9.918   0.956 -0.6536  0.2859  0.0382
   59MOL0     C 7679   5.731   9.873   0.981  0.3961 -0.2780  0.5198
   59MOL0     O 7680   5.653   9.899   0.864 -0.3799 -0.3819  0.0874
   59MOL0     C 7681   5.548   9.985   0.887  0.1095 -0.4157  0.9777
   59MOL0     C 7682   5.526  10.090   0.806  0.3799 -0.9692 -0.1000
   59MOL0     C 7683   5.409  10.168   0.810 -0.4834  0.6983 -0.5937
   59MOL0     C 7684   5.308  10.128   0.898 -0.3562 -0.4512 -0.5996
   59MOL0     C 7685   5.187  10.207   0.900 -0.8581  0.5534 -0.4093
   59MOL0     O 7686   5.066  10.137   0.917  0.7107  0.3380  0.0193
   59MOL0     C 7687   4.942  10.199   0.905 -0.7062  0.0236 -0.3717
   59MOL0     C 7688   4.909  10.302   0.807 -0.1911  0.2210 -0.1844
   59MOL0     C 7689   4.779  10.354   0.801  0.2076 -0.5096  0.2349
   59MOL0     C 7690   4.682  10.295   0.884  0.2582  0.4057 -0.6555
   59MOL0     O 7691   4.553  10.327   0.868  0.2011  0.5719 -0.0328
   59MOL0     C 7692   4.493  10.236   0.767 -0.6292 -1.1520 -0.1686
   59MOL0     C 7693   4.340  10.256   0.759  0.4388  0.3486  0.0344
   59MOL0     C 7694   4.271  10.221   0.895  0.0927 -0.5912 -0.2671
   59MOL0     C 7695   4.126  10.281   0.888 -0.9851  0.7763 -0.2273
   59MOL0     C 7696   4.049  10.260   1.025 -0.4542 -0.2800 -0.4322
   59MOL0     C 7697   3.894  10.262   1.010 -0.1047  0.3942 -0.3477
   59MOL0     C 7698   3.831  10.243   1.154 -0.8001 -0.1602  0.0862
   59MOL0     C 7699   3.681  10.290   1.165 -0.1633  0.2433  0.4358
   59MOL0    Cl 7700   3.577  10.220   1.029  0.1928 -0.2875 -0.2528
   59MOL0     C 7701   4.717  10.200   0.979  0.4303  0.6632 -0.0225
   59MOL0     C 7702   4.838  10.135   0.977 -0.4024  0.8916  0.0459
   59MOL0     O 7703   5.195  10.330   0.883  0.2573  0.6811 -0.2099
   59MOL0     C 7704   5.325  10.016   0.979 -0.9412  0.5336 -0.0219
   59MOL0     C 7705   5.449   9.942   0.975  0.4083  0.5842  0.5870
   59MOL0     N 7706   6.124   9.889   0.571 -1.6602 -0.0185  0.0309
   59MOL0     N 7707   6.234   9.853   0.504 -0.2574  0.3287  0.2684
   59MOL0     C 7708   7.318  10.251   0.399  0.3365  0.0327 -0.6486
   59MOL0     C 7709   7.441  10.273   0.456  0.8068 -0.4531  0.4351
   59MOL0     C 7710   7.801  10.345   0.669  0.0923  0.0840  0.7330
   59MOL0     C 7711   7.835  10.455   0.750  0.0742  0.3808 -0.1031
   59MOL0     C 7712   7.968  10.493   0.771  0.3139 -0.3511  0.1676
   59MOL0     C 7713   8.071  10.412   0.718  0.8378  0.5091  0.4394
   59MOL0     O 7714   8.201  10.432   0.727 -0.4102  0.5366  0.3956
   59MOL0     C 7715   8.259  10.548   0.794  0.6066 -0.8043  0.5093
   59MOL0     C 7716   8.288  10.668   0.702  0.0804  0.6934  0.1689
   59MOL0     C 7717   8.371  10.777   0.784  0.5723  0.0646 -0.6882
   59MOL0     C 7718   8.523  10.749   0.801  0.5721 -0.2181  0.1899
   59MOL0     C 7719   8.587  10.829   0.911  0.4905  0.9447 -0.3323
   59MOL0     C 7720   8.642  10.882   1.009  0.1892 -0.2030 -0.2148
   59MOL0     C 7721   8.030  10.299   0.639 -0.9667 -0.1001  0.0052
   59MOL0     C 7722   7.900  10.267   0.616  0.2963 -0.2750  0.8538
   59MOL0     H 7723   7.532   9.962   0.557  0.2639 -2.4863 -2.8726
   59MOL0     H 7724   7.295   9.919   0.434 -4.2557  1.9694 -2.1115
   59MOL0     H 7725   7.058   9.992   0.482  0.1360  2.3466  0.0096
   59MOL0     H 7726   7.094   9.902   0.337 -1.2252  0.8577 -2.7776
   59MOL0     H 7727   6.847   9.918   0.380 -2.3122  1.6119  1.1812
   59MOL0     H 7728   6.873  10.012   0.233  1.2258 -1.1194 -0.7353
   59MOL0     H 7729   6.882  10.209   0.393  0.4582 -0.1367  4.7332
   59MOL0     H 7730   6.835  10.098   0.519  0.3747 -0.4896  0.8169
   59MOL0     H 7731   6.634  10.238   0.407  0.1652 -0.5332 -2.2327
   59MOL0     H 7732   6.668  10.166   0.261 -1.2559 -0.8490 -0.3979
   59MOL0     H 7733   6.628   9.942   0.353  1.0633  1.7235 -1.4666
   59MOL0     H 7734   6.483  10.029   0.355 -1.8784 -0.5674  3.4107
   59MOL0     H 7735   6.439  10.044   0.576  0.2475  0.2613  3.0468
   59MOL0     H 7736   6.605  10.064   0.620  1.0311  1.0825 -2.1038
   59MOL0     H 7737   6.667   9.849   0.596  0.5389  1.7894  0.8538
   59MOL0     H 7738   6.545   9.870   0.720 -1.8913 -1.1497 -0.3548
   59MOL0     H 7739   6.506   9.675   0.581  1.7008  0.9979 -0.1533
   59MOL0     H 7740   6.474   9.775   0.439  2.1605 -0.7730 -0.4268
   59MOL0     H 7741   6.357   9.855   0.801 -0.1304 -0.0383 -1.1918
   59MOL0     H 7742   6.070  10.043   0.833 -1.2390 -1.1942  2.9870
   59MOL0     H 7743   6.118   9.907   0.921 -0.4020 -2.3832 -0.1173
   59MOL0     H 7744   5.949   9.755   0.843  0.6808  0.1612  1.7502
   59MOL0     H 7745   5.875   9.886   0.737 -3.0982 -0.8050  1.4784
   59MOL0     H 7746   5.927   9.878   1.041 -1.8059 -1.0758  0.2236
   59MOL0     H 7747   5.877  10.026   0.965 -1.0869  0.1631  2.8826
   59MOL0     H 7748   5.691   9.930   1.066 -5.2246 -2.1152 -0.4724
   59MOL0     H 7749   5.713   9.766   0.991  0.5518 -0.2778  0.8252
   59MOL0     H 7750   5.593  10.121   0.726 -3.4600  0.6447 -2.9839
   59MOL0     H 7751   5.393  10.257   0.751 -3.1988  1.7912  1.5610
   59MOL0     H 7752   4.996  10.330   0.748 -1.7614  1.3899 -2.0718
   59MOL0     H 7753   4.739  10.424   0.729  0.8293  2.0236  2.2139
   59MOL0     H 7754   4.503  10.133   0.799 -0.8202 -1.9045 -2.3449
   59MOL0     H 7755   4.537  10.252   0.668  0.9163 -1.2147  0.4830
   59MOL0     H 7756   4.291  10.206   0.675  1.5131 -1.2571  0.3179
   59MOL0     H 7757   4.316  10.362   0.747 -2.3756  0.2116  3.1510
   59MOL0     H 7758   4.326  10.264   0.979 -2.6320 -0.1281  1.4175
   59MOL0     H 7759   4.274  10.113   0.912  1.2360 -0.3741  1.1171
   59MOL0     H 7760   4.120  10.388   0.864 -1.1905  0.5395 -1.2795
   59MOL0     H 7761   4.071  10.233   0.806 -0.7293  2.6247 -1.5516
   59MOL0     H 7762   4.069  10.341   1.096 -4.4385  1.9853 -1.5606
   59MOL0     H 7763   4.081  10.161   1.060 -2.1945 -0.9276 -0.5374
   59MOL0     H 7764   3.856  10.179   0.950  0.8671 -0.6063  0.3587
   59MOL0     H 7765   3.857  10.357   0.971 -4.3693 -0.6315  0.7276
   59MOL0     H 7766   3.824  10.136   1.173 -2.4098 -0.0816  0.0716
   59MOL0     H 7767   3.891  10.285   1.235  0.1247 -2.6014  0.7328
   59MOL0     H 7768   3.678  10.399   1.160  2.2335  0.3014 -1.3674
   59MOL0     H 7769   3.638  10.270   1.264 -0.7566  3.1904  0.8484
   59MOL0     H 7770   4.641  10.166   1.048  1.5699 -0.2316  0.8182
   59MOL0     H 7771   4.849  10.052   1.045 -1.7466  0.2912 -0.4397
   59MOL0     H 7772   5.238   9.990   1.037 -2.7462  0.4846 -2.5734
   59MOL0     H 7773   5.468   9.852   1.033  0.4887  0.2583  0.0611
   59MOL0     H 7774   7.266  10.337   0.359  0.9059  1.5047  1.6346
   59MOL0     H 7775   7.482  10.374   0.457  0.9679 -0.5261  1.1605
   59MOL0     H 7776   7.758  10.518   0.793  2.0457  1.7042  1.6988
   59MOL0     H 7777   7.983  10.583   0.830  1.5935  0.6922 -1.6384
   59MOL0     H 7778   8.350  10.514   0.845  0.9466 -1.4308 -0.4747
   59MOL0     H 7779   8.189  10.577   0.872  0.2344 -0.8889  0.2140
   59MOL0     H 7780   8.342  10.642   0.610  1.7061  0.9040  1.0191
   59MOL0     H 7781   8.197  10.720   0.671  0.6184  2.0542  0.7621
   59MOL0     H 7782   8.325  10.782   0.884  0.5966 -0.1440 -0.6651
   59MOL0     H 7783   8.356  10.878   0.745  2.0764  0.0565 -1.3290
   59MOL0     H 7784   8.534  10.641   0.815  1.0602 -0.8871 -3.9929
   59MOL0     H 7785   8.573  10.772   0.706  2.1688 -1.8384  0.5672
   59MOL0     H 7786   8.663  10.938   1.097  2.6840 -0.2727 -0.6979
   59MOL0     H 7787   8.109  10.234   0.605 -0.3858  0.4421  0.2916
   59MOL0     H 7788   7.895  10.171   0.565  2.5109 -0.5862  1.1074
   60MOL0     O 7789   4.787   9.258   7.019 -0.0878  0.4733 -0.0848
   60MOL0     C 7790   4.857   9.270   7.113  0.1069  1.0498 -0.7370
   60MOL0     O 7791   4.819   9.297   7.236  0.4949  0.0765 -0.0189
   60MOL0     C 7792   4.687   9.296   7.260 -1.0257  0.4646 -0.5379
   60MOL0     C 7793   4.595   9.400   7.242 -0.0543  0.1272  0.4510
   60MOL0     C 7794   4.454   9.383   7.280 -0.8885  1.2292  1.0609
   60MOL0     C 7795   4.407   9.260   7.332 -0.5915  0.4439  0.6009
   60MOL0     O 7796   4.279   9.248   7.377  0.2014  0.1441 -0.9516
   60MOL0     C 7797   4.191   9.356   7.412  0.4901 -0.7155 -0.3876
   60MOL0     C 7798   4.049   9.299   7.443  0.2642  0.2128 -0.7691
   60MOL0     C 7799   3.968   9.387   7.531 -0.3066 -0.2143 -0.7416
   60MOL0     C 7800   3.859   9.308   7.602  0.5339  0.5807  0.2934
   60MOL0     C 7801   3.743   9.255   7.517 -0.2157  0.5051  0.6568
   60MOL0     C 7802   3.629   9.188   7.596  0.1704 -0.5217 -0.6626
   60MOL0     C 7803   3.544   9.105   7.505 -0.0657  0.4448  0.2852
   60MOL0     C 7804   3.608   8.973   7.457  0.0403 -0.5260  0.7273
   60MOL0     N 7805   3.505   8.882   7.404 -0.3991 -0.6243 -1.1416
   60MOL0     C 7806   3.446   8.908   7.287 -0.7285  0.0028  0.0182
   60MOL0     C 7807   3.355   8.810   7.272  0.5132  1.5198 -1.0964
   60MOL0     C 7808   3.270   8.786   7.149 -0.0650 -0.0056  0.5581
   60MOL0     C 7809   3.118   8.773   7.193  0.3059 -0.2104  0.4737
   60MOL0     C 7810   3.055   8.889   7.252 -0.2826 -0.4277 -0.8807
   60MOL0     C 7811   2.927   8.863   7.327 -0.9137 -0.0626  1.3043
   60MOL0     O 7812   2.947   8.775   7.442  0.7752  0.3443  0.5558
   60MOL0     C 7813   2.862   8.672   7.457  0.4175 -0.4131 -0.8528
   60MOL0     C 7814   2.926   8.554   7.505  0.7316 -0.7542 -0.3826
   60MOL0     C 7815   2.846   8.440   7.532  0.0764 -0.3436 -0.0780
   60MOL0     C 7816   2.707   8.443   7.492 -0.5135 -0.1502  0.5639
   60MOL0     C 7817   2.612   8.334   7.526  0.8950 -0.9933  0.2684
   60MOL0     O 7818   2.479   8.361   7.554 -0.0790  0.3232  0.2361
   60MOL0     C 7819   2.397   8.253   7.556  0.0157 -0.1220  0.9897
   60MOL0     C 7820   2.387   8.167   7.662 -0.1743 -0.5655  0.2101
   60MOL0     C 7821   2.280   8.084   7.663  0.2483  0.3236  0.7460
   60MOL0     C 7822   2.176   8.081   7.565  0.2105  0.2949  0.6978
   60MOL0     O 7823   2.078   7.991   7.564  0.5511  0.0666  0.4096
   60MOL0     C 7824   2.059   7.901   7.680 -0.4662  0.1911  0.4508
   60MOL0     C 7825   1.935   7.812   7.654  1.0629  0.0949  0.1689
   60MOL0     C 7826   1.937   7.753   7.506  0.0143 -0.6475  0.5681
   60MOL0     C 7827   1.827   7.648   7.466 -1.2747 -1.6761 -0.6404
   60MOL0     C 7828   1.858   7.577   7.335 -0.0141 -0.0515  0.3410
   60MOL0     C 7829   1.737   7.538   7.258 -0.5474 -0.5356 -0.2191
   60MOL0     C 7830   1.662   7.425   7.327 -0.2118  0.7019  0.7173
   60MOL0     C 7831   1.571   7.362   7.217  0.2515 -0.3335  0.0684
   60MOL0    Cl 7832   1.457   7.492   7.163 -0.6596 -0.1092  0.4295
   60MOL0     C 7833   2.199   8.165   7.459 -0.1018 -0.8283  0.3930
   60MOL0     C 7834   2.307   8.246   7.449  0.1683  0.4199 -0.2002
   60MOL0     O 7835   2.660   8.226   7.522 -0.0291  0.3848 -0.2278
   60MOL0     C 7836   2.647   8.560   7.448 -0.1943  0.4773 -0.0350
   60MOL0     C 7837   2.725   8.673   7.421 -0.1853 -0.4893 -0.2669
   60MOL0     N 7838   3.364   8.728   7.389 -0.3966  1.6939  0.2332
   60MOL0     N 7839   3.459   8.771   7.465 -0.8385  0.0785 -0.1570
   60MOL0     C 7840   4.499   9.159   7.346 -0.1351 -0.1376 -0.3888
   60MOL0     C 7841   4.641   9.179   7.316  0.0092  0.0064 -0.7344
   60MOL0     C 7842   5.003   9.269   7.093 -0.2311 -0.5974 -1.1719
   60MOL0     C 7843   5.065   9.220   6.977  0.4396  0.1520  0.0016
   60MOL0     C 7844   5.204   9.223   6.954  0.1347  0.1631  0.3141
   60MOL0     C 7845   5.282   9.277   7.054  0.3558  0.6235 -0.3190
   60MOL0     O 7846   5.423   9.301   7.052 -0.3880 -0.3535 -0.2089
   60MOL0     C 7847   5.497   9.197   6.981 -0.0190  0.2899 -0.5153
   60MOL0     C 7848   5.645   9.236   6.979  0.7463  1.0608 -0.1727
   60MOL0     C 7849   5.737   9.134   6.898  0.1599 -0.6464 -0.4205
   60MOL0     C 7850   5.883   9.143   6.918 -0.4219  0.6612  0.0812
   60MOL0     C 7851   5.948   9.160   6.785 -1.0655 -0.1714 -0.1652
   60MOL0     C 7852   6.012   9.171   6.683  0.2711 -0.0462 -0.0242
   60MOL0     C 7853   5.222   9.331   7.168  1.2264 -0.2044 -0.2983
   60MOL0     C 7854   5.088   9.322   7.189 -0.3497 -0.1896  0.4717
   60MOL0     H 7855   4.635   9.490   7.197  2.3305 -1.0984 -0.0939
   60MOL0     H 7856   4.378   9.459   7.262  1.1919  3.2137  0.0598
   60MOL0     H 7857   4.170   9.421   7.327 -3.3222 -0.6158  0.4447
   60MOL0     H 7858   4.225   9.410   7.501  4.0262 -1.4466 -1.1383
   60MOL0     H 7859   4.056   9.202   7.493 -2.0025 -1.5064 -3.5080
   60MOL0     H 7860   3.985   9.280   7.356 -1.0455 -0.8037  0.3624
   60MOL0     H 7861   3.918   9.464   7.472  1.3317  0.7798 -0.8723
   60MOL0     H 7862   4.032   9.430   7.609 -1.1007  0.1621 -0.2836
   60MOL0     H 7863   3.895   9.223   7.660  0.7819  0.6133  0.1877
   60MOL0     H 7864   3.808   9.371   7.675 -0.9056 -3.4038  3.0687
   60MOL0     H 7865   3.787   9.182   7.449 -1.3463 -1.6509  2.1109
   60MOL0     H 7866   3.704   9.331   7.449  2.7839 -0.4911 -2.4781
   60MOL0     H 7867   3.555   9.256   7.641 -0.4165 -1.8346  0.4108
   60MOL0     H 7868   3.665   9.123   7.676 -2.0495  0.3348  1.1531
   60MOL0     H 7869   3.451   9.075   7.555  0.6186 -1.0960  0.6727
   60MOL0     H 7870   3.525   9.177   7.424  2.6571  3.1541  1.8378
   60MOL0     H 7871   3.666   8.926   7.538  1.9427 -0.4069 -0.4900
   60MOL0     H 7872   3.683   8.992   7.379 -1.0010 -2.2640 -0.7913
   60MOL0     H 7873   3.467   8.982   7.211 -2.9099 -0.1106 -0.7624
   60MOL0     H 7874   3.288   8.692   7.095  0.8064  1.0428 -1.0462
   60MOL0     H 7875   3.287   8.865   7.076  0.8412  0.2568  1.0487
   60MOL0     H 7876   3.108   8.695   7.269  0.4547 -1.0882 -0.3894
   60MOL0     H 7877   3.060   8.728   7.112 -0.4837  2.4342 -0.5260
   60MOL0     H 7878   3.124   8.930   7.326  0.5383  1.4243 -2.5700
   60MOL0     H 7879   3.048   8.975   7.185  2.6542  2.2311  1.8896
   60MOL0     H 7880   2.853   8.823   7.257  0.3033  2.8810 -1.9436
   60MOL0     H 7881   2.893   8.960   7.365  1.4549  0.8864  1.1414
   60MOL0     H 7882   3.029   8.548   7.539  0.2405  0.9165  1.6143
   60MOL0     H 7883   2.896   8.352   7.571  2.3199  0.8611 -0.0948
   60MOL0     H 7884   2.460   8.177   7.741 -0.3941 -2.1376  0.6535
   60MOL0     H 7885   2.260   8.017   7.746  1.6812 -1.0961  0.0079
   60MOL0     H 7886   2.032   7.948   7.776  2.8897 -3.5855  3.6187
   60MOL0     H 7887   2.151   7.845   7.695  1.4303  3.5237  2.7835
   60MOL0     H 7888   1.844   7.867   7.680 -2.2527 -3.7615 -2.1937
   60MOL0     H 7889   1.924   7.736   7.732 -1.0895  1.6976  1.5362
   60MOL0     H 7890   2.031   7.704   7.478  0.8317 -0.3877  2.6598
   60MOL0     H 7891   1.921   7.833   7.434 -0.8599  0.2881  1.7736
   60MOL0     H 7892   1.815   7.574   7.546  1.4033  0.0419  1.5144
   60MOL0     H 7893   1.728   7.695   7.467 -0.2329  0.7574  1.9148
   60MOL0     H 7894   1.921   7.489   7.351 -0.3740 -0.3454  0.1486
   60MOL0     H 7895   1.913   7.648   7.274 -1.6329  0.7858 -0.1938
   60MOL0     H 7896   1.764   7.514   7.154 -0.7689  0.0176 -0.4111
   60MOL0     H 7897   1.668   7.622   7.248 -2.2758 -1.8934 -0.0751
   60MOL0     H 7898   1.738   7.350   7.353 -0.7351  0.4145  1.4684
   60MOL0     H 7899   1.616   7.459   7.420 -1.6051 -0.3129  0.4257
   60MOL0     H 7900   1.519   7.275   7.257  1.6708 -1.1883  0.1027
   60MOL0     H 7901   1.639   7.324   7.140  0.8780 -0.2715  0.5907
   60MOL0     H 7902   2.132   8.167   7.373  2.0924  0.1509 -1.4282
   60MOL0     H 7903   2.329   8.304   7.360  2.7891  0.1038  0.1553
   60MOL0     H 7904   2.540   8.566   7.431 -0.7419 -3.8433  0.6723
   60MOL0     H 7905   2.681   8.757   7.369  0.3561  0.9778  1.5492
   60MOL0     H 7906   4.462   9.062   7.378  0.5185  0.0269  0.9455
   60MOL0     H 7907   4.709   9.098   7.342  2.3833  2.4289  1.2957
   60MOL0     H 7908   5.014   9.171   6.894  1.2391 -0.0978 -0.3519
   60MOL0     H 7909   5.238   9.200   6.854  1.4458  0.7401  0.6078
   60MOL0     H 7910   5.458   9.185   6.879 -0.7953  1.1301 -0.3333
   60MOL0     H 7911   5.477   9.106   7.038 -2.7894  2.1070  1.7213
   60MOL0     H 7912   5.654   9.333   6.929 -2.3768  1.1676 -0.6841
   60MOL0     H 7913   5.667   9.234   7.087 -0.2675 -3.6295  0.1668
   60MOL0     H 7914   5.719   9.154   6.792  2.7354  1.2206 -0.5901
   60MOL0     H 7915   5.711   9.029   6.914 -0.2273 -0.4996 -0.0532
   60MOL0     H 7916   5.907   9.237   6.969  2.2195 -0.4359  1.0102
   60MOL0     H 7917   5.921   9.062   6.981  1.1205  1.4021  0.1278
   60MOL0     H 7918   6.084   9.191   6.606  1.1693 -2.4237  0.1046
   60MOL0     H 7919   5.289   9.382   7.236  1.5132 -0.8728 -0.0732
   60MOL0     H 7920   5.050   9.372   7.278 -1.2007  1.5358 -0.7958
   61MOL0     O 7921   2.797   7.415   6.859  0.3361 -0.0440 -0.1461
   61MOL0     C 7922   2.818   7.405   6.738 -0.4857 -0.0289 -0.3632
   61MOL0     O 7923   2.751   7.320   6.651  0.6221 -0.1637 -0.2572
   61MOL0     C 7924   2.616   7.293   6.681  0.3202 -0.0833  0.4486
   61MOL0     C 7925   2.516   7.352   6.605 -0.8362 -0.2093  0.2033
   61MOL0     C 7926   2.380   7.327   6.624  0.1064  0.0034 -0.2848
   61MOL0     C 7927   2.347   7.227   6.723 -0.4173 -0.5784 -0.2245
   61MOL0     O 7928   2.227   7.169   6.746 -0.1818  0.1383  0.1588
   61MOL0     C 7929   2.111   7.255   6.735 -0.1547  0.7135 -0.0004
   61MOL0     C 7930   1.992   7.171   6.784  0.4905  0.0578 -0.2645
   61MOL0     C 7931   1.988   7.177   6.939  0.1383  0.2894  0.2630
   61MOL0     C 7932   1.865   7.102   6.996 -0.1175 -0.4762  0.4846
   61MOL0     C 7933   1.847   7.107   7.142 -0.9107  0.5266  1.0303
   61MOL0     C 7934   1.710   7.054   7.179 -0.4016 -0.3510 -1.0508
   61MOL0     C 7935   1.698   7.054   7.342 -0.7204 -0.4324  0.8248
   61MOL0     C 7936   1.725   6.912   7.389  0.9700 -0.6346 -0.3335
   61MOL0     N 7937   1.700   6.918   7.540  0.5446  1.1409  0.6643
   61MOL0     C 7938   1.798   6.959   7.620  0.4434  0.9045 -0.0548
   61MOL0     C 7939   1.733   6.955   7.743  0.7581 -0.0662  0.3688
   61MOL0     C 7940   1.794   6.960   7.879  0.6561 -0.8131  0.0080
   61MOL0     C 7941   1.862   6.824   7.907  0.1703  0.0838  0.1822
   61MOL0     C 7942   1.939   6.817   8.042 -0.1575 -0.1618  0.3121
   61MOL0     C 7943   2.042   6.706   8.034  0.7383  0.3162  0.3397
   61MOL0     O 7944   2.105   6.736   8.161 -0.4718 -0.8080  0.2666
   61MOL0     C 7945   2.143   6.629   8.241 -0.4374 -0.5784 -0.7767
   61MOL0     C 7946   2.210   6.514   8.195 -0.0910 -0.6358  0.2634
   61MOL0     C 7947   2.238   6.408   8.277 -0.4236 -0.0696  0.6758
   61MOL0     C 7948   2.182   6.398   8.407  0.9781 -0.2948 -0.0045
   61MOL0     C 7949   2.215   6.280   8.493 -0.7873  0.0409  0.0561
   61MOL0     O 7950   2.166   6.266   8.615  0.4206 -0.1851  0.3161
   61MOL0     C 7951   2.213   6.163   8.691 -0.3252  0.5534 -0.3085
   61MOL0     C 7952   2.120   6.089   8.769 -0.2711 -0.4262  0.4656
   61MOL0     C 7953   2.162   5.991   8.862  0.7293 -0.2897 -0.1961
   61MOL0     C 7954   2.300   5.954   8.861 -0.2563  0.6891 -0.2647
   61MOL0     O 7955   2.335   5.844   8.933 -0.5218 -0.0283 -0.0474
   61MOL0     C 7956   2.324   5.850   9.071 -0.0901 -0.3621 -0.2772
   61MOL0     C 7957   2.451   5.789   9.134  1.2550 -0.8267  0.4895
   61MOL0     C 7958   2.453   5.822   9.276 -0.2978  0.2126 -0.0996
   61MOL0     C 7959   2.589   5.787   9.326 -0.3296  1.0175 -0.3777
   61MOL0     C 7960   2.606   5.853   9.467  0.8021 -0.8228  0.6117
   61MOL0     C 7961   2.724   5.815   9.553  0.7031 -0.3490  0.5448
   61MOL0     C 7962   2.712   5.884   9.691  1.0346  0.5445 -0.4811
   61MOL0     C 7963   2.851   5.885   9.754 -0.1990 -0.2035 -0.5345
   61MOL0    Cl 7964   2.909   5.722   9.788 -0.2479 -0.6298  0.4868
   61MOL0     C 7965   2.388   6.015   8.778 -0.9480 -0.0494  0.7808
   61MOL0     C 7966   2.352   6.119   8.697 -0.7214  0.7674  0.2034
   61MOL0     O 7967   2.290   6.200   8.436  0.9407  0.8342 -0.2552
   61MOL0     C 7968   2.106   6.516   8.450  0.0366 -0.3602 -0.2563
   61MOL0     C 7969   2.090   6.626   8.365 -0.2564 -0.1206 -0.6261
   61MOL0     N 7970   1.593   6.928   7.723  0.1111  0.0135  0.5400
   61MOL0     N 7971   1.571   6.901   7.601 -1.0682 -0.5360  1.1491
   61MOL0     C 7972   2.455   7.169   6.797 -0.6630  0.1380 -0.0504
   61MOL0     C 7973   2.589   7.206   6.787 -0.2484 -0.1042 -0.6302
   61MOL0     C 7974   2.943   7.468   6.687 -0.0213  0.7327  0.8685
   61MOL0     C 7975   2.959   7.464   6.546  0.0396  0.8421  0.0351
   61MOL0     C 7976   3.077   7.513   6.500 -0.4256  0.1428 -0.1661
   61MOL0     C 7977   3.175   7.560   6.579  0.4858  0.3323 -0.3039
   61MOL0     O 7978   3.295   7.598   6.519 -0.5475 -0.4720 -0.4246
   61MOL0     C 7979   3.411   7.628   6.603  0.7275  0.2010  0.9847
   61MOL0     C 7980   3.487   7.498   6.664  0.0512  0.0307  0.2992
   61MOL0     C 7981   3.615   7.533   6.738  0.3144 -0.4108  0.9696
   61MOL0     C 7982   3.713   7.625   6.664 -0.0436  0.9529  0.3322
   61MOL0     C 7983   3.760   7.563   6.539  0.3161 -0.6324 -0.3526
   61MOL0     C 7984   3.792   7.521   6.435 -0.1888  0.7583  0.0404
   61MOL0     C 7985   3.164   7.559   6.718  0.2096 -0.6158  0.0473
   61MOL0     C 7986   3.040   7.525   6.776  0.3103 -0.2592  0.6788
   61MOL0     H 7987   2.554   7.414   6.525 -1.1871 -1.3173 -0.8502
   61MOL0     H 7988   2.313   7.370   6.550  0.0619 -2.5532 -1.8612
   61MOL0     H 7989   2.078   7.284   6.635 -1.6808  0.4237  0.3903
   61MOL0     H 7990   2.124   7.354   6.782  0.4958 -0.0594  1.5400
   61MOL0     H 7991   1.993   7.064   6.758  0.3445 -1.3134  4.4720
   61MOL0     H 7992   1.898   7.210   6.743  0.8896 -0.6817 -1.9876
   61MOL0     H 7993   2.000   7.280   6.976  1.7449 -0.0934  0.9321
   61MOL0     H 7994   2.074   7.117   6.969 -0.5822 -0.9837 -0.1791
   61MOL0     H 7995   1.775   7.148   6.953 -0.4205 -0.2611  1.3235
   61MOL0     H 7996   1.864   6.998   6.965 -2.2518 -0.5621  0.6707
   61MOL0     H 7997   1.863   7.210   7.176  0.4875  0.5333  0.4487
   61MOL0     H 7998   1.922   7.048   7.196  1.2495  1.8078 -0.4061
   61MOL0     H 7999   1.696   6.950   7.148  0.2405 -0.4275 -1.0923
   61MOL0     H 8000   1.636   7.124   7.139 -2.0392 -1.2883  0.2292
   61MOL0     H 8001   1.776   7.119   7.383  1.4805 -3.2430  1.3774
   61MOL0     H 8002   1.602   7.090   7.378 -0.7439 -0.0659  0.4069
   61MOL0     H 8003   1.826   6.876   7.365  2.0574  1.3218  1.0022
   61MOL0     H 8004   1.646   6.851   7.344 -0.4804  0.1248  1.0982
   61MOL0     H 8005   1.899   6.992   7.595  0.4801 -1.0500 -3.1418
   61MOL0     H 8006   1.720   6.977   7.957  2.6746 -2.7847  2.5556
   61MOL0     H 8007   1.860   7.047   7.879  1.3908 -1.3567  0.2551
   61MOL0     H 8008   1.923   6.776   7.830 -0.4948 -1.6735  0.6850
   61MOL0     H 8009   1.781   6.754   7.930  0.5460  0.3353  2.5158
   61MOL0     H 8010   1.992   6.911   8.058  1.1215 -0.3532 -2.3243
   61MOL0     H 8011   1.873   6.802   8.128 -0.9037  0.0579 -0.2105
   61MOL0     H 8012   2.104   6.719   7.945 -1.0166 -0.1125 -0.9876
   61MOL0     H 8013   2.004   6.604   8.026 -2.5350  1.5174 -1.2782
   61MOL0     H 8014   2.236   6.513   8.090 -2.0366 -1.3062 -0.2493
   61MOL0     H 8015   2.300   6.330   8.234  0.6198  1.4334 -0.6599
   61MOL0     H 8016   2.015   6.118   8.772 -0.5716 -1.1664 -1.7152
   61MOL0     H 8017   2.091   5.951   8.934  0.3196  1.8229  0.6357
   61MOL0     H 8018   2.236   5.789   9.093 -0.6239  0.2614 -0.6458
   61MOL0     H 8019   2.302   5.948   9.115  0.5285 -0.6356  0.6708
   61MOL0     H 8020   2.534   5.835   9.079 -0.7679  3.5331  0.6686
   61MOL0     H 8021   2.443   5.681   9.125 -0.5886 -0.9366  2.5758
   61MOL0     H 8022   2.395   5.751   9.335  3.9191 -2.0886  1.7451
   61MOL0     H 8023   2.429   5.926   9.301  2.2628  0.2071  3.0841
   61MOL0     H 8024   2.600   5.679   9.339 -0.7382  1.0892  0.6247
   61MOL0     H 8025   2.669   5.828   9.264  1.1948 -0.8655  0.2409
   61MOL0     H 8026   2.511   5.831   9.517 -2.2249  2.2500 -3.1157
   61MOL0     H 8027   2.594   5.958   9.438 -0.7016 -1.6955 -2.3301
   61MOL0     H 8028   2.816   5.840   9.499 -0.2688  0.7991 -0.6523
   61MOL0     H 8029   2.717   5.707   9.565 -1.9152 -0.5919 -2.0908
   61MOL0     H 8030   2.681   5.989   9.686  1.2322  0.8986  3.0330
   61MOL0     H 8031   2.641   5.826   9.751  1.0822  1.8300  0.8574
   61MOL0     H 8032   2.845   5.945   9.846 -1.4883  0.5598 -1.0856
   61MOL0     H 8033   2.920   5.928   9.681  1.9130 -2.3404  0.0820
   61MOL0     H 8034   2.494   5.995   8.770 -0.4864  2.7623 -2.4698
   61MOL0     H 8035   2.429   6.176   8.646  1.4983 -1.2992  1.0777
   61MOL0     H 8036   2.074   6.525   8.553  1.7542  0.4957  0.2271
   61MOL0     H 8037   2.015   6.703   8.381 -1.5611 -0.7939 -2.9741
   61MOL0     H 8038   2.428   7.104   6.879  1.9538 -1.1206 -0.0729
   61MOL0     H 8039   2.662   7.150   6.845  0.9858 -0.3107 -2.3068
   61MOL0     H 8040   2.886   7.412   6.484  0.0587 -1.3172  1.6814
   61MOL0     H 8041   3.093   7.501   6.393 -1.3596 -3.0117 -0.0503
   61MOL0     H 8042   3.389   7.703   6.680 -2.5629 -0.7978  1.1836
   61MOL0     H 8043   3.474   7.674   6.526  2.7125 -2.2133  1.0639
   61MOL0     H 8044   3.422   7.440   6.730 -1.3151 -0.9571 -1.8206
   61MOL0     H 8045   3.515   7.433   6.580 -0.9737 -0.6330  0.4533
   61MOL0     H 8046   3.666   7.439   6.760  1.0971 -0.6070 -1.3945
   61MOL0     H 8047   3.590   7.578   6.835  1.1317 -1.6149  1.7585
   61MOL0     H 8048   3.666   7.719   6.634  0.2387  1.4952  1.5314
   61MOL0     H 8049   3.804   7.650   6.719  0.9038  2.8268 -1.9014
   61MOL0     H 8050   3.830   7.472   6.348 -1.0639 -0.1740  0.1690
   61MOL0     H 8051   3.236   7.608   6.783 -2.8903  2.5730  1.4205
   61MOL0     H 8052   3.030   7.528   6.884 -1.5414  2.0662  0.5245
   62MOL0     O 8053   3.751   4.915   6.350  0.4351  0.3349 -0.2852
   62MOL0     C 8054   3.814   5.015   6.326 -0.1591  1.1423 -0.0459
   62MOL0     O 8055   3.771   5.143   6.342 -0.7494 -0.2343  0.1535
   62MOL0     C 8056   3.644   5.170   6.388  0.7340 -0.6462  0.3869
   62MOL0     C 8057   3.628   5.279   6.476 -0.1644 -0.2334 -0.1672
   62MOL0     C 8058   3.502   5.317   6.523 -0.5812 -0.1015 -0.3936
   62MOL0     C 8059   3.388   5.251   6.481  0.1375 -0.6897  0.0747
   62MOL0     O 8060   3.265   5.296   6.527  0.1688  0.0995  0.5010
   62MOL0     C 8061   3.149   5.212   6.517 -0.2804 -1.0024 -0.0261
   62MOL0     C 8062   3.043   5.252   6.620  0.0564  0.4788 -0.1096
   62MOL0     C 8063   2.918   5.165   6.597  0.3779 -0.5319  0.4325
   62MOL0     C 8064   2.810   5.189   6.701 -0.2325 -0.3374  0.1390
   62MOL0     C 8065   2.681   5.120   6.650  0.1172 -1.2430 -0.0158
   62MOL0     C 8066   2.583   5.121   6.768 -0.1076 -0.4788  0.2584
   62MOL0     C 8067   2.444   5.078   6.733 -0.2509 -0.4629 -0.5088
   62MOL0     C 8068   2.352   5.049   6.844 -1.2700  0.1177 -1.0220
   62MOL0     N 8069   2.214   5.047   6.803 -0.9584 -0.7770 -0.0390
   62MOL0     C 8070   2.143   4.950   6.728  0.9102  0.2385 -0.0025
   62MOL0     C 8071   2.013   5.002   6.721 -0.5482 -0.9301  1.2126
   62MOL0     C 8072   1.889   4.942   6.655 -0.1127  0.3879  0.0039
   62MOL0     C 8073   1.811   4.878   6.765 -0.6834  0.7427 -0.5118
   62MOL0     C 8074   1.741   4.986   6.838 -0.5363  0.1119  0.6862
   62MOL0     C 8075   1.605   4.962   6.904  0.4468  0.1734  0.1195
   62MOL0     O 8076   1.512   4.933   6.801  0.3594 -0.6355  0.7172
   62MOL0     C 8077   1.375   4.923   6.820  0.2721 -0.5798  0.0697
   62MOL0     C 8078   1.303   4.928   6.938  1.0888 -0.3619  0.1258
   62MOL0     C 8079   1.165   4.906   6.936 -0.0440 -0.5779  0.4467
   62MOL0     C 8080   1.085   4.872   6.823  0.1330  1.0178  0.7424
   62MOL0     C 8081   0.938   4.860   6.823 -0.1102  0.2086 -0.0233
   62MOL0     O 8082   0.871   4.856   6.710  0.6618  0.2973  0.1168
   62MOL0     C 8083   0.736   4.836   6.700  0.7359 -0.7579 -0.3393
   62MOL0     C 8084   0.700   4.737   6.614  0.1442  0.1690  0.0651
   62MOL0     C 8085   0.557   4.718   6.598 -0.0116 -0.2561 -0.6130
   62MOL0     C 8086   0.463   4.789   6.672  0.0575 -0.0029 -0.0156
   62MOL0     O 8087   0.327   4.767   6.683 -0.1050 -0.4826  0.0009
   62MOL0     C 8088   0.271   4.649   6.628 -0.5760 -0.3765  0.2055
   62MOL0     C 8089   0.147   4.611   6.698 -0.8807 -0.3315 -0.5073
   62MOL0     C 8090   0.074   4.488   6.661  0.3389 -0.3366  0.1155
   62MOL0     C 8091  -0.001   4.412   6.775  0.4657  0.4168  0.1074
   62MOL0     C 8092  -0.154   4.405   6.753  0.2692 -0.7050 -1.1190
   62MOL0     C 8093  -0.229   4.388   6.883 -0.0990  0.5729  0.0769
   62MOL0     C 8094  -0.189   4.251   6.952 -0.1243  0.3788 -0.2445
   62MOL0     C 8095  -0.285   4.227   7.075 -0.5155 -0.0119  0.2880
   62MOL0    Cl 8096  -0.454   4.203   7.021 -0.2102  0.1341 -0.6225
   62MOL0     C 8097   0.513   4.890   6.753  0.1203 -0.0125  0.1173
   62MOL0     C 8098   0.640   4.923   6.760 -0.4243  0.6243  1.2902
   62MOL0     O 8099   0.890   4.871   6.933  0.0034  0.0560  0.6624
   62MOL0     C 8100   1.161   4.866   6.706  0.4197 -0.4368 -0.3032
   62MOL0     C 8101   1.297   4.896   6.704 -1.1219  0.1272 -0.4046
   62MOL0     N 8102   2.016   5.128   6.776  0.0519 -0.0765  0.3376
   62MOL0     N 8103   2.130   5.152   6.824 -0.2715 -0.1385 -0.3712
   62MOL0     C 8104   3.403   5.140   6.393 -0.9691 -0.2346 -0.6621
   62MOL0     C 8105   3.532   5.101   6.342 -0.1196  0.7059 -0.5623
   62MOL0     C 8106   3.957   4.990   6.274  0.2831  0.7185  0.4321
   62MOL0     C 8107   4.036   4.870   6.286  1.1440 -0.1195 -0.2226
   62MOL0     C 8108   4.159   4.869   6.239 -0.9502  1.0003 -0.2347
   62MOL0     C 8109   4.213   4.971   6.156 -0.2622  0.1705 -0.4943
   62MOL0     O 8110   4.333   4.956   6.094  0.1446 -0.7712  0.5444
   62MOL0     C 8111   4.373   5.010   5.963 -0.3088  0.8715 -0.0986
   62MOL0     C 8112   4.282   4.961   5.854 -0.6086 -0.2305  0.1183
   62MOL0     C 8113   4.361   4.842   5.799  0.6388 -0.1349  1.1837
   62MOL0     C 8114   4.308   4.813   5.660 -0.8178 -0.7619  0.2396
   62MOL0     C 8115   4.166   4.779   5.663 -0.3319  0.3051  1.5709
   62MOL0     C 8116   4.050   4.755   5.655  0.1147 -0.5410  0.4331
   62MOL0     C 8117   4.134   5.088   6.135  0.3317 -0.4198 -0.5953
   62MOL0     C 8118   4.005   5.093   6.189 -0.5605 -0.5005 -0.3046
   62MOL0     H 8119   3.725   5.325   6.493  0.2817 -0.1797 -2.5627
   62MOL0     H 8120   3.484   5.395   6.596 -0.5584  0.0013 -0.4971
   62MOL0     H 8121   3.166   5.105   6.531  2.7830 -0.8338 -1.4892
   62MOL0     H 8122   3.109   5.224   6.416  2.1053 -2.1183 -1.2096
   62MOL0     H 8123   3.021   5.360   6.625  2.6216  1.0654 -0.4340
   62MOL0     H 8124   3.087   5.240   6.720  2.0534  2.2212 -0.6999
   62MOL0     H 8125   2.945   5.060   6.598 -1.7688 -1.1377  0.8594
   62MOL0     H 8126   2.869   5.185   6.501  0.8252  1.8100  0.6191
   62MOL0     H 8127   2.840   5.133   6.791 -1.1463 -1.5473 -0.2793
   62MOL0     H 8128   2.797   5.295   6.723  0.2764 -0.6003  1.8552
   62MOL0     H 8129   2.693   5.013   6.628 -2.5286 -2.0818  2.0163
   62MOL0     H 8130   2.633   5.167   6.564 -0.0668 -0.0567  0.7253
   62MOL0     H 8131   2.569   5.209   6.831 -3.5720 -1.4526  1.0813
   62MOL0     H 8132   2.620   5.055   6.847  0.5526  0.4884  0.7750
   62MOL0     H 8133   2.395   5.149   6.665 -0.0164  0.2284  0.0401
   62MOL0     H 8134   2.450   4.993   6.664  2.2681 -1.4712  0.8342
   62MOL0     H 8135   2.364   5.115   6.930  1.7298 -2.4555  0.7616
   62MOL0     H 8136   2.377   4.952   6.888  1.2905  1.5595  1.0280
   62MOL0     H 8137   2.164   4.854   6.682 -0.1259  1.1723 -2.5721
   62MOL0     H 8138   1.925   4.862   6.589 -0.6064  0.4435 -0.3349
   62MOL0     H 8139   1.834   5.016   6.596 -0.0337 -0.5172 -1.2624
   62MOL0     H 8140   1.868   4.815   6.835  0.8442  1.6707 -0.8741
   62MOL0     H 8141   1.740   4.812   6.715  0.5677 -2.1839  1.2540
   62MOL0     H 8142   1.810   5.028   6.912 -0.1717  0.6239  0.0652
   62MOL0     H 8143   1.707   5.068   6.773  0.5331  0.4018  0.4711
   62MOL0     H 8144   1.583   5.048   6.967  1.0032  0.6804 -0.3665
   62MOL0     H 8145   1.621   4.875   6.968  0.2635  0.7415  0.9521
   62MOL0     H 8146   1.358   4.938   7.031 -0.4213 -1.8118  1.2353
   62MOL0     H 8147   1.108   4.906   7.029  1.9044  1.7270  1.7583
   62MOL0     H 8148   0.770   4.678   6.557 -0.3374 -0.5632  0.2267
   62MOL0     H 8149   0.528   4.640   6.528  1.9611  0.8503 -2.8230
   62MOL0     H 8150   0.339   4.565   6.638  0.1301  0.4472  3.1137
   62MOL0     H 8151   0.249   4.665   6.522  1.2615  0.5683 -0.0702
   62MOL0     H 8152   0.077   4.695   6.695  0.2378  0.6495  0.0677
   62MOL0     H 8153   0.186   4.593   6.799  3.7326  0.3134 -1.9451
   62MOL0     H 8154   0.142   4.412   6.621 -1.4071 -0.9272 -1.8685
   62MOL0     H 8155   0.015   4.501   6.571  0.5474  0.9265  0.1418
   62MOL0     H 8156   0.041   4.311   6.777  0.5864  0.4592 -0.1728
   62MOL0     H 8157   0.025   4.445   6.875  1.1999 -2.6701  1.0589
   62MOL0     H 8158  -0.174   4.320   6.687  2.1936 -1.9114 -0.2522
   62MOL0     H 8159  -0.195   4.497   6.710 -1.2707 -1.2474 -0.8566
   62MOL0     H 8160  -0.336   4.407   6.876  0.4808  3.6488 -3.5330
   62MOL0     H 8161  -0.181   4.461   6.950  1.9795  0.3274 -1.0503
   62MOL0     H 8162  -0.199   4.161   6.891  1.4791 -0.0286  0.0634
   62MOL0     H 8163  -0.085   4.263   6.984 -0.6083  5.4951  0.2388
   62MOL0     H 8164  -0.278   4.324   7.125 -2.2168  0.5559 -0.5285
   62MOL0     H 8165  -0.257   4.147   7.145  2.2906  0.5099 -0.0855
   62MOL0     H 8166   0.434   4.946   6.802  0.6049  0.5649  0.2539
   62MOL0     H 8167   0.673   5.011   6.815  0.3994  2.3984 -1.7901
   62MOL0     H 8168   1.109   4.830   6.618 -1.5928 -0.9007  1.0140
   62MOL0     H 8169   1.354   4.882   6.612  1.2507  0.9232  0.8611
   62MOL0     H 8170   3.307   5.095   6.368 -2.0809  1.4854  0.2740
   62MOL0     H 8171   3.535   5.021   6.268  1.2078 -0.2522  0.4801
   62MOL0     H 8172   3.998   4.778   6.330  0.9221 -0.2680 -0.7104
   62MOL0     H 8173   4.214   4.776   6.248  1.1739  1.9362 -2.3703
   62MOL0     H 8174   4.481   4.998   5.950 -0.2852  1.6808 -0.6732
   62MOL0     H 8175   4.372   5.119   5.963  1.5211  1.0259  3.3094
   62MOL0     H 8176   4.193   4.919   5.903 -0.3942  1.4037  2.0598
   62MOL0     H 8177   4.251   5.034   5.778 -2.3599 -1.6004 -0.5389
   62MOL0     H 8178   4.338   4.759   5.867 -0.5691 -0.8217 -0.0217
   62MOL0     H 8179   4.468   4.853   5.778  0.6151 -1.9038 -0.0002
   62MOL0     H 8180   4.334   4.895   5.591  1.4604 -0.9798  0.7716
   62MOL0     H 8181   4.361   4.723   5.628  0.5343 -0.4713  1.5560
   62MOL0     H 8182   3.948   4.728   5.637 -0.5676  1.6377  0.7332
   62MOL0     H 8183   4.171   5.173   6.079 -2.4672  0.1360 -1.7505
   62MOL0     H 8184   3.944   5.183   6.181  1.0999  0.8255  1.0253
   63MOL0     O 8185   7.778   1.789   4.028 -0.0311 -0.3043  0.1920
   63MOL0     C 8186   7.814   1.678   4.052  0.1970  0.6072 -0.4985
   63MOL0     O 8187   7.769   1.566   3.986 -0.5871  0.0520  0.5059
   63MOL0     C 8188   7.668   1.573   3.897  0.0766  0.0596  0.0732
   63MOL0     C 8189   7.557   1.658   3.899 -0.8542  0.0166 -0.0492
   63MOL0     C 8190   7.458   1.632   3.806  0.6930 -0.9009  0.0880
   63MOL0     C 8191   7.464   1.526   3.716  1.1398  0.0738  0.2009
   63MOL0     O 8192   7.356   1.504   3.634  0.3210  0.0005  0.1129
   63MOL0     C 8193   7.227   1.512   3.695 -0.0395 -0.7852  0.8122
   63MOL0     C 8194   7.127   1.437   3.612  0.2234  0.2168  0.3774
   63MOL0     C 8195   6.981   1.477   3.651 -0.0366  0.9338  0.2352
   63MOL0     C 8196   6.946   1.410   3.788 -0.5770  0.2234  0.5614
   63MOL0     C 8197   6.806   1.452   3.845  0.2804  0.1931  0.6346
   63MOL0     C 8198   6.692   1.404   3.757  0.7970 -0.3540  0.3524
   63MOL0     C 8199   6.613   1.519   3.699  0.3943 -0.3242 -1.0658
   63MOL0     C 8200   6.478   1.461   3.655  0.1709  0.4829 -0.5810
   63MOL0     N 8201   6.391   1.575   3.651  0.4331 -0.6080 -1.0706
   63MOL0     C 8202   6.352   1.642   3.541 -0.5858  0.2634  0.0179
   63MOL0     C 8203   6.255   1.724   3.582 -0.4701  0.1510  0.1215
   63MOL0     C 8204   6.213   1.844   3.509 -0.2363 -1.0593  0.0232
   63MOL0     C 8205   6.184   1.972   3.590 -0.6028 -0.6857 -0.0219
   63MOL0     C 8206   6.319   2.048   3.603 -0.7122 -0.2171 -0.3196
   63MOL0     C 8207   6.425   1.993   3.701  0.3460 -0.2343  0.5798
   63MOL0     O 8208   6.523   2.090   3.744 -0.2425  0.7906  0.1237
   63MOL0     C 8209   6.656   2.047   3.764 -0.3264  0.2998  1.2211
   63MOL0     C 8210   6.747   2.148   3.736 -0.2497 -0.7458 -0.1280
   63MOL0     C 8211   6.884   2.124   3.752 -0.1914  0.0127  0.0890
   63MOL0     C 8212   6.936   2.002   3.801 -0.4221 -0.5732  0.0336
   63MOL0     C 8213   7.087   1.974   3.807 -0.2626 -0.2757 -0.6636
   63MOL0     O 8214   7.150   2.089   3.770  0.0629 -0.6340  0.8205
   63MOL0     C 8215   7.281   2.083   3.750 -0.2816 -0.6650 -0.1996
   63MOL0     C 8216   7.323   2.134   3.629 -0.1815  0.1248  0.5507
   63MOL0     C 8217   7.466   2.135   3.603  0.2843  0.2808  0.4708
   63MOL0     C 8218   7.560   2.086   3.704  1.4988 -0.7740 -0.7673
   63MOL0     O 8219   7.698   2.074   3.669  0.4520 -0.4567  0.6005
   63MOL0     C 8220   7.782   1.982   3.750 -0.4934  0.3886 -0.6152
   63MOL0     C 8221   7.937   1.985   3.724  0.0247 -0.3668 -0.3487
   63MOL0     C 8222   8.003   1.896   3.842  0.4532 -0.0816 -0.5372
   63MOL0     C 8223   8.155   1.877   3.818 -0.2799  1.2605 -0.3600
   63MOL0     C 8224   8.207   1.807   3.950 -0.2343  0.2102  0.5104
   63MOL0     C 8225   8.348   1.757   3.945  0.3226  0.1605  0.3132
   63MOL0     C 8226   8.388   1.700   4.083  0.7085 -0.0386 -0.1968
   63MOL0     C 8227   8.532   1.643   4.088 -0.0279 -0.4422  0.6321
   63MOL0    Cl 8228   8.550   1.556   4.239  0.1612  0.0013 -0.0500
   63MOL0     C 8229   7.509   2.030   3.818  1.2806  0.4503 -0.7692
   63MOL0     C 8230   7.373   2.029   3.841 -0.3075 -0.6445  1.1143
   63MOL0     O 8231   7.135   1.865   3.838 -0.0575  0.7401  0.3320
   63MOL0     C 8232   6.844   1.893   3.815 -0.2485  0.1654 -0.3797
   63MOL0     C 8233   6.712   1.922   3.796  0.0878 -0.4714  0.5169
   63MOL0     N 8234   6.228   1.701   3.722  0.4907  0.1614  0.5617
   63MOL0     N 8235   6.317   1.615   3.762  0.7001 -0.1520 -0.3471
   63MOL0     C 8236   7.570   1.444   3.711 -0.5754 -0.8270  0.1823
   63MOL0     C 8237   7.677   1.475   3.796  0.0587 -0.1331 -0.3914
   63MOL0     C 8238   7.924   1.656   4.153 -0.2859  0.2892 -1.3452
   63MOL0     C 8239   7.989   1.765   4.225 -0.3025  0.0040  0.6419
   63MOL0     C 8240   8.089   1.740   4.321 -0.0659 -0.3990  0.0352
   63MOL0     C 8241   8.135   1.605   4.345  0.1743  0.9028 -0.1688
   63MOL0     O 8242   8.256   1.584   4.414  0.3082  0.5008 -0.8055
   63MOL0     C 8243   8.311   1.451   4.435 -0.2539  0.3569 -0.5815
   63MOL0     C 8244   8.426   1.446   4.532 -0.5592  0.1634  0.7356
   63MOL0     C 8245   8.372   1.492   4.667 -0.7350 -0.0349  0.5830
   63MOL0     C 8246   8.479   1.486   4.783 -0.2759  0.4792  0.2017
   63MOL0     C 8247   8.427   1.535   4.912 -0.1564 -0.3461  0.1062
   63MOL0     C 8248   8.388   1.569   5.024 -0.2337  0.5215 -0.9423
   63MOL0     C 8249   8.068   1.492   4.288 -0.2669  0.3133  0.9575
   63MOL0     C 8250   7.970   1.523   4.185 -0.2020 -0.0834 -0.1407
   63MOL0     H 8251   7.539   1.745   3.961 -2.8276  0.6788 -1.4772
   63MOL0     H 8252   7.376   1.699   3.782 -0.0288 -1.9520 -0.4656
   63MOL0     H 8253   7.193   1.615   3.704  1.1854 -0.2254 -0.5411
   63MOL0     H 8254   7.229   1.484   3.801  0.6805 -2.4498  0.3922
   63MOL0     H 8255   7.136   1.328   3.617  0.3037  0.2259  0.4333
   63MOL0     H 8256   7.163   1.471   3.515  1.5912  3.3986  1.8760
   63MOL0     H 8257   6.915   1.436   3.574  0.0442  1.9121 -0.3691
   63MOL0     H 8258   6.986   1.586   3.649  0.0396  0.9291 -2.2493
   63MOL0     H 8259   6.950   1.301   3.780 -0.6795  0.3638 -2.0171
   63MOL0     H 8260   7.022   1.434   3.863  1.9349 -2.6756 -0.8331
   63MOL0     H 8261   6.811   1.560   3.860 -1.6457  0.3181  0.5200
   63MOL0     H 8262   6.788   1.411   3.945  2.2011 -2.0535  0.1529
   63MOL0     H 8263   6.626   1.351   3.826 -1.2666 -0.1825 -1.3886
   63MOL0     H 8264   6.735   1.346   3.674  0.4190  1.4905 -1.2125
   63MOL0     H 8265   6.599   1.597   3.774  0.6903 -3.1627  2.1825
   63MOL0     H 8266   6.664   1.567   3.614 -1.4156  0.9693 -1.4838
   63MOL0     H 8267   6.443   1.388   3.728  1.9850  0.2920  0.1431
   63MOL0     H 8268   6.482   1.420   3.554 -5.6201  0.4443 -1.1469
   63MOL0     H 8269   6.394   1.643   3.441  0.5006 -0.2607  0.4518
   63MOL0     H 8270   6.115   1.827   3.464 -0.5947  0.5795  0.1158
   63MOL0     H 8271   6.286   1.869   3.431 -2.5579  0.0311 -1.9376
   63MOL0     H 8272   6.146   1.942   3.688 -3.2227  1.4809 -0.2693
   63MOL0     H 8273   6.105   2.024   3.535  3.0550  4.0913 -1.4489
   63MOL0     H 8274   6.359   2.069   3.503  0.5453  0.3620  0.2766
   63MOL0     H 8275   6.297   2.148   3.640  2.2923  0.1245  0.8713
   63MOL0     H 8276   6.475   1.920   3.635 -0.0390  0.7161 -0.8144
   63MOL0     H 8277   6.370   1.951   3.786 -1.6809  3.3003  1.2230
   63MOL0     H 8278   6.722   2.248   3.701 -0.4114 -1.4770 -2.2376
   63MOL0     H 8279   6.956   2.200   3.725 -1.3615  1.9399  2.1118
   63MOL0     H 8280   7.253   2.169   3.554 -0.7558 -3.0529 -0.5656
   63MOL0     H 8281   7.500   2.170   3.506 -0.9216 -1.9650 -0.8468
   63MOL0     H 8282   7.734   1.884   3.741 -0.5072  0.2510  0.7864
   63MOL0     H 8283   7.768   1.996   3.857 -0.9345 -0.0966 -0.6024
   63MOL0     H 8284   7.970   2.089   3.731 -1.0081 -0.0395 -0.1290
   63MOL0     H 8285   7.963   1.955   3.622  1.0854  1.5642 -0.7052
   63MOL0     H 8286   7.962   1.794   3.838  2.0285 -0.7646 -0.2728
   63MOL0     H 8287   7.991   1.940   3.941 -2.9755  1.1465 -1.3808
   63MOL0     H 8288   8.179   1.802   3.741  0.5717  0.9111  0.2257
   63MOL0     H 8289   8.204   1.971   3.791  0.6236  1.0251  0.4021
   63MOL0     H 8290   8.152   1.715   3.968  0.7437 -0.3920  0.4576
   63MOL0     H 8291   8.187   1.877   4.032  1.0236  0.2072  0.8412
   63MOL0     H 8292   8.407   1.848   3.932  2.6593 -1.4460 -0.8829
   63MOL0     H 8293   8.368   1.682   3.867  1.3789  2.6059 -1.9454
   63MOL0     H 8294   8.379   1.778   4.159 -4.2974 -0.2161 -0.2709
   63MOL0     H 8295   8.317   1.622   4.111  0.7101 -0.5827 -1.5954
   63MOL0     H 8296   8.601   1.728   4.093 -1.3758  0.6449  1.5244
   63MOL0     H 8297   8.551   1.571   4.007  2.8334 -0.9214  1.6177
   63MOL0     H 8298   7.568   1.970   3.888 -0.5447  0.4965  0.8892
   63MOL0     H 8299   7.342   1.993   3.938  1.0516  1.6126  2.4791
   63MOL0     H 8300   6.877   1.797   3.854 -4.0509 -0.2226  2.4677
   63MOL0     H 8301   6.637   1.846   3.816  1.6675 -1.9487  1.0254
   63MOL0     H 8302   7.590   1.369   3.636 -1.2652  0.6224 -1.5191
   63MOL0     H 8303   7.764   1.409   3.794  1.3607  0.9590  4.6684
   63MOL0     H 8304   7.972   1.869   4.200 -2.5175 -0.3487  0.4408
   63MOL0     H 8305   8.148   1.820   4.365  1.3736  0.6076 -3.3783
   63MOL0     H 8306   8.345   1.409   4.340  1.1245 -0.4827  0.2586
   63MOL0     H 8307   8.234   1.383   4.472 -1.5248  0.4681 -2.8128
   63MOL0     H 8308   8.459   1.342   4.541 -0.6752 -0.0085 -0.6547
   63MOL0     H 8309   8.506   1.510   4.493  0.4462 -0.8669  1.0589
   63MOL0     H 8310   8.293   1.420   4.691 -0.4873 -2.5953 -4.9082
   63MOL0     H 8311   8.331   1.591   4.646 -2.7017 -1.0337 -0.5476
   63MOL0     H 8312   8.489   1.377   4.791 -1.4062 -0.4038 -5.6581
   63MOL0     H 8313   8.571   1.539   4.757  2.4789 -3.3633  1.2160
   63MOL0     H 8314   8.357   1.609   5.119 -0.7339 -0.6461 -0.5941
   63MOL0     H 8315   8.114   1.394   4.279 -1.1288  0.1182 -3.1823
   63MOL0     H 8316   7.934   1.442   4.122 -1.0731 -1.5259  2.0909
   64MOL0     O 8317   7.322   2.643   5.151  0.1806  0.3801  0.0154
   64MOL0     C 8318   7.398   2.620   5.057  0.2684 -0.5188  1.3179
   64MOL0     O 8319   7.366   2.619   4.927  0.3568  0.3515 -0.9694
   64MOL0     C 8320   7.232   2.628   4.896 -0.1863  0.1432  0.9147
   64MOL0     C 8321   7.127   2.703   4.949  0.6136  0.0101 -0.1027
   64MOL0     C 8322   6.988   2.689   4.908 -0.8560 -0.3904  0.8451
   64MOL0     C 8323   6.957   2.596   4.807 -0.3512  0.6328 -0.6055
   64MOL0     O 8324   6.833   2.573   4.755  0.4678 -0.1428 -0.6773
   64MOL0     C 8325   6.716   2.651   4.787  0.7190 -0.0409 -0.1729
   64MOL0     C 8326   6.589   2.588   4.726 -1.0216 -0.4507  0.9803
   64MOL0     C 8327   6.472   2.692   4.732  0.2402 -0.0941 -0.2294
   64MOL0     C 8328   6.335   2.624   4.737  0.1840  0.3625 -0.1264
   64MOL0     C 8329   6.223   2.727   4.734  0.8957  0.2374  0.6859
   64MOL0     C 8330   6.083   2.660   4.729 -0.9823 -0.2290 -0.0003
   64MOL0     C 8331   5.974   2.763   4.731  0.4430  0.0363 -0.0471
   64MOL0     C 8332   5.845   2.698   4.785  0.4712 -0.0373  0.3034
   64MOL0     N 8333   5.730   2.784   4.752 -0.5143 -0.1745  0.4781
   64MOL0     C 8334   5.695   2.898   4.814  0.0184 -0.6769 -0.1409
   64MOL0     C 8335   5.590   2.941   4.745 -0.7192 -0.1612  0.1958
   64MOL0     C 8336   5.507   3.056   4.799  1.0838 -1.1742  0.1338
   64MOL0     C 8337   5.534   3.194   4.733 -0.2511  0.6837 -0.4852
   64MOL0     C 8338   5.388   3.264   4.735 -0.3698  0.3178  0.6767
   64MOL0     C 8339   5.385   3.397   4.656  0.3167 -0.1850  0.0094
   64MOL0     O 8340   5.481   3.498   4.702 -0.1845  0.1966 -0.1216
   64MOL0     C 8341   5.506   3.611   4.636 -0.0321  0.5901  0.5647
   64MOL0     C 8342   5.616   3.682   4.671 -0.6836 -0.1500 -0.0216
   64MOL0     C 8343   5.660   3.798   4.603 -0.4654 -0.1048  0.0436
   64MOL0     C 8344   5.584   3.847   4.506  0.8865 -0.1495 -0.2545
   64MOL0     C 8345   5.625   3.968   4.436 -0.0581 -0.6376 -0.6302
   64MOL0     O 8346   5.736   4.031   4.477  0.4485  0.3545 -0.4734
   64MOL0     C 8347   5.788   4.127   4.390 -0.1180  0.4957  0.4908
   64MOL0     C 8348   5.844   4.231   4.462  0.0816 -0.3571  0.2825
   64MOL0     C 8349   5.887   4.345   4.397 -1.1153  0.2468  0.3243
   64MOL0     C 8350   5.889   4.353   4.258 -1.0127  0.3573  1.2507
   64MOL0     O 8351   5.938   4.472   4.201  0.7811  0.5704 -0.5670
   64MOL0     C 8352   5.985   4.489   4.066  0.4725 -0.0935 -0.6109
   64MOL0     C 8353   6.121   4.418   4.050 -0.0084 -0.0749 -0.7516
   64MOL0     C 8354   6.219   4.446   4.162 -0.2293 -0.2152 -0.2851
   64MOL0     C 8355   6.346   4.360   4.130 -0.6432  0.0717 -0.1836
   64MOL0     C 8356   6.471   4.404   4.215  0.4915 -0.3398 -0.6809
   64MOL0     C 8357   6.591   4.311   4.202  0.2920  0.6035  0.5321
   64MOL0     C 8358   6.720   4.379   4.241  0.1364 -0.0318 -0.0841
   64MOL0     C 8359   6.814   4.283   4.317 -0.8980 -0.1195 -0.1785
   64MOL0    Cl 8360   6.881   4.161   4.193 -0.5977  0.4113 -0.1268
   64MOL0     C 8361   5.836   4.246   4.186 -0.5817  0.8547  0.4277
   64MOL0     C 8362   5.796   4.135   4.251 -0.9552  0.7852  0.3047
   64MOL0     O 8363   5.547   4.006   4.348 -0.0343  0.2722 -0.5473
   64MOL0     C 8364   5.461   3.791   4.482  0.3173 -0.3922 -0.7288
   64MOL0     C 8365   5.417   3.673   4.540 -0.0228  0.3829 -0.4974
   64MOL0     N 8366   5.559   2.855   4.641 -0.3698  0.4599  0.0005
   64MOL0     N 8367   5.654   2.763   4.639  0.3292 -0.0328  0.0704
   64MOL0     C 8368   7.059   2.526   4.754 -0.0039 -0.4427  0.6246
   64MOL0     C 8369   7.190   2.544   4.793 -0.6936 -0.0768  1.0407
   64MOL0     C 8370   7.542   2.585   5.095  0.5231 -0.5297  0.5719
   64MOL0     C 8371   7.626   2.532   4.997 -0.1865 -0.0712 -0.2656
   64MOL0     C 8372   7.746   2.491   5.030  0.2073  0.2891  0.3818
   64MOL0     C 8373   7.797   2.496   5.162 -0.2655  0.0612  0.2803
   64MOL0     O 8374   7.927   2.455   5.172  0.0789 -0.6406 -0.4367
   64MOL0     C 8375   8.005   2.471   5.296  0.0583 -0.0822  0.0598
   64MOL0     C 8376   8.069   2.607   5.326 -0.5300  0.4448  0.3947
   64MOL0     C 8377   8.173   2.653   5.215  0.5824 -0.0301 -0.4681
   64MOL0     C 8378   8.244   2.779   5.264  0.2233  0.4542  0.2831
   64MOL0     C 8379   8.342   2.836   5.165  0.1075 -0.2867 -0.5028
   64MOL0     C 8380   8.407   2.905   5.084  0.6093  0.1027 -0.2038
   64MOL0     C 8381   7.718   2.557   5.260  0.8924  0.0985 -0.2895
   64MOL0     C 8382   7.591   2.595   5.227 -0.5641  0.0749 -0.0705
   64MOL0     H 8383   7.150   2.772   5.029 -0.3490  2.1688 -1.5772
   64MOL0     H 8384   6.905   2.741   4.954  0.7164  1.6250  1.5436
   64MOL0     H 8385   6.734   2.751   4.747 -0.5668  0.0423 -0.5899
   64MOL0     H 8386   6.715   2.673   4.894  1.4727  0.2446 -0.2158
   64MOL0     H 8387   6.560   2.497   4.779 -0.2547 -0.0495  2.1411
   64MOL0     H 8388   6.615   2.560   4.624 -3.3031 -0.6594  0.4131
   64MOL0     H 8389   6.480   2.756   4.644  2.0730 -0.9937 -0.7685
   64MOL0     H 8390   6.476   2.749   4.826  0.6229  0.2432 -0.4471
   64MOL0     H 8391   6.328   2.552   4.655  2.9499  0.7083 -0.7840
   64MOL0     H 8392   6.321   2.566   4.829  0.8957  1.8413  0.9499
   64MOL0     H 8393   6.221   2.778   4.637 -2.4564 -3.5116 -1.5270
   64MOL0     H 8394   6.232   2.802   4.813 -0.1646  2.2192 -0.9443
   64MOL0     H 8395   6.073   2.587   4.810 -2.1475 -2.1680 -1.7759
   64MOL0     H 8396   6.071   2.606   4.635 -3.2949  0.9662 -0.4754
   64MOL0     H 8397   6.020   2.840   4.794  2.4877  0.0279 -1.4606
   64MOL0     H 8398   5.956   2.797   4.629  0.4081 -0.9030 -0.3608
   64MOL0     H 8399   5.852   2.681   4.893 -0.0480 -3.2750 -0.0733
   64MOL0     H 8400   5.830   2.599   4.740 -0.4637  0.4525 -0.4796
   64MOL0     H 8401   5.729   2.947   4.905 -0.6838 -1.7554  0.7267
   64MOL0     H 8402   5.509   3.062   4.908  1.5253 -0.2787  0.0825
   64MOL0     H 8403   5.410   3.020   4.763  1.7026 -1.3042 -1.5053
   64MOL0     H 8404   5.575   3.175   4.633  1.1401 -3.1096  0.6426
   64MOL0     H 8405   5.605   3.263   4.779  4.1702 -1.7224 -3.0127
   64MOL0     H 8406   5.310   3.196   4.702  2.2499 -3.4554  1.5598
   64MOL0     H 8407   5.356   3.284   4.838 -0.4701 -3.9708  1.6643
   64MOL0     H 8408   5.281   3.433   4.660 -0.0945 -0.6570 -3.3862
   64MOL0     H 8409   5.396   3.376   4.549 -1.1204 -1.4622  0.0786
   64MOL0     H 8410   5.684   3.631   4.738  5.1624  1.7049 -3.8293
   64MOL0     H 8411   5.752   3.848   4.632 -0.4545 -1.9581  3.7931
   64MOL0     H 8412   5.859   4.234   4.570 -0.1350 -1.1391  0.3385
   64MOL0     H 8413   5.935   4.422   4.457  0.6649 -1.6517  1.4762
   64MOL0     H 8414   5.994   4.594   4.039  0.2156 -0.6671 -3.2196
   64MOL0     H 8415   5.911   4.459   3.992  0.1482 -1.4098  0.2102
   64MOL0     H 8416   6.159   4.439   3.950  0.5060  1.6410 -0.2470
   64MOL0     H 8417   6.110   4.310   4.049 -0.9010  0.0117 -0.6899
   64MOL0     H 8418   6.170   4.406   4.251 -0.0990  0.5786  0.1552
   64MOL0     H 8419   6.262   4.544   4.184 -0.7671  0.0049 -0.2135
   64MOL0     H 8420   6.340   4.252   4.149 -2.4681  0.5290  2.3612
   64MOL0     H 8421   6.367   4.379   4.024  1.4346 -0.2057  0.1284
   64MOL0     H 8422   6.455   4.410   4.323  2.2405 -3.4728 -0.1206
   64MOL0     H 8423   6.503   4.500   4.174  0.7236 -0.3193 -0.4535
   64MOL0     H 8424   6.585   4.278   4.098 -1.2746 -0.5937  0.9629
   64MOL0     H 8425   6.566   4.232   4.274 -4.2932  1.3458  0.0831
   64MOL0     H 8426   6.762   4.413   4.146 -0.3311 -1.4591 -0.8255
   64MOL0     H 8427   6.695   4.461   4.309  0.0608  0.7738 -1.0736
   64MOL0     H 8428   6.756   4.247   4.402 -3.2681  0.5392 -1.4407
   64MOL0     H 8429   6.892   4.351   4.353 -1.9821  0.7157  0.6556
   64MOL0     H 8430   5.828   4.250   4.078 -0.4576  0.4493  0.4023
   64MOL0     H 8431   5.760   4.046   4.199 -0.7630 -0.8634  2.8220
   64MOL0     H 8432   5.400   3.826   4.398  0.9904 -0.1077 -1.1026
   64MOL0     H 8433   5.316   3.647   4.509  0.0446  0.7759 -1.0610
   64MOL0     H 8434   7.041   2.450   4.679  0.9168 -2.0459  1.9805
   64MOL0     H 8435   7.267   2.495   4.735 -1.0430  0.9637 -0.3857
   64MOL0     H 8436   7.594   2.543   4.894  0.8137  1.0856 -0.4697
   64MOL0     H 8437   7.809   2.472   4.944 -3.1901 -0.2041 -2.1636
   64MOL0     H 8438   8.094   2.407   5.297  1.4836  1.7604  3.1304
   64MOL0     H 8439   7.947   2.436   5.382 -1.3105  0.1027 -0.7616
   64MOL0     H 8440   7.999   2.689   5.343  1.5948  2.3488  0.5158
   64MOL0     H 8441   8.117   2.592   5.423 -2.8763  0.6895  1.6468
   64MOL0     H 8442   8.114   2.647   5.123 -0.8442 -0.3367  0.4349
   64MOL0     H 8443   8.251   2.577   5.206 -1.5870 -2.4800  0.2501
   64MOL0     H 8444   8.159   2.843   5.291  0.0402 -0.7130  2.7041
   64MOL0     H 8445   8.291   2.755   5.359 -0.4545  0.6114  0.6603
   64MOL0     H 8446   8.465   2.969   5.020  0.8273  0.7157  0.5911
   64MOL0     H 8447   7.759   2.558   5.361 -0.2566 -0.0209  0.1967
   64MOL0     H 8448   7.515   2.612   5.303  1.2613  0.2131  1.8289
   65MOL0     O 8449  10.784   1.558   4.769 -0.4443 -0.0171 -0.2117
   65MOL0     C 8450  10.802   1.442   4.724  0.9155  0.2564  0.7349
   65MOL0     O 8451  10.700   1.368   4.671  0.6158  0.1766  0.5343
   65MOL0     C 8452  10.583   1.428   4.631  0.5459  0.4813 -0.1891
   65MOL0     C 8453  10.466   1.347   4.627 -0.4308  0.2278 -0.8354
   65MOL0     C 8454  10.344   1.384   4.565 -0.5461 -1.1287  0.2920
   65MOL0     C 8455  10.337   1.511   4.503  0.0522  0.5201  0.0245
   65MOL0     O 8456  10.207   1.541   4.466  0.4440  0.1909 -0.1926
   65MOL0     C 8457  10.184   1.684   4.445 -0.3206 -0.3295  0.6626
   65MOL0     C 8458  10.152   1.750   4.576 -0.1582 -0.0837  0.1871
   65MOL0     C 8459  10.005   1.718   4.620  0.3173 -0.7878  0.2750
   65MOL0     C 8460   9.961   1.829   4.718 -0.2760  0.9109  0.0022
   65MOL0     C 8461   9.824   1.810   4.783  0.3014 -0.4237 -0.4536
   65MOL0     C 8462   9.736   1.929   4.771  0.3380 -0.1069  0.7251
   65MOL0     C 8463   9.595   1.912   4.837  0.7490 -0.6609  0.3067
   65MOL0     C 8464   9.502   2.028   4.776 -0.4426  0.3513 -0.1505
   65MOL0     N 8465   9.459   2.009   4.635 -0.0535 -0.0153 -0.0790
   65MOL0     C 8466   9.341   1.959   4.596  1.4421  0.7256 -0.0016
   65MOL0     C 8467   9.326   1.973   4.459  0.7930  0.3615 -0.4665
   65MOL0     C 8468   9.205   1.932   4.385  0.3855 -0.5244  0.1639
   65MOL0     C 8469   9.154   2.054   4.308  0.2169  0.4898 -0.1015
   65MOL0     C 8470   9.005   2.041   4.265  0.3232  0.2157  0.3748
   65MOL0     C 8471   8.958   2.160   4.181 -0.9262  0.5184 -0.5508
   65MOL0     O 8472   8.836   2.106   4.129 -0.6272  0.5860  0.0334
   65MOL0     C 8473   8.710   2.151   4.168  0.3363  0.4339 -0.1476
   65MOL0     C 8474   8.673   2.238   4.269  0.0987 -0.3124 -0.2702
   65MOL0     C 8475   8.537   2.256   4.300  0.4912  0.3954 -0.2988
   65MOL0     C 8476   8.440   2.191   4.237 -0.3642 -0.0498  0.1032
   65MOL0     C 8477   8.290   2.208   4.282 -1.2403  0.5674  0.4615
   65MOL0     O 8478   8.207   2.137   4.201  0.0867 -0.9297  0.3802
   65MOL0     C 8479   8.068   2.160   4.198  0.5377 -0.5965  0.3535
   65MOL0     C 8480   7.981   2.147   4.308  0.0545 -0.6128 -0.1989
   65MOL0     C 8481   7.848   2.184   4.297 -0.6507 -0.0871 -0.2941
   65MOL0     C 8482   7.790   2.233   4.175 -0.2666 -0.4496 -0.4196
   65MOL0     O 8483   7.651   2.236   4.166  0.6011  0.1158 -0.6289
   65MOL0     C 8484   7.593   2.316   4.056  0.1106  0.0980 -0.2413
   65MOL0     C 8485   7.439   2.319   4.066 -0.7042 -0.4968 -0.2834
   65MOL0     C 8486   7.374   2.393   3.951 -1.1082  0.5414  0.6970
   65MOL0     C 8487   7.223   2.411   3.985 -0.2097  0.0015 -0.3113
   65MOL0     C 8488   7.157   2.510   3.888  0.1647 -0.2206 -0.0154
   65MOL0     C 8489   7.164   2.465   3.737 -0.2694  0.3654  0.5133
   65MOL0     C 8490   7.111   2.577   3.649  0.0332  1.6071  0.1671
   65MOL0     C 8491   7.009   2.523   3.548 -0.3193  0.0810  0.3102
   65MOL0    Cl 8492   6.873   2.452   3.645 -0.0126 -0.1711  0.0444
   65MOL0     C 8493   7.876   2.245   4.064  0.1686 -0.8032 -0.0811
   65MOL0     C 8494   8.016   2.215   4.078 -0.4896  0.4538  0.6421
   65MOL0     O 8495   8.259   2.294   4.364  0.6938  0.0933 -0.3315
   65MOL0     C 8496   8.477   2.112   4.126 -0.7775  0.1673  0.6787
   65MOL0     C 8497   8.608   2.093   4.094 -0.1460  0.4041  0.6970
   65MOL0     N 8498   9.440   2.041   4.421 -0.9190 -0.9602 -0.7966
   65MOL0     N 8499   9.508   2.079   4.526  0.1101 -0.5258 -0.2933
   65MOL0     C 8500  10.457   1.589   4.496 -0.3070  0.0935 -0.4125
   65MOL0     C 8501  10.580   1.546   4.556 -0.7108  0.4129  1.1630
   65MOL0     C 8502  10.937   1.387   4.730 -0.4945 -0.4742  0.7884
   65MOL0     C 8503  10.971   1.257   4.678  0.6985  0.0968 -0.1782
   65MOL0     C 8504  11.104   1.209   4.692 -0.3375 -0.0796  0.6689
   65MOL0     C 8505  11.202   1.280   4.754 -0.2126  0.4838  1.2565
   65MOL0     O 8506  11.322   1.231   4.771  0.4923 -0.1057 -0.0794
   65MOL0     C 8507  11.358   1.102   4.722 -0.5753 -0.6391 -0.3867
   65MOL0     C 8508  11.502   1.070   4.758 -0.1914  0.9437  0.2404
   65MOL0     C 8509  11.598   1.178   4.689  0.6838 -0.4184 -0.6312
   65MOL0     C 8510  11.740   1.161   4.742  0.3602 -0.5386  0.0598
   65MOL0     C 8511  11.829   1.278   4.716 -0.0053 -0.8644  0.6169
   65MOL0     C 8512  11.899   1.376   4.681  0.2256 -0.6837 -0.0795
   65MOL0     C 8513  11.174   1.402   4.789 -0.0308 -1.1679  0.5287
   65MOL0     C 8514  11.038   1.457   4.794 -1.2476  0.4951 -0.0939
   65MOL0     H 8515  10.464   1.251   4.678 -0.4964  1.0428  0.7600
   65MOL0     H 8516  10.260   1.318   4.588 -0.7864 -1.6967 -1.9802
   65MOL0     H 8517  10.097   1.701   4.381  1.4411 -4.4202 -3.3519
   65MOL0     H 8518  10.271   1.733   4.399  1.3119 -2.0159  1.8046
   65MOL0     H 8519  10.169   1.858   4.570 -0.6693  0.0050  0.2823
   65MOL0     H 8520  10.219   1.707   4.651 -0.5742 -0.6872  0.2226
   65MOL0     H 8521  10.001   1.620   4.668  1.2868 -0.2528  1.5218
   65MOL0     H 8522   9.944   1.716   4.530  1.3533  0.8655 -0.5305
   65MOL0     H 8523  10.031   1.841   4.801 -1.4835 -1.2348  1.4317
   65MOL0     H 8524   9.966   1.914   4.649  1.2243  0.2270 -0.7905
   65MOL0     H 8525   9.842   1.784   4.887 -0.0932 -3.0262 -0.9654
   65MOL0     H 8526   9.773   1.727   4.733  2.2744 -2.4457  0.6656
   65MOL0     H 8527   9.715   1.940   4.665  0.2379 -2.7563  0.4101
   65MOL0     H 8528   9.794   2.014   4.808  0.1722 -0.4139  1.7447
   65MOL0     H 8529   9.549   1.816   4.811 -1.6625 -0.1240  2.2140
   65MOL0     H 8530   9.597   1.927   4.945 -0.3049  1.5663  0.0745
   65MOL0     H 8531   9.553   2.121   4.801 -1.7499  0.5641  1.9369
   65MOL0     H 8532   9.414   2.031   4.841 -0.4402  0.2545 -0.1416
   65MOL0     H 8533   9.268   1.912   4.661  0.0609  0.0068 -1.9729
   65MOL0     H 8534   9.125   1.901   4.453 -0.3368 -0.8259 -0.7929
   65MOL0     H 8535   9.219   1.841   4.326 -0.3367 -1.2797  1.1154
   65MOL0     H 8536   9.224   2.067   4.225  0.6109 -1.3039 -0.0911
   65MOL0     H 8537   9.158   2.134   4.383 -1.0218 -0.2637  0.8027
   65MOL0     H 8538   8.996   1.946   4.210 -2.5343 -1.2667  3.0989
   65MOL0     H 8539   8.952   2.046   4.360  1.2525  3.6906  0.8643
   65MOL0     H 8540   9.028   2.180   4.099 -0.7752  0.3003 -0.4759
   65MOL0     H 8541   8.946   2.255   4.233  3.1127  0.1883  1.4127
   65MOL0     H 8542   8.748   2.285   4.331 -0.1037 -2.3441  1.6598
   65MOL0     H 8543   8.502   2.319   4.381 -0.6908 -1.0508  0.3498
   65MOL0     H 8544   8.028   2.123   4.403 -1.0095 -0.5981  0.3449
   65MOL0     H 8545   7.781   2.171   4.381 -1.1739 -1.6899 -0.9095
   65MOL0     H 8546   7.610   2.270   3.959 -1.2269 -0.4453 -0.2404
   65MOL0     H 8547   7.641   2.414   4.050  3.2814 -1.4049 -2.7898
   65MOL0     H 8548   7.401   2.370   4.155  0.5317 -1.9615  1.1195
   65MOL0     H 8549   7.410   2.214   4.060  0.3527 -0.9154  1.2770
   65MOL0     H 8550   7.394   2.332   3.862  0.0825  0.7238  0.8240
   65MOL0     H 8551   7.423   2.490   3.941  0.9555  0.4885  6.5301
   65MOL0     H 8552   7.165   2.319   3.979 -3.1313  1.6605  0.4697
   65MOL0     H 8553   7.215   2.451   4.087 -0.2030 -0.3570 -0.1695
   65MOL0     H 8554   7.195   2.610   3.909  2.6932 -0.8276 -1.1473
   65MOL0     H 8555   7.051   2.506   3.914  0.5694  3.5958  3.1298
   65MOL0     H 8556   7.104   2.373   3.732 -0.8424  0.8055 -1.4328
   65MOL0     H 8557   7.270   2.443   3.728 -0.6099 -0.7584 -1.2067
   65MOL0     H 8558   7.068   2.661   3.705  0.8580  2.0488  0.1482
   65MOL0     H 8559   7.199   2.614   3.597  1.7057 -2.4688 -0.2607
   65MOL0     H 8560   7.043   2.446   3.478  1.4162  0.5903  0.5515
   65MOL0     H 8561   6.976   2.608   3.488  0.8750 -0.7331 -1.5842
   65MOL0     H 8562   7.844   2.284   3.968 -0.0827 -3.1488 -1.0218
   65MOL0     H 8563   8.087   2.241   4.000  1.3256 -0.1816  2.0215
   65MOL0     H 8564   8.398   2.055   4.078 -0.8610  0.3257  0.6282
   65MOL0     H 8565   8.639   2.016   4.024 -2.0439 -1.4736  1.7892
   65MOL0     H 8566  10.441   1.682   4.444  1.5874  1.5775  1.4999
   65MOL0     H 8567  10.664   1.613   4.549 -1.5211  1.4359  1.0305
   65MOL0     H 8568  10.899   1.190   4.633 -2.2730  0.0270  4.0702
   65MOL0     H 8569  11.123   1.104   4.671  1.3538 -0.4378  3.4872
   65MOL0     H 8570  11.349   1.097   4.613 -1.6103  3.5263 -0.6305
   65MOL0     H 8571  11.296   1.024   4.767  2.9888 -3.3141  0.3096
   65MOL0     H 8572  11.520   1.054   4.865 -3.2491 -0.6993  0.6235
   65MOL0     H 8573  11.511   0.970   4.715  0.2500  0.1761  2.0137
   65MOL0     H 8574  11.563   1.276   4.720 -0.8109 -1.5737  1.5715
   65MOL0     H 8575  11.592   1.166   4.580 -1.0404  1.9941 -0.8727
   65MOL0     H 8576  11.742   1.143   4.849  5.0937  0.3167  0.3182
   65MOL0     H 8577  11.786   1.072   4.698  2.2939 -1.4572  3.5788
   65MOL0     H 8578  11.950   1.464   4.648  0.7645 -0.8060  0.4108
   65MOL0     H 8579  11.253   1.462   4.831  1.0411 -0.2167 -2.5712
   65MOL0     H 8580  11.016   1.556   4.834 -2.1255 -0.2662  1.3587
   66MOL0     O 8581   1.489   1.041   3.947 -0.8669 -0.0755 -0.3854
   66MOL0     C 8582   1.571   1.117   3.892  0.0713 -0.3160 -0.5579
   66MOL0     O 8583   1.552   1.168   3.768 -0.0636 -0.1884 -0.2426
   66MOL0     C 8584   1.447   1.113   3.691 -0.3988  0.3070  0.0630
   66MOL0     C 8585   1.338   1.192   3.666 -0.0648  1.0718 -0.9681
   66MOL0     C 8586   1.242   1.149   3.583 -0.1213 -0.8205  0.3095
   66MOL0     C 8587   1.231   1.022   3.535 -0.2024 -0.3239 -0.3527
   66MOL0     O 8588   1.142   0.984   3.436 -0.4623 -0.0678  0.4338
   66MOL0     C 8589   1.137   0.856   3.383  0.4307  1.4214  0.2992
   66MOL0     C 8590   1.008   0.853   3.299 -0.2343 -0.6163 -0.0734
   66MOL0     C 8591   0.883   0.860   3.392 -0.4652 -0.7086 -0.3241
   66MOL0     C 8592   0.756   0.833   3.303  0.0963 -0.2776  0.3081
   66MOL0     C 8593   0.642   0.820   3.402 -0.5575  0.7907 -0.4936
   66MOL0     C 8594   0.506   0.805   3.321 -0.4714  0.1333  0.5036
   66MOL0     C 8595   0.393   0.804   3.411 -0.3297  0.3392  0.5335
   66MOL0     C 8596   0.259   0.791   3.343 -0.1698 -0.7102  0.3316
   66MOL0     N 8597   0.229   0.645   3.310  0.2649 -0.3422 -0.5695
   66MOL0     C 8598   0.301   0.571   3.217  0.5344  0.8602 -0.9701
   66MOL0     C 8599   0.228   0.462   3.196 -0.7395  0.0304 -0.3770
   66MOL0     C 8600   0.263   0.346   3.108 -0.5233 -0.1309 -0.3610
   66MOL0     C 8601   0.137   0.266   3.091 -0.3839 -0.5391 -0.0705
   66MOL0     C 8602   0.159   0.153   2.984  0.5102 -0.8648 -0.2989
   66MOL0     C 8603   0.019   0.100   2.933 -1.3600  0.4226 -0.4154
   66MOL0     O 8604  -0.038   0.192   2.837  0.0015 -0.2879  0.2692
   66MOL0     C 8605  -0.173   0.173   2.819 -0.6188 -0.4839 -0.3715
   66MOL0     C 8606  -0.218   0.045   2.782 -0.5261  0.7264 -0.9937
   66MOL0     C 8607  -0.349   0.019   2.754 -0.2049  0.1371  0.4390
   66MOL0     C 8608  -0.450   0.122   2.770  0.1241 -0.1846  0.8945
   66MOL0     C 8609  -0.587   0.093   2.727  0.1304 -0.6356 -1.0444
   66MOL0     O 8610  -0.678   0.196   2.723 -0.0605 -0.3117 -0.1419
   66MOL0     C 8611  -0.812   0.178   2.688  0.9980  0.7914 -0.3781
   66MOL0     C 8612  -0.889   0.060   2.676  0.0275  0.7599  0.3383
   66MOL0     C 8613  -1.026   0.057   2.651 -0.3428 -0.7092  0.0313
   66MOL0     C 8614  -1.102   0.163   2.624 -0.2593 -0.9187  0.3529
   66MOL0     O 8615  -1.239   0.152   2.602 -0.2496  0.2402 -0.0033
   66MOL0     C 8616  -1.317   0.268   2.578 -0.7516  0.2904  0.5249
   66MOL0     C 8617  -1.467   0.233   2.557 -0.5010 -0.1744 -0.0085
   66MOL0     C 8618  -1.501   0.138   2.443 -0.9441  0.1323  0.0688
   66MOL0     C 8619  -1.649   0.127   2.425 -0.1358  0.1874  0.7438
   66MOL0     C 8620  -1.670   0.005   2.329 -0.1739 -0.1188 -0.5842
   66MOL0     C 8621  -1.815  -0.013   2.298  0.8322  0.4327 -1.5363
   66MOL0     C 8622  -1.850  -0.098   2.175 -0.8465 -0.8181 -0.7357
   66MOL0     C 8623  -1.984  -0.130   2.162 -0.3406 -0.3802  0.4282
   66MOL0    Cl 8624  -2.080   0.017   2.140  0.6383  0.0980  0.1866
   66MOL0     C 8625  -1.027   0.292   2.631  0.4341  0.1220 -0.5680
   66MOL0     C 8626  -0.892   0.293   2.663 -0.6347  0.2875  0.2039
   66MOL0     O 8627  -0.610  -0.020   2.681 -0.4335  0.4779 -0.2783
   66MOL0     C 8628  -0.412   0.247   2.811 -0.4794 -0.0441  0.5586
   66MOL0     C 8629  -0.272   0.271   2.825  0.6213  0.6962  0.1214
   66MOL0     N 8630   0.132   0.459   3.293 -0.2139  0.1601 -0.0820
   66MOL0     N 8631   0.127   0.571   3.356  0.5174 -0.4085 -0.5389
   66MOL0     C 8632   1.327   0.929   3.580 -0.5655 -0.3225 -0.9287
   66MOL0     C 8633   1.445   0.984   3.646 -0.5566  0.5518  0.5365
   66MOL0     C 8634   1.691   1.149   3.969  1.2567  0.6810  0.2780
   66MOL0     C 8635   1.812   1.182   3.909  0.1501  0.8701 -0.2582
   66MOL0     C 8636   1.932   1.205   3.991  0.4997 -0.1421 -0.9752
   66MOL0     C 8637   1.926   1.188   4.125 -1.5064 -0.5617 -0.4667
   66MOL0     O 8638   2.044   1.196   4.205  0.1987 -0.1953 -0.1504
   66MOL0     C 8639   2.074   1.334   4.229  0.4733 -0.3887  0.0215
   66MOL0     C 8640   2.218   1.352   4.291  0.6227  0.5902  0.0927
   66MOL0     C 8641   2.326   1.317   4.190  0.0343 -0.0321 -0.0240
   66MOL0     C 8642   2.463   1.340   4.231 -0.0222 -0.4765 -0.1595
   66MOL0     C 8643   2.491   1.242   4.340 -0.6165 -0.2351  0.7000
   66MOL0     C 8644   2.520   1.174   4.441 -0.8621 -1.1600  0.0273
   66MOL0     C 8645   1.809   1.155   4.192  0.1736 -0.4159  0.1630
   66MOL0     C 8646   1.692   1.136   4.106 -0.1129  0.7025 -0.7243
   66MOL0     H 8647   1.339   1.296   3.696  3.2315  0.8570  0.0307
   66MOL0     H 8648   1.178   1.223   3.536  2.0285 -0.5609 -2.5361
   66MOL0     H 8649   1.132   0.780   3.462  1.3832  1.2886  0.2398
   66MOL0     H 8650   1.225   0.837   3.321  0.0308  1.0314 -0.1638
   66MOL0     H 8651   1.007   0.762   3.239 -2.2395  0.8174 -2.3549
   66MOL0     H 8652   1.007   0.937   3.229  0.7718 -0.5828 -0.0719
   66MOL0     H 8653   0.872   0.959   3.439  2.8234 -0.8615  1.0485
   66MOL0     H 8654   0.887   0.791   3.477  2.4155 -1.2008 -0.7671
   66MOL0     H 8655   0.739   0.912   3.229 -1.6473 -1.3594 -0.5215
   66MOL0     H 8656   0.767   0.738   3.250  1.5805 -0.4507  0.8704
   66MOL0     H 8657   0.640   0.905   3.472 -3.4672  2.2040 -2.0867
   66MOL0     H 8658   0.647   0.728   3.460  1.5240  1.9448  1.2999
   66MOL0     H 8659   0.516   0.718   3.256 -1.6190  0.5325 -0.2446
   66MOL0     H 8660   0.499   0.897   3.263  3.1043  0.5867  0.5837
   66MOL0     H 8661   0.400   0.721   3.482 -0.4817 -2.2569 -2.2960
   66MOL0     H 8662   0.386   0.900   3.462 -0.1921  1.3301 -1.2554
   66MOL0     H 8663   0.239   0.858   3.259 -1.0402  0.5503  1.5042
   66MOL0     H 8664   0.182   0.838   3.404 -1.6683 -3.7189  0.9203
   66MOL0     H 8665   0.398   0.578   3.167  1.6928  0.8178  1.1538
   66MOL0     H 8666   0.345   0.294   3.159 -0.7078  1.0680  1.2387
   66MOL0     H 8667   0.305   0.385   3.015  0.3990  0.1341  0.1430
   66MOL0     H 8668   0.058   0.332   3.054 -0.6920 -0.7194  0.2512
   66MOL0     H 8669   0.109   0.222   3.187  1.7113 -0.6127  0.5528
   66MOL0     H 8670   0.211   0.200   2.900 -0.4305 -0.8403 -0.8820
   66MOL0     H 8671   0.202   0.061   3.023 -0.2609 -0.6327  1.1519
   66MOL0     H 8672  -0.041   0.086   3.023 -0.7114  0.9405  0.1175
   66MOL0     H 8673   0.036   0.003   2.886  0.4834  0.1183  0.7787
   66MOL0     H 8674  -0.156  -0.043   2.766  0.6019  1.6273 -1.7150
   66MOL0     H 8675  -0.379  -0.078   2.715  1.9516  0.7662 -3.2585
   66MOL0     H 8676  -0.850  -0.040   2.697 -1.2671  0.4710  1.5698
   66MOL0     H 8677  -1.082  -0.036   2.644 -0.6871 -0.6564  1.7249
   66MOL0     H 8678  -1.276   0.321   2.492  0.8943  0.2196  1.2365
   66MOL0     H 8679  -1.315   0.329   2.669 -0.8247  1.4605 -0.2464
   66MOL0     H 8680  -1.511   0.329   2.533 -0.9372 -0.5905 -0.9014
   66MOL0     H 8681  -1.518   0.195   2.646 -2.2574  1.1600 -0.4104
   66MOL0     H 8682  -1.466   0.038   2.471  2.0488  0.9905 -0.2288
   66MOL0     H 8683  -1.448   0.173   2.354 -1.0293  3.2321  1.1188
   66MOL0     H 8684  -1.695   0.112   2.523 -2.3702  1.9452  0.0541
   66MOL0     H 8685  -1.690   0.219   2.383 -0.5516  0.5313  1.8569
   66MOL0     H 8686  -1.629  -0.091   2.363 -1.0398 -1.2459 -2.5499
   66MOL0     H 8687  -1.615   0.030   2.238  0.3697 -1.5343 -0.6770
   66MOL0     H 8688  -1.864   0.084   2.290 -1.4029 -0.5526 -0.7095
   66MOL0     H 8689  -1.859  -0.059   2.387 -1.0183 -1.5725 -3.3365
   66MOL0     H 8690  -1.808  -0.038   2.093  1.3971  0.2358  1.0746
   66MOL0     H 8691  -1.798  -0.194   2.182 -1.9001 -1.3414  0.1067
   66MOL0     H 8692  -2.012  -0.172   2.259  2.8793  1.9763  2.5939
   66MOL0     H 8693  -2.006  -0.200   2.081  2.0710 -0.5826 -0.1242
   66MOL0     H 8694  -1.078   0.388   2.627  4.4597  2.7703  3.0169
   66MOL0     H 8695  -0.828   0.381   2.673 -0.8664  0.7678 -2.0741
   66MOL0     H 8696  -0.485   0.324   2.834 -1.7703 -0.5201 -1.6378
   66MOL0     H 8697  -0.228   0.361   2.867  0.3892 -0.0865  2.1769
   66MOL0     H 8698   1.321   0.822   3.563  1.4405 -0.7649  0.7134
   66MOL0     H 8699   1.513   0.912   3.691 -0.6644  2.1598  3.4969
   66MOL0     H 8700   1.817   1.195   3.802  0.0157  0.3884 -0.3267
   66MOL0     H 8701   2.025   1.226   3.939  1.3057 -2.6329 -0.6613
   66MOL0     H 8702   1.993   1.366   4.295  1.2611  0.8859  0.4061
   66MOL0     H 8703   2.069   1.398   4.140 -0.8909  1.1605  1.1431
   66MOL0     H 8704   2.226   1.454   4.328 -1.5526  1.0255 -0.5026
   66MOL0     H 8705   2.231   1.293   4.383 -1.0598  2.3339  1.5271
   66MOL0     H 8706   2.317   1.384   4.105  0.2855 -1.2423 -1.0275
   66MOL0     H 8707   2.301   1.222   4.141  0.0224  0.1595 -0.3911
   66MOL0     H 8708   2.515   1.310   4.139 -0.5513 -0.4624 -0.4647
   66MOL0     H 8709   2.486   1.443   4.260 -3.5704  0.9806 -1.9234
   66MOL0     H 8710   2.559   1.108   4.515 -2.3891 -1.1600  0.8667
   66MOL0     H 8711   1.790   1.133   4.296 -3.3812  0.5295 -0.1658
   66MOL0     H 8712   1.607   1.094   4.159 -1.6502 -0.0551 -3.5827
   67MOL0     O 8713   2.313   9.666   5.973  0.1239 -0.3719 -0.6307
   67MOL0     C 8714   2.361   9.773   5.940 -0.5748 -0.2624 -0.9183
   67MOL0     O 8715   2.290   9.878   5.905 -0.3557 -0.8722  0.3462
   67MOL0     C 8716   2.160   9.874   5.901 -0.3758  0.1614 -0.5162
   67MOL0     C 8717   2.090   9.909   6.014  0.2523 -0.5858 -0.7333
   67MOL0     C 8718   1.952   9.896   6.015  0.8741  0.0178  0.3015
   67MOL0     C 8719   1.885   9.841   5.904 -0.1155 -0.3262  0.5829
   67MOL0     O 8720   1.754   9.838   5.914 -0.5564  0.5608  0.0600
   67MOL0     C 8721   1.667   9.777   5.817  0.4948  0.5521  0.3368
   67MOL0     C 8722   1.615   9.877   5.714 -0.9228  0.1537  0.8463
   67MOL0     C 8723   1.486   9.952   5.740 -0.3091  0.9804 -0.6732
   67MOL0     C 8724   1.362   9.866   5.754  0.4737 -0.6765  0.0852
   67MOL0     C 8725   1.241   9.950   5.799 -0.9215  0.7908 -0.5874
   67MOL0     C 8726   1.112   9.886   5.775  0.5104  0.0003  0.4991
   67MOL0     C 8727   0.993   9.986   5.812  0.1874  1.0862  0.3947
   67MOL0     C 8728   0.856   9.917   5.786 -0.2687  0.2231 -0.8495
   67MOL0     N 8729   0.746  10.005   5.829  0.2884 -0.3995  0.4887
   67MOL0     C 8730   0.660   9.974   5.937  0.3485 -0.1804 -0.2914
   67MOL0     C 8731   0.584  10.082   5.948 -0.5109  0.0384 -0.9546
   67MOL0     C 8732   0.475  10.104   6.034 -0.0836  0.6083 -0.2324
   67MOL0     C 8733   0.355  10.047   5.979 -0.5379  0.5621 -0.4616
   67MOL0     C 8734   0.222  10.066   6.057 -0.3038 -0.7438 -0.4861
   67MOL0     C 8735   0.105  10.038   5.967 -0.0969 -0.0896  0.0869
   67MOL0     O 8736  -0.008  10.059   6.050 -0.0473 -0.2092  0.6088
   67MOL0     C 8737  -0.126  10.003   6.011  0.0875 -0.2365  0.3992
   67MOL0     C 8738  -0.146   9.957   5.875  0.3373  1.0303  0.2747
   67MOL0     C 8739  -0.277   9.932   5.829 -0.5754 -0.1507 -0.8199
   67MOL0     C 8740  -0.394   9.950   5.908  0.5219  0.2530  0.2121
   67MOL0     C 8741  -0.526   9.923   5.845  0.1184  0.7537 -0.7157
   67MOL0     O 8742  -0.532   9.890   5.711  0.2518 -0.0143 -0.3321
   67MOL0     C 8743  -0.657   9.863   5.657 -0.4313 -0.5512 -0.8391
   67MOL0     C 8744  -0.696   9.729   5.610  0.0222 -0.4053  0.3670
   67MOL0     C 8745  -0.821   9.697   5.563 -0.3285  0.0381  0.3414
   67MOL0     C 8746  -0.915   9.804   5.547 -0.4326 -0.4025 -0.3406
   67MOL0     O 8747  -1.041   9.791   5.484 -0.5970  0.2933 -0.0936
   67MOL0     C 8748  -1.108   9.673   5.528  0.4537 -0.1533  0.3543
   67MOL0     C 8749  -1.259   9.678   5.487 -0.1278 -0.2571 -0.1413
   67MOL0     C 8750  -1.347   9.548   5.490 -0.1599 -0.5525 -0.0868
   67MOL0     C 8751  -1.500   9.588   5.472 -0.3543  0.1874 -0.0461
   67MOL0     C 8752  -1.534   9.635   5.329 -0.5631 -0.2027  1.0789
   67MOL0     C 8753  -1.684   9.653   5.324  0.3146  0.0381  0.7666
   67MOL0     C 8754  -1.714   9.717   5.188 -0.1702  0.1970 -0.1521
   67MOL0     C 8755  -1.864   9.717   5.167  0.2471  0.7253  0.6950
   67MOL0    Cl 8756  -1.887   9.799   5.020 -0.3831  0.0641 -0.3353
   67MOL0     C 8757  -0.878   9.936   5.583  0.2969  0.2684 -1.0285
   67MOL0     C 8758  -0.759   9.963   5.649 -0.0650  0.1698  0.6865
   67MOL0     O 8759  -0.619   9.950   5.917 -0.6507 -0.4175  0.3079
   67MOL0     C 8760  -0.369   9.995   6.039  0.5048 -0.0124  0.2656
   67MOL0     C 8761  -0.238  10.022   6.091  0.0599  0.0159  0.8351
   67MOL0     N 8762   0.619  10.172   5.851  0.5427 -0.1012  0.0242
   67MOL0     N 8763   0.714  10.125   5.782  0.3107  0.5430  1.1311
   67MOL0     C 8764   1.954   9.817   5.788  0.2405  1.0669  0.5576
   67MOL0     C 8765   2.094   9.828   5.788  0.4458 -0.0692  0.6643
   67MOL0     C 8766   2.504   9.783   5.941 -0.2629  0.2172 -0.5367
   67MOL0     C 8767   2.572   9.870   5.857  0.3797 -0.8642 -0.3493
   67MOL0     C 8768   2.713   9.878   5.844  0.0536  0.3601  0.5324
   67MOL0     C 8769   2.787   9.782   5.914 -0.2462 -0.2554  0.0750
   67MOL0     O 8770   2.922   9.806   5.903  0.3586  0.3757  0.1052
   67MOL0     C 8771   3.014   9.757   6.003  0.3478  0.2400 -0.5799
   67MOL0     C 8772   2.988   9.821   6.142  0.1569 -0.2672 -0.2887
   67MOL0     C 8773   3.063   9.764   6.265 -0.3737  0.3722  0.2361
   67MOL0     C 8774   3.162   9.647   6.233  1.3259  0.3949 -0.8482
   67MOL0     C 8775   3.280   9.679   6.154 -0.0597 -0.5177  0.5604
   67MOL0     C 8776   3.373   9.696   6.077 -0.5736 -0.4635 -0.5194
   67MOL0     C 8777   2.723   9.692   5.998 -0.0906  0.7070 -0.9808
   67MOL0     C 8778   2.584   9.690   6.007  0.3676 -0.9214  0.1569
   67MOL0     H 8779   2.138   9.954   6.100 -0.9103  0.8485 -0.7978
   67MOL0     H 8780   1.892   9.925   6.101  0.5117  1.1539 -0.3126
   67MOL0     H 8781   1.581   9.727   5.864 -0.0550 -1.5253 -2.6123
   67MOL0     H 8782   1.720   9.704   5.755  0.4821 -0.5056  1.5149
   67MOL0     H 8783   1.599   9.824   5.620 -0.9515  0.4588  0.6814
   67MOL0     H 8784   1.692   9.952   5.696 -0.5782  0.2408  2.5041
   67MOL0     H 8785   1.470  10.024   5.659 -0.5437  0.2016 -1.3257
   67MOL0     H 8786   1.499  10.015   5.829  0.3001 -2.5378  1.9420
   67MOL0     H 8787   1.329   9.817   5.662  1.2992 -2.4793  0.7063
   67MOL0     H 8788   1.374   9.787   5.828 -0.7820 -1.0360 -0.0780
   67MOL0     H 8789   1.235  10.046   5.747  2.0623  1.3551 -0.0979
   67MOL0     H 8790   1.247   9.965   5.907 -0.2361 -1.3819 -0.2774
   67MOL0     H 8791   1.105   9.802   5.845  2.9214 -1.3645 -0.7601
   67MOL0     H 8792   1.110   9.847   5.673  0.6097  1.2831 -0.0122
   67MOL0     H 8793   1.002  10.026   5.914 -6.7955  2.7503  0.8563
   67MOL0     H 8794   1.004  10.070   5.744  1.9423  1.2783  0.8688
   67MOL0     H 8795   0.859   9.827   5.848  1.8833  1.4514  0.9846
   67MOL0     H 8796   0.849   9.879   5.684  1.6811 -0.5379 -0.7324
   67MOL0     H 8797   0.655   9.890   6.005  1.7467 -1.4280 -1.6383
   67MOL0     H 8798   0.465  10.213   6.040 -2.7241  0.4658 -0.6793
   67MOL0     H 8799   0.491  10.054   6.130 -0.3629 -0.8466 -0.9246
   67MOL0     H 8800   0.372   9.940   5.969  2.6829  0.8385  0.9835
   67MOL0     H 8801   0.341  10.098   5.884 -0.4624  2.1348  0.3326
   67MOL0     H 8802   0.209  10.006   6.148  0.2175 -3.1658 -1.9326
   67MOL0     H 8803   0.207  10.172   6.078 -2.3175 -0.5526 -2.5070
   67MOL0     H 8804   0.114   9.940   5.921 -2.8623  0.4770 -1.8918
   67MOL0     H 8805   0.105  10.115   5.889  1.6913 -0.7527 -0.6093
   67MOL0     H 8806  -0.065   9.947   5.803  0.9623  0.5731  1.0305
   67MOL0     H 8807  -0.292   9.899   5.727 -3.8491  1.5446 -1.0234
   67MOL0     H 8808  -0.622   9.650   5.614  0.8912  0.3131 -0.6565
   67MOL0     H 8809  -0.835   9.595   5.529 -1.4094 -0.8517  3.1636
   67MOL0     H 8810  -1.103   9.672   5.637  1.2972  0.8782  0.3406
   67MOL0     H 8811  -1.067   9.586   5.475 -0.3598 -0.1209 -0.3381
   67MOL0     H 8812  -1.263   9.716   5.385  0.1815  1.4354  0.4489
   67MOL0     H 8813  -1.300   9.752   5.556 -1.3825 -0.9257 -0.1273
   67MOL0     H 8814  -1.325   9.508   5.589  1.5953  0.3267 -0.0883
   67MOL0     H 8815  -1.311   9.482   5.411  1.7825 -0.0467  0.3124
   67MOL0     H 8816  -1.559   9.500   5.497  2.2041 -1.1094  1.9616
   67MOL0     H 8817  -1.539   9.670   5.533 -0.7184 -0.3271  0.4215
   67MOL0     H 8818  -1.508   9.567   5.246 -1.6652  0.3769  0.2328
   67MOL0     H 8819  -1.482   9.727   5.303 -0.9145  0.0176  1.1508
   67MOL0     H 8820  -1.721   9.702   5.415  1.7659  0.6973  1.0466
   67MOL0     H 8821  -1.728   9.553   5.318 -1.1306  0.7544 -2.0648
   67MOL0     H 8822  -1.683   9.822   5.195 -0.6595  0.2396  2.4495
   67MOL0     H 8823  -1.660   9.667   5.107 -1.0349 -0.8457 -0.1116
   67MOL0     H 8824  -1.923   9.759   5.249 -1.6088 -1.9169  0.8399
   67MOL0     H 8825  -1.910   9.617   5.159  1.1634  0.2569  1.1878
   67MOL0     H 8826  -0.947  10.020   5.589  1.9904  1.6991 -0.8321
   67MOL0     H 8827  -0.742  10.062   5.689  2.6130  0.0012  0.1227
   67MOL0     H 8828  -0.458  10.011   6.100 -0.6027 -1.2460 -0.9743
   67MOL0     H 8829  -0.242  10.068   6.189  2.7778  1.9531  0.1347
   67MOL0     H 8830   1.905   9.788   5.696 -1.8277  0.4720  1.7803
   67MOL0     H 8831   2.151   9.808   5.698 -1.6412 -0.2962 -0.6736
   67MOL0     H 8832   2.531   9.948   5.793  1.7403  0.3116  0.1410
   67MOL0     H 8833   2.756   9.964   5.795  0.7224  1.2721  2.5863
   67MOL0     H 8834   3.115   9.776   5.966  0.2999 -1.3927 -1.6366
   67MOL0     H 8835   3.007   9.649   6.011  0.0606  0.1930 -1.3520
   67MOL0     H 8836   3.015   9.927   6.141 -1.3088  0.1776  1.5553
   67MOL0     H 8837   2.880   9.813   6.158 -0.3952 -0.8462 -3.6547
   67MOL0     H 8838   3.002   9.718   6.343 -0.0389 -1.5819 -0.5966
   67MOL0     H 8839   3.116   9.843   6.318 -0.3168 -1.4393  3.1084
   67MOL0     H 8840   3.196   9.599   6.325  1.9442 -3.3624 -2.8300
   67MOL0     H 8841   3.100   9.568   6.189  2.2195 -0.6693 -0.2504
   67MOL0     H 8842   3.448   9.713   6.003  0.9659 -1.2576  0.7990
   67MOL0     H 8843   2.772   9.627   6.069 -1.9238  0.0887 -0.2154
   67MOL0     H 8844   2.549   9.623   6.084 -0.3338 -0.5095  0.2049
   68MOL0     O 8845   9.879   0.816   0.144  0.2901  0.4544  0.4929
   68MOL0     C 8846   9.885   0.689   0.150  0.2059  0.2680 -0.0946
   68MOL0     O 8847   9.784   0.599   0.195  0.3607 -0.8771  0.0294
   68MOL0     C 8848   9.668   0.667   0.238 -0.0876  0.1574  0.3693
   68MOL0     C 8849   9.574   0.724   0.143 -1.4890 -0.1316 -0.2183
   68MOL0     C 8850   9.454   0.784   0.199  0.3659  0.7231 -0.0091
   68MOL0     C 8851   9.429   0.779   0.335  0.7542  0.3326  0.1791
   68MOL0     O 8852   9.308   0.826   0.368  0.2066  0.0162 -0.4134
   68MOL0     C 8853   9.252   0.750   0.478 -0.2167 -0.0049  0.4565
   68MOL0     C 8854   9.097   0.766   0.469 -0.8294 -0.5264  0.6543
   68MOL0     C 8855   9.051   0.906   0.519 -0.0916 -0.0695 -0.5194
   68MOL0     C 8856   8.899   0.940   0.489  0.1479  0.1318  0.2242
   68MOL0     C 8857   8.821   1.011   0.607 -0.1109  0.2338 -0.0895
   68MOL0     C 8858   8.670   1.017   0.587  0.4951 -0.5214 -0.7732
   68MOL0     C 8859   8.609   1.126   0.676  0.1982 -0.3507 -0.2300
   68MOL0     C 8860   8.464   1.167   0.639 -0.2815  0.1563 -0.5925
   68MOL0     N 8861   8.385   1.048   0.611  0.8571  0.1601  0.3347
   68MOL0     C 8862   8.326   1.010   0.490 -0.2365  0.3006  0.0656
   68MOL0     C 8863   8.240   0.905   0.518 -0.4274 -0.6462  0.1762
   68MOL0     C 8864   8.145   0.852   0.419 -1.0712  0.2125 -0.0628
   68MOL0     C 8865   8.040   0.764   0.489  0.2393  0.0834  0.0640
   68MOL0     C 8866   7.925   0.714   0.396 -0.5915 -0.0653 -0.1714
   68MOL0     C 8867   7.853   0.599   0.471  0.1700 -0.3954 -0.6768
   68MOL0     O 8868   7.736   0.575   0.391  0.8095  0.7941 -0.6224
   68MOL0     C 8869   7.663   0.456   0.409  0.4904 -0.9463  0.6766
   68MOL0     C 8870   7.697   0.342   0.484  0.4339  0.5171 -0.0952
   68MOL0     C 8871   7.611   0.228   0.492  0.3174  0.7869  0.0346
   68MOL0     C 8872   7.484   0.224   0.429  0.0618  0.7650 -0.3520
   68MOL0     C 8873   7.384   0.118   0.450 -0.0139 -0.2934 -0.7032
   68MOL0     O 8874   7.275   0.122   0.367  0.6117 -1.0192  0.2201
   68MOL0     C 8875   7.155   0.062   0.389  0.5068 -0.4467  0.6644
   68MOL0     C 8876   7.101   0.051   0.519 -0.2156  0.1012 -0.5224
   68MOL0     C 8877   6.978  -0.018   0.538 -0.1137 -0.4119  0.0942
   68MOL0     C 8878   6.904  -0.064   0.425  0.5590 -0.3850 -0.9886
   68MOL0     O 8879   6.787  -0.127   0.424 -0.4604  0.5883  0.6331
   68MOL0     C 8880   6.691  -0.114   0.534  0.9457 -0.1345 -0.4679
   68MOL0     C 8881   6.566  -0.200   0.527  0.5406  0.2324  0.3909
   68MOL0     C 8882   6.487  -0.192   0.652  0.2673  0.9779 -0.5627
   68MOL0     C 8883   6.369  -0.285   0.635 -0.2994  0.1800  0.4983
   68MOL0     C 8884   6.276  -0.283   0.751 -0.4119 -0.8726 -0.9967
   68MOL0     C 8885   6.130  -0.283   0.736  0.2551  0.2513 -0.1151
   68MOL0     C 8886   6.087  -0.408   0.665  0.6476  0.2913  0.2927
   68MOL0     C 8887   5.949  -0.450   0.705 -1.1152 -0.0485  0.4570
   68MOL0    Cl 8888   5.896  -0.558   0.569  0.1429  0.0981  0.1521
   68MOL0     C 8889   6.966  -0.060   0.302 -0.4705  0.5957 -0.2992
   68MOL0     C 8890   7.090   0.004   0.284  0.1091 -1.0806  0.6381
   68MOL0     O 8891   7.399   0.030   0.539  0.7950  0.6728  0.0541
   68MOL0     C 8892   7.462   0.340   0.341  0.1447  0.0030 -0.3015
   68MOL0     C 8893   7.549   0.452   0.335 -0.4667  0.3159 -0.5207
   68MOL0     N 8894   8.252   0.872   0.653  0.7752 -0.5340  0.4285
   68MOL0     N 8895   8.328   0.966   0.710  0.0038  0.6421 -0.3187
   68MOL0     C 8896   9.529   0.733   0.426  0.6194 -0.2935 -0.2094
   68MOL0     C 8897   9.648   0.676   0.376 -0.3132  0.9594 -0.7875
   68MOL0     C 8898  10.013   0.628   0.113 -0.2024  0.0697  0.1361
   68MOL0     C 8899  10.022   0.494   0.109  0.5485  0.2878  0.0760
   68MOL0     C 8900  10.144   0.425   0.085 -0.0007 -0.4109  0.5157
   68MOL0     C 8901  10.254   0.501   0.044  0.8131  0.4829 -0.4056
   68MOL0     O 8902  10.376   0.446   0.013  0.1266  0.7706 -0.8413
   68MOL0     C 8903  10.371   0.343  -0.086 -0.3771  0.3640 -0.8815
   68MOL0     C 8904  10.432   0.220  -0.020 -0.3522 -0.9410  0.0687
   68MOL0     C 8905  10.482   0.114  -0.126  0.1671  0.3157 -0.1906
   68MOL0     C 8906  10.544  -0.015  -0.082 -0.8572 -0.5666 -0.0105
   68MOL0     C 8907  10.661   0.012   0.010  0.0071  0.3879 -0.1370
   68MOL0     C 8908  10.748   0.022   0.084  0.3883 -0.2721  0.0746
   68MOL0     C 8909  10.240   0.641   0.038 -0.9944  0.0402  0.2476
   68MOL0     C 8910  10.120   0.704   0.081  0.3572  0.0760 -0.7097
   68MOL0     H 8911   9.612   0.729   0.042  1.6544  3.5540  0.9059
   68MOL0     H 8912   9.392   0.818   0.117 -1.5748 -1.5043  0.4286
   68MOL0     H 8913   9.289   0.768   0.579  0.6614 -0.6727  0.2646
   68MOL0     H 8914   9.271   0.643   0.461  0.5934 -0.1337  1.9720
   68MOL0     H 8915   9.046   0.685   0.522 -0.7359 -0.2209  1.2287
   68MOL0     H 8916   9.068   0.749   0.365  3.4977  0.7795 -0.9911
   68MOL0     H 8917   9.107   0.986   0.470  0.1902  0.1597  0.1769
   68MOL0     H 8918   9.061   0.903   0.628  2.1747 -3.9025 -0.6563
   68MOL0     H 8919   8.892   1.005   0.402 -0.0732 -0.7903 -0.4684
   68MOL0     H 8920   8.848   0.847   0.462 -1.4388  1.1328 -0.3534
   68MOL0     H 8921   8.857   1.113   0.622 -1.6352  0.6603  0.9006
   68MOL0     H 8922   8.837   0.968   0.706  2.5983  0.6122 -0.2917
   68MOL0     H 8923   8.628   0.922   0.619  0.6202 -0.5674 -0.7437
   68MOL0     H 8924   8.639   1.035   0.484 -2.3564  0.0195  0.0910
   68MOL0     H 8925   8.608   1.102   0.782 -1.7507  0.8950  0.0998
   68MOL0     H 8926   8.671   1.215   0.659  1.9713 -1.6111 -0.6460
   68MOL0     H 8927   8.460   1.217   0.542  0.9906  0.7195 -0.3718
   68MOL0     H 8928   8.422   1.232   0.717 -2.3522 -3.6124  1.7427
   68MOL0     H 8929   8.349   1.067   0.401  3.5189 -0.2903  0.4842
   68MOL0     H 8930   8.203   0.795   0.345 -2.9135 -1.1505 -0.5494
   68MOL0     H 8931   8.107   0.941   0.369  2.1765  0.6379 -2.0674
   68MOL0     H 8932   7.992   0.809   0.577 -2.7745 -0.0515 -1.3823
   68MOL0     H 8933   8.089   0.669   0.514 -2.5761 -1.8904 -1.3653
   68MOL0     H 8934   7.860   0.800   0.379  0.6846  0.6797 -1.4965
   68MOL0     H 8935   7.962   0.672   0.301 -1.5421 -2.4341  0.4341
   68MOL0     H 8936   7.829   0.614   0.576  0.6908 -3.4394 -0.0132
   68MOL0     H 8937   7.921   0.514   0.458 -0.5135 -0.8188 -1.6898
   68MOL0     H 8938   7.790   0.330   0.539 -0.8727 -2.2165  1.7699
   68MOL0     H 8939   7.639   0.145   0.556 -1.2930  1.3009  1.4822
   68MOL0     H 8940   7.149   0.100   0.603  0.3537 -1.6194  0.1933
   68MOL0     H 8941   6.931  -0.022   0.636 -3.1422 -1.9762 -1.2803
   68MOL0     H 8942   6.664  -0.008   0.530  1.5085  0.0102 -0.5501
   68MOL0     H 8943   6.732  -0.127   0.634  0.1321  0.0944 -0.0979
   68MOL0     H 8944   6.598  -0.304   0.517 -3.0832 -1.0071  0.3091
   68MOL0     H 8945   6.505  -0.165   0.443 -0.1631 -0.9075  0.4104
   68MOL0     H 8946   6.445  -0.093   0.671  0.1334  0.4155  2.6700
   68MOL0     H 8947   6.554  -0.218   0.734 -0.7556 -0.8780 -0.2537
   68MOL0     H 8948   6.317  -0.278   0.539 -0.4517  1.6663  0.6636
   68MOL0     H 8949   6.402  -0.390   0.633 -3.0775 -0.7679  0.5603
   68MOL0     H 8950   6.288  -0.196   0.817 -1.0486 -1.3576 -0.2326
   68MOL0     H 8951   6.316  -0.360   0.817  0.2812 -1.5489 -2.1630
   68MOL0     H 8952   6.090  -0.193   0.689  1.7213 -0.2419 -2.5026
   68MOL0     H 8953   6.096  -0.285   0.840  1.0104 -1.5815  0.1439
   68MOL0     H 8954   6.085  -0.389   0.558  0.4846 -2.4821 -0.2810
   68MOL0     H 8955   6.160  -0.487   0.684  1.9026  1.4210  0.2876
   68MOL0     H 8956   5.885  -0.362   0.714 -1.5376 -0.3544  0.4686
   68MOL0     H 8957   5.951  -0.489   0.808  0.6057 -1.2253  0.0289
   68MOL0     H 8958   6.920  -0.111   0.218 -0.1039 -1.3995  0.6652
   68MOL0     H 8959   7.142   0.017   0.190 -1.7374 -1.5197 -0.5003
   68MOL0     H 8960   7.365   0.337   0.293 -0.8217  0.1643  1.5222
   68MOL0     H 8961   7.536   0.542   0.275  1.7804  0.9884 -0.1159
   68MOL0     H 8962   9.518   0.735   0.534 -1.5294  0.2445 -0.3784
   68MOL0     H 8963   9.730   0.646   0.441 -0.3058 -1.4901 -1.7975
   68MOL0     H 8964   9.932   0.434   0.123  2.8429 -3.0904  1.8759
   68MOL0     H 8965  10.156   0.318   0.076  3.6765 -0.3361  2.9614
   68MOL0     H 8966  10.421   0.386  -0.173 -1.3798  2.1100 -0.6364
   68MOL0     H 8967  10.271   0.315  -0.120 -1.2237  0.6354  1.2455
   68MOL0     H 8968  10.514   0.259   0.042  1.4113 -0.5952 -2.3032
   68MOL0     H 8969  10.359   0.175   0.048 -2.1109  0.9018 -0.4754
   68MOL0     H 8970  10.559   0.160  -0.189  1.3153  0.5461  1.3138
   68MOL0     H 8971  10.401   0.073  -0.186  1.5438 -2.0886 -0.5530
   68MOL0     H 8972  10.461  -0.064  -0.031 -2.1599  0.7697 -0.7646
   68MOL0     H 8973  10.589  -0.079  -0.158  3.8459 -0.5020  2.3543
   68MOL0     H 8974  10.818   0.045   0.163  2.0248 -0.3653 -1.2958
   68MOL0     H 8975  10.337   0.683   0.011 -0.3378 -1.1704  0.6445
   68MOL0     H 8976  10.118   0.813   0.086  0.0914  0.0437  0.0917
   69MOL0     O 8977  10.054   8.034   7.953  0.5478  0.7509 -0.0673
   69MOL0     C 8978  10.017   7.926   7.998  0.3096  0.9149 -1.0106
   69MOL0     O 8979  10.091   7.820   8.034 -0.0409 -0.4158 -0.1740
   69MOL0     C 8980  10.230   7.815   8.029 -0.0994 -0.4567  0.9927
   69MOL0     C 8981  10.305   7.774   8.144 -0.2432  0.2554 -0.4069
   69MOL0     C 8982  10.437   7.776   8.140 -1.0181 -0.3177  0.2524
   69MOL0     C 8983  10.511   7.831   8.035  0.1561  0.0812 -0.3157
   69MOL0     O 8984  10.647   7.835   8.042  0.5170  0.4619  0.5372
   69MOL0     C 8985  10.711   7.840   8.162  0.6118 -0.2562 -0.5353
   69MOL0     C 8986  10.846   7.900   8.134 -0.6277 -0.7071  0.4490
   69MOL0     C 8987  10.926   7.918   8.266 -0.3180  0.5368 -0.0988
   69MOL0     C 8988  11.069   7.970   8.251 -1.5757 -0.5077 -1.2038
   69MOL0     C 8989  11.065   8.122   8.247 -0.2746 -0.5916 -0.2471
   69MOL0     C 8990  11.181   8.177   8.166  0.4199 -0.9646 -0.3097
   69MOL0     C 8991  11.168   8.329   8.162 -0.1728  1.3241 -0.7264
   69MOL0     C 8992  11.259   8.392   8.063  0.2897 -0.5017  0.0274
   69MOL0     N 8993  11.388   8.412   8.119 -0.2563  0.4589  0.4245
   69MOL0     C 8994  11.429   8.522   8.186 -0.6152  0.6036 -0.1600
   69MOL0     C 8995  11.558   8.507   8.214 -0.3441  0.1917  0.4594
   69MOL0     C 8996  11.643   8.597   8.302 -0.2870  0.3400 -0.0006
   69MOL0     C 8997  11.601   8.629   8.449 -0.3083  0.7942  0.1672
   69MOL0     C 8998  11.607   8.494   8.525 -0.5628  0.1443 -0.2456
   69MOL0     C 8999  11.583   8.525   8.672  0.4623  0.6525 -0.4133
   69MOL0     O 9000  11.536   8.412   8.751 -0.5474  0.9249 -0.3456
   69MOL0     C 9001  11.414   8.352   8.756  0.8240  0.0270 -0.0915
   69MOL0     C 9002  11.379   8.246   8.841  0.2583 -0.5739 -0.0536
   69MOL0     C 9003  11.261   8.170   8.827 -0.8924 -0.4345  0.8688
   69MOL0     C 9004  11.164   8.216   8.738  0.2974 -0.1302 -0.0072
   69MOL0     C 9005  11.044   8.131   8.724  0.1350  0.3199  0.7354
   69MOL0     O 9006  11.024   8.017   8.799 -0.3430  0.1669 -0.6560
   69MOL0     C 9007  10.938   7.919   8.761  1.2690  0.9288 -0.5117
   69MOL0     C 9008  10.931   7.866   8.631 -0.7381  0.5407  0.1590
   69MOL0     C 9009  10.838   7.773   8.592  0.6941  0.2396 -0.0820
   69MOL0     C 9010  10.740   7.727   8.682 -0.5718  0.4659  0.2101
   69MOL0     O 9011  10.635   7.646   8.644 -0.3732 -0.0704  0.4608
   69MOL0     C 9012  10.536   7.714   8.563 -0.7182 -0.0809  0.0456
   69MOL0     C 9013  10.426   7.608   8.537  0.4275 -1.5363 -0.0735
   69MOL0     C 9014  10.471   7.498   8.440  0.3712  0.1300  0.4743
   69MOL0     C 9015  10.366   7.393   8.429  0.9754 -0.6710 -0.1034
   69MOL0     C 9016  10.352   7.305   8.566 -0.6673 -0.0178 -0.0579
   69MOL0     C 9017  10.215   7.225   8.559  0.2069  0.5762 -0.1594
   69MOL0     C 9018  10.212   7.123   8.670  0.9333  0.3716 -0.4584
   69MOL0     C 9019  10.165   7.187   8.805  0.2541 -0.2602 -0.0497
   69MOL0    Cl 9020   9.995   7.247   8.810  0.0921  0.2087  0.3949
   69MOL0     C 9021  10.752   7.773   8.813  0.8985 -0.6911  0.1818
   69MOL0     C 9022  10.844   7.867   8.852  0.3242  0.3637 -0.1547
   69MOL0     O 9023  10.969   8.164   8.631 -0.3485  0.6882 -0.4912
   69MOL0     C 9024  11.188   8.335   8.669  0.9157 -0.3262  0.5099
   69MOL0     C 9025  11.311   8.398   8.670 -0.5752  0.0933  0.3702
   69MOL0     N 9026  11.603   8.381   8.166 -0.4088 -0.1947 -0.1200
   69MOL0     N 9027  11.496   8.322   8.105 -0.6135  0.0247 -0.0231
   69MOL0     C 9028  10.442   7.871   7.921  0.2632 -1.0910  1.1144
   69MOL0     C 9029  10.300   7.863   7.916  0.8604 -0.3426  0.9086
   69MOL0     C 9030   9.872   7.885   8.006  0.2964 -0.1701 -0.6945
   69MOL0     C 9031   9.830   7.758   8.066 -0.0281 -0.3980 -0.4131
   69MOL0     C 9032   9.694   7.716   8.053 -0.1997 -0.1904 -0.2496
   69MOL0     C 9033   9.595   7.808   8.024 -0.5299  0.7060  1.5220
   69MOL0     O 9034   9.464   7.770   8.032  0.3378 -0.0681 -0.8542
   69MOL0     C 9035   9.369   7.876   8.029  0.7555 -0.3970 -0.2040
   69MOL0     C 9036   9.234   7.819   8.106 -0.6117 -0.5160 -0.4024
   69MOL0     C 9037   9.112   7.887   8.051 -0.2159 -0.6844 -0.0159
   69MOL0     C 9038   8.986   7.865   8.137 -0.8758 -0.1325  0.5677
   69MOL0     C 9039   8.915   7.743   8.121  0.1971 -0.1630 -0.3632
   69MOL0     C 9040   8.856   7.645   8.104  0.3985  0.1963 -0.2108
   69MOL0     C 9041   9.637   7.931   7.972 -0.4599 -0.4129 -0.1816
   69MOL0     C 9042   9.774   7.970   7.962  0.1872  0.1207 -0.2240
   69MOL0     H 9043  10.261   7.729   8.233 -0.9436  2.3369  0.3600
   69MOL0     H 9044  10.481   7.740   8.233 -0.1961  3.7275  1.6280
   69MOL0     H 9045  10.730   7.741   8.207 -1.6155 -1.4893 -2.0950
   69MOL0     H 9046  10.662   7.912   8.229 -4.1243 -1.5281 -2.2174
   69MOL0     H 9047  10.829   7.996   8.083  0.4251 -1.0065 -0.5008
   69MOL0     H 9048  10.898   7.837   8.061 -0.9443 -1.6540  1.0292
   69MOL0     H 9049  10.944   7.819   8.309 -1.4082  0.6646  0.6976
   69MOL0     H 9050  10.876   7.980   8.341  1.9002 -0.9711  2.8418
   69MOL0     H 9051  11.132   7.928   8.329  1.0383 -1.9106 -3.8557
   69MOL0     H 9052  11.109   7.938   8.154 -2.1319 -2.6830 -0.7533
   69MOL0     H 9053  11.067   8.155   8.352  0.1105 -0.5757 -0.2582
   69MOL0     H 9054  10.973   8.160   8.202 -0.9155 -0.7714  0.8806
   69MOL0     H 9055  11.172   8.144   8.062  0.9531  1.3058 -1.1297
   69MOL0     H 9056  11.274   8.140   8.209 -1.5293 -1.4278  4.0820
   69MOL0     H 9057  11.063   8.349   8.135 -0.7104 -1.4533 -0.9857
   69MOL0     H 9058  11.190   8.367   8.262  0.8143  0.5912 -0.6504
   69MOL0     H 9059  11.215   8.491   8.046 -0.7163 -1.1861 -1.5900
   69MOL0     H 9060  11.260   8.329   7.974 -1.9133 -0.8555  0.1906
   69MOL0     H 9061  11.366   8.607   8.212 -0.3277  0.1316  2.2533
   69MOL0     H 9062  11.646   8.686   8.238 -1.0314 -0.4604 -1.1815
   69MOL0     H 9063  11.743   8.553   8.300  0.1758  1.3603 -0.6723
   69MOL0     H 9064  11.499   8.668   8.442  0.0807  1.8841  0.4008
   69MOL0     H 9065  11.661   8.702   8.504  0.0025 -0.0938  1.0477
   69MOL0     H 9066  11.533   8.418   8.499 -0.7437  0.4890 -0.7395
   69MOL0     H 9067  11.709   8.458   8.507 -1.6143 -3.0578 -0.3934
   69MOL0     H 9068  11.518   8.613   8.670  1.3958  1.5356 -5.6123
   69MOL0     H 9069  11.676   8.558   8.719  0.0196  2.7900 -0.9200
   69MOL0     H 9070  11.451   8.208   8.912 -0.4737 -0.7571  0.6060
   69MOL0     H 9071  11.248   8.079   8.883  3.9723 -1.6379  0.4777
   69MOL0     H 9072  10.999   7.904   8.556  0.7669  2.9954  2.5840
   69MOL0     H 9073  10.870   7.730   8.497  1.9540  1.5775 -0.2865
   69MOL0     H 9074  10.577   7.755   8.470 -1.4156  1.0057  0.2040
   69MOL0     H 9075  10.492   7.797   8.618 -0.7405  0.3641 -0.6281
   69MOL0     H 9076  10.342   7.651   8.482  1.2863 -0.1925 -0.3813
   69MOL0     H 9077  10.387   7.574   8.633 -3.0570  1.2728 -0.3018
   69MOL0     H 9078  10.568   7.459   8.472 -0.2876 -3.3895 -1.3310
   69MOL0     H 9079  10.492   7.537   8.340  0.0813  0.7724  0.6593
   69MOL0     H 9080  10.270   7.444   8.422  0.3146 -1.4943  2.2400
   69MOL0     H 9081  10.398   7.336   8.341  4.0218 -0.9221  1.0462
   69MOL0     H 9082  10.350   7.361   8.659 -2.0949  1.1865 -0.7749
   69MOL0     H 9083  10.432   7.231   8.580 -0.5786  0.3378  1.5179
   69MOL0     H 9084  10.214   7.165   8.468  0.6978  1.3946 -0.7105
   69MOL0     H 9085  10.122   7.283   8.566  0.3461  0.6552  1.9486
   69MOL0     H 9086  10.146   7.039   8.648 -0.5084  0.9010  1.5931
   69MOL0     H 9087  10.309   7.075   8.691 -0.3315 -0.5874  4.1727
   69MOL0     H 9088  10.234   7.267   8.833  0.0256 -0.2702  0.5458
   69MOL0     H 9089  10.167   7.108   8.880  1.0318  0.1031  0.3275
   69MOL0     H 9090  10.671   7.740   8.878  0.1137  2.6726  1.1281
   69MOL0     H 9091  10.850   7.889   8.958 -0.8023 -0.0534  0.0079
   69MOL0     H 9092  11.121   8.368   8.590  2.8471 -0.9868 -1.5196
   69MOL0     H 9093  11.323   8.478   8.597  0.7504 -0.4238 -0.0079
   69MOL0     H 9094  10.510   7.908   7.845 -1.5924  2.7903  1.0677
   69MOL0     H 9095  10.243   7.893   7.829 -0.5609 -3.2488  0.7048
   69MOL0     H 9096   9.903   7.687   8.106 -1.9100 -1.5538  1.1488
   69MOL0     H 9097   9.662   7.624   8.101 -1.9046  0.9056  0.8399
   69MOL0     H 9098   9.338   7.890   7.925  3.7009 -2.0108 -1.4183
   69MOL0     H 9099   9.400   7.973   8.069  1.6474 -1.6646  2.4357
   69MOL0     H 9100   9.224   7.710   8.101 -5.6888 -0.2594 -0.2161
   69MOL0     H 9101   9.244   7.853   8.209 -1.0973 -0.3952 -0.3932
   69MOL0     H 9102   9.096   7.857   7.946 -0.1918  0.3461 -0.3205
   69MOL0     H 9103   9.134   7.993   8.039 -0.2928 -0.3822  2.1487
   69MOL0     H 9104   9.011   7.879   8.243  0.7666 -1.4841  0.3986
   69MOL0     H 9105   8.920   7.948   8.110 -0.2083 -0.5325 -2.7056
   69MOL0     H 9106   8.796   7.559   8.084  3.2296 -1.6423 -1.4390
   69MOL0     H 9107   9.563   8.007   7.951  0.9535  1.6530  1.8440
   69MOL0     H 9108   9.793   8.076   7.951 -0.9249  0.5565  1.6091
   70MOL0     O 9109  10.773   4.571   3.392  0.2976  0.2812  0.0272
   70MOL0     C 9110  10.825   4.537   3.500  1.5996  0.4405  0.2207
   70MOL0     O 9111  10.754   4.500   3.615  0.1525  0.3414 -0.8550
   70MOL0     C 9112  10.614   4.488   3.608 -0.8969 -0.0738 -0.3342
   70MOL0     C 9113  10.528   4.571   3.677  0.1177 -0.0315  0.1963
   70MOL0     C 9114  10.391   4.556   3.657 -0.8694 -0.6536 -0.5596
   70MOL0     C 9115  10.340   4.449   3.576 -1.3576  0.2635 -0.0951
   70MOL0     O 9116  10.210   4.418   3.554 -0.4629 -0.3843  0.0858
   70MOL0     C 9117  10.118   4.516   3.614 -0.0497  0.0477  0.3954
   70MOL0     C 9118   9.982   4.449   3.603  0.4131 -0.5285 -0.0403
   70MOL0     C 9119   9.865   4.545   3.651  0.1388 -0.3459 -0.4241
   70MOL0     C 9120   9.733   4.517   3.593  0.0479  0.2318  0.5618
   70MOL0     C 9121   9.630   4.617   3.660  1.0351  0.0194 -0.2919
   70MOL0     C 9122   9.577   4.563   3.797 -0.5582  0.6101 -0.1643
   70MOL0     C 9123   9.501   4.430   3.805 -0.1191 -0.0490 -0.1929
   70MOL0     C 9124   9.456   4.373   3.937  0.6397  0.0448  0.3828
   70MOL0     N 9125   9.346   4.456   3.993 -0.3195  0.0263  0.7653
   70MOL0     C 9126   9.250   4.537   3.933  0.1627 -0.5464 -0.1917
   70MOL0     C 9127   9.149   4.541   4.028 -0.5848 -0.7566  0.5086
   70MOL0     C 9128   9.016   4.614   4.023  0.0175 -0.1882  1.1677
   70MOL0     C 9129   8.899   4.512   3.989 -0.7390 -0.0723 -0.2695
   70MOL0     C 9130   8.765   4.593   3.975  0.2180 -0.1276 -0.3870
   70MOL0     C 9131   8.647   4.491   3.947  0.5881 -0.5275 -0.7921
   70MOL0     O 9132   8.523   4.574   3.949  0.2169  0.0811 -0.1317
   70MOL0     C 9133   8.417   4.532   3.871  0.8093 -0.2085  0.1608
   70MOL0     C 9134   8.392   4.415   3.808 -0.6188  0.4365  0.3879
   70MOL0     C 9135   8.286   4.393   3.711  0.3274 -0.2967 -0.5568
   70MOL0     C 9136   8.189   4.499   3.696  0.7635 -0.0155 -1.0997
   70MOL0     C 9137   8.074   4.466   3.601  0.5935 -0.8071 -0.6268
   70MOL0     O 9138   7.992   4.575   3.588 -0.0915 -0.6748  0.3178
   70MOL0     C 9139   7.857   4.561   3.552 -1.3057 -0.0529  0.2745
   70MOL0     C 9140   7.804   4.669   3.481 -0.2205  0.4201 -0.9855
   70MOL0     C 9141   7.673   4.672   3.437 -0.8629 -0.2636  0.5627
   70MOL0     C 9142   7.594   4.560   3.461 -0.6454  0.8305 -0.6794
   70MOL0     O 9143   7.473   4.532   3.413 -0.2710 -0.1901  0.7145
   70MOL0     C 9144   7.419   4.612   3.302  0.0037  0.1089  0.1141
   70MOL0     C 9145   7.288   4.548   3.260 -0.4065  0.0266 -0.3301
   70MOL0     C 9146   7.256   4.569   3.117 -0.4947 -0.4571 -0.3124
   70MOL0     C 9147   7.123   4.500   3.093  0.7102  0.2206 -0.0193
   70MOL0     C 9148   7.060   4.554   2.963  0.1359 -0.4554  0.4178
   70MOL0     C 9149   6.910   4.534   2.946  0.2611 -0.0656  0.1307
   70MOL0     C 9150   6.868   4.639   2.841  0.4496  0.3946  0.4770
   70MOL0     C 9151   6.720   4.663   2.839  0.0128 -0.5954 -0.8810
   70MOL0    Cl 9152   6.636   4.514   2.806  0.1376  0.1476 -0.1037
   70MOL0     C 9153   7.655   4.445   3.526  0.8915  1.0696 -0.6037
   70MOL0     C 9154   7.781   4.444   3.576  0.0819  0.0260 -0.9717
   70MOL0     O 9155   8.071   4.362   3.546  0.6190  0.1034 -0.0222
   70MOL0     C 9156   8.203   4.612   3.774  0.4208 -0.3991 -0.5652
   70MOL0     C 9157   8.320   4.628   3.858  0.3133  0.5979 -0.4183
   70MOL0     N 9158   9.186   4.465   4.138 -1.2104 -0.3824  0.2739
   70MOL0     N 9159   9.306   4.421   4.121  0.7390  0.4705  0.7254
   70MOL0     C 9160  10.431   4.364   3.512 -0.5251  0.0700 -0.1988
   70MOL0     C 9161  10.562   4.379   3.537 -0.3304  0.8130 -0.3498
   70MOL0     C 9162  10.968   4.517   3.508 -0.0849 -0.3164  0.7305
   70MOL0     C 9163  11.045   4.533   3.623 -0.1427  0.0239  0.1612
   70MOL0     C 9164  11.175   4.493   3.626 -0.4361 -0.1256 -0.1495
   70MOL0     C 9165  11.238   4.449   3.514  0.3175 -0.8427 -0.0316
   70MOL0     O 9166  11.370   4.416   3.520 -0.2071  0.4768  0.7204
   70MOL0     C 9167  11.449   4.421   3.634  0.7990 -0.5746 -0.4580
   70MOL0     C 9168  11.580   4.362   3.600 -0.1819  0.5005 -0.1704
   70MOL0     C 9169  11.677   4.440   3.512 -0.2027  0.0073  0.0303
   70MOL0     C 9170  11.824   4.398   3.524 -0.0895 -0.3029 -0.1225
   70MOL0     C 9171  11.849   4.279   3.450 -0.1561  0.7613  0.6353
   70MOL0     C 9172  11.871   4.189   3.371  0.4103  0.1760  0.1414
   70MOL0     C 9173  11.172   4.453   3.391  0.0321  0.0894 -0.6689
   70MOL0     C 9174  11.038   4.487   3.391 -0.1016  0.1367  0.2159
   70MOL0     H 9175  10.572   4.657   3.727  0.6785 -2.2757  3.9658
   70MOL0     H 9176  10.329   4.633   3.701 -0.8918  0.9009 -3.0991
   70MOL0     H 9177  10.123   4.609   3.556  0.5363 -1.5758 -2.3999
   70MOL0     H 9178  10.144   4.531   3.719  0.2063 -0.0753  0.3515
   70MOL0     H 9179   9.982   4.364   3.671 -0.2115 -0.4565  0.0621
   70MOL0     H 9180   9.963   4.403   3.505 -0.5078  1.2881 -0.7584
   70MOL0     H 9181   9.895   4.646   3.623  0.2637 -0.3515 -0.3113
   70MOL0     H 9182   9.857   4.541   3.760  2.5869  1.4128 -0.0914
   70MOL0     H 9183   9.731   4.547   3.488 -1.7562  0.7426  0.7086
   70MOL0     H 9184   9.706   4.411   3.596  1.3188 -0.0979  2.1773
   70MOL0     H 9185   9.547   4.627   3.589 -0.9137 -1.0026  1.6901
   70MOL0     H 9186   9.674   4.716   3.671 -2.4706  1.9808 -1.9768
   70MOL0     H 9187   9.503   4.641   3.816  0.4950  1.3709  0.8962
   70MOL0     H 9188   9.664   4.571   3.862  1.9498  1.4974 -3.3592
   70MOL0     H 9189   9.427   4.442   3.725  0.1654  0.8605 -0.3317
   70MOL0     H 9190   9.571   4.360   3.757 -0.6906  1.4678 -3.5813
   70MOL0     H 9191   9.536   4.378   4.011  1.2260 -3.3372  0.1311
   70MOL0     H 9192   9.418   4.271   3.923  1.0108  0.1761 -1.8938
   70MOL0     H 9193   9.244   4.577   3.833 -0.3528  0.6099  0.2775
   70MOL0     H 9194   9.012   4.686   3.942 -2.8841  0.7978  2.0787
   70MOL0     H 9195   8.997   4.658   4.122  1.5985  0.4675  1.2131
   70MOL0     H 9196   8.906   4.438   4.070  1.2298 -1.4350 -1.5712
   70MOL0     H 9197   8.906   4.453   3.897 -0.9515  1.1974 -1.1284
   70MOL0     H 9198   8.741   4.654   4.062 -1.6313 -0.1521 -0.8369
   70MOL0     H 9199   8.771   4.663   3.892  2.7466  0.5657  0.2704
   70MOL0     H 9200   8.648   4.416   4.027  1.2545 -1.5520 -1.7282
   70MOL0     H 9201   8.651   4.442   3.849  0.1885  0.3703 -1.2737
   70MOL0     H 9202   8.464   4.338   3.835 -0.9102  0.1502  0.3499
   70MOL0     H 9203   8.289   4.306   3.647  4.2541  1.3311 -2.9298
   70MOL0     H 9204   7.868   4.756   3.481  2.2900 -1.0876  3.1891
   70MOL0     H 9205   7.648   4.755   3.371  1.8735 -0.2472 -0.5611
   70MOL0     H 9206   7.487   4.589   3.219  0.3522 -2.2889  0.9712
   70MOL0     H 9207   7.405   4.714   3.339 -0.1706  0.2942 -0.4540
   70MOL0     H 9208   7.210   4.579   3.329 -0.6471 -1.4054  0.0766
   70MOL0     H 9209   7.309   4.441   3.276 -0.6118 -0.2625 -1.8839
   70MOL0     H 9210   7.328   4.520   3.051 -0.3204 -1.0627  0.3218
   70MOL0     H 9211   7.256   4.678   3.104 -2.6122  0.5231  5.0665
   70MOL0     H 9212   7.137   4.392   3.095 -1.3273 -0.0962  2.4638
   70MOL0     H 9213   7.056   4.529   3.175 -2.2311  1.1318 -2.5582
   70MOL0     H 9214   7.103   4.495   2.882 -0.4077  0.6012 -0.6793
   70MOL0     H 9215   7.084   4.660   2.951 -1.3738  0.4228  3.8468
   70MOL0     H 9216   6.861   4.556   3.041  1.1992  2.6862  0.0643
   70MOL0     H 9217   6.895   4.429   2.919  1.4751  0.1794 -1.7067
   70MOL0     H 9218   6.919   4.734   2.857  2.4545 -0.4239 -0.5353
   70MOL0     H 9219   6.904   4.601   2.744  2.9294  0.2396  1.3869
   70MOL0     H 9220   6.702   4.736   2.760 -2.3438 -0.0871  0.0303
   70MOL0     H 9221   6.689   4.701   2.937 -0.1637  1.7639 -1.7828
   70MOL0     H 9222   7.580   4.368   3.541  0.2299  0.5558 -5.0797
   70MOL0     H 9223   7.829   4.367   3.635 -0.7992 -0.9629 -1.5165
   70MOL0     H 9224   8.128   4.691   3.769 -0.2566 -1.0635 -1.1416
   70MOL0     H 9225   8.335   4.724   3.907  1.9031  1.0186 -1.6437
   70MOL0     H 9226  10.394   4.283   3.449 -3.5401  0.4988  0.8274
   70MOL0     H 9227  10.635   4.310   3.497  0.3314  0.8452  0.7444
   70MOL0     H 9228  11.006   4.557   3.721 -0.6895  0.0277 -0.0540
   70MOL0     H 9229  11.214   4.505   3.727 -0.4842 -1.1599  0.0017
   70MOL0     H 9230  11.407   4.363   3.716 -0.2799 -1.9454 -1.9213
   70MOL0     H 9231  11.467   4.527   3.655  2.4883 -0.8018 -0.5715
   70MOL0     H 9232  11.632   4.317   3.686 -0.1949  0.2697 -0.2828
   70MOL0     H 9233  11.561   4.270   3.544 -1.1021 -0.6233  1.8958
   70MOL0     H 9234  11.674   4.543   3.549  0.6908  1.4471 -3.4279
   70MOL0     H 9235  11.652   4.442   3.405  0.9748 -2.0546 -0.3279
   70MOL0     H 9236  11.891   4.478   3.488  1.5044 -1.2267  0.6739
   70MOL0     H 9237  11.842   4.377   3.630 -1.0921 -0.7256 -0.0326
   70MOL0     H 9238  11.891   4.121   3.290 -0.8961  0.6030 -0.5654
   70MOL0     H 9239  11.232   4.421   3.306  2.8513  0.7752  0.9429
   70MOL0     H 9240  10.982   4.488   3.298 -1.7167 -0.6626  1.1323
   71MOL0     O 9241   4.798   8.624   6.741 -1.2504 -0.7570 -0.5956
   71MOL0     C 9242   4.753   8.509   6.759  0.0515  0.1526 -0.9789
   71MOL0     O 9243   4.834   8.400   6.766  0.2090 -0.4362  0.1483
   71MOL0     C 9244   4.969   8.419   6.759  0.3738  0.7313 -0.7660
   71MOL0     C 9245   5.037   8.340   6.859 -0.0587 -0.8509  0.1565
   71MOL0     C 9246   5.178   8.334   6.856  0.2367  0.7667 -0.1100
   71MOL0     C 9247   5.244   8.410   6.764 -0.6081 -0.0206  0.3271
   71MOL0     O 9248   5.381   8.426   6.744 -0.2888 -0.0073  0.4330
   71MOL0     C 9249   5.468   8.350   6.824  0.1267 -0.1214 -0.3929
   71MOL0     C 9250   5.614   8.366   6.792 -1.0415 -0.2937 -0.2157
   71MOL0     C 9251   5.712   8.312   6.898  0.0747  0.7922 -0.0379
   71MOL0     C 9252   5.855   8.337   6.863 -0.1612  0.1913  0.3917
   71MOL0     C 9253   5.950   8.251   6.949 -0.3117 -0.2154  0.9172
   71MOL0     C 9254   6.096   8.294   6.949  0.4333  0.2134  0.3047
   71MOL0     C 9255   6.183   8.230   7.059 -0.1522  0.2478  0.0870
   71MOL0     C 9256   6.290   8.132   7.010  0.0192 -0.5535 -0.6830
   71MOL0     N 9257   6.228   8.024   6.938 -0.3083  0.0449 -0.1712
   71MOL0     C 9258   6.195   8.030   6.809 -0.0407 -0.2432 -0.5669
   71MOL0     C 9259   6.122   7.920   6.782 -0.6201  0.4456  0.9158
   71MOL0     C 9260   6.064   7.904   6.635 -0.7546 -0.3831  0.1037
   71MOL0     C 9261   5.925   7.986   6.637  0.4270 -0.1070 -0.1832
   71MOL0     C 9262   5.816   7.913   6.710 -0.4066  0.6561 -0.4348
   71MOL0     C 9263   5.669   7.964   6.702 -0.4585  0.7114 -0.5283
   71MOL0     O 9264   5.596   7.910   6.815 -0.1845  0.0479  0.3864
   71MOL0     C 9265   5.459   7.917   6.809 -0.4441 -0.6450 -0.2686
   71MOL0     C 9266   5.407   7.876   6.925  0.7897  0.0169 -0.6198
   71MOL0     C 9267   5.268   7.885   6.955  0.1816  0.6542 -0.5919
   71MOL0     C 9268   5.183   7.918   6.848 -0.2608  0.4425  0.6216
   71MOL0     C 9269   5.038   7.914   6.864  1.0807  0.4777 -0.2573
   71MOL0     O 9270   4.959   7.920   6.750  0.4547 -0.0193 -0.1272
   71MOL0     C 9271   4.820   7.941   6.761 -0.0426 -1.0924  0.3107
   71MOL0     C 9272   4.752   8.018   6.858  0.0396 -1.2215 -0.5825
   71MOL0     C 9273   4.616   8.032   6.865  0.2435 -0.0192 -0.2155
   71MOL0     C 9274   4.537   7.967   6.779 -0.2517 -0.0081  0.0172
   71MOL0     O 9275   4.401   7.977   6.790 -0.0470  0.0973 -0.6473
   71MOL0     C 9276   4.324   7.877   6.729 -0.2930  0.0574  0.3349
   71MOL0     C 9277   4.181   7.870   6.804  0.2012  0.7232  0.3124
   71MOL0     C 9278   4.102   8.006   6.809  0.2928  0.1277 -0.3924
   71MOL0     C 9279   3.979   8.001   6.900 -0.0593  1.2830  0.6115
   71MOL0     C 9280   3.851   7.959   6.814 -0.3839 -0.4285  0.2052
   71MOL0     C 9281   3.720   8.007   6.869 -0.5701 -0.5358 -0.9848
   71MOL0     C 9282   3.597   7.911   6.852  0.5262 -0.5163 -0.0414
   71MOL0     C 9283   3.465   7.969   6.908 -0.1592 -0.5419  0.4308
   71MOL0    Cl 9284   3.342   7.849   6.857  0.0507  0.0944  0.0907
   71MOL0     C 9285   4.600   7.889   6.676  0.6473  0.0738 -0.6215
   71MOL0     C 9286   4.739   7.882   6.665 -0.9922 -0.0662 -0.2336
   71MOL0     O 9287   4.993   7.897   6.980  0.2556 -0.3102 -0.1076
   71MOL0     C 9288   5.239   7.961   6.726 -0.3016 -0.6157 -0.3099
   71MOL0     C 9289   5.375   7.963   6.709  0.6562  0.7308 -0.3444
   71MOL0     N 9290   6.116   7.847   6.896 -0.1824  0.0594 -0.6165
   71MOL0     N 9291   6.182   7.904   6.990 -0.3760 -0.1975 -0.0613
   71MOL0     C 9292   5.177   8.486   6.669  0.6702 -0.2910 -0.6146
   71MOL0     C 9293   5.041   8.495   6.667 -0.6586 -0.9469  0.1256
   71MOL0     C 9294   4.603   8.491   6.764  0.5970  0.3379  1.3599
   71MOL0     C 9295   4.545   8.361   6.763 -0.4573 -1.0061  0.3546
   71MOL0     C 9296   4.412   8.342   6.767 -0.4295 -0.1377 -1.0375
   71MOL0     C 9297   4.327   8.448   6.789 -0.0735 -0.2296  0.0927
   71MOL0     O 9298   4.192   8.425   6.807  0.0749  0.3153  0.5131
   71MOL0     C 9299   4.116   8.399   6.695  0.4539 -0.7526 -0.6068
   71MOL0     C 9300   3.981   8.364   6.769  0.0817  1.5756  0.0640
   71MOL0     C 9301   3.909   8.483   6.817  0.1578  0.2081  0.0871
   71MOL0     C 9302   3.849   8.584   6.711  0.3500 -0.8136  0.2927
   71MOL0     C 9303   3.747   8.672   6.778  0.5570  0.2795 -0.4279
   71MOL0     C 9304   3.649   8.730   6.810  0.1761  0.3933  0.0960
   71MOL0     C 9305   4.381   8.576   6.786 -0.1515  0.4295 -0.1511
   71MOL0     C 9306   4.515   8.603   6.766  0.0164  0.8376 -0.0212
   71MOL0     H 9307   4.977   8.286   6.931 -1.2553 -2.0757 -1.6723
   71MOL0     H 9308   5.229   8.268   6.925  0.3298  1.5493  0.5944
   71MOL0     H 9309   5.455   8.242   6.825 -0.7518 -0.0315  1.1448
   71MOL0     H 9310   5.451   8.395   6.923  3.9916 -0.2661  0.5146
   71MOL0     H 9311   5.654   8.467   6.778 -2.4020  0.1762 -0.8759
   71MOL0     H 9312   5.627   8.323   6.693  2.5945  1.6096 -0.7231
   71MOL0     H 9313   5.704   8.203   6.903  0.9446  0.7673  1.4510
   71MOL0     H 9314   5.710   8.357   6.997 -1.5900  1.0893 -0.1783
   71MOL0     H 9315   5.871   8.311   6.758 -0.0616 -0.4562  0.5658
   71MOL0     H 9316   5.868   8.444   6.883 -1.3230  1.2431 -3.6161
   71MOL0     H 9317   5.945   8.146   6.918 -4.5065 -0.2161  1.1013
   71MOL0     H 9318   5.916   8.270   7.051  0.4917  2.4987  0.7602
   71MOL0     H 9319   6.087   8.396   6.990  1.6159 -1.0288  4.0832
   71MOL0     H 9320   6.158   8.278   6.860  0.5474 -1.9381  0.7233
   71MOL0     H 9321   6.235   8.302   7.122 -0.5503  1.3629 -0.8358
   71MOL0     H 9322   6.120   8.170   7.125  1.0346  0.9798  1.9735
   71MOL0     H 9323   6.355   8.089   7.087  2.7906  3.0738 -0.7438
   71MOL0     H 9324   6.365   8.180   6.946  0.6114 -1.6783 -0.8644
   71MOL0     H 9325   6.211   8.106   6.733 -0.2956  1.1024  0.6956
   71MOL0     H 9326   6.046   7.798   6.618 -3.0125 -0.0166 -0.0954
   71MOL0     H 9327   6.125   7.950   6.557 -0.9352 -2.6980 -1.4855
   71MOL0     H 9328   5.873   7.981   6.541 -2.0154 -1.2090  1.1051
   71MOL0     H 9329   5.942   8.090   6.667  2.1301  0.1531 -1.8376
   71MOL0     H 9330   5.807   7.813   6.668 -1.2357  1.4043 -2.1616
   71MOL0     H 9331   5.860   7.908   6.810  1.3546  0.2305 -1.1964
   71MOL0     H 9332   5.638   7.942   6.600  1.0831 -0.1929 -0.8464
   71MOL0     H 9333   5.676   8.072   6.722  1.0674  0.2584  1.9055
   71MOL0     H 9334   5.474   7.850   7.007 -0.3686 -1.9057 -0.2157
   71MOL0     H 9335   5.237   7.845   7.051  0.6341 -2.1451 -1.5122
   71MOL0     H 9336   4.802   8.083   6.930  1.8534 -0.5663 -2.3446
   71MOL0     H 9337   4.575   8.101   6.938  1.3603 -0.0941  0.4988
   71MOL0     H 9338   4.378   7.782   6.740  1.4580  1.2530  3.2559
   71MOL0     H 9339   4.301   7.897   6.624 -2.3509 -1.3571  0.4561
   71MOL0     H 9340   4.186   7.834   6.907 -3.6096 -0.8941  0.0895
   71MOL0     H 9341   4.126   7.793   6.750  2.0497 -0.6655  0.3400
   71MOL0     H 9342   4.078   8.041   6.708 -1.2403 -1.0638 -0.4731
   71MOL0     H 9343   4.165   8.082   6.856 -1.1128  0.9117  0.2578
   71MOL0     H 9344   4.008   7.928   6.976 -0.3908  0.0081 -0.4482
   71MOL0     H 9345   3.970   8.097   6.951 -2.4839  1.6200 -0.3227
   71MOL0     H 9346   3.848   7.850   6.804  0.3104 -0.6418  2.0196
   71MOL0     H 9347   3.874   8.002   6.716  2.2060 -2.4882 -0.1956
   71MOL0     H 9348   3.701   8.103   6.820  1.4494  0.9593  0.9886
   71MOL0     H 9349   3.731   8.042   6.972 -0.3980 -0.1401 -1.1331
   71MOL0     H 9350   3.587   7.897   6.744 -0.0999  2.1309 -0.4034
   71MOL0     H 9351   3.621   7.817   6.902  2.5839  0.3447  0.6876
   71MOL0     H 9352   3.448   8.072   6.876 -0.8005 -0.5413  0.7630
   71MOL0     H 9353   3.471   7.962   7.017 -0.3818 -2.5361  0.3675
   71MOL0     H 9354   4.544   7.844   6.595  2.9036 -1.5895 -1.3845
   71MOL0     H 9355   4.788   7.816   6.594 -0.4845 -1.1275  1.0412
   71MOL0     H 9356   5.170   7.994   6.648  2.6995  1.6281 -2.2606
   71MOL0     H 9357   5.411   8.010   6.618  2.1244 -0.9886 -0.7273
   71MOL0     H 9358   5.240   8.541   6.600  1.2134  0.6832  0.6195
   71MOL0     H 9359   4.998   8.563   6.594 -1.0278 -0.0435  1.1508
   71MOL0     H 9360   4.623   8.286   6.751  2.2091  1.5161  0.5697
   71MOL0     H 9361   4.367   8.243   6.777  0.7231 -0.4296  2.6976
   71MOL0     H 9362   4.158   8.311   6.646  0.4644 -0.8193 -0.4771
   71MOL0     H 9363   4.104   8.490   6.636 -0.1087 -1.0759 -1.0075
   71MOL0     H 9364   3.915   8.321   6.694 -0.3806  1.9091  0.2780
   71MOL0     H 9365   4.001   8.289   6.846  1.5289  1.5528 -0.3001
   71MOL0     H 9366   3.973   8.543   6.882  1.1816  1.7335 -2.2066
   71MOL0     H 9367   3.820   8.459   6.877 -0.8490  0.5407 -1.2289
   71MOL0     H 9368   3.927   8.647   6.667 -1.1205  1.4133  0.7306
   71MOL0     H 9369   3.797   8.527   6.634  2.2118 -0.3460 -1.3930
   71MOL0     H 9370   3.574   8.787   6.860  2.2531  0.3881  3.5147
   71MOL0     H 9371   4.323   8.664   6.811  0.5908  0.5323  1.3208
   71MOL0     H 9372   4.560   8.701   6.756 -1.4756  1.6310  0.7613
   72MOL0     O 9373   4.601   9.803  10.975 -0.2676  0.0963 -0.3585
   72MOL0     C 9374   4.632   9.829  11.088  0.3965 -0.3857 -0.5308
   72MOL0     O 9375   4.574   9.929  11.164 -0.0599 -0.4194  0.3756
   72MOL0     C 9376   4.446   9.984  11.126  0.7615  1.1200 -0.3289
   72MOL0     C 9377   4.426  10.036  11.000  0.9310 -0.3347 -0.4626
   72MOL0     C 9378   4.300  10.090  10.965 -0.5744 -0.2382  0.2324
   72MOL0     C 9379   4.194  10.104  11.067  0.2482 -0.5893  0.9064
   72MOL0     O 9380   4.073  10.150  11.019 -0.6219 -0.1714  0.2992
   72MOL0     C 9381   3.965  10.180  11.105 -0.1899 -0.1278 -0.1385
   72MOL0     C 9382   3.855  10.266  11.041  0.2878 -0.1771 -0.0109
   72MOL0     C 9383   3.757  10.331  11.136 -0.1271  0.0405  0.5381
   72MOL0     C 9384   3.629  10.396  11.055 -0.1069 -0.2524 -0.3913
   72MOL0     C 9385   3.521  10.458  11.144 -1.0432 -0.1653 -0.5259
   72MOL0     C 9386   3.416  10.550  11.078  0.4610  0.1536 -0.0672
   72MOL0     C 9387   3.329  10.475  10.980  0.7803 -0.4117  0.1545
   72MOL0     C 9388   3.269  10.566  10.875 -0.0631  0.4718 -0.0746
   72MOL0     N 9389   3.190  10.688  10.920  0.1367  0.5419 -1.1971
   72MOL0     C 9390   3.242  10.816  10.938  0.3272  0.0672 -0.1555
   72MOL0     C 9391   3.158  10.873  11.028 -0.0364 -0.6321 -0.0902
   72MOL0     C 9392   3.187  11.005  11.094 -0.3671  0.0709  0.0137
   72MOL0     C 9393   3.194  11.001  11.246 -0.6208 -0.3190 -0.6131
   72MOL0     C 9394   3.267  10.879  11.301  0.4004  0.1799  0.6659
   72MOL0     C 9395   3.412  10.889  11.269 -0.6132  0.0606 -0.3800
   72MOL0     O 9396   3.486  10.777  11.329 -0.2156  0.1601 -1.0068
   72MOL0     C 9397   3.620  10.762  11.308 -0.3071 -0.1201 -0.8027
   72MOL0     C 9398   3.691  10.676  11.388  0.2215  0.1917 -0.6581
   72MOL0     C 9399   3.828  10.655  11.367 -0.3417 -0.1419  1.2152
   72MOL0     C 9400   3.893  10.719  11.256 -0.6319 -0.6494  0.1385
   72MOL0     C 9401   4.031  10.687  11.218 -0.5232 -0.0327  0.0892
   72MOL0     O 9402   4.104  10.607  11.297 -0.4976 -0.4476  0.1749
   72MOL0     C 9403   4.215  10.546  11.234 -0.4467 -0.2475 -0.7139
   72MOL0     C 9404   4.334  10.552  11.298  0.0339 -0.3847 -1.1107
   72MOL0     C 9405   4.451  10.493  11.240  0.5394 -0.2667 -0.5781
   72MOL0     C 9406   4.439  10.421  11.120 -0.0863  0.9127  0.8080
   72MOL0     O 9407   4.546  10.356  11.060  0.0754 -0.1560 -0.5636
   72MOL0     C 9408   4.643  10.271  11.125  0.6802  0.3597 -1.1224
   72MOL0     C 9409   4.743  10.356  11.201  0.0268  0.4902 -1.2006
   72MOL0     C 9410   4.886  10.296  11.181  0.0984  0.3343  0.7040
   72MOL0     C 9411   4.891  10.142  11.243  0.2210 -0.0654 -0.9378
   72MOL0     C 9412   5.041  10.079  11.233 -0.5151  0.1978  0.1800
   72MOL0     C 9413   5.061   9.945  11.313  0.2013 -0.2707  0.0763
   72MOL0     C 9414   5.196   9.893  11.287  0.4861 -0.0223 -1.1492
   72MOL0     C 9415   5.220   9.761  11.370 -0.1441 -0.0609  0.9432
   72MOL0    Cl 9416   5.353   9.657  11.319 -0.7842  0.0610  0.1650
   72MOL0     C 9417   4.314  10.402  11.059 -0.5803 -0.4773  0.4641
   72MOL0     C 9418   4.197  10.470  11.115 -0.2938 -0.8534  1.0283
   72MOL0     O 9419   4.063  10.725  11.104  0.0720  0.0297  0.8339
   72MOL0     C 9420   3.823  10.816  11.183  0.3878  0.4821 -0.4010
   72MOL0     C 9421   3.685  10.836  11.207 -0.0148 -0.1405  0.7178
   72MOL0     N 9422   3.046  10.789  11.042 -0.5829 -0.3553 -0.3037
   72MOL0     N 9423   3.070  10.674  10.977 -0.1701 -0.3757  0.7060
   72MOL0     C 9424   4.223  10.057  11.197  0.0076  0.0939 -0.6894
   72MOL0     C 9425   4.347   9.988  11.220  0.4602  0.3965 -0.5179
   72MOL0     C 9426   4.728   9.742  11.148 -0.4306  0.5032 -0.0236
   72MOL0     C 9427   4.806   9.657  11.070  0.0132  0.6405  0.6875
   72MOL0     C 9428   4.906   9.576  11.124  0.8567 -0.2372 -0.0311
   72MOL0     C 9429   4.919   9.565  11.262  0.7646  0.3497  0.4825
   72MOL0     O 9430   5.016   9.475  11.310 -0.5074  0.8785  0.5987
   72MOL0     C 9431   5.022   9.419  11.445  0.6913  0.4809 -0.3400
   72MOL0     C 9432   5.012   9.266  11.437 -0.0350  0.4332 -1.0498
   72MOL0     C 9433   4.917   9.197  11.343  0.4614  0.6755  0.4806
   72MOL0     C 9434   4.767   9.245  11.365 -0.5661 -0.3448 -0.6543
   72MOL0     C 9435   4.691   9.141  11.436 -0.5027 -0.0864 -0.2950
   72MOL0     C 9436   4.628   9.055  11.489 -0.1956  0.3773 -0.2447
   72MOL0     C 9437   4.838   9.645  11.341  0.9021  0.1060 -0.4637
   72MOL0     C 9438   4.732   9.724  11.286 -0.0148 -0.4270 -0.1929
   72MOL0     H 9439   4.511  10.039  10.932  1.2401 -0.2270 -0.0761
   72MOL0     H 9440   4.284  10.127  10.864 -0.7916  1.6396  0.9252
   72MOL0     H 9441   3.998  10.237  11.193 -1.0693  1.9872 -1.1115
   72MOL0     H 9442   3.920  10.083  11.125 -0.7485  0.1333 -0.1079
   72MOL0     H 9443   3.803  10.195  10.976  2.1370 -1.2377 -0.3996
   72MOL0     H 9444   3.911  10.342  10.986 -1.1506 -0.2473 -1.6706
   72MOL0     H 9445   3.807  10.422  11.173 -1.4644  2.5741 -3.2890
   72MOL0     H 9446   3.732  10.258  11.214 -1.4790  1.6422  1.7050
   72MOL0     H 9447   3.667  10.480  10.996  1.3650  1.0370  2.1803
   72MOL0     H 9448   3.588  10.310  11.001  0.7795 -1.6387  1.0341
   72MOL0     H 9449   3.564  10.512  11.228  0.1268 -0.4935 -0.8954
   72MOL0     H 9450   3.471  10.370  11.187  1.8841 -1.4001  0.5889
   72MOL0     H 9451   3.463  10.647  11.056 -2.3499  1.9893  1.4022
   72MOL0     H 9452   3.339  10.581  11.149  0.3608  2.6110 -1.1391
   72MOL0     H 9453   3.386  10.400  10.924 -1.6765 -0.9723 -1.7631
   72MOL0     H 9454   3.259  10.405  11.026  3.5730 -2.4737  1.6077
   72MOL0     H 9455   3.223  10.504  10.798 -1.3313  1.3751 -0.0737
   72MOL0     H 9456   3.360  10.596  10.822  0.7885 -1.1941  0.3809
   72MOL0     H 9457   3.339  10.850  10.903 -0.3009  1.3127 -0.7709
   72MOL0     H 9458   3.120  11.082  11.055  0.5161 -0.2565 -2.3045
   72MOL0     H 9459   3.285  11.038  11.060 -0.8757  1.9115  0.2254
   72MOL0     H 9460   3.090  10.996  11.282 -0.8587  0.4618 -1.1681
   72MOL0     H 9461   3.234  11.095  11.285 -2.4252 -0.8420  2.8584
   72MOL0     H 9462   3.249  10.886  11.409 -2.6486 -0.6426  0.2975
   72MOL0     H 9463   3.212  10.793  11.261 -1.1126  2.6475 -3.1252
   72MOL0     H 9464   3.458  10.977  11.313 -0.5709  0.2365 -0.7753
   72MOL0     H 9465   3.430  10.896  11.161 -1.2114  3.5643 -0.3439
   72MOL0     H 9466   3.646  10.633  11.477 -1.1270  1.8624 -0.4651
   72MOL0     H 9467   3.885  10.590  11.433  0.5993  1.7442  2.3308
   72MOL0     H 9468   4.320  10.607  11.391  2.6840 -0.6065 -0.5050
   72MOL0     H 9469   4.549  10.493  11.287  0.4576  0.2350 -0.3990
   72MOL0     H 9470   4.703  10.203  11.064  2.8913 -1.8178  3.0058
   72MOL0     H 9471   4.602  10.200  11.197 -0.0764  2.7781  0.9752
   72MOL0     H 9472   4.729  10.354  11.309  1.6775 -0.4642 -0.9593
   72MOL0     H 9473   4.730  10.461  11.174  0.0169  0.1335 -2.6593
   72MOL0     H 9474   4.957  10.356  11.239 -0.2651  0.8289  0.6387
   72MOL0     H 9475   4.907  10.288  11.074  0.6364  0.4050  0.7977
   72MOL0     H 9476   4.863  10.134  11.348  4.1879  0.7102  0.3727
   72MOL0     H 9477   4.829  10.068  11.193  1.2996 -1.7669  0.1387
   72MOL0     H 9478   5.118  10.149  11.267 -0.6272  0.7768 -0.7321
   72MOL0     H 9479   5.061  10.059  11.127 -2.0568 -1.4076  0.1496
   72MOL0     H 9480   4.979   9.877  11.288 -2.5599  2.8335 -0.1194
   72MOL0     H 9481   5.044   9.971  11.418 -0.0242  2.5423 -0.5778
   72MOL0     H 9482   5.210   9.887  11.179 -0.6059  1.8353 -1.4346
   72MOL0     H 9483   5.270   9.967  11.320 -2.1234  3.7708 -3.0112
   72MOL0     H 9484   5.134   9.694  11.369  0.6403 -1.1034  1.4526
   72MOL0     H 9485   5.225   9.795  11.474 -1.5041 -0.3906  1.1307
   72MOL0     H 9486   4.315  10.342  10.968 -0.8697 -0.0650  0.1855
   72MOL0     H 9487   4.097  10.471  11.072  0.4542  0.3304 -0.7743
   72MOL0     H 9488   3.870  10.873  11.104  2.4306 -0.7315 -0.1394
   72MOL0     H 9489   3.628  10.909  11.151 -1.5326 -2.0987 -0.4362
   72MOL0     H 9490   4.151  10.052  11.277  1.7594  0.1722  0.9462
   72MOL0     H 9491   4.356   9.949  11.320 -2.6584  1.8830  0.4736
   72MOL0     H 9492   4.792   9.667  10.963  0.8416 -0.0082  0.5059
   72MOL0     H 9493   4.962   9.494  11.079 -4.5717 -3.8731 -1.1210
   72MOL0     H 9494   4.937   9.461  11.501 -1.6116  2.0997 -4.5565
   72MOL0     H 9495   5.105   9.474  11.490 -1.0654  3.6718 -0.6960
   72MOL0     H 9496   5.115   9.233  11.420  0.7332  1.6170  0.9597
   72MOL0     H 9497   4.987   9.224  11.535 -2.4334  1.5191 -1.1292
   72MOL0     H 9498   4.935   9.090  11.350 -1.0020  0.4844  1.9256
   72MOL0     H 9499   4.945   9.228  11.242 -1.9584 -2.2423 -1.2526
   72MOL0     H 9500   4.779   9.341  11.417  2.1782 -1.0525  0.1514
   72MOL0     H 9501   4.720   9.266  11.268 -0.5313  1.2863 -0.3544
   72MOL0     H 9502   4.580   8.978  11.546  1.1960 -1.8526 -1.9260
   72MOL0     H 9503   4.842   9.637  11.449  0.6191 -2.5842 -0.5817
   72MOL0     H 9504   4.661   9.775  11.351  0.2025  1.3329 -1.2659
   73MOL0     O 9505   8.253   9.730   3.628  0.3995 -0.6665  0.2060
   73MOL0     C 9506   8.373   9.684   3.632  0.5351  0.3205  0.4591
   73MOL0     O 9507   8.407   9.553   3.639  0.4561  0.1025 -0.0736
   73MOL0     C 9508   8.304   9.468   3.627  0.5876  0.2469  0.2584
   73MOL0     C 9509   8.231   9.458   3.511 -0.1021 -0.2513  0.0857
   73MOL0     C 9510   8.124   9.367   3.498 -0.5999  0.2954  0.3099
   73MOL0     C 9511   8.092   9.277   3.599 -0.0365 -0.9025 -0.2407
   73MOL0     O 9512   7.992   9.184   3.590 -0.3036  0.2102 -0.1820
   73MOL0     C 9513   7.914   9.178   3.469 -0.1698  0.3156 -0.0518
   73MOL0     C 9514   7.822   9.062   3.495  0.0351  0.2973 -0.3236
   73MOL0     C 9515   7.715   9.067   3.607 -0.5375 -0.0915  0.5108
   73MOL0     C 9516   7.592   9.158   3.565  0.1819 -0.7778 -1.2760
   73MOL0     C 9517   7.478   9.149   3.676 -0.2971 -0.1438 -0.1857
   73MOL0     C 9518   7.518   9.204   3.811  0.4488  0.1018  0.0059
   73MOL0     C 9519   7.380   9.231   3.898 -0.6726  0.0052 -0.1745
   73MOL0     C 9520   7.397   9.363   3.975  0.9865 -0.4834  0.1854
   73MOL0     N 9521   7.256   9.394   4.023 -0.1111 -0.0611  0.6036
   73MOL0     C 9522   7.165   9.461   3.949  1.3213 -0.0258 -0.3549
   73MOL0     C 9523   7.057   9.469   4.028  0.0535  0.2758 -0.3299
   73MOL0     C 9524   6.928   9.543   4.024 -0.6347  0.4986 -0.3392
   73MOL0     C 9525   6.939   9.674   4.103  0.2637 -0.4575 -0.3452
   73MOL0     C 9526   6.907   9.658   4.258  1.2863  0.8641 -0.4243
   73MOL0     C 9527   6.757   9.625   4.278  0.0477  1.1463  0.3506
   73MOL0     O 9528   6.672   9.725   4.209  0.5405  0.3228 -0.4263
   73MOL0     C 9529   6.533   9.711   4.228  0.0961 -0.0333  0.1637
   73MOL0     C 9530   6.461   9.819   4.160  0.8043 -0.4396  0.3292
   73MOL0     C 9531   6.321   9.812   4.175  0.1044 -0.1666 -0.6731
   73MOL0     C 9532   6.255   9.700   4.226  0.0932  1.0255 -0.2586
   73MOL0     C 9533   6.107   9.689   4.242 -0.0802  0.3199  0.2148
   73MOL0     O 9534   6.032   9.782   4.170  0.2391 -0.0930 -0.3918
   73MOL0     C 9535   5.892   9.771   4.165  0.1641 -0.0427 -1.4654
   73MOL0     C 9536   5.834   9.758   4.045 -0.1702  1.1243  0.1032
   73MOL0     C 9537   5.707   9.733   4.029 -0.1029 -0.5957 -1.0715
   73MOL0     C 9538   5.621   9.721   4.142  0.2349 -0.8929  0.4112
   73MOL0     O 9539   5.482   9.702   4.132  0.4803 -0.0914 -0.4319
   73MOL0     C 9540   5.434   9.583   4.071  0.5387 -0.2367  0.9795
   73MOL0     C 9541   5.313   9.623   3.976  0.6301 -0.5876  0.1553
   73MOL0     C 9542   5.214   9.508   3.940 -0.1284  0.8107 -0.5913
   73MOL0     C 9543   5.273   9.376   3.904  0.2863 -0.0511 -0.6023
   73MOL0     C 9544   5.156   9.271   3.911  0.2692  0.2701  0.0032
   73MOL0     C 9545   5.054   9.294   3.798  0.2889 -0.1363 -0.6921
   73MOL0     C 9546   4.940   9.190   3.796 -0.3379 -0.8199  0.2686
   73MOL0     C 9547   4.817   9.244   3.737  0.5120  0.8191  0.5145
   73MOL0    Cl 9548   4.746   9.369   3.836  0.0133  0.6488  0.0083
   73MOL0     C 9549   5.678   9.738   4.269  0.8588  0.2712  0.6522
   73MOL0     C 9550   5.816   9.759   4.281 -0.1747  0.8887 -0.3099
   73MOL0     O 9551   6.056   9.589   4.293  0.5604  0.3200 -0.1113
   73MOL0     C 9552   6.329   9.595   4.290 -0.3842  0.1634  0.7678
   73MOL0     C 9553   6.463   9.605   4.297 -0.2540 -0.0878 -0.0645
   73MOL0     N 9554   7.090   9.419   4.152 -0.0005  0.3334 -0.1525
   73MOL0     N 9555   7.213   9.363   4.143  1.3027 -0.3704  0.2086
   73MOL0     C 9556   8.172   9.284   3.713  0.2656 -0.1283 -0.9133
   73MOL0     C 9557   8.273   9.374   3.725 -0.4422 -0.5310  0.3585
   73MOL0     C 9558   8.489   9.770   3.640 -0.5315  0.3041 -0.1170
   73MOL0     C 9559   8.615   9.720   3.691  1.3258 -0.1529  0.3389
   73MOL0     C 9560   8.730   9.800   3.704 -0.0780  1.1453  0.0113
   73MOL0     C 9561   8.723   9.935   3.660  0.2858  0.3520 -0.7041
   73MOL0     O 9562   8.829  10.025   3.656  0.0332  0.7131 -0.0374
   73MOL0     C 9563   8.950  10.004   3.737 -0.5209 -0.9939  0.2966
   73MOL0     C 9564   9.033  10.132   3.737 -0.0966 -0.0364  0.3173
   73MOL0     C 9565   9.151  10.130   3.842  0.0977  0.4089  0.7677
   73MOL0     C 9566   9.206  10.267   3.844  0.6229 -0.0932 -1.0805
   73MOL0     C 9567   9.264  10.309   3.714  0.8305  0.5888  0.3714
   73MOL0     C 9568   9.306  10.322   3.600  0.7140  0.3874  0.1638
   73MOL0     C 9569   8.599   9.983   3.618  1.1387  0.9316 -0.0582
   73MOL0     C 9570   8.486   9.907   3.606  0.4376  0.1871 -0.5846
   73MOL0     H 9571   8.240   9.536   3.435  0.3241 -1.0630 -0.7156
   73MOL0     H 9572   8.078   9.374   3.400 -0.9949 -1.7059  0.3214
   73MOL0     H 9573   7.969   9.163   3.375  0.8512  1.7393  0.2761
   73MOL0     H 9574   7.851   9.268   3.467 -0.4512  0.1904 -3.5786
   73MOL0     H 9575   7.886   8.978   3.525  0.2319  0.9161  1.0930
   73MOL0     H 9576   7.783   9.027   3.399 -1.7316 -1.0731  0.8192
   73MOL0     H 9577   7.769   9.097   3.698  3.0510 -1.6823 -0.9147
   73MOL0     H 9578   7.666   8.973   3.632 -3.6059  1.3368  0.3231
   73MOL0     H 9579   7.612   9.265   3.557 -4.2137  0.2521 -0.9495
   73MOL0     H 9580   7.548   9.126   3.470 -0.0077 -0.6984 -1.2145
   73MOL0     H 9581   7.454   9.042   3.681 -0.2165 -0.2192 -1.1504
   73MOL0     H 9582   7.394   9.205   3.635  0.9041  0.7170 -1.5996
   73MOL0     H 9583   7.579   9.291   3.785  1.9499 -0.8746  0.1127
   73MOL0     H 9584   7.579   9.136   3.871  2.4302  2.3744  0.7414
   73MOL0     H 9585   7.291   9.230   3.835  0.9192  1.8322 -2.6209
   73MOL0     H 9586   7.352   9.156   3.973 -1.2314  0.9927  0.6390
   73MOL0     H 9587   7.425   9.444   3.906  0.3785  0.9731  1.5736
   73MOL0     H 9588   7.470   9.353   4.055 -1.3705 -1.1843  2.3650
   73MOL0     H 9589   7.183   9.517   3.857  3.0272 -2.8004 -1.8510
   73MOL0     H 9590   6.843   9.484   4.059  0.1447 -0.3168  0.2137
   73MOL0     H 9591   6.902   9.569   3.921 -2.4773  0.2273  0.0186
   73MOL0     H 9592   6.862   9.738   4.058  1.7649  2.7534  1.3401
   73MOL0     H 9593   7.038   9.714   4.079  0.4012 -0.3179  0.4539
   73MOL0     H 9594   6.963   9.581   4.312 -1.3114 -2.3803 -1.9927
   73MOL0     H 9595   6.909   9.756   4.308 -0.8796  1.5731 -1.6321
   73MOL0     H 9596   6.739   9.630   4.385  0.0565  4.0948  0.3189
   73MOL0     H 9597   6.734   9.523   4.246 -0.0583  0.8126  1.4694
   73MOL0     H 9598   6.500   9.912   4.122 -3.4431  1.0701 -0.9259
   73MOL0     H 9599   6.256   9.888   4.133 -1.2010 -0.2697  1.0617
   73MOL0     H 9600   5.899   9.786   3.963 -0.6829  1.8702 -0.0665
   73MOL0     H 9601   5.660   9.700   3.937  4.0955 -2.5139 -2.7557
   73MOL0     H 9602   5.388   9.523   4.151 -0.0623 -2.4479 -0.8960
   73MOL0     H 9603   5.515   9.527   4.023  0.9356 -1.3817  2.8671
   73MOL0     H 9604   5.359   9.660   3.883  1.6257 -0.5973  0.6289
   73MOL0     H 9605   5.252   9.703   4.018 -1.5697 -1.2915 -1.4812
   73MOL0     H 9606   5.172   9.544   3.846 -0.1169  0.9998 -0.5231
   73MOL0     H 9607   5.126   9.496   4.004 -2.2307 -0.7779 -3.5066
   73MOL0     H 9608   5.308   9.372   3.800 -1.1609 -3.5056 -1.0830
   73MOL0     H 9609   5.342   9.341   3.981 -1.4474 -1.8088  0.2500
   73MOL0     H 9610   5.105   9.278   4.008 -2.5219  0.4950 -1.3800
   73MOL0     H 9611   5.203   9.172   3.906  1.9163  0.9340  1.4512
   73MOL0     H 9612   5.111   9.314   3.707  2.8954  0.2629  0.9184
   73MOL0     H 9613   5.007   9.386   3.832  0.5605 -0.6014  1.0363
   73MOL0     H 9614   4.970   9.106   3.733 -0.6625 -0.2680 -0.6587
   73MOL0     H 9615   4.921   9.158   3.899 -0.6299 -0.1887  0.4187
   73MOL0     H 9616   4.739   9.168   3.744  1.7031 -0.3271  1.9855
   73MOL0     H 9617   4.829   9.281   3.634 -4.8032  0.3508 -0.5477
   73MOL0     H 9618   5.614   9.716   4.354  1.4819  1.4165  1.4451
   73MOL0     H 9619   5.865   9.758   4.378  2.4387 -0.0793 -1.5538
   73MOL0     H 9620   6.281   9.508   4.333  0.5984  1.0820  4.0492
   73MOL0     H 9621   6.529   9.528   4.335  1.6388 -0.2190 -3.2498
   73MOL0     H 9622   8.151   9.215   3.795 -0.2923  0.0435 -0.9152
   73MOL0     H 9623   8.340   9.383   3.810  1.8584  0.5996 -1.4789
   73MOL0     H 9624   8.622   9.613   3.707 -0.1107  0.1344  3.5918
   73MOL0     H 9625   8.822   9.752   3.737 -1.4857 -4.0003 -2.4077
   73MOL0     H 9626   9.014   9.935   3.680 -0.3257  0.5008 -1.3948
   73MOL0     H 9627   8.930   9.968   3.838 -1.4041  1.7145  1.1760
   73MOL0     H 9628   9.067  10.157   3.636 -0.7389  0.3875  0.1997
   73MOL0     H 9629   8.961  10.207   3.772 -0.7310 -1.2674  1.7485
   73MOL0     H 9630   9.219  10.047   3.823 -0.0718  0.1485  1.2643
   73MOL0     H 9631   9.108  10.115   3.942  0.2480  2.1626  1.1307
   73MOL0     H 9632   9.129  10.343   3.859  1.3432  0.7152 -1.4644
   73MOL0     H 9633   9.273  10.287   3.928 -1.8752  0.5659  0.8919
   73MOL0     H 9634   9.343  10.321   3.499 -0.2284 -3.6284 -0.3341
   73MOL0     H 9635   8.598  10.079   3.568  0.0277  0.5079 -0.8847
   73MOL0     H 9636   8.397   9.943   3.556 -0.7934 -1.3366  0.4122
   74MOL0     O 9637   2.664   6.891   2.507 -0.1394 -0.7013  0.0230
   74MOL0     C 9638   2.703   6.849   2.402 -1.2101  0.4385  0.5785
   74MOL0     O 9639   2.624   6.797   2.312 -0.3106  0.0942  0.5273
   74MOL0     C 9640   2.488   6.784   2.349  0.6046 -0.3180 -0.2569
   74MOL0     C 9641   2.397   6.827   2.264  0.0075 -0.4069 -0.2884
   74MOL0     C 9642   2.258   6.803   2.288 -0.2869 -1.4056  0.4064
   74MOL0     C 9643   2.221   6.725   2.397 -0.1572  0.5953  0.3028
   74MOL0     O 9644   2.093   6.692   2.406  0.6924 -0.1445 -0.5047
   74MOL0     C 9645   2.033   6.725   2.534  0.2073 -0.4184 -0.0828
   74MOL0     C 9646   1.886   6.769   2.513 -0.5468  0.1791 -0.0227
   74MOL0     C 9647   1.814   6.800   2.645  0.3668  0.1715 -0.1093
   74MOL0     C 9648   1.801   6.686   2.754 -0.0281  0.4770  0.8984
   74MOL0     C 9649   1.728   6.560   2.695 -0.3177 -1.1479  0.6418
   74MOL0     C 9650   1.592   6.586   2.622 -0.5925  0.0014 -0.2547
   74MOL0     C 9651   1.526   6.454   2.581  0.0703  0.4957 -1.2390
   74MOL0     C 9652   1.492   6.355   2.695 -0.5222 -0.2957  1.1518
   74MOL0     N 9653   1.349   6.310   2.681 -0.1491 -0.3658 -1.2009
   74MOL0     C 9654   1.295   6.181   2.654 -0.2521 -0.6317  0.0194
   74MOL0     C 9655   1.166   6.211   2.615  0.3376 -0.1725  0.7787
   74MOL0     C 9656   1.059   6.126   2.565  0.3084 -0.5007  0.2731
   74MOL0     C 9657   1.020   6.035   2.680  0.2901 -0.0140  0.0182
   74MOL0     C 9658   0.962   6.093   2.814 -0.4689  0.0084  0.6060
   74MOL0     C 9659   0.819   6.158   2.794  0.2242 -0.1737 -0.5340
   74MOL0     O 9660   0.727   6.067   2.741  0.4774 -0.5691 -0.1029
   74MOL0     C 9661   0.616   6.121   2.673  0.5340  0.4233  0.0422
   74MOL0     C 9662   0.557   6.052   2.562 -0.0610 -0.5696 -0.0936
   74MOL0     C 9663   0.430   6.084   2.509  0.4127 -1.3794  0.3425
   74MOL0     C 9664   0.367   6.210   2.540 -0.7739  0.1864  0.5041
   74MOL0     C 9665   0.236   6.254   2.489 -0.2531  1.0206  0.4118
   74MOL0     O 9666   0.176   6.356   2.568 -0.0222  0.0821 -0.0714
   74MOL0     C 9667   0.056   6.416   2.529 -1.0543  0.1055  0.5040
   74MOL0     C 9668  -0.012   6.485   2.624 -1.2328 -0.7345  0.3339
   74MOL0     C 9669  -0.124   6.543   2.586  0.1189 -0.0521  0.1211
   74MOL0     C 9670  -0.182   6.553   2.456 -0.1953 -0.4006  0.0582
   74MOL0     O 9671  -0.295   6.634   2.422  0.7798 -0.2297 -0.2030
   74MOL0     C 9672  -0.350   6.728   2.515 -0.0407 -0.1979 -0.2452
   74MOL0     C 9673  -0.478   6.793   2.467  0.0870 -0.4840 -0.1313
   74MOL0     C 9674  -0.599   6.709   2.516  0.2704  0.2654 -0.3774
   74MOL0     C 9675  -0.724   6.769   2.448 -1.0328  0.0460 -0.1764
   74MOL0     C 9676  -0.844   6.682   2.482 -0.1934 -0.0621 -1.2115
   74MOL0     C 9677  -0.983   6.736   2.434  0.3563  0.1160  0.0539
   74MOL0     C 9678  -1.007   6.697   2.284  0.2390  0.5149 -0.6963
   74MOL0     C 9679  -1.149   6.740   2.240  0.4260  0.1283 -0.5271
   74MOL0    Cl 9680  -1.173   6.905   2.175  0.0510  0.4971  0.4542
   74MOL0     C 9681  -0.117   6.477   2.360  0.5881 -0.0454  0.3169
   74MOL0     C 9682   0.007   6.413   2.395  0.3837  0.5570  0.0387
   74MOL0     O 9683   0.176   6.181   2.404 -0.4108  0.1687 -0.2668
   74MOL0     C 9684   0.432   6.286   2.642  1.1818  0.9054  0.2855
   74MOL0     C 9685   0.543   6.237   2.715  0.3431 -0.0886 -0.2402
   74MOL0     N 9686   1.148   6.348   2.619  0.4499 -0.6416 -1.0295
   74MOL0     N 9687   1.253   6.409   2.661 -0.0369 -0.1961 -0.1421
   74MOL0     C 9688   2.319   6.669   2.481 -0.1818 -0.1264  0.6430
   74MOL0     C 9689   2.451   6.695   2.459  0.7010  0.0305 -0.6845
   74MOL0     C 9690   2.847   6.866   2.369 -0.3313 -0.1134  0.2973
   74MOL0     C 9691   2.937   6.949   2.437  0.9970 -0.3206 -0.2838
   74MOL0     C 9692   3.072   6.966   2.405 -0.0701 -0.2529  0.9636
   74MOL0     C 9693   3.134   6.880   2.307 -0.8423  0.5433 -1.0431
   74MOL0     O 9694   3.274   6.871   2.289 -0.0329 -0.3066  0.0914
   74MOL0     C 9695   3.363   6.977   2.340 -0.2653  0.7906  0.0614
   74MOL0     C 9696   3.422   6.937   2.481  0.3561 -0.3995 -0.3769
   74MOL0     C 9697   3.521   7.049   2.532  0.1636 -0.1301 -0.4000
   74MOL0     C 9698   3.585   7.009   2.670 -0.6235  0.0309  0.9727
   74MOL0     C 9699   3.482   6.953   2.767  0.8366  0.4360 -0.0351
   74MOL0     C 9700   3.383   6.923   2.836  0.3239 -0.5542 -0.2447
   74MOL0     C 9701   3.052   6.784   2.248  0.0775 -0.4831  0.0752
   74MOL0     C 9702   2.913   6.788   2.269 -0.3121 -0.4134 -0.6448
   74MOL0     H 9703   2.426   6.874   2.170  1.4416 -3.3672 -1.4359
   74MOL0     H 9704   2.173   6.823   2.224 -1.4146 -0.0775  2.2229
   74MOL0     H 9705   2.091   6.808   2.577 -0.6109  0.9550 -1.5011
   74MOL0     H 9706   2.029   6.646   2.610 -0.4428  0.6904  1.0865
   74MOL0     H 9707   1.821   6.695   2.466  0.0166 -0.1071 -0.3662
   74MOL0     H 9708   1.892   6.864   2.458  0.8587  1.5647  2.3262
   74MOL0     H 9709   1.714   6.833   2.615 -1.2161 -2.5209  1.7286
   74MOL0     H 9710   1.870   6.887   2.684 -0.6716  0.9582 -0.3353
   74MOL0     H 9711   1.897   6.653   2.796 -0.3754 -1.3154  0.3823
   74MOL0     H 9712   1.751   6.724   2.844  1.1580 -2.4730  2.9663
   74MOL0     H 9713   1.695   6.499   2.779  0.4146 -2.6510 -0.1193
   74MOL0     H 9714   1.797   6.509   2.627 -1.0069  0.0537 -1.0344
   74MOL0     H 9715   1.607   6.647   2.532  0.0825 -0.5773 -0.5413
   74MOL0     H 9716   1.526   6.647   2.685 -0.5829  0.7305 -0.9316
   74MOL0     H 9717   1.441   6.470   2.514 -0.0969  0.1692 -1.1032
   74MOL0     H 9718   1.599   6.405   2.516  0.8037  1.1248 -0.9177
   74MOL0     H 9719   1.507   6.395   2.795  0.2794 -1.6140  1.5696
   74MOL0     H 9720   1.543   6.260   2.679 -1.6493 -1.0108  1.7213
   74MOL0     H 9721   1.346   6.084   2.653 -1.7385 -1.4664  1.3355
   74MOL0     H 9722   1.085   6.069   2.476  0.4278  1.1199 -0.7606
   74MOL0     H 9723   0.973   6.182   2.528  1.0976 -0.3267 -1.3543
   74MOL0     H 9724   1.110   5.984   2.716  0.6908  1.1828  0.8217
   74MOL0     H 9725   0.949   5.961   2.643  0.5918  0.4351 -1.5075
   74MOL0     H 9726   0.965   6.027   2.901 -1.8077  2.4913  2.6990
   74MOL0     H 9727   1.034   6.173   2.836  0.3860  0.1110 -2.1818
   74MOL0     H 9728   0.833   6.251   2.738  4.0846  0.2545  0.8511
   74MOL0     H 9729   0.780   6.180   2.894  2.9475 -2.0142  1.0644
   74MOL0     H 9730   0.602   5.959   2.526  0.4346 -1.0580  1.6944
   74MOL0     H 9731   0.375   6.017   2.445  0.9114 -0.1644 -1.4290
   74MOL0     H 9732   0.033   6.482   2.723  0.9058 -0.3763 -0.5663
   74MOL0     H 9733  -0.175   6.593   2.667 -1.6368 -1.6499  0.0728
   74MOL0     H 9734  -0.279   6.811   2.516 -0.1373 -0.1175  0.1391
   74MOL0     H 9735  -0.373   6.694   2.616  0.4926  1.2723  0.4081
   74MOL0     H 9736  -0.475   6.791   2.358  0.5821  1.1405 -0.1677
   74MOL0     H 9737  -0.478   6.897   2.499 -0.0215 -0.3868 -0.4440
   74MOL0     H 9738  -0.609   6.722   2.624 -0.4014  3.0563 -0.7015
   74MOL0     H 9739  -0.583   6.602   2.500  1.4590 -0.0842  2.4915
   74MOL0     H 9740  -0.728   6.869   2.493  0.1058 -0.8382  2.0162
   74MOL0     H 9741  -0.709   6.783   2.340  0.7999  1.5520  0.2341
   74MOL0     H 9742  -0.841   6.666   2.591  1.9484  2.8881 -0.7059
   74MOL0     H 9743  -0.818   6.588   2.434  0.0570  0.0926 -1.3783
   74MOL0     H 9744  -0.986   6.845   2.434  0.7438  0.1691  2.1685
   74MOL0     H 9745  -1.062   6.688   2.492 -0.4272  1.7821  0.4203
   74MOL0     H 9746  -0.925   6.736   2.224  4.1812 -1.5888  2.7271
   74MOL0     H 9747  -1.007   6.589   2.264  1.8483  0.4125 -0.2822
   74MOL0     H 9748  -1.216   6.714   2.322 -0.0371  1.1535 -0.5670
   74MOL0     H 9749  -1.179   6.666   2.165 -1.7114 -1.0177  1.3350
   74MOL0     H 9750  -0.144   6.479   2.255  1.9435 -0.1402 -0.0520
   74MOL0     H 9751   0.065   6.370   2.313 -1.0148  1.4192 -1.4479
   74MOL0     H 9752   0.388   6.381   2.671 -1.5466 -0.1184 -0.2571
   74MOL0     H 9753   0.590   6.297   2.792  1.1075  1.2077 -1.6432
   74MOL0     H 9754   2.290   6.605   2.563  2.1068 -2.3970 -0.1878
   74MOL0     H 9755   2.533   6.660   2.522  1.5664 -0.3164 -1.9549
   74MOL0     H 9756   2.899   7.013   2.516  2.4789 -0.5440  0.6418
   74MOL0     H 9757   3.138   7.027   2.465  1.4289 -2.1223  1.3328
   74MOL0     H 9758   3.323   7.078   2.348  2.2701  1.7415  2.2596
   74MOL0     H 9759   3.438   6.988   2.261 -0.6126 -1.9823 -0.7839
   74MOL0     H 9760   3.334   6.943   2.547  0.3286 -0.0843 -0.4367
   74MOL0     H 9761   3.465   6.838   2.468  0.7109 -0.1011 -1.6422
   74MOL0     H 9762   3.458   7.138   2.543 -0.8717 -0.9909  1.0342
   74MOL0     H 9763   3.601   7.062   2.459  0.9050 -2.5265 -0.1077
   74MOL0     H 9764   3.668   6.938   2.665  1.5832  2.5235  0.4009
   74MOL0     H 9765   3.629   7.099   2.714  1.6791  0.7473 -2.4747
   74MOL0     H 9766   3.296   6.884   2.885 -0.9413 -0.0399 -1.9931
   74MOL0     H 9767   3.092   6.707   2.183  0.0762 -0.3610 -0.0715
   74MOL0     H 9768   2.862   6.708   2.216 -2.0239 -0.9717  1.6678
   75MOL0     O 9769   9.522   8.053   3.987 -0.3234  0.1196  0.7768
   75MOL0     C 9770   9.575   8.151   4.040  0.1629 -0.0456  1.0316
   75MOL0     O 9771   9.524   8.227   4.140 -0.6901  0.2842  0.5557
   75MOL0     C 9772   9.407   8.183   4.197  0.2322 -0.1077 -0.2036
   75MOL0     C 9773   9.331   8.289   4.251 -0.4480 -0.5714  0.3445
   75MOL0     C 9774   9.208   8.258   4.324 -0.2717  0.2570 -0.1525
   75MOL0     C 9775   9.181   8.126   4.350  0.5529  0.0421  0.3003
   75MOL0     O 9776   9.090   8.099   4.454 -0.2300 -0.1919 -0.2745
   75MOL0     C 9777   8.994   7.986   4.439  0.2765  0.0824 -0.9042
   75MOL0     C 9778   8.855   8.034   4.488 -0.1799  0.2784 -0.6343
   75MOL0     C 9779   8.747   7.917   4.494 -0.7633  0.2006 -0.3949
   75MOL0     C 9780   8.615   7.986   4.537  0.4113  0.6038  0.3579
   75MOL0     C 9781   8.491   7.898   4.582  0.1378 -0.0468  0.1052
   75MOL0     C 9782   8.508   7.831   4.723  0.3605  0.4731  1.1825
   75MOL0     C 9783   8.391   7.754   4.779  0.3988  1.3253 -0.0773
   75MOL0     C 9784   8.290   7.832   4.847 -0.1911  0.0518  0.2550
   75MOL0     N 9785   8.167   7.766   4.887  0.0009  0.2133  0.6503
   75MOL0     C 9786   8.131   7.724   5.019  0.1687  0.0682  0.5214
   75MOL0     C 9787   8.028   7.645   5.005 -0.3607  0.3100 -0.4936
   75MOL0     C 9788   7.958   7.569   5.114  0.2491 -0.1958  0.0318
   75MOL0     C 9789   7.866   7.675   5.190 -0.2675  0.7093  0.7183
   75MOL0     C 9790   7.742   7.604   5.234  0.8039 -0.3855  0.5221
   75MOL0     C 9791   7.662   7.688   5.321 -0.7559 -0.0041 -1.1896
   75MOL0     O 9792   7.638   7.821   5.268  0.0553  0.2201 -0.2896
   75MOL0     C 9793   7.526   7.841   5.189 -0.2318  0.0198 -0.3361
   75MOL0     C 9794   7.428   7.745   5.148  0.1455  0.1425 -0.1435
   75MOL0     C 9795   7.305   7.782   5.101  0.2571  1.0513 -0.3260
   75MOL0     C 9796   7.263   7.922   5.087  0.6281  0.0421 -0.1984
   75MOL0     C 9797   7.125   7.972   5.047 -0.9535 -0.4431  0.2028
   75MOL0     O 9798   7.098   8.103   5.056 -0.2274  0.2097  0.2621
   75MOL0     C 9799   6.977   8.141   4.996 -0.1965  1.2465  0.2719
   75MOL0     C 9800   6.859   8.102   5.054 -0.5475 -0.4009  0.4507
   75MOL0     C 9801   6.733   8.140   4.997  0.0900 -0.4270 -0.3882
   75MOL0     C 9802   6.740   8.228   4.884 -0.0124  0.3201 -1.1982
   75MOL0     O 9803   6.617   8.275   4.838 -0.0656  0.5712 -0.0721
   75MOL0     C 9804   6.590   8.409   4.854 -0.4154 -0.6304  0.3845
   75MOL0     C 9805   6.461   8.473   4.805  0.7908  0.3390 -0.4805
   75MOL0     C 9806   6.333   8.396   4.848  0.0638 -1.2188 -0.1393
   75MOL0     C 9807   6.195   8.430   4.770 -0.7644 -0.5661  0.1395
   75MOL0     C 9808   6.075   8.384   4.849 -0.1986 -0.3311  0.0140
   75MOL0     C 9809   5.951   8.428   4.774  0.3975 -1.0554 -0.3903
   75MOL0     C 9810   5.825   8.376   4.845 -0.4354  0.5226 -0.3544
   75MOL0     C 9811   5.707   8.448   4.789  0.8750 -0.3588 -0.5958
   75MOL0    Cl 9812   5.560   8.372   4.872 -0.0714 -0.4155 -0.0130
   75MOL0     C 9813   6.863   8.268   4.831  0.0187 -0.2411  0.1717
   75MOL0     C 9814   6.982   8.225   4.888 -1.1203  0.0769 -0.2795
   75MOL0     O 9815   7.047   7.890   5.002 -0.1487 -0.2646  0.8104
   75MOL0     C 9816   7.373   8.013   5.107  0.0493 -0.0868  0.2229
   75MOL0     C 9817   7.499   7.972   5.152  0.5874 -1.2593  0.3312
   75MOL0     N 9818   7.991   7.637   4.870 -0.5897 -0.2658 -0.4168
   75MOL0     N 9819   8.076   7.708   4.810 -0.3644 -1.3772  0.0167
   75MOL0     C 9820   9.263   8.024   4.298  0.1242 -0.8710 -0.2063
   75MOL0     C 9821   9.360   8.052   4.215 -0.1730  0.0918 -0.6365
   75MOL0     C 9822   9.716   8.170   3.998 -0.0256 -0.6058 -0.0073
   75MOL0     C 9823   9.788   8.063   3.947  1.1276  0.3687 -0.5325
   75MOL0     C 9824   9.917   8.090   3.909  0.6170  0.2610  0.2750
   75MOL0     C 9825   9.974   8.214   3.922 -0.0061 -0.0891 -0.8698
   75MOL0     O 9826  10.105   8.250   3.895  0.3461  0.5903  0.6557
   75MOL0     C 9827  10.204   8.163   3.960  0.5273  0.0271 -0.5147
   75MOL0     C 9828  10.331   8.234   3.965  0.1399 -0.2788  0.7002
   75MOL0     C 9829  10.351   8.295   4.103 -0.4539  0.0635  0.4846
   75MOL0     C 9830  10.256   8.399   4.157  0.2772  0.6934  0.3547
   75MOL0     C 9831  10.225   8.504   4.055 -0.6822  0.1321 -0.0126
   75MOL0     C 9832  10.202   8.571   3.956 -0.4052 -0.8654  0.4554
   75MOL0     C 9833   9.899   8.325   3.962  0.5494 -0.1668 -0.0209
   75MOL0     C 9834   9.767   8.299   4.004  0.7552 -0.1670 -0.8367
   75MOL0     H 9835   9.363   8.392   4.243  0.0043 -0.7064  0.3965
   75MOL0     H 9836   9.142   8.332   4.368 -0.9079 -0.1860 -0.3360
   75MOL0     H 9837   9.033   7.903   4.498  3.3313  0.2024 -2.5260
   75MOL0     H 9838   8.989   7.959   4.333 -0.3684 -1.0669 -0.5999
   75MOL0     H 9839   8.819   8.121   4.432 -0.3054  0.7085  0.0935
   75MOL0     H 9840   8.865   8.057   4.595  0.4249 -0.1335 -0.5952
   75MOL0     H 9841   8.778   7.842   4.567 -1.8008  0.1240 -0.0102
   75MOL0     H 9842   8.743   7.865   4.398  1.7818  0.1548 -0.5453
   75MOL0     H 9843   8.641   8.053   4.620  2.0306 -0.0678  0.4273
   75MOL0     H 9844   8.583   8.046   4.451 -0.0575 -2.0993 -1.4518
   75MOL0     H 9845   8.453   7.823   4.512  0.5428  0.0042 -0.1682
   75MOL0     H 9846   8.418   7.979   4.591  1.6187  1.3523 -0.1172
   75MOL0     H 9847   8.542   7.908   4.793 -0.2164  1.3782  0.5093
   75MOL0     H 9848   8.590   7.761   4.708 -0.4016 -0.5669  1.7566
   75MOL0     H 9849   8.347   7.700   4.694  2.0800 -1.1415  0.5002
   75MOL0     H 9850   8.433   7.683   4.850  1.0151  0.6365 -1.0978
   75MOL0     H 9851   8.257   7.915   4.785 -0.3149 -2.7845 -3.8739
   75MOL0     H 9852   8.338   7.875   4.935  0.0743  0.3240 -0.0221
   75MOL0     H 9853   8.181   7.732   5.116  1.2388 -1.2368  0.1130
   75MOL0     H 9854   8.034   7.535   5.186  0.1229  1.2029  0.8543
   75MOL0     H 9855   7.909   7.478   5.078 -0.0057 -0.5436  1.2076
   75MOL0     H 9856   7.843   7.761   5.127  0.8254 -0.9466 -2.1454
   75MOL0     H 9857   7.923   7.708   5.277  3.7096 -2.9900 -0.1284
   75MOL0     H 9858   7.683   7.581   5.144  4.2697 -1.0119 -1.7625
   75MOL0     H 9859   7.761   7.507   5.280 -0.8508 -1.1728 -0.3352
   75MOL0     H 9860   7.714   7.695   5.417 -0.3102  1.6905 -1.5093
   75MOL0     H 9861   7.565   7.645   5.349  0.3178 -0.4346  2.4274
   75MOL0     H 9862   7.448   7.640   5.170  0.7509  0.4607  0.9062
   75MOL0     H 9863   7.230   7.706   5.080  1.8435 -1.3454  2.1571
   75MOL0     H 9864   6.861   8.032   5.138 -1.5052 -1.3191 -0.2695
   75MOL0     H 9865   6.639   8.116   5.047  0.1878  1.5315  0.8553
   75MOL0     H 9866   6.665   8.475   4.808  0.0297 -0.3410  1.4995
   75MOL0     H 9867   6.606   8.440   4.957  0.8161 -0.8372  0.2770
   75MOL0     H 9868   6.474   8.485   4.697  0.3298  1.9492 -0.3942
   75MOL0     H 9869   6.450   8.580   4.828  2.7314  1.6717 -4.7599
   75MOL0     H 9870   6.317   8.402   4.956 -0.7375  1.0500 -0.3403
   75MOL0     H 9871   6.355   8.292   4.820 -0.1559 -1.2523 -0.1920
   75MOL0     H 9872   6.197   8.537   4.746 -1.6869 -1.2825 -3.7613
   75MOL0     H 9873   6.191   8.380   4.673  0.1182  2.5215 -1.6068
   75MOL0     H 9874   6.078   8.420   4.953  2.7316  0.9165 -0.4003
   75MOL0     H 9875   6.076   8.275   4.852 -0.5651 -0.3592 -0.7112
   75MOL0     H 9876   5.955   8.395   4.670 -3.3065  0.1032 -1.0544
   75MOL0     H 9877   5.952   8.537   4.761  1.7116 -0.9624  0.3095
   75MOL0     H 9878   5.834   8.268   4.831  3.7916  0.4439  1.5174
   75MOL0     H 9879   5.826   8.408   4.949 -2.8678  1.5922 -0.5970
   75MOL0     H 9880   5.703   8.437   4.680  1.1770  1.5372 -0.8222
   75MOL0     H 9881   5.703   8.556   4.806 -1.8649 -0.5664  0.5517
   75MOL0     H 9882   6.869   8.339   4.749  2.3741 -1.3025 -0.6736
   75MOL0     H 9883   7.074   8.266   4.848 -1.9530 -1.5030 -4.3041
   75MOL0     H 9884   7.356   8.120   5.109 -0.7964 -0.2146  0.4087
   75MOL0     H 9885   7.557   8.058   5.185 -3.3553  1.0646  1.8755
   75MOL0     H 9886   9.267   7.917   4.311  0.7718 -0.6010  2.4389
   75MOL0     H 9887   9.436   7.975   4.208 -0.2410 -0.0590  0.1791
   75MOL0     H 9888   9.753   7.960   3.944  1.2598  0.2684  0.7633
   75MOL0     H 9889   9.978   8.006   3.878  0.5756  1.2559 -2.8250
   75MOL0     H 9890  10.213   8.073   3.899  0.4147  0.2836 -0.9092
   75MOL0     H 9891  10.176   8.126   4.060  2.0500 -1.5860 -0.6268
   75MOL0     H 9892  10.416   8.171   3.936  1.0674  0.7968  1.0616
   75MOL0     H 9893  10.336   8.319   3.897 -2.8365  1.6717  2.6786
   75MOL0     H 9894  10.451   8.337   4.090 -1.4167  2.2746 -0.2710
   75MOL0     H 9895  10.348   8.215   4.177 -2.4293  2.4649  3.1949
   75MOL0     H 9896  10.168   8.344   4.190  0.1843 -1.9457 -3.5761
   75MOL0     H 9897  10.313   8.455   4.231  2.8013 -0.6319 -0.4553
   75MOL0     H 9898  10.198   8.641   3.876  1.4828 -0.8408  0.3168
   75MOL0     H 9899   9.936   8.427   3.961 -0.4086  0.2238 -2.4699
   75MOL0     H 9900   9.706   8.385   4.030  2.2988  0.6798  0.1405
   76MOL0     O 9901   1.124   9.337   7.255 -0.8062  0.2308  0.3640
   76MOL0     C 9902   1.135   9.429   7.167  0.4581  0.0204 -0.0080
   76MOL0     O 9903   1.085   9.418   7.041 -0.4145 -0.7367 -0.1946
   76MOL0     C 9904   1.029   9.301   6.999  0.1935 -0.2879 -0.7421
   76MOL0     C 9905   1.093   9.208   6.923  0.2297 -0.4596  0.0662
   76MOL0     C 9906   1.020   9.099   6.867 -0.1071 -0.3564  0.0725
   76MOL0     C 9907   0.880   9.087   6.877  0.2657  0.4909 -0.8005
   76MOL0     O 9908   0.832   8.983   6.788 -0.0590 -0.3810 -0.9734
   76MOL0     C 9909   0.699   8.948   6.811  0.3664 -0.7422  0.6443
   76MOL0     C 9910   0.668   8.872   6.946  1.1348 -0.0283 -0.6906
   76MOL0     C 9911   0.535   8.798   6.929 -0.2236  0.4657 -0.3327
   76MOL0     C 9912   0.506   8.686   7.040 -1.0098 -1.1558 -0.1280
   76MOL0     C 9913   0.378   8.608   7.000  0.1924  0.3366 -0.2148
   76MOL0     C 9914   0.417   8.511   6.890  0.5688  0.4195  0.0785
   76MOL0     C 9915   0.324   8.391   6.891  1.5392 -0.5533  0.2526
   76MOL0     C 9916   0.190   8.419   6.821 -0.5850  0.8828  0.3718
   76MOL0     N 9917   0.098   8.305   6.826  0.0541 -0.4019 -0.1317
   76MOL0     C 9918  -0.034   8.318   6.796  0.2190 -1.1754  0.1869
   76MOL0     C 9919  -0.075   8.192   6.829  0.2003 -0.1847 -0.5104
   76MOL0     C 9920  -0.223   8.156   6.834 -0.2146  0.0296 -0.3467
   76MOL0     C 9921  -0.271   8.112   6.692 -0.1404 -0.0232 -0.0830
   76MOL0     C 9922  -0.424   8.083   6.709 -1.4079 -0.4887  0.6274
   76MOL0     C 9923  -0.494   8.093   6.568 -0.5724  0.6715 -0.3855
   76MOL0     O 9924  -0.602   8.000   6.572  0.0358  0.3733  0.1886
   76MOL0     C 9925  -0.682   7.999   6.459 -0.3585 -0.2400 -0.5096
   76MOL0     C 9926  -0.639   8.046   6.333  0.2057 -0.3717 -0.2640
   76MOL0     C 9927  -0.721   8.012   6.217 -0.7280 -0.1640  0.6806
   76MOL0     C 9928  -0.844   7.951   6.230 -0.0851  0.2554  0.7108
   76MOL0     C 9929  -0.934   7.928   6.113 -0.8432 -0.5727 -0.4031
   76MOL0     O 9930  -0.887   7.957   5.993  0.6060  0.2128 -0.2031
   76MOL0     C 9931  -0.966   7.960   5.881 -0.1685  0.3183 -0.0169
   76MOL0     C 9932  -0.904   7.916   5.771  0.3327  0.6793 -0.5988
   76MOL0     C 9933  -0.959   7.923   5.646  0.3325  0.4448 -0.5156
   76MOL0     C 9934  -1.089   7.978   5.630  0.0440  0.3959  0.2826
   76MOL0     O 9935  -1.160   7.985   5.514 -0.2318 -1.0687 -1.1497
   76MOL0     C 9936  -1.143   7.889   5.420 -0.3031 -0.0872  0.1160
   76MOL0     C 9937  -1.224   7.900   5.291 -0.5275 -0.2284 -0.7092
   76MOL0     C 9938  -1.369   7.946   5.316 -0.3904 -0.3241 -0.2618
   76MOL0     C 9939  -1.417   8.018   5.197  0.4745 -0.3716  0.0697
   76MOL0     C 9940  -1.543   8.110   5.245 -0.7274 -0.2257  1.0137
   76MOL0     C 9941  -1.575   8.225   5.140  0.0010 -0.6556 -0.2352
   76MOL0     C 9942  -1.694   8.315   5.198 -0.9151  0.6136 -0.5019
   76MOL0     C 9943  -1.766   8.402   5.092 -0.4381  0.8494  0.8220
   76MOL0    Cl 9944  -1.919   8.468   5.152  0.0317  0.1479 -0.2271
   76MOL0     C 9945  -1.151   8.032   5.741  0.4730  0.0255 -1.0615
   76MOL0     C 9946  -1.094   8.021   5.868  0.4287  0.1400 -0.1815
   76MOL0     O 9947  -1.041   7.888   6.147 -0.2299  0.4546  0.5610
   76MOL0     C 9948  -0.880   7.905   6.356 -0.0832 -0.1367 -0.5574
   76MOL0     C 9949  -0.799   7.931   6.466  0.3383  0.7012 -0.5408
   76MOL0     N 9950   0.024   8.109   6.874 -0.8675  0.2816  0.2010
   76MOL0     N 9951   0.132   8.176   6.859 -0.5578  1.5355  0.6735
   76MOL0     C 9952   0.814   9.176   6.966 -0.8661  0.5783 -0.3873
   76MOL0     C 9953   0.887   9.284   7.025 -0.2413  0.5411  0.1429
   76MOL0     C 9954   1.213   9.552   7.196 -0.6249 -0.4723 -0.2764
   76MOL0     C 9955   1.221   9.600   7.325  0.1627 -0.0155  0.4821
   76MOL0     C 9956   1.292   9.714   7.354  0.7853 -0.1078  0.2866
   76MOL0     C 9957   1.360   9.792   7.258 -0.3829  0.1928  0.0796
   76MOL0     O 9958   1.440   9.893   7.304  0.4034 -0.3196 -0.3067
   76MOL0     C 9959   1.500   9.978   7.207  0.6143 -0.3385 -0.8781
   76MOL0     C 9960   1.597  10.071   7.283  0.2596  0.5793 -0.2714
   76MOL0     C 9961   1.655  10.183   7.201 -0.0744 -0.7306 -0.7524
   76MOL0     C 9962   1.744  10.274   7.289  0.5196 -0.7572 -0.3377
   76MOL0     C 9963   1.685  10.374   7.391  0.1921 -0.8063  0.0035
   76MOL0     C 9964   1.638  10.462   7.465 -0.5179 -0.5642  0.2954
   76MOL0     C 9965   1.356   9.741   7.128 -0.3905 -0.3412  0.8527
   76MOL0     C 9966   1.278   9.630   7.098  0.5756  0.1867  0.6886
   76MOL0     H 9967   1.199   9.228   6.922  0.3259 -0.9748 -0.0470
   76MOL0     H 9968   1.076   9.025   6.810  1.1405 -0.4716  1.3783
   76MOL0     H 9969   0.669   8.877   6.733 -0.8398  0.3664  0.0595
   76MOL0     H 9970   0.635   9.035   6.793 -0.3265 -1.7171 -2.1537
   76MOL0     H 9971   0.654   8.942   7.029 -2.4506 -1.1081 -0.2446
   76MOL0     H 9972   0.742   8.794   6.965 -1.2898 -2.0980  0.8859
   76MOL0     H 9973   0.520   8.749   6.832  2.1620  0.1029 -0.5984
   76MOL0     H 9974   0.458   8.875   6.934  2.3773  3.2122  0.4147
   76MOL0     H 9975   0.590   8.617   7.051  0.1903  0.1436 -0.8648
   76MOL0     H 9976   0.496   8.745   7.132 -3.0571 -0.4337 -0.7677
   76MOL0     H 9977   0.293   8.673   6.977 -0.0777  0.7908  1.8355
   76MOL0     H 9978   0.347   8.546   7.085 -2.1526 -0.3677 -1.5060
   76MOL0     H 9979   0.513   8.461   6.907  0.1464  0.0205  1.4760
   76MOL0     H 9980   0.424   8.559   6.792 -0.2535 -0.0893 -0.2322
   76MOL0     H 9981   0.365   8.312   6.828  1.3397 -1.1167  0.8280
   76MOL0     H 9982   0.299   8.360   6.992 -3.3998  3.1172  0.5543
   76MOL0     H 9983   0.199   8.453   6.718 -0.2243 -0.0457  0.0835
   76MOL0     H 9984   0.152   8.510   6.869 -0.8466  0.4451  1.0088
   76MOL0     H 9985  -0.085   8.409   6.764  3.0397  0.1533 -0.8277
   76MOL0     H 9986  -0.284   8.235   6.879 -0.7802 -1.7764  2.2847
   76MOL0     H 9987  -0.240   8.070   6.899  1.0013 -1.7031 -2.1959
   76MOL0     H 9988  -0.217   8.020   6.668 -1.0588 -0.7454  0.5515
   76MOL0     H 9989  -0.238   8.183   6.615 -1.2751  1.0111  0.3486
   76MOL0     H 9990  -0.434   7.982   6.752  0.1611 -2.7570 -3.6833
   76MOL0     H 9991  -0.476   8.144   6.784 -0.6565 -0.8940  1.5090
   76MOL0     H 9992  -0.427   8.062   6.487 -0.2718 -1.8540  0.7298
   76MOL0     H 9993  -0.544   8.188   6.545 -0.3448  0.9458  0.2351
   76MOL0     H 9994  -0.547   8.103   6.331 -1.1896  2.0979  0.4049
   76MOL0     H 9995  -0.679   8.034   6.119 -1.7274  1.1131  0.5063
   76MOL0     H 9996  -0.815   7.861   5.800 -0.0724  1.0907  1.6222
   76MOL0     H 9997  -0.895   7.891   5.565  1.0416 -1.0923  0.6073
   76MOL0     H 9998  -1.165   7.789   5.460  3.4610 -0.9362  0.3958
   76MOL0     H 9999  -1.037   7.893   5.392 -0.2959  1.3116  0.2855
   76MOL0     H10000  -1.239   7.800   5.250 -1.0462  0.9474 -3.5884
   76MOL0     H10001  -1.166   7.950   5.213 -2.6129  0.6522 -1.7876
   76MOL0     H10002  -1.372   8.012   5.403 -2.7959 -0.6923  0.0087
   76MOL0     H10003  -1.427   7.858   5.346 -1.7963  0.8926  0.7240
   76MOL0     H10004  -1.337   8.082   5.159  1.6011 -0.8830  1.4981
   76MOL0     H10005  -1.438   7.952   5.113  1.3795  1.9264 -2.1114
   76MOL0     H10006  -1.520   8.154   5.342 -1.5371  1.3116  0.5483
   76MOL0     H10007  -1.629   8.047   5.267 -0.4954 -0.5786  0.9133
   76MOL0     H10008  -1.599   8.181   5.043  2.5564 -0.7498 -0.9049
   76MOL0     H10009  -1.487   8.286   5.120 -0.7301  0.9141  1.0502
   76MOL0     H10010  -1.764   8.248   5.249 -0.1198  0.5571  0.5610
   76MOL0     H10011  -1.657   8.380   5.278  1.1907 -2.6773  1.4333
   76MOL0     H10012  -1.796   8.339   5.009 -2.4311 -1.2560  2.9957
   76MOL0     H10013  -1.703   8.484   5.056  0.2333  0.4467  1.0629
   76MOL0     H10014  -1.253   8.068   5.733  0.4437  0.3508  0.4570
   76MOL0     H10015  -1.149   8.061   5.953  1.7049  0.5489  0.4896
   76MOL0     H10016  -0.969   7.845   6.375  0.5370 -1.0570 -0.4534
   76MOL0     H10017  -0.847   7.890   6.555 -0.2623 -0.5083 -1.4056
   76MOL0     H10018   0.706   9.173   6.967 -0.9020  1.3114 -1.0068
   76MOL0     H10019   0.836   9.362   7.081 -0.0054  1.7987 -1.3235
   76MOL0     H10020   1.162   9.547   7.399 -1.7796  1.8136  0.3378
   76MOL0     H10021   1.286   9.760   7.452 -2.9086  1.2863 -0.4563
   76MOL0     H10022   1.431  10.040   7.149  0.5185 -1.2678 -1.7793
   76MOL0     H10023   1.550   9.917   7.131 -1.6487 -2.3135 -0.8987
   76MOL0     H10024   1.559  10.104   7.379 -0.4125  1.7044 -0.9007
   76MOL0     H10025   1.682  10.005   7.306 -0.7926 -1.2148 -1.2769
   76MOL0     H10026   1.577  10.246   7.158 -0.0623 -1.6030 -2.1069
   76MOL0     H10027   1.716  10.154   7.115 -0.4076 -1.8419 -0.6336
   76MOL0     H10028   1.817  10.206   7.334  1.3233 -0.8247 -1.6671
   76MOL0     H10029   1.807  10.333   7.221  0.4289 -0.1498  0.0968
   76MOL0     H10030   1.585  10.536   7.521 -1.3160 -0.3596 -0.7023
   76MOL0     H10031   1.419   9.778   7.048  1.4814 -0.6141  2.1352
   76MOL0     H10032   1.279   9.588   6.997 -0.0634  1.9675 -0.0925
   77MOL0     O10033   2.949   3.501   4.792  0.7112 -0.1867  0.6125
   77MOL0     C10034   2.978   3.386   4.771 -0.0976  0.5805  0.3908
   77MOL0     O10035   2.889   3.278   4.769  0.3322 -0.1820 -0.1962
   77MOL0     C10036   2.764   3.290   4.813  0.8973  0.6458 -0.6428
   77MOL0     C10037   2.703   3.389   4.888  0.4584 -0.9380  0.0128
   77MOL0     C10038   2.572   3.364   4.934  0.2149  0.6629 -0.3253
   77MOL0     C10039   2.499   3.243   4.899  0.2097 -0.2137 -1.0029
   77MOL0     O10040   2.373   3.233   4.953  0.4976  0.5849 -0.6689
   77MOL0     C10041   2.282   3.151   4.880 -0.1692 -0.0974 -0.1926
   77MOL0     C10042   2.149   3.149   4.949 -0.3389 -0.1981 -0.3109
   77MOL0     C10043   2.028   3.189   4.863  0.4405  0.1863 -0.2882
   77MOL0     C10044   1.901   3.181   4.949  0.1877 -0.1343  1.0448
   77MOL0     C10045   1.784   3.258   4.883  0.2970 -0.1270 -0.0184
   77MOL0     C10046   1.656   3.251   4.963  0.1192 -0.0152  0.2565
   77MOL0     C10047   1.558   3.363   4.918  1.2546 -0.6275 -0.0402
   77MOL0     C10048   1.422   3.359   4.999 -0.2295 -0.3260 -0.9180
   77MOL0     N10049   1.323   3.442   4.934 -1.7888  1.0027  0.1446
   77MOL0     C10050   1.287   3.452   4.806  0.1433 -0.4489  0.0836
   77MOL0     C10051   1.190   3.541   4.804  0.1160  0.1044  0.2543
   77MOL0     C10052   1.134   3.600   4.677 -0.9100  0.2806  0.5433
   77MOL0     C10053   0.992   3.546   4.667  0.4351 -0.5708 -0.4617
   77MOL0     C10054   0.901   3.610   4.564  1.0187 -0.4612  0.8597
   77MOL0     C10055   0.879   3.761   4.571  0.4654  0.4971 -0.6460
   77MOL0     O10056   0.833   3.807   4.696  0.5502 -0.3209  0.2653
   77MOL0     C10057   0.702   3.825   4.700 -0.8460  0.0508 -0.0533
   77MOL0     C10058   0.597   3.758   4.638  0.4493  0.2009 -0.4110
   77MOL0     C10059   0.461   3.779   4.674  0.3045 -0.1884  1.2198
   77MOL0     C10060   0.434   3.872   4.768  0.0196  0.5289 -0.0796
   77MOL0     C10061   0.300   3.914   4.813  0.0967  0.2947  0.4721
   77MOL0     O10062   0.197   3.888   4.730  0.2358 -0.0701  0.5135
   77MOL0     C10063   0.066   3.920   4.754 -0.1793 -1.1173 -0.4574
   77MOL0     C10064   0.026   4.043   4.807 -0.3398  0.1943  0.2731
   77MOL0     C10065  -0.117   4.066   4.824 -0.2772 -0.1809  0.0380
   77MOL0     C10066  -0.214   3.965   4.793  0.1531 -0.6904  0.3677
   77MOL0     O10067  -0.351   3.987   4.815 -0.0348  0.4663 -0.0849
   77MOL0     C10068  -0.398   4.109   4.880  0.8433  0.2477 -0.2276
   77MOL0     C10069  -0.548   4.109   4.843 -1.1699 -0.0697 -1.1233
   77MOL0     C10070  -0.628   4.212   4.919 -0.5378  0.0034 -0.1356
   77MOL0     C10071  -0.765   4.219   4.856  0.0593  0.5694 -0.5947
   77MOL0     C10072  -0.872   4.287   4.955 -0.5129  0.6289 -0.4105
   77MOL0     C10073  -1.010   4.313   4.883 -0.2091  0.7801 -0.7837
   77MOL0     C10074  -1.126   4.293   4.985  0.1944  0.4842  0.6103
   77MOL0     C10075  -1.263   4.320   4.915  0.1938 -0.0521  0.1422
   77MOL0    Cl10076  -1.281   4.227   4.764 -0.6700  0.3941  0.0030
   77MOL0     C10077  -0.171   3.849   4.736 -0.0182 -0.2816 -0.2542
   77MOL0     C10078  -0.037   3.828   4.720 -0.2069 -0.3293 -0.3682
   77MOL0     O10079   0.285   3.976   4.911  0.3991  0.5779  0.0636
   77MOL0     C10080   0.538   3.940   4.830  0.1493  0.3024 -0.6161
   77MOL0     C10081   0.663   3.920   4.793  0.1505 -0.4264 -0.3850
   77MOL0     N10082   1.162   3.583   4.934  0.5750  0.0294  0.4244
   77MOL0     N10083   1.233   3.517   5.012  0.5551  0.4165  0.0515
   77MOL0     C10084   2.567   3.148   4.810  0.0400 -0.4167 -0.2883
   77MOL0     C10085   2.699   3.172   4.773 -0.1763 -0.2885  1.1029
   77MOL0     C10086   3.129   3.349   4.768  0.2750 -0.1041 -0.0825
   77MOL0     C10087   3.224   3.445   4.730 -0.0078  0.5296 -0.1463
   77MOL0     C10088   3.359   3.409   4.731  0.2347  0.3714  0.5982
   77MOL0     C10089   3.402   3.278   4.775  0.5042  0.2362 -0.2939
   77MOL0     O10090   3.537   3.237   4.791  0.0455  0.3553 -0.1414
   77MOL0     C10091   3.636   3.336   4.816 -0.9635 -0.7863 -0.4686
   77MOL0     C10092   3.752   3.341   4.703 -0.0023  0.0712  0.5875
   77MOL0     C10093   3.885   3.295   4.763 -0.1902  0.6242  0.0529
   77MOL0     C10094   3.990   3.337   4.669  0.4947 -0.5240 -0.5941
   77MOL0     C10095   4.022   3.481   4.673 -0.3045  0.0361  0.6864
   77MOL0     C10096   4.039   3.602   4.683  0.3487 -0.2389 -0.1642
   77MOL0     C10097   3.300   3.185   4.802 -0.6367  0.5226 -0.0806
   77MOL0     C10098   3.168   3.229   4.825  0.4842  0.5443  0.2611
   77MOL0     H10099   2.757   3.477   4.923  1.1806 -1.8435  1.2390
   77MOL0     H10100   2.532   3.441   4.999  1.1574  1.6427 -0.8849
   77MOL0     H10101   2.324   3.050   4.882  0.2715  0.0784  2.4347
   77MOL0     H10102   2.266   3.188   4.778 -1.7362  0.6799  0.2977
   77MOL0     H10103   2.150   3.215   5.036 -3.3260  0.8042 -0.9069
   77MOL0     H10104   2.139   3.048   4.990  0.7491  0.6402  2.1718
   77MOL0     H10105   2.017   3.129   4.772  2.7126 -0.1774 -0.3856
   77MOL0     H10106   2.032   3.292   4.826 -2.6807  0.5020 -0.0618
   77MOL0     H10107   1.867   3.080   4.973  0.8439 -0.1347  2.0486
   77MOL0     H10108   1.925   3.232   5.042  0.5615 -0.5420  1.1736
   77MOL0     H10109   1.773   3.207   4.787  3.9284  0.3765 -0.8741
   77MOL0     H10110   1.820   3.360   4.866 -0.8452  0.2183 -0.4195
   77MOL0     H10111   1.680   3.257   5.070 -0.5761 -0.0792  0.4224
   77MOL0     H10112   1.605   3.156   4.941 -0.9011  0.6473 -0.3162
   77MOL0     H10113   1.612   3.457   4.932  0.2674  0.2129 -1.6682
   77MOL0     H10114   1.538   3.344   4.812  0.7591 -0.8775  0.0929
   77MOL0     H10115   1.436   3.399   5.100 -2.2673 -1.8417  0.0357
   77MOL0     H10116   1.378   3.260   5.008  0.4176 -0.4653  1.2245
   77MOL0     H10117   1.324   3.397   4.720 -1.4669 -0.3946 -0.6802
   77MOL0     H10118   1.196   3.579   4.589  1.8548  1.5785  2.0474
   77MOL0     H10119   1.126   3.707   4.695 -0.4100  0.1845  1.3921
   77MOL0     H10120   0.932   3.540   4.758  2.7349 -3.5557  1.0494
   77MOL0     H10121   1.011   3.440   4.647  4.0976  0.1723 -1.6376
   77MOL0     H10122   0.943   3.593   4.465 -1.7249 -2.3491 -0.0884
   77MOL0     H10123   0.803   3.561   4.563 -1.0297  3.1917  1.3262
   77MOL0     H10124   0.815   3.796   4.489 -0.9461  3.0966  1.4024
   77MOL0     H10125   0.972   3.815   4.553  0.7482 -0.2997 -1.6863
   77MOL0     H10126   0.617   3.684   4.561 -1.2948  0.0176 -0.7260
   77MOL0     H10127   0.373   3.745   4.620  0.6522  2.4624 -1.3425
   77MOL0     H10128   0.098   4.122   4.827  1.3029  0.1331 -4.2974
   77MOL0     H10129  -0.155   4.154   4.875 -1.8539 -1.6050  1.4294
   77MOL0     H10130  -0.355   4.201   4.842  2.8209 -0.3355  0.4393
   77MOL0     H10131  -0.392   4.095   4.989 -1.3199  0.9036  0.0148
   77MOL0     H10132  -0.579   4.011   4.882  0.8894 -0.0081  0.8979
   77MOL0     H10133  -0.541   4.113   4.734  1.5119 -0.1385 -1.0192
   77MOL0     H10134  -0.586   4.313   4.926  0.5549 -0.5393  2.0256
   77MOL0     H10135  -0.636   4.180   5.023  1.5386  0.6751  0.2800
   77MOL0     H10136  -0.746   4.282   4.768  1.4435  0.5467 -0.3437
   77MOL0     H10137  -0.805   4.125   4.817  2.4376  0.0641 -2.0349
   77MOL0     H10138  -0.838   4.388   4.980 -0.5580  1.5630 -3.7050
   77MOL0     H10139  -0.884   4.228   5.047 -0.3842 -0.3701 -1.0230
   77MOL0     H10140  -1.016   4.238   4.804  1.5179 -1.4245  1.0170
   77MOL0     H10141  -1.007   4.415   4.844 -0.5201  2.1061  2.3260
   77MOL0     H10142  -1.121   4.191   5.023  0.2303  0.0503 -0.5231
   77MOL0     H10143  -1.120   4.359   5.072  1.3900 -2.0211  2.5727
   77MOL0     H10144  -1.275   4.428   4.903  1.3947  0.2642  1.5938
   77MOL0     H10145  -1.350   4.300   4.979 -1.2131  2.1534 -0.9516
   77MOL0     H10146  -0.241   3.771   4.708  0.2456 -0.2499 -1.0248
   77MOL0     H10147  -0.006   3.736   4.670 -2.3009 -0.5566 -1.3323
   77MOL0     H10148   0.523   4.022   4.899  0.3520 -1.5617  1.7809
   77MOL0     H10149   0.738   3.980   4.843 -1.3684  2.8012 -1.7313
   77MOL0     H10150   2.516   3.055   4.788 -3.0225  0.8589  0.9752
   77MOL0     H10151   2.759   3.109   4.709  0.5794  1.7755 -0.3445
   77MOL0     H10152   3.192   3.539   4.685  1.8686  2.8289  2.9090
   77MOL0     H10153   3.435   3.478   4.697 -0.7901  1.7464  0.9705
   77MOL0     H10154   3.676   3.321   4.917 -3.5452  1.8997  1.1379
   77MOL0     H10155   3.593   3.436   4.826  0.1070 -0.4096  0.7630
   77MOL0     H10156   3.721   3.280   4.618  0.0790 -1.5730  1.6831
   77MOL0     H10157   3.748   3.444   4.668  1.1165  0.0122  0.2387
   77MOL0     H10158   3.880   3.188   4.781 -4.0784  0.6439 -0.1748
   77MOL0     H10159   3.901   3.340   4.861  0.5999 -1.3012  0.8379
   77MOL0     H10160   4.075   3.275   4.700 -0.4488 -0.8305  1.5421
   77MOL0     H10161   3.969   3.313   4.565  2.6826  0.1872 -1.2658
   77MOL0     H10162   4.072   3.703   4.687  1.0896 -0.4418 -0.9706
   77MOL0     H10163   3.329   3.083   4.827  1.0655  0.7550 -0.9249
   77MOL0     H10164   3.099   3.152   4.859  1.1773  0.2869  1.1305
   78MOL0     O10165   2.252   7.293   9.976  0.2486  0.4952 -0.0963
   78MOL0     C10166   2.324   7.202  10.017 -0.0108  0.1759  1.0501
   78MOL0     O10167   2.289   7.066  10.033 -0.9119 -0.3771 -1.1675
   78MOL0     C10168   2.164   7.025   9.997 -1.0380 -0.1623  0.1586
   78MOL0     C10169   2.109   6.916  10.071  0.0261 -0.0595 -0.2205
   78MOL0     C10170   1.979   6.873  10.059 -0.1191 -0.3973  0.2140
   78MOL0     C10171   1.892   6.941   9.976 -0.3611 -0.5401  0.0470
   78MOL0     O10172   1.763   6.905   9.982 -0.7554 -0.2564  0.3676
   78MOL0     C10173   1.680   7.013  10.048  0.0780  0.0482 -0.7951
   78MOL0     C10174   1.574   6.949  10.144  0.0184  0.2096  0.2032
   78MOL0     C10175   1.481   7.049  10.186 -0.9638 -0.0457  0.7653
   78MOL0     C10176   1.389   7.077  10.071  0.9428 -0.0485  0.5349
   78MOL0     C10177   1.282   7.171  10.134 -0.1636 -0.0651 -0.3503
   78MOL0     C10178   1.180   7.210  10.032  0.1125 -0.7098  0.1949
   78MOL0     C10179   1.245   7.307   9.918 -0.0757  0.7591 -0.0193
   78MOL0     C10180   1.128   7.345   9.824  0.4432  0.4745  0.5642
   78MOL0     N10181   1.165   7.462   9.749 -0.2047  0.1177 -0.5827
   78MOL0     C10182   1.228   7.452   9.629  0.2972  0.2730  0.1189
   78MOL0     C10183   1.253   7.579   9.593 -0.7365 -0.2017 -0.6711
   78MOL0     C10184   1.344   7.613   9.481  0.9646  0.5087  0.3967
   78MOL0     C10185   1.282   7.596   9.338 -0.4454 -0.9279 -0.1711
   78MOL0     C10186   1.230   7.719   9.259 -0.5509  0.3634 -0.2926
   78MOL0     C10187   1.116   7.790   9.335 -0.2446 -0.9930  0.2525
   78MOL0     O10188   0.995   7.723   9.320 -0.5752 -0.2901 -0.2313
   78MOL0     C10189   0.957   7.659   9.433  0.3621 -0.7513 -0.0507
   78MOL0     C10190   0.926   7.725   9.549 -0.5557 -0.4634  0.0632
   78MOL0     C10191   0.864   7.651   9.650 -0.1746  0.4114  0.3431
   78MOL0     C10192   0.846   7.515   9.641 -0.2158  0.1362  0.2516
   78MOL0     C10193   0.810   7.441   9.757  0.5635 -0.1990 -0.4830
   78MOL0     O10194   0.776   7.514   9.868 -0.2489  0.2105  0.0147
   78MOL0     C10195   0.732   7.438   9.971 -0.0373 -0.4036 -0.9140
   78MOL0     C10196   0.600   7.389   9.981  0.1379 -0.4677  0.6424
   78MOL0     C10197   0.559   7.322  10.093  1.2080  0.0768  0.1854
   78MOL0     C10198   0.650   7.285  10.198 -0.2938  0.4477  0.0719
   78MOL0     O10199   0.596   7.218  10.303  0.5798 -0.5728 -0.8166
   78MOL0     C10200   0.617   7.293  10.431 -0.2598 -0.3397 -0.0055
   78MOL0     C10201   0.490   7.285  10.520  0.4753 -0.0715 -0.5943
   78MOL0     C10202   0.403   7.151  10.519  1.1637  0.5487 -0.1072
   78MOL0     C10203   0.279   7.179  10.618 -0.6993 -0.5989  0.6050
   78MOL0     C10204   0.234   7.057  10.689 -0.4566 -0.0471 -0.0505
   78MOL0     C10205   0.171   6.941  10.601 -0.0011 -0.2286 -0.3326
   78MOL0     C10206   0.047   6.981  10.525  0.2645 -0.1582  0.1425
   78MOL0     C10207  -0.063   7.056  10.611  0.6716 -0.8111 -0.2291
   78MOL0    Cl10208  -0.088   6.972  10.765 -0.4878  0.3635 -0.3380
   78MOL0     C10209   0.779   7.340  10.196  0.5460 -0.3766 -0.8659
   78MOL0     C10210   0.820   7.413  10.087 -0.0029 -0.2383  0.0071
   78MOL0     O10211   0.780   7.320   9.746  0.2127  0.5393  0.1830
   78MOL0     C10212   0.867   7.454   9.516  0.3542  0.9107 -0.1032
   78MOL0     C10213   0.906   7.526   9.408 -0.5320  0.1809 -0.1111
   78MOL0     N10214   1.218   7.664   9.701 -0.9543  0.4779  0.0294
   78MOL0     N10215   1.169   7.590   9.796 -0.3984 -0.1240  0.4406
   78MOL0     C10216   1.943   7.041   9.894  0.5910  0.2562  0.2848
   78MOL0     C10217   2.087   7.080   9.895  0.1294  0.0158 -0.0794
   78MOL0     C10218   2.462   7.238  10.050 -0.1828  0.5272  0.1074
   78MOL0     C10219   2.570   7.151  10.017  0.7191  0.4441 -0.5764
   78MOL0     C10220   2.704   7.187  10.047  1.1155  0.5925 -0.1409
   78MOL0     C10221   2.727   7.319  10.086 -0.4562 -1.1613  0.3567
   78MOL0     O10222   2.856   7.357  10.103 -0.0083 -0.0394  0.2223
   78MOL0     C10223   2.942   7.375   9.983  1.0347  0.1315 -0.0572
   78MOL0     C10224   3.086   7.358  10.027  0.5050  0.2655 -0.8186
   78MOL0     C10225   3.122   7.443  10.150  0.2627 -0.3412 -0.1828
   78MOL0     C10226   3.270   7.454  10.187  0.7709 -0.1248 -0.7860
   78MOL0     C10227   3.325   7.322  10.218 -0.0074  1.3018  0.2516
   78MOL0     C10228   3.375   7.216  10.254 -0.5309 -0.4463 -0.0256
   78MOL0     C10229   2.628   7.394  10.143 -0.6904 -0.6570  0.1047
   78MOL0     C10230   2.497   7.357  10.119  0.2520  0.7885  0.1571
   78MOL0     H10231   2.176   6.862  10.138 -0.0645  0.9702  0.7368
   78MOL0     H10232   1.942   6.797  10.127 -2.2633 -0.2763 -0.7332
   78MOL0     H10233   1.640   7.062   9.959  1.1327 -1.7751 -2.3568
   78MOL0     H10234   1.720   7.092  10.111 -4.7462  2.2208  0.0469
   78MOL0     H10235   1.631   6.918  10.232 -0.4879 -0.4911  0.2938
   78MOL0     H10236   1.526   6.857  10.109  0.5452  0.0432 -0.0875
   78MOL0     H10237   1.529   7.143  10.212 -0.7225 -0.4596  1.8686
   78MOL0     H10238   1.421   7.018  10.272 -1.1102  0.3880  0.8216
   78MOL0     H10239   1.441   7.124   9.987  0.8674  1.3028  1.2051
   78MOL0     H10240   1.338   6.992  10.026  3.1068 -1.6723  0.9925
   78MOL0     H10241   1.325   7.262  10.177  0.0113  0.3413 -1.3503
   78MOL0     H10242   1.218   7.122  10.207 -2.2981  2.1959 -0.5724
   78MOL0     H10243   1.114   7.273  10.092  0.5255 -0.6042  0.5481
   78MOL0     H10244   1.134   7.125   9.981  0.0123 -0.3097 -0.3975
   78MOL0     H10245   1.301   7.390   9.962  1.0511  0.2156 -0.4107
   78MOL0     H10246   1.320   7.253   9.861  2.2884  2.7484  1.0195
   78MOL0     H10247   1.048   7.366   9.896 -0.4491 -1.3682  0.1633
   78MOL0     H10248   1.099   7.262   9.759  2.1843  1.0318 -0.9944
   78MOL0     H10249   1.266   7.361   9.585  0.0086  0.9894 -1.6663
   78MOL0     H10250   1.437   7.556   9.488  0.1394 -1.3173 -1.9988
   78MOL0     H10251   1.381   7.715   9.494  0.7444  0.5930  0.3804
   78MOL0     H10252   1.199   7.526   9.355  0.3181 -1.3395  2.1906
   78MOL0     H10253   1.362   7.550   9.280 -0.2486 -3.1547  1.7176
   78MOL0     H10254   1.321   7.778   9.245  0.2015 -0.7036 -0.0406
   78MOL0     H10255   1.198   7.686   9.160 -1.3639  0.6482 -0.1292
   78MOL0     H10256   1.096   7.892   9.302 -0.0226  0.4455  4.0192
   78MOL0     H10257   1.133   7.806   9.442 -2.4624  2.4906  0.2473
   78MOL0     H10258   0.933   7.833   9.562 -0.2415 -0.5204  0.4093
   78MOL0     H10259   0.833   7.712   9.734 -3.7367  3.3910 -2.8008
   78MOL0     H10260   0.536   7.415   9.898 -0.2027 -0.8762  0.7723
   78MOL0     H10261   0.456   7.290  10.099  0.6482  1.5442 -1.0067
   78MOL0     H10262   0.648   7.397  10.416 -1.0804 -0.4402 -3.3773
   78MOL0     H10263   0.697   7.235  10.478  0.5928  1.8324  1.3564
   78MOL0     H10264   0.411   7.353  10.487  0.1331 -0.9159 -1.5366
   78MOL0     H10265   0.511   7.303  10.626 -1.3334 -0.7055 -0.0965
   78MOL0     H10266   0.473   7.078  10.561  0.7206  0.8754  1.2342
   78MOL0     H10267   0.370   7.123  10.418  1.9304 -0.8647 -0.0042
   78MOL0     H10268   0.320   7.245  10.694  2.1540 -1.5406 -0.0187
   78MOL0     H10269   0.205   7.221  10.549  0.0760 -0.6149 -0.2463
   78MOL0     H10270   0.173   7.086  10.775  2.2024  1.9183  1.3115
   78MOL0     H10271   0.324   7.011  10.732 -0.1448  0.3152 -0.3116
   78MOL0     H10272   0.164   6.847  10.658  1.8840  0.2491  0.7887
   78MOL0     H10273   0.242   6.915  10.522 -0.5438 -1.8593 -0.3254
   78MOL0     H10274   0.066   7.051  10.444 -0.3817 -1.9606 -1.6646
   78MOL0     H10275   0.010   6.894  10.470  1.8322 -0.4566 -0.4701
   78MOL0     H10276  -0.163   7.059  10.566  0.9303  0.0923 -0.7569
   78MOL0     H10277  -0.025   7.155  10.635 -1.4743 -0.6975  3.4351
   78MOL0     H10278   0.843   7.329  10.284  0.2916 -1.3143 -0.7858
   78MOL0     H10279   0.917   7.459  10.068 -0.4690 -0.5325 -3.9709
   78MOL0     H10280   0.852   7.348   9.498  0.8021  1.2712 -3.0711
   78MOL0     H10281   0.918   7.474   9.313  0.9660 -0.1324  0.2264
   78MOL0     H10282   1.872   7.081   9.822  0.3401 -1.6821 -0.6111
   78MOL0     H10283   2.125   7.152   9.823  0.0733 -2.0885 -2.3343
   78MOL0     H10284   2.554   7.045   9.996  1.8820 -1.0264  4.6195
   78MOL0     H10285   2.785   7.120  10.022  0.3834 -0.4667  0.2522
   78MOL0     H10286   2.929   7.474   9.939  3.7299  1.3014  1.5294
   78MOL0     H10287   2.906   7.305   9.906  2.9619 -0.3957 -0.5337
   78MOL0     H10288   3.098   7.260  10.074  1.0168 -0.1272 -1.7479
   78MOL0     H10289   3.158   7.369   9.945  1.4338 -1.3720 -0.2676
   78MOL0     H10290   3.061   7.401  10.231 -2.0521 -0.9076 -2.0990
   78MOL0     H10291   3.092   7.548  10.149 -2.6910 -1.0758  0.0318
   78MOL0     H10292   3.316   7.496  10.097  0.5965 -0.3135 -0.9667
   78MOL0     H10293   3.285   7.519  10.273 -1.8071  0.1092 -0.4332
   78MOL0     H10294   3.405   7.125  10.301  1.5062  0.5557  0.7664
   78MOL0     H10295   2.646   7.486  10.197 -1.3235  1.2831 -2.7405
   78MOL0     H10296   2.423   7.418  10.169 -0.7813 -0.5821  0.3622
   79MOL0     O10297   8.650   8.700   5.164 -0.1203  0.0222 -0.5076
   79MOL0     C10298   8.658   8.689   5.286 -0.7740 -0.2955 -0.8086
   79MOL0     O10299   8.551   8.671   5.371  0.4684 -0.2531 -0.2260
   79MOL0     C10300   8.429   8.729   5.330  0.1888  0.2808 -0.1316
   79MOL0     C10301   8.317   8.656   5.378  0.1316 -0.1107  0.7979
   79MOL0     C10302   8.192   8.709   5.376 -0.7969  0.0701  0.2480
   79MOL0     C10303   8.170   8.834   5.311 -0.5174 -0.3081  0.5598
   79MOL0     O10304   8.039   8.877   5.320  0.7399  0.3987  0.3921
   79MOL0     C10305   7.998   9.014   5.282 -0.1118 -0.3202 -0.4732
   79MOL0     C10306   7.859   9.042   5.330  0.0269  0.0870 -0.3120
   79MOL0     C10307   7.824   9.183   5.298  0.2839 -0.6775 -0.0208
   79MOL0     C10308   7.677   9.208   5.349 -0.1785  0.4180  0.9818
   79MOL0     C10309   7.643   9.357   5.370 -0.0308  0.4651  1.0367
   79MOL0     C10310   7.500   9.361   5.416 -0.4775  0.2020  0.1295
   79MOL0     C10311   7.489   9.334   5.568 -0.2443 -0.0355  0.6087
   79MOL0     C10312   7.379   9.413   5.625 -0.3394 -0.8601 -0.7547
   79MOL0     N10313   7.433   9.539   5.685 -0.1863 -0.0659  0.3181
   79MOL0     C10314   7.391   9.590   5.805 -0.4613  0.4162 -0.0744
   79MOL0     C10315   7.434   9.711   5.818 -0.7424 -0.5594  0.7892
   79MOL0     C10316   7.393   9.801   5.926  0.1464  0.7231  0.0057
   79MOL0     C10317   7.245   9.818   5.930 -0.3319  0.5037 -0.3592
   79MOL0     C10318   7.192   9.840   5.785 -0.2047  0.6539  0.0411
   79MOL0     C10319   7.056   9.892   5.801  0.4042 -0.1290  0.1374
   79MOL0     O10320   6.997   9.877   5.666  0.1281 -0.0516 -0.6699
   79MOL0     C10321   6.899   9.958   5.620  0.2668 -0.3665  0.3441
   79MOL0     C10322   6.771   9.912   5.595 -0.1102 -0.1768 -0.3958
   79MOL0     C10323   6.682   9.999   5.532 -1.1272 -0.0123 -1.6361
   79MOL0     C10324   6.712  10.129   5.502 -0.4664 -1.0139 -0.0465
   79MOL0     C10325   6.612  10.226   5.452 -0.3138  0.2378  0.5656
   79MOL0     O10326   6.499  10.217   5.498 -0.2379 -0.2811 -0.4619
   79MOL0     C10327   6.391  10.301   5.467 -0.7543  0.9267 -0.6643
   79MOL0     C10328   6.315  10.337   5.575  0.6183 -0.5126  0.3340
   79MOL0     C10329   6.195  10.407   5.554  0.2116  0.8843 -0.2772
   79MOL0     C10330   6.157  10.448   5.423  0.7100 -0.3056 -0.1252
   79MOL0     O10331   6.045  10.526   5.400 -0.0656  0.0363  0.5327
   79MOL0     C10332   5.961  10.546   5.507  0.0686  0.2270 -0.9354
   79MOL0     C10333   5.834  10.603   5.465  0.1383  0.1911 -0.0562
   79MOL0     C10334   5.759  10.603   5.604  1.1528 -0.1320  0.3391
   79MOL0     C10335   5.607  10.641   5.560  0.0858  0.0589 -0.0842
   79MOL0     C10336   5.506  10.644   5.668 -0.8088  0.0038 -0.0324
   79MOL0     C10337   5.366  10.648   5.615 -0.4621  0.7212 -0.2795
   79MOL0     C10338   5.339  10.784   5.555 -0.9701 -0.0216 -0.7761
   79MOL0     C10339   5.199  10.800   5.514 -0.4910  0.1662  0.1218
   79MOL0    Cl10340   5.118  10.818   5.665 -0.3809 -0.0225  0.0954
   79MOL0     C10341   6.240  10.417   5.311  0.0433 -0.3209 -0.3434
   79MOL0     C10342   6.356  10.339   5.340  0.7223  0.7134  0.2860
   79MOL0     O10343   6.644  10.313   5.367 -0.2755 -0.2535 -1.2784
   79MOL0     C10344   6.844  10.168   5.519  0.5122  0.0568 -0.0562
   79MOL0     C10345   6.933  10.082   5.577 -0.1160  0.3549  0.0213
   79MOL0     N10346   7.534   9.727   5.723 -0.3623  0.1853  0.2630
   79MOL0     N10347   7.530   9.630   5.635  0.0068  0.3432  0.3564
   79MOL0     C10348   8.275   8.907   5.254  0.8037 -0.2209  0.2842
   79MOL0     C10349   8.401   8.852   5.259  0.0009  0.4737 -0.6298
   79MOL0     C10350   8.791   8.692   5.349  0.0030  0.5851  0.2270
   79MOL0     C10351   8.901   8.737   5.280 -1.1116  0.5296 -0.0757
   79MOL0     C10352   9.026   8.744   5.337  0.6208 -0.8033 -0.0634
   79MOL0     C10353   9.049   8.707   5.473  0.5614 -0.4728 -0.8817
   79MOL0     O10354   9.179   8.716   5.508 -0.1886  0.5246  0.1607
   79MOL0     C10355   9.218   8.678   5.635  0.0164 -0.6581 -0.6250
   79MOL0     C10356   9.367   8.731   5.649  0.2425 -0.7409  0.3238
   79MOL0     C10357   9.464   8.622   5.654  0.2312 -1.5638 -0.3233
   79MOL0     C10358   9.466   8.548   5.518  0.0980  0.1906 -0.5397
   79MOL0     C10359   9.529   8.419   5.545  0.9554 -0.1818  0.0167
   79MOL0     C10360   9.599   8.325   5.570  0.2736 -0.2492  0.6930
   79MOL0     C10361   8.943   8.656   5.548  0.2810 -0.4027 -0.2217
   79MOL0     C10362   8.819   8.651   5.484  0.2255 -0.5374  0.0443
   79MOL0     H10363   8.335   8.562   5.428  0.1846 -0.0878  0.8223
   79MOL0     H10364   8.097   8.664   5.402 -1.7522  0.9121 -1.6004
   79MOL0     H10365   8.001   9.024   5.173 -0.7303 -4.4531 -1.0378
   79MOL0     H10366   8.067   9.089   5.321 -1.2578  1.5399 -1.8429
   79MOL0     H10367   7.882   9.028   5.436 -0.1787  1.9394  0.0084
   79MOL0     H10368   7.799   8.959   5.293  0.9325 -0.7052 -0.0280
   79MOL0     H10369   7.837   9.190   5.189  2.0353  0.3755  0.2223
   79MOL0     H10370   7.890   9.259   5.339 -2.0873  3.3970 -2.9390
   79MOL0     H10371   7.606   9.162   5.280 -0.2643  2.6255 -0.4590
   79MOL0     H10372   7.660   9.160   5.446 -0.6615 -0.4109  0.5052
   79MOL0     H10373   7.648   9.402   5.270  0.1621  2.2136  1.8072
   79MOL0     H10374   7.721   9.402   5.432  1.4822 -0.2994 -0.2223
   79MOL0     H10375   7.445   9.278   5.369 -0.3911  1.6424 -2.7510
   79MOL0     H10376   7.465   9.460   5.386 -0.4256 -0.1492 -1.1566
   79MOL0     H10377   7.476   9.228   5.593  0.1981 -0.6334 -1.5577
   79MOL0     H10378   7.584   9.352   5.620 -1.3360  0.0994  2.6747
   79MOL0     H10379   7.333   9.354   5.705  1.6239 -0.1458  1.0113
   79MOL0     H10380   7.299   9.446   5.559  0.2638  0.5700 -0.7972
   79MOL0     H10381   7.325   9.546   5.880  1.8091  1.1580  2.5370
   79MOL0     H10382   7.445   9.897   5.915  2.1983 -0.4404 -1.1438
   79MOL0     H10383   7.420   9.759   6.023  0.7485  0.4403 -0.2777
   79MOL0     H10384   7.222   9.907   5.990 -3.7537 -1.5624  1.7845
   79MOL0     H10385   7.196   9.732   5.977  0.4553  0.9425  1.3377
   79MOL0     H10386   7.261   9.910   5.738  2.1332 -0.7410  1.2252
   79MOL0     H10387   7.177   9.745   5.735 -0.4847 -1.2241  3.3672
   79MOL0     H10388   7.059   9.999   5.823 -1.5174  0.4410 -1.9869
   79MOL0     H10389   7.001   9.839   5.879 -0.5283  1.4539  0.5967
   79MOL0     H10390   6.746   9.812   5.631  0.8677  0.4472  2.2381
   79MOL0     H10391   6.578   9.968   5.521 -2.3342  2.6819  0.8039
   79MOL0     H10392   6.342  10.299   5.673  1.7787  1.0802  0.6668
   79MOL0     H10393   6.133  10.433   5.639  0.5963 -0.3587  0.4144
   79MOL0     H10394   6.021  10.614   5.569  1.7230 -1.0862 -1.0290
   79MOL0     H10395   5.934  10.453   5.557 -2.9747  0.3533 -2.1471
   79MOL0     H10396   5.786  10.539   5.390  1.6331 -1.5391  0.3890
   79MOL0     H10397   5.843  10.706   5.428  2.1279  0.2347  0.4444
   79MOL0     H10398   5.802  10.680   5.669  1.0590  0.7458 -0.6144
   79MOL0     H10399   5.761  10.508   5.658 -1.1732 -0.6504 -0.3656
   79MOL0     H10400   5.611  10.736   5.506  1.2567 -0.2340 -0.5286
   79MOL0     H10401   5.574  10.558   5.497  2.4940 -1.3533  0.4129
   79MOL0     H10402   5.523  10.731   5.732  0.5485  1.2982 -2.0595
   79MOL0     H10403   5.505  10.555   5.733 -0.4623 -1.5450 -2.0548
   79MOL0     H10404   5.303  10.628   5.702  0.4608 -1.8938 -0.1301
   79MOL0     H10405   5.340  10.566   5.547  0.1240 -1.2630  1.7650
   79MOL0     H10406   5.382  10.864   5.617  1.5722 -1.1914 -0.9208
   79MOL0     H10407   5.397  10.804   5.465  0.6934  1.5449  0.5496
   79MOL0     H10408   5.171  10.715   5.452  3.1115  0.7669 -2.6475
   79MOL0     H10409   5.187  10.887   5.448 -1.5901 -0.4807 -0.5588
   79MOL0     H10410   6.208  10.466   5.219 -0.2127  1.8048  0.8160
   79MOL0     H10411   6.416  10.333   5.249 -1.4963 -1.8144 -1.1442
   79MOL0     H10412   6.866  10.274   5.514 -2.1963  0.6751 -0.3941
   79MOL0     H10413   7.034  10.121   5.586  0.8313 -1.4199 -2.1820
   79MOL0     H10414   8.269   9.005   5.209  0.7032 -0.2556  0.2196
   79MOL0     H10415   8.485   8.907   5.220 -0.0870 -0.1198 -1.6935
   79MOL0     H10416   8.895   8.770   5.177  0.0717  1.7877  0.2094
   79MOL0     H10417   9.111   8.779   5.279  1.0730 -1.0819  0.4123
   79MOL0     H10418   9.197   8.572   5.651 -1.5384 -0.6009 -2.0151
   79MOL0     H10419   9.150   8.740   5.695 -1.2634 -1.9799 -0.6574
   79MOL0     H10420   9.401   8.813   5.585  0.9504 -0.2165  1.3454
   79MOL0     H10421   9.367   8.768   5.752  0.6839 -0.4403  0.2183
   79MOL0     H10422   9.422   8.546   5.720  0.1215  0.1466  1.6917
   79MOL0     H10423   9.563   8.664   5.675  0.8383 -1.6244 -2.7216
   79MOL0     H10424   9.363   8.518   5.499 -0.8139  3.0907 -0.6599
   79MOL0     H10425   9.512   8.609   5.440 -1.6619 -1.4199 -2.9697
   79MOL0     H10426   9.657   8.238   5.591  4.4360  2.4109  1.4505
   79MOL0     H10427   8.946   8.621   5.651 -0.1509  1.2835  0.3964
   79MOL0     H10428   8.736   8.605   5.538 -1.8087 -0.7487 -3.0391
   80MOL0     O10429   5.642   0.194   9.988 -0.0370 -0.8725 -0.4945
   80MOL0     C10430   5.627   0.182  10.110  0.0239 -0.2303 -0.2384
   80MOL0     O10431   5.708   0.108  10.191  0.4326  0.2918  0.5319
   80MOL0     C10432   5.817   0.046  10.132 -0.2784  0.4056 -0.8437
   80MOL0     C10433   5.798  -0.076  10.073  0.6708 -0.7794 -0.2822
   80MOL0     C10434   5.907  -0.152  10.039  0.2848  0.1349 -0.0845
   80MOL0     C10435   6.038  -0.122  10.078 -0.3239 -0.4543 -0.2471
   80MOL0     O10436   6.151  -0.195  10.076  0.3250  0.0573 -0.2751
   80MOL0     C10437   6.150  -0.299   9.974 -0.1201 -0.3202 -0.0355
   80MOL0     C10438   6.111  -0.436  10.030  0.7690  0.0466 -0.4612
   80MOL0     C10439   6.207  -0.477  10.148  0.0908 -0.2916  0.1465
   80MOL0     C10440   6.177  -0.620  10.189  0.3564  0.4181 -0.5250
   80MOL0     C10441   6.293  -0.678  10.284 -0.0190  0.3230  0.3589
   80MOL0     C10442   6.278  -0.827  10.312 -0.0237 -0.7420  0.3694
   80MOL0     C10443   6.347  -0.882  10.438  0.3119  0.0150  0.3052
   80MOL0     C10444   6.491  -0.843  10.467 -0.3794 -1.0936 -0.2002
   80MOL0     N10445   6.581  -0.840  10.352 -0.2808 -0.1696  0.0945
   80MOL0     C10446   6.620  -0.948  10.274 -0.5253 -0.7020 -0.2041
   80MOL0     C10447   6.730  -0.907  10.212 -0.2633  0.3485  0.4775
   80MOL0     C10448   6.824  -0.997  10.128 -0.1270 -0.9639 -0.0972
   80MOL0     C10449   6.822  -0.977   9.976 -0.0028 -0.3001  0.1538
   80MOL0     C10450   6.766  -1.104   9.900 -0.3658  0.0793  0.4101
   80MOL0     C10451   6.613  -1.101   9.898 -0.1057  0.4562  0.3326
   80MOL0     O10452   6.561  -1.229   9.942 -0.6366 -0.5144 -0.4825
   80MOL0     C10453   6.445  -1.217  10.011 -0.2452  0.3597 -0.0372
   80MOL0     C10454   6.433  -1.238  10.149  0.0672  1.0088  1.3114
   80MOL0     C10455   6.315  -1.216  10.219 -0.2981  0.0249  0.5935
   80MOL0     C10456   6.201  -1.183  10.141  0.3733  0.8712 -0.0013
   80MOL0     C10457   6.070  -1.162  10.203  0.4481 -0.0982 -0.3647
   80MOL0     O10458   5.961  -1.189  10.123 -0.2470 -0.4942  0.1932
   80MOL0     C10459   5.839  -1.199  10.186 -0.4825  0.3722 -0.5904
   80MOL0     C10460   5.776  -1.320  10.210 -0.8256  0.4512 -0.5208
   80MOL0     C10461   5.651  -1.336  10.271 -0.3958  0.7888 -0.4054
   80MOL0     C10462   5.575  -1.220  10.304  0.6626  0.3075  0.1359
   80MOL0     O10463   5.445  -1.256  10.354 -0.2378  0.8792  0.5018
   80MOL0     C10464   5.347  -1.154  10.386  0.1641  0.6111 -0.1128
   80MOL0     C10465   5.224  -1.224  10.464  0.0242 -0.0251 -0.9382
   80MOL0     C10466   5.093  -1.178  10.413  0.6112 -0.2368  0.0315
   80MOL0     C10467   5.047  -1.041  10.444 -0.0727 -0.1143  0.2617
   80MOL0     C10468   4.966  -0.974  10.340  0.2950  0.3362  0.9274
   80MOL0     C10469   5.042  -0.940  10.206  0.5218 -0.5883  0.1509
   80MOL0     C10470   4.937  -0.869  10.116 -0.6100  0.4478  0.8373
   80MOL0     C10471   4.851  -0.974  10.048  0.9889  1.0769 -0.0322
   80MOL0    Cl10472   4.733  -0.916   9.932 -0.2236  0.2520  0.3388
   80MOL0     C10473   5.631  -1.097  10.266  0.5679 -0.7443 -0.2000
   80MOL0     C10474   5.763  -1.086  10.211 -0.6886  0.2003 -0.4080
   80MOL0     O10475   6.054  -1.140  10.324 -0.0851  0.5362 -0.0332
   80MOL0     C10476   6.211  -1.176  10.005  0.1891 -0.4572 -1.1494
   80MOL0     C10477   6.334  -1.183   9.936  0.1898  0.1370 -0.5133
   80MOL0     N10478   6.750  -0.773  10.241 -0.0287  1.3522  0.4845
   80MOL0     N10479   6.661  -0.733  10.321  0.0194  0.0228  0.5099
   80MOL0     C10480   6.067   0.006  10.129  0.4579 -0.1028 -0.5387
   80MOL0     C10481   5.957   0.085  10.164  0.3609 -0.9656  0.7280
   80MOL0     C10482   5.498   0.230  10.171  0.0239 -1.4349 -0.5147
   80MOL0     C10483   5.497   0.248  10.312 -0.8728 -0.2172 -0.3347
   80MOL0     C10484   5.375   0.272  10.378  0.4090  0.1675  0.4378
   80MOL0     C10485   5.254   0.272  10.307 -0.7460  0.5618  0.2421
   80MOL0     O10486   5.144   0.319  10.377  0.4153 -0.2689 -0.1099
   80MOL0     C10487   5.048   0.398  10.303 -0.4301 -0.6487 -0.0708
   80MOL0     C10488   4.921   0.429  10.380  0.0132  0.1021 -0.6350
   80MOL0     C10489   4.842   0.537  10.295  0.1064 -0.2691 -1.4585
   80MOL0     C10490   4.721   0.604  10.366 -0.5245  0.1062  0.0961
   80MOL0     C10491   4.671   0.722  10.290 -0.5534 -0.4712  0.1634
   80MOL0     C10492   4.609   0.809  10.242 -0.4915  0.1520  0.1410
   80MOL0     C10493   5.258   0.251  10.170  0.4130  0.2040  0.3257
   80MOL0     C10494   5.378   0.236  10.097 -0.2081 -0.1237  0.2947
   80MOL0     H10495   5.695  -0.109  10.059 -0.3197  0.7391  2.4881
   80MOL0     H10496   5.892  -0.251   9.997  0.8832  0.1609 -0.3780
   80MOL0     H10497   6.242  -0.313   9.915 -0.2233 -1.2921  0.0176
   80MOL0     H10498   6.084  -0.267   9.894 -0.4700 -0.1915  0.3033
   80MOL0     H10499   6.100  -0.504   9.945 -4.2557  0.4621 -0.4329
   80MOL0     H10500   6.011  -0.434  10.075  0.3776  0.2817 -1.3367
   80MOL0     H10501   6.187  -0.406  10.229 -0.4444 -1.5186  1.1200
   80MOL0     H10502   6.305  -0.475  10.100 -1.2970 -1.3930 -3.0575
   80MOL0     H10503   6.080  -0.618  10.240  0.3882 -1.4078 -0.3122
   80MOL0     H10504   6.170  -0.684  10.100 -0.3447 -1.5608  0.8815
   80MOL0     H10505   6.287  -0.622  10.378 -3.6913  0.2036  0.3493
   80MOL0     H10506   6.390  -0.664  10.235  1.8083 -1.4426  3.2048
   80MOL0     H10507   6.321  -0.872  10.223 -1.2379  0.5651 -0.9331
   80MOL0     H10508   6.171  -0.851  10.316 -0.4093  0.7852  4.8210
   80MOL0     H10509   6.275  -0.871  10.520 -0.6632  1.8610 -0.7310
   80MOL0     H10510   6.350  -0.990  10.419  3.3097  0.1403 -0.4761
   80MOL0     H10511   6.518  -0.907  10.552 -0.0786 -0.7169 -0.0059
   80MOL0     H10512   6.512  -0.743  10.506  3.0622 -1.6857 -0.2345
   80MOL0     H10513   6.573  -1.046  10.283 -1.5813 -0.2852 -1.0939
   80MOL0     H10514   6.817  -1.105  10.144  0.5225 -0.7384  1.9754
   80MOL0     H10515   6.915  -0.961  10.176  0.1620 -0.1991 -1.1790
   80MOL0     H10516   6.921  -0.942   9.944  0.0601  1.1969  1.8626
   80MOL0     H10517   6.756  -0.895   9.946 -2.0782 -2.5377 -1.8976
   80MOL0     H10518   6.811  -1.090   9.801 -0.6055  0.9726  0.4245
   80MOL0     H10519   6.798  -1.199   9.945 -1.5636 -0.1199  0.8695
   80MOL0     H10520   6.589  -1.090   9.792  1.8540  0.7808 -0.1223
   80MOL0     H10521   6.568  -1.018   9.953  1.6026  1.2023  0.6549
   80MOL0     H10522   6.523  -1.260  10.206  0.9149 -0.5118 -0.5161
   80MOL0     H10523   6.310  -1.222  10.327 -0.3184  1.7945  0.7130
   80MOL0     H10524   5.823  -1.413  10.181  2.2424  2.0469 -1.0756
   80MOL0     H10525   5.612  -1.433  10.301 -0.9921  1.9168  2.7769
   80MOL0     H10526   5.306  -1.106  10.296  0.9932  1.3951 -0.0805
   80MOL0     H10527   5.392  -1.075  10.446  0.9875  0.0153  0.0649
   80MOL0     H10528   5.238  -1.204  10.571  1.6716  0.1886 -1.1575
   80MOL0     H10529   5.232  -1.332  10.449  0.5561 -0.1107 -0.1180
   80MOL0     H10530   5.019  -1.247  10.454  2.1058 -3.0467 -1.6599
   80MOL0     H10531   5.088  -1.191  10.305  0.5049 -1.8336  0.2031
   80MOL0     H10532   4.987  -1.049  10.535 -0.0717  0.3673  0.3069
   80MOL0     H10533   5.124  -0.968  10.469 -0.7762  0.0182  2.2686
   80MOL0     H10534   4.946  -0.872  10.373 -1.1506  0.7115 -0.9065
   80MOL0     H10535   4.880  -1.038  10.321  0.1983  0.5033  0.7987
   80MOL0     H10536   5.079  -1.036  10.169  1.6775 -0.8147  1.7629
   80MOL0     H10537   5.128  -0.874  10.222 -0.1314  0.3711 -0.2074
   80MOL0     H10538   4.872  -0.805  10.177  0.5846  1.7149  0.8412
   80MOL0     H10539   4.992  -0.806  10.045 -2.0513  1.2606  0.4041
   80MOL0     H10540   4.803  -1.037  10.123  0.7180  0.0419 -1.0307
   80MOL0     H10541   4.905  -1.053   9.993  1.6494 -0.7456  3.0052
   80MOL0     H10542   5.568  -1.008  10.270 -1.2423 -2.0019  0.9247
   80MOL0     H10543   5.795  -0.984  10.189 -3.1271  0.8346 -1.3320
   80MOL0     H10544   6.135  -1.130   9.943  0.5365  0.1899 -1.0990
   80MOL0     H10545   6.336  -1.190   9.828  0.9581 -0.1908 -0.4847
   80MOL0     H10546   6.170   0.028  10.158  0.5687 -1.6953  0.3813
   80MOL0     H10547   5.988   0.169  10.226  1.2597 -0.5770 -0.2273
   80MOL0     H10548   5.588   0.264  10.369 -0.5550  0.0677 -0.9119
   80MOL0     H10549   5.365   0.299  10.482 -2.1254 -1.4112  0.6954
   80MOL0     H10550   5.023   0.363  10.202 -2.1254 -2.3097  0.8648
   80MOL0     H10551   5.103   0.490  10.281 -0.1805 -1.2192 -2.0813
   80MOL0     H10552   4.864   0.335  10.390  1.1128 -0.6447 -1.1736
   80MOL0     H10553   4.931   0.470  10.480  0.1307 -1.6185  0.0941
   80MOL0     H10554   4.807   0.488  10.204  0.1795 -1.4571 -0.8718
   80MOL0     H10555   4.911   0.613  10.257  1.6828 -1.4386 -1.0691
   80MOL0     H10556   4.647   0.530  10.397 -0.8143 -0.7376 -2.3837
   80MOL0     H10557   4.753   0.646  10.462  3.0689  2.3741 -1.8431
   80MOL0     H10558   4.544   0.884  10.201 -0.2451 -0.2872 -1.1079
   80MOL0     H10559   5.167   0.250  10.111  1.1723  0.1219 -0.8921
   80MOL0     H10560   5.373   0.228   9.989 -1.4319  0.3140  0.2960
   81MOL0     O10561   4.594   4.870   1.898 -0.1122  0.2413 -0.1579
   81MOL0     C10562   4.537   4.760   1.876  0.7608 -0.2278 -0.0716
   81MOL0     O10563   4.413   4.740   1.817 -0.3805  0.2412 -0.5474
   81MOL0     C10564   4.310   4.830   1.811 -0.5593 -0.1192 -0.2852
   81MOL0     C10565   4.303   4.940   1.895 -0.4695  1.0483 -0.7919
   81MOL0     C10566   4.182   5.011   1.896  0.2402 -0.6576 -0.7367
   81MOL0     C10567   4.072   4.984   1.807 -0.2698 -0.1800 -0.0060
   81MOL0     O10568   3.959   5.060   1.820 -0.0064  0.6726  0.9498
   81MOL0     C10569   3.908   5.083   1.954 -0.4520  0.7014 -0.3474
   81MOL0     C10570   3.772   5.154   1.953  1.2462 -0.7275 -0.4990
   81MOL0     C10571   3.657   5.055   1.926 -0.1165  0.3071  0.0648
   81MOL0     C10572   3.533   5.075   2.011  0.5570  0.7188 -1.2404
   81MOL0     C10573   3.438   4.964   2.002  0.0436  0.0442  0.5618
   81MOL0     C10574   3.331   4.967   2.109 -0.2220 -0.9180  0.4058
   81MOL0     C10575   3.221   5.074   2.097  1.2265 -0.1630 -0.9135
   81MOL0     C10576   3.120   5.043   1.983 -0.4677 -0.0912 -0.3954
   81MOL0     N10577   2.983   5.034   2.033  0.6835 -0.3873 -0.0984
   81MOL0     C10578   2.872   5.025   1.955  0.4797 -0.0275  0.1678
   81MOL0     C10579   2.771   5.006   2.046  0.5085  1.2846 -0.0683
   81MOL0     C10580   2.624   4.988   2.015 -0.5592  0.2486  0.7161
   81MOL0     C10581   2.566   5.129   2.014 -0.0198 -0.5274  0.0235
   81MOL0     C10582   2.426   5.140   1.965 -0.1935  0.2290 -0.2262
   81MOL0     C10583   2.321   5.053   2.037  0.8313  0.4051 -0.6158
   81MOL0     O10584   2.197   5.046   1.962  0.1053  0.0662 -0.6571
   81MOL0     C10585   2.080   5.050   2.034 -0.0329  0.5293  0.7215
   81MOL0     C10586   1.967   5.089   1.970  0.3730  0.8342 -0.2636
   81MOL0     C10587   1.849   5.104   2.034 -0.5921 -0.9739  0.9230
   81MOL0     C10588   1.837   5.055   2.163  0.4465 -0.4664  0.1858
   81MOL0     C10589   1.709   5.069   2.233 -0.2390  0.0875  0.1203
   81MOL0     O10590   1.625   5.174   2.198  0.4868  0.5545  0.5787
   81MOL0     C10591   1.492   5.162   2.228 -0.2056 -0.4716 -0.8665
   81MOL0     C10592   1.430   5.276   2.264 -0.2391 -0.8724 -0.0970
   81MOL0     C10593   1.292   5.277   2.288  0.9438 -0.2557 -0.3098
   81MOL0     C10594   1.223   5.160   2.300  0.2460  0.5506 -0.0748
   81MOL0     O10595   1.095   5.164   2.338 -0.3474  0.4951 -0.3257
   81MOL0     C10596   1.001   5.174   2.232 -0.5713 -0.5602  0.4795
   81MOL0     C10597   0.864   5.181   2.299  0.5840 -0.2074  0.2078
   81MOL0     C10598   0.741   5.200   2.201 -0.3790  0.9295 -1.3728
   81MOL0     C10599   0.602   5.149   2.262  0.2116  0.5336 -0.4359
   81MOL0     C10600   0.484   5.214   2.191  0.2872 -0.1873 -0.2091
   81MOL0     C10601   0.365   5.148   2.247  0.0189 -0.1309  0.0508
   81MOL0     C10602   0.335   5.207   2.388 -0.1282 -0.2565  0.1675
   81MOL0     C10603   0.219   5.139   2.460  0.1185  0.5548  0.0603
   81MOL0    Cl10604   0.268   4.961   2.474  0.0726 -0.5806 -0.2570
   81MOL0     C10605   1.277   5.046   2.260 -0.0625 -0.3665  0.6237
   81MOL0     C10606   1.412   5.045   2.215  0.3729  0.2170 -0.9827
   81MOL0     O10607   1.689   4.982   2.315  0.6168 -0.2592  0.5523
   81MOL0     C10608   1.952   5.023   2.232  0.5455 -0.4600 -0.1481
   81MOL0     C10609   2.074   5.027   2.175  0.6322  0.8852 -0.1255
   81MOL0     N10610   2.815   4.969   2.166  0.0464 -0.3405 -0.0426
   81MOL0     N10611   2.942   4.979   2.159 -0.4800  0.4638  1.0417
   81MOL0     C10612   4.081   4.876   1.725 -0.7200 -0.5540  0.3137
   81MOL0     C10613   4.195   4.800   1.732 -0.6462  0.0130  0.2537
   81MOL0     C10614   4.606   4.644   1.915 -1.2368 -0.7454 -0.1786
   81MOL0     C10615   4.575   4.520   1.860 -0.0630  0.2281  0.2139
   81MOL0     C10616   4.644   4.403   1.895  0.2683  0.5042  0.4622
   81MOL0     C10617   4.744   4.399   1.988  0.6538  0.2428 -0.1968
   81MOL0     O10618   4.802   4.279   2.018 -0.0252 -0.1611 -0.4723
   81MOL0     C10619   4.838   4.251   2.156  0.5745 -0.2741  0.3500
   81MOL0     C10620   4.827   4.099   2.174 -0.9202  0.1982 -0.1587
   81MOL0     C10621   4.941   4.020   2.103  0.3889 -0.7073  0.1167
   81MOL0     C10622   5.077   4.043   2.164  0.4546  0.6060 -0.9892
   81MOL0     C10623   5.185   3.942   2.125  0.7865  0.1752  0.1896
   81MOL0     C10624   5.267   3.853   2.092 -0.1268  0.5837 -0.2326
   81MOL0     C10625   4.779   4.523   2.040 -0.2242 -0.3211 -0.3766
   81MOL0     C10626   4.713   4.648   2.006  1.4970 -0.6243 -0.1490
   81MOL0     H10627   4.386   4.973   1.955  1.4128 -2.5654 -1.1194
   81MOL0     H10628   4.175   5.095   1.963 -1.2009 -0.1311 -1.5081
   81MOL0     H10629   3.979   5.150   2.006  1.2633 -0.5129 -1.0356
   81MOL0     H10630   3.902   4.986   2.003  0.3271  0.3199 -0.9836
   81MOL0     H10631   3.766   5.239   1.886  3.0450  0.0793  0.3116
   81MOL0     H10632   3.753   5.194   2.054 -2.0266 -2.4025 -0.3024
   81MOL0     H10633   3.687   4.951   1.940  0.0240 -0.2102 -3.2321
   81MOL0     H10634   3.636   5.054   1.818 -1.5594 -1.3215  0.3149
   81MOL0     H10635   3.565   5.089   2.114 -2.3966  0.1864 -0.1578
   81MOL0     H10636   3.484   5.170   1.991  0.1897  0.7196 -0.3853
   81MOL0     H10637   3.496   4.872   2.008 -1.1627 -0.8331 -0.4706
   81MOL0     H10638   3.389   4.968   1.904  0.2232 -0.8528  0.4242
   81MOL0     H10639   3.378   4.991   2.205  0.0682  3.4112 -0.6506
   81MOL0     H10640   3.295   4.863   2.105  2.5183 -1.9185 -0.8603
   81MOL0     H10641   3.167   5.075   2.193 -1.4428  1.7557 -2.3144
   81MOL0     H10642   3.265   5.173   2.088  2.7442 -0.5224  1.4759
   81MOL0     H10643   3.137   4.949   1.928 -2.3960  0.0014 -1.2200
   81MOL0     H10644   3.131   5.113   1.900 -1.3773 -0.6455 -1.0056
   81MOL0     H10645   2.871   5.047   1.848 -0.3858  0.5503  0.2851
   81MOL0     H10646   2.581   4.931   2.099  0.2756  0.7270  1.4863
   81MOL0     H10647   2.612   4.936   1.920  4.0536  0.2979 -0.1263
   81MOL0     H10648   2.631   5.197   1.958  1.9864 -1.0664  1.5907
   81MOL0     H10649   2.571   5.168   2.116 -1.3255 -0.1265 -0.0418
   81MOL0     H10650   2.388   5.243   1.964 -2.5911 -0.5758 -2.1689
   81MOL0     H10651   2.424   5.110   1.860 -0.9356 -1.3900  0.2097
   81MOL0     H10652   2.322   5.099   2.136  1.9153  3.6399 -1.9973
   81MOL0     H10653   2.360   4.954   2.063  1.3423  0.8364  0.3135
   81MOL0     H10654   1.984   5.125   1.869 -0.0773 -0.9066 -0.9885
   81MOL0     H10655   1.761   5.132   1.976  1.5431 -1.9666 -3.2289
   81MOL0     H10656   1.476   5.375   2.266 -3.4225  0.7263 -0.8720
   81MOL0     H10657   1.246   5.373   2.310  0.8909 -0.6543  1.4731
   81MOL0     H10658   1.014   5.089   2.164 -0.5516 -0.4549  0.3504
   81MOL0     H10659   1.025   5.260   2.169 -2.1333  0.6391  1.4616
   81MOL0     H10660   0.856   5.261   2.373 -0.8273  0.1124 -0.2529
   81MOL0     H10661   0.836   5.084   2.342  1.8813 -1.1402 -0.9522
   81MOL0     H10662   0.772   5.141   2.114  2.3385  1.3110 -0.7426
   81MOL0     H10663   0.722   5.303   2.167 -4.6702  0.8297  0.1336
   81MOL0     H10664   0.599   5.040   2.268  0.1755  0.5670  0.2907
   81MOL0     H10665   0.609   5.181   2.367 -0.0311  1.1640 -0.6096
   81MOL0     H10666   0.498   5.188   2.085  1.0168 -2.9941  0.4965
   81MOL0     H10667   0.481   5.323   2.206  0.8333  0.0712 -1.7066
   81MOL0     H10668   0.364   5.040   2.227 -3.8261 -0.1911 -0.1299
   81MOL0     H10669   0.285   5.186   2.183  0.0017 -0.4883 -0.1432
   81MOL0     H10670   0.422   5.215   2.454 -1.6696  1.3619  2.1192
   81MOL0     H10671   0.310   5.313   2.378 -0.5565 -0.4017 -0.3799
   81MOL0     H10672   0.125   5.141   2.403 -1.2799 -3.5613  1.7982
   81MOL0     H10673   0.198   5.180   2.559  0.6942 -2.5904  1.6015
   81MOL0     H10674   1.222   4.953   2.268  0.8963 -0.9816  0.3342
   81MOL0     H10675   1.456   4.953   2.178 -1.7188  0.1938 -3.7160
   81MOL0     H10676   1.953   5.002   2.339 -0.1416 -2.8899 -0.5534
   81MOL0     H10677   2.164   4.997   2.228  2.0799  0.3600 -2.7230
   81MOL0     H10678   3.997   4.855   1.659 -2.6089  1.6277  1.8422
   81MOL0     H10679   4.202   4.707   1.677 -0.9108  0.7285 -1.0622
   81MOL0     H10680   4.495   4.517   1.787 -0.3862  0.1642  0.5676
   81MOL0     H10681   4.617   4.312   1.843  0.7771  0.3513  0.4564
   81MOL0     H10682   4.753   4.282   2.217 -0.4623 -1.2974 -0.5164
   81MOL0     H10683   4.935   4.291   2.186  1.6693 -2.8607  0.5487
   81MOL0     H10684   4.823   4.066   2.279 -1.6944 -2.6269 -0.9936
   81MOL0     H10685   4.736   4.057   2.131  0.8629 -3.0784 -1.1327
   81MOL0     H10686   4.937   4.045   1.997  1.7049  3.8661  0.9334
   81MOL0     H10687   4.923   3.915   2.128  2.2657 -0.7319  1.5770
   81MOL0     H10688   5.110   4.146   2.146 -1.4047  1.7177  1.3923
   81MOL0     H10689   5.067   4.049   2.273  2.7488  3.2374 -0.8072
   81MOL0     H10690   5.339   3.777   2.066  0.7785  2.1437 -2.7152
   81MOL0     H10691   4.855   4.522   2.118  0.6823  1.3336 -1.1986
   81MOL0     H10692   4.733   4.741   2.058  1.6061 -0.9735  0.4389
   82MOL0     O10693   2.897   6.053   6.341 -0.1939  0.9478  0.6644
   82MOL0     C10694   2.940   5.968   6.255  0.0098 -0.5851  0.1347
   82MOL0     O10695   2.864   5.868   6.190  0.0627 -0.2585 -0.3037
   82MOL0     C10696   2.734   5.839   6.204 -0.2753 -0.0828  0.3648
   82MOL0     C10697   2.643   5.905   6.284 -0.0053  0.0995 -0.8098
   82MOL0     C10698   2.511   5.865   6.293 -0.0540 -0.6385 -0.1310
   82MOL0     C10699   2.461   5.762   6.213  0.0252 -0.0733 -0.0213
   82MOL0     O10700   2.327   5.718   6.204  0.1644  0.0181 -0.4992
   82MOL0     C10701   2.247   5.720   6.327  0.0347 -0.7961  0.3051
   82MOL0     C10702   2.167   5.850   6.337  0.1079  0.8016 -0.8287
   82MOL0     C10703   2.038   5.840   6.247  0.3683 -0.1137 -0.2096
   82MOL0     C10704   1.973   5.982   6.241  0.2084 -0.5142 -0.0029
   82MOL0     C10705   1.818   5.967   6.231 -0.5279 -0.9109  0.0434
   82MOL0     C10706   1.753   6.098   6.214  0.5956  1.0682  0.7383
   82MOL0     C10707   1.777   6.206   6.321  0.9202 -0.5444  0.0256
   82MOL0     C10708   1.686   6.322   6.309 -0.8867 -0.2302 -0.0029
   82MOL0     N10709   1.548   6.277   6.335 -0.3314  0.2539  1.0169
   82MOL0     C10710   1.438   6.323   6.262 -0.1164  0.4236 -0.9641
   82MOL0     C10711   1.341   6.234   6.303  1.2953  0.1418  0.9614
   82MOL0     C10712   1.209   6.229   6.227  0.9688  0.1284  0.3626
   82MOL0     C10713   1.247   6.201   6.079 -0.0583 -1.0788  0.8239
   82MOL0     C10714   1.312   6.065   6.063  0.4390  0.4009  0.1809
   82MOL0     C10715   1.279   5.995   5.934  0.0257 -0.2463  0.9071
   82MOL0     O10716   1.329   6.057   5.812  0.1571 -0.7752  0.4632
   82MOL0     C10717   1.460   6.062   5.783 -0.3698 -0.7956 -1.1523
   82MOL0     C10718   1.529   5.943   5.769 -0.2848  0.5109  1.2682
   82MOL0     C10719   1.666   5.951   5.773  0.1597  0.0995  0.8744
   82MOL0     C10720   1.740   6.072   5.751  1.0036  0.6532 -0.7153
   82MOL0     C10721   1.885   6.085   5.762 -0.5932 -0.1308  0.7315
   82MOL0     O10722   1.955   5.971   5.771  0.2316 -0.2665 -0.2734
   82MOL0     C10723   2.092   5.979   5.785  0.0633 -0.3903 -0.0026
   82MOL0     C10724   2.184   5.916   5.699 -0.6176 -0.1791 -0.0146
   82MOL0     C10725   2.324   5.926   5.726  0.6963 -0.0328 -0.0590
   82MOL0     C10726   2.368   5.998   5.833  0.5628  0.0116 -0.2518
   82MOL0     O10727   2.498   6.006   5.861  0.1940 -0.1396  0.3235
   82MOL0     C10728   2.604   5.960   5.769  0.0424  0.3806  0.6617
   82MOL0     C10729   2.739   5.981   5.824 -0.3799 -0.2545 -0.6855
   82MOL0     C10730   2.857   5.933   5.731 -0.2177 -0.9028 -1.1485
   82MOL0     C10731   2.996   5.975   5.781 -0.1712 -0.0069  0.3639
   82MOL0     C10732   3.086   5.963   5.657 -0.5856 -0.3507  1.5466
   82MOL0     C10733   3.227   5.913   5.682 -0.3453  0.7390  1.1088
   82MOL0     C10734   3.301   6.026   5.763  0.6366  0.6700  0.0612
   82MOL0     C10735   3.453   6.018   5.758  0.3850  0.1444 -0.5459
   82MOL0    Cl10736   3.518   6.159   5.839  0.4371 -0.2109  0.0756
   82MOL0     C10737   2.277   6.056   5.917  0.0411  0.8258  0.3264
   82MOL0     C10738   2.138   6.040   5.901  0.4681  0.4594  0.8880
   82MOL0     O10739   1.920   6.200   5.788 -0.2557 -0.2642  0.0858
   82MOL0     C10740   1.660   6.181   5.742  0.4894  0.5669 -0.8222
   82MOL0     C10741   1.520   6.180   5.769 -0.6041  0.1804  0.6635
   82MOL0     N10742   1.391   6.142   6.396 -0.3164  0.0506 -0.9174
   82MOL0     N10743   1.515   6.172   6.423  0.2484 -0.2603 -0.0293
   82MOL0     C10744   2.557   5.697   6.129 -0.2498 -0.4539  0.3014
   82MOL0     C10745   2.693   5.727   6.132 -0.1519  0.4777 -0.1031
   82MOL0     C10746   3.087   5.961   6.227  0.5422 -0.2538 -0.1482
   82MOL0     C10747   3.180   6.051   6.281 -0.5210 -0.1079 -0.5207
   82MOL0     C10748   3.317   6.047   6.251 -1.0098  0.4346  0.2112
   82MOL0     C10749   3.365   5.960   6.150  0.6959 -0.6260 -0.5914
   82MOL0     O10750   3.500   5.955   6.130  0.0216 -0.4354 -0.9598
   82MOL0     C10751   3.555   5.856   6.219  0.4097  0.0863 -0.4943
   82MOL0     C10752   3.695   5.903   6.248 -0.5771  0.3688 -0.6587
   82MOL0     C10753   3.802   5.869   6.155 -0.5835 -0.2519 -0.3233
   82MOL0     C10754   3.784   5.923   6.018 -0.9000 -0.4126 -0.0115
   82MOL0     C10755   3.800   6.065   6.004  0.3305  0.2604  0.0852
   82MOL0     C10756   3.831   6.186   6.019  0.6017  0.8174 -0.4181
   82MOL0     C10757   3.273   5.873   6.084 -0.9379 -0.4442  1.0606
   82MOL0     C10758   3.138   5.866   6.132  0.1725  0.6830 -1.0200
   82MOL0     H10759   2.656   5.991   6.348 -3.2497  1.0328 -1.2559
   82MOL0     H10760   2.445   5.916   6.362 -1.7435  0.8713 -2.6813
   82MOL0     H10761   2.315   5.707   6.412  1.0414 -0.7514 -0.4733
   82MOL0     H10762   2.180   5.634   6.333 -1.2675  0.2558  1.8255
   82MOL0     H10763   2.216   5.942   6.306 -0.4524  1.2002 -0.5560
   82MOL0     H10764   2.145   5.870   6.442 -0.0736  1.8587 -1.0584
   82MOL0     H10765   1.965   5.774   6.295 -1.4831  0.6389 -1.8842
   82MOL0     H10766   2.062   5.797   6.149  2.7366  1.3735 -0.3446
   82MOL0     H10767   2.006   6.039   6.328  2.7463 -1.6772 -0.1224
   82MOL0     H10768   2.016   6.046   6.163 -0.0386 -1.1859 -0.6992
   82MOL0     H10769   1.787   5.927   6.328 -0.6838  1.7407  1.1885
   82MOL0     H10770   1.805   5.896   6.149  0.8314 -0.6582 -0.4313
   82MOL0     H10771   1.650   6.063   6.213  1.3559 -1.3725  1.7017
   82MOL0     H10772   1.764   6.129   6.110 -0.0307 -2.0324 -0.3446
   82MOL0     H10773   1.777   6.168   6.424  2.4238  1.3342  0.7880
   82MOL0     H10774   1.876   6.252   6.309  0.5752  2.2757  5.0978
   82MOL0     H10775   1.690   6.367   6.209 -2.1636 -0.6254 -0.2371
   82MOL0     H10776   1.717   6.403   6.377 -1.2252  1.4054 -1.7239
   82MOL0     H10777   1.432   6.409   6.195 -2.4596  4.0196  3.3056
   82MOL0     H10778   1.164   6.328   6.236  4.0179  1.4819  2.2294
   82MOL0     H10779   1.134   6.161   6.269  0.6690  1.0802  1.4074
   82MOL0     H10780   1.307   6.278   6.031 -1.1119 -0.0378  1.1278
   82MOL0     H10781   1.153   6.213   6.026  2.0462  0.4980 -2.8687
   82MOL0     H10782   1.420   6.081   6.055  0.1925  1.1434 -2.6237
   82MOL0     H10783   1.286   5.995   6.143  1.1456 -1.8823 -1.4851
   82MOL0     H10784   1.170   5.983   5.928 -0.1796  0.6249  2.3370
   82MOL0     H10785   1.317   5.894   5.946 -0.5127 -0.3847  1.5307
   82MOL0     H10786   1.479   5.846   5.773 -0.7136  0.5615 -1.2819
   82MOL0     H10787   1.738   5.870   5.763 -1.5464 -1.4346  0.5265
   82MOL0     H10788   2.149   5.862   5.612 -4.1868  2.1969 -0.2745
   82MOL0     H10789   2.376   5.865   5.653  0.8630  1.4515 -1.1986
   82MOL0     H10790   2.594   6.017   5.676  0.3709 -3.5226 -2.0532
   82MOL0     H10791   2.597   5.858   5.729  1.6010  1.3803 -2.4873
   82MOL0     H10792   2.735   5.934   5.923 -1.5769 -0.2066 -0.6869
   82MOL0     H10793   2.748   6.090   5.834 -2.0634 -0.2231  1.3363
   82MOL0     H10794   2.843   5.970   5.629  1.7587  2.3228 -0.3655
   82MOL0     H10795   2.853   5.824   5.737 -0.6323 -0.8068  0.8194
   82MOL0     H10796   3.005   6.078   5.818 -1.8705 -0.0097  0.8321
   82MOL0     H10797   3.022   5.904   5.860 -1.6278 -4.9547 -3.1299
   82MOL0     H10798   3.090   6.060   5.607  2.6462 -1.7145 -1.1877
   82MOL0     H10799   3.050   5.901   5.574 -0.8459  2.8758 -0.9919
   82MOL0     H10800   3.267   5.890   5.583  1.0369 -2.0341  2.2200
   82MOL0     H10801   3.219   5.821   5.741  2.0696 -2.2760 -2.7873
   82MOL0     H10802   3.257   6.124   5.739 -2.3480 -0.5253  0.2781
   82MOL0     H10803   3.265   6.012   5.865  2.3920  0.2177  0.6553
   82MOL0     H10804   3.489   6.016   5.655  0.3122  2.7295 -0.6708
   82MOL0     H10805   3.495   5.925   5.799  1.4832  0.7725 -0.2045
   82MOL0     H10806   2.317   6.109   6.004  3.5624  0.1429 -0.7048
   82MOL0     H10807   2.077   6.091   5.975  3.8109  2.5280  2.4920
   82MOL0     H10808   1.703   6.281   5.735 -0.4323  1.1254  0.7896
   82MOL0     H10809   1.470   6.276   5.778  0.2646  0.7050  0.0507
   82MOL0     H10810   2.522   5.619   6.061  1.0589  0.1982 -1.2008
   82MOL0     H10811   2.764   5.676   6.068 -0.1261  1.9613 -1.3184
   82MOL0     H10812   3.143   6.116   6.359  0.9055  0.7589 -0.5275
   82MOL0     H10813   3.385   6.106   6.312 -0.5866 -1.2133  1.4018
   82MOL0     H10814   3.544   5.763   6.162 -0.8908  0.5385 -1.0146
   82MOL0     H10815   3.506   5.846   6.316 -1.9006 -2.8512 -1.8003
   82MOL0     H10816   3.695   6.010   6.269 -0.1978  0.3271 -0.4299
   82MOL0     H10817   3.699   5.846   6.342 -2.3205  0.4265 -0.5234
   82MOL0     H10818   3.807   5.761   6.145 -0.3647 -0.4670  1.6012
   82MOL0     H10819   3.893   5.901   6.207 -1.8235 -1.2682  2.6778
   82MOL0     H10820   3.871   5.882   5.965 -1.1832 -1.7117  0.5035
   82MOL0     H10821   3.691   5.882   5.978 -0.2432 -1.7434 -0.2320
   82MOL0     H10822   3.860   6.289   6.027 -1.1695  1.3170  0.0421
   82MOL0     H10823   3.303   5.812   5.998  1.3350  2.4369 -0.3763
   82MOL0     H10824   3.074   5.789   6.089  1.2711 -1.0789  0.3477
   83MOL0     O10825   8.747  10.928   3.781 -0.4413  0.7677  0.3194
   83MOL0     C10826   8.721  11.011   3.699  0.1399 -0.7360 -0.8230
   83MOL0     O10827   8.608  11.078   3.685  0.3676  0.1896  0.6154
   83MOL0     C10828   8.504  11.077   3.779 -0.1892 -0.2650 -0.3331
   83MOL0     C10829   8.372  11.063   3.728 -0.5598 -0.1938  0.5859
   83MOL0     C10830   8.266  11.049   3.816 -0.3539 -0.1730  0.1687
   83MOL0     C10831   8.294  11.056   3.950  0.2163 -0.3270 -0.3432
   83MOL0     O10832   8.190  11.053   4.042 -0.3662 -0.6052  0.2329
   83MOL0     C10833   8.135  10.918   4.068  0.5239  0.2760  0.2405
   83MOL0     C10834   7.996  10.905   4.005  0.2863 -0.6514  0.1742
   83MOL0     C10835   7.917  10.802   4.087 -0.1249  0.5231 -0.6495
   83MOL0     C10836   7.785  10.771   4.004 -0.3445  0.2368 -0.2376
   83MOL0     C10837   7.653  10.786   4.086 -0.0889 -0.0114 -0.4048
   83MOL0     C10838   7.540  10.707   4.017 -0.8778 -0.3141 -1.0760
   83MOL0     C10839   7.407  10.699   4.093 -0.0100 -0.0025 -0.6293
   83MOL0     C10840   7.352  10.835   4.125 -0.2984  0.2564  0.0042
   83MOL0     N10841   7.213  10.831   4.164  0.2431  0.3884 -0.5947
   83MOL0     C10842   7.158  10.765   4.275  1.0398  0.1807  0.1219
   83MOL0     C10843   7.032  10.783   4.265  0.7290  0.2106  0.6004
   83MOL0     C10844   6.919  10.712   4.343  0.0935 -0.3512  0.5326
   83MOL0     C10845   6.837  10.619   4.264  0.8263 -0.2518  1.0337
   83MOL0     C10846   6.755  10.523   4.352  0.0146  1.0393  0.4517
   83MOL0     C10847   6.631  10.588   4.431 -0.5884  0.3247 -0.2821
   83MOL0     O10848   6.559  10.669   4.331  0.4276 -0.5386 -0.2967
   83MOL0     C10849   6.442  10.725   4.373  0.4666  0.0849 -0.0259
   83MOL0     C10850   6.374  10.698   4.493 -0.8778 -0.5347  0.0461
   83MOL0     C10851   6.253  10.756   4.525  0.1377  0.2995  0.7128
   83MOL0     C10852   6.190  10.844   4.438 -0.9352 -0.6683 -0.6018
   83MOL0     C10853   6.052  10.883   4.455  0.1714  0.2634  0.8566
   83MOL0     O10854   5.989  10.815   4.550  0.2408  0.3684  0.5339
   83MOL0     C10855   5.862  10.859   4.584 -0.2624  0.0879  0.1704
   83MOL0     C10856   5.743  10.806   4.548  0.1872  1.0002 -0.3585
   83MOL0     C10857   5.623  10.847   4.601  0.8037  0.1346  0.2238
   83MOL0     C10858   5.626  10.955   4.689  0.7732 -0.2373  0.5800
   83MOL0     O10859   5.506  11.019   4.723 -0.1428  0.3195  0.4770
   83MOL0     C10860   5.397  11.029   4.629  0.6696 -0.4945  0.0116
   83MOL0     C10861   5.301  11.149   4.648  0.0103 -0.3785 -0.9189
   83MOL0     C10862   5.362  11.285   4.684  0.0923  0.1957 -0.2394
   83MOL0     C10863   5.251  11.388   4.691  0.5937  0.0661  0.4795
   83MOL0     C10864   5.149  11.357   4.802  0.2827 -0.3704  0.4454
   83MOL0     C10865   5.067  11.486   4.846  0.2321 -1.1394  0.2991
   83MOL0     C10866   4.987  11.544   4.729  0.2841 -0.7502 -0.2422
   83MOL0     C10867   4.888  11.654   4.771 -0.5030 -0.4324  0.3948
   83MOL0    Cl10868   4.757  11.593   4.879  0.0632  0.5859  0.1035
   83MOL0     C10869   5.742  11.008   4.736  0.9419 -0.2813  0.2819
   83MOL0     C10870   5.863  10.959   4.675 -0.5747  0.9457  0.2790
   83MOL0     O10871   6.005  10.982   4.395  0.2353  0.4552  0.1061
   83MOL0     C10872   6.263  10.873   4.323 -0.1349  0.4128  0.1697
   83MOL0     C10873   6.380  10.801   4.284 -1.0004  0.0367  0.0315
   83MOL0     N10874   7.007  10.865   4.156 -0.1720  1.0084  0.1535
   83MOL0     N10875   7.116  10.902   4.097  0.1899 -0.7297 -0.5163
   83MOL0     C10876   8.427  11.068   3.997  0.3512  0.9964 -0.3739
   83MOL0     C10877   8.530  11.065   3.915  0.2639  0.6908 -0.9524
   83MOL0     C10878   8.832  11.045   3.615 -0.6783 -0.8771  0.2787
   83MOL0     C10879   8.831  11.165   3.539 -0.4661  0.4102 -0.4349
   83MOL0     C10880   8.958  11.203   3.481  1.7272  0.2543 -0.0623
   83MOL0     C10881   9.085  11.143   3.509  0.0373 -0.2345  0.4318
   83MOL0     O10882   9.188  11.191   3.436 -0.0327  0.0375 -0.6990
   83MOL0     C10883   9.306  11.109   3.409  0.0450  0.2502 -0.0965
   83MOL0     C10884   9.391  11.153   3.298  0.7279 -0.7051 -0.7484
   83MOL0     C10885   9.496  11.257   3.334  0.3863 -0.5362 -0.0327
   83MOL0     C10886   9.600  11.210   3.425 -0.4621  0.4091 -0.3539
   83MOL0     C10887   9.720  11.296   3.416  0.7286 -0.1227  0.8526
   83MOL0     C10888   9.817  11.368   3.396 -0.7083 -0.3682  0.3454
   83MOL0     C10889   9.081  11.026   3.582  0.3631 -0.3223  0.4965
   83MOL0     C10890   8.959  10.983   3.627 -0.2454  0.5189 -1.0825
   83MOL0     H10891   8.347  11.068   3.623 -1.5309 -2.0235  0.6757
   83MOL0     H10892   8.164  11.030   3.784  0.4786 -2.3333 -1.4473
   83MOL0     H10893   8.133  10.916   4.178 -0.4178  0.6732  0.2366
   83MOL0     H10894   8.195  10.839   4.021 -0.8669 -0.7222  0.0629
   83MOL0     H10895   8.004  10.864   3.904 -2.0748  0.7058 -0.6398
   83MOL0     H10896   7.954  11.006   4.002 -1.0442 -1.0966  2.0779
   83MOL0     H10897   7.900  10.821   4.194 -0.2541  2.5044 -0.9828
   83MOL0     H10898   7.981  10.713   4.094  1.0932  1.4118 -0.1741
   83MOL0     H10899   7.782  10.839   3.919  0.7924  0.9937  0.3031
   83MOL0     H10900   7.797  10.669   3.969 -0.1071 -0.8708  2.7545
   83MOL0     H10901   7.630  10.892   4.103 -0.3340  0.3875 -2.8771
   83MOL0     H10902   7.670  10.731   4.179  0.4334 -1.9827 -1.6110
   83MOL0     H10903   7.562  10.604   3.985  0.1258 -0.4793  0.1159
   83MOL0     H10904   7.523  10.758   3.922  1.5383  1.3356 -0.6838
   83MOL0     H10905   7.336  10.638   4.036 -0.2963 -1.2885  1.0213
   83MOL0     H10906   7.413  10.642   4.186 -0.0781 -1.2792 -1.3871
   83MOL0     H10907   7.361  10.887   4.029 -1.3336 -4.1212 -2.7740
   83MOL0     H10908   7.409  10.896   4.196  0.2254 -0.2899  0.0733
   83MOL0     H10909   7.203  10.697   4.346  0.0521 -2.2271 -1.4422
   83MOL0     H10910   6.852  10.790   4.379 -0.0844  0.8273 -2.1300
   83MOL0     H10911   6.963  10.661   4.429  0.5321  3.3371  2.6964
   83MOL0     H10912   6.892  10.553   4.197  1.8277  1.1526  0.4264
   83MOL0     H10913   6.769  10.676   4.200 -0.5968 -0.9194  1.9071
   83MOL0     H10914   6.698  10.449   4.295  0.1613  0.7511  0.6729
   83MOL0     H10915   6.809  10.473   4.434 -3.0724 -0.1042  1.9668
   83MOL0     H10916   6.674  10.649   4.511 -1.4169 -0.5028  0.8337
   83MOL0     H10917   6.569  10.513   4.480  1.2174  0.0347  1.6809
   83MOL0     H10918   6.429  10.647   4.571  0.2754 -1.5752 -1.3907
   83MOL0     H10919   6.212  10.732   4.623  1.3007 -1.7354  0.7532
   83MOL0     H10920   5.745  10.729   4.471 -1.2099  0.7806 -0.1988
   83MOL0     H10921   5.530  10.814   4.554  2.2443 -3.0063 -0.6747
   83MOL0     H10922   5.334  10.940   4.640 -5.0065  2.8120 -2.1094
   83MOL0     H10923   5.442  11.031   4.529  4.1294 -0.5601  1.3995
   83MOL0     H10924   5.226  11.123   4.723 -0.5137  0.4042 -1.1533
   83MOL0     H10925   5.231  11.152   4.563 -2.5090  1.7557  1.0718
   83MOL0     H10926   5.424  11.324   4.603 -0.1387 -0.0807 -0.5510
   83MOL0     H10927   5.419  11.275   4.777 -3.4496  0.5086  2.1644
   83MOL0     H10928   5.299  11.486   4.699  0.3355  0.1390  1.1788
   83MOL0     H10929   5.193  11.380   4.599 -3.2776 -0.3363  2.7531
   83MOL0     H10930   5.201  11.319   4.890 -1.0948 -3.0903  0.1806
   83MOL0     H10931   5.073  11.283   4.776 -0.3899  0.9645 -1.6393
   83MOL0     H10932   5.128  11.559   4.899  1.4340 -3.2217  1.9508
   83MOL0     H10933   4.996  11.442   4.917 -1.7013 -1.3930 -1.6650
   83MOL0     H10934   5.061  11.577   4.655  0.2512  0.5595  0.2867
   83MOL0     H10935   4.934  11.462   4.679  1.2362 -0.1759 -2.3066
   83MOL0     H10936   4.841  11.698   4.683  2.5319  0.7522 -0.7797
   83MOL0     H10937   4.939  11.733   4.827 -1.4649 -0.1104  0.8392
   83MOL0     H10938   5.736  11.088   4.809  1.3342  1.5964 -1.6649
   83MOL0     H10939   5.954  11.010   4.706  1.4138 -2.0754 -0.1100
   83MOL0     H10940   6.218  10.933   4.245 -0.0050  0.8432  0.4258
   83MOL0     H10941   6.419  10.834   4.188  2.6335 -0.5211  1.1621
   83MOL0     H10942   8.439  11.077   4.104  2.1944 -0.5613 -0.4202
   83MOL0     H10943   8.626  11.075   3.964 -1.2210 -1.3145  2.7708
   83MOL0     H10944   8.742  11.226   3.528  0.4479  2.1106  0.9873
   83MOL0     H10945   8.949  11.300   3.431 -1.4829 -0.9170 -2.1041
   83MOL0     H10946   9.276  11.009   3.376  2.5411  0.4708 -3.4892
   83MOL0     H10947   9.350  11.102   3.509 -0.6632 -1.2641  0.1401
   83MOL0     H10948   9.447  11.063   3.268  1.2533 -0.1799 -1.3502
   83MOL0     H10949   9.336  11.179   3.208  0.3141  0.0957 -0.2749
   83MOL0     H10950   9.439  11.346   3.364 -0.0972 -1.2681  1.3247
   83MOL0     H10951   9.541  11.284   3.238  1.7585 -2.0752  0.1363
   83MOL0     H10952   9.569  11.195   3.529 -2.0949  2.2075 -0.5311
   83MOL0     H10953   9.628  11.110   3.390  2.8425 -0.4792  3.9535
   83MOL0     H10954   9.902  11.427   3.367  0.1752 -1.1578  1.2574
   83MOL0     H10955   9.167  10.967   3.613 -1.1196 -2.3658  0.9286
   83MOL0     H10956   8.959  10.884   3.672 -0.7487  0.6621 -0.7592
   84MOL0     O10957   2.261   2.123   2.948 -0.2564  0.1739  0.1065
   84MOL0     C10958   2.253   2.156   3.070  0.7259  0.8921  0.2591
   84MOL0     O10959   2.340   2.125   3.171  0.0773  0.4812  0.0783
   84MOL0     C10960   2.461   2.071   3.130  0.7418 -0.0028 -0.4364
   84MOL0     C10961   2.533   1.998   3.220 -0.4116  0.2118 -0.5199
   84MOL0     C10962   2.667   1.947   3.186 -0.2092  0.1800  0.0277
   84MOL0     C10963   2.731   1.982   3.074  0.0431 -0.5159 -0.4518
   84MOL0     O10964   2.852   1.918   3.046 -1.1622 -0.1653  0.2515
   84MOL0     C10965   2.889   1.864   2.912 -0.5290  0.2859  0.8530
   84MOL0     C10966   2.810   1.740   2.876  0.0383  0.2801 -1.0589
   84MOL0     C10967   2.664   1.757   2.829  0.6948 -0.2384 -0.2742
   84MOL0     C10968   2.584   1.627   2.828  0.1726  0.6587 -0.4560
   84MOL0     C10969   2.440   1.647   2.791  0.4961 -0.3155  0.1076
   84MOL0     C10970   2.357   1.746   2.891  0.4617  0.1002 -0.3098
   84MOL0     C10971   2.206   1.733   2.877 -0.4514  0.6837 -0.4966
   84MOL0     C10972   2.121   1.802   2.982 -0.5437 -0.0468  0.0979
   84MOL0     N10973   1.983   1.789   2.947 -0.4340  0.1548  0.2770
   84MOL0     C10974   1.903   1.677   2.933 -0.6195  0.9950 -0.6304
   84MOL0     C10975   1.775   1.730   2.921 -0.6690  0.2542  0.3799
   84MOL0     C10976   1.648   1.644   2.924  0.0737 -0.0767 -0.0749
   84MOL0     C10977   1.524   1.729   2.964 -0.3502 -0.0896 -0.4904
   84MOL0     C10978   1.421   1.631   3.012 -0.0653 -0.7956  0.4406
   84MOL0     C10979   1.284   1.688   3.064  0.4739  0.1534 -0.8856
   84MOL0     O10980   1.215   1.710   2.949 -0.0379  0.6474 -0.4091
   84MOL0     C10981   1.081   1.724   2.963  0.4588  0.4289  0.2413
   84MOL0     C10982   1.016   1.757   2.844  0.1646 -0.6449  0.2601
   84MOL0     C10983   0.886   1.791   2.837 -0.2284  0.7543 -0.5532
   84MOL0     C10984   0.806   1.770   2.957 -0.1262  0.0997  0.1408
   84MOL0     C10985   0.665   1.794   2.957  0.1128  0.7863  0.4865
   84MOL0     O10986   0.594   1.742   3.062 -0.0550 -0.1026 -0.9069
   84MOL0     C10987   0.462   1.769   3.071 -0.3087 -0.2270 -0.4491
   84MOL0     C10988   0.374   1.745   2.965 -0.4185 -0.2820  0.7071
   84MOL0     C10989   0.235   1.756   2.978 -0.0131 -0.5083 -0.3654
   84MOL0     C10990   0.196   1.824   3.099  0.5502 -0.4090 -0.4817
   84MOL0     O10991   0.060   1.850   3.121  0.5123  0.2419 -0.2553
   84MOL0     C10992  -0.029   1.756   3.057  0.5070  0.4656  0.5234
   84MOL0     C10993  -0.163   1.766   3.121  0.1879 -0.0884  0.0918
   84MOL0     C10994  -0.242   1.897   3.080 -0.4516  0.8594 -0.1645
   84MOL0     C10995  -0.392   1.870   3.085 -0.8828 -0.3885  0.0836
   84MOL0     C10996  -0.481   1.997   3.056  0.2537  0.8689  0.2122
   84MOL0     C10997  -0.628   1.939   3.058  0.4234 -0.2799  0.0508
   84MOL0     C10998  -0.735   2.047   3.082  0.1511 -0.2050  0.1244
   84MOL0     C10999  -0.703   2.166   2.998  0.8148  0.2974  1.0770
   84MOL0    Cl11000  -0.843   2.267   2.966 -0.3788  0.0470 -0.1074
   84MOL0     C11001   0.277   1.844   3.206 -1.1174  0.6064 -0.4156
   84MOL0     C11002   0.412   1.812   3.192 -0.3171  0.1396  0.2239
   84MOL0     O11003   0.621   1.858   2.860  0.0750 -0.3660 -0.1604
   84MOL0     C11004   0.866   1.716   3.070 -0.0903 -1.1508 -0.3777
   84MOL0     C11005   1.001   1.705   3.082 -0.3726  0.8682  0.0278
   84MOL0     N11006   1.777   1.869   2.914 -0.3401  0.1747 -0.7336
   84MOL0     N11007   1.903   1.898   2.927 -0.3018  0.5769  0.5864
   84MOL0     C11008   2.664   2.071   2.990  0.4983  1.4058 -0.3293
   84MOL0     C11009   2.537   2.118   3.027 -0.8018 -0.2583  0.0911
   84MOL0     C11010   2.142   2.234   3.118 -1.2351 -0.8233  0.1682
   84MOL0     C11011   2.143   2.289   3.249 -0.5131 -0.6765  0.0704
   84MOL0     C11012   2.030   2.344   3.302  0.4596 -0.1439  0.8073
   84MOL0     C11013   1.917   2.346   3.230  0.2378 -0.0906 -1.1217
   84MOL0     O11014   1.795   2.409   3.271  0.2503 -0.8231  0.1540
   84MOL0     C11015   1.811   2.526   3.349 -0.1133  0.1379 -0.0515
   84MOL0     C11016   1.684   2.605   3.347  1.0963 -0.1179 -0.0521
   84MOL0     C11017   1.636   2.682   3.220 -1.1980  0.2426 -0.0811
   84MOL0     C11018   1.502   2.744   3.230  0.4176 -0.4270  0.0073
   84MOL0     C11019   1.474   2.851   3.131 -0.2994 -0.0748  0.0959
   84MOL0     C11020   1.450   2.928   3.034 -0.8134  0.4586  1.0754
   84MOL0     C11021   1.912   2.302   3.103 -0.2316 -0.5197  0.1449
   84MOL0     C11022   2.021   2.231   3.046  1.1776  0.6174 -0.6581
   84MOL0     H11023   2.492   1.965   3.316  0.2654 -0.1987 -0.3648
   84MOL0     H11024   2.723   1.880   3.251  0.1741  1.8623  1.5427
   84MOL0     H11025   2.995   1.840   2.910 -0.6101 -0.1443  1.3601
   84MOL0     H11026   2.875   1.934   2.830 -2.1272  0.4154  1.1998
   84MOL0     H11027   2.818   1.657   2.947 -3.5251  0.2611 -0.5243
   84MOL0     H11028   2.867   1.698   2.793  0.7193  0.1464 -0.5418
   84MOL0     H11029   2.650   1.808   2.733 -2.0927  0.1544  0.2512
   84MOL0     H11030   2.611   1.832   2.889 -1.4960 -0.4563 -1.8297
   84MOL0     H11031   2.626   1.551   2.761  0.7553  0.3542  0.2310
   84MOL0     H11032   2.592   1.580   2.927 -0.0433 -3.2989 -2.1615
   84MOL0     H11033   2.390   1.549   2.795  1.1120 -0.8975 -3.2458
   84MOL0     H11034   2.427   1.686   2.689 -1.5179 -1.7702 -0.2756
   84MOL0     H11035   2.382   1.849   2.865 -0.4031  0.3821 -0.0543
   84MOL0     H11036   2.385   1.717   2.992  0.0808  0.3067 -0.1425
   84MOL0     H11037   2.174   1.757   2.775 -0.2242 -2.9729 -1.5458
   84MOL0     H11038   2.177   1.628   2.886 -3.6992  1.5368  0.4192
   84MOL0     H11039   2.137   1.909   2.993  1.0109 -0.1829 -0.5386
   84MOL0     H11040   2.133   1.758   3.082 -0.1608  0.4808  0.2880
   84MOL0     H11041   1.925   1.572   2.946 -1.6058  0.8364 -0.1727
   84MOL0     H11042   1.656   1.561   2.995 -6.2489 -2.5469 -1.5654
   84MOL0     H11043   1.621   1.597   2.829  0.0803 -0.2992  0.0341
   84MOL0     H11044   1.479   1.787   2.883  1.7646  0.8235 -1.0574
   84MOL0     H11045   1.553   1.797   3.045 -0.9325 -1.4700  0.9269
   84MOL0     H11046   1.402   1.567   2.925  1.5761 -1.3939  0.4865
   84MOL0     H11047   1.463   1.562   3.086 -0.0371 -0.1673  1.0145
   84MOL0     H11048   1.299   1.778   3.123 -2.5491  1.4175 -1.8662
   84MOL0     H11049   1.231   1.619   3.131  0.2556 -0.0650 -1.2765
   84MOL0     H11050   1.079   1.778   2.758 -1.2337 -3.5079 -1.6320
   84MOL0     H11051   0.845   1.842   2.750 -0.8168  0.1315 -0.6499
   84MOL0     H11052   0.419   1.711   2.872  1.5053  1.2094  1.0239
   84MOL0     H11053   0.172   1.730   2.893 -0.0375  1.8375 -1.1567
   84MOL0     H11054   0.016   1.657   3.068  0.6241  0.2171 -1.8332
   84MOL0     H11055  -0.041   1.767   2.949 -2.4088  0.0071  0.7166
   84MOL0     H11056  -0.152   1.774   3.229  0.1420  0.8352  0.0422
   84MOL0     H11057  -0.232   1.684   3.100  0.2028 -0.8786  2.7571
   84MOL0     H11058  -0.218   1.920   2.976 -1.9098 -0.6290 -0.8746
   84MOL0     H11059  -0.229   1.981   3.148 -1.0923 -1.2631  2.7717
   84MOL0     H11060  -0.420   1.789   3.017 -2.3581  1.0398 -1.0871
   84MOL0     H11061  -0.421   1.819   3.178 -0.8397 -1.4834 -0.4874
   84MOL0     H11062  -0.460   2.028   2.953  2.8514 -2.1356 -0.3023
   84MOL0     H11063  -0.444   2.066   3.132  3.2209 -1.7886  1.4118
   84MOL0     H11064  -0.622   1.870   3.143 -2.2218 -0.7354 -0.0318
   84MOL0     H11065  -0.648   1.889   2.963  0.4351  3.2186 -1.9731
   84MOL0     H11066  -0.838   2.018   3.057 -0.2693  1.7225 -0.6130
   84MOL0     H11067  -0.731   2.081   3.186 -0.0598  0.8519 -0.1928
   84MOL0     H11068  -0.676   2.128   2.898 -2.8170 -0.0113  0.0578
   84MOL0     H11069  -0.624   2.229   3.040  0.2003  0.3250  2.2184
   84MOL0     H11070   0.235   1.889   3.296 -1.8444 -0.0005 -0.4354
   84MOL0     H11071   0.485   1.818   3.273 -1.4733  0.1696  1.2919
   84MOL0     H11072   0.796   1.696   3.150 -0.6100 -4.3135 -1.4548
   84MOL0     H11073   1.037   1.673   3.179 -1.0647 -1.0921 -0.3090
   84MOL0     H11074   2.709   2.095   2.894 -1.6494 -0.1721 -1.8264
   84MOL0     H11075   2.492   2.192   2.962  1.2455  2.3145  1.3881
   84MOL0     H11076   2.238   2.299   3.299 -0.8567  2.4623  0.2903
   84MOL0     H11077   2.028   2.382   3.404 -2.8704 -1.8132  1.4926
   84MOL0     H11078   1.895   2.580   3.305  0.8569 -2.7248 -2.0255
   84MOL0     H11079   1.838   2.496   3.451  2.3412  0.9480 -0.3908
   84MOL0     H11080   1.599   2.539   3.367  2.1004 -1.9675 -1.6360
   84MOL0     H11081   1.689   2.686   3.421  1.0018  0.6021 -0.8171
   84MOL0     H11082   1.629   2.612   3.135 -2.2375 -0.6402  0.7032
   84MOL0     H11083   1.697   2.767   3.190 -1.7310 -0.0855 -2.3122
   84MOL0     H11084   1.420   2.674   3.214 -1.6541  1.4281  1.8016
   84MOL0     H11085   1.482   2.795   3.325  0.3550  0.5046 -0.4946
   84MOL0     H11086   1.414   2.976   2.945 -1.5719 -2.6371 -0.4632
   84MOL0     H11087   1.818   2.296   3.049 -1.0581  1.5439  1.2603
   84MOL0     H11088   2.000   2.175   2.955 -3.3169  0.7349  0.0407
   85MOL0     O11089   8.396   8.482   7.302  0.1825  0.2114 -0.3513
   85MOL0     C11090   8.497   8.552   7.312 -0.1615 -0.8846  0.1546
   85MOL0     O11091   8.507   8.668   7.390  0.0226 -0.3535 -0.7377
   85MOL0     C11092   8.390   8.697   7.465  0.4060 -1.0766  0.0372
   85MOL0     C11093   8.384   8.690   7.607  0.3561 -0.0863 -0.2834
   85MOL0     C11094   8.273   8.745   7.684  0.4514  0.1178 -0.3757
   85MOL0     C11095   8.169   8.805   7.618  1.3986 -1.0108 -0.1467
   85MOL0     O11096   8.048   8.844   7.673  0.3431  0.3655  0.3653
   85MOL0     C11097   7.994   8.778   7.784  0.1369  1.0928  0.9218
   85MOL0     C11098   7.899   8.866   7.870  0.6855  0.0537 -0.1040
   85MOL0     C11099   7.766   8.788   7.891  0.2964 -0.5395  0.4001
   85MOL0     C11100   7.663   8.875   7.969 -0.0098  0.0417 -0.5531
   85MOL0     C11101   7.526   8.814   8.005 -0.8206  1.1585 -0.2612
   85MOL0     C11102   7.451   8.779   7.870 -0.0486 -0.4829 -0.2798
   85MOL0     C11103   7.316   8.712   7.861 -0.1940 -0.1747  0.1408
   85MOL0     C11104   7.260   8.711   7.710 -0.1817 -0.7616 -0.2483
   85MOL0     N11105   7.129   8.644   7.695  0.4492  0.1878  0.4303
   85MOL0     C11106   7.002   8.706   7.705 -0.6517 -0.5091  0.8978
   85MOL0     C11107   6.909   8.610   7.698 -0.7391 -0.3138  0.4138
   85MOL0     C11108   6.761   8.637   7.714  0.5541  0.0349  0.6742
   85MOL0     C11109   6.684   8.515   7.747 -0.6206 -0.3526 -0.5033
   85MOL0     C11110   6.538   8.553   7.775  0.0962  0.2914  0.2053
   85MOL0     C11111   6.451   8.428   7.786  0.8828  1.0943  0.1440
   85MOL0     O11112   6.311   8.451   7.753  0.5237 -0.1619 -0.1056
   85MOL0     C11113   6.209   8.439   7.842 -0.0424 -0.4874 -0.3566
   85MOL0     C11114   6.224   8.468   7.977  0.3691  0.5415 -0.0018
   85MOL0     C11115   6.112   8.470   8.065  1.1697 -0.1856  0.3334
   85MOL0     C11116   5.989   8.424   8.020 -0.1175 -0.1319 -0.5626
   85MOL0     C11117   5.873   8.406   8.116 -0.7848  0.6862  0.9765
   85MOL0     O11118   5.763   8.364   8.057  0.7625 -0.0579  0.3894
   85MOL0     C11119   5.649   8.322   8.129  0.5320  0.6093  0.1432
   85MOL0     C11120   5.534   8.350   8.063 -0.5805 -0.5572 -1.3284
   85MOL0     C11121   5.413   8.320   8.128 -0.3783  0.5537 -0.0529
   85MOL0     C11122   5.401   8.247   8.238 -0.6780  0.1612 -0.8397
   85MOL0     O11123   5.281   8.214   8.301 -0.2217  0.0488  0.2131
   85MOL0     C11124   5.160   8.286   8.273  0.5736 -1.4162  0.7135
   85MOL0     C11125   5.052   8.239   8.376 -1.1560 -0.0067 -0.2389
   85MOL0     C11126   5.035   8.087   8.371 -0.0674  0.1207  0.2162
   85MOL0     C11127   4.970   8.042   8.500 -0.4546  1.0137  0.3008
   85MOL0     C11128   4.939   7.898   8.484  0.3592  0.1767 -0.0647
   85MOL0     C11129   4.909   7.827   8.612 -0.1868 -0.1129 -0.7350
   85MOL0     C11130   4.889   7.667   8.595  1.0711  0.0374 -0.3080
   85MOL0     C11131   4.845   7.608   8.724  0.4445  0.5239 -0.3987
   85MOL0    Cl11132   4.664   7.621   8.736 -0.1910 -0.5516  0.4801
   85MOL0     C11133   5.522   8.212   8.290 -0.2556 -0.0963 -0.1692
   85MOL0     C11134   5.649   8.251   8.244  0.1335 -0.1975  0.7060
   85MOL0     O11135   5.898   8.410   8.237  0.4401 -0.1150 -0.0927
   85MOL0     C11136   5.981   8.391   7.893  0.2485  0.2679  1.0023
   85MOL0     C11137   6.089   8.387   7.797 -0.5052  0.3060  0.0745
   85MOL0     N11138   6.979   8.491   7.693 -0.3703  0.0707 -1.0504
   85MOL0     N11139   7.110   8.507   7.693 -1.1827  0.9513 -0.7355
   85MOL0     C11140   8.163   8.799   7.479 -0.3395  0.3280 -0.8063
   85MOL0     C11141   8.274   8.751   7.405  1.2007  0.0694 -0.2264
   85MOL0     C11142   8.619   8.511   7.242  0.6734 -0.1501 -0.9773
   85MOL0     C11143   8.737   8.591   7.245 -0.1951 -0.4315  0.6542
   85MOL0     C11144   8.851   8.548   7.174  0.5726  0.3459 -0.6252
   85MOL0     C11145   8.860   8.418   7.114  0.3133  0.0918 -0.5894
   85MOL0     O11146   8.955   8.362   7.043 -0.9242 -0.1289 -0.4765
   85MOL0     C11147   9.084   8.418   7.038  0.3818  0.0194  0.3179
   85MOL0     C11148   9.080   8.507   6.911 -0.5461 -0.7588  0.3626
   85MOL0     C11149   9.189   8.617   6.909 -0.5788  0.0579  0.5841
   85MOL0     C11150   9.335   8.552   6.930  0.2603  0.0156 -0.8047
   85MOL0     C11151   9.370   8.547   7.070  0.4107  0.0147 -1.0149
   85MOL0     C11152   9.416   8.549   7.176  0.1036 -0.0641  0.3546
   85MOL0     C11153   8.740   8.346   7.116 -0.7006 -0.0696 -0.1586
   85MOL0     C11154   8.617   8.386   7.180  0.2803 -0.1604  0.1903
   85MOL0     H11155   8.452   8.628   7.664 -2.0590 -1.3424  1.3995
   85MOL0     H11156   8.267   8.749   7.792  0.9501  1.0027 -0.3769
   85MOL0     H11157   8.068   8.749   7.859 -1.2035  1.4323  2.4333
   85MOL0     H11158   7.936   8.693   7.748  2.8855 -1.3762  1.9739
   85MOL0     H11159   7.874   8.956   7.813 -0.6078 -1.6337 -2.3649
   85MOL0     H11160   7.944   8.896   7.965  1.1584 -0.6807 -0.0946
   85MOL0     H11161   7.787   8.696   7.945  1.1765  1.5690  3.9063
   85MOL0     H11162   7.714   8.763   7.797 -1.3950 -0.6598  1.3245
   85MOL0     H11163   7.723   8.917   8.051  2.6924 -1.0317 -1.8573
   85MOL0     H11164   7.640   8.967   7.913 -0.6269 -0.0440 -0.4523
   85MOL0     H11165   7.468   8.884   8.065  0.6145  1.4848  0.8005
   85MOL0     H11166   7.548   8.721   8.059  4.2535  2.5853  0.6152
   85MOL0     H11167   7.512   8.717   7.803  0.5357 -1.8560  1.4543
   85MOL0     H11168   7.432   8.872   7.815 -2.9578 -1.7985 -1.6598
   85MOL0     H11169   7.316   8.612   7.905 -0.5391 -0.9650 -1.5687
   85MOL0     H11170   7.249   8.773   7.923 -0.1761  0.9630 -0.9196
   85MOL0     H11171   7.336   8.667   7.644  1.1417 -0.3835  0.9534
   85MOL0     H11172   7.252   8.816   7.683 -0.1000 -0.3264  1.2869
   85MOL0     H11173   6.985   8.812   7.722 -1.0527 -0.4155 -0.0104
   85MOL0     H11174   6.716   8.674   7.621  2.8831 -0.4267 -0.7452
   85MOL0     H11175   6.735   8.712   7.788 -1.2295  2.4349 -2.1697
   85MOL0     H11176   6.734   8.464   7.830  1.3814 -0.1442 -1.5156
   85MOL0     H11177   6.695   8.444   7.665  0.4981  1.9053 -2.4213
   85MOL0     H11178   6.532   8.610   7.868  0.7665  1.5734 -0.5092
   85MOL0     H11179   6.504   8.621   7.696 -1.9453 -0.6409  0.2374
   85MOL0     H11180   6.459   8.395   7.890  0.5521  0.0301 -0.1524
   85MOL0     H11181   6.483   8.341   7.728  1.2570  1.4249 -0.1505
   85MOL0     H11182   6.313   8.517   8.015  1.0922  3.3944 -4.6135
   85MOL0     H11183   6.123   8.495   8.170 -0.8250  0.8628  0.3551
   85MOL0     H11184   5.555   8.408   7.974  1.0185  0.0217 -0.6135
   85MOL0     H11185   5.317   8.357   8.091  0.2849  1.9543 -0.4288
   85MOL0     H11186   5.128   8.293   8.169  0.8831 -0.0273  0.6932
   85MOL0     H11187   5.171   8.392   8.297 -1.5286 -1.3398  1.6294
   85MOL0     H11188   4.955   8.289   8.363 -0.9135  0.7182  0.6579
   85MOL0     H11189   5.089   8.266   8.475 -1.5673 -1.1197  0.2299
   85MOL0     H11190   5.134   8.040   8.370 -0.9850 -1.8961 -0.7230
   85MOL0     H11191   4.976   8.058   8.284  0.4888  2.1690 -0.8967
   85MOL0     H11192   5.036   8.061   8.585  0.2693 -2.5098  0.6461
   85MOL0     H11193   4.877   8.098   8.512 -2.7323 -1.9356 -1.9766
   85MOL0     H11194   5.025   7.852   8.434  1.5515  0.4579  1.6823
   85MOL0     H11195   4.859   7.886   8.410  1.1557  1.5978 -1.2090
   85MOL0     H11196   4.822   7.881   8.650  0.3005 -0.2527  0.6642
   85MOL0     H11197   4.997   7.845   8.676 -0.1122 -0.7766 -0.6383
   85MOL0     H11198   4.823   7.645   8.510  1.5096  0.8436 -0.8754
   85MOL0     H11199   4.983   7.618   8.569  1.6812  1.6193 -1.2148
   85MOL0     H11200   4.890   7.651   8.813  2.0589 -0.9812 -0.4449
   85MOL0     H11201   4.869   7.502   8.712 -0.9069  0.0743  0.6903
   85MOL0     H11202   5.520   8.160   8.385  0.9512  0.6483  0.2852
   85MOL0     H11203   5.740   8.238   8.302 -1.0274 -1.5949  2.3237
   85MOL0     H11204   5.892   8.351   7.845  3.1828 -1.9055 -3.2793
   85MOL0     H11205   6.071   8.357   7.694 -2.5609  0.9417  0.2073
   85MOL0     H11206   8.090   8.845   7.415 -3.4678  1.4097  3.1352
   85MOL0     H11207   8.263   8.754   7.297  2.0728 -0.4481 -0.3407
   85MOL0     H11208   8.742   8.689   7.291  1.8595 -0.9441  1.6226
   85MOL0     H11209   8.932   8.616   7.149  1.7296 -0.3163  1.1382
   85MOL0     H11210   9.166   8.347   7.024  0.8940  0.6139  0.2335
   85MOL0     H11211   9.102   8.486   7.123  2.4519 -2.3385  1.9004
   85MOL0     H11212   9.090   8.440   6.825  1.0674 -2.8250  2.0406
   85MOL0     H11213   8.989   8.568   6.903  0.8079  1.8651  3.1439
   85MOL0     H11214   9.169   8.699   6.978  0.0925  3.7003 -3.1619
   85MOL0     H11215   9.193   8.669   6.814  2.4441 -0.6346  0.2207
   85MOL0     H11216   9.326   8.452   6.886  1.8079 -0.1240 -0.8480
   85MOL0     H11217   9.421   8.600   6.882  0.3789  1.5240  0.7954
   85MOL0     H11218   9.472   8.549   7.268  2.8987  1.6815 -1.1926
   85MOL0     H11219   8.735   8.256   7.056  2.0490  0.5563 -1.5096
   85MOL0     H11220   8.527   8.325   7.177 -0.5175  0.8541  1.9786
   86MOL0     O11221   3.905   3.304   8.881 -0.2539  0.4386  0.1722
   86MOL0     C11222   3.988   3.218   8.852  0.4860 -0.7983 -0.0336
   86MOL0     O11223   3.961   3.086   8.849  0.4433  0.1957  0.7252
   86MOL0     C11224   3.835   3.047   8.888 -0.0463  0.0454 -0.5598
   86MOL0     C11225   3.727   3.033   8.806  0.1418  1.2499  0.1488
   86MOL0     C11226   3.610   2.975   8.848 -0.3271  0.3189  0.0493
   86MOL0     C11227   3.595   2.946   8.985  0.1792  0.2896 -0.3239
   86MOL0     O11228   3.477   2.908   9.039  0.5339 -0.4159  0.2549
   86MOL0     C11229   3.374   2.844   8.966  0.1091  0.4618  0.4695
   86MOL0     C11230   3.244   2.866   9.041  0.2122 -0.5257 -0.0565
   86MOL0     C11231   3.147   2.974   8.983 -0.3803  0.8086  0.7517
   86MOL0     C11232   3.089   2.940   8.845 -0.0576  1.1145  0.3493
   86MOL0     C11233   3.025   2.805   8.840  0.5804  0.3914 -0.0058
   86MOL0     C11234   2.899   2.821   8.939  0.6419  0.2913  0.0288
   86MOL0     C11235   2.811   2.713   8.878  1.1896  0.1470 -0.4262
   86MOL0     C11236   2.667   2.757   8.897  0.9865 -0.7900 -1.3267
   86MOL0     N11237   2.584   2.657   8.839  0.9114  0.5204  0.4998
   86MOL0     C11238   2.564   2.532   8.890  0.7326 -0.1456  0.5931
   86MOL0     C11239   2.498   2.467   8.788  0.4906  0.4857 -0.3080
   86MOL0     C11240   2.469   2.314   8.790 -0.4572 -0.6415  0.4046
   86MOL0     C11241   2.317   2.287   8.793 -0.3065 -0.9246  0.0277
   86MOL0     C11242   2.296   2.142   8.766  0.4295  0.5919 -0.4963
   86MOL0     C11243   2.362   2.050   8.872 -0.8986 -0.3949  0.6952
   86MOL0     O11244   2.321   2.049   9.010  0.2984 -0.1090  0.0647
   86MOL0     C11245   2.187   2.035   9.019  0.2872 -0.5523 -0.0779
   86MOL0     C11246   2.105   2.128   9.089 -0.3104  0.4875 -0.4648
   86MOL0     C11247   1.969   2.107   9.091 -0.4384  0.4782 -0.5058
   86MOL0     C11248   1.899   2.013   9.018 -0.1529 -0.1091 -0.2070
   86MOL0     C11249   1.753   2.013   9.020  0.3520 -1.3043 -0.8583
   86MOL0     O11250   1.699   1.892   8.990 -0.0874  0.4315 -0.0331
   86MOL0     C11251   1.566   1.869   8.992  0.3884 -1.1039 -0.7396
   86MOL0     C11252   1.518   1.760   8.926 -0.0520 -0.6539  0.3101
   86MOL0     C11253   1.383   1.732   8.905  0.2486  0.3769 -0.3765
   86MOL0     C11254   1.282   1.817   8.961 -1.0550 -0.1561 -0.2228
   86MOL0     O11255   1.155   1.776   8.960  0.1040  0.1393 -0.2669
   86MOL0     C11256   1.081   1.801   9.086  0.3970 -0.7225  0.4765
   86MOL0     C11257   0.935   1.749   9.083 -0.8365 -0.3835  0.0345
   86MOL0     C11258   0.929   1.594   9.128 -0.0947  0.4908 -0.2488
   86MOL0     C11259   0.779   1.556   9.141  0.7037 -0.0109  0.0483
   86MOL0     C11260   0.694   1.591   9.017 -0.9827 -0.2297 -0.1708
   86MOL0     C11261   0.564   1.510   9.003  0.3047 -0.5053  0.1660
   86MOL0     C11262   0.495   1.524   8.869  0.1872 -0.1719  0.1537
   86MOL0     C11263   0.351   1.480   8.866 -0.3128  0.0442 -0.7948
   86MOL0    Cl11264   0.241   1.553   8.989 -0.0947 -0.3401 -0.0211
   86MOL0     C11265   1.335   1.922   9.039 -0.2220  0.5676 -0.3708
   86MOL0     C11266   1.467   1.954   9.050 -0.8001 -0.5471 -0.4618
   86MOL0     O11267   1.696   2.125   9.023  0.2418  0.2826 -0.0495
   86MOL0     C11268   1.975   1.924   8.947 -0.1684  0.0686  0.4096
   86MOL0     C11269   2.114   1.932   8.946  0.0070 -0.7426 -0.9264
   86MOL0     N11270   2.485   2.555   8.685  0.2392  0.4760  0.7462
   86MOL0     N11271   2.524   2.666   8.717 -0.0434 -0.2137  0.1071
   86MOL0     C11272   3.709   2.955   9.070 -0.2079  0.6079 -0.2412
   86MOL0     C11273   3.830   3.001   9.022  0.1220 -0.1434 -0.0086
   86MOL0     C11274   4.122   3.255   8.802  0.3170  0.1804  0.6968
   86MOL0     C11275   4.201   3.157   8.727 -0.2469 -0.2745 -0.0793
   86MOL0     C11276   4.331   3.194   8.688  0.0822  1.4407 -0.8788
   86MOL0     C11277   4.398   3.307   8.710 -0.3106  0.1474  0.1653
   86MOL0     O11278   4.528   3.315   8.664  0.5980  0.1040 -0.3341
   86MOL0     C11279   4.578   3.445   8.637  0.3318  0.1622  0.6779
   86MOL0     C11280   4.716   3.414   8.570  0.2814 -0.7062 -0.1861
   86MOL0     C11281   4.823   3.402   8.678 -0.5405  1.2944  0.3101
   86MOL0     C11282   4.961   3.351   8.626  0.6137 -0.4010  0.3190
   86MOL0     C11283   5.034   3.475   8.601 -0.8933 -0.4239 -0.0602
   86MOL0     C11284   5.105   3.577   8.573 -0.3258  0.0800  0.4482
   86MOL0     C11285   4.322   3.407   8.775 -0.3927  0.1229  1.1547
   86MOL0     C11286   4.189   3.382   8.823  0.1357  0.0480 -0.3885
   86MOL0     H11287   3.727   3.061   8.702 -2.0607  0.3715 -0.1370
   86MOL0     H11288   3.533   2.952   8.776  0.4912  2.6068 -1.7032
   86MOL0     H11289   3.398   2.738   8.977 -3.5484 -0.4662  0.8384
   86MOL0     H11290   3.370   2.874   8.861  1.6312 -2.0910 -0.4219
   86MOL0     H11291   3.252   2.887   9.149 -3.4974  0.7534  0.1311
   86MOL0     H11292   3.203   2.766   9.053 -1.1451 -0.1259 -1.0675
   86MOL0     H11293   3.206   3.065   8.970  3.0125 -1.2771  0.0887
   86MOL0     H11294   3.064   2.999   9.050 -0.5631  3.1829 -0.2807
   86MOL0     H11295   3.033   3.023   8.802  0.6255  2.0218  1.1509
   86MOL0     H11296   3.181   2.928   8.787 -1.0249  0.3138 -1.0888
   86MOL0     H11297   3.101   2.733   8.873  1.3419  1.6339  1.0328
   86MOL0     H11298   2.989   2.772   8.742 -1.7411 -1.0228  1.2166
   86MOL0     H11299   2.838   2.911   8.932 -3.2916 -2.2258 -1.1352
   86MOL0     H11300   2.928   2.795   9.041 -1.1755  0.9880  0.7521
   86MOL0     H11301   2.829   2.677   8.777 -1.6999 -0.3689 -0.8535
   86MOL0     H11302   2.829   2.630   8.947  0.8066 -0.6296 -1.2572
   86MOL0     H11303   2.635   2.847   8.843  0.8487 -0.1971 -0.2719
   86MOL0     H11304   2.641   2.766   9.003  2.0147  0.9792 -1.1964
   86MOL0     H11305   2.603   2.497   8.985  0.5202  1.4860  1.3212
   86MOL0     H11306   2.512   2.283   8.886  0.9043  1.1674  0.4381
   86MOL0     H11307   2.520   2.268   8.705 -0.1694  0.7884 -0.2317
   86MOL0     H11308   2.274   2.340   8.708  2.5470  0.9826 -0.3859
   86MOL0     H11309   2.266   2.314   8.886  1.0694  3.5207 -0.2618
   86MOL0     H11310   2.188   2.125   8.765  0.3403  0.8153  1.2130
   86MOL0     H11311   2.323   2.126   8.662 -1.9160 -1.0993 -0.9383
   86MOL0     H11312   2.470   2.070   8.875 -1.0228  0.4940  4.8550
   86MOL0     H11313   2.356   1.945   8.841  0.1673 -0.0632 -0.7680
   86MOL0     H11314   2.155   2.213   9.135  0.9110 -0.8697  0.8127
   86MOL0     H11315   1.917   2.182   9.150 -0.8324 -0.4534  0.3720
   86MOL0     H11316   1.595   1.698   8.882  1.5060  3.4450 -3.5165
   86MOL0     H11317   1.343   1.650   8.846 -2.7417  2.9177 -2.2084
   86MOL0     H11318   1.070   1.908   9.108 -0.9168 -0.4765 -1.1379
   86MOL0     H11319   1.123   1.754   9.175 -0.3004 -0.0081  1.1900
   86MOL0     H11320   0.896   1.760   8.981  2.3696  1.5264 -1.1466
   86MOL0     H11321   0.878   1.820   9.143  1.4503  0.3083  1.5145
   86MOL0     H11322   0.991   1.579   9.217 -1.7275 -3.8580  0.4024
   86MOL0     H11323   0.983   1.535   9.053 -0.0567  0.4978 -0.2265
   86MOL0     H11324   0.778   1.448   9.157  2.3516 -0.2095 -0.8986
   86MOL0     H11325   0.726   1.603   9.224 -1.7023 -2.3970 -0.0077
   86MOL0     H11326   0.759   1.571   8.931  1.5622 -0.3327  1.6600
   86MOL0     H11327   0.676   1.698   9.029  0.2647 -0.0727  0.4931
   86MOL0     H11328   0.489   1.545   9.074 -1.4149 -0.4565 -1.6046
   86MOL0     H11329   0.586   1.406   9.029 -0.7400 -0.2622  2.2498
   86MOL0     H11330   0.499   1.631   8.848 -1.1911 -0.2109 -0.3836
   86MOL0     H11331   0.544   1.463   8.792 -0.4078 -2.8401  1.7435
   86MOL0     H11332   0.362   1.373   8.886  0.4346 -0.4493 -3.4413
   86MOL0     H11333   0.303   1.496   8.770 -1.6505  0.0519 -0.1431
   86MOL0     H11334   1.256   1.977   9.088 -2.7846 -1.8955 -1.4126
   86MOL0     H11335   1.488   2.036   9.118  1.9795 -0.9294 -0.7541
   86MOL0     H11336   1.934   1.845   8.885  0.3630 -1.2047  1.6267
   86MOL0     H11337   2.167   1.858   8.886 -0.4959 -2.3077  0.4825
   86MOL0     H11338   3.699   2.909   9.168 -2.3618  2.4700  0.4965
   86MOL0     H11339   3.916   2.991   9.086  2.1294  0.0901 -2.5130
   86MOL0     H11340   4.168   3.059   8.694  3.7131 -1.3306 -1.4741
   86MOL0     H11341   4.386   3.129   8.621 -1.9406  1.4586 -2.6531
   86MOL0     H11342   4.582   3.504   8.729 -3.0559  1.6582  0.0481
   86MOL0     H11343   4.517   3.493   8.559 -1.7991 -1.3499  1.3186
   86MOL0     H11344   4.717   3.319   8.514 -0.7750 -2.4173  2.4992
   86MOL0     H11345   4.742   3.500   8.507 -2.4458 -0.1507 -0.7063
   86MOL0     H11346   4.796   3.323   8.749  2.7508 -0.3635 -0.0443
   86MOL0     H11347   4.821   3.493   8.738  1.7759  1.4961  0.1662
   86MOL0     H11348   5.013   3.299   8.707 -0.9029 -3.5791 -0.6056
   86MOL0     H11349   4.953   3.284   8.541 -0.3907  0.2463 -0.1185
   86MOL0     H11350   5.161   3.664   8.546 -2.6785  2.2077  1.8730
   86MOL0     H11351   4.362   3.508   8.778 -3.2113  1.5324 -1.9441
   86MOL0     H11352   4.148   3.463   8.881  2.6796  1.0609  0.1293
   87MOL0     O11353   8.920   5.754   1.516  0.1002 -0.3111  0.1735
   87MOL0     C11354   8.961   5.840   1.592  0.3700  0.0740  0.3511
   87MOL0     O11355   8.880   5.928   1.657  0.2945 -0.2605 -0.1638
   87MOL0     C11356   8.742   5.919   1.643 -0.1255  0.1015 -0.3445
   87MOL0     C11357   8.673   5.803   1.698 -0.4276 -0.0827  0.2409
   87MOL0     C11358   8.542   5.789   1.677 -0.6468  0.5815 -0.4134
   87MOL0     C11359   8.470   5.879   1.589  0.1953 -0.2152 -0.6842
   87MOL0     O11360   8.339   5.865   1.552  0.2759  0.7990  0.4149
   87MOL0     C11361   8.254   5.752   1.596 -0.5986  0.2235 -0.6588
   87MOL0     C11362   8.117   5.773   1.549 -0.6532  0.4001 -0.5243
   87MOL0     C11363   8.038   5.638   1.543 -0.7943 -0.2897  0.7165
   87MOL0     C11364   7.896   5.657   1.499 -0.6706  0.0737  0.6916
   87MOL0     C11365   7.802   5.690   1.606 -0.1380 -0.1932 -1.3198
   87MOL0     C11366   7.671   5.618   1.594  0.3103 -0.7377 -0.1584
   87MOL0     C11367   7.590   5.689   1.474 -0.8097 -0.2858  0.4483
   87MOL0     C11368   7.457   5.616   1.465 -1.1235 -0.2390 -1.0850
   87MOL0     N11369   7.382   5.683   1.362 -0.1768  0.6412 -0.3473
   87MOL0     C11370   7.395   5.651   1.232  0.4686  1.6122 -0.5508
   87MOL0     C11371   7.295   5.711   1.169  1.2002  0.7579  0.3677
   87MOL0     C11372   7.263   5.705   1.029  0.2372  0.2302 -0.1158
   87MOL0     C11373   7.110   5.687   1.018 -1.0319  0.3764  0.8482
   87MOL0     C11374   7.081   5.614   0.881  0.5586 -0.0084 -0.3646
   87MOL0     C11375   6.938   5.582   0.854  0.2231  0.0297  0.3863
   87MOL0     O11376   6.882   5.483   0.940  0.1583 -0.5640 -1.2798
   87MOL0     C11377   6.757   5.441   0.903 -0.2003  0.8052  0.1878
   87MOL0     C11378   6.682   5.494   0.798  0.1214  1.3126  0.1844
   87MOL0     C11379   6.551   5.439   0.777  0.1884 -0.0734  0.2143
   87MOL0     C11380   6.480   5.353   0.865  0.1256  0.5523  0.0874
   87MOL0     C11381   6.333   5.314   0.844  0.3518 -0.6874 -0.4197
   87MOL0     O11382   6.278   5.217   0.917 -0.6054 -0.0940  0.2654
   87MOL0     C11383   6.147   5.169   0.882 -0.2952 -0.8542  0.5835
   87MOL0     C11384   6.039   5.232   0.940  0.1909 -0.0046 -0.7258
   87MOL0     C11385   5.911   5.214   0.891 -0.1056  0.2223  0.5632
   87MOL0     C11386   5.890   5.130   0.780  0.1510 -0.4583  0.4771
   87MOL0     O11387   5.767   5.097   0.720 -0.3514 -0.1488 -0.0815
   87MOL0     C11388   5.648   5.167   0.749 -0.1045 -0.4259  0.4521
   87MOL0     C11389   5.578   5.110   0.878 -0.2306 -1.0236 -0.0386
   87MOL0     C11390   5.458   5.190   0.918  0.5755 -0.4995 -0.2750
   87MOL0     C11391   5.345   5.162   0.814  0.8945 -0.2684  0.8013
   87MOL0     C11392   5.218   5.236   0.847 -0.3248  0.3252 -0.2876
   87MOL0     C11393   5.103   5.231   0.754  0.2154 -0.2181  0.1375
   87MOL0     C11394   5.143   5.267   0.609 -0.4090  0.2198 -0.0055
   87MOL0     C11395   5.174   5.415   0.593 -0.0423 -0.4746 -0.5935
   87MOL0    Cl11396   5.040   5.523   0.656 -0.0941 -0.0950 -0.3463
   87MOL0     C11397   5.994   5.059   0.733 -0.0420 -0.5553  0.3571
   87MOL0     C11398   6.125   5.081   0.781 -0.0911 -0.5640  0.1138
   87MOL0     O11399   6.271   5.369   0.753  0.5567  0.1191 -0.1423
   87MOL0     C11400   6.561   5.305   0.970 -0.1217  0.3031  0.0695
   87MOL0     C11401   6.693   5.350   0.988  0.1312  0.8081 -0.3061
   87MOL0     N11402   7.213   5.764   1.270 -0.5228  1.1187  0.0212
   87MOL0     N11403   7.266   5.750   1.390 -0.4243 -1.4972  0.9369
   87MOL0     C11404   8.538   5.991   1.539  0.2109  0.1260 -0.6673
   87MOL0     C11405   8.674   6.016   1.567 -0.2908  0.1720 -0.4533
   87MOL0     C11406   9.103   5.832   1.628  0.5529 -0.6842  0.4018
   87MOL0     C11407   9.168   5.707   1.638 -0.4084  0.3661  0.3652
   87MOL0     C11408   9.300   5.698   1.679  0.2205 -0.5291 -0.3189
   87MOL0     C11409   9.377   5.814   1.700 -0.3423 -0.2622 -0.0195
   87MOL0     O11410   9.506   5.822   1.743  0.4482 -0.2936 -0.8013
   87MOL0     C11411   9.596   5.715   1.702 -0.6141 -0.2366  0.1957
   87MOL0     C11412   9.704   5.777   1.616 -0.3991  0.3017 -0.7975
   87MOL0     C11413   9.659   5.819   1.478 -0.2347 -0.7174 -0.3201
   87MOL0     C11414   9.774   5.874   1.389 -0.1194  0.0522  0.3189
   87MOL0     C11415   9.831   6.005   1.442  0.0317 -0.3820 -0.2074
   87MOL0     C11416   9.853   6.126   1.450  0.8606 -0.5416 -0.5183
   87MOL0     C11417   9.310   5.933   1.703 -1.1700 -0.4887  0.6696
   87MOL0     C11418   9.179   5.946   1.653  1.1494 -0.1738 -0.7688
   87MOL0     H11419   8.719   5.724   1.756  1.9373  1.4494  0.6037
   87MOL0     H11420   8.483   5.707   1.716 -1.0101  1.8805  1.9176
   87MOL0     H11421   8.250   5.743   1.705  1.8494 -1.6434 -0.6315
   87MOL0     H11422   8.306   5.661   1.566  0.1621 -0.7438  3.0594
   87MOL0     H11423   8.132   5.820   1.452 -1.2734  4.4282  1.1461
   87MOL0     H11424   8.065   5.844   1.613 -1.6397  0.9668 -1.9239
   87MOL0     H11425   8.032   5.585   1.639 -0.9259 -1.3458  0.1398
   87MOL0     H11426   8.106   5.589   1.472 -0.0285  2.5023 -0.6250
   87MOL0     H11427   7.887   5.738   1.427  0.4732  0.3847  0.8766
   87MOL0     H11428   7.867   5.558   1.463  2.6453 -1.3713  1.6389
   87MOL0     H11429   7.793   5.799   1.607  1.2147 -0.0639 -0.7448
   87MOL0     H11430   7.853   5.671   1.701  0.2327  1.8143 -1.0618
   87MOL0     H11431   7.612   5.620   1.687 -0.5750  0.1256 -0.7164
   87MOL0     H11432   7.692   5.512   1.579  0.8860 -1.0940  2.5452
   87MOL0     H11433   7.563   5.792   1.500 -1.7112 -0.4898  0.3836
   87MOL0     H11434   7.640   5.701   1.378 -2.5566  2.9968 -0.2126
   87MOL0     H11435   7.404   5.630   1.559  2.6067  0.5069  1.0880
   87MOL0     H11436   7.470   5.509   1.446  0.7554 -0.1723 -0.3824
   87MOL0     H11437   7.465   5.582   1.186  0.1566  0.6042  0.4538
   87MOL0     H11438   7.307   5.611   0.994  0.0400  0.1855 -0.2482
   87MOL0     H11439   7.303   5.786   0.968 -2.0194  1.0309 -0.6036
   87MOL0     H11440   7.058   5.783   1.017  0.2047  1.0580 -0.2198
   87MOL0     H11441   7.068   5.623   1.097  0.5410 -0.6800  0.8736
   87MOL0     H11442   7.103   5.684   0.800 -0.2961 -0.2809 -0.8420
   87MOL0     H11443   7.144   5.527   0.862  1.8108  0.7595  0.1807
   87MOL0     H11444   6.938   5.545   0.751  3.6364 -2.4172  1.0829
   87MOL0     H11445   6.876   5.672   0.843 -2.1481 -1.6830 -1.1924
   87MOL0     H11446   6.716   5.557   0.716 -1.5180  2.0893  0.0692
   87MOL0     H11447   6.497   5.487   0.696  3.8162  0.2072 -2.2488
   87MOL0     H11448   6.070   5.298   1.021  2.1218 -2.2107  0.4597
   87MOL0     H11449   5.828   5.263   0.942 -0.2223 -0.8489  1.4250
   87MOL0     H11450   5.587   5.150   0.659  0.2560  2.6768 -0.4939
   87MOL0     H11451   5.673   5.273   0.758 -0.1638 -0.5434  2.2495
   87MOL0     H11452   5.656   5.102   0.954  2.1559 -1.9081 -2.3829
   87MOL0     H11453   5.550   5.006   0.858 -1.1786 -0.9738  0.9859
   87MOL0     H11454   5.469   5.299   0.916 -1.1584 -0.3042 -1.7733
   87MOL0     H11455   5.415   5.165   1.016 -1.2814 -0.6176 -1.0753
   87MOL0     H11456   5.375   5.200   0.716 -3.2593 -2.8623 -1.7538
   87MOL0     H11457   5.337   5.056   0.792  2.5029 -0.5451  1.3944
   87MOL0     H11458   5.241   5.341   0.872 -0.2435 -0.0585  1.3744
   87MOL0     H11459   5.185   5.195   0.943  0.0078  0.2198 -0.2172
   87MOL0     H11460   5.027   5.302   0.787 -2.3011 -0.4818 -4.2929
   87MOL0     H11461   5.069   5.127   0.758 -0.5525 -0.0070 -0.4776
   87MOL0     H11462   5.221   5.204   0.566  1.0418  1.9418 -0.0324
   87MOL0     H11463   5.056   5.246   0.546 -0.9936 -2.6154  1.5645
   87MOL0     H11464   5.195   5.438   0.488 -0.5676  1.4161 -0.3207
   87MOL0     H11465   5.259   5.440   0.657 -1.9438 -0.6414  2.1868
   87MOL0     H11466   5.978   4.983   0.657  0.8546 -2.1812  1.7085
   87MOL0     H11467   6.212   5.026   0.746 -1.0023 -2.4550  0.6837
   87MOL0     H11468   6.526   5.236   1.046  0.1113  0.5949  0.4398
   87MOL0     H11469   6.745   5.317   1.077  1.6045  2.9699 -0.3070
   87MOL0     H11470   8.486   6.054   1.467 -1.4871  0.6382  0.9454
   87MOL0     H11471   8.721   6.108   1.533 -1.4192  0.4872 -1.2099
   87MOL0     H11472   9.109   5.617   1.625 -1.2822  0.9233  0.3527
   87MOL0     H11473   9.339   5.599   1.702 -1.5818 -1.2550 -0.2195
   87MOL0     H11474   9.557   5.636   1.638 -0.8772  0.7926 -0.9596
   87MOL0     H11475   9.651   5.661   1.780  0.9026  1.3980  0.3247
   87MOL0     H11476   9.747   5.861   1.671  1.4421 -2.0799  1.7107
   87MOL0     H11477   9.786   5.705   1.604 -2.5153 -2.3004 -0.6230
   87MOL0     H11478   9.584   5.894   1.501 -0.3117 -0.0100 -2.6426
   87MOL0     H11479   9.614   5.736   1.423  1.6073 -1.0037 -1.5054
   87MOL0     H11480   9.860   5.807   1.389 -0.5652 -0.5243 -0.1425
   87MOL0     H11481   9.749   5.877   1.283  2.6264 -0.7558 -0.4299
   87MOL0     H11482   9.877   6.230   1.448 -1.2843  0.1013  2.0168
   87MOL0     H11483   9.360   6.023   1.738 -2.8351  0.6857  0.1043
   87MOL0     H11484   9.126   6.040   1.650 -0.6718 -0.9698  2.2350
   88MOL0     O11485   4.455   7.096   6.561 -0.2943  0.2959 -0.0995
   88MOL0     C11486   4.406   7.042   6.466 -1.4521  0.3104 -0.1813
   88MOL0     O11487   4.478   6.969   6.377  0.0188 -0.3635 -0.4347
   88MOL0     C11488   4.615   6.987   6.381  0.3207 -0.3132  0.6207
   88MOL0     C11489   4.673   7.111   6.353 -0.3381  0.3537 -0.2109
   88MOL0     C11490   4.812   7.128   6.380  0.4097  0.4152  0.2742
   88MOL0     C11491   4.893   7.019   6.415 -0.0639 -0.0350  1.3298
   88MOL0     O11492   5.023   7.015   6.442 -1.0540 -0.1609 -0.4757
   88MOL0     C11493   5.087   7.141   6.491 -0.4786  0.8550 -0.2263
   88MOL0     C11494   5.228   7.110   6.543 -0.9993 -0.6331 -0.2598
   88MOL0     C11495   5.303   7.231   6.602  0.5183  0.4108 -0.2457
   88MOL0     C11496   5.441   7.188   6.627 -1.3331  0.3459  0.8143
   88MOL0     C11497   5.528   7.154   6.504 -0.4067 -0.8689  1.4240
   88MOL0     C11498   5.546   7.272   6.410 -0.3124  1.2640  0.7927
   88MOL0     C11499   5.662   7.244   6.323  0.2316  0.6348 -0.0198
   88MOL0     C11500   5.669   7.341   6.208  0.5114  0.9682 -0.2104
   88MOL0     N11501   5.793   7.321   6.140 -0.0322 -0.0251 -0.4339
   88MOL0     C11502   5.914   7.371   6.187  0.5436  0.4823  0.4754
   88MOL0     C11503   6.006   7.316   6.101 -0.0145  0.4120 -0.2632
   88MOL0     C11504   6.155   7.347   6.103 -0.9822 -0.1037 -0.2686
   88MOL0     C11505   6.182   7.492   6.162  0.4578 -0.4071  0.1658
   88MOL0     C11506   6.133   7.590   6.051  0.0414 -0.4043  0.8177
   88MOL0     C11507   6.159   7.733   6.096  0.7541 -0.4125 -1.2429
   88MOL0     O11508   6.090   7.766   6.227  0.0737 -0.2894 -0.4442
   88MOL0     C11509   5.952   7.746   6.241  0.5616 -0.0337 -0.0281
   88MOL0     C11510   5.899   7.704   6.370  0.1774  0.0351  0.5514
   88MOL0     C11511   5.761   7.691   6.393  0.5002  0.7374 -0.3339
   88MOL0     C11512   5.675   7.712   6.279 -0.8319 -0.7302  0.0706
   88MOL0     C11513   5.528   7.711   6.303  0.3401  0.0245  0.0691
   88MOL0     O11514   5.491   7.611   6.395  0.7348  0.1209  0.5047
   88MOL0     C11515   5.356   7.588   6.421  0.1978 -0.1284  0.4326
   88MOL0     C11516   5.261   7.549   6.324 -0.7461 -0.2422 -0.7012
   88MOL0     C11517   5.130   7.519   6.367  0.4960  0.5055 -0.8788
   88MOL0     C11518   5.089   7.543   6.500 -0.1955 -0.4653 -0.6096
   88MOL0     O11519   4.954   7.514   6.524 -0.1814  0.4632  0.2445
   88MOL0     C11520   4.922   7.489   6.657 -0.6430 -0.2891 -0.1282
   88MOL0     C11521   4.790   7.423   6.653 -0.0667 -0.6173  0.7650
   88MOL0     C11522   4.700   7.474   6.534 -0.0584  0.2647 -1.2266
   88MOL0     C11523   4.547   7.450   6.571  0.1958  0.1112 -0.2092
   88MOL0     C11524   4.459   7.484   6.455  0.2857 -0.0629  0.2602
   88MOL0     C11525   4.315   7.445   6.478 -1.1682 -0.4952 -0.7340
   88MOL0     C11526   4.238   7.399   6.357  0.3589 -0.4747  1.0723
   88MOL0     C11527   4.234   7.511   6.249 -0.0477 -0.0902 -0.3890
   88MOL0    Cl11528   4.165   7.659   6.323  0.2711  0.0943 -0.2415
   88MOL0     C11529   5.177   7.607   6.590 -0.2343 -0.0413 -0.0889
   88MOL0     C11530   5.309   7.606   6.547  0.5841 -0.6013  0.1159
   88MOL0     O11531   5.452   7.776   6.233  0.6413 -0.1514 -0.3612
   88MOL0     C11532   5.725   7.750   6.152 -1.1491 -0.8856 -0.8143
   88MOL0     C11533   5.864   7.765   6.135 -0.0794  0.5176 -0.0806
   88MOL0     N11534   5.942   7.222   6.020  0.0406  0.0873 -0.1525
   88MOL0     N11535   5.821   7.216   6.048  0.2333  0.0379 -0.8204
   88MOL0     C11536   4.831   6.896   6.439 -0.4481 -0.6735  0.2683
   88MOL0     C11537   4.697   6.879   6.425  0.4220 -0.1805 -0.4185
   88MOL0     C11538   4.255   7.049   6.467 -0.0360 -0.5019  0.1295
   88MOL0     C11539   4.178   6.962   6.390 -0.5833  0.9098  0.1875
   88MOL0     C11540   4.038   6.976   6.385 -1.3557  0.0583  0.1865
   88MOL0     C11541   3.968   7.062   6.467  0.0517 -0.0554 -0.6333
   88MOL0     O11542   3.831   7.076   6.465  0.5731 -0.0214 -0.0300
   88MOL0     C11543   3.771   7.036   6.344  0.0745 -0.0463 -0.3413
   88MOL0     C11544   3.625   7.060   6.360 -0.4792  0.1265  0.0564
   88MOL0     C11545   3.589   7.212   6.388  0.0553 -0.0733 -0.0276
   88MOL0     C11546   3.441   7.239   6.410 -0.4237  1.0796  0.4884
   88MOL0     C11547   3.361   7.195   6.291  0.5472 -1.1909 -0.0296
   88MOL0     C11548   3.300   7.159   6.192 -0.3896  0.0387  0.5744
   88MOL0     C11549   4.044   7.134   6.554 -0.8763  0.2412 -0.3943
   88MOL0     C11550   4.183   7.125   6.565  0.5999 -0.1166  0.2595
   88MOL0     H11551   4.609   7.191   6.319  1.0036  1.5459 -0.0098
   88MOL0     H11552   4.863   7.223   6.362  1.2695 -0.3097 -1.3051
   88MOL0     H11553   5.024   7.183   6.571 -1.0295  4.0709 -2.1805
   88MOL0     H11554   5.100   7.226   6.424  1.6259  2.3253  1.8642
   88MOL0     H11555   5.283   7.063   6.462 -0.2777  1.3437 -0.9912
   88MOL0     H11556   5.222   7.032   6.620  0.5462 -1.1327 -0.6083
   88MOL0     H11557   5.256   7.271   6.693 -0.8451  0.0423 -0.7650
   88MOL0     H11558   5.309   7.316   6.533  1.1827  3.3296  3.0952
   88MOL0     H11559   5.490   7.270   6.680 -2.1367  0.4421  1.4235
   88MOL0     H11560   5.439   7.102   6.694  0.5925 -0.9396 -0.6567
   88MOL0     H11561   5.492   7.066   6.451 -2.0285  0.3673  0.3682
   88MOL0     H11562   5.623   7.117   6.545 -0.0708  0.1890  1.6334
   88MOL0     H11563   5.556   7.368   6.461 -2.6313  2.8491 -1.4677
   88MOL0     H11564   5.462   7.275   6.340 -0.0262  2.5838  0.4820
   88MOL0     H11565   5.759   7.252   6.373 -0.4482  3.4089  1.0535
   88MOL0     H11566   5.644   7.146   6.278 -1.0756  1.0611 -0.4839
   88MOL0     H11567   5.678   7.440   6.254  1.7747  1.2088 -0.9299
   88MOL0     H11568   5.584   7.330   6.139  1.2994  0.7586 -1.1709
   88MOL0     H11569   5.929   7.451   6.258 -1.7384  0.2639  1.2782
   88MOL0     H11570   6.195   7.339   6.001 -0.6788  0.4928 -0.2004
   88MOL0     H11571   6.203   7.264   6.156  1.6319  0.3721 -1.7198
   88MOL0     H11572   6.291   7.490   6.172  0.7685  0.2273 -2.3030
   88MOL0     H11573   6.143   7.513   6.262  0.3555  0.8001 -0.1216
   88MOL0     H11574   6.194   7.579   5.960 -1.2115 -3.6417  0.2524
   88MOL0     H11575   6.029   7.593   6.017  0.0961  0.7348  0.7024
   88MOL0     H11576   6.119   7.799   6.018 -2.8962 -1.4117 -0.3814
   88MOL0     H11577   6.265   7.752   6.116 -0.1514  0.9411  3.8294
   88MOL0     H11578   5.964   7.684   6.454 -0.5980  1.2760  1.4823
   88MOL0     H11579   5.709   7.651   6.479 -0.3509  2.3775 -0.0469
   88MOL0     H11580   5.292   7.548   6.220  0.5796  2.5622 -0.4113
   88MOL0     H11581   5.053   7.485   6.298  0.3087  1.7010 -1.2867
   88MOL0     H11582   4.911   7.578   6.720  0.0471  1.2372 -2.0250
   88MOL0     H11583   4.993   7.418   6.701  0.7090  0.0269 -1.6918
   88MOL0     H11584   4.732   7.433   6.746  1.5825  0.9548  1.6927
   88MOL0     H11585   4.816   7.317   6.643  0.4920 -0.5967  1.8345
   88MOL0     H11586   4.720   7.428   6.437  0.6218 -0.3973 -0.7817
   88MOL0     H11587   4.713   7.582   6.517  1.7440 -0.0486 -2.0257
   88MOL0     H11588   4.545   7.342   6.588 -0.7159  0.2029  0.4013
   88MOL0     H11589   4.517   7.491   6.669 -0.2569 -1.2081  0.2298
   88MOL0     H11590   4.505   7.429   6.373  0.7357  0.3774  0.2137
   88MOL0     H11591   4.466   7.590   6.428 -1.0440 -0.2478 -0.9363
   88MOL0     H11592   4.274   7.535   6.525 -0.7015 -0.9846  0.6355
   88MOL0     H11593   4.312   7.359   6.545 -0.6812 -1.2122 -1.6099
   88MOL0     H11594   4.297   7.316   6.317  1.0172 -1.6761  4.2781
   88MOL0     H11595   4.137   7.366   6.381  0.8678 -3.0836 -0.0823
   88MOL0     H11596   4.172   7.475   6.166 -3.7722  1.3531  1.5444
   88MOL0     H11597   4.334   7.527   6.207  0.3955 -1.5120  0.0598
   88MOL0     H11598   5.152   7.645   6.689 -2.0836 -1.4965  0.0595
   88MOL0     H11599   5.373   7.661   6.616 -0.2385 -1.1287  1.3388
   88MOL0     H11600   5.652   7.771   6.074 -0.8735 -1.5676 -1.2691
   88MOL0     H11601   5.881   7.813   6.039 -4.0124  2.4282 -0.0195
   88MOL0     H11602   4.890   6.817   6.484 -1.9946 -1.3054  1.2867
   88MOL0     H11603   4.655   6.786   6.460  0.8832  0.1248  1.0082
   88MOL0     H11604   4.223   6.895   6.318  1.6087  0.0494  2.2332
   88MOL0     H11605   3.994   6.923   6.302 -0.4626 -0.0460 -0.2227
   88MOL0     H11606   3.788   6.931   6.319 -0.7116  0.1598 -1.9021
   88MOL0     H11607   3.809   7.089   6.256 -2.1723  2.5123  0.0648
   88MOL0     H11608   3.586   7.032   6.262 -2.7913 -2.6750  1.6118
   88MOL0     H11609   3.588   6.995   6.439 -1.1882 -1.6650 -1.6590
   88MOL0     H11610   3.622   7.277   6.307  1.1496  1.2105  1.4057
   88MOL0     H11611   3.638   7.243   6.480 -3.4690 -0.5997  2.2272
   88MOL0     H11612   3.394   7.189   6.495 -2.8857 -1.6663 -2.2345
   88MOL0     H11613   3.416   7.346   6.408 -2.0820  0.7261 -0.8691
   88MOL0     H11614   3.251   7.129   6.101  0.9676  0.7556 -0.4172
   88MOL0     H11615   3.977   7.188   6.622 -2.7621 -2.0016 -0.3411
   88MOL0     H11616   4.248   7.176   6.635 -1.4951  0.9056  1.5625
   89MOL0     O11617   5.738   1.485   1.838  0.0289 -0.0640  0.2887
   89MOL0     C11618   5.830   1.421   1.895  0.5861 -0.4665 -0.5670
   89MOL0     O11619   5.824   1.305   1.971  0.3408  0.2788  0.2720
   89MOL0     C11620   5.700   1.283   2.024 -0.7251  0.8128  0.9258
   89MOL0     C11621   5.608   1.368   2.088 -0.1239 -0.0375 -0.2671
   89MOL0     C11622   5.475   1.322   2.126 -0.0329  0.1145 -0.8661
   89MOL0     C11623   5.426   1.194   2.082  0.4338 -0.5413 -0.8437
   89MOL0     O11624   5.308   1.141   2.122  0.3666  1.1708 -0.4276
   89MOL0     C11625   5.224   1.205   2.215 -0.1413 -0.0134 -0.5742
   89MOL0     C11626   5.116   1.122   2.274 -0.0262 -0.0192 -0.2759
   89MOL0     C11627   5.018   1.186   2.375 -0.4097 -0.0571  0.5741
   89MOL0     C11628   4.915   1.086   2.418  1.3292 -0.1281 -0.2735
   89MOL0     C11629   4.798   1.132   2.521 -0.2854 -0.2894 -0.4431
   89MOL0     C11630   4.703   1.010   2.544 -0.1881 -0.3457  0.1051
   89MOL0     C11631   4.594   1.042   2.646  0.4370 -1.1885  0.2132
   89MOL0     C11632   4.487   1.140   2.582  0.9347 -0.8748 -0.9965
   89MOL0     N11633   4.406   1.167   2.695  1.1150 -0.2043 -0.1626
   89MOL0     C11634   4.313   1.070   2.748  0.2077 -0.4125  0.1826
   89MOL0     C11635   4.236   1.144   2.830  0.2629  0.3719 -0.1130
   89MOL0     C11636   4.111   1.114   2.901 -0.1453  0.7488  0.0175
   89MOL0     C11637   4.134   1.035   3.025  0.0785  0.5525  0.6937
   89MOL0     C11638   4.222   0.905   3.031 -0.0497 -0.2873 -0.1133
   89MOL0     C11639   4.268   0.884   3.166 -1.0443  0.4005  0.4980
   89MOL0     O11640   4.376   0.970   3.207  0.6404  0.1562  0.4815
   89MOL0     C11641   4.497   0.931   3.151  0.3390  0.4747 -0.0597
   89MOL0     C11642   4.570   1.030   3.087 -0.7526  0.6263 -0.2007
   89MOL0     C11643   4.700   1.005   3.039  0.3111  0.0610  0.2486
   89MOL0     C11644   4.757   0.880   3.054  0.2250  0.3634 -1.4318
   89MOL0     C11645   4.891   0.836   2.989 -0.2118 -1.4671 -0.3509
   89MOL0     O11646   4.961   0.940   2.929 -1.1460 -0.5963 -0.0164
   89MOL0     C11647   5.066   0.917   2.846  0.4380  0.4615  1.0083
   89MOL0     C11648   5.083   0.986   2.726  0.0358  0.0728 -0.2763
   89MOL0     C11649   5.192   0.975   2.641 -0.6467 -0.1116  0.1623
   89MOL0     C11650   5.286   0.880   2.656 -0.3736 -0.2297 -0.1762
   89MOL0     O11651   5.389   0.863   2.571 -0.1440  0.0995 -0.8066
   89MOL0     C11652   5.460   0.976   2.528  0.4478  0.4656 -0.6981
   89MOL0     C11653   5.591   0.924   2.472  0.6739  0.2017 -0.0377
   89MOL0     C11654   5.694   1.035   2.459 -0.0017 -0.1504 -0.0945
   89MOL0     C11655   5.785   0.990   2.348  0.7514 -0.1357 -0.6365
   89MOL0     C11656   5.905   1.083   2.326  0.0836 -0.8566  0.0244
   89MOL0     C11657   6.037   1.014   2.276  0.5056  0.7011 -1.0112
   89MOL0     C11658   6.143   1.130   2.246  1.1926 -0.2199  0.6245
   89MOL0     C11659   6.274   1.075   2.196  0.1185 -0.1743  0.0164
   89MOL0    Cl11660   6.262   1.042   2.026 -0.3652 -0.5788  0.0059
   89MOL0     C11661   5.280   0.802   2.776  0.7076 -0.9543  0.1332
   89MOL0     C11662   5.165   0.819   2.861 -0.4644 -0.4944 -0.5612
   89MOL0     O11663   4.922   0.720   2.980 -0.2642  0.5892 -0.7192
   89MOL0     C11664   4.684   0.786   3.133 -0.3103 -0.0038 -0.0610
   89MOL0     C11665   4.557   0.811   3.182 -0.9798  1.2019 -0.3237
   89MOL0     N11666   4.297   1.271   2.841  1.0227 -0.4327 -0.2224
   89MOL0     N11667   4.408   1.276   2.773  0.0655 -0.6044 -0.0456
   89MOL0     C11668   5.510   1.121   2.003  0.4993 -1.1177  0.1712
   89MOL0     C11669   5.644   1.155   1.991 -0.6350  0.0170  1.0909
   89MOL0     C11670   5.959   1.489   1.884  0.3180 -0.7136  0.4385
   89MOL0     C11671   6.078   1.426   1.920  0.0343 -0.6941  0.3237
   89MOL0     C11672   6.205   1.498   1.934  0.6073  0.4545  0.0116
   89MOL0     C11673   6.208   1.637   1.912 -0.6468  0.4353  0.6805
   89MOL0     O11674   6.340   1.684   1.921  0.4164 -0.6843  0.5890
   89MOL0     C11675   6.369   1.820   1.880  0.5779  0.0743  0.2913
   89MOL0     C11676   6.515   1.847   1.893 -0.1593 -0.3289 -0.0961
   89MOL0     C11677   6.604   1.776   1.785 -0.3683 -0.8340  1.1467
   89MOL0     C11678   6.746   1.837   1.794 -0.6269  0.2088  0.1156
   89MOL0     C11679   6.755   1.975   1.741  0.0237 -0.0101 -0.7318
   89MOL0     C11680   6.740   2.091   1.723 -0.5560 -0.9186  0.5614
   89MOL0     C11681   6.086   1.698   1.883 -0.3529 -0.4728  0.2019
   89MOL0     C11682   5.968   1.625   1.860  0.2992  0.7409  0.8924
   89MOL0     H11683   5.635   1.472   2.105 -0.1166  0.0573 -0.8083
   89MOL0     H11684   5.419   1.385   2.194  0.6818 -0.4951  0.3284
   89MOL0     H11685   5.177   1.290   2.165 -0.4807  0.5446  0.6434
   89MOL0     H11686   5.289   1.238   2.296  1.0053 -1.5501 -0.8356
   89MOL0     H11687   5.168   1.037   2.319 -4.3947 -1.5746  2.4461
   89MOL0     H11688   5.065   1.088   2.184  0.2857  0.8440 -0.7915
   89MOL0     H11689   4.964   1.266   2.324  2.6117  0.8285 -1.5734
   89MOL0     H11690   5.074   1.242   2.450 -1.6086  3.1241 -0.7100
   89MOL0     H11691   4.870   1.054   2.324  2.0590 -1.1201 -0.3028
   89MOL0     H11692   4.955   0.991   2.453  0.1690 -0.6689 -0.3786
   89MOL0     H11693   4.751   1.218   2.474 -0.5784 -0.9304 -1.3643
   89MOL0     H11694   4.842   1.164   2.616 -1.7431 -1.4758  0.6971
   89MOL0     H11695   4.755   0.920   2.579 -1.6511 -1.4045 -0.3885
   89MOL0     H11696   4.668   0.981   2.445 -0.6842 -1.2167  0.5330
   89MOL0     H11697   4.536   0.951   2.661 -1.0431 -1.0582 -3.5288
   89MOL0     H11698   4.637   1.077   2.740  0.7506 -0.2503 -0.2687
   89MOL0     H11699   4.435   1.093   2.498 -0.1949 -0.4232 -0.5653
   89MOL0     H11700   4.533   1.232   2.546 -0.5346  0.9158  1.4301
   89MOL0     H11701   4.296   0.967   2.718 -3.0498  0.9478 -3.6154
   89MOL0     H11702   4.042   1.060   2.836  1.2331 -1.2760  0.1253
   89MOL0     H11703   4.065   1.209   2.929  1.5532  1.1086  1.8119
   89MOL0     H11704   4.033   1.010   3.060 -1.3901  3.6300 -0.9596
   89MOL0     H11705   4.187   1.115   3.078  5.1589 -1.4436 -0.7823
   89MOL0     H11706   4.159   0.822   2.995  0.8954 -1.2071  0.3048
   89MOL0     H11707   4.307   0.910   2.962 -0.3721  1.2336 -0.4317
   89MOL0     H11708   4.306   0.782   3.175  1.2259  1.1769  0.3118
   89MOL0     H11709   4.185   0.884   3.237 -0.6083 -0.8381  1.0414
   89MOL0     H11710   4.532   1.128   3.062 -0.9355  0.3680 -0.9942
   89MOL0     H11711   4.756   1.080   2.984  1.7524 -1.5162 -0.5701
   89MOL0     H11712   5.014   1.065   2.700  0.7936  1.1380  0.8220
   89MOL0     H11713   5.191   1.040   2.554 -2.2953 -2.9062 -2.0850
   89MOL0     H11714   5.483   1.052   2.604 -2.0355  1.5784 -0.9596
   89MOL0     H11715   5.407   1.022   2.444 -0.0534 -0.0959 -0.6984
   89MOL0     H11716   5.575   0.881   2.373  0.6739 -2.0624  0.8873
   89MOL0     H11717   5.630   0.840   2.530 -1.2685  0.4332  1.7521
   89MOL0     H11718   5.756   1.039   2.548  1.6912  1.0061 -1.2572
   89MOL0     H11719   5.657   1.136   2.439  1.2235  0.5666  1.1263
   89MOL0     H11720   5.808   0.886   2.369 -0.2323 -0.3573 -0.6302
   89MOL0     H11721   5.736   0.993   2.250  0.4786 -1.1626 -0.5406
   89MOL0     H11722   5.918   1.131   2.423 -5.0316  1.9623 -0.3368
   89MOL0     H11723   5.889   1.168   2.259  0.1314  0.7399  1.9544
   89MOL0     H11724   6.017   0.964   2.181  2.3681 -1.5820 -0.2944
   89MOL0     H11725   6.075   0.935   2.341  1.3160  0.4406 -1.7742
   89MOL0     H11726   6.112   1.211   2.179  1.7973 -0.0527  0.5406
   89MOL0     H11727   6.150   1.180   2.343  1.0824  0.8402  0.0970
   89MOL0     H11728   6.291   0.980   2.247  0.0392 -0.4902 -0.5283
   89MOL0     H11729   6.355   1.147   2.202 -0.2861  1.1821 -5.4747
   89MOL0     H11730   5.353   0.725   2.799  1.9871 -0.9456 -3.3887
   89MOL0     H11731   5.158   0.767   2.956 -2.1337  1.7460  0.6389
   89MOL0     H11732   4.734   0.691   3.147 -0.1543  0.0124 -0.4943
   89MOL0     H11733   4.496   0.744   3.242  0.2165 -2.2927 -2.7001
   89MOL0     H11734   5.483   1.020   1.973  4.5778 -1.3437 -4.0075
   89MOL0     H11735   5.697   1.081   1.931  1.2873  3.1189 -1.3994
   89MOL0     H11736   6.073   1.319   1.937 -1.5025 -0.8407 -0.7871
   89MOL0     H11737   6.294   1.441   1.959  0.0407 -0.7553 -0.6347
   89MOL0     H11738   6.312   1.891   1.940  2.3913  3.0815 -1.2908
   89MOL0     H11739   6.336   1.827   1.776  0.0546  0.9650  0.5072
   89MOL0     H11740   6.534   1.955   1.898 -1.5883  0.0186 -1.4073
   89MOL0     H11741   6.553   1.811   1.989 -0.2773 -1.6379 -0.5267
   89MOL0     H11742   6.579   1.789   1.679 -0.8105 -2.0473  1.0893
   89MOL0     H11743   6.601   1.669   1.807  0.8281 -1.1186  0.0740
   89MOL0     H11744   6.778   1.842   1.899  2.2847  0.4908 -0.6999
   89MOL0     H11745   6.813   1.770   1.739  2.5456  0.9643  2.7238
   89MOL0     H11746   6.733   2.197   1.717  0.5425 -0.8799 -0.4071
   89MOL0     H11747   6.099   1.806   1.879 -0.2326 -0.4994 -0.1437
   89MOL0     H11748   5.875   1.675   1.834  0.9455  2.1663  1.2579
   90MOL0     O11749   4.922   9.047   8.438 -0.0198  0.3187 -1.0902
   90MOL0     C11750   4.937   8.981   8.337 -0.4615  0.4817 -0.6731
   90MOL0     O11751   4.877   8.865   8.312  0.1715  0.5671 -0.1018
   90MOL0     C11752   4.778   8.819   8.401 -0.0645 -0.2589  0.8547
   90MOL0     C11753   4.776   8.681   8.429  0.6448 -0.1601 -1.3481
   90MOL0     C11754   4.670   8.625   8.501 -0.5265  0.4968 -0.0567
   90MOL0     C11755   4.558   8.707   8.547 -1.4121 -0.0250  1.0757
   90MOL0     O11756   4.472   8.640   8.629  0.8647 -0.8370 -0.3020
   90MOL0     C11757   4.342   8.696   8.628 -0.0343 -0.7351  0.7234
   90MOL0     C11758   4.230   8.608   8.683 -0.1557 -0.1228  0.3054
   90MOL0     C11759   4.095   8.675   8.691  0.1037  0.5045  0.3614
   90MOL0     C11760   4.020   8.683   8.555  1.4677  0.7325  1.0030
   90MOL0     C11761   3.874   8.735   8.562  0.4843 -1.5627 -0.4568
   90MOL0     C11762   3.787   8.674   8.677 -0.4015 -0.2118 -0.1365
   90MOL0     C11763   3.644   8.726   8.660  0.2659  0.7518  0.6063
   90MOL0     C11764   3.575   8.653   8.543  0.1548  0.5783 -0.8898
   90MOL0     N11765   3.436   8.692   8.542 -0.4448  0.6084 -0.0543
   90MOL0     C11766   3.343   8.683   8.643 -0.7402 -0.6353  0.4788
   90MOL0     C11767   3.242   8.753   8.595  0.0356  0.4715 -0.3694
   90MOL0     C11768   3.126   8.790   8.678  0.1224 -0.2719 -0.6262
   90MOL0     C11769   2.994   8.755   8.611 -0.2718  0.0108 -0.4116
   90MOL0     C11770   2.943   8.854   8.504 -0.1754 -0.1290  0.5965
   90MOL0     C11771   2.812   8.815   8.445  0.8891 -0.0614  0.0615
   90MOL0     O11772   2.716   8.831   8.557 -0.0615 -0.9111 -0.0183
   90MOL0     C11773   2.588   8.779   8.543 -1.1756 -0.3899 -0.1246
   90MOL0     C11774   2.549   8.686   8.441 -0.3158  0.3784 -0.0787
   90MOL0     C11775   2.410   8.643   8.456  0.2830 -0.5254  0.6690
   90MOL0     C11776   2.324   8.685   8.556 -0.2488  0.0374  0.2110
   90MOL0     C11777   2.188   8.628   8.561  0.0425 -0.1590 -0.2305
   90MOL0     O11778   2.115   8.654   8.670  0.6882  0.7430 -0.3044
   90MOL0     C11779   1.996   8.583   8.684  0.3756  0.4557  0.1828
   90MOL0     C11780   1.897   8.657   8.722  0.4756  0.4515  0.4122
   90MOL0     C11781   1.772   8.590   8.742 -0.3919 -0.5793 -0.6029
   90MOL0     C11782   1.753   8.451   8.732 -0.9732 -0.7950  0.0405
   90MOL0     O11783   1.632   8.392   8.743 -0.5163 -0.0752 -0.0118
   90MOL0     C11784   1.612   8.287   8.836  0.8081 -0.0088 -0.4349
   90MOL0     C11785   1.486   8.300   8.923 -0.2739 -0.6681 -0.2288
   90MOL0     C11786   1.490   8.428   9.012 -0.5556  0.6495  0.8132
   90MOL0     C11787   1.590   8.427   9.118 -0.2106  0.1818  0.4638
   90MOL0     C11788   1.559   8.545   9.213 -0.2396 -0.0416 -0.1272
   90MOL0     C11789   1.632   8.532   9.342  0.2460 -0.9347  0.0283
   90MOL0     C11790   1.779   8.531   9.315 -1.0898  0.0630 -0.9850
   90MOL0     C11791   1.838   8.563   9.454  0.0003  1.2131 -0.1403
   90MOL0    Cl11792   2.009   8.541   9.442  0.0295  0.2241  0.2424
   90MOL0     C11793   1.866   8.372   8.702  1.1809 -0.2063  0.2282
   90MOL0     C11794   1.987   8.438   8.668  0.7785  0.4042 -0.0907
   90MOL0     O11795   2.150   8.563   8.463 -0.4226 -0.4299 -0.1824
   90MOL0     C11796   2.374   8.770   8.648 -0.4977 -0.4874 -0.3657
   90MOL0     C11797   2.497   8.826   8.633 -0.4781 -0.7159  0.1204
   90MOL0     N11798   3.269   8.801   8.464  0.5127  0.9433 -0.5734
   90MOL0     N11799   3.392   8.760   8.435 -0.0127 -0.6492 -0.7074
   90MOL0     C11800   4.574   8.847   8.531 -0.6636  0.0066  0.4180
   90MOL0     C11801   4.680   8.900   8.460  0.1423 -0.1340 -0.6516
   90MOL0     C11802   5.047   9.022   8.243  0.7122 -1.3917 -0.3720
   90MOL0     C11803   5.104   9.151   8.263  0.2169 -0.5139  1.0488
   90MOL0     C11804   5.204   9.190   8.174  0.3682 -0.6141 -0.8373
   90MOL0     C11805   5.252   9.106   8.079 -0.4953 -0.3194  0.6579
   90MOL0     O11806   5.379   9.144   8.026  0.2786  0.1811 -0.0358
   90MOL0     C11807   5.431   9.062   7.918  0.4499  0.4461 -0.2778
   90MOL0     C11808   5.554   9.139   7.858 -0.0575 -0.0816 -0.1745
   90MOL0     C11809   5.647   9.174   7.975  0.0472 -0.1370 -0.5679
   90MOL0     C11810   5.789   9.213   7.914  0.4722  0.8772  0.6110
   90MOL0     C11811   5.867   9.260   8.029 -0.1459  0.0151 -0.5063
   90MOL0     C11812   5.942   9.304   8.111  0.5189 -0.9058  0.0274
   90MOL0     C11813   5.196   8.977   8.061 -0.5898 -0.6324 -0.5193
   90MOL0     C11814   5.097   8.935   8.152 -0.3330 -0.5766  0.4092
   90MOL0     H11815   4.852   8.628   8.373  0.9947 -1.4632  0.2967
   90MOL0     H11816   4.665   8.516   8.493 -0.3263  0.5134 -0.4714
   90MOL0     H11817   4.326   8.728   8.524  3.7610  0.0998  0.2677
   90MOL0     H11818   4.336   8.788   8.686  0.5311 -1.2428  1.5929
   90MOL0     H11819   4.246   8.588   8.789  1.5653 -1.1809 -0.1064
   90MOL0     H11820   4.226   8.517   8.622 -2.8083 -0.6424  1.1312
   90MOL0     H11821   4.103   8.774   8.737  0.3440 -0.2251  1.9838
   90MOL0     H11822   4.033   8.620   8.763 -1.3876  2.3419  0.5793
   90MOL0     H11823   4.072   8.738   8.477 -3.1421  0.9577 -2.3232
   90MOL0     H11824   3.993   8.579   8.534  1.4271  0.8839  0.2938
   90MOL0     H11825   3.822   8.722   8.466 -3.2495 -2.4758  1.5122
   90MOL0     H11826   3.874   8.843   8.580 -2.7188 -1.2229 -1.8171
   90MOL0     H11827   3.827   8.710   8.773 -2.7416 -0.5546  1.0518
   90MOL0     H11828   3.795   8.566   8.693  1.0656  0.1341  2.0188
   90MOL0     H11829   3.590   8.724   8.755  0.5923 -0.6824  0.7926
   90MOL0     H11830   3.643   8.833   8.636 -0.5777  0.9388  1.4419
   90MOL0     H11831   3.577   8.547   8.569  2.6550  1.0003  1.0376
   90MOL0     H11832   3.630   8.661   8.448  0.8615 -1.1419 -0.6525
   90MOL0     H11833   3.365   8.656   8.746  3.2238  5.0717  1.6050
   90MOL0     H11834   3.135   8.898   8.691  0.5786 -0.5639  2.2555
   90MOL0     H11835   3.130   8.738   8.774 -0.6795  0.6524 -0.0747
   90MOL0     H11836   2.933   8.768   8.700  2.2891 -1.9452  1.8012
   90MOL0     H11837   2.988   8.652   8.576  0.3966 -0.3496  0.4961
   90MOL0     H11838   2.943   8.957   8.540  3.1604  0.1020  0.3194
   90MOL0     H11839   3.017   8.862   8.423 -1.4378  3.8039 -0.3420
   90MOL0     H11840   2.827   8.711   8.415 -0.0232 -1.0939  2.8082
   90MOL0     H11841   2.780   8.881   8.364  0.0781 -0.5922 -0.0535
   90MOL0     H11842   2.612   8.653   8.359 -0.0117  1.5213 -0.3217
   90MOL0     H11843   2.374   8.574   8.380  1.4301 -1.0750  0.5924
   90MOL0     H11844   1.895   8.764   8.734  0.7479  0.5571 -0.4481
   90MOL0     H11845   1.680   8.644   8.762 -0.4241 -1.7679  3.4802
   90MOL0     H11846   1.692   8.286   8.910  1.1376  0.3866 -0.7820
   90MOL0     H11847   1.613   8.185   8.795  0.0835 -0.7288  1.2361
   90MOL0     H11848   1.457   8.212   8.981 -2.4153 -1.1541 -1.9219
   90MOL0     H11849   1.395   8.301   8.862  1.2812 -1.4993 -2.7266
   90MOL0     H11850   1.388   8.441   9.048 -0.9896  0.3207 -0.2523
   90MOL0     H11851   1.509   8.515   8.949 -1.1141  1.2705  1.5003
   90MOL0     H11852   1.575   8.332   9.170 -1.0882 -1.0259 -1.8765
   90MOL0     H11853   1.690   8.435   9.074 -0.7237 -2.5737 -1.4083
   90MOL0     H11854   1.455   8.549   9.248  0.7240 -1.8381  3.4008
   90MOL0     H11855   1.590   8.641   9.171 -0.3271  1.3161  2.6776
   90MOL0     H11856   1.617   8.434   9.388 -0.1113 -0.2658  1.3718
   90MOL0     H11857   1.601   8.611   9.410  0.0528 -1.0334  0.0557
   90MOL0     H11858   1.807   8.432   9.277  1.8951  1.3890 -2.6550
   90MOL0     H11859   1.828   8.596   9.242 -0.9559  1.1341  0.0321
   90MOL0     H11860   1.796   8.483   9.515 -0.7197 -0.1791 -2.3357
   90MOL0     H11861   1.810   8.660   9.496  0.6223  0.5023  2.0032
   90MOL0     H11862   1.857   8.264   8.696 -2.0318 -0.4083  4.0833
   90MOL0     H11863   2.065   8.374   8.628  2.3400  2.2509 -0.1711
   90MOL0     H11864   2.317   8.796   8.737 -0.3853 -3.3671  0.6494
   90MOL0     H11865   2.527   8.896   8.710  1.8018 -1.2745 -0.1916
   90MOL0     H11866   4.488   8.897   8.574 -1.4062 -0.8418 -0.0221
   90MOL0     H11867   4.670   9.008   8.455 -2.0168 -0.1766  0.8655
   90MOL0     H11868   5.068   9.217   8.341 -1.1224 -0.2688  0.2642
   90MOL0     H11869   5.252   9.287   8.179  0.1087 -0.5342  0.3063
   90MOL0     H11870   5.368   9.050   7.829 -0.0813  1.0620  0.0093
   90MOL0     H11871   5.454   8.959   7.947 -1.9728 -0.1777 -0.3364
   90MOL0     H11872   5.600   9.070   7.787  0.5963 -2.2316  2.1871
   90MOL0     H11873   5.519   9.234   7.815 -1.2462 -0.4585 -0.0813
   90MOL0     H11874   5.665   9.087   8.039  0.5982 -1.2455 -2.1544
   90MOL0     H11875   5.620   9.252   8.047  3.1090  0.5053  0.0278
   90MOL0     H11876   5.839   9.133   7.859 -1.7815 -0.4717  0.3679
   90MOL0     H11877   5.780   9.287   7.835 -0.0262 -0.7842 -0.9634
   90MOL0     H11878   6.011   9.335   8.188 -1.2357  0.0574  1.3073
   90MOL0     H11879   5.216   8.909   7.979 -1.0659  1.8193 -2.7712
   90MOL0     H11880   5.055   8.835   8.153  1.2914 -1.2672  1.0244
   91MOL0     O11881   6.836   9.932   2.672 -0.2357 -0.4447 -0.3017
   91MOL0     C11882   6.934   9.980   2.720 -0.1126  0.1933  0.4079
   91MOL0     O11883   6.963   9.996   2.845  0.3018  0.3726  0.2485
   91MOL0     C11884   6.876   9.976   2.951  0.1472  0.2921  0.2240
   91MOL0     C11885   6.738   9.923   2.953 -0.8113  0.5439  0.8667
   91MOL0     C11886   6.675   9.903   3.079  0.3250 -0.0316  0.9122
   91MOL0     C11887   6.732   9.944   3.199  0.4559 -0.4113 -0.6279
   91MOL0     O11888   6.674   9.939   3.328  0.7192 -0.0862  0.2913
   91MOL0     C11889   6.572   9.839   3.357 -0.2168 -0.7485 -0.0862
   91MOL0     C11890   6.442   9.909   3.389 -0.6232  0.7077 -0.0816
   91MOL0     C11891   6.338   9.807   3.429 -0.2226  0.7544  0.3421
   91MOL0     C11892   6.193   9.860   3.415 -0.1934  0.3939 -0.8208
   91MOL0     C11893   6.086   9.758   3.448 -0.3962 -0.1125  0.1868
   91MOL0     C11894   5.954   9.818   3.460  0.1114 -0.2997 -0.4475
   91MOL0     C11895   5.850   9.723   3.517 -0.2573  0.9294  0.6337
   91MOL0     C11896   5.711   9.780   3.534 -0.5269 -0.5135 -0.7552
   91MOL0     N11897   5.601   9.686   3.538  0.8110 -0.3606  0.0570
   91MOL0     C11898   5.557   9.596   3.448  0.1489  0.7021  0.1537
   91MOL0     C11899   5.448   9.543   3.508 -0.1231 -0.5885  1.5169
   91MOL0     C11900   5.341   9.448   3.449  0.9974 -0.4423 -0.3079
   91MOL0     C11901   5.395   9.304   3.443 -0.2198  0.2937 -0.4565
   91MOL0     C11902   5.397   9.227   3.573  0.2232 -0.1491  0.8453
   91MOL0     C11903   5.447   9.079   3.545 -0.2800  0.0037 -0.5622
   91MOL0     O11904   5.380   9.011   3.445  0.6003  0.3010  0.4842
   91MOL0     C11905   5.251   8.983   3.485 -0.8279 -0.3814  0.2970
   91MOL0     C11906   5.142   9.042   3.405 -0.5861 -0.5082 -0.1420
   91MOL0     C11907   5.015   9.005   3.424 -0.0402 -0.2460 -1.0871
   91MOL0     C11908   4.985   8.913   3.521  0.2029  0.3843  0.5177
   91MOL0     C11909   4.849   8.863   3.543 -0.1860 -0.2536 -0.2045
   91MOL0     O11910   4.751   8.920   3.456 -0.1820  0.7431  0.2179
   91MOL0     C11911   4.616   8.891   3.453  0.2760  0.3607 -0.1509
   91MOL0     C11912   4.548   8.832   3.566  0.9723  0.1050 -0.5742
   91MOL0     C11913   4.405   8.797   3.551 -0.0654  0.6215  0.3513
   91MOL0     C11914   4.341   8.828   3.434 -0.0796  0.2566  0.0623
   91MOL0     O11915   4.209   8.805   3.438  0.3226 -0.0523 -0.6846
   91MOL0     C11916   4.135   8.897   3.359  0.3840 -0.4801 -0.0386
   91MOL0     C11917   4.094   8.848   3.219 -0.2101  0.2202 -0.0338
   91MOL0     C11918   4.048   8.709   3.217 -0.1149 -0.2291  0.2309
   91MOL0     C11919   3.959   8.673   3.098  1.0846 -0.2373 -0.3249
   91MOL0     C11920   3.935   8.523   3.098 -0.8394  0.6061 -0.7002
   91MOL0     C11921   3.863   8.460   2.984  0.3923  0.1851 -0.6294
   91MOL0     C11922   3.962   8.441   2.875 -0.2560 -0.1685 -0.8244
   91MOL0     C11923   3.899   8.416   2.740  0.3236 -0.7691  0.0205
   91MOL0    Cl11924   4.033   8.384   2.627 -0.5744 -0.2281  0.2355
   91MOL0     C11925   4.411   8.893   3.334  0.2996 -0.3475 -0.2410
   91MOL0     C11926   4.547   8.914   3.339  0.5815 -0.0631 -0.2571
   91MOL0     O11927   4.833   8.771   3.621 -0.1936  0.3487  0.0648
   91MOL0     C11928   5.085   8.852   3.590 -0.4554 -0.2907 -0.9256
   91MOL0     C11929   5.223   8.890   3.580  0.1610  1.1094  0.3023
   91MOL0     N11930   5.424   9.596   3.628 -0.1735 -0.1897  0.3651
   91MOL0     N11931   5.522   9.678   3.650 -0.5097 -0.7178  0.4933
   91MOL0     C11932   6.865   9.993   3.194  0.1873 -0.0578 -0.0354
   91MOL0     C11933   6.938   9.998   3.074 -0.5114  0.1923  0.1104
   91MOL0     C11934   7.043  10.021   2.635 -0.1253  0.2867  1.1465
   91MOL0     C11935   7.179  10.013   2.677  0.4474 -0.2290 -0.1303
   91MOL0     C11936   7.288  10.031   2.592  0.7099 -0.2307  0.3481
   91MOL0     C11937   7.258  10.069   2.455  0.1824 -0.9918 -0.4761
   91MOL0     O11938   7.350  10.100   2.361  0.4095 -0.5996  0.6960
   91MOL0     C11939   7.486  10.114   2.395 -0.4729 -0.1675 -0.2550
   91MOL0     C11940   7.584  10.131   2.265  0.0703 -0.9918 -0.0643
   91MOL0     C11941   7.536  10.259   2.191  0.5555  0.5686  0.3044
   91MOL0     C11942   7.606  10.280   2.054 -0.4290 -0.0125  0.4394
   91MOL0     C11943   7.562  10.408   1.991 -0.5688  0.1379  0.3038
   91MOL0     C11944   7.540  10.513   1.941  0.0548  0.1570 -0.1004
   91MOL0     C11945   7.128  10.079   2.416 -0.0965 -0.1123 -0.1053
   91MOL0     C11946   7.024  10.057   2.503 -1.1222  0.3098  0.5539
   91MOL0     H11947   6.679   9.908   2.863  0.8556 -0.7321 -0.0657
   91MOL0     H11948   6.575   9.860   3.073  0.6278 -0.7063  0.5373
   91MOL0     H11949   6.590   9.774   3.444  0.0810  1.4792  1.6139
   91MOL0     H11950   6.563   9.777   3.267  3.7756  2.0913 -2.7574
   91MOL0     H11951   6.407   9.971   3.306 -0.8938 -0.4829 -0.8864
   91MOL0     H11952   6.460   9.977   3.472  0.4863  1.1056 -0.6326
   91MOL0     H11953   6.363   9.766   3.527 -1.8017  0.9751  0.8737
   91MOL0     H11954   6.346   9.723   3.360  4.0910  0.1182  1.3358
   91MOL0     H11955   6.180   9.946   3.482 -0.5001  0.8750 -1.4786
   91MOL0     H11956   6.177   9.882   3.309  2.3254 -1.7360 -1.7538
   91MOL0     H11957   6.111   9.701   3.538  2.8388 -1.9770 -1.7276
   91MOL0     H11958   6.074   9.680   3.373 -0.9183  0.2419 -0.1086
   91MOL0     H11959   5.923   9.861   3.364  0.7123 -3.3057 -2.1013
   91MOL0     H11960   5.953   9.902   3.530  1.3180 -0.5827 -0.0748
   91MOL0     H11961   5.838   9.638   3.449 -1.4711  1.6596 -0.1114
   91MOL0     H11962   5.877   9.683   3.615  5.1662  2.1687 -0.0438
   91MOL0     H11963   5.694   9.849   3.451 -1.7019 -0.5567 -0.5609
   91MOL0     H11964   5.719   9.840   3.625  1.7497 -0.3748 -0.9776
   91MOL0     H11965   5.594   9.568   3.350 -2.7501  1.1078 -1.1915
   91MOL0     H11966   5.308   9.480   3.350 -0.7366 -3.9880 -1.0087
   91MOL0     H11967   5.250   9.458   3.508  0.2624  0.1545 -1.5199
   91MOL0     H11968   5.495   9.287   3.402  0.4932 -2.1028  1.9649
   91MOL0     H11969   5.324   9.250   3.379 -1.9026  2.9517 -0.9890
   91MOL0     H11970   5.461   9.271   3.650 -1.0277  1.0344  1.2487
   91MOL0     H11971   5.296   9.221   3.614  0.2972  1.0587  1.2304
   91MOL0     H11972   5.441   9.015   3.633  0.6057 -2.0220 -1.8772
   91MOL0     H11973   5.553   9.074   3.520 -0.3659 -0.8745 -0.7992
   91MOL0     H11974   5.167   9.106   3.321  0.8323 -0.3183  0.3884
   91MOL0     H11975   4.939   9.057   3.367 -0.2034  2.0747  1.1106
   91MOL0     H11976   4.599   8.834   3.662  0.8346  1.0194 -0.5122
   91MOL0     H11977   4.350   8.764   3.638 -1.2683  2.2826  0.2856
   91MOL0     H11978   4.180   8.997   3.365 -2.6432  0.9173  1.4877
   91MOL0     H11979   4.039   8.899   3.410  1.4921  0.2673  2.1393
   91MOL0     H11980   4.185   8.852   3.158 -0.9958 -0.7455 -1.3149
   91MOL0     H11981   4.029   8.918   3.165  0.7064  1.4963  0.4703
   91MOL0     H11982   3.983   8.703   3.305 -1.4929  2.4434 -0.5311
   91MOL0     H11983   4.135   8.642   3.222 -0.3728 -0.7150 -1.3682
   91MOL0     H11984   3.866   8.730   3.108 -0.0822 -1.5284 -2.8508
   91MOL0     H11985   4.004   8.697   3.001 -1.6321  0.1058 -1.6167
   91MOL0     H11986   3.867   8.508   3.183 -0.5204 -3.6221 -1.0129
   91MOL0     H11987   4.032   8.474   3.110 -1.4717 -0.2089  1.5022
   91MOL0     H11988   3.778   8.524   2.957 -0.9491 -0.7989  1.0351
   91MOL0     H11989   3.821   8.366   3.022 -0.7178  1.2381  0.9154
   91MOL0     H11990   4.036   8.521   2.870  0.0641 -0.2484  1.5944
   91MOL0     H11991   4.015   8.349   2.902 -1.5165 -0.4064  1.0429
   91MOL0     H11992   3.842   8.502   2.704  0.7724 -0.9276 -1.1256
   91MOL0     H11993   3.828   8.333   2.729 -0.7718  0.1073  0.2757
   91MOL0     H11994   4.358   8.929   3.246 -0.6605 -1.3890 -0.1121
   91MOL0     H11995   4.605   8.960   3.260 -0.8608  0.9533 -0.7761
   91MOL0     H11996   5.064   8.778   3.667 -0.5242  1.4049  0.7461
   91MOL0     H11997   5.294   8.837   3.642  1.1881  0.2414 -1.5250
   91MOL0     H11998   6.904  10.041   3.283 -1.2494  1.6552 -0.2744
   91MOL0     H11999   7.039  10.037   3.073 -1.2098  2.1131 -0.5941
   91MOL0     H12000   7.215   9.970   2.770 -0.4433 -1.4005 -0.3020
   91MOL0     H12001   7.388  10.027   2.636 -0.0403 -1.6235  2.0608
   91MOL0     H12002   7.512  10.018   2.442  0.9860  0.6717  0.7212
   91MOL0     H12003   7.500  10.189   2.473  1.6186 -0.4711 -0.2582
   91MOL0     H12004   7.691  10.128   2.287 -0.3709 -0.4213  2.4439
   91MOL0     H12005   7.577  10.041   2.203  1.7520 -2.9057  2.3222
   91MOL0     H12006   7.547  10.350   2.251 -1.8672  2.5630 -2.0088
   91MOL0     H12007   7.429  10.245   2.173  0.6810  1.3052 -1.1353
   91MOL0     H12008   7.712  10.301   2.073  0.0148 -0.9994 -0.8097
   91MOL0     H12009   7.594  10.191   1.991  0.3694 -0.5077  0.9688
   91MOL0     H12010   7.521  10.602   1.886  4.0158  1.2070 -0.0350
   91MOL0     H12011   7.100  10.107   2.315  0.3439 -0.9979 -0.4841
   91MOL0     H12012   6.925  10.069   2.460 -0.4141 -0.0841 -1.2512
   92MOL0     O12013   6.611   5.858   5.125  0.0206  0.3458 -0.1808
   92MOL0     C12014   6.628   5.874   5.004  0.0248  0.1234  0.5516
   92MOL0     O12015   6.533   5.918   4.909  0.6119 -0.3691  1.0265
   92MOL0     C12016   6.397   5.907   4.930 -0.5890 -0.7221  0.0125
   92MOL0     C12017   6.318   5.944   4.821 -0.6208 -0.0370  0.2428
   92MOL0     C12018   6.180   5.955   4.829  0.1911  0.4495 -0.7178
   92MOL0     C12019   6.115   5.932   4.949  0.2622 -0.0625  0.6470
   92MOL0     O12020   5.976   5.951   4.960  0.4238 -0.1076  0.0884
   92MOL0     C12021   5.889   5.920   4.851 -0.2789 -0.0568  0.3222
   92MOL0     C12022   5.825   6.053   4.810  0.4806  0.0360  0.1724
   92MOL0     C12023   5.734   6.112   4.917 -0.6801 -0.3154 -0.9708
   92MOL0     C12024   5.649   6.231   4.883 -0.6015 -0.5866 -0.2262
   92MOL0     C12025   5.586   6.295   5.004 -0.2775 -0.0341 -0.9062
   92MOL0     C12026   5.678   6.336   5.123 -0.1425  0.1339 -0.3885
   92MOL0     C12027   5.617   6.428   5.223  0.2527  0.6347  0.1290
   92MOL0     C12028   5.488   6.385   5.291 -0.1240  0.0421  0.2408
   92MOL0     N12029   5.418   6.495   5.349  0.0735  0.4521  0.3586
   92MOL0     C12030   5.423   6.541   5.483 -0.1075  0.8127 -0.7543
   92MOL0     C12031   5.363   6.662   5.477 -0.4962  0.0027  0.1043
   92MOL0     C12032   5.348   6.754   5.600  0.4356 -0.4533 -0.0939
   92MOL0     C12033   5.195   6.770   5.636 -0.5335 -0.0828  0.6247
   92MOL0     C12034   5.121   6.876   5.545 -0.4278  0.0219 -1.3574
   92MOL0     C12035   5.141   7.019   5.599 -1.0182 -1.0036 -0.2538
   92MOL0     O12036   5.116   7.115   5.495 -0.1919  0.1189 -0.1271
   92MOL0     C12037   4.987   7.145   5.468  0.1500 -0.0978  0.6765
   92MOL0     C12038   4.965   7.194   5.332  0.4450 -0.3840 -0.5492
   92MOL0     C12039   4.834   7.219   5.282  0.5397  0.4425  0.8319
   92MOL0     C12040   4.727   7.193   5.376 -0.1140  0.3761  0.7819
   92MOL0     C12041   4.584   7.175   5.327  0.3629  0.3169 -0.3667
   92MOL0     O12042   4.493   7.146   5.431 -0.1854  0.3554  0.4533
   92MOL0     C12043   4.357   7.134   5.407 -0.5946  0.7217  0.3710
   92MOL0     C12044   4.274   7.162   5.511  0.9206  0.3548  0.0260
   92MOL0     C12045   4.135   7.158   5.495 -0.1908 -0.0479  0.6099
   92MOL0     C12046   4.069   7.118   5.385  0.4422 -0.6942  0.2292
   92MOL0     O12047   3.935   7.112   5.393 -0.0003 -0.0845 -0.0888
   92MOL0     C12048   3.868   7.044   5.285 -0.2100 -0.0134  0.3597
   92MOL0     C12049   3.711   7.035   5.325 -0.4987 -0.4837 -0.8461
   92MOL0     C12050   3.613   7.135   5.259 -0.7732 -0.3933  0.3973
   92MOL0     C12051   3.469   7.102   5.319 -0.3682 -0.1348  0.1035
   92MOL0     C12052   3.345   7.147   5.245 -0.1365  0.4926  0.7017
   92MOL0     C12053   3.232   7.176   5.345 -0.4158  0.0569  1.2232
   92MOL0     C12054   3.096   7.218   5.283  0.2271 -0.8233 -0.3126
   92MOL0     C12055   3.049   7.146   5.150 -0.4122  0.6274  0.8003
   92MOL0    Cl12056   2.877   7.175   5.081  0.2850 -0.3144  0.1529
   92MOL0     C12057   4.158   7.091   5.271  0.0038 -0.0149  0.4993
   92MOL0     C12058   4.295   7.105   5.285 -0.0368  0.4788  1.0100
   92MOL0     O12059   4.562   7.202   5.214 -0.3963  0.2060  0.2070
   92MOL0     C12060   4.756   7.161   5.510 -0.2097  0.7379  0.2971
   92MOL0     C12061   4.881   7.126   5.557 -0.4112 -0.5187  0.5444
   92MOL0     N12062   5.306   6.680   5.356  0.4236  0.0920 -0.8937
   92MOL0     N12063   5.337   6.588   5.284 -0.4612  0.0253  0.9795
   92MOL0     C12064   6.192   5.905   5.059  0.4807  0.2400 -0.4329
   92MOL0     C12065   6.331   5.884   5.054 -0.0805  0.2882  0.6328
   92MOL0     C12066   6.765   5.883   4.964 -0.1817  0.0524  0.8820
   92MOL0     C12067   6.800   5.949   4.842 -0.4736  0.9781  0.9769
   92MOL0     C12068   6.942   5.973   4.826  0.1040  0.6475  0.1005
   92MOL0     C12069   7.042   5.919   4.906 -0.0939 -0.2950  1.0185
   92MOL0     O12070   7.176   5.939   4.895 -0.1704 -0.0111  0.7967
   92MOL0     C12071   7.237   5.850   4.801  0.5510  0.1543 -0.4585
   92MOL0     C12072   7.395   5.860   4.816 -0.0555  0.9779  0.3477
   92MOL0     C12073   7.453   6.013   4.814  0.7135 -0.2637  0.1792
   92MOL0     C12074   7.442   6.090   4.687  0.1349  0.0447 -0.4135
   92MOL0     C12075   7.486   6.034   4.558 -0.5229 -0.2906 -0.0568
   92MOL0     C12076   7.490   6.014   4.439 -0.1449  0.7726 -0.3477
   92MOL0     C12077   7.003   5.850   5.021 -0.1476 -0.1883  0.9393
   92MOL0     C12078   6.867   5.834   5.049 -0.0140  0.2260 -0.9032
   92MOL0     H12079   6.358   5.949   4.721 -2.0100  0.4678 -0.3206
   92MOL0     H12080   6.125   5.971   4.736  0.9605 -0.8226 -1.4248
   92MOL0     H12081   5.817   5.851   4.898  0.8539 -0.4177  1.6108
   92MOL0     H12082   5.935   5.869   4.766 -1.8173  1.2620 -1.3813
   92MOL0     H12083   5.765   6.022   4.725  0.1129 -1.1676  0.8560
   92MOL0     H12084   5.894   6.129   4.771  2.0489 -1.9526 -1.1750
   92MOL0     H12085   5.795   6.130   5.007 -0.0053 -0.9128 -1.2955
   92MOL0     H12086   5.660   6.035   4.939  0.1249 -1.3207 -1.7197
   92MOL0     H12087   5.709   6.308   4.834 -1.6571 -1.2087 -2.6285
   92MOL0     H12088   5.572   6.202   4.811  0.9950  0.5916 -2.5160
   92MOL0     H12089   5.504   6.234   5.044  1.4763 -0.6632  2.0340
   92MOL0     H12090   5.531   6.385   4.972  0.2860 -0.3142 -2.8041
   92MOL0     H12091   5.773   6.380   5.090  0.6153 -0.6545  0.6261
   92MOL0     H12092   5.713   6.245   5.174  5.0610  2.1021  0.1603
   92MOL0     H12093   5.685   6.446   5.307 -0.9893  3.3684  0.6561
   92MOL0     H12094   5.593   6.522   5.172 -0.1282  0.0595 -0.7690
   92MOL0     H12095   5.510   6.313   5.371 -3.4174 -0.9097  0.4274
   92MOL0     H12096   5.422   6.342   5.215 -1.3244  1.4626  0.4484
   92MOL0     H12097   5.476   6.488   5.562  0.0428  2.0072 -0.0259
   92MOL0     H12098   5.380   6.857   5.582  3.0782 -1.4785 -1.8117
   92MOL0     H12099   5.398   6.709   5.685  1.3584 -0.3991 -0.5961
   92MOL0     H12100   5.196   6.794   5.742  0.9996 -1.2774  0.9115
   92MOL0     H12101   5.135   6.680   5.621 -0.4291  0.1941 -2.0514
   92MOL0     H12102   5.149   6.865   5.439 -1.7149 -4.3329 -1.4457
   92MOL0     H12103   5.011   6.874   5.539 -0.5429  0.6330  0.1506
   92MOL0     H12104   5.241   7.056   5.622 -2.8035  3.3276  1.6380
   92MOL0     H12105   5.081   7.030   5.689 -0.5835 -2.0797  0.1774
   92MOL0     H12106   5.046   7.205   5.261  0.8706  0.2235  0.0194
   92MOL0     H12107   4.817   7.263   5.184  1.3784 -1.2208 -0.1099
   92MOL0     H12108   4.309   7.189   5.610 -1.3913  2.3276  0.4008
   92MOL0     H12109   4.081   7.182   5.587 -1.1324 -0.9728  0.3134
   92MOL0     H12110   3.923   6.950   5.273  1.9213  1.2779 -0.7178
   92MOL0     H12111   3.881   7.104   5.194  1.8052 -0.4863  0.2836
   92MOL0     H12112   3.712   7.036   5.435  2.3112  3.9439 -0.6691
   92MOL0     H12113   3.669   6.945   5.280 -0.5237  0.4834 -2.8719
   92MOL0     H12114   3.609   7.129   5.150  1.1859 -0.7295  0.3126
   92MOL0     H12115   3.640   7.237   5.287  3.3338 -1.8675  2.6478
   92MOL0     H12116   3.458   6.996   5.342 -1.5390  0.2698  1.4965
   92MOL0     H12117   3.487   7.150   5.416  2.0114 -1.0782  0.2028
   92MOL0     H12118   3.306   7.070   5.177  0.9858 -0.0111  0.6011
   92MOL0     H12119   3.363   7.232   5.179  0.6797  1.1302  1.7135
   92MOL0     H12120   3.269   7.256   5.411  2.3618 -1.3140  1.4710
   92MOL0     H12121   3.219   7.087   5.407  0.4232  0.9785  2.7789
   92MOL0     H12122   3.022   7.206   5.363  2.4841  0.5642  2.1325
   92MOL0     H12123   3.109   7.325   5.264  1.6070 -1.1644 -1.4409
   92MOL0     H12124   3.059   7.038   5.164 -2.3275  0.6593  2.8800
   92MOL0     H12125   3.119   7.169   5.069 -0.7287  2.0122  0.9006
   92MOL0     H12126   4.115   7.052   5.179 -2.4789 -1.4466  2.1478
   92MOL0     H12127   4.361   7.086   5.201 -0.9681  1.7847 -0.0524
   92MOL0     H12128   4.678   7.153   5.584 -0.7594  0.5988 -0.2896
   92MOL0     H12129   4.904   7.100   5.660  1.8541  2.8617  1.0878
   92MOL0     H12130   6.135   5.910   5.152 -0.9507  3.8465 -1.3347
   92MOL0     H12131   6.383   5.874   5.149 -1.9139 -0.7713  1.5873
   92MOL0     H12132   6.727   5.978   4.767  0.8663 -1.6841 -1.5751
   92MOL0     H12133   6.975   6.020   4.734  0.0402 -2.5455 -1.7097
   92MOL0     H12134   7.202   5.886   4.703 -2.5389  2.4565  1.3187
   92MOL0     H12135   7.212   5.743   4.805  3.3162 -0.6329 -1.7382
   92MOL0     H12136   7.425   5.814   4.911 -0.3493  0.0042 -0.0169
   92MOL0     H12137   7.435   5.796   4.738  0.4649  1.8247 -0.0913
   92MOL0     H12138   7.562   6.007   4.826  0.7666  0.4593  0.1217
   92MOL0     H12139   7.423   6.064   4.906  0.2724 -0.4396  0.1364
   92MOL0     H12140   7.338   6.124   4.676 -0.7132 -2.5647 -1.2075
   92MOL0     H12141   7.497   6.185   4.691 -0.7338  0.5971 -1.0755
   92MOL0     H12142   7.508   5.993   4.335  0.4573  2.0400 -0.5152
   92MOL0     H12143   7.082   5.819   5.087 -0.5763  1.0906  2.0994
   92MOL0     H12144   6.851   5.792   5.148 -0.7477  1.1319 -0.6236
   93MOL0     O12145  10.619   8.509  10.053  0.0344 -0.7236  0.2899
   93MOL0     C12146  10.546   8.565   9.969  0.9200 -0.5827 -0.1214
   93MOL0     O12147  10.575   8.610   9.839 -0.5144  0.5060  0.8240
   93MOL0     C12148  10.696   8.612   9.781  0.1385  0.6771 -0.0108
   93MOL0     C12149  10.808   8.533   9.815 -0.0283  0.8597  0.6569
   93MOL0     C12150  10.934   8.555   9.753  0.2833  0.7354 -0.2328
   93MOL0     C12151  10.954   8.652   9.660 -0.0821 -0.5321  0.1350
   93MOL0     O12152  11.083   8.660   9.614  0.0485  0.2125  0.0573
   93MOL0     C12153  11.112   8.732   9.499  0.8190 -0.3491 -0.2828
   93MOL0     C12154  11.263   8.703   9.471  0.9438  0.7349 -0.5515
   93MOL0     C12155  11.353   8.739   9.590  1.0085 -0.0352 -0.2532
   93MOL0     C12156  11.500   8.723   9.562 -0.1486  0.0955 -0.0548
   93MOL0     C12157  11.592   8.794   9.650  0.0592  0.7907 -0.1883
   93MOL0     C12158  11.723   8.841   9.584  0.5923  0.5885 -0.0394
   93MOL0     C12159  11.801   8.732   9.515 -0.3186  1.0239 -0.9917
   93MOL0     C12160  11.915   8.776   9.412  0.6081 -1.3387 -0.0698
   93MOL0     N12161  12.014   8.884   9.456 -0.3032 -0.2096 -0.0114
   93MOL0     C12162  12.116   8.929   9.374 -0.0027  0.9406  0.4477
   93MOL0     C12163  12.193   8.994   9.458 -0.2057 -0.4269 -0.0645
   93MOL0     C12164  12.320   9.071   9.444  0.0590  0.5885  0.6303
   93MOL0     C12165  12.417   8.991   9.351 -0.5118 -0.4385  0.0632
   93MOL0     C12166  12.478   8.883   9.421  0.4771 -0.4846 -0.6183
   93MOL0     C12167  12.537   8.779   9.322  0.0290  0.1434  0.3655
   93MOL0     O12168  12.439   8.710   9.237 -0.0400  0.0434 -0.1795
   93MOL0     C12169  12.364   8.610   9.300  0.2623  0.3325  0.3438
   93MOL0     C12170  12.369   8.571   9.430 -0.0081 -0.7985 -0.1338
   93MOL0     C12171  12.276   8.491   9.487 -0.6114 -0.2750  0.3502
   93MOL0     C12172  12.166   8.453   9.414 -0.5195  0.2659 -0.6847
   93MOL0     C12173  12.054   8.377   9.482  0.3123  0.1072  0.1085
   93MOL0     O12174  12.072   8.329   9.610 -0.2597 -0.2178 -0.5941
   93MOL0     C12175  11.969   8.276   9.681 -0.4172  0.7810  0.0091
   93MOL0     C12176  12.003   8.189   9.784  0.1399  0.1563  0.2325
   93MOL0     C12177  11.920   8.137   9.877 -0.5046 -0.0570 -0.3962
   93MOL0     C12178  11.792   8.156   9.878  0.0233 -0.1967  0.2595
   93MOL0     O12179  11.718   8.095   9.972  0.3690  0.0839 -0.0815
   93MOL0     C12180  11.585   8.048   9.919 -0.4734  0.7292  0.3005
   93MOL0     C12181  11.500   7.968  10.022 -0.1229  0.5034  0.1739
   93MOL0     C12182  11.457   8.027  10.155 -0.6290  0.0447 -0.4428
   93MOL0     C12183  11.403   7.920  10.251  0.1676  0.2069  0.0009
   93MOL0     C12184  11.347   7.996  10.380  0.6949  0.8593 -0.7524
   93MOL0     C12185  11.297   7.894  10.476  0.8788  1.3417 -0.4915
   93MOL0     C12186  11.179   7.947  10.570  0.5027 -0.7821 -0.3995
   93MOL0     C12187  11.157   7.840  10.677  0.3368  1.4440 -0.3089
   93MOL0    Cl12188  10.999   7.883  10.762 -0.0502 -0.0477  0.2108
   93MOL0     C12189  11.747   8.241   9.775  0.4183  0.3902  0.2237
   93MOL0     C12190  11.833   8.307   9.685 -0.0351  0.0460  1.0346
   93MOL0     O12191  11.946   8.361   9.414  0.3891 -0.4570  0.4567
   93MOL0     C12192  12.153   8.479   9.277 -1.1101 -0.0818 -0.2097
   93MOL0     C12193  12.259   8.562   9.220 -0.1237  0.3394 -0.3505
   93MOL0     N12194  12.148   8.986   9.593  0.2537 -0.2242 -0.2002
   93MOL0     N12195  12.033   8.923   9.585  0.3218  0.3337 -0.4352
   93MOL0     C12196  10.834   8.729   9.622 -0.7269  0.3849  0.4805
   93MOL0     C12197  10.711   8.706   9.675  0.1754 -0.1959 -0.4751
   93MOL0     C12198  10.408   8.594  10.013  0.0988  0.4232 -0.2712
   93MOL0     C12199  10.354   8.535  10.132  0.1822 -0.4514 -0.0133
   93MOL0     C12200  10.223   8.559  10.174  0.2899  0.2949  0.3356
   93MOL0     C12201  10.138   8.639  10.094  0.3257  1.0177 -0.1436
   93MOL0     O12202  10.013   8.662  10.132  0.3600  0.3021 -0.5256
   93MOL0     C12203   9.958   8.797  10.144 -0.3840  0.5843  0.5067
   93MOL0     C12204   9.823   8.799  10.074  0.5612 -0.1662  0.4285
   93MOL0     C12205   9.735   8.724  10.170  0.1093 -0.3718 -0.0456
   93MOL0     C12206   9.580   8.718  10.142  0.4650  0.5866 -0.3755
   93MOL0     C12207   9.507   8.840  10.191  0.9068  0.2134  0.4294
   93MOL0     C12208   9.437   8.941  10.227 -0.7111  0.4197 -1.0660
   93MOL0     C12209  10.189   8.687   9.971  0.4532  0.5504 -0.2965
   93MOL0     C12210  10.323   8.668   9.940 -0.9969 -0.1257 -0.0869
   93MOL0     H12211  10.787   8.456   9.889  1.4237  1.6961  2.0044
   93MOL0     H12212  11.027   8.511   9.787 -0.2827  1.0430  1.8724
   93MOL0     H12213  11.087   8.837   9.520  1.2353  0.6700 -4.1835
   93MOL0     H12214  11.059   8.703   9.408 -2.4345 -1.0299  1.6618
   93MOL0     H12215  11.293   8.751   9.378  0.0692 -1.0657 -1.8163
   93MOL0     H12216  11.277   8.599   9.440  1.4013  1.2165 -2.0278
   93MOL0     H12217  11.331   8.691   9.686 -1.2174 -1.6251 -1.4793
   93MOL0     H12218  11.333   8.846   9.605 -0.0677 -0.0106 -1.6291
   93MOL0     H12219  11.535   8.620   9.572  2.3555  0.9502  0.7393
   93MOL0     H12220  11.506   8.767   9.462 -3.5016 -1.4103 -1.0831
   93MOL0     H12221  11.617   8.726   9.732  0.0882 -0.8784 -1.5245
   93MOL0     H12222  11.534   8.875   9.694 -0.1642  0.3845  0.2712
   93MOL0     H12223  11.794   8.884   9.654  2.1878 -2.4035  0.3665
   93MOL0     H12224  11.702   8.918   9.509  3.6835 -0.8197 -2.5827
   93MOL0     H12225  11.849   8.670   9.591 -0.9818  1.0175 -0.5741
   93MOL0     H12226  11.739   8.663   9.456 -0.8438 -1.3845  2.1293
   93MOL0     H12227  11.864   8.818   9.325  2.4695  3.4223  0.7728
   93MOL0     H12228  11.974   8.688   9.386 -1.6349 -2.9342  0.0118
   93MOL0     H12229  12.127   8.915   9.267 -1.9347  3.6705 -0.2292
   93MOL0     H12230  12.366   9.082   9.542 -1.0822  0.6533  1.1772
   93MOL0     H12231  12.281   9.165   9.403 -2.5135 -1.4346 -2.0642
   93MOL0     H12232  12.494   9.061   9.318 -0.9263  0.1600  0.3417
   93MOL0     H12233  12.355   8.956   9.268  0.9324 -0.9151 -0.8332
   93MOL0     H12234  12.563   8.913   9.484  1.1415 -2.8403 -0.2997
   93MOL0     H12235  12.404   8.831   9.483 -2.4854 -0.0806 -3.5693
   93MOL0     H12236  12.601   8.704   9.370 -0.9095 -0.8990  0.0483
   93MOL0     H12237  12.603   8.827   9.249 -1.1423 -1.5384 -1.9508
   93MOL0     H12238  12.440   8.606   9.505 -1.7464  1.1735  0.7217
   93MOL0     H12239  12.288   8.463   9.591 -0.8053  0.9648  0.7243
   93MOL0     H12240  12.111   8.187   9.792  0.2133  1.9215  0.2324
   93MOL0     H12241  11.969   8.085   9.959 -1.6934 -1.4238 -0.5294
   93MOL0     H12242  11.594   7.980   9.835 -1.1775 -0.0209  0.8183
   93MOL0     H12243  11.525   8.134   9.887 -1.0049  1.1420  2.2673
   93MOL0     H12244  11.556   7.877  10.048 -0.4562  1.0521  3.0816
   93MOL0     H12245  11.415   7.939   9.958  0.4125 -0.3051 -0.1961
   93MOL0     H12246  11.382   8.105  10.138  0.1548  0.2351 -3.6569
   93MOL0     H12247  11.543   8.071  10.206 -0.3902 -0.9256  0.0119
   93MOL0     H12248  11.334   7.849  10.203 -0.3878 -1.3940  2.9225
   93MOL0     H12249  11.493   7.860  10.269 -0.8129 -2.1731 -2.3238
   93MOL0     H12250  11.263   8.051  10.337 -0.3253 -1.4631 -1.9038
   93MOL0     H12251  11.421   8.058  10.432  0.7868  0.4271 -0.3593
   93MOL0     H12252  11.380   7.849  10.532 -0.6494 -1.6731 -0.4254
   93MOL0     H12253  11.250   7.816  10.416  0.4109 -1.1131  2.7696
   93MOL0     H12254  11.214   8.040  10.616  0.1145 -0.5317 -0.6042
   93MOL0     H12255  11.086   7.956  10.513  0.8679 -2.1598 -1.2560
   93MOL0     H12256  11.230   7.816  10.756  1.2730 -0.4409 -1.6692
   93MOL0     H12257  11.141   7.740  10.637 -0.9724  2.3522 -2.1623
   93MOL0     H12258  11.644   8.273   9.762  0.1294 -0.5050  0.2369
   93MOL0     H12259  11.792   8.375   9.611 -2.1148 -1.3219  0.8299
   93MOL0     H12260  12.070   8.441   9.219 -2.7138  2.3003  0.3771
   93MOL0     H12261  12.264   8.592   9.116 -3.1501  0.5433 -0.5161
   93MOL0     H12262  10.838   8.817   9.559  3.2921  1.0876  1.4065
   93MOL0     H12263  10.625   8.766   9.648  0.2657 -0.0625 -0.4716
   93MOL0     H12264  10.425   8.483  10.195  0.4552 -0.5343 -0.3816
   93MOL0     H12265  10.185   8.511  10.264  1.8235 -0.3944  0.6427
   93MOL0     H12266  10.034   8.872  10.118 -0.1870  0.5941  1.0971
   93MOL0     H12267   9.951   8.821  10.250  1.0768  1.9408  0.3425
   93MOL0     H12268   9.784   8.899  10.053  1.0482 -0.7857 -4.7823
   93MOL0     H12269   9.824   8.745   9.979 -2.5422 -1.1485  0.8424
   93MOL0     H12270   9.737   8.763  10.272  1.4268 -1.0837  0.2124
   93MOL0     H12271   9.762   8.619  10.182 -3.8777 -1.4494  1.4019
   93MOL0     H12272   9.560   8.704  10.036  1.1810 -1.2858 -0.3018
   93MOL0     H12273   9.538   8.634  10.198 -2.9223  1.5664 -1.1999
   93MOL0     H12274   9.394   9.032  10.262 -0.9955 -0.4729  1.0364
   93MOL0     H12275  10.118   8.726   9.898  1.0976  2.5202  0.0740
   93MOL0     H12276  10.346   8.704   9.840 -3.0173  2.2984  0.2140
   94MOL0     O12277   3.354   4.659   5.168 -0.3117 -0.2345 -0.2694
   94MOL0     C12278   3.432   4.715   5.250 -0.0339  0.4775  0.2625
   94MOL0     O12279   3.399   4.725   5.388  0.3750  0.3192  0.5481
   94MOL0     C12280   3.265   4.693   5.425  0.2450  0.0169 -0.2433
   94MOL0     C12281   3.248   4.652   5.560 -0.3108  0.6273  0.1590
   94MOL0     C12282   3.127   4.613   5.623  0.3111  0.2712  0.9751
   94MOL0     C12283   3.004   4.628   5.546  0.4193  0.1084 -0.5621
   94MOL0     O12284   2.890   4.608   5.613  0.1388 -0.2546 -0.3122
   94MOL0     C12285   2.760   4.638   5.552 -0.2147  0.0392 -0.4776
   94MOL0     C12286   2.647   4.623   5.660  0.0722  0.3420  0.7197
   94MOL0     C12287   2.510   4.649   5.602  0.6970 -0.7369 -0.1074
   94MOL0     C12288   2.471   4.548   5.502 -0.1748  0.3780 -0.4040
   94MOL0     C12289   2.325   4.546   5.458  0.0367  0.1890  0.5770
   94MOL0     C12290   2.276   4.409   5.407 -0.9714  0.0069  0.6064
   94MOL0     C12291   2.125   4.385   5.410  0.8588 -0.0763  0.5356
   94MOL0     C12292   2.100   4.237   5.368  0.4478 -0.6804  0.0133
   94MOL0     N12293   1.965   4.215   5.322 -0.1506 -0.4139 -0.1021
   94MOL0     C12294   1.856   4.259   5.396 -0.4087 -0.3817  0.6044
   94MOL0     C12295   1.751   4.209   5.325 -1.0419  0.1828 -0.6748
   94MOL0     C12296   1.609   4.242   5.372 -0.3179  0.4503 -0.1340
   94MOL0     C12297   1.542   4.104   5.406  0.0358 -0.4442 -0.3071
   94MOL0     C12298   1.429   4.118   5.512  0.5748 -0.3285 -0.8216
   94MOL0     C12299   1.315   4.206   5.474  0.4926  0.2468 -0.0007
   94MOL0     O12300   1.240   4.161   5.360 -0.3494  0.5840 -0.5027
   94MOL0     C12301   1.109   4.211   5.357  0.1662 -0.0766  0.7036
   94MOL0     C12302   1.009   4.115   5.338 -0.5191 -0.0295 -0.0903
   94MOL0     C12303   0.882   4.151   5.352  0.9184 -0.0234  0.3562
   94MOL0     C12304   0.837   4.288   5.365  0.5194  0.6811 -0.3556
   94MOL0     C12305   0.692   4.315   5.358  0.3198  0.1759 -0.4729
   94MOL0     O12306   0.602   4.214   5.326  0.0645 -0.3943  0.2496
   94MOL0     C12307   0.475   4.243   5.279  0.4121  1.1125  0.6868
   94MOL0     C12308   0.421   4.194   5.162  1.2902 -0.4657 -0.6401
   94MOL0     C12309   0.287   4.231   5.127  0.1866 -0.9119 -0.0073
   94MOL0     C12310   0.207   4.310   5.213 -0.3590  0.2362  0.6984
   94MOL0     O12311   0.075   4.340   5.178 -0.0319 -0.2497  0.2720
   94MOL0     C12312   0.000   4.230   5.227 -0.1259  0.1019 -0.2788
   94MOL0     C12313  -0.141   4.233   5.179  0.4582  0.8111 -0.4329
   94MOL0     C12314  -0.225   4.350   5.245 -0.1008  0.5410  1.1064
   94MOL0     C12315  -0.379   4.329   5.231  0.5587 -0.7458  0.5486
   94MOL0     C12316  -0.463   4.433   5.311  0.0571 -0.2119  0.1885
   94MOL0     C12317  -0.614   4.407   5.285 -0.9141  0.4016 -0.2345
   94MOL0     C12318  -0.690   4.478   5.393 -0.8891 -0.2712 -1.1362
   94MOL0     C12319  -0.833   4.431   5.400 -0.8280  0.2302 -0.2897
   94MOL0    Cl12320  -0.910   4.490   5.252  0.2311 -0.1660  0.2119
   94MOL0     C12321   0.262   4.349   5.337  0.4003  0.3444 -0.8402
   94MOL0     C12322   0.395   4.311   5.368  0.2988 -1.4633  0.3726
   94MOL0     O12323   0.660   4.433   5.375  0.0574  0.1059  0.0109
   94MOL0     C12324   0.941   4.377   5.379  0.0305 -1.3139 -0.1033
   94MOL0     C12325   1.076   4.344   5.381 -1.1309 -0.5210  0.1183
   94MOL0     N12326   1.789   4.133   5.217 -0.2867 -0.1378  0.0648
   94MOL0     N12327   1.920   4.131   5.215  0.5062 -0.5698  0.0964
   94MOL0     C12328   3.017   4.682   5.413 -0.6704 -0.1289 -0.9875
   94MOL0     C12329   3.147   4.696   5.346 -0.0197 -0.2914  0.2287
   94MOL0     C12330   3.568   4.754   5.204 -0.3756 -0.5032 -0.2683
   94MOL0     C12331   3.663   4.816   5.288 -0.3108 -0.1396 -0.1884
   94MOL0     C12332   3.795   4.844   5.247  0.0592 -1.0591  0.1762
   94MOL0     C12333   3.831   4.802   5.113 -1.0968 -0.5095 -0.1269
   94MOL0     O12334   3.962   4.826   5.069  0.8033 -1.0336 -0.6193
   94MOL0     C12335   3.981   4.933   4.975  0.2338  0.0703 -0.1932
   94MOL0     C12336   3.938   5.075   5.023 -0.7988  1.0849 -0.3262
   94MOL0     C12337   3.923   5.165   4.906 -0.7881  0.5912  0.2183
   94MOL0     C12338   3.965   5.308   4.934 -0.0686  0.2677 -0.2903
   94MOL0     C12339   4.111   5.325   4.932 -0.1222 -0.1712 -0.1393
   94MOL0     C12340   4.227   5.342   4.942 -0.2637 -0.1689  0.5819
   94MOL0     C12341   3.738   4.746   5.025 -0.4173 -0.2340  0.1210
   94MOL0     C12342   3.602   4.724   5.073 -0.3899 -0.2094  0.1567
   94MOL0     H12343   3.339   4.651   5.619  2.0224  0.4475 -3.1604
   94MOL0     H12344   3.116   4.580   5.726  0.5843 -0.2065  0.8536
   94MOL0     H12345   2.742   4.562   5.475 -0.6726 -0.3710  0.0337
   94MOL0     H12346   2.749   4.744   5.525  0.7647  0.6474  1.3814
   94MOL0     H12347   2.660   4.692   5.744  1.5468  1.2432 -0.2033
   94MOL0     H12348   2.669   4.525   5.703  1.6585  0.7880  0.9906
   94MOL0     H12349   2.515   4.747   5.552 -0.7318 -0.1478  0.8491
   94MOL0     H12350   2.436   4.659   5.681 -1.0993 -0.0589 -1.7981
   94MOL0     H12351   2.530   4.556   5.410  0.0909 -2.9110 -0.6263
   94MOL0     H12352   2.496   4.452   5.548  2.5996  0.5023 -1.4543
   94MOL0     H12353   2.301   4.627   5.387 -0.6893 -0.3985  0.1311
   94MOL0     H12354   2.266   4.562   5.549  0.1906 -2.3210  1.1859
   94MOL0     H12355   2.329   4.334   5.466 -0.0483  0.9032  0.9625
   94MOL0     H12356   2.313   4.393   5.305  1.1972  2.2979  0.9187
   94MOL0     H12357   2.103   4.387   5.517 -0.2796 -0.4812  0.3216
   94MOL0     H12358   2.067   4.464   5.360  2.7961  1.9729  1.3365
   94MOL0     H12359   2.110   4.178   5.460 -0.6059 -1.4934 -0.3698
   94MOL0     H12360   2.165   4.198   5.290 -2.3045 -0.4034 -2.6250
   94MOL0     H12361   1.855   4.294   5.498 -0.0868 -4.5750  2.2576
   94MOL0     H12362   1.555   4.299   5.296 -0.6909  0.4610  0.1346
   94MOL0     H12363   1.611   4.312   5.457  0.6581  0.9054 -0.5142
   94MOL0     H12364   1.610   4.032   5.454 -4.1546 -1.8773  4.3191
   94MOL0     H12365   1.502   4.059   5.315 -1.5226  1.0401 -0.3981
   94MOL0     H12366   1.390   4.018   5.534  1.0525 -0.2856  0.2860
   94MOL0     H12367   1.477   4.152   5.604 -0.2676 -0.1975 -0.4194
   94MOL0     H12368   1.366   4.301   5.457  1.1839 -0.5754 -3.1859
   94MOL0     H12369   1.255   4.203   5.565  0.1768  2.6684 -0.0714
   94MOL0     H12370   1.053   4.018   5.322  3.0710  1.5649 -0.8720
   94MOL0     H12371   0.813   4.069   5.369  1.2392 -0.3492  0.1102
   94MOL0     H12372   0.475   4.139   5.086  2.4085  1.4655 -1.3255
   94MOL0     H12373   0.240   4.203   5.033 -0.7527 -2.4147  0.8671
   94MOL0     H12374  -0.011   4.239   5.336 -1.4003 -1.1044 -0.2790
   94MOL0     H12375   0.058   4.142   5.198  0.2287  0.6854 -1.4086
   94MOL0     H12376  -0.189   4.140   5.209 -0.1954  1.8708  2.0450
   94MOL0     H12377  -0.138   4.241   5.070 -1.2491  1.1409 -0.4880
   94MOL0     H12378  -0.203   4.448   5.201 -0.1293 -0.1153 -0.4358
   94MOL0     H12379  -0.208   4.351   5.353  2.0305  0.1237  0.8208
   94MOL0     H12380  -0.413   4.324   5.127 -1.0696  0.1220  0.9995
   94MOL0     H12381  -0.394   4.226   5.267  1.2742 -0.3214  2.1037
   94MOL0     H12382  -0.434   4.537   5.290  1.0706 -0.4435  0.3713
   94MOL0     H12383  -0.431   4.421   5.414  0.0804  2.1320  0.5061
   94MOL0     H12384  -0.623   4.300   5.305 -1.0262 -0.2011 -3.0795
   94MOL0     H12385  -0.645   4.425   5.181 -1.4943  3.0548  0.3417
   94MOL0     H12386  -0.630   4.458   5.482  1.2471  0.9685 -2.2218
   94MOL0     H12387  -0.697   4.584   5.368 -0.9458 -0.6123 -2.6933
   94MOL0     H12388  -0.886   4.468   5.488 -3.2226 -1.0701 -1.1069
   94MOL0     H12389  -0.834   4.322   5.400 -1.9830  0.2200 -1.6635
   94MOL0     H12390   0.213   4.419   5.403 -1.9580 -3.5062  1.9234
   94MOL0     H12391   0.444   4.352   5.457  2.6233 -2.4486 -0.3612
   94MOL0     H12392   0.911   4.481   5.389 -1.0170 -1.6403  0.2799
   94MOL0     H12393   1.155   4.415   5.404 -0.4785 -0.2706 -2.6279
   94MOL0     H12394   2.935   4.711   5.349 -0.5449  0.0156 -1.0840
   94MOL0     H12395   3.152   4.731   5.243  0.6405  3.6006  1.3905
   94MOL0     H12396   3.634   4.843   5.389 -0.4933  1.6447 -0.6895
   94MOL0     H12397   3.849   4.893   5.328 -0.2575  0.1651 -0.3201
   94MOL0     H12398   3.917   4.909   4.890  0.4511  2.0653 -0.9654
   94MOL0     H12399   4.084   4.940   4.938 -0.2590  3.4787 -1.2978
   94MOL0     H12400   3.835   5.075   5.059 -0.5500 -0.1735  0.4616
   94MOL0     H12401   4.015   5.113   5.091 -0.1115 -0.0266 -0.4432
   94MOL0     H12402   3.821   5.155   4.867 -0.4900 -1.7172 -0.0907
   94MOL0     H12403   3.993   5.126   4.833 -0.0933  2.7123 -0.3297
   94MOL0     H12404   3.917   5.379   4.866  0.1581  2.3188  1.5938
   94MOL0     H12405   3.933   5.347   5.031  1.9470  1.0099  0.1283
   94MOL0     H12406   4.333   5.348   4.956 -0.1580  0.6549 -0.4290
   94MOL0     H12407   3.779   4.720   4.928  2.1799  0.1562  1.0269
   94MOL0     H12408   3.538   4.675   5.000  0.6438 -1.9095  0.3527
   95MOL0     O12409   8.056  10.768   6.420  0.0856 -0.6044  0.3892
   95MOL0     C12410   8.122  10.827   6.344  0.9119  0.8053  0.2133
   95MOL0     O12411   8.100  10.953   6.298  0.1700  0.3119  0.5716
   95MOL0     C12412   7.976  11.019   6.316 -0.8248 -0.4746  0.2161
   95MOL0     C12413   7.880  11.004   6.219  0.3603 -0.0799  0.0283
   95MOL0     C12414   7.748  11.040   6.251  0.1814  0.4260  0.2546
   95MOL0     C12415   7.718  11.081   6.375 -0.2210 -0.3908 -0.0123
   95MOL0     O12416   7.587  11.107   6.405  1.4038 -0.1803 -0.7842
   95MOL0     C12417   7.548  11.058   6.535  0.8829  0.3984 -0.2696
   95MOL0     C12418   7.398  11.024   6.532  0.3558  0.1914 -0.1291
   95MOL0     C12419   7.312  11.149   6.517  0.2255 -0.2937  0.0904
   95MOL0     C12420   7.166  11.124   6.509  0.5284 -0.2732 -0.4558
   95MOL0     C12421   7.090  11.255   6.495 -0.1673 -0.4990  0.0673
   95MOL0     C12422   6.932  11.255   6.513  0.2688 -0.5905 -0.6796
   95MOL0     C12423   6.863  11.185   6.391  0.1404 -0.7497  0.2434
   95MOL0     C12424   6.710  11.232   6.397  0.2964  0.6531  0.2740
   95MOL0     N12425   6.620  11.199   6.288 -0.1528 -0.4006  0.4913
   95MOL0     C12426   6.502  11.256   6.262  0.2777 -0.3457  0.2017
   95MOL0     C12427   6.453  11.182   6.158 -0.0868 -0.6942  0.4420
   95MOL0     C12428   6.310  11.195   6.104  0.7189  0.1978  0.2411
   95MOL0     C12429   6.272  11.341   6.087  0.8873 -0.4313 -0.0998
   95MOL0     C12430   6.156  11.361   5.986  0.1666  0.9445  0.1699
   95MOL0     C12431   6.102  11.499   5.965  0.1932  0.6693 -0.0438
   95MOL0     O12432   6.016  11.549   6.061 -0.7181 -0.1144 -0.4241
   95MOL0     C12433   5.892  11.592   6.027 -0.3780  0.7069  0.0122
   95MOL0     C12434   5.869  11.721   6.007  0.2279 -0.2264  0.0755
   95MOL0     C12435   5.738  11.767   5.982  0.0230  1.4302  0.7432
   95MOL0     C12436   5.632  11.679   5.964 -0.5251  0.2924 -0.8511
   95MOL0     C12437   5.489  11.723   5.931 -0.5958  0.0948  0.4723
   95MOL0     O12438   5.462  11.854   5.908 -0.9372  0.2225 -0.8394
   95MOL0     C12439   5.330  11.898   5.894 -0.6525 -0.1988  0.1001
   95MOL0     C12440   5.257  11.880   5.779  0.9193 -0.9304  0.0816
   95MOL0     C12441   5.123  11.925   5.764 -0.1153  0.9166  0.7551
   95MOL0     C12442   5.053  11.984   5.867  0.3329  0.3201 -0.1274
   95MOL0     O12443   4.921  12.028   5.832 -0.5621 -0.4064 -0.3610
   95MOL0     C12444   4.873  12.147   5.895  0.6166 -0.1275 -0.3598
   95MOL0     C12445   4.734  12.175   5.837  0.0434  0.2610  1.4608
   95MOL0     C12446   4.672  12.303   5.889 -0.4143  0.0442 -0.1707
   95MOL0     C12447   4.520  12.306   5.844  0.3473  0.2791  0.1965
   95MOL0     C12448   4.452  12.418   5.915  0.5821 -0.9407  0.5789
   95MOL0     C12449   4.418  12.352   6.050 -0.1575  0.3140  0.5596
   95MOL0     C12450   4.320  12.430   6.131  0.9572 -0.3299 -0.8310
   95MOL0     C12451   4.317  12.386   6.282  0.5512 -0.2068  0.0216
   95MOL0    Cl12452   4.189  12.492   6.365 -0.3118 -0.1250  0.3898
   95MOL0     C12453   5.125  12.005   5.981 -0.2072 -0.1510 -0.2826
   95MOL0     C12454   5.261  11.958   5.996 -0.7664 -0.2841 -0.4440
   95MOL0     O12455   5.408  11.635   5.925 -0.6862 -0.4490 -0.5619
   95MOL0     C12456   5.662  11.542   5.975  0.3393 -0.2296  0.5665
   95MOL0     C12457   5.792  11.502   6.013  0.9563 -0.2224  0.0242
   95MOL0     N12458   6.538  11.077   6.119  1.1151  0.4945  0.2602
   95MOL0     N12459   6.642  11.093   6.200  0.4426  1.5733  0.5768
   95MOL0     C12460   7.817  11.096   6.471  0.3879 -0.5885 -0.0665
   95MOL0     C12461   7.948  11.074   6.437 -0.3732 -0.0958  0.0033
   95MOL0     C12462   8.230  10.750   6.283  0.2091 -0.4013 -0.2388
   95MOL0     C12463   8.262  10.609   6.303  1.5666  0.1520  0.6208
   95MOL0     C12464   8.343  10.537   6.220 -0.7415  0.1334  0.4366
   95MOL0     C12465   8.414  10.608   6.116  0.3639 -0.0748 -0.6132
   95MOL0     O12466   8.507  10.551   6.030 -0.1727 -0.8504 -0.8496
   95MOL0     C12467   8.547  10.413   6.039 -0.0700  0.7364 -0.4370
   95MOL0     C12468   8.604  10.362   5.910 -0.4177 -0.5182  0.0105
   95MOL0     C12469   8.483  10.324   5.817  0.3527 -0.2386  0.0593
   95MOL0     C12470   8.387  10.432   5.764  0.3677  0.2071 -0.1501
   95MOL0     C12471   8.287  10.392   5.668  0.8008  0.0919 -0.1988
   95MOL0     C12472   8.198  10.352   5.585 -0.8103 -0.1962 -0.0273
   95MOL0     C12473   8.394  10.750   6.109 -0.7490  0.8665 -0.1229
   95MOL0     C12474   8.312  10.815   6.193 -0.2824 -1.3118  0.4851
   95MOL0     H12475   7.907  10.951   6.128  0.5892 -2.4103  1.3656
   95MOL0     H12476   7.673  11.019   6.175  1.9658 -0.3833 -1.3546
   95MOL0     H12477   7.564  11.131   6.615  3.4192 -2.3318  1.9904
   95MOL0     H12478   7.605  10.968   6.561  2.0476  1.0836 -0.3861
   95MOL0     H12479   7.377  10.962   6.620  2.8938  0.6172  0.8475
   95MOL0     H12480   7.379  10.960   6.445  2.9521 -0.5113 -0.2684
   95MOL0     H12481   7.356  11.209   6.437  2.3969 -2.6649 -0.6288
   95MOL0     H12482   7.325  11.208   6.609  0.7631 -1.9850  1.1526
   95MOL0     H12483   7.131  11.059   6.428 -0.7811  1.4936 -1.3791
   95MOL0     H12484   7.140  11.074   6.603  0.5447 -1.6923 -1.1844
   95MOL0     H12485   7.118  11.309   6.404 -0.6830  2.0466  1.3187
   95MOL0     H12486   7.126  11.320   6.575  0.5916  0.7331 -1.2417
   95MOL0     H12487   6.904  11.361   6.515 -0.4796 -0.7238 -2.3712
   95MOL0     H12488   6.908  11.205   6.608 -0.0300  0.4087 -0.2206
   95MOL0     H12489   6.910  11.221   6.298 -0.2202 -0.5294  0.1467
   95MOL0     H12490   6.878  11.077   6.392 -2.5336 -1.1854 -0.7828
   95MOL0     H12491   6.707  11.340   6.416  2.0610  1.0926 -1.4918
   95MOL0     H12492   6.675  11.186   6.489 -0.1893 -3.1799 -1.6020
   95MOL0     H12493   6.454  11.337   6.317  1.2495 -0.6862  1.5890
   95MOL0     H12494   6.239  11.142   6.168  2.3571 -0.0464  1.9669
   95MOL0     H12495   6.298  11.152   6.004 -1.8254  2.0039 -0.3175
   95MOL0     H12496   6.355  11.402   6.051 -1.5032  1.8847 -2.0359
   95MOL0     H12497   6.257  11.380   6.188  3.3366  1.0165 -0.2261
   95MOL0     H12498   6.186  11.327   5.886 -1.5895 -0.1182 -0.0502
   95MOL0     H12499   6.067  11.305   6.017 -0.1893  2.8020  2.7890
   95MOL0     H12500   6.050  11.498   5.869  2.5099 -1.7661 -1.4203
   95MOL0     H12501   6.176  11.574   5.936  1.2886 -0.6209 -0.7163
   95MOL0     H12502   5.967  11.768   6.001  1.2373 -2.2676 -0.2698
   95MOL0     H12503   5.730  11.873   5.963 -0.5900  1.0565 -1.2623
   95MOL0     H12504   5.302  11.831   5.693 -1.0196  1.2924 -2.3791
   95MOL0     H12505   5.052  11.893   5.689 -0.8431  1.9293  0.9814
   95MOL0     H12506   4.931  12.239   5.886 -1.4070  1.1438 -1.0983
   95MOL0     H12507   4.863  12.131   6.003  0.4023  0.1421 -0.3371
   95MOL0     H12508   4.661  12.095   5.856  0.0951 -0.7788 -2.0005
   95MOL0     H12509   4.737  12.183   5.728 -1.1344  0.8677  1.4633
   95MOL0     H12510   4.726  12.389   5.850  0.9534 -1.9794 -3.0585
   95MOL0     H12511   4.662  12.295   5.998  0.6526 -2.4627 -0.2087
   95MOL0     H12512   4.519  12.337   5.739 -1.2605 -0.9599 -0.1858
   95MOL0     H12513   4.471  12.209   5.850  0.5832  0.1371 -0.1655
   95MOL0     H12514   4.365  12.451   5.858  1.0450 -2.2937 -0.9895
   95MOL0     H12515   4.521  12.501   5.936  0.2005 -1.0226  2.3567
   95MOL0     H12516   4.508  12.343   6.111  0.6214 -1.1138 -0.7040
   95MOL0     H12517   4.383  12.250   6.033 -1.1720  0.3227  2.4015
   95MOL0     H12518   4.342  12.537   6.125 -3.8727  0.9337 -0.0473
   95MOL0     H12519   4.219  12.417   6.091  1.6567  1.2346 -3.2892
   95MOL0     H12520   4.417  12.401   6.323  0.3409 -0.5266  0.6737
   95MOL0     H12521   4.284  12.281   6.284 -0.4539  0.0952  1.6563
   95MOL0     H12522   5.078  12.052   6.067 -0.1527  1.0634 -0.8864
   95MOL0     H12523   5.309  11.960   6.094 -0.5010 -2.3726 -0.4720
   95MOL0     H12524   5.590  11.464   5.955  3.6679 -3.7165  0.9125
   95MOL0     H12525   5.812  11.396   6.028 -2.2586 -0.8036  0.9996
   95MOL0     H12526   7.798  11.139   6.569 -0.1755  0.0965 -0.4673
   95MOL0     H12527   8.028  11.085   6.510 -2.0314  0.1470  1.8938
   95MOL0     H12528   8.201  10.553   6.373  2.9033 -0.5634  1.2446
   95MOL0     H12529   8.359  10.430   6.219 -1.8799 -0.0929 -2.5496
   95MOL0     H12530   8.454  10.360   6.058 -0.4147  1.6784  0.5660
   95MOL0     H12531   8.621  10.413   6.120  2.6515  1.3698 -2.7478
   95MOL0     H12532   8.664  10.437   5.859 -2.7236  1.3800 -0.0816
   95MOL0     H12533   8.666  10.274   5.929  1.0999  0.9528  2.3639
   95MOL0     H12534   8.427  10.253   5.878  0.3772 -0.0264  0.3266
   95MOL0     H12535   8.526  10.265   5.735  1.4434  1.0708 -0.3461
   95MOL0     H12536   8.335  10.483   5.846 -0.4322  3.9349 -2.7047
   95MOL0     H12537   8.456  10.493   5.704  2.6207 -1.1696  0.8935
   95MOL0     H12538   8.148  10.291   5.512  0.9547 -2.2690  0.3838
   95MOL0     H12539   8.464  10.803   6.045 -0.7092 -1.3193 -2.0194
   95MOL0     H12540   8.316  10.923   6.179  0.4535 -1.4755 -0.6962
   96MOL0     O12541   3.542   3.530   9.483  0.0403 -0.3287 -0.2681
   96MOL0     C12542   3.622   3.465   9.413  0.2336 -1.0576 -0.3030
   96MOL0     O12543   3.587   3.399   9.298 -0.1953 -0.4061 -0.1247
   96MOL0     C12544   3.456   3.370   9.260  0.5369 -0.3246  0.2997
   96MOL0     C12545   3.422   3.360   9.118  0.4603 -0.0213  0.4731
   96MOL0     C12546   3.289   3.337   9.077  0.4445  1.0733  0.1539
   96MOL0     C12547   3.183   3.320   9.162 -0.4525  0.0701 -0.3766
   96MOL0     O12548   3.058   3.296   9.113 -0.2363  0.0145 -0.1784
   96MOL0     C12549   2.973   3.410   9.128 -1.5403 -0.8402 -0.3399
   96MOL0     C12550   2.854   3.407   9.034  0.3900 -0.1766 -0.4267
   96MOL0     C12551   2.773   3.274   9.048  0.7069  0.1224  0.1980
   96MOL0     C12552   2.699   3.247   8.913 -0.7450  0.1776  0.2269
   96MOL0     C12553   2.575   3.166   8.929  0.4391 -0.0566  0.0481
   96MOL0     C12554   2.509   3.118   8.790  0.3251  0.5965 -0.0322
   96MOL0     C12555   2.389   3.020   8.815  0.2094  0.6075 -0.6920
   96MOL0     C12556   2.319   2.961   8.696  0.6216  0.8298  0.1480
   96MOL0     N12557   2.205   2.881   8.741  0.0153  0.4193  0.1664
   96MOL0     C12558   2.210   2.754   8.706 -0.3878  1.1909  0.0968
   96MOL0     C12559   2.085   2.716   8.732  0.1385 -1.1270  0.8292
   96MOL0     C12560   2.030   2.579   8.685  0.2643  0.2781 -0.3716
   96MOL0     C12561   1.947   2.512   8.800 -0.7653 -0.4507  0.2383
   96MOL0     C12562   1.925   2.362   8.785 -0.2278 -0.3371  0.4670
   96MOL0     C12563   1.848   2.334   8.661  0.0997  0.0374 -0.4974
   96MOL0     O12564   1.729   2.403   8.659 -0.6264  0.7767  0.4932
   96MOL0     C12565   1.610   2.343   8.688  0.0178 -0.3241 -0.6715
   96MOL0     C12566   1.586   2.228   8.757  0.1370  0.2034 -0.6060
   96MOL0     C12567   1.454   2.194   8.787  0.1227 -0.8634 -0.3671
   96MOL0     C12568   1.340   2.264   8.735  0.2162 -0.3362 -0.4923
   96MOL0     C12569   1.205   2.215   8.759  0.1264  0.1081  0.2655
   96MOL0     O12570   1.185   2.114   8.850 -0.5791 -0.7007 -0.4368
   96MOL0     C12571   1.056   2.076   8.870  0.2579  0.2741 -0.1897
   96MOL0     C12572   0.989   2.105   8.986  0.5467 -1.0121 -0.3828
   96MOL0     C12573   0.849   2.094   9.001 -0.1052 -0.3566  0.3483
   96MOL0     C12574   0.774   2.037   8.901  0.5764 -0.5527 -0.2217
   96MOL0     O12575   0.633   2.030   8.915 -0.3400 -0.3135 -0.1785
   96MOL0     C12576   0.565   1.955   8.808  0.3625 -0.3293 -0.5200
   96MOL0     C12577   0.411   1.966   8.821  0.7824  1.0653 -0.1359
   96MOL0     C12578   0.314   1.912   8.712 -0.0024 -0.3740  0.4488
   96MOL0     C12579   0.182   1.866   8.775 -0.0926  0.2870  0.7047
   96MOL0     C12580   0.101   1.945   8.875 -0.1634 -0.3365  0.4392
   96MOL0     C12581   0.081   2.093   8.818 -1.1535  1.1245 -1.6760
   96MOL0     C12582   0.012   2.174   8.918  0.9057  0.4887  0.1810
   96MOL0     C12583  -0.006   2.317   8.880 -0.7002  0.1795 -0.3920
   96MOL0    Cl12584  -0.027   2.346   8.707  0.1319 -0.3935  0.2219
   96MOL0     C12585   0.839   1.984   8.786 -0.2833  0.1294 -1.1299
   96MOL0     C12586   0.977   2.011   8.770 -0.2813 -0.3204  0.2289
   96MOL0     O12587   1.115   2.261   8.688 -0.0817  0.3557  0.4187
   96MOL0     C12588   1.369   2.374   8.650 -0.0241 -0.1296 -0.3185
   96MOL0     C12589   1.502   2.405   8.630 -0.3211  0.2412  0.8061
   96MOL0     N12590   2.012   2.824   8.800  0.1909  0.3575  0.5559
   96MOL0     N12591   2.089   2.923   8.795 -0.0841 -0.7918  0.3365
   96MOL0     C12592   3.214   3.328   9.295  0.1596  0.2155 -0.3505
   96MOL0     C12593   3.345   3.354   9.344  0.4533 -0.1326 -0.0644
   96MOL0     C12594   3.771   3.478   9.431  0.9017  0.0574  0.2895
   96MOL0     C12595   3.860   3.472   9.321  0.1159  0.1814 -0.7756
   96MOL0     C12596   3.999   3.481   9.334  0.0048  0.8450 -0.2120
   96MOL0     C12597   4.043   3.515   9.464  0.5999  0.1473  0.3336
   96MOL0     O12598   4.172   3.545   9.498  0.6048  0.2038  0.0323
   96MOL0     C12599   4.284   3.512   9.413  0.0264  0.4785 -0.2319
   96MOL0     C12600   4.325   3.629   9.320 -0.8021  0.8489 -0.3795
   96MOL0     C12601   4.466   3.630   9.256  1.0533 -0.5694 -1.0559
   96MOL0     C12602   4.482   3.547   9.133  0.2902 -0.6992 -0.3598
   96MOL0     C12603   4.596   3.587   9.046  0.1406 -0.3485 -0.2630
   96MOL0     C12604   4.700   3.617   8.989  0.0796  0.2098 -0.8069
   96MOL0     C12605   3.948   3.512   9.569 -1.2861 -0.4106 -0.0848
   96MOL0     C12606   3.821   3.496   9.552 -0.9458  0.5877 -0.4337
   96MOL0     H12607   3.488   3.380   9.035 -1.7842  2.5831 -0.8820
   96MOL0     H12608   3.280   3.320   8.970  2.7454 -0.8889  0.1818
   96MOL0     H12609   3.030   3.499   9.097  0.4446 -2.1826 -0.7158
   96MOL0     H12610   2.946   3.438   9.230 -0.2314  2.1313 -0.6838
   96MOL0     H12611   2.894   3.418   8.933  1.3994 -1.3338 -0.1730
   96MOL0     H12612   2.797   3.498   9.058  1.1154  0.4330 -0.9496
   96MOL0     H12613   2.713   3.267   9.139 -1.5588  1.7520 -1.0470
   96MOL0     H12614   2.851   3.197   9.048 -0.5880 -1.3186 -1.7505
   96MOL0     H12615   2.671   3.338   8.860 -3.1313 -0.0115  1.0402
   96MOL0     H12616   2.761   3.183   8.849  0.1212 -0.3674  1.5623
   96MOL0     H12617   2.497   3.205   8.994  1.8240 -0.3105  1.9627
   96MOL0     H12618   2.605   3.073   8.979  1.2029 -0.0434 -0.3656
   96MOL0     H12619   2.584   3.061   8.734  0.6486  3.3044 -2.5803
   96MOL0     H12620   2.471   3.213   8.750 -2.0423 -0.5868 -0.8325
   96MOL0     H12621   2.427   2.943   8.883  0.8691  1.5675  0.0499
   96MOL0     H12622   2.312   3.066   8.878  0.5228 -0.5666  0.5950
   96MOL0     H12623   2.396   2.906   8.641 -1.9389 -1.3839 -1.4814
   96MOL0     H12624   2.282   3.033   8.623 -0.9571 -0.3438 -0.2865
   96MOL0     H12625   2.287   2.698   8.654 -1.7206  0.8019 -1.5555
   96MOL0     H12626   2.108   2.508   8.654 -0.7258 -0.7596 -0.5963
   96MOL0     H12627   1.963   2.589   8.599 -0.7314 -2.0721  0.0209
   96MOL0     H12628   1.859   2.575   8.817 -1.2878  0.2412 -3.8457
   96MOL0     H12629   1.995   2.520   8.898  0.2966  2.5955 -0.4026
   96MOL0     H12630   2.011   2.295   8.793 -0.8387 -1.3395 -0.9868
   96MOL0     H12631   1.866   2.327   8.869  1.7931 -2.4211  1.1263
   96MOL0     H12632   1.832   2.229   8.638  1.2826 -0.3765  0.4545
   96MOL0     H12633   1.907   2.370   8.576  0.0545  1.2299 -0.0491
   96MOL0     H12634   1.672   2.168   8.786  0.7501  1.7233  0.9507
   96MOL0     H12635   1.432   2.099   8.835  0.2705  0.6519  2.9824
   96MOL0     H12636   1.045   2.144   9.070 -2.4771  1.2338  0.7868
   96MOL0     H12637   0.805   2.141   9.088  1.8924  1.3978  0.4864
   96MOL0     H12638   0.600   1.851   8.808 -0.9154 -0.7900  0.1682
   96MOL0     H12639   0.580   2.004   8.712  2.2242 -0.9703 -0.5930
   96MOL0     H12640   0.388   2.072   8.837  1.0405  0.8645  1.7892
   96MOL0     H12641   0.389   1.912   8.913  1.8674 -1.2824 -1.1485
   96MOL0     H12642   0.360   1.828   8.660 -0.2751 -0.7941  0.8782
   96MOL0     H12643   0.284   1.982   8.633  0.4530 -3.4297 -2.6544
   96MOL0     H12644   0.115   1.836   8.694 -1.9043 -0.0884  2.2697
   96MOL0     H12645   0.205   1.774   8.831 -1.3452 -0.0308  0.7417
   96MOL0     H12646   0.157   1.955   8.969  1.6411  1.4282 -0.7508
   96MOL0     H12647   0.007   1.895   8.899 -0.6127  0.7020  0.8985
   96MOL0     H12648   0.035   2.093   8.718 -0.4315 -4.0075 -2.2756
   96MOL0     H12649   0.185   2.124   8.817  1.4038 -5.6275  0.5539
   96MOL0     H12650  -0.088   2.133   8.937 -0.1165  2.4841 -0.5582
   96MOL0     H12651   0.069   2.175   9.012  0.5500  0.7776  0.3990
   96MOL0     H12652   0.086   2.372   8.903 -0.5482 -0.2682  0.0964
   96MOL0     H12653  -0.087   2.364   8.936 -0.5197 -1.3783  1.2671
   96MOL0     H12654   0.785   1.928   8.710 -3.3561 -0.0941  1.0392
   96MOL0     H12655   1.018   1.970   8.678 -3.9586 -1.3845 -1.0923
   96MOL0     H12656   1.293   2.429   8.595 -0.8150 -0.5855  0.2811
   96MOL0     H12657   1.508   2.473   8.545  2.9958 -3.0688 -1.9864
   96MOL0     H12658   3.144   3.321   9.378  1.1616 -0.3084  0.4576
   96MOL0     H12659   3.367   3.356   9.451 -1.2826 -3.4728  0.4828
   96MOL0     H12660   3.813   3.456   9.225 -3.0980 -0.7636  0.8112
   96MOL0     H12661   4.062   3.478   9.246  0.6727 -1.3974  0.2875
   96MOL0     H12662   4.270   3.418   9.358 -0.6166  0.0793  0.5910
   96MOL0     H12663   4.366   3.490   9.481 -1.6051  0.4682  1.8230
   96MOL0     H12664   4.254   3.631   9.237 -1.2626 -2.8178 -0.2216
   96MOL0     H12665   4.326   3.719   9.382  1.5616  0.0121  0.8991
   96MOL0     H12666   4.521   3.594   9.343 -2.6688 -0.5505  1.5141
   96MOL0     H12667   4.497   3.734   9.242  0.2396 -0.4416 -1.9565
   96MOL0     H12668   4.487   3.441   9.161  0.1417 -0.9508 -1.2401
   96MOL0     H12669   4.387   3.561   9.080 -0.8420 -1.1318  1.4833
   96MOL0     H12670   4.791   3.633   8.936 -0.0187 -0.4374 -1.1824
   96MOL0     H12671   3.994   3.545   9.662 -0.3480  1.0992 -1.0244
   96MOL0     H12672   3.754   3.510   9.636 -2.3132 -0.3521 -1.3272
   97MOL0     O12673   9.668   5.008   2.852 -0.4234  0.4759 -0.8047
   97MOL0     C12674   9.762   5.090   2.867 -0.2300 -0.1665  0.0447
   97MOL0     O12675   9.752   5.227   2.883  0.5736  0.0119 -0.1206
   97MOL0     C12676   9.632   5.280   2.932  0.0992 -0.2072  0.8905
   97MOL0     C12677   9.590   5.411   2.899 -0.5597  0.5817  0.3053
   97MOL0     C12678   9.489   5.472   2.963 -0.6869  0.8285  0.9409
   97MOL0     C12679   9.411   5.399   3.055 -0.2687  0.9229 -0.4591
   97MOL0     O12680   9.302   5.451   3.111 -0.1722  0.3985 -0.8047
   97MOL0     C12681   9.332   5.535   3.229 -0.3692 -0.0182 -0.9793
   97MOL0     C12682   9.225   5.543   3.351 -0.2478 -0.9361 -0.2351
   97MOL0     C12683   9.114   5.619   3.287 -0.1510 -0.0022  0.2421
   97MOL0     C12684   9.023   5.650   3.407  0.8908 -0.4576 -0.1403
   97MOL0     C12685   8.893   5.717   3.373 -0.2512  0.8376 -0.3128
   97MOL0     C12686   8.843   5.792   3.501  0.8746  0.1614  0.2899
   97MOL0     C12687   8.705   5.848   3.480  0.7886  0.6907  0.1898
   97MOL0     C12688   8.643   5.880   3.620  0.7625  0.7454 -0.1981
   97MOL0     N12689   8.694   5.997   3.690 -0.4661 -0.2105 -0.4302
   97MOL0     C12690   8.810   6.012   3.762 -0.3037 -0.7316 -0.3484
   97MOL0     C12691   8.806   6.140   3.798  0.3497 -0.7935 -0.0649
   97MOL0     C12692   8.916   6.224   3.854  0.7239  0.0542 -0.8596
   97MOL0     C12693   9.037   6.220   3.755  0.4344 -0.9577  0.0130
   97MOL0     C12694   9.161   6.288   3.803  0.1606  0.0824  0.0715
   97MOL0     C12695   9.271   6.273   3.713  0.3839  0.1209 -0.0433
   97MOL0     O12696   9.397   6.320   3.766 -0.4223 -0.1470  0.4370
   97MOL0     C12697   9.516   6.270   3.720  0.7028 -0.7033 -0.1564
   97MOL0     C12698   9.647   6.304   3.781  1.1155 -0.6358 -0.3100
   97MOL0     C12699   9.760   6.258   3.726 -0.2551 -0.3401  0.6666
   97MOL0     C12700   9.763   6.183   3.612 -0.6243  1.0518 -0.1459
   97MOL0     C12701   9.902   6.140   3.557 -0.0924 -0.3837  0.6029
   97MOL0     O12702   9.912   6.031   3.471 -0.2017  0.5647 -0.6956
   97MOL0     C12703  10.039   5.986   3.444  1.0643  0.7481 -0.0259
   97MOL0     C12704  10.101   6.014   3.322 -1.0489  0.8219 -0.1688
   97MOL0     C12705  10.223   5.958   3.286  0.1227  0.4810  0.2410
   97MOL0     C12706  10.283   5.867   3.373 -0.8080  0.0181  0.7686
   97MOL0     O12707  10.396   5.797   3.321  0.1498 -0.5131  0.6999
   97MOL0     C12708  10.511   5.854   3.372 -0.9498 -0.1594 -0.4371
   97MOL0     C12709  10.559   5.977   3.286  0.6913  0.0999  0.4403
   97MOL0     C12710  10.693   5.944   3.220  0.2045  0.0323 -0.0929
   97MOL0     C12711  10.787   6.068   3.190  1.0849  0.1254 -0.5327
   97MOL0     C12712  10.924   6.006   3.129  0.1188  0.7228 -0.1848
   97MOL0     C12713  10.903   5.895   3.028 -0.4686  0.4761  0.2839
   97MOL0     C12714  11.030   5.871   2.941  0.0352  0.4037 -0.6510
   97MOL0     C12715  11.160   5.824   3.004  0.1864 -0.2627 -0.0859
   97MOL0    Cl12716  11.137   5.706   3.139  0.2005 -0.1350  0.0933
   97MOL0     C12717  10.222   5.839   3.496 -0.9368  0.2822  0.3908
   97MOL0     C12718  10.103   5.906   3.537 -0.6099 -0.6577 -0.1307
   97MOL0     O12719   9.999   6.198   3.606 -0.3820 -0.7530 -0.0029
   97MOL0     C12720   9.647   6.148   3.555 -0.0641 -0.8140  0.1839
   97MOL0     C12721   9.523   6.192   3.603 -0.9604  1.1197  0.0570
   97MOL0     N12722   8.693   6.201   3.745  0.6745 -0.0152 -0.3402
   97MOL0     N12723   8.626   6.121   3.676 -0.4896  0.0271 -0.3074
   97MOL0     C12724   9.445   5.265   3.088  0.4362  0.4975 -0.0106
   97MOL0     C12725   9.558   5.212   3.030 -0.1392 -0.9650  1.0308
   97MOL0     C12726   9.899   5.035   2.869 -0.6161 -0.4496  0.6090
   97MOL0     C12727  10.008   5.091   2.938  0.0496  0.2532  0.5746
   97MOL0     C12728  10.133   5.024   2.931  0.1614 -0.2987 -0.1901
   97MOL0     C12729  10.149   4.911   2.855  0.5005 -0.3986  0.7658
   97MOL0     O12730  10.266   4.837   2.837  0.0586 -0.7932 -0.1934
   97MOL0     C12731  10.375   4.874   2.917 -0.3757 -0.1448 -0.6193
   97MOL0     C12732  10.508   4.822   2.853  0.3873 -0.3102 -0.4180
   97MOL0     C12733  10.532   4.676   2.892  0.6045 -0.0878 -0.5146
   97MOL0     C12734  10.678   4.627   2.848 -0.3337 -0.0128 -0.2790
   97MOL0     C12735  10.688   4.611   2.706  0.0871  0.6405  0.1920
   97MOL0     C12736  10.702   4.586   2.585 -0.0984 -0.6292 -1.0697
   97MOL0     C12737  10.033   4.859   2.798  0.8434  0.5111  0.8841
   97MOL0     C12738   9.911   4.918   2.806 -0.1224  0.8977 -0.1160
   97MOL0     H12739   9.650   5.472   2.833 -0.0692 -0.0458  0.1577
   97MOL0     H12740   9.455   5.567   2.925 -0.8870  0.4077  0.0447
   97MOL0     H12741   9.355   5.639   3.203  1.1698 -0.3254 -0.9228
   97MOL0     H12742   9.422   5.501   3.281 -1.4595 -0.2061  0.8687
   97MOL0     H12743   9.264   5.604   3.433 -2.2655  0.3992 -0.2020
   97MOL0     H12744   9.208   5.441   3.387  0.4646 -0.3312  1.9816
   97MOL0     H12745   9.064   5.554   3.214 -1.9082  0.3989  1.0559
   97MOL0     H12746   9.150   5.710   3.238  1.9629 -1.0844 -0.3696
   97MOL0     H12747   9.011   5.558   3.463 -1.3952 -0.6516 -0.8451
   97MOL0     H12748   9.075   5.721   3.473  4.1702  0.2356 -3.1314
   97MOL0     H12749   8.820   5.638   3.349  1.8092 -1.1297 -0.4581
   97MOL0     H12750   8.921   5.768   3.280  3.3315 -1.1881 -0.5537
   97MOL0     H12751   8.909   5.878   3.518 -0.0464  0.2195  5.1436
   97MOL0     H12752   8.858   5.720   3.582 -2.4603 -0.7601  0.2329
   97MOL0     H12753   8.711   5.933   3.411 -0.9919  1.8968  1.4507
   97MOL0     H12754   8.641   5.770   3.437  1.4917 -0.6139  1.4334
   97MOL0     H12755   8.671   5.794   3.682  4.6017 -0.7148 -3.4706
   97MOL0     H12756   8.536   5.901   3.614  1.5808  5.7874 -2.7487
   97MOL0     H12757   8.892   5.945   3.788  2.1790  2.0034 -0.5604
   97MOL0     H12758   8.939   6.164   3.942 -2.0596 -0.7176 -0.5534
   97MOL0     H12759   8.883   6.322   3.890 -0.6455  0.5044 -3.1474
   97MOL0     H12760   9.006   6.267   3.661 -1.3135 -1.8193  0.1113
   97MOL0     H12761   9.054   6.114   3.732  2.6243 -0.4486 -0.9447
   97MOL0     H12762   9.130   6.393   3.808 -2.6644 -0.7215  0.9839
   97MOL0     H12763   9.193   6.244   3.899  1.3041 -0.5741 -0.5878
   97MOL0     H12764   9.257   6.321   3.616 -1.4939  0.7695  0.5178
   97MOL0     H12765   9.274   6.166   3.688  4.1953 -0.5297  2.4385
   97MOL0     H12766   9.642   6.355   3.877  1.4696 -0.9156 -0.1443
   97MOL0     H12767   9.844   6.284   3.791  0.1070  0.5796 -0.1406
   97MOL0     H12768  10.042   6.085   3.266 -1.8529  1.2480  1.1606
   97MOL0     H12769  10.276   5.973   3.192 -0.2813 -0.2507 -0.1204
   97MOL0     H12770  10.588   5.777   3.375 -0.1371  0.6483 -0.3171
   97MOL0     H12771  10.500   5.897   3.473  2.6994  0.8500 -0.3455
   97MOL0     H12772  10.569   6.064   3.351 -3.4362  1.6289 -0.6925
   97MOL0     H12773  10.484   6.015   3.217 -1.7222 -1.0351  2.2739
   97MOL0     H12774  10.664   5.879   3.137 -1.5783 -0.4870  0.8796
   97MOL0     H12775  10.757   5.884   3.285 -0.5279 -0.0768  0.5393
   97MOL0     H12776  10.740   6.138   3.120  0.8390  2.7981  2.0991
   97MOL0     H12777  10.805   6.133   3.276 -0.0228  1.3766 -1.1946
   97MOL0     H12778  10.991   5.970   3.207 -1.6054  0.2660  1.1531
   97MOL0     H12779  10.992   6.080   3.086  0.6095 -0.2142 -1.0623
   97MOL0     H12780  10.821   5.926   2.962  1.4545  1.0258 -1.9878
   97MOL0     H12781  10.873   5.803   3.079  0.7753  1.4487  2.9533
   97MOL0     H12782  11.002   5.794   2.868  2.3077 -0.8263 -0.3399
   97MOL0     H12783  11.051   5.962   2.884 -0.5459 -1.2475 -3.7397
   97MOL0     H12784  11.222   5.908   3.037 -0.6803  1.0257 -1.5768
   97MOL0     H12785  11.217   5.780   2.921  1.1288  3.3466 -1.5570
   97MOL0     H12786  10.251   5.755   3.558  1.7302  1.8326  1.3917
   97MOL0     H12787  10.059   5.882   3.633  1.2213 -2.1028  0.3928
   97MOL0     H12788   9.634   6.094   3.461 -2.2760  1.2030 -0.7827
   97MOL0     H12789   9.440   6.148   3.548 -2.2661  0.5153  2.3862
   97MOL0     H12790   9.396   5.205   3.164  0.3348 -2.4499 -2.2038
   97MOL0     H12791   9.592   5.116   3.067  0.2346 -2.2154 -2.2290
   97MOL0     H12792   9.992   5.184   2.992 -0.7160  1.6675 -1.9112
   97MOL0     H12793  10.215   5.075   2.980  1.2828 -1.6638 -0.5854
   97MOL0     H12794  10.370   4.828   3.016  0.5649 -2.7829 -1.6934
   97MOL0     H12795  10.395   4.978   2.946  3.2476 -0.7588 -0.3796
   97MOL0     H12796  10.499   4.816   2.744  2.1009 -2.6334 -0.5063
   97MOL0     H12797  10.594   4.881   2.885 -1.8062  2.8221  0.1217
   97MOL0     H12798  10.452   4.608   2.861  0.9217  0.8003 -3.5621
   97MOL0     H12799  10.528   4.666   3.001 -0.8835 -0.1887 -0.5586
   97MOL0     H12800  10.757   4.694   2.883  1.3355 -0.9818 -2.0072
   97MOL0     H12801  10.696   4.533   2.902  1.9939 -1.9391 -3.9853
   97MOL0     H12802  10.727   4.571   2.482  1.5549 -2.5938 -0.4539
   97MOL0     H12803  10.036   4.761   2.752 -1.3458  0.3353  0.9921
   97MOL0     H12804   9.832   4.865   2.753  0.5470 -0.6890  0.4349
   98MOL0     O12805   0.126   0.127   6.521 -0.3649 -0.1402 -0.8437
   98MOL0     C12806   0.180   0.203   6.437 -0.5819  0.7431 -0.4392
   98MOL0     O12807   0.143   0.224   6.304  0.2796  0.4881 -0.0114
   98MOL0     C12808   0.041   0.154   6.234  0.1895  0.3388 -0.4268
   98MOL0     C12809   0.036   0.176   6.097 -0.4553 -0.3305  0.4732
   98MOL0     C12810  -0.062   0.111   6.016  0.1556 -0.2774  0.4474
   98MOL0     C12811  -0.153   0.026   6.079  0.5456  0.0867  0.5961
   98MOL0     O12812  -0.242  -0.038   6.000  0.7564  1.1192 -0.5624
   98MOL0     C12813  -0.343  -0.120   6.052  0.0662 -0.4027 -0.2333
   98MOL0     C12814  -0.426  -0.170   5.941 -0.0631  0.0724 -0.5170
   98MOL0     C12815  -0.550  -0.245   6.004  0.3269  0.1288  0.8239
   98MOL0     C12816  -0.647  -0.285   5.887  0.9540  0.1280 -0.1557
   98MOL0     C12817  -0.740  -0.402   5.927 -0.8797  1.4651  0.7802
   98MOL0     C12818  -0.684  -0.546   5.935 -0.4574 -0.4187 -0.2646
   98MOL0     C12819  -0.809  -0.644   5.963 -0.2653 -1.3275  0.1229
   98MOL0     C12820  -0.852  -0.626   6.108 -0.0484  0.2150  0.1070
   98MOL0     N12821  -0.927  -0.748   6.150  0.7043 -0.1169 -0.5021
   98MOL0     C12822  -1.037  -0.803   6.088 -0.3678 -0.4639  0.4590
   98MOL0     C12823  -1.081  -0.889   6.182  0.0246  0.3595 -0.8141
   98MOL0     C12824  -1.188  -0.989   6.162  0.0863 -0.0713 -0.5398
   98MOL0     C12825  -1.321  -0.917   6.199 -0.1412 -0.6768  0.3981
   98MOL0     C12826  -1.343  -0.933   6.349 -0.0973 -0.5934  0.3111
   98MOL0     C12827  -1.476  -0.889   6.405  0.1953 -0.4686  0.1205
   98MOL0     O12828  -1.594  -0.948   6.337  0.3016 -0.4061  0.2062
   98MOL0     C12829  -1.649  -1.069   6.367  0.2586  0.1256 -0.1571
   98MOL0     C12830  -1.752  -1.113   6.279  0.3157 -0.2876  0.2982
   98MOL0     C12831  -1.841  -1.220   6.314 -0.6440 -0.6439 -0.4703
   98MOL0     C12832  -1.833  -1.280   6.439 -0.9782  0.4366 -0.5285
   98MOL0     C12833  -1.941  -1.377   6.468 -1.2102 -0.2887 -0.0906
   98MOL0     O12834  -2.059  -1.371   6.398  0.5400 -0.1429 -0.6187
   98MOL0     C12835  -2.160  -1.462   6.435 -0.5581 -0.8099  1.0250
   98MOL0     C12836  -2.145  -1.598   6.438  0.3466 -0.3691 -0.2537
   98MOL0     C12837  -2.248  -1.679   6.487  0.0461 -0.0911  0.1427
   98MOL0     C12838  -2.375  -1.629   6.524  0.1050 -0.9216  0.5336
   98MOL0     O12839  -2.484  -1.695   6.567  0.1239 -0.2672  0.0285
   98MOL0     C12840  -2.477  -1.839   6.593  0.1295  0.8960 -0.5808
   98MOL0     C12841  -2.618  -1.895   6.635 -1.0166  0.1835 -0.2003
   98MOL0     C12842  -2.744  -1.850   6.567  0.2434  0.2394  0.3725
   98MOL0     C12843  -2.750  -1.897   6.423  0.3020  0.8708  0.6018
   98MOL0     C12844  -2.797  -2.046   6.410  0.0825  0.7410 -0.2523
   98MOL0     C12845  -2.816  -2.098   6.266 -0.7441 -0.2655 -0.3672
   98MOL0     C12846  -2.912  -2.016   6.192  0.7993  1.0252  0.3347
   98MOL0     C12847  -3.064  -2.034   6.240 -0.3128 -0.0147 -0.5864
   98MOL0    Cl12848  -3.168  -1.959   6.108  0.3456 -0.3324  0.1144
   98MOL0     C12849  -2.387  -1.487   6.511  0.4735 -1.0527  0.1187
   98MOL0     C12850  -2.283  -1.402   6.465  0.3459 -0.0139 -0.1653
   98MOL0     O12851  -1.910  -1.461   6.552  0.7125 -0.7539  0.4169
   98MOL0     C12852  -1.727  -1.246   6.526  0.2891  0.0073  0.0155
   98MOL0     C12853  -1.639  -1.143   6.485 -0.1642  0.5696 -0.4206
   98MOL0     N12854  -1.007  -0.876   6.296  0.1960  1.7146 -0.1172
   98MOL0     N12855  -0.916  -0.793   6.272 -0.8374  0.0462 -0.6123
   98MOL0     C12856  -0.146   0.013   6.221  0.6129  0.3151  0.7567
   98MOL0     C12857  -0.051   0.067   6.297 -0.1244 -0.2431  0.5204
   98MOL0     C12858   0.296   0.280   6.484  0.5356  0.3573 -0.5927
   98MOL0     C12859   0.372   0.234   6.594 -0.6926 -0.5890  0.1745
   98MOL0     C12860   0.482   0.314   6.633  0.4760  0.4493 -0.2825
   98MOL0     C12861   0.509   0.430   6.563 -0.0062 -0.9449 -0.9132
   98MOL0     O12862   0.618   0.505   6.593 -0.2493  0.1762 -0.1078
   98MOL0     C12863   0.730   0.427   6.639 -0.9332 -0.1886  0.2183
   98MOL0     C12864   0.848   0.524   6.644  0.0580 -0.7321 -0.7172
   98MOL0     C12865   0.823   0.653   6.729  0.2959  0.2179  0.6125
   98MOL0     C12866   0.961   0.711   6.766  0.7842  0.1089  0.7781
   98MOL0     C12867   1.033   0.779   6.656 -0.0090  0.0689 -0.7177
   98MOL0     C12868   1.106   0.827   6.573  0.1867 -0.2832  0.2813
   98MOL0     C12869   0.423   0.486   6.480  0.0200 -0.6246  0.7192
   98MOL0     C12870   0.325   0.405   6.423 -0.0169  0.0381  0.1325
   98MOL0     H12871   0.110   0.237   6.046 -0.0704 -1.6844 -0.6427
   98MOL0     H12872  -0.051   0.130   5.910  2.3300  0.1499  0.7082
   98MOL0     H12873  -0.414  -0.066   6.116  0.6834 -0.4006  0.4669
   98MOL0     H12874  -0.311  -0.214   6.097 -1.2268 -1.4346 -1.3524
   98MOL0     H12875  -0.363  -0.232   5.876  2.2598 -1.0647  2.5886
   98MOL0     H12876  -0.457  -0.088   5.876 -0.4710  2.5322  2.5685
   98MOL0     H12877  -0.602  -0.180   6.074  0.9524 -0.7822  2.1750
   98MOL0     H12878  -0.514  -0.331   6.060  1.3908  1.1437  1.7456
   98MOL0     H12879  -0.710  -0.203   5.852  2.2539 -0.5363 -4.8414
   98MOL0     H12880  -0.587  -0.312   5.799  2.1096 -0.0832  0.6642
   98MOL0     H12881  -0.818  -0.423   5.853  1.2706  0.6700 -1.4018
   98MOL0     H12882  -0.798  -0.375   6.016 -0.3433 -0.0945  1.6301
   98MOL0     H12883  -0.606  -0.554   6.011 -0.8500  2.8761  0.6279
   98MOL0     H12884  -0.635  -0.577   5.842 -0.5168  3.1022 -1.6550
   98MOL0     H12885  -0.889  -0.616   5.894  1.5777  2.9616 -0.5957
   98MOL0     H12886  -0.780  -0.749   5.958  2.7973 -0.6397  1.2499
   98MOL0     H12887  -0.901  -0.529   6.122 -0.2161  0.1290  0.1138
   98MOL0     H12888  -0.767  -0.615   6.177  1.0808  0.5790 -1.2900
   98MOL0     H12889  -1.069  -0.808   5.984  1.6168 -1.3687 -0.1702
   98MOL0     H12890  -1.168  -1.075   6.227 -1.9013  1.1695  1.8880
   98MOL0     H12891  -1.188  -1.017   6.057  3.7222  1.3336 -1.0620
   98MOL0     H12892  -1.393  -0.975   6.141 -0.5701  0.1515  0.0826
   98MOL0     H12893  -1.311  -0.812   6.170 -1.4026 -0.5546  0.3640
   98MOL0     H12894  -1.332  -1.040   6.371 -0.7399 -0.5643  0.8008
   98MOL0     H12895  -1.262  -0.883   6.403 -0.5087  0.6398 -0.1726
   98MOL0     H12896  -1.481  -0.780   6.393  2.1533 -0.2184  1.0497
   98MOL0     H12897  -1.469  -0.900   6.514  3.8546  1.7940  0.2872
   98MOL0     H12898  -1.776  -1.064   6.185 -0.1127  0.0301  0.5729
   98MOL0     H12899  -1.927  -1.239   6.251 -0.3971 -0.6762 -0.8032
   98MOL0     H12900  -2.050  -1.642   6.410  1.1831  2.0739 -1.5597
   98MOL0     H12901  -2.224  -1.784   6.472 -0.4593  0.1032 -2.5350
   98MOL0     H12902  -2.417  -1.852   6.684 -1.3485  1.5124  0.5350
   98MOL0     H12903  -2.429  -1.887   6.507  1.0926  1.3968 -0.3339
   98MOL0     H12904  -2.632  -1.859   6.737  1.6552  4.2198 -1.0105
   98MOL0     H12905  -2.615  -2.005   6.636 -2.2132  0.1219  1.9758
   98MOL0     H12906  -2.751  -1.741   6.575  1.3471  0.3328  0.2927
   98MOL0     H12907  -2.826  -1.892   6.625 -0.2556 -1.5222 -1.4907
   98MOL0     H12908  -2.830  -1.843   6.371  0.5726  0.6654 -0.0389
   98MOL0     H12909  -2.657  -1.877   6.369  0.0229 -2.3459 -1.3634
   98MOL0     H12910  -2.892  -2.050   6.465 -0.0075  3.1433 -0.1388
   98MOL0     H12911  -2.731  -2.119   6.457 -1.6495 -1.4575 -1.0080
   98MOL0     H12912  -2.851  -2.202   6.278  1.5861 -1.0606 -0.0253
   98MOL0     H12913  -2.724  -2.097   6.207 -0.7075 -1.5495 -0.3646
   98MOL0     H12914  -2.880  -1.912   6.188  1.7608  0.7469  0.5672
   98MOL0     H12915  -2.904  -2.056   6.091  0.9565 -1.9891  1.4356
   98MOL0     H12916  -3.079  -1.990   6.339 -2.4073 -2.2450  0.1912
   98MOL0     H12917  -3.090  -2.139   6.254  3.2521 -1.1874 -1.5654
   98MOL0     H12918  -2.485  -1.446   6.533  0.5588 -1.2856  0.9329
   98MOL0     H12919  -2.296  -1.294   6.460  2.0948  0.3456  1.7503
   98MOL0     H12920  -1.715  -1.297   6.621  1.7679 -0.4317 -0.3849
   98MOL0     H12921  -1.564  -1.116   6.558 -1.4867 -0.4719  1.4239
   98MOL0     H12922  -0.206  -0.060   6.275  0.1433 -0.5722 -0.8904
   98MOL0     H12923  -0.046   0.053   6.404  2.0549 -1.6500  0.3079
   98MOL0     H12924   0.342   0.142   6.643  2.5526 -1.4744  0.6849
   98MOL0     H12925   0.546   0.273   6.711 -0.8412  0.1856  0.6926
   98MOL0     H12926   0.757   0.337   6.583  0.9650  0.7496 -0.4850
   98MOL0     H12927   0.707   0.385   6.737  1.1007 -2.2460 -0.0831
   98MOL0     H12928   0.926   0.473   6.701  0.2380 -0.8239 -1.0404
   98MOL0     H12929   0.883   0.557   6.545 -0.2089 -0.8926 -0.8644
   98MOL0     H12930   0.773   0.633   6.825 -0.5102  0.4506  0.2531
   98MOL0     H12931   0.766   0.722   6.666  2.3793  0.6947 -0.8298
   98MOL0     H12932   0.940   0.791   6.837  3.2696  1.2772  0.2901
   98MOL0     H12933   1.032   0.641   6.811  0.0957  1.0938  3.5928
   98MOL0     H12934   1.144   0.868   6.482 -0.8052  1.1456  0.4803
   98MOL0     H12935   0.439   0.578   6.426  3.6102 -1.3917  0.1971
   98MOL0     H12936   0.261   0.448   6.346 -2.5614 -0.5313  1.7875
   99MOL0     O12937   5.925   5.469   1.470 -0.4564  0.1653  1.0639
   99MOL0     C12938   5.825   5.407   1.429 -0.0786  0.1702  0.5937
   99MOL0     O12939   5.762   5.309   1.492  0.1149  0.0577  0.2965
   99MOL0     C12940   5.823   5.267   1.605  0.3210  1.0773  0.1136
   99MOL0     C12941   5.754   5.269   1.728 -1.0565 -0.9225 -0.2123
   99MOL0     C12942   5.813   5.227   1.845  0.4504 -0.3257 -0.8911
   99MOL0     C12943   5.937   5.174   1.853  0.2013  0.4232 -0.1983
   99MOL0     O12944   5.993   5.131   1.976  0.4981  0.2403 -0.8327
   99MOL0     C12945   5.961   4.996   2.002 -0.5658  0.0956 -0.7402
   99MOL0     C12946   6.032   4.950   2.136 -0.0469  0.5679  0.8382
   99MOL0     C12947   5.962   4.982   2.270 -0.8499 -0.5863 -0.5830
   99MOL0     C12948   5.811   4.994   2.265 -0.0538 -0.1817 -1.0573
   99MOL0     C12949   5.751   5.043   2.399  0.3330  0.5948  0.2753
   99MOL0     C12950   5.752   4.949   2.526  0.9408 -0.8409 -0.5780
   99MOL0     C12951   5.697   5.029   2.641  0.1332  0.0340  0.6963
   99MOL0     C12952   5.767   5.147   2.688  0.0984 -0.2660 -0.2578
   99MOL0     N12953   5.755   5.159   2.834  0.5650  0.1894  1.2391
   99MOL0     C12954   5.808   5.074   2.933  0.0264  0.2155  1.0018
   99MOL0     C12955   5.784   5.141   3.046  0.4831 -0.6311 -0.1890
   99MOL0     C12956   5.834   5.108   3.185  0.0980 -0.0782  0.7321
   99MOL0     C12957   5.980   5.105   3.201 -0.1381  0.2861  0.5811
   99MOL0     C12958   6.046   5.244   3.178  0.5496  0.5633  0.7067
   99MOL0     C12959   6.188   5.222   3.125 -0.3284  0.0613 -0.0041
   99MOL0     O12960   6.256   5.343   3.079 -0.2952  0.2022 -0.0010
   99MOL0     C12961   6.238   5.388   2.948 -0.0822  0.4849 -0.8363
   99MOL0     C12962   6.308   5.506   2.904 -0.6213  0.5072  0.3460
   99MOL0     C12963   6.302   5.553   2.770  0.1727 -0.5930  0.4087
   99MOL0     C12964   6.211   5.492   2.672  0.1236 -0.5011 -0.8177
   99MOL0     C12965   6.221   5.534   2.528  0.0586  0.7014  1.3136
   99MOL0     O12966   6.148   5.461   2.438  0.0543  0.9743 -0.1659
   99MOL0     C12967   6.087   5.512   2.328 -0.3470 -0.0659  0.2919
   99MOL0     C12968   6.050   5.424   2.222  0.6247 -0.5131 -0.1744
   99MOL0     C12969   5.974   5.462   2.114  0.8774 -0.0788  0.3090
   99MOL0     C12970   5.919   5.595   2.109  0.0901 -0.2066 -0.3725
   99MOL0     O12971   5.832   5.620   2.003 -0.2315  0.1319 -0.5873
   99MOL0     C12972   5.712   5.681   2.044 -0.5412 -0.3872  0.2711
   99MOL0     C12973   5.611   5.646   1.946 -0.6527 -0.3222 -0.3378
   99MOL0     C12974   5.468   5.657   2.021  0.0679 -0.3784  0.3836
   99MOL0     C12975   5.364   5.640   1.915  0.8220  1.3993  0.0388
   99MOL0     C12976   5.233   5.592   1.981  0.1331  0.1853 -0.0221
   99MOL0     C12977   5.125   5.576   1.887  0.0853 -0.1017  0.9060
   99MOL0     C12978   4.989   5.604   1.967  0.4241  0.1905  0.0931
   99MOL0     C12979   4.963   5.749   1.971 -0.1057 -0.8408  0.6941
   99MOL0    Cl12980   4.903   5.804   2.136 -0.4509 -0.0572  0.1849
   99MOL0     C12981   5.954   5.683   2.215  0.1012 -0.4466  0.2276
   99MOL0     C12982   6.038   5.644   2.318  0.6890 -0.4938 -0.5898
   99MOL0     O12983   6.295   5.625   2.498 -0.4799  0.1357 -0.1908
   99MOL0     C12984   6.135   5.384   2.723  0.2239 -0.2221  1.0729
   99MOL0     C12985   6.152   5.336   2.850  0.1867  0.6011  0.3986
   99MOL0     N12986   5.713   5.262   3.017 -0.4031  0.6460  1.0714
   99MOL0     N12987   5.705   5.274   2.889  0.8799  0.5027 -0.8007
   99MOL0     C12988   6.015   5.171   1.738  0.5494 -0.3235  0.5415
   99MOL0     C12989   5.952   5.205   1.616 -0.8012 -0.4274 -0.0434
   99MOL0     C12990   5.765   5.453   1.297  0.1946 -0.3079  1.0697
   99MOL0     C12991   5.840   5.532   1.198 -0.0851  0.4691 -0.2752
   99MOL0     C12992   5.781   5.560   1.070 -0.2605  1.2303  0.5637
   99MOL0     C12993   5.648   5.534   1.043 -1.5009 -0.2943  0.2650
   99MOL0     O12994   5.580   5.564   0.927 -0.0943  0.0308 -0.0679
   99MOL0     C12995   5.653   5.569   0.805  0.1019 -0.2651  0.3616
   99MOL0     C12996   5.556   5.538   0.696 -0.5507  0.9381  0.2619
   99MOL0     C12997   5.610   5.542   0.548  0.2784  0.3898  0.2620
   99MOL0     C12998   5.692   5.423   0.502 -0.6808  1.0317 -0.0346
   99MOL0     C12999   5.819   5.420   0.574 -0.3607  1.2171  0.4076
   99MOL0     C13000   5.932   5.422   0.625 -0.4391  0.2416  0.1919
   99MOL0     C13001   5.577   5.465   1.146 -0.2863 -0.1145  0.0750
   99MOL0     C13002   5.635   5.427   1.263 -0.6039  0.2562 -0.3619
   99MOL0     H13003   5.657   5.316   1.727 -2.3441 -3.0857  3.2193
   99MOL0     H13004   5.746   5.242   1.929  1.6411 -0.4622  0.1101
   99MOL0     H13005   6.018   4.936   1.931  2.2018  3.2737 -1.4364
   99MOL0     H13006   5.854   4.973   2.011 -0.7043  1.4581  3.6470
   99MOL0     H13007   6.138   4.975   2.144  0.4059 -1.4527  1.8449
   99MOL0     H13008   6.032   4.841   2.131 -1.1143  0.5453  1.1360
   99MOL0     H13009   6.017   5.068   2.310 -0.6534 -1.1784  0.4762
   99MOL0     H13010   5.990   4.901   2.338 -2.0838  0.0045  0.6883
   99MOL0     H13011   5.786   5.070   2.191 -0.0718 -0.5225 -1.4046
   99MOL0     H13012   5.756   4.907   2.227 -0.1756 -0.5198 -0.1310
   99MOL0     H13013   5.646   5.064   2.374  1.0236  0.9862 -2.6941
   99MOL0     H13014   5.809   5.131   2.426  0.9818  0.1381  0.4129
   99MOL0     H13015   5.855   4.925   2.555  0.3724 -2.1647  0.4369
   99MOL0     H13016   5.698   4.855   2.514 -1.9817  0.9185 -2.4126
   99MOL0     H13017   5.591   5.055   2.629  0.5939  3.9266  3.1844
   99MOL0     H13018   5.715   4.957   2.721 -0.3829  0.0372  0.8202
   99MOL0     H13019   5.718   5.233   2.642  2.0230  0.1165 -1.7001
   99MOL0     H13020   5.874   5.142   2.665 -0.1322 -1.7855 -1.2035
   99MOL0     H13021   5.850   4.974   2.936  0.5870  0.3560 -0.8254
   99MOL0     H13022   5.796   5.012   3.223 -1.3697 -1.0720 -2.8611
   99MOL0     H13023   5.785   5.184   3.247  0.6363 -0.0784  1.1683
   99MOL0     H13024   6.013   5.026   3.132 -1.5480 -0.5946  0.8651
   99MOL0     H13025   5.998   5.063   3.300  0.7394  1.7834  1.0914
   99MOL0     H13026   5.983   5.301   3.109 -2.8957 -1.4359  1.9928
   99MOL0     H13027   6.043   5.305   3.269 -2.8090  1.3679  0.1650
   99MOL0     H13028   6.180   5.146   3.048 -0.7628  0.2248 -0.1204
   99MOL0     H13029   6.253   5.187   3.206  2.9477 -4.3177 -3.9794
   99MOL0     H13030   6.372   5.558   2.974  0.0853 -2.6766  2.2417
   99MOL0     H13031   6.358   5.641   2.741 -2.0531  0.4966 -0.9077
   99MOL0     H13032   6.080   5.320   2.237 -2.0173 -1.1152  1.6844
   99MOL0     H13033   5.952   5.381   2.045  2.5670  0.1603 -0.5814
   99MOL0     H13034   5.718   5.790   2.042 -2.9231 -0.1947 -3.0818
   99MOL0     H13035   5.688   5.655   2.148  1.5502 -0.2713  0.8340
   99MOL0     H13036   5.623   5.542   1.915  2.1018 -1.0572  2.5657
   99MOL0     H13037   5.608   5.718   1.864 -0.4228  1.4024  1.1007
   99MOL0     H13038   5.453   5.752   2.075  2.1088 -0.6983  1.6307
   99MOL0     H13039   5.464   5.577   2.096  2.6120 -0.2691  0.7098
   99MOL0     H13040   5.345   5.730   1.855 -4.9090 -1.9762 -4.2171
   99MOL0     H13041   5.388   5.565   1.840  2.1109  1.9187 -0.0817
   99MOL0     H13042   5.210   5.666   2.058  0.8807  0.7952 -0.3749
   99MOL0     H13043   5.256   5.500   2.037 -0.4794  0.9963  1.6347
   99MOL0     H13044   5.113   5.480   1.835  0.8060  1.1108 -1.7082
   99MOL0     H13045   5.128   5.649   1.805 -2.2962  0.2470  1.0597
   99MOL0     H13046   4.907   5.545   1.926  2.5697 -0.6856 -3.3714
   99MOL0     H13047   4.994   5.571   2.071 -1.1532 -4.2816 -1.0221
   99MOL0     H13048   4.888   5.774   1.896  0.6390 -0.0166  0.2137
   99MOL0     H13049   5.060   5.791   1.944 -0.5541  0.5517  1.1925
   99MOL0     H13050   5.893   5.771   2.234 -0.0232 -1.0985  3.4317
   99MOL0     H13051   6.045   5.722   2.393  3.7830 -0.4439 -0.7837
   99MOL0     H13052   6.075   5.331   2.650  2.2186  0.2106 -1.0098
   99MOL0     H13053   6.082   5.259   2.883 -1.8038  3.8784  4.9666
   99MOL0     H13054   6.107   5.113   1.741  0.8492  0.1701  1.6502
   99MOL0     H13055   6.003   5.194   1.521 -0.1826 -1.3325  0.3835
   99MOL0     H13056   5.940   5.571   1.213 -1.5825  4.6687  0.0541
   99MOL0     H13057   5.838   5.612   0.994 -0.5020  0.3469 -0.2364
   99MOL0     H13058   5.737   5.500   0.810 -2.3576 -3.5286  0.4851
   99MOL0     H13059   5.687   5.670   0.779 -2.9978  0.5364 -1.1893
   99MOL0     H13060   5.513   5.441   0.723 -0.4081 -0.1612 -2.9901
   99MOL0     H13061   5.470   5.605   0.690 -1.2828 -0.0539 -1.2130
   99MOL0     H13062   5.663   5.630   0.510  0.4405 -0.0704 -0.5956
   99MOL0     H13063   5.524   5.544   0.480 -0.6040  1.4638  1.3636
   99MOL0     H13064   5.632   5.332   0.508  0.8560 -0.2088 -2.3867
   99MOL0     H13065   5.712   5.439   0.395  0.6263 -1.2663 -0.1830
   99MOL0     H13066   6.030   5.433   0.668 -0.3689  3.7665 -0.6430
   99MOL0     H13067   5.473   5.445   1.124  0.2268 -2.2115 -0.6683
   99MOL0     H13068   5.572   5.366   1.327 -1.5394  0.2118 -1.3048
  100MOL0     O13069   4.532   1.840   5.306  0.1779 -0.5408 -0.0482
  100MOL0     C13070   4.586   1.757   5.380 -0.7871  0.1909  0.0357
  100MOL0     O13071   4.527   1.664   5.465 -0.2564 -0.4434  1.1783
  100MOL0     C13072   4.394   1.634   5.464 -0.9760 -0.9502  0.2263
  100MOL0     C13073   4.347   1.554   5.566 -0.5271 -0.8152 -0.0673
  100MOL0     C13074   4.224   1.492   5.579 -0.3229  0.3768  0.5359
  100MOL0     C13075   4.142   1.508   5.469  0.6941  1.0855 -0.3833
  100MOL0     O13076   4.022   1.436   5.456  0.0816  0.4089  0.2760
  100MOL0     C13077   3.944   1.426   5.579 -1.1625  0.9206  0.7563
  100MOL0     C13078   3.809   1.373   5.532 -0.2726 -0.4449 -0.7722
  100MOL0     C13079   3.730   1.350   5.653 -0.5783 -0.3757 -0.1395
  100MOL0     C13080   3.594   1.317   5.624 -0.6027 -0.7766 -0.3468
  100MOL0     C13081   3.512   1.305   5.757 -0.7217  0.3089 -0.2276
  100MOL0     C13082   3.361   1.262   5.744  0.1855 -0.4138 -0.1785
  100MOL0     C13083   3.277   1.357   5.653  0.2788  0.5451 -0.1517
  100MOL0     C13084   3.127   1.334   5.666  0.6280 -0.4736  0.2166
  100MOL0     N13085   3.069   1.366   5.800  0.1811 -0.3615 -0.6968
  100MOL0     C13086   3.075   1.482   5.885  1.0664 -1.0517  0.2729
  100MOL0     C13087   3.012   1.441   5.998 -0.0027 -0.1764 -0.1915
  100MOL0     C13088   2.973   1.530   6.117 -0.3546  0.4324  0.1347
  100MOL0     C13089   2.827   1.519   6.156 -0.6807  0.8283  0.2138
  100MOL0     C13090   2.718   1.555   6.055  1.2782  0.5676 -0.0673
  100MOL0     C13091   2.582   1.585   6.124  0.8838 -0.5399  0.0558
  100MOL0     O13092   2.473   1.618   6.039  0.6966  0.0126 -0.1338
  100MOL0     C13093   2.349   1.604   6.090 -0.1162 -0.8446  0.4049
  100MOL0     C13094   2.258   1.526   6.023  1.3355  0.6453  1.0849
  100MOL0     C13095   2.129   1.513   6.071 -0.4734 -0.0508 -0.4997
  100MOL0     C13096   2.099   1.573   6.193  0.4902 -0.3167  0.2158
  100MOL0     C13097   1.964   1.567   6.255 -0.2994  0.3508 -0.3520
  100MOL0     O13098   1.951   1.633   6.372  0.5551  0.3297  0.3697
  100MOL0     C13099   1.836   1.623   6.448  0.0219 -0.3479  0.9799
  100MOL0     C13100   1.769   1.500   6.451  0.4595  0.5871 -0.0309
  100MOL0     C13101   1.679   1.475   6.555 -0.2274 -0.0136 -0.3858
  100MOL0     C13102   1.633   1.580   6.642  0.2143 -0.1490  0.1252
  100MOL0     O13103   1.524   1.562   6.730  0.3700  0.2182  0.7831
  100MOL0     C13104   1.453   1.437   6.751  0.3973  0.4237 -0.6424
  100MOL0     C13105   1.536   1.338   6.839  0.6649  0.4535  1.6088
  100MOL0     C13106   1.473   1.198   6.835 -0.5291  0.4736  0.9520
  100MOL0     C13107   1.495   1.117   6.705 -0.1994 -0.1453 -0.9295
  100MOL0     C13108   1.413   0.987   6.709 -0.6209  0.6272  0.7420
  100MOL0     C13109   1.474   0.890   6.820 -0.0331  0.3971  0.0709
  100MOL0     C13110   1.450   0.741   6.782 -0.1538  0.3637  0.4561
  100MOL0     C13111   1.491   0.697   6.640  0.2745 -1.4852  0.5141
  100MOL0    Cl13112   1.476   0.524   6.637 -0.2008  0.3640  0.1162
  100MOL0     C13113   1.692   1.704   6.625 -0.1413  0.9425 -0.1091
  100MOL0     C13114   1.797   1.723   6.534 -0.5155  0.2784  0.3990
  100MOL0     O13115   1.872   1.519   6.191 -0.4293 -0.3237 -1.0655
  100MOL0     C13116   2.193   1.642   6.273  1.1958  0.1660  0.7749
  100MOL0     C13117   2.317   1.655   6.223 -0.6364 -0.1103 -0.1638
  100MOL0     N13118   2.983   1.316   5.987  0.1653  0.5319 -0.2529
  100MOL0     N13119   3.026   1.261   5.872  0.0952  0.3586 -0.0981
  100MOL0     C13120   4.179   1.599   5.370  0.1477  0.5038 -0.3004
  100MOL0     C13121   4.302   1.663   5.368  0.6060 -0.9129  0.1822
  100MOL0     C13122   4.737   1.766   5.376 -0.4895  0.2159  0.1660
  100MOL0     C13123   4.796   1.862   5.293  0.6634  0.4225  0.8493
  100MOL0     C13124   4.932   1.863   5.276  1.2467  0.6025 -0.3887
  100MOL0     C13125   5.014   1.787   5.356 -0.4491 -0.6154 -0.4180
  100MOL0     O13126   5.149   1.799   5.333  0.0105 -0.0024  0.1048
  100MOL0     C13127   5.251   1.717   5.396  0.2682 -0.5818 -0.9010
  100MOL0     C13128   5.377   1.733   5.314 -0.0294 -0.0821 -0.0218
  100MOL0     C13129   5.501   1.639   5.354 -0.6270 -0.0623 -0.0806
  100MOL0     C13130   5.578   1.607   5.219  0.1858 -0.1237 -0.1857
  100MOL0     C13131   5.705   1.532   5.235  1.1134  0.1884 -0.1256
  100MOL0     C13132   5.803   1.466   5.235  0.1067 -0.2933 -0.5395
  100MOL0     C13133   4.947   1.699   5.444  0.4218  0.9298 -0.7335
  100MOL0     C13134   4.815   1.687   5.462 -0.2291 -0.3173  0.6291
  100MOL0     H13135   4.419   1.534   5.644 -1.4898 -3.2512  0.2781
  100MOL0     H13136   4.210   1.415   5.654 -2.1690  1.6952  1.6194
  100MOL0     H13137   3.935   1.520   5.634 -0.8963  1.3380  0.0990
  100MOL0     H13138   3.992   1.356   5.648  1.0427  2.5350  0.9546
  100MOL0     H13139   3.825   1.282   5.474  1.2869  1.0078 -2.7467
  100MOL0     H13140   3.757   1.441   5.464 -1.1298  1.0733  1.2897
  100MOL0     H13141   3.743   1.436   5.720  0.8312 -1.6025  1.2348
  100MOL0     H13142   3.779   1.267   5.703  0.7599 -0.3412 -1.3388
  100MOL0     H13143   3.550   1.392   5.558 -1.2476 -0.9454 -0.1145
  100MOL0     H13144   3.585   1.224   5.567 -0.9367 -0.3195 -1.0622
  100MOL0     H13145   3.517   1.399   5.812  0.5683 -0.4024  0.9234
  100MOL0     H13146   3.570   1.229   5.808 -0.6873  1.0498  0.8662
  100MOL0     H13147   3.325   1.267   5.847 -0.6153 -2.4328 -0.3184
  100MOL0     H13148   3.346   1.164   5.698  0.9293 -0.3195 -0.6480
  100MOL0     H13149   3.297   1.459   5.686 -2.2062  0.9988  0.1254
  100MOL0     H13150   3.307   1.367   5.548  1.3488  2.1313  0.2602
  100MOL0     H13151   3.097   1.235   5.633 -1.6355 -0.1978  1.2734
  100MOL0     H13152   3.069   1.394   5.595  0.0914 -1.1952  0.0343
  100MOL0     H13153   3.097   1.583   5.852 -2.4880 -0.2655 -0.0799
  100MOL0     H13154   2.995   1.636   6.102  0.7219  0.2090  0.0218
  100MOL0     H13155   3.029   1.499   6.206 -0.1025  0.4080 -0.0304
  100MOL0     H13156   2.816   1.580   6.246  0.1405  1.6713 -0.2509
  100MOL0     H13157   2.805   1.414   6.177 -1.3283  0.3754 -2.3260
  100MOL0     H13158   2.752   1.634   5.988  0.1682 -0.6848 -2.2278
  100MOL0     H13159   2.706   1.474   5.983  1.5417  1.0536 -0.6551
  100MOL0     H13160   2.600   1.679   6.178 -1.9470  0.2780 -0.2687
  100MOL0     H13161   2.543   1.504   6.187  1.2326 -0.2640  0.6409
  100MOL0     H13162   2.271   1.481   5.925 -1.7469 -0.4933  1.0689
  100MOL0     H13163   2.057   1.452   6.017  1.1515 -1.6700 -0.9474
  100MOL0     H13164   1.800   1.420   6.385  1.4182  1.1594 -0.3005
  100MOL0     H13165   1.636   1.376   6.562 -0.4770  0.1580  0.7398
  100MOL0     H13166   1.412   1.398   6.658  2.6343  0.5542 -1.7491
  100MOL0     H13167   1.364   1.464   6.810 -0.4979  1.2878 -2.3296
  100MOL0     H13168   1.537   1.384   6.938  2.0938  1.7283  1.0428
  100MOL0     H13169   1.637   1.324   6.798  0.0156 -4.0855  0.9771
  100MOL0     H13170   1.366   1.215   6.852 -0.9085  3.8560 -2.9883
  100MOL0     H13171   1.516   1.144   6.920  0.3860  1.5756  1.2259
  100MOL0     H13172   1.450   1.176   6.624 -2.4429 -0.0613  0.2835
  100MOL0     H13173   1.601   1.105   6.685 -0.2324  0.9950 -1.8905
  100MOL0     H13174   1.418   0.941   6.610  0.1670  0.4172  0.8772
  100MOL0     H13175   1.306   0.984   6.731 -1.2742  2.6880 -1.6518
  100MOL0     H13176   1.430   0.906   6.919  3.7030  0.8769  1.8590
  100MOL0     H13177   1.582   0.907   6.833 -0.4122  1.8993  1.6481
  100MOL0     H13178   1.499   0.675   6.854  1.5856 -0.7487 -1.6241
  100MOL0     H13179   1.342   0.729   6.791 -0.2329  2.0487  2.9793
  100MOL0     H13180   1.596   0.729   6.631 -0.3956  1.5297  2.1433
  100MOL0     H13181   1.440   0.745   6.556 -0.3021 -1.3552  0.9337
  100MOL0     H13182   1.656   1.782   6.691 -2.9798 -0.1387 -0.2450
  100MOL0     H13183   1.852   1.816   6.533  1.7701 -0.9942  0.2814
  100MOL0     H13184   2.171   1.684   6.371 -2.8489 -2.1355  1.0796
  100MOL0     H13185   2.391   1.721   6.269 -1.5074  1.4916 -0.9892
  100MOL0     H13186   4.120   1.626   5.283 -1.1969 -4.1489 -1.0855
  100MOL0     H13187   4.329   1.737   5.294  0.1836 -0.9675 -0.0258
  100MOL0     H13188   4.737   1.927   5.229  1.2980  1.1859  1.0186
  100MOL0     H13189   4.980   1.923   5.200 -1.9707  4.5963  0.3822
  100MOL0     H13190   5.215   1.615   5.408 -3.3588  0.8552  2.0353
  100MOL0     H13191   5.267   1.751   5.498 -0.3184  1.6515 -1.5058
  100MOL0     H13192   5.351   1.701   5.212 -2.4424  0.4974  0.3638
  100MOL0     H13193   5.406   1.838   5.319  2.8959 -0.8099  0.1004
  100MOL0     H13194   5.454   1.552   5.401 -0.1800 -1.2495 -1.7212
  100MOL0     H13195   5.558   1.689   5.433 -1.4661 -2.7603  2.3977
  100MOL0     H13196   5.513   1.542   5.159 -0.0460 -0.2011  0.1429
  100MOL0     H13197   5.587   1.696   5.157 -1.7978  0.6997  0.6020
  100MOL0     H13198   5.903   1.428   5.237  1.4336  2.8141  2.5769
  100MOL0     H13199   5.003   1.634   5.510 -1.6228 -1.3088 -1.0168
  100MOL0     H13200   4.766   1.627   5.538 -1.8988  3.2048  2.5756
  101MOL0     O13201   0.492   8.922  10.238  0.1175 -0.1699 -0.3354
  101MOL0     C13202   0.436   9.028  10.262  0.0229 -0.1098 -0.6628
  101MOL0     O13203   0.302   9.042  10.291  0.3820 -0.4306  0.1379
  101MOL0     C13204   0.228   8.926  10.282 -0.0164  0.4121 -0.2811
  101MOL0     C13205   0.181   8.877  10.160  0.2714 -0.4678  0.3233
  101MOL0     C13206   0.110   8.755  10.153 -0.9046 -0.5325 -0.4806
  101MOL0     C13207   0.085   8.688  10.276  0.1516  0.4645  0.1337
  101MOL0     O13208   0.003   8.581  10.297 -0.2871 -0.1131  0.1842
  101MOL0     C13209  -0.065   8.522  10.188  1.0619 -0.7987  0.0488
  101MOL0     C13210  -0.177   8.426  10.230  0.0419  0.6522 -0.1058
  101MOL0     C13211  -0.262   8.400  10.107 -0.2552 -0.4661  0.2531
  101MOL0     C13212  -0.216   8.291  10.005 -0.1153  0.9115 -0.4016
  101MOL0     C13213  -0.307   8.166   9.989 -0.2469 -0.9043  1.0027
  101MOL0     C13214  -0.321   8.097  10.129 -0.2827  0.4037  0.0972
  101MOL0     C13215  -0.403   7.967  10.106 -0.0089  0.0224 -0.0457
  101MOL0     C13216  -0.401   7.881  10.234  0.3181  0.3904 -0.1601
  101MOL0     N13217  -0.515   7.786  10.228 -0.0614  0.4740  0.2553
  101MOL0     C13218  -0.649   7.818  10.239  0.6776  0.0478 -0.1750
  101MOL0     C13219  -0.703   7.698  10.252  0.8444  0.9952  0.5268
  101MOL0     C13220  -0.852   7.676  10.238  1.1905  0.4726  0.7179
  101MOL0     C13221  -0.913   7.717  10.371  0.4521 -1.2037 -0.1227
  101MOL0     C13222  -1.065   7.700  10.367 -0.1786  0.0492  0.4214
  101MOL0     C13223  -1.148   7.763  10.482 -0.3034 -0.6595  0.7533
  101MOL0     O13224  -1.147   7.670  10.589  0.0234  0.7154  0.0139
  101MOL0     C13225  -1.214   7.687  10.705 -0.1086 -0.0745 -0.0385
  101MOL0     C13226  -1.202   7.593  10.808  0.9426 -0.4056  0.7946
  101MOL0     C13227  -1.260   7.620  10.933 -0.7927  0.4039  1.2389
  101MOL0     C13228  -1.349   7.727  10.951  0.0053  1.0060 -0.2808
  101MOL0     C13229  -1.426   7.755  11.071 -0.6168  1.1248 -0.2812
  101MOL0     O13230  -1.390   7.673  11.179  0.2331 -0.4217 -0.5972
  101MOL0     C13231  -1.405   7.725  11.307 -0.5616  0.3076 -0.3969
  101MOL0     C13232  -1.330   7.841  11.354  0.3541  0.6376 -0.1670
  101MOL0     C13233  -1.331   7.894  11.483  0.1674  0.1437  0.0629
  101MOL0     C13234  -1.428   7.831  11.568 -0.0285  0.2425 -0.2015
  101MOL0     O13235  -1.449   7.869  11.701  0.4257  0.2475  0.7706
  101MOL0     C13236  -1.330   7.896  11.778 -0.7422 -0.1369 -0.0909
  101MOL0     C13237  -1.359   7.899  11.932 -0.3947 -0.3052  0.7112
  101MOL0     C13238  -1.234   7.926  12.023  0.8789 -0.5309 -0.0262
  101MOL0     C13239  -1.158   8.049  11.997 -0.4864 -0.4887  0.0041
  101MOL0     C13240  -1.050   8.074  12.104  0.0790  0.4216 -0.3150
  101MOL0     C13241  -0.963   8.189  12.063  0.7829 -1.0418  1.1365
  101MOL0     C13242  -0.814   8.173  12.104  0.0749 -0.1828  0.7232
  101MOL0     C13243  -0.737   8.074  12.004 -0.2723 -0.9957 -0.3348
  101MOL0    Cl13244  -0.563   8.052  12.065  0.0572 -0.1153  0.0521
  101MOL0     C13245  -1.512   7.723  11.524  0.1758 -0.2845 -0.2843
  101MOL0     C13246  -1.503   7.677  11.388  0.7138  0.2518  0.5306
  101MOL0     O13247  -1.485   7.864  11.086  0.5119  0.2709  0.1080
  101MOL0     C13248  -1.364   7.817  10.839 -0.0068 -0.4078 -0.0757
  101MOL0     C13249  -1.283   7.806  10.729 -0.0038 -0.9210 -0.4859
  101MOL0     N13250  -0.617   7.595  10.266 -0.3212 -0.3126 -0.0893
  101MOL0     N13251  -0.499   7.651  10.240  0.5643 -1.3544  0.5587
  101MOL0     C13252   0.135   8.737  10.402 -0.0531 -0.7924 -0.6963
  101MOL0     C13253   0.195   8.855  10.401 -0.4466 -0.8092 -0.4209
  101MOL0     C13254   0.509   9.163  10.257  0.7308  0.4437  0.3591
  101MOL0     C13255   0.435   9.279  10.250 -0.1050 -1.3090 -0.1795
  101MOL0     C13256   0.496   9.408  10.227  0.1875 -0.4259 -0.4529
  101MOL0     C13257   0.634   9.411  10.250 -0.4208  0.7800  0.0468
  101MOL0     O13258   0.706   9.528  10.258  0.8251 -0.0880 -0.2966
  101MOL0     C13259   0.675   9.640  10.173  0.1700 -0.3867 -0.6800
  101MOL0     C13260   0.748   9.612  10.038 -0.5555  0.9347 -0.1664
  101MOL0     C13261   0.892   9.581  10.045  0.0337 -0.4099  0.4314
  101MOL0     C13262   0.956   9.533   9.918 -0.0321 -1.0039  1.0618
  101MOL0     C13263   0.986   9.651   9.839  0.4550 -0.5526  0.7518
  101MOL0     C13264   1.017   9.748   9.772 -0.3832 -0.2074  0.2551
  101MOL0     C13265   0.713   9.291  10.262 -0.5352 -0.9963 -0.7859
  101MOL0     C13266   0.652   9.167  10.260 -0.4170  0.3610 -0.5479
  101MOL0     H13267   0.210   8.927  10.068  1.0730 -0.6538  0.4684
  101MOL0     H13268   0.066   8.720  10.060 -2.3893  0.2235 -0.1038
  101MOL0     H13269   0.009   8.457  10.140  0.8490 -2.3461  1.7267
  101MOL0     H13270  -0.107   8.599  10.122  1.7725 -0.9542 -0.6023
  101MOL0     H13271  -0.245   8.467  10.305 -2.2429 -1.2832 -0.9490
  101MOL0     H13272  -0.128   8.333  10.260 -2.4093 -1.9089 -3.2306
  101MOL0     H13273  -0.269   8.488  10.041  1.3318 -0.6442 -0.2005
  101MOL0     H13274  -0.360   8.375  10.148 -0.8669  1.6094  0.1461
  101MOL0     H13275  -0.212   8.327   9.902 -0.6118 -1.8439 -1.4809
  101MOL0     H13276  -0.115   8.260  10.032 -1.3279 -1.0628  2.3214
  101MOL0     H13277  -0.265   8.104   9.910 -0.0799 -0.8961  1.0843
  101MOL0     H13278  -0.402   8.202   9.949 -1.1520 -0.4966  3.3372
  101MOL0     H13279  -0.369   8.161  10.204  0.2996  0.9328  0.0305
  101MOL0     H13280  -0.225   8.081  10.180 -1.9317 -1.5193  2.7996
  101MOL0     H13281  -0.505   7.995  10.079 -0.0029 -1.5181 -1.7904
  101MOL0     H13282  -0.361   7.913  10.021  1.6824  1.4956 -0.2067
  101MOL0     H13283  -0.415   7.934  10.328  1.1897 -1.5059  1.1105
  101MOL0     H13284  -0.308   7.824  10.242  0.0847 -0.6888 -3.4787
  101MOL0     H13285  -0.709   7.907  10.227 -0.7010 -0.4154  2.5232
  101MOL0     H13286  -0.873   7.570  10.218  0.1982  0.3384  2.3130
  101MOL0     H13287  -0.902   7.734  10.161 -3.4889 -3.4853  0.2500
  101MOL0     H13288  -0.891   7.823  10.385  2.3594 -1.2147 -2.3783
  101MOL0     H13289  -0.872   7.667  10.459 -0.1204 -2.0978 -0.3406
  101MOL0     H13290  -1.098   7.751  10.275  0.9143 -1.6041 -0.9520
  101MOL0     H13291  -1.074   7.592  10.352  1.3629  0.2871 -3.3297
  101MOL0     H13292  -1.249   7.783  10.448  0.0228 -1.9597 -1.1419
  101MOL0     H13293  -1.099   7.857  10.510 -0.7068  0.2051 -1.2727
  101MOL0     H13294  -1.129   7.512  10.804 -1.1066 -2.4964  2.3928
  101MOL0     H13295  -1.233   7.557  11.017  0.0346  2.8575  2.9014
  101MOL0     H13296  -1.259   7.871  11.277 -1.0983 -1.6093 -2.5781
  101MOL0     H13297  -1.271   7.974  11.526  2.3593 -1.9055  1.0697
  101MOL0     H13298  -1.285   7.991  11.748  2.3082 -1.9585 -1.8075
  101MOL0     H13299  -1.257   7.816  11.762  2.6963  2.3722  1.7545
  101MOL0     H13300  -1.397   7.799  11.957 -1.3200 -0.9427 -2.7191
  101MOL0     H13301  -1.430   7.981  11.944 -0.1195  0.5422 -2.5005
  101MOL0     H13302  -1.164   7.841  12.022  1.3734 -0.1819  1.4189
  101MOL0     H13303  -1.256   7.937  12.130  2.3984  0.8707  0.1938
  101MOL0     H13304  -1.127   8.069  11.894  0.8392  0.4419  0.5691
  101MOL0     H13305  -1.237   8.124  12.010 -0.8794 -1.2027  2.1372
  101MOL0     H13306  -0.988   7.984  12.105  2.8367  2.1324 -3.0962
  101MOL0     H13307  -1.091   8.087  12.205 -0.3190 -1.5484 -0.1752
  101MOL0     H13308  -1.002   8.279  12.111  2.9901 -0.0546  1.2028
  101MOL0     H13309  -0.969   8.201  11.954 -0.1225 -0.5446  1.2327
  101MOL0     H13310  -0.769   8.273  12.107  0.6848 -0.4569  0.6157
  101MOL0     H13311  -0.814   8.130  12.205 -0.4312 -0.0185  0.7961
  101MOL0     H13312  -0.735   8.131  11.911 -3.3539 -0.6329 -0.2984
  101MOL0     H13313  -0.785   7.976  11.997  2.1164 -2.2726  0.1396
  101MOL0     H13314  -1.597   7.697  11.587 -0.8992 -0.3680 -1.7200
  101MOL0     H13315  -1.577   7.608  11.350  0.6900 -0.7683  2.3231
  101MOL0     H13316  -1.427   7.900  10.867  1.7131  0.9638 -0.1055
  101MOL0     H13317  -1.285   7.892  10.662  0.0501  0.8332  1.6510
  101MOL0     H13318   0.111   8.698  10.500  2.5175 -1.9517 -0.4631
  101MOL0     H13319   0.229   8.900  10.493  1.8266  2.1018 -2.4636
  101MOL0     H13320   0.327   9.293  10.247  0.3217  3.1959 -2.8399
  101MOL0     H13321   0.440   9.498  10.204  2.9402  1.4018 -0.4537
  101MOL0     H13322   0.713   9.731  10.219  1.0528 -0.9692 -0.2302
  101MOL0     H13323   0.568   9.648  10.155  0.3621 -2.2025 -3.1486
  101MOL0     H13324   0.712   9.514  10.008  1.2104  0.4102 -0.7240
  101MOL0     H13325   0.740   9.692   9.963  2.9708  0.1772 -1.5489
  101MOL0     H13326   0.902   9.507  10.125 -2.4672 -2.2743 -0.8477
  101MOL0     H13327   0.940   9.670  10.087  1.8103 -0.0886 -2.0525
  101MOL0     H13328   1.054   9.486   9.933 -0.4162 -1.3974  2.4828
  101MOL0     H13329   0.880   9.474   9.866 -0.5262  1.2752 -0.9727
  101MOL0     H13330   1.036   9.829   9.704  0.7740 -0.6320  0.0486
  101MOL0     H13331   0.820   9.303  10.274 -0.3824 -1.5903 -1.4581
  101MOL0     H13332   0.702   9.071  10.253 -2.8452 -0.9201 -1.4467
  102MOL0     O13333   3.096   5.402   2.212 -0.1924 -0.1772  0.5060
  102MOL0     C13334   3.115   5.506   2.146  0.2633  0.4297 -0.1510
  102MOL0     O13335   3.010   5.589   2.111 -0.2534  1.0544 -0.1800
  102MOL0     C13336   2.882   5.552   2.140 -0.7235 -0.2763  0.1400
  102MOL0     C13337   2.822   5.552   2.269  0.3161 -0.1652 -0.6340
  102MOL0     C13338   2.681   5.531   2.279  0.8916  0.2354  0.9070
  102MOL0     C13339   2.596   5.518   2.169 -0.8285  0.1131 -0.1389
  102MOL0     O13340   2.459   5.497   2.165 -0.2821  0.0548  0.2100
  102MOL0     C13341   2.380   5.484   2.288 -0.4401  0.0218 -0.8935
  102MOL0     C13342   2.231   5.469   2.256  0.7998 -0.7408 -0.5868
  102MOL0     C13343   2.139   5.450   2.379 -1.2702  0.1496  0.9022
  102MOL0     C13344   1.985   5.450   2.331 -0.2920  0.7332 -0.6948
  102MOL0     C13345   1.891   5.507   2.444 -0.3647 -0.0523 -0.2709
  102MOL0     C13346   1.753   5.549   2.394  0.2477  0.1815 -0.6318
  102MOL0     C13347   1.649   5.574   2.512  0.1909 -0.1351  0.0429
  102MOL0     C13348   1.533   5.642   2.455  0.3211  0.4534  0.4209
  102MOL0     N13349   1.445   5.693   2.561 -0.7823 -0.6083  0.2112
  102MOL0     C13350   1.372   5.612   2.638  0.1733  0.4691  0.2476
  102MOL0     C13351   1.281   5.690   2.703 -0.5211  0.7589  0.9922
  102MOL0     C13352   1.171   5.651   2.804 -0.4843 -0.1660  0.6346
  102MOL0     C13353   1.031   5.681   2.764 -0.0103  0.1563 -0.0628
  102MOL0     C13354   0.941   5.742   2.869  0.6874  0.2742  0.2616
  102MOL0     C13355   0.851   5.647   2.952 -0.0232  0.1192 -0.7900
  102MOL0     O13356   0.781   5.731   3.042 -1.0177  0.5987  0.1764
  102MOL0     C13357   0.673   5.806   3.010  0.0830  0.5111  0.7455
  102MOL0     C13358   0.631   5.911   3.089 -1.0491  0.5780 -0.6825
  102MOL0     C13359   0.516   5.978   3.076 -0.2072  0.0622 -0.0867
  102MOL0     C13360   0.430   5.937   2.972  1.0060  0.8654  0.5139
  102MOL0     C13361   0.293   5.988   2.943 -0.1416  0.0577 -0.5818
  102MOL0     O13362   0.277   6.127   2.970 -0.2767 -0.5660  0.3327
  102MOL0     C13363   0.148   6.171   2.934 -0.4061  0.1184 -0.5253
  102MOL0     C13364   0.076   6.243   3.030 -0.3874  0.2664 -0.2288
  102MOL0     C13365  -0.043   6.292   2.998  0.4479 -0.5718 -0.2973
  102MOL0     C13366  -0.106   6.272   2.876  0.5543 -0.0030  0.2479
  102MOL0     O13367  -0.242   6.300   2.874  0.0780  0.6179  0.0632
  102MOL0     C13368  -0.327   6.260   2.758 -0.3600  0.2701 -1.2422
  102MOL0     C13369  -0.464   6.297   2.795  0.6319  0.3380  0.8654
  102MOL0     C13370  -0.565   6.260   2.686  0.4493 -0.5924 -0.3078
  102MOL0     C13371  -0.563   6.116   2.633 -0.8141  0.5482 -0.2641
  102MOL0     C13372  -0.688   6.083   2.558 -0.2632 -0.0406 -0.1403
  102MOL0     C13373  -0.817   6.057   2.636  0.6800  0.4760 -0.0697
  102MOL0     C13374  -0.812   5.931   2.729  0.3077 -0.0353 -0.0363
  102MOL0     C13375  -0.941   5.910   2.805  0.4500  1.3215  0.0653
  102MOL0    Cl13376  -0.930   6.024   2.947  0.2371  0.1780  0.3399
  102MOL0     C13377  -0.045   6.191   2.778 -0.3958  0.1970  0.2190
  102MOL0     C13378   0.084   6.150   2.812 -0.2716  0.4866  0.1261
  102MOL0     O13379   0.205   5.907   2.921 -0.5209 -0.1082  0.5940
  102MOL0     C13380   0.477   5.836   2.885 -0.0052 -0.4568 -0.5119
  102MOL0     C13381   0.588   5.767   2.913 -0.0940 -0.3914  0.2361
  102MOL0     N13382   1.308   5.819   2.668 -0.0708 -0.1473  0.0770
  102MOL0     N13383   1.405   5.822   2.582  0.1235  0.5522  0.7585
  102MOL0     C13384   2.658   5.523   2.042  0.1729 -0.2403 -0.4831
  102MOL0     C13385   2.790   5.553   2.034 -0.3873  0.0448  0.2714
  102MOL0     C13386   3.253   5.536   2.101 -0.1861  0.3430 -0.1923
  102MOL0     C13387   3.372   5.473   2.153  0.0849 -0.1610 -0.1082
  102MOL0     C13388   3.501   5.498   2.104 -0.8601 -0.4210 -0.1973
  102MOL0     C13389   3.514   5.578   1.991  0.4508 -0.8698  0.5119
  102MOL0     O13390   3.631   5.616   1.928  0.0658  0.0462  0.6228
  102MOL0     C13391   3.748   5.544   1.976 -0.1724  0.2813  0.2612
  102MOL0     C13392   3.871   5.598   1.911 -1.0126  0.7089  0.0170
  102MOL0     C13393   3.883   5.749   1.926 -0.1812  0.6223  0.6717
  102MOL0     C13394   4.006   5.821   1.879 -0.0273  0.4836 -0.3063
  102MOL0     C13395   3.994   5.956   1.915 -1.1847 -0.0436  0.0763
  102MOL0     C13396   3.989   6.076   1.936 -0.4383 -1.0155 -0.2072
  102MOL0     C13397   3.396   5.642   1.943 -1.4923 -1.0995 -0.2380
  102MOL0     C13398   3.274   5.622   1.995 -0.0689  0.6879  0.9949
  102MOL0     H13399   2.876   5.575   2.360 -1.9956 -0.7798  0.9742
  102MOL0     H13400   2.644   5.521   2.381 -0.1216  1.2672  0.6640
  102MOL0     H13401   2.403   5.564   2.360  1.0558 -0.9427 -0.2436
  102MOL0     H13402   2.416   5.397   2.343  0.7531  0.7046 -0.5327
  102MOL0     H13403   2.217   5.391   2.181 -0.4424  2.7466 -4.3776
  102MOL0     H13404   2.181   5.555   2.209 -2.1478 -0.9032  1.8949
  102MOL0     H13405   2.164   5.524   2.456 -0.9869 -0.8170  1.7688
  102MOL0     H13406   2.156   5.353   2.427 -0.2306 -1.2193 -2.0027
  102MOL0     H13407   1.974   5.520   2.248 -0.2788  1.0599 -0.4244
  102MOL0     H13408   1.955   5.352   2.294  2.4547 -0.1876 -0.7077
  102MOL0     H13409   1.952   5.591   2.479  1.2439 -0.6485 -1.5002
  102MOL0     H13410   1.872   5.432   2.521 -4.5481 -0.6433 -1.6213
  102MOL0     H13411   1.713   5.475   2.325 -0.4737 -0.4590  0.4497
  102MOL0     H13412   1.759   5.650   2.353  4.1286  0.1742 -0.5197
  102MOL0     H13413   1.605   5.481   2.551 -0.5518 -0.2104 -0.9367
  102MOL0     H13414   1.691   5.635   2.593  0.0737  1.6690 -1.1972
  102MOL0     H13415   1.480   5.577   2.385  0.3352 -0.3595  1.1408
  102MOL0     H13416   1.565   5.728   2.395  2.2340 -1.4030 -1.4115
  102MOL0     H13417   1.360   5.506   2.660 -1.1700  0.5911  0.1907
  102MOL0     H13418   1.194   5.694   2.901  1.8348 -2.4235  1.2176
  102MOL0     H13419   1.184   5.543   2.819  0.7819 -0.1469 -0.1528
  102MOL0     H13420   0.985   5.592   2.719  1.3968  0.5565 -2.5146
  102MOL0     H13421   1.029   5.748   2.677 -1.3172  1.6555  1.0787
  102MOL0     H13422   1.003   5.807   2.932 -0.5142  3.1945 -1.3814
  102MOL0     H13423   0.878   5.817   2.821 -0.6050 -0.9532 -0.0240
  102MOL0     H13424   0.909   5.575   3.010 -1.7399 -1.5442 -1.0455
  102MOL0     H13425   0.790   5.576   2.895  3.0297 -0.3091 -3.8684
  102MOL0     H13426   0.684   5.936   3.181 -0.5612  0.1597 -0.8477
  102MOL0     H13427   0.478   6.054   3.145  2.3440  4.0989 -2.7234
  102MOL0     H13428   0.120   6.259   3.128 -0.7185 -1.6945  0.2814
  102MOL0     H13429  -0.100   6.336   3.080  1.1063  1.1303 -0.7287
  102MOL0     H13430  -0.311   6.153   2.742  1.9047  0.4654 -0.6638
  102MOL0     H13431  -0.303   6.306   2.661  1.9470  0.2256 -0.7526
  102MOL0     H13432  -0.474   6.405   2.802  1.1129  0.4720 -0.3706
  102MOL0     H13433  -0.490   6.249   2.891  0.8275  0.2283  0.8645
  102MOL0     H13434  -0.556   6.332   2.604  0.3832 -0.1706  0.0538
  102MOL0     H13435  -0.658   6.280   2.741  0.1118 -1.1913 -0.6577
  102MOL0     H13436  -0.473   6.092   2.575 -0.0468 -0.0350  1.1256
  102MOL0     H13437  -0.560   6.047   2.718  1.5065 -0.1340 -0.7975
  102MOL0     H13438  -0.663   5.984   2.517  0.4942 -0.9470  2.3226
  102MOL0     H13439  -0.694   6.151   2.473 -3.5838  0.6619  0.5276
  102MOL0     H13440  -0.887   6.022   2.558  1.9278 -0.4099 -0.8321
  102MOL0     H13441  -0.851   6.147   2.687  0.3240  0.5571 -0.4430
  102MOL0     H13442  -0.786   5.841   2.674  0.3803 -0.7676  1.1489
  102MOL0     H13443  -0.737   5.943   2.808 -1.3123  1.6356  1.3615
  102MOL0     H13444  -0.945   5.807   2.843 -3.9531  1.1373 -0.3406
  102MOL0     H13445  -1.029   5.917   2.741  0.4761  1.1036  0.0033
  102MOL0     H13446  -0.084   6.177   2.678 -0.9150  0.4070  0.3877
  102MOL0     H13447   0.139   6.110   2.727 -0.3670  2.3190 -0.8523
  102MOL0     H13448   0.402   5.790   2.822 -0.9841 -1.0485  1.0479
  102MOL0     H13449   0.614   5.686   2.845  1.6731  0.3643 -0.0568
  102MOL0     H13450   2.609   5.525   1.945  1.1917  2.0981 -1.0236
  102MOL0     H13451   2.824   5.578   1.934  1.2219  0.4477  0.8805
  102MOL0     H13452   3.368   5.413   2.243 -0.7725  1.1462  0.7526
  102MOL0     H13453   3.587   5.468   2.162 -1.0868 -2.5779 -0.8890
  102MOL0     H13454   3.746   5.436   1.962  0.5299  0.1691  0.9637
  102MOL0     H13455   3.772   5.565   2.081  2.5337 -2.0802  0.2467
  102MOL0     H13456   3.960   5.544   1.944  0.1968  1.6386 -1.5773
  102MOL0     H13457   3.860   5.591   1.802 -0.7527  1.7505 -0.0810
  102MOL0     H13458   3.864   5.771   2.032 -2.7764 -0.0659  0.3992
  102MOL0     H13459   3.804   5.788   1.862  2.3264  1.7207 -1.9861
  102MOL0     H13460   4.088   5.768   1.927 -1.2297 -2.3887 -1.1959
  102MOL0     H13461   4.031   5.809   1.773  2.2879 -1.1576  0.3440
  102MOL0     H13462   3.969   6.173   1.977 -2.7544 -2.4763  2.4863
  102MOL0     H13463   3.411   5.722   1.870 -0.2053  1.8735  2.9761
  102MOL0     H13464   3.202   5.688   1.947  1.0579  1.1870 -0.0884
  103MOL0     O13465   7.855   6.215   8.749 -0.3714 -0.2553 -0.5408
  103MOL0     C13466   7.974   6.238   8.774 -0.1134 -0.5388  0.5266
  103MOL0     O13467   8.017   6.362   8.803 -0.3334 -0.1996 -0.5347
  103MOL0     C13468   7.928   6.458   8.813  0.3736  0.0283 -1.7897
  103MOL0     C13469   7.923   6.577   8.735 -0.2295  0.6260 -0.8477
  103MOL0     C13470   7.825   6.670   8.760 -0.9325 -0.8405  1.1829
  103MOL0     C13471   7.731   6.655   8.864 -0.2415 -0.2462  0.3775
  103MOL0     O13472   7.645   6.757   8.895  0.7754  0.5431 -0.3640
  103MOL0     C13473   7.567   6.761   9.013  0.5903 -0.1250 -0.7890
  103MOL0     C13474   7.431   6.702   8.977 -0.2286  0.6323  0.7388
  103MOL0     C13475   7.333   6.690   9.100  0.8822 -0.8870  1.0540
  103MOL0     C13476   7.189   6.658   9.052  0.1636  0.0768  0.0769
  103MOL0     C13477   7.078   6.724   9.141 -1.0711 -0.2657 -0.7527
  103MOL0     C13478   7.087   6.668   9.282 -0.1087  0.4325  0.4615
  103MOL0     C13479   7.023   6.770   9.377  0.2644 -0.0965 -0.0546
  103MOL0     C13480   6.873   6.779   9.350  0.4269  0.8558  0.3395
  103MOL0     N13481   6.801   6.841   9.464 -0.5600 -1.0350 -0.3811
  103MOL0     C13482   6.732   6.774   9.569  0.4217  0.7276  0.5813
  103MOL0     C13483   6.661   6.867   9.629 -0.4830  1.0474 -0.9547
  103MOL0     C13484   6.559   6.857   9.746  0.0443  0.5521  0.2321
  103MOL0     C13485   6.428   6.792   9.700  1.5469  0.0090 -0.6329
  103MOL0     C13486   6.370   6.855   9.573  0.3348  0.5394 -1.3945
  103MOL0     C13487   6.220   6.829   9.574 -0.4848 -0.5632  0.4028
  103MOL0     O13488   6.162   6.916   9.481  0.8569 -0.2713  0.7241
  103MOL0     C13489   6.027   6.940   9.476  0.8313  0.3760  0.3388
  103MOL0     C13490   5.937   6.859   9.547  0.8187  0.0954  0.2704
  103MOL0     C13491   5.799   6.878   9.539 -1.2491  0.6876 -0.1835
  103MOL0     C13492   5.751   6.972   9.447  0.3036 -0.2649  0.0264
  103MOL0     C13493   5.606   6.984   9.434  0.5542  0.1034 -1.1863
  103MOL0     O13494   5.559   7.037   9.321 -1.0799  0.9027 -0.8060
  103MOL0     C13495   5.428   7.010   9.302 -0.5493  0.2534 -0.4928
  103MOL0     C13496   5.377   6.875   9.303 -0.7104 -0.7874 -0.2780
  103MOL0     C13497   5.237   6.855   9.290  0.2256 -0.9147 -0.5370
  103MOL0     C13498   5.143   6.954   9.272 -0.2449 -0.1637 -0.7246
  103MOL0     O13499   5.009   6.940   9.262  0.4196  0.1554 -0.3280
  103MOL0     C13500   4.959   6.809   9.265  0.8293  0.2754 -0.5987
  103MOL0     C13501   4.811   6.809   9.225  0.3548 -0.4187  0.7064
  103MOL0     C13502   4.756   6.669   9.231  0.6385  0.8073 -0.1458
  103MOL0     C13503   4.613   6.673   9.187 -0.0566  0.7032  0.5411
  103MOL0     C13504   4.521   6.720   9.293  0.2552 -0.5486 -0.0473
  103MOL0     C13505   4.366   6.727   9.253 -0.8735  0.0339 -0.1221
  103MOL0     C13506   4.289   6.772   9.371 -0.2829 -1.4915 -0.1857
  103MOL0     C13507   4.155   6.713   9.377 -0.8560 -0.0303 -0.3039
  103MOL0    Cl13508   4.078   6.793   9.507 -0.2533  0.2503 -0.3973
  103MOL0     C13509   5.198   7.086   9.266  0.7691  0.3071 -0.1663
  103MOL0     C13510   5.331   7.115   9.292  0.2314  0.6821 -0.3801
  103MOL0     O13511   5.542   6.938   9.531  0.6019 -0.6927 -0.2277
  103MOL0     C13512   5.846   7.060   9.391  0.6239 -0.1108  1.5235
  103MOL0     C13513   5.979   7.047   9.412 -1.1475 -0.5732 -0.7115
  103MOL0     N13514   6.693   6.995   9.585 -0.3964  0.4589 -0.1511
  103MOL0     N13515   6.776   6.970   9.489  0.3233  0.6031 -0.4238
  103MOL0     C13516   7.733   6.537   8.942 -0.0192 -0.1206 -0.6441
  103MOL0     C13517   7.837   6.446   8.915  0.4471 -0.3943  0.5359
  103MOL0     C13518   8.076   6.134   8.775 -0.5316  0.7352  0.1576
  103MOL0     C13519   8.048   6.002   8.828 -0.0857  0.0931  0.2531
  103MOL0     C13520   8.157   5.908   8.825  0.3415  0.4499  0.5070
  103MOL0     C13521   8.287   5.938   8.784 -0.4824  1.0356 -0.4736
  103MOL0     O13522   8.406   5.859   8.793  0.2597 -0.4667  0.4436
  103MOL0     C13523   8.392   5.716   8.783 -0.2794 -0.8382 -0.5209
  103MOL0     C13524   8.372   5.685   8.633  0.0266 -1.2559 -0.7131
  103MOL0     C13525   8.349   5.536   8.609 -0.1500 -0.5167  0.0162
  103MOL0     C13526   8.349   5.482   8.467  0.5340  0.5493 -0.0723
  103MOL0     C13527   8.235   5.542   8.404 -0.5514 -0.4617  0.1856
  103MOL0     C13528   8.137   5.570   8.342  0.2888 -0.5914  0.1822
  103MOL0     C13529   8.306   6.068   8.721  0.0505  0.2327  0.5425
  103MOL0     C13530   8.204   6.155   8.716  1.0876 -0.2788 -0.0846
  103MOL0     H13531   8.000   6.584   8.659 -1.9434  1.2089 -2.6019
  103MOL0     H13532   7.820   6.761   8.702  1.2597 -1.5847 -0.2887
  103MOL0     H13533   7.558   6.862   9.053  1.2952 -0.2172 -0.3662
  103MOL0     H13534   7.619   6.706   9.092  6.1577  1.0881 -3.1300
  103MOL0     H13535   7.450   6.605   8.931 -1.4526  0.2096  1.1030
  103MOL0     H13536   7.397   6.768   8.897 -0.6371 -1.1187 -0.5870
  103MOL0     H13537   7.338   6.793   9.136 -1.8066 -0.5360  0.6345
  103MOL0     H13538   7.378   6.630   9.179 -0.1990 -1.1556  1.4883
  103MOL0     H13539   7.171   6.699   8.952 -0.1151 -1.1610 -0.3864
  103MOL0     H13540   7.165   6.553   9.040 -0.7562  0.2129  0.6328
  103MOL0     H13541   6.977   6.703   9.104 -2.0277  1.5219  0.6803
  103MOL0     H13542   7.095   6.832   9.135  2.5624 -0.5659  1.4508
  103MOL0     H13543   7.188   6.647   9.318 -0.2888 -1.0053  0.2159
  103MOL0     H13544   7.028   6.575   9.279  0.6471 -0.0339 -0.7333
  103MOL0     H13545   7.029   6.728   9.478  0.1964  2.0497  0.9119
  103MOL0     H13546   7.064   6.871   9.370 -0.8407  0.2914 -1.2048
  103MOL0     H13547   6.838   6.676   9.340  0.9774  0.2635  3.3995
  103MOL0     H13548   6.857   6.835   9.257  0.5613  1.9917  0.9800
  103MOL0     H13549   6.728   6.667   9.581 -0.3847  0.8318  1.2749
  103MOL0     H13550   6.527   6.954   9.784 -0.3990 -0.3608  2.3454
  103MOL0     H13551   6.601   6.797   9.827 -0.0315 -0.7300 -0.6383
  103MOL0     H13552   6.356   6.794   9.782  1.3684  1.7372 -0.7783
  103MOL0     H13553   6.443   6.688   9.672 -1.8498 -0.4432 -1.2012
  103MOL0     H13554   6.383   6.964   9.576 -0.5608  0.6689 -1.8843
  103MOL0     H13555   6.419   6.813   9.484 -1.1342 -1.5888 -1.2706
  103MOL0     H13556   6.165   6.844   9.667 -2.5088 -0.3023 -0.7899
  103MOL0     H13557   6.214   6.722   9.552  0.1801 -0.2663 -1.3209
  103MOL0     H13558   5.973   6.785   9.617  1.4616  1.8939  1.9228
  103MOL0     H13559   5.738   6.806   9.591 -0.3757  0.4038  0.4736
  103MOL0     H13560   5.446   6.793   9.322 -1.4148 -0.7438  3.1383
  103MOL0     H13561   5.203   6.754   9.309  2.2944 -1.5628 -0.0308
  103MOL0     H13562   4.965   6.761   9.363  1.2622  1.0819 -0.2156
  103MOL0     H13563   5.015   6.751   9.190 -2.6031 -0.4824 -2.8214
  103MOL0     H13564   4.786   6.854   9.129  0.3365 -0.3253  0.7552
  103MOL0     H13565   4.754   6.865   9.300 -0.4827 -0.9251  0.4574
  103MOL0     H13566   4.752   6.627   9.332 -3.8999  1.1725  0.0712
  103MOL0     H13567   4.809   6.604   9.161 -2.4517  0.5219 -2.4479
  103MOL0     H13568   4.597   6.735   9.098  3.9529  0.8282 -0.2588
  103MOL0     H13569   4.575   6.573   9.164  0.5863  1.0129 -2.2014
  103MOL0     H13570   4.549   6.823   9.316 -1.9131  0.5081 -1.8073
  103MOL0     H13571   4.530   6.653   9.379  1.0362  1.4373  1.5130
  103MOL0     H13572   4.340   6.626   9.218 -0.8257 -0.1695  0.4299
  103MOL0     H13573   4.366   6.796   9.168  0.8038 -0.0413 -0.2128
  103MOL0     H13574   4.344   6.748   9.463 -1.6758  0.7770  1.3279
  103MOL0     H13575   4.284   6.881   9.370 -0.0356 -1.3797 -4.1426
  103MOL0     H13576   4.170   6.607   9.400 -0.2374  0.2425  0.6099
  103MOL0     H13577   4.091   6.721   9.289 -0.6324 -1.9280 -0.6945
  103MOL0     H13578   5.133   7.173   9.270  1.9556  1.2196  0.0771
  103MOL0     H13579   5.354   7.219   9.312 -0.7874  0.6035  1.4234
  103MOL0     H13580   5.812   7.139   9.324 -1.4420 -2.6707 -0.6460
  103MOL0     H13581   6.043   7.124   9.370  2.4846 -2.8469  0.1832
  103MOL0     H13582   7.664   6.525   9.025 -0.1415  2.4544 -0.3091
  103MOL0     H13583   7.843   6.359   8.979 -1.1977 -3.0213 -2.5935
  103MOL0     H13584   7.950   5.971   8.865  0.5509  0.1603  2.0748
  103MOL0     H13585   8.141   5.812   8.873 -2.4716  1.1107  1.0952
  103MOL0     H13586   8.306   5.675   8.836 -0.4346 -3.7537 -2.8084
  103MOL0     H13587   8.476   5.673   8.837 -1.4339  0.9917  3.0580
  103MOL0     H13588   8.283   5.736   8.595 -0.9412 -2.2211  0.2015
  103MOL0     H13589   8.461   5.712   8.574  0.4389  0.8407  0.7661
  103MOL0     H13590   8.257   5.523   8.666 -0.2350  1.1293  0.3079
  103MOL0     H13591   8.426   5.476   8.659 -0.7310 -0.2518  1.2571
  103MOL0     H13592   8.441   5.506   8.412  1.3053 -0.6774  0.6446
  103MOL0     H13593   8.346   5.373   8.464  0.8699  0.5533 -0.9307
  103MOL0     H13594   8.051   5.584   8.279  0.1301  1.3974  0.7747
  103MOL0     H13595   8.405   6.096   8.687 -0.6457 -0.0724 -1.9454
  103MOL0     H13596   8.228   6.249   8.668 -1.0631  0.8175  0.8226
  104MOL0     O13597  11.248   5.090   3.851 -0.9095 -0.7271  0.2421
  104MOL0     C13598  11.291   4.983   3.890 -0.1371 -0.3118  0.0445
  104MOL0     O13599  11.220   4.883   3.956 -0.1674  0.5798  0.1742
  104MOL0     C13600  11.084   4.895   3.946 -0.5672  0.0320 -1.1074
  104MOL0     C13601  11.010   4.838   3.841 -0.4346 -0.0398  0.0123
  104MOL0     C13602  10.871   4.841   3.849  0.8508  0.0341  0.0491
  104MOL0     C13603  10.810   4.899   3.963  0.6779  0.7177 -0.0864
  104MOL0     O13604  10.673   4.906   3.954  0.1378  0.7032 -0.5509
  104MOL0     C13605  10.598   4.992   4.034  0.1815  0.1313  0.2483
  104MOL0     C13606  10.454   4.952   4.019  0.4931  0.7355  0.1886
  104MOL0     C13607  10.425   4.835   4.109  1.0647 -0.0081 -0.8366
  104MOL0     C13608  10.280   4.794   4.089 -0.3894 -0.1850 -0.5623
  104MOL0     C13609  10.250   4.674   4.183  0.2851  0.1193 -0.3300
  104MOL0     C13610  10.132   4.587   4.139  0.8997  0.2054  0.0923
  104MOL0     C13611   9.995   4.670   4.154 -0.9895  0.3906 -0.3980
  104MOL0     C13612   9.955   4.743   4.025  0.1668  0.0321 -0.7165
  104MOL0     N13613   9.823   4.814   4.025  0.0659  0.3530 -0.2705
  104MOL0     C13614   9.716   4.764   4.088  0.0796 -0.3405  0.1614
  104MOL0     C13615   9.613   4.841   4.059  0.1205 -0.0205  0.4330
  104MOL0     C13616   9.478   4.802   4.109  0.6376  0.7354  0.3153
  104MOL0     C13617   9.369   4.864   4.020  0.0722  0.7446 -0.0223
  104MOL0     C13618   9.330   5.001   4.081 -0.4029 -0.0795  0.9494
  104MOL0     C13619   9.207   5.040   4.009  0.2118 -0.6294 -0.2206
  104MOL0     O13620   9.091   4.985   4.088  0.4133 -0.3798 -0.0015
  104MOL0     C13621   8.963   4.985   4.037  0.3604  0.3232  0.4668
  104MOL0     C13622   8.931   4.999   3.895 -0.7239 -0.0619 -0.5904
  104MOL0     C13623   8.793   5.001   3.857  0.6265  0.9524  0.0724
  104MOL0     C13624   8.691   4.986   3.949  0.3696 -0.2518  0.2745
  104MOL0     C13625   8.552   4.980   3.902 -0.1592  0.3270  0.8933
  104MOL0     O13626   8.524   5.002   3.768  0.0737 -0.4325  0.2075
  104MOL0     C13627   8.396   4.992   3.730  0.1447 -0.0346  0.1953
  104MOL0     C13628   8.343   4.886   3.641 -0.3949 -0.1649 -0.7675
  104MOL0     C13629   8.206   4.894   3.609 -0.4819  1.5307  0.1480
  104MOL0     C13630   8.126   4.996   3.667  0.3112  0.0909  0.9556
  104MOL0     O13631   7.991   4.979   3.652  0.0901  1.0376 -0.3133
  104MOL0     C13632   7.913   5.092   3.617  0.6005 -0.0740 -0.0627
  104MOL0     C13633   7.781   5.045   3.549 -0.3988 -0.5083 -0.3115
  104MOL0     C13634   7.703   5.171   3.526  0.0953 -0.4210 -0.9010
  104MOL0     C13635   7.548   5.149   3.517 -0.3075  0.2516  0.5819
  104MOL0     C13636   7.507   5.081   3.385  0.4359 -0.7751 -0.2373
  104MOL0     C13637   7.357   5.053   3.376 -0.0721  0.3830  0.1535
  104MOL0     C13638   7.279   5.169   3.313 -0.7091  0.3167 -0.4521
  104MOL0     C13639   7.142   5.122   3.280 -0.0823  0.0745  0.6348
  104MOL0    Cl13640   7.126   4.997   3.151 -0.3412 -0.1195 -0.2416
  104MOL0     C13641   8.178   5.102   3.737  0.1291 -0.1868 -0.3012
  104MOL0     C13642   8.315   5.097   3.771  0.1129  0.0934  0.4172
  104MOL0     O13643   8.477   4.955   3.993  0.2287 -0.5711  0.8398
  104MOL0     C13644   8.731   4.965   4.083  0.6839  0.9813 -0.0814
  104MOL0     C13645   8.863   4.962   4.127 -0.1126 -0.2429  0.6516
  104MOL0     N13646   9.664   4.935   3.969 -0.7552  0.6577 -0.4073
  104MOL0     N13647   9.792   4.918   3.950  0.5034  0.1479 -0.6572
  104MOL0     C13648  10.881   4.953   4.062 -0.9358 -0.6914 -0.0643
  104MOL0     C13649  11.015   4.950   4.055  0.3850 -0.0351  0.4114
  104MOL0     C13650  11.444   4.966   3.901 -0.1157  0.6651  0.4995
  104MOL0     C13651  11.542   5.039   3.841 -0.4068 -0.6931 -0.0459
  104MOL0     C13652  11.674   5.027   3.885  0.2388 -0.0961  0.0005
  104MOL0     C13653  11.712   4.932   3.985  0.1073 -0.0173 -0.3270
  104MOL0     O13654  11.832   4.929   4.043 -0.5624  0.7581  0.1604
  104MOL0     C13655  11.942   5.003   3.989  0.4459  0.8923  0.1735
  104MOL0     C13656  11.985   4.942   3.849 -0.3554 -1.1026  0.2878
  104MOL0     C13657  12.044   4.799   3.868  0.6022  1.0974  0.4917
  104MOL0     C13658  12.042   4.731   3.728  0.2078 -0.3414 -0.7911
  104MOL0     C13659  12.122   4.611   3.737  0.4254 -0.0894 -0.2181
  104MOL0     C13660  12.210   4.534   3.746  0.3957 -0.3506  0.8589
  104MOL0     C13661  11.615   4.846   4.039  0.1584 -0.1083  0.2641
  104MOL0     C13662  11.481   4.868   3.996 -0.3820 -0.0145 -0.4503
  104MOL0     H13663  11.053   4.792   3.752 -0.0802  2.7775 -1.3865
  104MOL0     H13664  10.819   4.799   3.764  2.2298 -1.0450 -0.2990
  104MOL0     H13665  10.621   5.091   3.994  2.5110 -0.2340  0.5462
  104MOL0     H13666  10.618   4.989   4.142  1.0801  0.5513  0.1027
  104MOL0     H13667  10.429   4.928   3.915  3.6042  1.2028 -0.7759
  104MOL0     H13668  10.399   5.043   4.047  2.7166  2.2173 -0.0085
  104MOL0     H13669  10.440   4.881   4.208  0.2185  0.5288 -0.9417
  104MOL0     H13670  10.492   4.750   4.102  1.0383 -0.8963  4.9528
  104MOL0     H13671  10.219   4.884   4.094  0.6086  0.4577  0.7444
  104MOL0     H13672  10.277   4.759   3.986 -0.7463  0.1666 -0.6730
  104MOL0     H13673  10.253   4.705   4.287  1.6607  0.8152 -0.5429
  104MOL0     H13674  10.334   4.607   4.162  0.7591  0.1554  1.3601
  104MOL0     H13675  10.125   4.497   4.201 -0.9445 -0.0245 -0.3964
  104MOL0     H13676  10.150   4.551   4.037 -0.3924  0.5325 -0.2738
  104MOL0     H13677   9.916   4.604   4.190 -0.3683 -0.1689 -0.0322
  104MOL0     H13678  10.005   4.741   4.236 -0.6326 -2.4356  2.1927
  104MOL0     H13679   9.940   4.664   3.951  0.6884 -0.5216 -0.2434
  104MOL0     H13680  10.023   4.822   3.993 -0.4119 -0.1854 -2.5657
  104MOL0     H13681   9.701   4.671   4.143 -0.3056 -1.3583 -1.5666
  104MOL0     H13682   9.465   4.826   4.215  0.4131  0.9974  0.2307
  104MOL0     H13683   9.466   4.694   4.096  1.9729  0.3899  1.6416
  104MOL0     H13684   9.300   4.781   4.031 -0.8960  1.4260 -0.7454
  104MOL0     H13685   9.392   4.880   3.914  2.7258  1.6152  0.6072
  104MOL0     H13686   9.322   4.993   4.190  2.1368 -0.9703  1.1446
  104MOL0     H13687   9.409   5.077   4.073 -1.2335  1.1510  3.4041
  104MOL0     H13688   9.214   5.000   3.908  2.7742 -2.2062  0.4822
  104MOL0     H13689   9.203   5.149   4.014 -1.5653 -0.7005  3.4458
  104MOL0     H13690   9.005   5.031   3.822 -0.4846 -2.3098 -1.4121
  104MOL0     H13691   8.752   5.009   3.757 -0.6748 -3.3626  0.0767
  104MOL0     H13692   8.414   4.816   3.599  0.6755  0.5213 -0.1581
  104MOL0     H13693   8.161   4.806   3.566 -1.4881  0.6201  2.8592
  104MOL0     H13694   7.965   5.156   3.545  0.9504 -1.8852 -1.5073
  104MOL0     H13695   7.886   5.144   3.709 -2.3959 -0.6360 -0.5281
  104MOL0     H13696   7.737   4.975   3.621 -1.2376 -0.4165 -0.7191
  104MOL0     H13697   7.790   4.990   3.455 -2.6492 -1.1716 -0.2044
  104MOL0     H13698   7.730   5.234   3.441 -0.2614  1.2518  0.1744
  104MOL0     H13699   7.712   5.247   3.604 -1.7673  2.8683 -3.6465
  104MOL0     H13700   7.504   5.106   3.607  1.6830 -2.0644  0.5488
  104MOL0     H13701   7.501   5.248   3.518 -0.1936  0.3724 -1.4044
  104MOL0     H13702   7.566   4.988   3.386  0.1694 -1.1240  4.5858
  104MOL0     H13703   7.540   5.140   3.299  2.0325 -2.4134 -0.8048
  104MOL0     H13704   7.323   5.032   3.478 -2.8105 -3.4858 -1.2642
  104MOL0     H13705   7.340   4.962   3.317 -1.8247  0.5316  0.3738
  104MOL0     H13706   7.267   5.253   3.381 -1.1769 -0.0154 -0.1223
  104MOL0     H13707   7.335   5.208   3.227  1.2617 -2.4686 -0.5864
  104MOL0     H13708   7.096   5.215   3.247  2.7271  2.5893  3.1382
  104MOL0     H13709   7.097   5.080   3.370  1.1324  1.2074  1.8289
  104MOL0     H13710   8.121   5.185   3.777  0.1521  0.5083 -1.6277
  104MOL0     H13711   8.360   5.165   3.842 -2.1226 -0.8848  2.9325
  104MOL0     H13712   8.653   4.935   4.152  1.9454  1.6298  1.6962
  104MOL0     H13713   8.889   4.966   4.232  2.7930 -0.8410  0.0414
  104MOL0     H13714  10.834   5.000   4.148 -0.0072  3.5541 -1.6383
  104MOL0     H13715  11.066   4.995   4.140  0.2315  0.2062  0.3771
  104MOL0     H13716  11.517   5.119   3.772 -2.8189 -0.9034  0.4991
  104MOL0     H13717  11.741   5.098   3.839  1.8055 -0.5956  1.4207
  104MOL0     H13718  12.026   4.998   4.059  0.7664 -2.2397 -0.2654
  104MOL0     H13719  11.898   5.103   3.983 -1.7608 -0.0545 -0.4613
  104MOL0     H13720  11.909   4.947   3.771  1.1532  2.2908 -1.1830
  104MOL0     H13721  12.070   5.002   3.815 -0.6818 -1.0543 -0.4598
  104MOL0     H13722  11.969   4.743   3.925  0.8161  0.9896  0.6657
  104MOL0     H13723  12.141   4.809   3.916  1.6253 -1.1364 -0.9109
  104MOL0     H13724  11.940   4.705   3.697  0.9402 -1.4736 -2.3835
  104MOL0     H13725  12.088   4.802   3.658 -2.6954  1.7480 -0.7641
  104MOL0     H13726  12.306   4.485   3.751  0.9606  0.5178 -0.9036
  104MOL0     H13727  11.634   4.775   4.120 -1.0858 -0.6047  0.1370
  104MOL0     H13728  11.408   4.809   4.049 -0.9519  1.9970  1.1410
  105MOL0     O13729   7.914   5.034   4.903 -0.1854 -0.4892 -0.0713
  105MOL0     C13730   7.995   5.089   4.982 -0.0058 -1.0338  0.8424
  105MOL0     O13731   7.981   5.100   5.113 -0.1092 -0.6776 -0.7354
  105MOL0     C13732   7.863   5.125   5.173 -0.0773  0.3112  0.2509
  105MOL0     C13733   7.881   5.161   5.310  0.5198 -0.1960  0.6967
  105MOL0     C13734   7.779   5.209   5.392 -0.4087 -0.3486 -0.0247
  105MOL0     C13735   7.648   5.207   5.338  0.0409 -0.8542  0.6604
  105MOL0     O13736   7.533   5.255   5.390  0.1329 -0.0322 -0.1380
  105MOL0     C13737   7.539   5.275   5.526  0.2242  0.0632 -0.3359
  105MOL0     C13738   7.522   5.137   5.595  0.7083  0.6707  0.0895
  105MOL0     C13739   7.372   5.079   5.565 -0.7239  0.1877 -0.0042
  105MOL0     C13740   7.356   4.940   5.633 -1.4162 -0.7674  0.7439
  105MOL0     C13741   7.246   4.858   5.559  0.4001  0.3422 -0.3721
  105MOL0     C13742   7.110   4.918   5.597 -0.2166  0.4634  0.3165
  105MOL0     C13743   6.987   4.870   5.518  0.2001  0.1263  0.1575
  105MOL0     C13744   6.915   4.740   5.568  0.9698 -0.8782  0.5558
  105MOL0     N13745   6.839   4.769   5.691 -0.0490  0.2591 -0.3515
  105MOL0     C13746   6.715   4.825   5.692 -0.2686 -0.3194 -0.0496
  105MOL0     C13747   6.662   4.793   5.809 -0.3780 -0.6338 -0.0583
  105MOL0     C13748   6.541   4.829   5.873 -0.3707 -0.5575  0.3975
  105MOL0     C13749   6.401   4.751   5.831 -0.5580 -0.4699 -0.3239
  105MOL0     C13750   6.289   4.798   5.926 -0.5166 -0.1417 -0.4836
  105MOL0     C13751   6.256   4.946   5.903  0.0371 -0.3713 -0.7697
  105MOL0     O13752   6.259   4.985   5.764  0.4164 -0.7061  0.1951
  105MOL0     C13753   6.151   4.975   5.687  0.4417  0.9355 -0.2193
  105MOL0     C13754   6.046   4.881   5.713  0.4328  0.0161  0.8215
  105MOL0     C13755   5.930   4.881   5.637  0.0992 -0.7704 -0.5356
  105MOL0     C13756   5.913   4.978   5.537 -0.3913 -0.4234  0.7232
  105MOL0     C13757   5.779   4.986   5.476 -0.3109 -0.7374 -0.1341
  105MOL0     O13758   5.756   5.094   5.400  0.0365  0.4320 -0.1949
  105MOL0     C13759   5.647   5.103   5.316  1.2763 -0.0503 -0.3467
  105MOL0     C13760   5.681   5.164   5.193  1.2941  0.3779  0.3963
  105MOL0     C13761   5.580   5.191   5.101  0.2816  0.1060  0.0698
  105MOL0     C13762   5.442   5.164   5.124 -0.0468 -0.1664  0.5852
  105MOL0     O13763   5.334   5.214   5.049  0.1571 -0.1520  0.3917
  105MOL0     C13764   5.362   5.290   4.928  0.2199 -0.9772 -0.2803
  105MOL0     C13765   5.231   5.326   4.857  0.2909  0.6216  0.1561
  105MOL0     C13766   5.251   5.414   4.731  0.0689  0.8975 -0.1327
  105MOL0     C13767   5.103   5.426   4.679 -0.2908  1.0470  0.1862
  105MOL0     C13768   5.069   5.326   4.571 -0.0280  0.0594  0.0568
  105MOL0     C13769   4.942   5.358   4.509 -0.7567  0.6566 -0.4171
  105MOL0     C13770   4.922   5.254   4.396 -0.3463  0.4886 -0.4952
  105MOL0     C13771   4.774   5.253   4.352  0.1567  0.3093  0.4278
  105MOL0    Cl13772   4.711   5.415   4.300 -0.0716  0.5157  0.0200
  105MOL0     C13773   5.417   5.092   5.234 -0.4254  0.5360  0.0291
  105MOL0     C13774   5.516   5.055   5.328 -0.3422 -0.4959 -0.5322
  105MOL0     O13775   5.696   4.905   5.513 -0.3116 -0.5237  0.4135
  105MOL0     C13776   6.016   5.057   5.505 -1.0602 -0.3443  0.1095
  105MOL0     C13777   6.137   5.059   5.583  0.4622 -0.2415  0.5064
  105MOL0     N13778   6.752   4.716   5.880  0.0198  0.5804 -0.5635
  105MOL0     N13779   6.861   4.701   5.806 -0.0477 -0.5393 -0.4655
  105MOL0     C13780   7.627   5.175   5.203 -1.6406 -0.1445 -0.6614
  105MOL0     C13781   7.735   5.133   5.119  0.1362 -0.8229 -0.3704
  105MOL0     C13782   8.142   5.102   4.927  0.1559  0.1360  0.1977
  105MOL0     C13783   8.241   5.093   5.014 -0.0851  0.1567 -0.3562
  105MOL0     C13784   8.373   5.068   4.968  0.3832 -0.4352  0.2305
  105MOL0     C13785   8.398   5.067   4.831  0.0881  1.1860 -1.0441
  105MOL0     O13786   8.523   5.023   4.789  0.2155 -0.0969  0.4542
  105MOL0     C13787   8.641   5.051   4.872 -0.5505  0.3220 -0.4134
  105MOL0     C13788   8.776   5.041   4.800  0.1784  0.1741 -0.2075
  105MOL0     C13789   8.797   5.130   4.669  0.1037 -0.3897 -0.3245
  105MOL0     C13790   8.928   5.096   4.614  0.6950  0.1440 -0.2111
  105MOL0     C13791   8.948   5.135   4.475 -0.3826 -0.1118 -0.2011
  105MOL0     C13792   8.963   5.163   4.359  0.2863 -0.0689 -0.7576
  105MOL0     C13793   8.291   5.088   4.741 -1.1420  0.1498  0.1168
  105MOL0     C13794   8.166   5.102   4.792  0.1790 -0.7432 -0.0135
  105MOL0     H13795   7.977   5.147   5.359  0.2803  3.3247  2.5274
  105MOL0     H13796   7.804   5.240   5.493  3.7391  0.5461 -1.1167
  105MOL0     H13797   7.457   5.338   5.560  1.6899  1.3169  1.0715
  105MOL0     H13798   7.625   5.328   5.569 -0.0811 -0.3336  0.8142
  105MOL0     H13799   7.527   5.150   5.703 -1.8649 -0.3928  0.4129
  105MOL0     H13800   7.607   5.073   5.572 -0.3731  0.4045 -4.2107
  105MOL0     H13801   7.368   5.071   5.456  1.2473  0.1923 -0.1079
  105MOL0     H13802   7.298   5.145   5.610 -1.6914 -1.9525  1.7208
  105MOL0     H13803   7.454   4.895   5.615 -0.3390  1.4892  0.6279
  105MOL0     H13804   7.349   4.953   5.741  2.3991 -0.9775  1.1343
  105MOL0     H13805   7.236   4.753   5.589 -0.6875 -0.1732 -2.3566
  105MOL0     H13806   7.271   4.860   5.452  0.9773  0.2571 -0.2406
  105MOL0     H13807   7.120   5.023   5.568  3.2310  0.0806 -0.2248
  105MOL0     H13808   7.102   4.912   5.706  2.9078  1.3078  0.6914
  105MOL0     H13809   6.918   4.955   5.526 -3.4930 -2.5676 -0.4435
  105MOL0     H13810   7.019   4.872   5.414  1.5173  2.7473  0.5258
  105MOL0     H13811   6.989   4.661   5.586  1.1768 -1.1737 -1.3032
  105MOL0     H13812   6.837   4.718   5.495 -0.5898 -0.2501  1.9742
  105MOL0     H13813   6.671   4.877   5.608 -0.9894  0.8534  1.0146
  105MOL0     H13814   6.516   4.934   5.855 -1.9118 -0.8371  0.7589
  105MOL0     H13815   6.561   4.806   5.978  1.1256 -2.8789 -0.3174
  105MOL0     H13816   6.422   4.646   5.854  0.5514 -0.2970 -0.4778
  105MOL0     H13817   6.376   4.771   5.727  4.0243  0.0364 -1.5458
  105MOL0     H13818   6.198   4.742   5.904 -1.8132  0.8257  1.9548
  105MOL0     H13819   6.309   4.770   6.030 -0.7787 -1.8731 -0.8668
  105MOL0     H13820   6.335   5.007   5.946 -0.9160 -0.3332  1.0559
  105MOL0     H13821   6.166   4.979   5.957 -0.0309 -2.9548  0.8753
  105MOL0     H13822   6.052   4.816   5.799 -2.7831  0.2869  1.3713
  105MOL0     H13823   5.848   4.817   5.669 -0.4962  0.1443 -0.2057
  105MOL0     H13824   5.782   5.200   5.175  2.0599 -1.8385  0.0274
  105MOL0     H13825   5.612   5.244   5.012 -0.9699 -0.9496 -1.0422
  105MOL0     H13826   5.425   5.227   4.864  2.5637 -1.4351  2.2621
  105MOL0     H13827   5.423   5.380   4.945 -0.5041  0.1929 -3.1679
  105MOL0     H13828   5.169   5.378   4.931 -1.8735  1.7006 -2.2914
  105MOL0     H13829   5.173   5.235   4.837  0.1891  0.8854 -0.7827
  105MOL0     H13830   5.313   5.373   4.651  0.9683  1.5605  0.1932
  105MOL0     H13831   5.291   5.512   4.762 -0.4178  0.2977  2.6786
  105MOL0     H13832   5.032   5.423   4.762 -0.6253  1.5181 -0.0743
  105MOL0     H13833   5.101   5.525   4.633  2.7146  0.9212 -0.3827
  105MOL0     H13834   5.069   5.222   4.606  0.0943 -1.1075 -3.1456
  105MOL0     H13835   5.145   5.330   4.493 -1.5901  0.6969 -1.5093
  105MOL0     H13836   4.940   5.457   4.462 -2.7744 -0.2933 -2.5546
  105MOL0     H13837   4.860   5.363   4.581 -1.5122 -0.8628 -1.1428
  105MOL0     H13838   4.984   5.281   4.310  1.0798 -1.2669 -0.0863
  105MOL0     H13839   4.949   5.149   4.413  1.4823  0.9414 -0.4801
  105MOL0     H13840   4.703   5.213   4.425 -0.9118  1.8208  0.2724
  105MOL0     H13841   4.772   5.184   4.268 -1.3626  0.2276  0.4979
  105MOL0     H13842   5.311   5.070   5.242 -0.0140 -1.1657  1.4090
  105MOL0     H13843   5.493   5.000   5.419 -1.0202  0.2340 -0.2550
  105MOL0     H13844   6.001   5.140   5.437 -2.0317  2.5800  3.5724
  105MOL0     H13845   6.220   5.127   5.563 -0.4541 -0.0175 -3.2555
  105MOL0     H13846   7.526   5.199   5.173 -1.4477  2.3689  0.3972
  105MOL0     H13847   7.713   5.121   5.013 -1.0807  0.2124 -0.2505
  105MOL0     H13848   8.214   5.121   5.115 -0.8818  2.6433 -1.2018
  105MOL0     H13849   8.457   5.075   5.036 -1.7652  2.4289  2.8648
  105MOL0     H13850   8.645   4.987   4.961  3.1364  1.4996  0.4494
  105MOL0     H13851   8.627   5.154   4.906  1.0258  0.6150 -0.5740
  105MOL0     H13852   8.855   5.065   4.872  2.4733 -1.5723 -2.0098
  105MOL0     H13853   8.787   4.934   4.782  1.6462  0.3050 -0.2100
  105MOL0     H13854   8.786   5.237   4.689  0.1848  0.0270 -2.2708
  105MOL0     H13855   8.719   5.114   4.594 -2.1859  0.8106  1.6510
  105MOL0     H13856   8.992   5.153   4.682 -0.3674  1.6369 -0.4275
  105MOL0     H13857   8.945   4.988   4.624  1.1519  0.0253 -2.0520
  105MOL0     H13858   8.953   5.178   4.253 -0.3074  1.3883 -0.5203
  105MOL0     H13859   8.318   5.107   4.638  0.5676  2.4786  0.8985
  105MOL0     H13860   8.089   5.133   4.722  0.8999  1.3091  0.0180
  106MOL0     O13861   8.679   0.669   8.428 -0.0585 -1.1718  0.5185
  106MOL0     C13862   8.716   0.626   8.537  1.0935 -0.7246 -0.0956
  106MOL0     O13863   8.637   0.600   8.645  0.0709  0.3784 -0.1120
  106MOL0     C13864   8.509   0.580   8.621  1.4875 -0.2321  0.2715
  106MOL0     C13865   8.415   0.669   8.671  0.1114 -1.1418 -0.4219
  106MOL0     C13866   8.271   0.648   8.661 -0.1919 -0.9310  0.7958
  106MOL0     C13867   8.226   0.524   8.611  0.3879 -0.2186  0.5911
  106MOL0     O13868   8.094   0.516   8.606 -0.2218 -0.4184 -0.5045
  106MOL0     C13869   8.045   0.405   8.534 -0.3826  0.0709  0.1350
  106MOL0     C13870   7.892   0.389   8.535  0.2173 -0.7657  0.0182
  106MOL0     C13871   7.816   0.409   8.662 -0.6936 -0.3924  0.3512
  106MOL0     C13872   7.823   0.287   8.755 -0.2731 -0.1406 -0.6986
  106MOL0     C13873   7.696   0.256   8.836  0.1950  0.6271  0.3488
  106MOL0     C13874   7.729   0.169   8.955 -0.8803  0.3236 -1.1017
  106MOL0     C13875   7.597   0.131   9.025 -0.4470  0.4021 -0.0297
  106MOL0     C13876   7.640   0.021   9.119  0.5809  0.2502  0.1315
  106MOL0     N13877   7.533  -0.016   9.214  0.6729  0.0218 -0.8642
  106MOL0     C13878   7.402   0.036   9.226 -0.2557  0.0747 -0.1013
  106MOL0     C13879   7.347  -0.047   9.319 -0.4728 -0.5028 -0.2719
  106MOL0     C13880   7.219  -0.022   9.385 -0.0857  0.4552 -0.7656
  106MOL0     C13881   7.134  -0.143   9.390  0.0070 -0.0121 -0.9056
  106MOL0     C13882   7.134  -0.230   9.259 -0.3273 -1.0200  0.5342
  106MOL0     C13883   7.009  -0.311   9.264  0.8547 -0.2560 -0.1554
  106MOL0     O13884   6.894  -0.233   9.256  0.0139  0.3763  0.4259
  106MOL0     C13885   6.771  -0.287   9.261  0.3734 -0.2853 -0.8908
  106MOL0     C13886   6.734  -0.422   9.280 -0.3397 -0.0212  0.0453
  106MOL0     C13887   6.605  -0.465   9.256  0.6647 -0.6309  0.6467
  106MOL0     C13888   6.505  -0.373   9.216 -0.7234  0.1491 -0.3686
  106MOL0     C13889   6.362  -0.422   9.180 -0.2300 -0.5001  0.0482
  106MOL0     O13890   6.335  -0.540   9.238  0.3762  0.2003 -0.2754
  106MOL0     C13891   6.212  -0.614   9.240  0.3279 -0.1015 -0.3063
  106MOL0     C13892   6.106  -0.604   9.157 -0.5910 -0.5564  0.3293
  106MOL0     C13893   5.982  -0.668   9.172  0.2287 -0.3819 -0.1116
  106MOL0     C13894   5.968  -0.755   9.279 -0.8837 -0.5882 -0.4337
  106MOL0     O13895   5.845  -0.809   9.309  0.4827  0.2919  0.3607
  106MOL0     C13896   5.731  -0.722   9.335  0.3711  0.0294  0.1474
  106MOL0     C13897   5.738  -0.657   9.471 -0.6427 -0.7435 -0.2452
  106MOL0     C13898   5.617  -0.556   9.506 -0.4751 -0.4523  0.5680
  106MOL0     C13899   5.614  -0.523   9.646 -0.0536 -0.7820  0.5368
  106MOL0     C13900   5.554  -0.384   9.677 -0.5700 -0.2127 -0.0176
  106MOL0     C13901   5.405  -0.383   9.731  0.5565  1.3751  0.5964
  106MOL0     C13902   5.327  -0.253   9.736 -0.3929  0.2358  0.4380
  106MOL0     C13903   5.374  -0.174   9.863  0.4793  0.1057 -0.7083
  106MOL0    Cl13904   5.272  -0.017   9.862 -0.4462 -0.0599 -0.3169
  106MOL0     C13905   6.079  -0.786   9.354  0.3525  0.5988  0.5117
  106MOL0     C13906   6.206  -0.717   9.340  0.3418 -0.1280  0.4124
  106MOL0     O13907   6.278  -0.350   9.127  0.0721 -0.1613 -0.5355
  106MOL0     C13908   6.544  -0.246   9.206  0.9247 -0.0160  0.5594
  106MOL0     C13909   6.669  -0.198   9.237  0.5873  0.0646 -0.5611
  106MOL0     N13910   7.437  -0.136   9.367  0.3224 -0.1694  0.3832
  106MOL0     N13911   7.550  -0.112   9.307 -0.4980 -0.8303  0.2043
  106MOL0     C13912   8.315   0.429   8.560  0.1842 -0.9159 -0.2171
  106MOL0     C13913   8.457   0.457   8.577 -0.3354  0.6127  0.1727
  106MOL0     C13914   8.868   0.629   8.545  0.6350 -0.1648  0.3254
  106MOL0     C13915   8.933   0.566   8.650  0.6198  0.5054  0.2951
  106MOL0     C13916   9.068   0.590   8.682 -0.2362 -0.3156 -0.3272
  106MOL0     C13917   9.151   0.653   8.585  0.5711 -0.9614  0.4601
  106MOL0     O13918   9.286   0.659   8.598  0.4130  0.7680 -0.0180
  106MOL0     C13919   9.340   0.735   8.709  0.6110 -0.0925  0.8621
  106MOL0     C13920   9.451   0.660   8.783  0.4303 -0.6181 -0.0823
  106MOL0     C13921   9.465   0.699   8.924 -0.4068 -0.0333 -0.5187
  106MOL0     C13922   9.592   0.649   8.991 -0.1216 -0.7553  0.2091
  106MOL0     C13923   9.579   0.650   9.136  0.2549 -0.3808  0.4228
  106MOL0     C13924   9.572   0.648   9.255  0.8731 -0.0977 -0.3685
  106MOL0     C13925   9.080   0.699   8.469 -0.5389 -0.4703 -0.3274
  106MOL0     C13926   8.945   0.697   8.452 -0.0492 -0.7723  0.0383
  106MOL0     H13927   8.457   0.758   8.716 -0.0002 -0.0865 -2.3183
  106MOL0     H13928   8.210   0.728   8.701  1.9020  0.5031  1.3231
  106MOL0     H13929   8.088   0.314   8.574 -0.6165 -0.8610 -1.6101
  106MOL0     H13930   8.077   0.405   8.429  0.8291 -0.7635  0.4916
  106MOL0     H13931   7.872   0.288   8.497  0.5242 -0.7018 -0.3176
  106MOL0     H13932   7.858   0.462   8.461 -2.0178 -0.7808  0.9514
  106MOL0     H13933   7.711   0.419   8.632 -0.2956 -1.5320 -1.6539
  106MOL0     H13934   7.841   0.499   8.718 -0.9584 -0.1735  0.1204
  106MOL0     H13935   7.834   0.201   8.688  1.1869  1.2437 -2.3234
  106MOL0     H13936   7.916   0.286   8.813  0.1078  0.6236 -1.2790
  106MOL0     H13937   7.629   0.197   8.773 -0.2515 -0.1871  1.5460
  106MOL0     H13938   7.649   0.345   8.879 -0.2892  0.2862  0.5475
  106MOL0     H13939   7.788   0.227   9.027  0.2359  0.9164 -2.4639
  106MOL0     H13940   7.792   0.088   8.919  0.9956 -0.2156  2.8712
  106MOL0     H13941   7.546   0.219   9.066 -1.1791 -0.3213  0.6390
  106MOL0     H13942   7.528   0.084   8.955  0.9068 -1.9137  0.0974
  106MOL0     H13943   7.726   0.054   9.178  0.8852 -0.1030 -0.1094
  106MOL0     H13944   7.667  -0.068   9.062 -4.3667 -2.8027  1.9505
  106MOL0     H13945   7.343   0.114   9.179  0.4271  0.1735 -0.7995
  106MOL0     H13946   7.164   0.060   9.337 -1.4899 -1.4197 -2.5290
  106MOL0     H13947   7.236   0.000   9.490  0.1625  0.5176 -0.8192
  106MOL0     H13948   7.033  -0.103   9.398 -0.5216 -1.0626 -2.0399
  106MOL0     H13949   7.155  -0.198   9.483  0.2338  2.2170  0.4306
  106MOL0     H13950   7.125  -0.169   9.168  1.8139  0.1600  1.0426
  106MOL0     H13951   7.221  -0.295   9.247 -0.4268 -0.8969 -1.1080
  106MOL0     H13952   7.010  -0.388   9.342  0.7232 -0.7854 -0.6709
  106MOL0     H13953   7.016  -0.375   9.175  0.2109 -3.7287  2.0908
  106MOL0     H13954   6.797  -0.510   9.292  0.0401  0.4827  2.0962
  106MOL0     H13955   6.585  -0.569   9.280 -2.5145 -0.0677  0.8360
  106MOL0     H13956   6.111  -0.533   9.075 -0.0734 -0.0120  0.8264
  106MOL0     H13957   5.894  -0.647   9.112 -0.8507 -0.3565  1.4230
  106MOL0     H13958   5.638  -0.779   9.327  0.9325 -0.8208 -0.4637
  106MOL0     H13959   5.731  -0.641   9.261  1.3218 -1.0415 -1.0632
  106MOL0     H13960   5.823  -0.588   9.472 -1.3075  0.2558 -3.0520
  106MOL0     H13961   5.755  -0.727   9.553 -4.8209  0.0085  1.5302
  106MOL0     H13962   5.528  -0.601   9.461  0.4493 -1.9286  0.1318
  106MOL0     H13963   5.623  -0.463   9.450 -1.7758  1.5399  3.5288
  106MOL0     H13964   5.558  -0.597   9.703  0.6009 -1.0772  0.8143
  106MOL0     H13965   5.714  -0.526   9.690  0.8235  0.4643 -1.2588
  106MOL0     H13966   5.555  -0.313   9.594  0.6275  2.5998  2.2168
  106MOL0     H13967   5.611  -0.337   9.758  1.4032 -0.4816 -1.1638
  106MOL0     H13968   5.399  -0.427   9.831 -3.0125  1.8179  0.6912
  106MOL0     H13969   5.341  -0.446   9.669  4.1327 -1.8180 -0.2852
  106MOL0     H13970   5.343  -0.200   9.642  1.2268  0.0994  0.5983
  106MOL0     H13971   5.220  -0.275   9.746 -0.0662 -0.6019  2.8041
  106MOL0     H13972   5.476  -0.139   9.850  0.1887  0.6022 -1.7639
  106MOL0     H13973   5.371  -0.231   9.956 -1.7069 -2.8383 -2.3986
  106MOL0     H13974   6.070  -0.859   9.434 -3.2584  1.5813  1.1899
  106MOL0     H13975   6.286  -0.744   9.408  2.3025 -0.5740 -1.9399
  106MOL0     H13976   6.477  -0.181   9.152  0.3297 -2.7614 -2.2862
  106MOL0     H13977   6.696  -0.095   9.214  0.9732 -0.4610 -2.6982
  106MOL0     H13978   8.292   0.332   8.516  0.3469 -1.4663  0.8814
  106MOL0     H13979   8.532   0.381   8.556 -2.5418 -1.3261 -1.1831
  106MOL0     H13980   8.862   0.539   8.728 -0.5787 -1.9596 -1.5288
  106MOL0     H13981   9.095   0.569   8.785  1.5948  2.3680 -0.1653
  106MOL0     H13982   9.273   0.753   8.794  1.8290  0.1753  1.7826
  106MOL0     H13983   9.364   0.833   8.666 -0.4953 -0.5573 -0.9253
  106MOL0     H13984   9.423   0.556   8.764 -0.7608  0.1370 -3.1810
  106MOL0     H13985   9.544   0.685   8.730  1.1856  0.9366  1.8157
  106MOL0     H13986   9.374   0.669   8.976  0.2492 -1.0517  0.0670
  106MOL0     H13987   9.466   0.807   8.908 -3.1600 -0.0086 -1.0429
  106MOL0     H13988   9.615   0.548   8.954  2.7751 -0.4930  1.0222
  106MOL0     H13989   9.674   0.715   8.959 -0.2096 -0.6074  0.2887
  106MOL0     H13990   9.585   0.657   9.361  0.3553  1.2703 -0.4058
  106MOL0     H13991   9.148   0.738   8.394  1.8042 -0.2936  1.7599
  106MOL0     H13992   8.897   0.735   8.363  2.0619  0.6679 -0.5656
  107MOL0     O13993   6.116   4.395   3.520  0.0693 -0.8030 -0.3430
  107MOL0     C13994   6.118   4.318   3.619 -0.9553 -1.0692  0.1512
  107MOL0     O13995   6.011   4.288   3.687 -0.0253  0.6920 -0.0406
  107MOL0     C13996   5.904   4.363   3.686 -0.0046  0.3822  0.4141
  107MOL0     C13997   5.903   4.505   3.696 -0.4158 -0.3954 -0.4328
  107MOL0     C13998   5.788   4.577   3.679  0.3943  0.2485  0.7697
  107MOL0     C13999   5.657   4.521   3.671  0.0954  0.0544  0.5666
  107MOL0     O14000   5.544   4.594   3.667  0.2117 -0.6656  0.0814
  107MOL0     C14001   5.537   4.732   3.708  0.0446 -0.2049 -0.4919
  107MOL0     C14002   5.565   4.833   3.604 -0.2325  0.4745  0.2695
  107MOL0     C14003   5.491   4.785   3.478 -0.3376  0.3555  0.1904
  107MOL0     C14004   5.490   4.880   3.352  0.2185 -0.5527  0.3631
  107MOL0     C14005   5.406   5.017   3.359  0.4189  0.5957 -0.5746
  107MOL0     C14006   5.402   5.092   3.220  0.1821  0.0336  0.4808
  107MOL0     C14007   5.335   5.231   3.234 -0.3207 -0.2470  0.3003
  107MOL0     C14008   5.379   5.333   3.126 -0.0313  0.6108  0.1431
  107MOL0     N14009   5.326   5.315   2.986  0.0811  0.1578 -0.9275
  107MOL0     C14010   5.362   5.218   2.891  0.6815 -0.4183 -0.6435
  107MOL0     C14011   5.271   5.230   2.789 -0.6819 -0.3234 -0.1712
  107MOL0     C14012   5.266   5.151   2.663  0.4115 -0.4021  0.2020
  107MOL0     C14013   5.133   5.182   2.580 -0.0316  0.0769  0.2297
  107MOL0     C14014   5.112   5.077   2.475  0.1723  0.3490  0.0117
  107MOL0     C14015   4.980   5.099   2.403 -1.2250 -0.2806 -0.3732
  107MOL0     O14016   4.866   5.074   2.483 -0.2817  0.0288  0.1672
  107MOL0     C14017   4.741   5.087   2.430 -0.2522  0.1456 -0.0020
  107MOL0     C14018   4.641   5.116   2.521  0.5615 -0.2625 -0.0008
  107MOL0     C14019   4.503   5.116   2.478  0.0525  0.3977 -0.1476
  107MOL0     C14020   4.469   5.097   2.337 -0.0429  0.1675 -0.0362
  107MOL0     C14021   4.331   5.129   2.280 -0.2718  0.5046 -0.6489
  107MOL0     O14022   4.246   5.199   2.367 -0.0622 -0.6223 -0.0973
  107MOL0     C14023   4.109   5.192   2.347 -0.5170  0.2841 -0.3781
  107MOL0     C14024   4.051   5.314   2.303 -0.2820  0.5776 -0.5430
  107MOL0     C14025   3.916   5.331   2.303  0.4472 -0.0378  0.8193
  107MOL0     C14026   3.837   5.232   2.333  0.3017  0.3547  0.5042
  107MOL0     O14027   3.699   5.240   2.317  0.7372  0.0645  0.7046
  107MOL0     C14028   3.622   5.220   2.428  0.6618 -0.7212  0.2079
  107MOL0     C14029   3.490   5.153   2.394  0.3456 -0.3769 -0.2829
  107MOL0     C14030   3.384   5.206   2.493  0.0794  0.7661 -0.2862
  107MOL0     C14031   3.242   5.134   2.480 -0.2385  0.0730 -0.5662
  107MOL0     C14032   3.161   5.203   2.593  0.1763  0.4717  0.5301
  107MOL0     C14033   3.011   5.168   2.572  0.0856 -0.0081 -0.3793
  107MOL0     C14034   2.941   5.262   2.466  0.0373 -0.3098  0.4427
  107MOL0     C14035   2.794   5.213   2.443  0.6018 -0.7824 -0.4501
  107MOL0    Cl14036   2.663   5.276   2.545 -0.4900  0.0003 -0.4558
  107MOL0     C14037   3.890   5.108   2.369  0.5870  0.4130 -0.2613
  107MOL0     C14038   4.022   5.083   2.378  0.5103 -0.4791  0.8079
  107MOL0     O14039   4.304   5.089   2.167  0.2397  0.1268  0.3495
  107MOL0     C14040   4.572   5.069   2.246 -0.3880  0.3413  0.5958
  107MOL0     C14041   4.701   5.060   2.292 -0.4297  0.9085  0.1662
  107MOL0     N14042   5.200   5.348   2.812  0.5628  0.3207 -0.2619
  107MOL0     N14043   5.232   5.394   2.930  0.2643  0.1273 -0.3756
  107MOL0     C14044   5.658   4.382   3.684 -0.1327  0.0253  0.1308
  107MOL0     C14045   5.777   4.300   3.690  0.2091  1.3361 -0.2511
  107MOL0     C14046   6.250   4.254   3.655  0.0881 -0.2341 -0.4381
  107MOL0     C14047   6.290   4.229   3.789 -0.0704 -0.7958  0.4024
  107MOL0     C14048   6.415   4.175   3.815  0.0522  0.1355  0.1608
  107MOL0     C14049   6.513   4.164   3.720 -0.4161  0.1232  0.1972
  107MOL0     O14050   6.630   4.103   3.754 -0.4170  0.8789  0.8545
  107MOL0     C14051   6.710   4.039   3.649  0.0120 -0.3920  0.9803
  107MOL0     C14052   6.791   3.938   3.718  0.0526  0.0218 -0.5600
  107MOL0     C14053   6.911   3.981   3.809  1.1125  0.5162 -0.3260
  107MOL0     C14054   6.943   3.879   3.927 -0.2463  0.7152  0.9149
  107MOL0     C14055   7.073   3.906   3.999  0.2875  0.2001 -0.2305
  107MOL0     C14056   7.175   3.916   4.062 -1.0295  0.3523  0.2353
  107MOL0     C14057   6.479   4.206   3.588  0.1118 -0.3875 -0.4997
  107MOL0     C14058   6.348   4.245   3.555 -0.1656  0.6584 -0.4291
  107MOL0     H14059   5.995   4.561   3.711 -0.3480  0.2312 -2.7846
  107MOL0     H14060   5.797   4.685   3.685  0.5300  0.3128 -0.3935
  107MOL0     H14061   5.602   4.754   3.794 -2.2395 -0.5517  1.4153
  107MOL0     H14062   5.434   4.749   3.740 -0.1752 -1.8102 -0.2492
  107MOL0     H14063   5.671   4.860   3.596 -0.1485  1.1192  2.7351
  107MOL0     H14064   5.511   4.923   3.638 -0.9939 -0.6955  2.3139
  107MOL0     H14065   5.386   4.761   3.499  0.5642 -2.7346  1.7725
  107MOL0     H14066   5.532   4.691   3.441 -3.3445 -0.4604 -1.3555
  107MOL0     H14067   5.593   4.911   3.335  0.2474 -1.4757 -1.2694
  107MOL0     H14068   5.453   4.817   3.271 -2.0456  1.5366 -0.3523
  107MOL0     H14069   5.454   5.085   3.429 -0.0594  1.0624 -0.6932
  107MOL0     H14070   5.305   4.995   3.395  0.5039  0.5028 -0.3929
  107MOL0     H14071   5.333   5.034   3.157 -1.0485  2.8255 -0.9175
  107MOL0     H14072   5.499   5.098   3.170  0.6851 -0.7529  1.3333
  107MOL0     H14073   5.227   5.214   3.230 -0.1548 -1.2731 -2.7323
  107MOL0     H14074   5.354   5.281   3.328 -0.3976  0.8826 -0.2699
  107MOL0     H14075   5.488   5.334   3.130  0.0265 -1.6714  0.5711
  107MOL0     H14076   5.339   5.429   3.162  2.2374  1.0999  1.5566
  107MOL0     H14077   5.435   5.146   2.927  0.3391  0.3068  1.6416
  107MOL0     H14078   5.271   5.048   2.702 -3.8006 -0.4616  1.0271
  107MOL0     H14079   5.353   5.161   2.597  1.3071 -0.4838  1.3340
  107MOL0     H14080   5.130   5.281   2.533 -2.7055 -0.2843 -0.4924
  107MOL0     H14081   5.045   5.187   2.645 -1.5694  0.1032 -1.7558
  107MOL0     H14082   5.198   5.072   2.408  0.8836  2.1531  0.7330
  107MOL0     H14083   5.110   4.976   2.518 -0.4129 -0.4998 -1.8833
  107MOL0     H14084   4.979   5.024   2.323 -0.2259  1.0782 -1.7312
  107MOL0     H14085   4.988   5.201   2.364  0.9904 -0.2515  0.0299
  107MOL0     H14086   4.665   5.123   2.627  0.9053 -0.7348 -0.0501
  107MOL0     H14087   4.419   5.135   2.544  0.9294  0.5488  0.9606
  107MOL0     H14088   4.112   5.394   2.264  3.4488 -2.2706 -1.1638
  107MOL0     H14089   3.866   5.421   2.268 -1.7352 -1.4260  0.1310
  107MOL0     H14090   3.611   5.317   2.477 -0.2547 -0.5240 -0.3730
  107MOL0     H14091   3.672   5.162   2.507 -1.8231 -2.5919  0.5322
  107MOL0     H14092   3.506   5.045   2.388  0.9864 -0.3681  0.9336
  107MOL0     H14093   3.452   5.180   2.295 -0.5414 -0.2264  0.0884
  107MOL0     H14094   3.368   5.310   2.463  1.0322  1.2926  0.9699
  107MOL0     H14095   3.422   5.193   2.595  3.5145 -2.3937 -1.7279
  107MOL0     H14096   3.202   5.144   2.378  1.3259  0.0389 -1.2056
  107MOL0     H14097   3.261   5.029   2.501  2.4905 -0.4325 -4.4013
  107MOL0     H14098   3.172   5.312   2.590 -0.0964  0.5069  0.7077
  107MOL0     H14099   3.194   5.164   2.689  2.1366 -1.7142 -0.9291
  107MOL0     H14100   2.972   5.178   2.674  1.1092 -2.0858  0.2773
  107MOL0     H14101   2.997   5.066   2.536 -1.8072  1.2534 -3.6654
  107MOL0     H14102   2.942   5.365   2.502 -1.2461 -0.9311  2.4384
  107MOL0     H14103   2.981   5.250   2.365 -1.2783 -0.3859 -0.0971
  107MOL0     H14104   2.791   5.104   2.449 -1.1171 -0.6576  2.4306
  107MOL0     H14105   2.768   5.243   2.341  2.7250  0.2718 -0.7413
  107MOL0     H14106   3.829   5.022   2.392  1.2209  0.3517  1.2833
  107MOL0     H14107   4.061   4.987   2.411  0.6134 -0.2306  1.4344
  107MOL0     H14108   4.546   5.053   2.142  0.5801 -5.1315  0.8934
  107MOL0     H14109   4.775   5.047   2.214 -0.8601  0.9282 -0.2506
  107MOL0     H14110   5.559   4.336   3.680 -1.0710  2.0327 -3.2103
  107MOL0     H14111   5.768   4.192   3.700 -2.3655  1.6022  1.1141
  107MOL0     H14112   6.226   4.234   3.876 -1.0133  1.3764 -0.3519
  107MOL0     H14113   6.443   4.140   3.913  2.2966  1.6568  0.1344
  107MOL0     H14114   6.783   4.103   3.599 -1.5043  0.1528 -0.6417
  107MOL0     H14115   6.648   3.998   3.568 -0.1948  1.6321  0.0544
  107MOL0     H14116   6.720   3.882   3.780 -1.8567  2.0942 -0.7369
  107MOL0     H14117   6.839   3.863   3.655 -1.6561 -0.3573 -1.4553
  107MOL0     H14118   6.880   4.071   3.863 -2.0444 -2.5719  3.6516
  107MOL0     H14119   6.998   3.991   3.743 -0.5908  1.5920 -2.5551
  107MOL0     H14120   6.865   3.871   4.003 -1.1662  0.1748 -0.0534
  107MOL0     H14121   6.947   3.783   3.875  2.6087  0.7665  0.8697
  107MOL0     H14122   7.265   3.919   4.121 -0.7575  2.3951 -0.2374
  107MOL0     H14123   6.555   4.200   3.512  2.0656  3.2019  0.9134
  107MOL0     H14124   6.312   4.277   3.457 -1.2506  2.2292  0.4336
  108MOL0     O14125  10.323   1.197   4.136  0.1635  0.3020  0.5193
  108MOL0     C14126  10.379   1.103   4.196 -0.3309 -0.3424 -0.8925
  108MOL0     O14127  10.327   1.021   4.291 -0.0942  0.1338  0.9830
  108MOL0     C14128  10.193   1.020   4.307  0.1974  0.0468 -0.5874
  108MOL0     C14129  10.130   1.137   4.360  0.1139  0.0197 -0.0623
  108MOL0     C14130   9.994   1.144   4.391  0.7949  0.1050 -0.7713
  108MOL0     C14131   9.913   1.038   4.356  0.1005  0.6193 -0.0992
  108MOL0     O14132   9.781   1.040   4.362  0.2732  0.2401  0.5287
  108MOL0     C14133   9.712   1.171   4.363  0.9481  0.6042  0.5190
  108MOL0     C14134   9.559   1.149   4.382  0.4395 -0.2282  0.0004
  108MOL0     C14135   9.484   1.282   4.339  0.1822  0.4224 -0.4369
  108MOL0     C14136   9.334   1.246   4.345  0.1559  0.2599 -0.2953
  108MOL0     C14137   9.250   1.374   4.327 -0.3473  0.1405  0.0289
  108MOL0     C14138   9.100   1.343   4.346  0.1873 -0.0579  1.5653
  108MOL0     C14139   9.010   1.459   4.349  0.5373  0.5417  0.0881
  108MOL0     C14140   9.003   1.515   4.490  0.7101  0.2598  0.1436
  108MOL0     N14141   8.928   1.644   4.500 -0.5594 -0.2669  0.5275
  108MOL0     C14142   8.829   1.676   4.409 -0.6705 -0.4366 -0.2935
  108MOL0     C14143   8.784   1.795   4.447  0.6189  0.1383  0.5588
  108MOL0     C14144   8.650   1.861   4.411 -0.6539  0.0007  1.0833
  108MOL0     C14145   8.589   1.931   4.535  0.4526  0.1295 -0.5768
  108MOL0     C14146   8.529   1.823   4.632  0.0688  0.4903 -0.5469
  108MOL0     C14147   8.473   1.873   4.762  0.0347 -0.1968 -0.1356
  108MOL0     O14148   8.350   1.948   4.744 -0.0308 -0.0887  0.4754
  108MOL0     C14149   8.242   1.957   4.828  0.0186  0.5866 -0.4678
  108MOL0     C14150   8.134   2.022   4.773  0.3981  0.1183  0.1014
  108MOL0     C14151   8.023   2.045   4.858 -0.3780  1.1711  0.7591
  108MOL0     C14152   8.007   1.989   4.989  0.2562  0.7496  0.7153
  108MOL0     C14153   7.881   2.026   5.063  0.3753  0.2391  0.7548
  108MOL0     O14154   7.783   2.080   4.987  0.7330  0.0831  0.2252
  108MOL0     C14155   7.663   2.100   5.042 -0.2576 -0.2964 -0.4730
  108MOL0     C14156   7.632   2.205   5.133  0.8227  0.5813  0.4072
  108MOL0     C14157   7.504   2.220   5.182  0.1317  0.6201  0.1465
  108MOL0     C14158   7.399   2.146   5.125 -0.0522 -0.5959  0.0380
  108MOL0     O14159   7.281   2.177   5.151 -0.3244  0.7230 -1.2113
  108MOL0     C14160   7.217   2.307   5.124  0.3576  0.1348 -0.0421
  108MOL0     C14161   7.074   2.298   5.184 -0.2889  1.1516  0.1844
  108MOL0     C14162   6.982   2.401   5.130 -0.1309 -0.1829  0.5116
  108MOL0     C14163   6.848   2.407   5.203  0.5575  0.2914 -0.4206
  108MOL0     C14164   6.759   2.494   5.126  0.7443  0.3358  0.2147
  108MOL0     C14165   6.623   2.506   5.192  0.0988 -0.7499  0.1991
  108MOL0     C14166   6.524   2.594   5.114 -0.4093  0.0639 -0.3309
  108MOL0     C14167   6.390   2.597   5.188  0.1673 -0.7212  0.0569
  108MOL0    Cl14168   6.263   2.677   5.090  0.3614  0.0969  0.2169
  108MOL0     C14169   7.428   2.040   5.039 -0.1608 -0.6588  0.4913
  108MOL0     C14170   7.556   2.015   5.002 -0.8889  0.7459  0.1415
  108MOL0     O14171   7.881   2.004   5.182 -0.1133 -0.0808  0.4392
  108MOL0     C14172   8.123   1.912   5.038  1.1329 -0.4662 -0.1992
  108MOL0     C14173   8.236   1.898   4.960  0.1032  0.0251 -0.2418
  108MOL0     N14174   8.874   1.850   4.546  0.7038  0.1911 -0.2375
  108MOL0     N14175   8.945   1.750   4.580  0.1212 -1.1193 -0.1071
  108MOL0     C14176   9.981   0.920   4.301  0.0734 -0.7289  0.7629
  108MOL0     C14177  10.119   0.906   4.289 -0.1695 -0.4434 -0.5007
  108MOL0     C14178  10.528   1.087   4.167  0.1584 -0.6961  0.6249
  108MOL0     C14179  10.564   1.091   4.026  1.0912 -0.1857 -0.2261
  108MOL0     C14180  10.699   1.077   3.993  0.1025  0.6166 -0.1199
  108MOL0     C14181  10.792   1.040   4.092  0.7742  0.4416 -0.1634
  108MOL0     O14182  10.929   1.029   4.073 -0.5122  0.1109  0.8725
  108MOL0     C14183  10.966   0.987   3.941  0.0016  0.0440 -0.2948
  108MOL0     C14184  11.111   0.934   3.939 -0.2032  0.4395  0.4522
  108MOL0     C14185  11.222   1.025   3.998 -0.2904 -0.4454 -0.5556
  108MOL0     C14186  11.216   1.163   3.922  0.5332  0.2355  0.0500
  108MOL0     C14187  11.328   1.239   3.965  0.3868 -0.0275  0.0625
  108MOL0     C14188  11.432   1.293   3.995 -0.0765 -0.8542  0.1942
  108MOL0     C14189  10.749   1.032   4.225 -0.4816 -0.2373 -0.8683
  108MOL0     C14190  10.622   1.059   4.269 -0.8460 -0.2543 -0.5595
  108MOL0     H14191  10.179   1.234   4.362 -1.9687  1.2442 -2.3302
  108MOL0     H14192   9.963   1.245   4.418  0.1491  1.1281 -4.6690
  108MOL0     H14193   9.744   1.215   4.268  3.1305  0.0555  0.9305
  108MOL0     H14194   9.747   1.240   4.440 -0.9910  2.4646 -0.2075
  108MOL0     H14195   9.530   1.112   4.480  1.8818  0.0317  0.5510
  108MOL0     H14196   9.523   1.077   4.308  3.1679 -0.5523 -1.1492
  108MOL0     H14197   9.511   1.303   4.235 -2.6362 -2.3294 -1.8578
  108MOL0     H14198   9.505   1.373   4.396  0.0102  1.2253 -1.6208
  108MOL0     H14199   9.297   1.184   4.263 -0.6988  1.4634 -0.8650
  108MOL0     H14200   9.308   1.206   4.443 -1.0873 -1.4068 -1.2563
  108MOL0     H14201   9.276   1.422   4.232  2.3266  1.5644  1.3541
  108MOL0     H14202   9.284   1.445   4.403 -1.0312  0.2861  0.2073
  108MOL0     H14203   9.091   1.277   4.433  2.0359  0.2822  2.0717
  108MOL0     H14204   9.058   1.288   4.261  2.1860  2.5447 -1.3406
  108MOL0     H14205   9.050   1.542   4.290 -4.7997  1.9856 -2.0935
  108MOL0     H14206   8.911   1.425   4.317 -0.2584  0.2770  2.5896
  108MOL0     H14207   9.102   1.520   4.536  0.1132  0.4333  1.4476
  108MOL0     H14208   8.945   1.446   4.552 -0.2301  1.1350  0.2790
  108MOL0     H14209   8.790   1.613   4.330  0.3201 -0.2277 -0.9679
  108MOL0     H14210   8.582   1.776   4.397  0.0087 -0.0987 -2.4960
  108MOL0     H14211   8.660   1.931   4.328 -0.3483  2.8039  3.3599
  108MOL0     H14212   8.502   1.979   4.489 -1.3575 -2.6984 -0.3642
  108MOL0     H14213   8.656   2.000   4.588  1.7769 -1.1509 -0.5319
  108MOL0     H14214   8.453   1.769   4.575 -0.8090 -0.2650  1.2614
  108MOL0     H14215   8.616   1.758   4.644  1.9756  2.7542 -1.3064
  108MOL0     H14216   8.529   1.950   4.815 -2.0207  0.1993  1.6247
  108MOL0     H14217   8.470   1.783   4.825  2.3311 -0.3851 -0.2210
  108MOL0     H14218   8.137   2.076   4.679 -0.0629  1.9180  1.0659
  108MOL0     H14219   7.941   2.101   4.816 -0.0603  0.3762 -1.0523
  108MOL0     H14220   7.722   2.250   5.173  2.4067 -1.6930 -0.3856
  108MOL0     H14221   7.488   2.296   5.258  0.8319 -0.9790  1.9942
  108MOL0     H14222   7.224   2.326   5.017 -0.6203 -0.4548 -0.2215
  108MOL0     H14223   7.270   2.392   5.167  0.3745 -0.0622  0.3365
  108MOL0     H14224   7.086   2.316   5.292 -0.1504 -0.3806  0.4461
  108MOL0     H14225   7.038   2.195   5.175  2.2417  0.3830 -3.2757
  108MOL0     H14226   6.964   2.399   5.022 -0.4138  3.1795  0.3774
  108MOL0     H14227   7.031   2.499   5.141 -0.2512 -0.1184  0.4686
  108MOL0     H14228   6.810   2.304   5.209  1.6329 -0.0421  1.6601
  108MOL0     H14229   6.864   2.436   5.307 -0.8702  0.1467 -0.1396
  108MOL0     H14230   6.762   2.458   5.023 -0.3308  0.4294  0.1325
  108MOL0     H14231   6.793   2.598   5.120  0.9878  0.4382  2.4857
  108MOL0     H14232   6.642   2.559   5.286  1.5199  0.1447 -0.5503
  108MOL0     H14233   6.585   2.406   5.210  2.1397 -1.4322  1.0568
  108MOL0     H14234   6.557   2.698   5.115 -0.7524  0.2798 -3.0480
  108MOL0     H14235   6.509   2.569   5.008  1.7489  1.6332 -1.0759
  108MOL0     H14236   6.420   2.662   5.271  1.2350  1.1276 -1.7155
  108MOL0     H14237   6.352   2.504   5.232 -0.4919  0.2909  1.7059
  108MOL0     H14238   7.339   1.991   5.001 -1.2999 -1.5654  4.0197
  108MOL0     H14239   7.569   1.944   4.920  2.7672  0.7563  0.5362
  108MOL0     H14240   8.112   1.855   5.129  0.1833  0.9703  0.6249
  108MOL0     H14241   8.326   1.846   4.992 -0.5820 -0.5089  0.8500
  108MOL0     H14242   9.928   0.830   4.268 -1.2012  0.5389 -0.8334
  108MOL0     H14243  10.171   0.818   4.252 -1.4798 -1.9096  0.9748
  108MOL0     H14244  10.489   1.108   3.950  1.0574  0.1471 -0.1197
  108MOL0     H14245  10.738   1.106   3.896 -1.9234  0.3186 -1.0863
  108MOL0     H14246  10.955   1.075   3.876 -0.4654  2.1113  2.4116
  108MOL0     H14247  10.891   0.909   3.919 -1.9151  0.8006  2.9088
  108MOL0     H14248  11.102   0.831   3.973  2.8348 -0.5049 -1.2702
  108MOL0     H14249  11.129   0.917   3.832 -0.1735 -3.8830  0.9667
  108MOL0     H14250  11.323   0.982   3.999  0.2707  0.7745  0.8718
  108MOL0     H14251  11.206   1.048   4.104  4.8293  2.9146 -0.1453
  108MOL0     H14252  11.214   1.146   3.814 -0.4576 -0.1939  0.1269
  108MOL0     H14253  11.123   1.209   3.954 -1.4867 -2.8352 -0.9219
  108MOL0     H14254  11.514   1.357   4.022  0.2107 -0.4441 -1.5469
  108MOL0     H14255  10.824   1.005   4.299  1.1854  1.7641 -1.7075
  108MOL0     H14256  10.580   1.048   4.368 -1.5375 -0.3439 -0.8535
  109MOL0     O14257   2.619   5.889   5.186  0.3804  0.2518 -0.4453
  109MOL0     C14258   2.637   5.833   5.294  0.4013  0.1541 -0.0985
  109MOL0     O14259   2.543   5.798   5.387  0.1302  0.3789  0.0530
  109MOL0     C14260   2.413   5.845   5.374  0.7081  0.6454 -0.2543
  109MOL0     C14261   2.375   5.978   5.363  0.1700  0.4019  0.8065
  109MOL0     C14262   2.243   6.011   5.349  0.1178 -0.0829  0.4328
  109MOL0     C14263   2.148   5.917   5.337 -0.7577  0.6268  0.6389
  109MOL0     O14264   2.013   5.942   5.308 -0.3897 -0.1029  0.3277
  109MOL0     C14265   1.940   6.046   5.374  0.0694  0.5836 -0.9742
  109MOL0     C14266   1.788   6.020   5.397  0.2618  0.8933 -0.2798
  109MOL0     C14267   1.718   5.946   5.285  0.1284  1.2655  0.3332
  109MOL0     C14268   1.573   5.985   5.258  0.0229  0.2722 -0.4111
  109MOL0     C14269   1.490   5.978   5.391 -0.2616  0.1029  0.1764
  109MOL0     C14270   1.342   6.008   5.356  0.4216 -0.1641  1.0669
  109MOL0     C14271   1.250   5.978   5.483 -0.7132 -0.6631  0.3426
  109MOL0     C14272   1.196   5.833   5.494 -0.1164 -0.3757  0.1103
  109MOL0     N14273   1.113   5.792   5.384  0.1217  0.1341 -0.6695
  109MOL0     C14274   0.987   5.837   5.364  0.0714 -0.6461  0.3111
  109MOL0     C14275   0.949   5.777   5.248  0.1981  0.0875 -0.3332
  109MOL0     C14276   0.817   5.778   5.179 -0.0617 -0.3896 -0.5203
  109MOL0     C14277   0.725   5.881   5.248 -0.1877 -0.5698 -0.0626
  109MOL0     C14278   0.594   5.869   5.166 -0.5433  0.8273 -0.0085
  109MOL0     C14279   0.482   5.950   5.219  0.8972 -0.2875 -0.1051
  109MOL0     O14280   0.428   5.884   5.332  0.2674  0.0606  0.4681
  109MOL0     C14281   0.300   5.900   5.373  0.8744 -0.0949 -0.7279
  109MOL0     C14282   0.211   6.005   5.328  0.9292  0.0951  0.1224
  109MOL0     C14283   0.074   6.017   5.383 -0.3420  0.3164  0.7484
  109MOL0     C14284   0.036   5.922   5.478  0.8087  0.1746 -0.4943
  109MOL0     C14285  -0.102   5.926   5.541 -1.0631  0.2276  0.3240
  109MOL0     O14286  -0.135   5.805   5.610 -0.2649  0.4175  0.0710
  109MOL0     C14287  -0.262   5.775   5.648 -0.1694 -0.3121  0.4532
  109MOL0     C14288  -0.370   5.824   5.568 -0.0521  0.3241  0.7290
  109MOL0     C14289  -0.501   5.783   5.612 -0.3508 -0.6192  0.5830
  109MOL0     C14290  -0.519   5.691   5.720 -0.8742 -0.3342  0.4864
  109MOL0     O14291  -0.641   5.646   5.769 -0.6292  0.0559  0.4805
  109MOL0     C14292  -0.767   5.707   5.741 -0.5630 -0.1770  0.5037
  109MOL0     C14293  -0.823   5.643   5.609 -0.3065 -0.3804  0.0576
  109MOL0     C14294  -0.949   5.709   5.550  0.5158  1.5714 -0.0660
  109MOL0     C14295  -1.066   5.729   5.642 -0.0363 -0.2324  0.0774
  109MOL0     C14296  -1.194   5.770   5.570  0.5658 -0.3425 -0.3677
  109MOL0     C14297  -1.307   5.801   5.665 -0.1108  0.3554  0.3825
  109MOL0     C14298  -1.444   5.817   5.593 -0.4360 -0.4456 -0.7966
  109MOL0     C14299  -1.560   5.819   5.696 -1.0301  0.0460  0.6481
  109MOL0    Cl14300  -1.585   5.979   5.761  0.1289 -0.0459  0.0124
  109MOL0     C14301  -0.408   5.650   5.789 -0.3420  0.3251  0.3399
  109MOL0     C14302  -0.276   5.681   5.752 -0.2335 -0.1130 -0.1618
  109MOL0     O14303  -0.172   6.025   5.521  0.1827  0.2283 -0.2792
  109MOL0     C14304   0.118   5.813   5.515  0.1658  0.4814  0.4193
  109MOL0     C14305   0.248   5.809   5.470 -0.2747  0.1423  0.8245
  109MOL0     N14306   1.045   5.693   5.201 -0.6382  1.2061 -0.4710
  109MOL0     N14307   1.150   5.702   5.286  0.0913  0.1078  0.4219
  109MOL0     C14308   2.181   5.776   5.344 -0.1158  1.0181  0.1189
  109MOL0     C14309   2.312   5.742   5.375 -1.0336 -0.1006 -0.4953
  109MOL0     C14310   2.775   5.775   5.334 -0.5115 -0.2243 -0.2931
  109MOL0     C14311   2.810   5.724   5.462 -0.6425  0.2861 -0.6105
  109MOL0     C14312   2.937   5.668   5.499  0.6827 -0.9125  1.1863
  109MOL0     C14313   3.033   5.646   5.395  0.1924 -0.5267 -0.1610
  109MOL0     O14314   3.143   5.586   5.438 -0.5253  0.0946  0.1110
  109MOL0     C14315   3.213   5.490   5.356  0.1001  1.0010  0.2624
  109MOL0     C14316   3.362   5.469   5.407 -0.3568  0.0050 -0.9760
  109MOL0     C14317   3.369   5.470   5.564 -0.9303 -0.5912 -0.2044
  109MOL0     C14318   3.505   5.415   5.620  0.2449  0.3521  0.5669
  109MOL0     C14319   3.627   5.476   5.560  0.0599 -0.1248 -1.3142
  109MOL0     C14320   3.735   5.520   5.515 -0.3037  0.3691  0.0810
  109MOL0     C14321   3.005   5.696   5.270  0.5828 -0.1610  0.3866
  109MOL0     C14322   2.881   5.755   5.238 -0.0402 -1.3160 -0.9713
  109MOL0     H14323   2.448   6.059   5.358  1.4332 -0.7598 -0.7784
  109MOL0     H14324   2.222   6.118   5.340 -3.5166 -0.8232 -2.2158
  109MOL0     H14325   1.960   6.133   5.311  3.1383  0.9835  0.3853
  109MOL0     H14326   1.980   6.056   5.475 -3.1984 -1.2387  0.6897
  109MOL0     H14327   1.741   6.117   5.416  0.5346  0.7917  1.0066
  109MOL0     H14328   1.775   5.955   5.485 -1.8945  0.5044 -0.8322
  109MOL0     H14329   1.719   5.840   5.312 -4.2380  0.9047 -0.1986
  109MOL0     H14330   1.783   5.966   5.199  1.9561 -2.3483  0.7010
  109MOL0     H14331   1.574   6.085   5.215 -3.2751 -0.7372 -3.2601
  109MOL0     H14332   1.532   5.917   5.183  0.3304  0.6995 -0.9751
  109MOL0     H14333   1.523   6.053   5.462  0.6186 -0.0068 -0.1035
  109MOL0     H14334   1.500   5.878   5.435 -0.2953  0.1076  0.1943
  109MOL0     H14335   1.310   5.957   5.265 -0.7548 -0.7808  1.8017
  109MOL0     H14336   1.324   6.114   5.336  0.8091 -0.8070 -3.8947
  109MOL0     H14337   1.307   6.006   5.572  0.2956 -1.8221  0.0866
  109MOL0     H14338   1.161   6.041   5.476 -1.8477 -2.2524 -0.4056
  109MOL0     H14339   1.129   5.818   5.579 -0.2471  0.3418  0.1396
  109MOL0     H14340   1.282   5.766   5.498 -0.4290 -0.9659 -1.8249
  109MOL0     H14341   0.931   5.904   5.429  0.1340 -0.2561 -0.0282
  109MOL0     H14342   0.765   5.682   5.187 -1.4643  0.1191 -2.6084
  109MOL0     H14343   0.822   5.805   5.073  3.7019  0.8638 -0.1482
  109MOL0     H14344   0.770   5.980   5.236  0.7333 -0.8221  1.1581
  109MOL0     H14345   0.709   5.867   5.355 -2.9605 -1.2351 -0.4940
  109MOL0     H14346   0.600   5.878   5.058 -1.6104  0.6761 -0.0990
  109MOL0     H14347   0.568   5.763   5.177 -1.6386  0.6712 -3.1797
  109MOL0     H14348   0.411   5.971   5.138  0.6128 -1.4066 -0.1543
  109MOL0     H14349   0.518   6.052   5.237 -2.8100  1.5903 -2.1676
  109MOL0     H14350   0.246   6.067   5.246  0.1188 -0.5751 -0.7652
  109MOL0     H14351   0.000   6.089   5.348 -1.0460  1.0009  3.4036
  109MOL0     H14352  -0.359   5.887   5.480  2.3268 -0.7584  0.1736
  109MOL0     H14353  -0.579   5.826   5.549  0.5213 -0.3090 -0.3199
  109MOL0     H14354  -0.765   5.815   5.726 -2.5525 -0.3768 -1.9275
  109MOL0     H14355  -0.843   5.707   5.819 -1.2178  1.7694 -0.0855
  109MOL0     H14356  -0.844   5.538   5.630  0.7871 -1.6432 -4.2031
  109MOL0     H14357  -0.740   5.647   5.538  3.1904  2.5407  3.8234
  109MOL0     H14358  -0.987   5.646   5.469  1.4472  1.5723 -0.5184
  109MOL0     H14359  -0.921   5.804   5.504 -0.9302  1.2487 -1.7394
  109MOL0     H14360  -1.069   5.635   5.699  1.9136 -0.8608 -0.8039
  109MOL0     H14361  -1.031   5.804   5.713 -0.2935 -0.0311 -0.0081
  109MOL0     H14362  -1.223   5.693   5.498  2.3553 -1.2060 -0.2433
  109MOL0     H14363  -1.169   5.866   5.524  2.6286  0.5930  2.4019
  109MOL0     H14364  -1.292   5.897   5.716 -0.6078 -0.2980  1.8132
  109MOL0     H14365  -1.316   5.720   5.737 -1.1680 -2.7581 -2.9335
  109MOL0     H14366  -1.455   5.918   5.553 -2.9326  0.0739  0.9639
  109MOL0     H14367  -1.464   5.751   5.508 -0.4098  1.2063 -2.1253
  109MOL0     H14368  -1.530   5.753   5.779  1.2086  2.8998  2.3113
  109MOL0     H14369  -1.650   5.773   5.656 -0.4653 -1.4289  0.9959
  109MOL0     H14370  -0.430   5.581   5.870  3.6681  1.2344  2.4746
  109MOL0     H14371  -0.191   5.647   5.810  0.3020  1.8234  0.2571
  109MOL0     H14372   0.073   5.736   5.578 -0.6393  0.3984 -0.2395
  109MOL0     H14373   0.328   5.744   5.505  0.7865 -0.1139 -1.8514
  109MOL0     H14374   2.095   5.710   5.338 -1.2334  2.5312 -2.3345
  109MOL0     H14375   2.325   5.636   5.394 -0.9036 -0.3791 -1.9949
  109MOL0     H14376   2.732   5.728   5.538  1.4295  2.0248  1.5842
  109MOL0     H14377   2.964   5.621   5.593  2.9546 -3.0844 -0.4149
  109MOL0     H14378   3.225   5.525   5.253 -0.5184 -2.6270 -1.2299
  109MOL0     H14379   3.164   5.392   5.354  0.4741  0.8152 -0.4841
  109MOL0     H14380   3.409   5.383   5.359 -3.2729 -1.6031 -1.1725
  109MOL0     H14381   3.417   5.562   5.384  1.9426 -0.9229  0.4066
  109MOL0     H14382   3.290   5.402   5.595 -0.4706 -0.1839  2.0996
  109MOL0     H14383   3.351   5.575   5.590  0.4245 -0.6285  1.0168
  109MOL0     H14384   3.515   5.430   5.728  2.1363 -1.4989  0.6959
  109MOL0     H14385   3.509   5.307   5.604 -0.0473  0.6377 -1.7578
  109MOL0     H14386   3.819   5.559   5.461 -1.8092  2.6819 -0.7569
  109MOL0     H14387   3.084   5.701   5.196 -0.7580  1.8395 -0.9983
  109MOL0     H14388   2.867   5.789   5.136 -0.7000  0.7658 -0.2561
  110MOL0     O14389   6.029   4.328   2.993 -0.5478  0.0728 -0.2995
  110MOL0     C14390   6.069   4.263   3.088 -0.4091  1.2186  0.7277
  110MOL0     O14391   5.991   4.204   3.182 -0.2890  0.0065  0.2097
  110MOL0     C14392   5.857   4.245   3.189 -0.4166  0.2981 -0.0082
  110MOL0     C14393   5.815   4.312   3.303  0.2812 -0.0059 -0.4602
  110MOL0     C14394   5.677   4.343   3.318  0.3661  0.1275  0.3663
  110MOL0     C14395   5.585   4.313   3.216  0.9297  0.6509  0.2476
  110MOL0     O14396   5.448   4.329   3.219  0.7587 -0.3485  0.3015
  110MOL0     C14397   5.402   4.451   3.281 -0.5431 -0.3780  0.2067
  110MOL0     C14398   5.250   4.461   3.294  0.6305  0.7886  0.1484
  110MOL0     C14399   5.182   4.454   3.150 -0.5684  0.6786 -0.6066
  110MOL0     C14400   5.209   4.582   3.064 -0.3830  0.1395  0.6895
  110MOL0     C14401   5.130   4.576   2.938  0.0026 -0.3627 -0.3141
  110MOL0     C14402   5.195   4.478   2.847  0.1248  0.6184  0.2809
  110MOL0     C14403   5.096   4.466   2.720 -0.6682  0.0376  0.4985
  110MOL0     C14404   4.984   4.357   2.730  0.4055 -0.5492 -0.3006
  110MOL0     N14405   4.878   4.385   2.627  0.1720 -0.5135 -0.4633
  110MOL0     C14406   4.769   4.466   2.633  0.3421 -0.4118 -0.2965
  110MOL0     C14407   4.712   4.456   2.514  0.2392 -0.8388 -0.7342
  110MOL0     C14408   4.590   4.531   2.469  0.1160 -0.3163 -0.4507
  110MOL0     C14409   4.609   4.678   2.435  0.1814  0.1428  0.6661
  110MOL0     C14410   4.481   4.749   2.407  0.2941  0.2035 -0.1646
  110MOL0     C14411   4.399   4.693   2.285  0.3171 -0.3815  0.6201
  110MOL0     O14412   4.307   4.590   2.326  0.5037  0.2726 -0.3184
  110MOL0     C14413   4.176   4.617   2.327  0.3532 -0.2915 -0.4798
  110MOL0     C14414   4.114   4.730   2.279 -0.9039 -0.3809 -0.5541
  110MOL0     C14415   3.983   4.749   2.272  0.7537  0.8605  1.1759
  110MOL0     C14416   3.897   4.649   2.321  0.6329 -0.4280 -0.0714
  110MOL0     C14417   3.744   4.661   2.325  0.0010 -0.9329 -0.1519
  110MOL0     O14418   3.665   4.564   2.373 -0.0727  0.0108  0.3224
  110MOL0     C14419   3.529   4.592   2.396 -0.0490  0.2097  1.1038
  110MOL0     C14420   3.470   4.710   2.430  0.7270 -0.0025 -0.6497
  110MOL0     C14421   3.337   4.722   2.453  0.1019  0.6858 -0.5715
  110MOL0     C14422   3.245   4.619   2.440  0.0920  0.4128  0.7117
  110MOL0     O14423   3.119   4.634   2.473 -0.3241 -0.6156 -0.2710
  110MOL0     C14424   3.030   4.681   2.367 -0.2369 -0.9280  0.0305
  110MOL0     C14425   2.942   4.574   2.294 -0.1300 -0.0264  0.6768
  110MOL0     C14426   2.887   4.483   2.401  0.1414 -0.5640 -0.8125
  110MOL0     C14427   2.804   4.374   2.338  1.0089  0.7080  0.3392
  110MOL0     C14428   2.737   4.305   2.450  0.7643 -0.4248 -0.6194
  110MOL0     C14429   2.635   4.196   2.395  0.3356  0.5383  0.7194
  110MOL0     C14430   2.565   4.131   2.509 -0.1508 -0.4904  0.2720
  110MOL0     C14431   2.479   4.008   2.474  0.0057 -0.1473  0.4585
  110MOL0    Cl14432   2.358   4.032   2.342  0.1486  0.0227 -0.3520
  110MOL0     C14433   3.297   4.498   2.400 -0.4319  0.1060 -0.1447
  110MOL0     C14434   3.438   4.484   2.382  0.1128 -1.3235  0.6061
  110MOL0     O14435   3.705   4.766   2.282  0.3397  0.5307 -0.1369
  110MOL0     C14436   3.951   4.532   2.368  0.0165  0.2468  0.7533
  110MOL0     C14437   4.088   4.508   2.371  0.0632 -0.0846 -0.0769
  110MOL0     N14438   4.791   4.392   2.426 -0.2926  0.0913 -0.2495
  110MOL0     N14439   4.886   4.337   2.499  0.1953  0.7544 -0.3964
  110MOL0     C14440   5.626   4.252   3.102 -0.4342 -0.1486  0.0316
  110MOL0     C14441   5.764   4.213   3.090  0.2488  1.3549 -0.7460
  110MOL0     C14442   6.222   4.226   3.105  0.8031 -0.2064  0.3544
  110MOL0     C14443   6.312   4.276   3.010  0.4874  0.4442  0.2700
  110MOL0     C14444   6.446   4.242   3.029  0.1023  0.6946 -0.3905
  110MOL0     C14445   6.497   4.161   3.134 -0.1134 -0.9744 -0.2223
  110MOL0     O14446   6.628   4.125   3.152 -0.6602  0.0912  0.0641
  110MOL0     C14447   6.724   4.197   3.078  0.0480  0.6522  0.1381
  110MOL0     C14448   6.861   4.178   3.155  0.2160 -0.1802 -0.3783
  110MOL0     C14449   6.933   4.045   3.165 -0.3362 -0.4450  0.3928
  110MOL0     C14450   6.996   3.994   3.028  0.4250 -0.1824 -0.0222
  110MOL0     C14451   7.074   4.092   2.946  0.9436  0.2969 -0.2256
  110MOL0     C14452   7.136   4.188   2.900  0.1510  0.2197 -0.0757
  110MOL0     C14453   6.398   4.110   3.224 -0.3489  0.0581  0.4579
  110MOL0     C14454   6.269   4.142   3.210  0.2163 -0.3603 -0.0920
  110MOL0     H14455   5.877   4.352   3.382  0.7603 -0.6545 -0.4971
  110MOL0     H14456   5.640   4.399   3.404 -4.9276 -0.2010 -1.3944
  110MOL0     H14457   5.441   4.542   3.233 -1.5378  1.7117  3.1059
  110MOL0     H14458   5.446   4.451   3.381  0.0494 -1.8401 -0.0321
  110MOL0     H14459   5.231   4.559   3.339  0.0120  1.4074 -1.3950
  110MOL0     H14460   5.215   4.385   3.365  0.8337  0.5872  0.0357
  110MOL0     H14461   5.074   4.438   3.164 -0.4038 -2.8181 -2.3434
  110MOL0     H14462   5.216   4.360   3.107 -2.3350 -0.4971  0.4403
  110MOL0     H14463   5.170   4.662   3.127 -2.8153 -2.6555  3.0531
  110MOL0     H14464   5.316   4.588   3.042 -0.4002 -0.1379  0.5278
  110MOL0     H14465   5.137   4.674   2.888  1.3909  0.9593  2.2574
  110MOL0     H14466   5.025   4.559   2.963 -0.9767  1.3245 -2.8625
  110MOL0     H14467   5.192   4.375   2.882 -1.1272  0.2625 -0.7895
  110MOL0     H14468   5.297   4.491   2.811 -0.6717  0.3613 -2.2540
  110MOL0     H14469   5.058   4.567   2.700 -0.8610  0.1724  1.4849
  110MOL0     H14470   5.153   4.444   2.629 -0.7084  3.8311 -0.6466
  110MOL0     H14471   4.936   4.356   2.828 -2.0021 -1.0165 -1.4053
  110MOL0     H14472   5.035   4.261   2.720  1.5423 -0.2020  1.8550
  110MOL0     H14473   4.715   4.513   2.715  2.6256  1.1091  0.4266
  110MOL0     H14474   4.519   4.515   2.551  1.9218 -0.0256  1.2466
  110MOL0     H14475   4.558   4.480   2.377 -3.9871  0.3643  0.3741
  110MOL0     H14476   4.667   4.690   2.343 -0.5517  1.3172  0.3356
  110MOL0     H14477   4.666   4.727   2.514  1.2703 -0.1507  0.0828
  110MOL0     H14478   4.428   4.746   2.502  1.6795  0.1839  0.6349
  110MOL0     H14479   4.503   4.855   2.395 -0.2281  0.2515 -0.7479
  110MOL0     H14480   4.466   4.646   2.211  1.2629 -0.0692  1.2657
  110MOL0     H14481   4.358   4.779   2.232 -3.8449 -1.8849  1.0588
  110MOL0     H14482   4.173   4.820   2.259 -0.9914  0.0535  1.0060
  110MOL0     H14483   3.947   4.839   2.225  2.6959  0.3372 -1.5433
  110MOL0     H14484   3.523   4.805   2.439 -2.3964  1.6713  6.0703
  110MOL0     H14485   3.307   4.816   2.498  0.0502 -0.0199  0.9268
  110MOL0     H14486   3.082   4.749   2.299  0.0583  0.3241  1.4488
  110MOL0     H14487   2.958   4.742   2.424  1.7295 -0.1346  1.8093
  110MOL0     H14488   3.016   4.516   2.239 -1.3496 -0.9685 -0.0233
  110MOL0     H14489   2.870   4.621   2.227  1.1084  0.4939 -0.3092
  110MOL0     H14490   2.826   4.533   2.477 -3.0970 -2.8622 -1.6821
  110MOL0     H14491   2.972   4.444   2.457 -0.5755 -0.5258  0.3168
  110MOL0     H14492   2.741   4.407   2.255  2.0948 -0.4333 -0.9887
  110MOL0     H14493   2.866   4.294   2.298 -1.6481 -1.1545 -0.3825
  110MOL0     H14494   2.669   4.373   2.502 -0.6244 -2.0333 -0.2632
  110MOL0     H14495   2.814   4.265   2.517  1.1671  2.7558  1.0108
  110MOL0     H14496   2.695   4.122   2.342 -3.6194 -3.0466  0.6757
  110MOL0     H14497   2.563   4.236   2.323 -0.3916 -2.0005 -0.0719
  110MOL0     H14498   2.644   4.105   2.580 -0.9228 -5.1046 -0.2677
  110MOL0     H14499   2.507   4.206   2.564  3.2427 -0.6031  4.5606
  110MOL0     H14500   2.429   3.971   2.564 -3.4013  1.6301 -0.5215
  110MOL0     H14501   2.547   3.934   2.431  2.6799  1.7044  1.2531
  110MOL0     H14502   3.239   4.407   2.392 -0.9342  0.3111  1.0163
  110MOL0     H14503   3.480   4.388   2.356 -0.1727 -0.9912 -1.2524
  110MOL0     H14504   3.878   4.463   2.410  0.0774 -0.4175 -0.2072
  110MOL0     H14505   4.129   4.417   2.414 -0.1272 -0.6747 -1.1177
  110MOL0     H14506   5.553   4.222   3.027 -1.1868 -0.2678  0.8042
  110MOL0     H14507   5.804   4.156   3.007  1.4156  1.0803 -0.0170
  110MOL0     H14508   6.284   4.325   2.917 -2.3586 -0.1711  0.7027
  110MOL0     H14509   6.515   4.277   2.953  1.7108  0.0663  0.7215
  110MOL0     H14510   6.692   4.301   3.071  1.5980  1.1633  0.1784
  110MOL0     H14511   6.734   4.159   2.976 -2.9648  0.6664 -0.2414
  110MOL0     H14512   6.934   4.247   3.110 -0.0266  0.1000 -0.3431
  110MOL0     H14513   6.866   4.201   3.262  4.0647 -0.2642 -0.3808
  110MOL0     H14514   6.862   3.969   3.197 -1.6817  0.9175  0.7331
  110MOL0     H14515   7.009   4.056   3.243  0.3444 -0.1427 -0.2947
  110MOL0     H14516   7.059   3.908   3.053  0.2508 -0.1420  0.5831
  110MOL0     H14517   6.917   3.954   2.964  0.4069 -0.0670 -0.0727
  110MOL0     H14518   7.203   4.259   2.857  0.7051  0.0291  0.4540
  110MOL0     H14519   6.424   4.050   3.311 -0.4124  1.9476  1.8480
  110MOL0     H14520   6.204   4.096   3.284  2.2794 -3.2465  0.1018
  111MOL0     O14521   5.901   7.101   5.630  0.5663 -0.2744 -0.3303
  111MOL0     C14522   5.982   7.178   5.576 -0.1059 -0.1103  1.0735
  111MOL0     O14523   5.960   7.270   5.466 -0.2961  0.2836  0.0619
  111MOL0     C14524   5.839   7.267   5.402 -0.2685 -0.3271  0.5249
  111MOL0     C14525   5.717   7.260   5.465 -0.7460 -0.7017  0.2762
  111MOL0     C14526   5.605   7.273   5.395  0.0214 -0.0165  0.4018
  111MOL0     C14527   5.607   7.285   5.254  0.0423 -0.6213  0.2865
  111MOL0     O14528   5.502   7.318   5.172 -0.5285  0.1466 -0.0509
  111MOL0     C14529   5.393   7.381   5.234 -0.2010 -0.8226  0.2124
  111MOL0     C14530   5.307   7.410   5.115 -0.0271  0.1606 -0.9595
  111MOL0     C14531   5.189   7.492   5.152  0.8382  0.0630 -0.0918
  111MOL0     C14532   5.114   7.535   5.031 -0.5046  0.0735 -0.3992
  111MOL0     C14533   4.985   7.611   5.054  1.3144 -0.1794 -0.1544
  111MOL0     C14534   4.917   7.672   4.930 -0.4675  0.2552  0.0353
  111MOL0     C14535   4.819   7.774   4.968  0.7515 -0.0242 -0.0150
  111MOL0     C14536   4.689   7.731   5.042 -0.2493 -0.7259 -0.0462
  111MOL0     N14537   4.600   7.846   5.076  0.4234  0.7892  0.0813
  111MOL0     C14538   4.545   7.937   4.993  0.0668  0.0939  0.9644
  111MOL0     C14539   4.439   7.996   5.052  0.3411 -0.2271  0.4187
  111MOL0     C14540   4.338   8.092   4.996  0.2613  0.5822 -0.4925
  111MOL0     C14541   4.192   8.061   5.023 -0.1681 -0.3476  0.8029
  111MOL0     C14542   4.153   7.931   4.936  0.4557 -1.0425 -0.1149
  111MOL0     C14543   4.006   7.931   4.904 -0.2644 -1.0273 -0.0433
  111MOL0     O14544   3.930   7.926   5.033  0.1151 -0.2923 -0.3583
  111MOL0     C14545   3.790   7.943   5.036  0.1922 -0.8930  0.4666
  111MOL0     C14546   3.726   7.984   5.156  0.6421 -0.3435  0.2670
  111MOL0     C14547   3.589   7.995   5.156  0.2783  0.4342  0.0411
  111MOL0     C14548   3.504   7.958   5.052  0.5978  0.6392 -0.5389
  111MOL0     C14549   3.364   7.978   5.064  0.6134  0.5631  0.4782
  111MOL0     O14550   3.287   7.992   4.949 -0.2562  0.3644  0.3483
  111MOL0     C14551   3.158   8.042   4.957 -0.0474 -0.4481  0.8034
  111MOL0     C14552   3.129   8.169   5.019 -0.6208  0.2733 -0.2862
  111MOL0     C14553   3.008   8.229   5.000 -0.2327  0.7518  0.9865
  111MOL0     C14554   2.907   8.170   4.919 -0.3053 -0.2247 -0.0932
  111MOL0     O14555   2.789   8.236   4.904  0.2220 -0.3746 -0.6220
  111MOL0     C14556   2.673   8.193   4.829 -0.7581  0.5467 -0.8867
  111MOL0     C14557   2.582   8.320   4.830  0.1709  0.1711 -0.5818
  111MOL0     C14558   2.451   8.272   4.764 -0.0201 -0.0040  0.1411
  111MOL0     C14559   2.465   8.195   4.636  0.8402  0.0257  0.3689
  111MOL0     C14560   2.337   8.189   4.560 -0.0667  0.0605  0.3070
  111MOL0     C14561   2.241   8.078   4.601  0.0846  0.1925 -0.4393
  111MOL0     C14562   2.119   8.078   4.513  0.8779  0.2174  0.7507
  111MOL0     C14563   2.009   7.996   4.574 -0.1964  0.1924 -0.6062
  111MOL0    Cl14564   1.864   8.031   4.480 -0.2667  0.1585 -0.0515
  111MOL0     C14565   2.929   8.043   4.877  1.1391 -0.0717  0.6007
  111MOL0     C14566   3.048   7.984   4.894 -0.6578  0.6705 -0.2165
  111MOL0     O14567   3.321   8.006   5.174 -0.8714 -0.5297  0.7482
  111MOL0     C14568   3.563   7.906   4.935 -0.1979  0.2235 -0.4617
  111MOL0     C14569   3.711   7.910   4.922  0.6181  0.2096 -0.5363
  111MOL0     N14570   4.445   7.960   5.186  0.7050 -0.0764 -0.3624
  111MOL0     N14571   4.540   7.865   5.198 -0.2239  0.0132 -1.2161
  111MOL0     C14572   5.727   7.279   5.184 -0.1439 -0.0585  0.6693
  111MOL0     C14573   5.844   7.276   5.262  0.2833  0.4073  0.3497
  111MOL0     C14574   6.121   7.181   5.627 -0.0320  0.5221  0.1833
  111MOL0     C14575   6.147   7.168   5.758  0.0428  0.3829 -0.8182
  111MOL0     C14576   6.276   7.159   5.808 -0.3048 -0.3733 -0.7124
  111MOL0     C14577   6.391   7.195   5.733  0.5446  0.0558  0.7659
  111MOL0     O14578   6.522   7.198   5.777 -1.0498  0.0694  0.1055
  111MOL0     C14579   6.557   7.157   5.912 -0.6391 -0.3268  0.9973
  111MOL0     C14580   6.708   7.138   5.924 -0.8610  0.5185  1.0948
  111MOL0     C14581   6.789   7.264   5.893  0.3779 -0.0071 -0.4454
  111MOL0     C14582   6.934   7.237   5.890 -0.1387 -0.5467  0.5269
  111MOL0     C14583   7.027   7.350   5.884 -0.3497  0.3427  0.0235
  111MOL0     C14584   7.107   7.438   5.892  0.6400 -0.7450  0.4276
  111MOL0     C14585   6.368   7.211   5.594  0.1722  0.9134  0.0188
  111MOL0     C14586   6.232   7.211   5.545 -1.1114 -0.4955 -0.1743
  111MOL0     H14587   5.709   7.240   5.571  0.3271  0.3141  0.5759
  111MOL0     H14588   5.513   7.269   5.453  1.0226 -2.3689  2.0061
  111MOL0     H14589   5.430   7.474   5.278 -3.4363  0.9604 -0.4802
  111MOL0     H14590   5.344   7.330   5.318  0.3782 -2.3985 -0.3773
  111MOL0     H14591   5.268   7.319   5.069  3.2718 -0.6648 -2.4545
  111MOL0     H14592   5.364   7.456   5.033 -0.4564 -0.0325 -1.3768
  111MOL0     H14593   5.214   7.586   5.202  2.2544 -0.5818  0.4492
  111MOL0     H14594   5.112   7.444   5.212 -0.4562  2.9607  0.7756
  111MOL0     H14595   5.191   7.601   4.989 -1.7838  0.6720 -1.8988
  111MOL0     H14596   5.091   7.454   4.961  1.6097 -0.4365 -0.5851
  111MOL0     H14597   5.020   7.698   5.110  1.7684  0.1991 -1.0083
  111MOL0     H14598   4.910   7.554   5.108  1.2333 -1.8662 -1.9325
  111MOL0     H14599   4.858   7.601   4.871 -1.2462  0.5828  0.3960
  111MOL0     H14600   4.996   7.715   4.868  1.0863 -1.6778  0.5848
  111MOL0     H14601   4.866   7.846   5.035 -2.6287  1.3829  1.0433
  111MOL0     H14602   4.803   7.825   4.872 -0.0579 -3.1985 -1.7229
  111MOL0     H14603   4.708   7.667   5.129 -3.1769 -1.1211  0.3952
  111MOL0     H14604   4.627   7.680   4.967  1.4584  1.6259 -3.3098
  111MOL0     H14605   4.562   7.940   4.886 -0.6238 -2.1683  0.7430
  111MOL0     H14606   4.345   8.093   4.887 -1.3194  0.9205 -0.6130
  111MOL0     H14607   4.375   8.188   5.035 -0.0323 -0.0881  1.5135
  111MOL0     H14608   4.127   8.143   4.990 -2.0587 -1.0875  2.4325
  111MOL0     H14609   4.163   8.040   5.126 -2.5856 -2.9855 -0.2460
  111MOL0     H14610   4.216   7.919   4.847 -1.9130  1.1177 -2.2542
  111MOL0     H14611   4.163   7.850   5.009 -1.6049  0.3887  1.9111
  111MOL0     H14612   3.986   7.849   4.836 -0.5934 -1.4012  0.4931
  111MOL0     H14613   3.989   8.028   4.857  2.0144 -1.7948 -2.6947
  111MOL0     H14614   3.795   8.024   5.230 -1.7884  1.0749  1.9282
  111MOL0     H14615   3.543   8.048   5.239  0.2771  1.8174 -0.8093
  111MOL0     H14616   3.204   8.223   5.077 -2.6586 -0.9330  3.8050
  111MOL0     H14617   2.983   8.321   5.053  1.6383 -0.1881  3.7618
  111MOL0     H14618   2.630   8.115   4.894  2.9190 -0.2934  0.7729
  111MOL0     H14619   2.703   8.158   4.730 -0.8666  2.4501 -1.6387
  111MOL0     H14620   2.633   8.396   4.770  1.1483 -1.7346 -2.3352
  111MOL0     H14621   2.563   8.363   4.929 -0.6563 -1.5113  0.0346
  111MOL0     H14622   2.399   8.366   4.744  0.9670  0.4974 -0.1238
  111MOL0     H14623   2.388   8.209   4.827 -1.1950  0.0997 -0.8960
  111MOL0     H14624   2.541   8.244   4.575  1.3666 -0.9432  0.2200
  111MOL0     H14625   2.502   8.094   4.657 -1.2055 -1.2383 -1.7180
  111MOL0     H14626   2.369   8.157   4.461 -0.5078 -0.9702  0.4816
  111MOL0     H14627   2.295   8.289   4.555  0.6836  0.4305  1.0920
  111MOL0     H14628   2.203   8.109   4.699 -0.7911 -1.3353 -0.2623
  111MOL0     H14629   2.285   7.978   4.600 -1.3831 -0.4811 -1.0801
  111MOL0     H14630   2.087   8.179   4.485 -1.6367 -1.2617 -2.3680
  111MOL0     H14631   2.149   8.023   4.424 -1.2208  0.1262  0.0669
  111MOL0     H14632   1.993   8.018   4.680  2.9201  3.1061 -0.5595
  111MOL0     H14633   2.039   7.893   4.551 -2.2330 -0.3940 -0.8551
  111MOL0     H14634   2.852   7.999   4.814 -1.6620  2.8842  1.6763
  111MOL0     H14635   3.046   7.886   4.847  0.1189  1.4186 -1.9018
  111MOL0     H14636   3.504   7.854   4.860  1.5105  0.4184 -2.0187
  111MOL0     H14637   3.757   7.872   4.831  1.9422  2.2478 -0.7675
  111MOL0     H14638   5.721   7.289   5.076  1.8612 -0.2150  0.5194
  111MOL0     H14639   5.940   7.286   5.212 -0.5331  5.8935 -0.8128
  111MOL0     H14640   6.066   7.149   5.828  0.3281  1.2166 -0.2497
  111MOL0     H14641   6.270   7.134   5.914 -0.5941 -1.0017 -0.8736
  111MOL0     H14642   6.512   7.066   5.953  0.1248 -1.7604 -1.1470
  111MOL0     H14643   6.520   7.233   5.981 -1.3359 -0.7042  1.0460
  111MOL0     H14644   6.733   7.108   6.026 -2.2524  3.3378  2.4080
  111MOL0     H14645   6.731   7.065   5.847 -0.4428  4.4600 -2.9513
  111MOL0     H14646   6.772   7.340   5.970  2.5558  0.3281 -0.2198
  111MOL0     H14647   6.748   7.308   5.801  1.2763  0.0591 -0.8227
  111MOL0     H14648   6.971   7.181   5.976  1.4516  0.0204  0.2510
  111MOL0     H14649   6.943   7.166   5.808 -2.5758 -0.7524  0.3572
  111MOL0     H14650   7.180   7.515   5.905  0.7737 -0.6998 -0.4976
  111MOL0     H14651   6.452   7.215   5.525 -0.1821  0.0732 -0.4850
  111MOL0     H14652   6.210   7.237   5.441 -0.6712  0.2283 -0.0945
  112MOL0     O14653   7.450   5.205   9.735 -0.2512  0.9153 -0.2442
  112MOL0     C14654   7.519   5.109   9.692 -0.1588 -1.0535  0.1275
  112MOL0     O14655   7.489   5.043   9.574  0.1496  0.0318  0.1457
  112MOL0     C14656   7.370   5.051   9.508  0.7290 -0.4013  0.2040
  112MOL0     C14657   7.383   5.043   9.368 -0.0930 -1.1006  0.0813
  112MOL0     C14658   7.273   5.058   9.285  1.3358 -0.1923 -0.5217
  112MOL0     C14659   7.143   5.085   9.347  0.1123  0.0861  0.5606
  112MOL0     O14660   7.036   5.103   9.259  1.0388  0.0834  0.1332
  112MOL0     C14661   7.019   5.044   9.128  0.7955 -0.1824  0.2238
  112MOL0     C14662   6.875   5.069   9.073 -0.1270  0.2003 -0.6737
  112MOL0     C14663   6.776   4.972   9.144 -0.9133  0.4678  0.0126
  112MOL0     C14664   6.644   4.954   9.067  0.5247  0.4725  0.5128
  112MOL0     C14665   6.588   5.092   9.027 -0.4905 -0.2217  0.5340
  112MOL0     C14666   6.458   5.088   8.943 -0.5984  0.6225  0.2819
  112MOL0     C14667   6.391   5.220   8.936  0.8502  0.4310 -0.0489
  112MOL0     C14668   6.282   5.214   8.834 -0.1224  0.5003  0.3225
  112MOL0     N14669   6.194   5.329   8.846  0.5515  0.0561  0.6234
  112MOL0     C14670   6.084   5.340   8.930  0.2830 -0.4960 -0.1915
  112MOL0     C14671   6.024   5.454   8.888 -0.1551  0.0370  0.9937
  112MOL0     C14672   5.890   5.510   8.933 -0.4688 -0.8448 -0.8235
  112MOL0     C14673   5.789   5.515   8.820 -0.5413  1.0837  0.2703
  112MOL0     C14674   5.722   5.371   8.796  0.0098  1.0269 -0.5878
  112MOL0     C14675   5.617   5.358   8.691  0.5551 -0.4021  0.4480
  112MOL0     O14676   5.496   5.306   8.729 -0.4056 -0.1682  0.0874
  112MOL0     C14677   5.396   5.386   8.771 -0.1010  0.1197 -0.3443
  112MOL0     C14678   5.273   5.317   8.800  0.4009  0.9149 -0.3270
  112MOL0     C14679   5.167   5.399   8.846 -0.2262  0.4592 -0.7441
  112MOL0     C14680   5.173   5.541   8.865 -0.4198  0.5284 -0.0378
  112MOL0     C14681   5.047   5.612   8.895 -0.5194 -1.4390  0.1140
  112MOL0     O14682   4.931   5.541   8.904  0.2882 -0.3918 -0.7120
  112MOL0     C14683   4.825   5.597   8.967  1.3742 -0.0221 -0.7222
  112MOL0     C14684   4.700   5.536   8.935 -1.5820 -0.3689 -0.1659
  112MOL0     C14685   4.578   5.571   8.995 -0.6854 -0.4433  0.1262
  112MOL0     C14686   4.577   5.669   9.095  0.3886 -0.4892 -0.2949
  112MOL0     O14687   4.473   5.712   9.170  0.6960  0.0659 -0.6197
  112MOL0     C14688   4.336   5.665   9.145  0.4924 -0.8470  0.5545
  112MOL0     C14689   4.306   5.534   9.220 -0.3140  0.1433  0.3897
  112MOL0     C14690   4.369   5.507   9.356 -0.3965  0.2163 -0.1819
  112MOL0     C14691   4.326   5.370   9.417 -0.1075 -0.0238  1.0612
  112MOL0     C14692   4.396   5.323   9.539 -0.1075 -0.1255  0.4848
  112MOL0     C14693   4.413   5.442   9.634 -0.2445 -0.6124  0.0377
  112MOL0     C14694   4.451   5.385   9.781 -0.4558  1.0060 -0.5948
  112MOL0     C14695   4.457   5.495   9.890  0.2437  0.0159  1.1219
  112MOL0    Cl14696   4.598   5.460   9.998  0.0262 -0.1481 -0.1874
  112MOL0     C14697   4.701   5.723   9.134  0.0565  0.3150  0.8299
  112MOL0     C14698   4.824   5.699   9.066  0.3530 -0.1395 -0.2300
  112MOL0     O14699   5.061   5.736   8.900 -0.2246 -1.2520  0.0609
  112MOL0     C14700   5.297   5.603   8.848  0.1845 -0.7292  0.1237
  112MOL0     C14701   5.402   5.527   8.794  0.5950 -0.3203  0.3175
  112MOL0     N14702   6.109   5.504   8.794  0.2450 -0.4566 -0.2491
  112MOL0     N14703   6.199   5.427   8.757 -0.7910 -0.0474 -0.2602
  112MOL0     C14704   7.135   5.081   9.486 -0.3192 -0.1349 -0.5057
  112MOL0     C14705   7.245   5.066   9.560  0.3027  0.4428  0.0171
  112MOL0     C14706   7.637   5.067   9.767 -0.0418 -0.5148  0.3964
  112MOL0     C14707   7.668   5.126   9.888 -0.0392  0.8686  0.4429
  112MOL0     C14708   7.788   5.088   9.954  1.1760  0.4191  0.4540
  112MOL0     C14709   7.872   4.988   9.897  0.7635 -0.4001 -0.5004
  112MOL0     O14710   7.985   4.957   9.969  0.1235  0.2660 -0.2560
  112MOL0     C14711   7.994   4.893  10.099 -0.2095  0.4075  0.2199
  112MOL0     C14712   8.134   4.838  10.107 -0.2922  1.0258  0.3056
  112MOL0     C14713   8.225   4.956  10.128  0.3520  0.0028 -0.4932
  112MOL0     C14714   8.369   4.907  10.151 -0.7207 -0.1981 -0.0463
  112MOL0     C14715   8.479   5.006  10.158 -0.7039  0.0163 -0.1772
  112MOL0     C14716   8.563   5.096  10.174  0.6504  0.0953 -0.0834
  112MOL0     C14717   7.843   4.937   9.774 -0.9888 -0.7552 -0.1405
  112MOL0     C14718   7.730   4.987   9.700  0.3736  0.8013  0.5663
  112MOL0     H14719   7.479   5.013   9.328  0.7054 -0.9507  1.7791
  112MOL0     H14720   7.272   5.045   9.177 -4.7313 -1.1979 -0.7150
  112MOL0     H14721   7.044   4.938   9.125  2.3125  0.1398  0.5362
  112MOL0     H14722   7.093   5.095   9.065  1.6381  0.0976  1.4101
  112MOL0     H14723   6.881   5.046   8.967 -1.2340 -0.1356 -0.6757
  112MOL0     H14724   6.833   5.169   9.087 -1.8808 -0.4850 -0.7402
  112MOL0     H14725   6.762   4.994   9.251 -1.9633 -2.0272  0.4673
  112MOL0     H14726   6.827   4.875   9.152  1.2495  1.4646 -0.8659
  112MOL0     H14727   6.665   4.900   8.974  0.0519 -1.1618  1.3195
  112MOL0     H14728   6.569   4.899   9.124  0.2595 -1.1623 -1.2705
  112MOL0     H14729   6.660   5.152   8.971  0.5770 -1.1053  0.9116
  112MOL0     H14730   6.559   5.152   9.114 -3.7875  0.0751 -0.6183
  112MOL0     H14731   6.394   5.018   8.999 -0.3515 -2.3892 -2.8819
  112MOL0     H14732   6.481   5.044   8.846  0.6186 -2.4940  1.8375
  112MOL0     H14733   6.337   5.244   9.028  1.0229  1.9242 -0.3186
  112MOL0     H14734   6.459   5.300   8.907  0.7387 -0.4278 -3.0223
  112MOL0     H14735   6.228   5.122   8.856 -0.8805 -0.1114 -3.3841
  112MOL0     H14736   6.321   5.197   8.733  0.2532 -2.8997  0.9398
  112MOL0     H14737   6.054   5.284   9.018 -0.5166 -1.9003 -1.3150
  112MOL0     H14738   5.912   5.614   8.959  1.3996 -0.8639 -2.1357
  112MOL0     H14739   5.856   5.468   9.028  0.8487 -4.2292 -1.7162
  112MOL0     H14740   5.832   5.552   8.727  1.0953 -1.6897 -0.1595
  112MOL0     H14741   5.709   5.587   8.845 -0.4630  1.3827 -0.3249
  112MOL0     H14742   5.796   5.292   8.781 -1.3577 -0.2515 -0.9604
  112MOL0     H14743   5.677   5.348   8.894  2.1231  0.2664  0.2696
  112MOL0     H14744   5.653   5.294   8.609 -1.4551 -1.5457  0.3848
  112MOL0     H14745   5.613   5.454   8.638  1.0505 -1.1407 -0.9667
  112MOL0     H14746   5.259   5.213   8.773 -1.0278  1.3152 -1.2285
  112MOL0     H14747   5.073   5.356   8.878  1.3205 -0.6118  2.8248
  112MOL0     H14748   4.702   5.457   8.861  1.3055 -0.2694 -0.3347
  112MOL0     H14749   4.489   5.530   8.947  0.3113 -0.0499 -2.2092
  112MOL0     H14750   4.313   5.653   9.039 -0.3187  1.3465  0.4389
  112MOL0     H14751   4.269   5.737   9.191 -0.2518  0.2265 -2.0622
  112MOL0     H14752   4.342   5.451   9.157  0.5522  0.9817 -0.2490
  112MOL0     H14753   4.198   5.523   9.232 -0.4424  0.1440 -0.6787
  112MOL0     H14754   4.344   5.591   9.421  0.4868 -0.1697  0.6767
  112MOL0     H14755   4.479   5.502   9.358 -0.4474 -0.6564  1.8047
  112MOL0     H14756   4.218   5.374   9.431 -0.5768 -2.4723 -1.0765
  112MOL0     H14757   4.334   5.294   9.339  0.9892  0.9204  0.2186
  112MOL0     H14758   4.498   5.290   9.520  0.9698  2.6067  1.0870
  112MOL0     H14759   4.338   5.244   9.588  0.6230 -0.6878  0.4631
  112MOL0     H14760   4.321   5.501   9.640  1.2894  1.9803 -0.3707
  112MOL0     H14761   4.487   5.510   9.591 -1.4574 -1.1506 -3.1410
  112MOL0     H14762   4.377   5.309   9.809  0.6765 -0.5358 -1.6540
  112MOL0     H14763   4.546   5.333   9.770 -1.2038 -0.4095 -0.6500
  112MOL0     H14764   4.364   5.498   9.947  0.4424  0.2293  1.4377
  112MOL0     H14765   4.484   5.593   9.848 -0.5080 -0.2469 -0.0336
  112MOL0     H14766   4.699   5.797   9.213  0.7936  1.3271 -0.0685
  112MOL0     H14767   4.918   5.739   9.104 -0.0959  1.1677 -0.4581
  112MOL0     H14768   5.317   5.709   8.853  1.3059 -0.8733 -0.7659
  112MOL0     H14769   5.489   5.585   8.767  0.8924 -0.4318  1.0088
  112MOL0     H14770   7.030   5.097   9.512 -0.1982 -0.9881  0.5739
  112MOL0     H14771   7.235   5.058   9.668 -1.0226 -1.0531 -0.1748
  112MOL0     H14772   7.605   5.202   9.935 -0.4573  0.2240  0.9486
  112MOL0     H14773   7.798   5.134  10.052  0.2801 -1.3051  1.3931
  112MOL0     H14774   7.923   4.810  10.095 -0.1891  0.4155 -0.5555
  112MOL0     H14775   7.963   4.943  10.191 -0.2722 -1.4426  1.2348
  112MOL0     H14776   8.155   4.766  10.187 -3.0052  1.2383  1.3270
  112MOL0     H14777   8.154   4.776  10.019 -2.0301 -0.5451  0.9554
  112MOL0     H14778   8.193   5.020  10.211  1.5649  1.5502 -1.1683
  112MOL0     H14779   8.213   5.013  10.036 -1.5197  1.2315  0.4597
  112MOL0     H14780   8.372   4.860  10.250 -0.6793 -3.0148 -1.3147
  112MOL0     H14781   8.394   4.833  10.075 -2.7253 -0.4031 -0.5588
  112MOL0     H14782   8.630   5.175  10.203 -0.9957  1.4195  0.2473
  112MOL0     H14783   7.920   4.876   9.727  2.6280  3.2330 -0.0184
  112MOL0     H14784   7.709   4.950   9.600 -2.0547  2.5288  0.3580
  113MOL0     O14785   9.285   8.664   6.002 -0.5156  0.1162  0.1258
  113MOL0     C14786   9.281   8.547   5.958 -0.1703 -0.6775 -0.3001
  113MOL0     O14787   9.175   8.482   5.902  0.1477 -0.2952 -0.0256
  113MOL0     C14788   9.048   8.521   5.905  0.5731 -0.3945 -0.2522
  113MOL0     C14789   8.990   8.640   5.955 -0.5942  1.4471  0.1534
  113MOL0     C14790   8.857   8.658   5.966  0.0143 -1.2296 -0.2706
  113MOL0     C14791   8.766   8.558   5.910 -0.1908 -0.7950  0.3373
  113MOL0     O14792   8.624   8.563   5.921 -0.3319  0.7022 -0.1450
  113MOL0     C14793   8.573   8.686   5.981  1.3879 -0.2177 -0.3161
  113MOL0     C14794   8.417   8.670   5.984  0.9071 -0.1457 -0.0144
  113MOL0     C14795   8.339   8.806   6.014  0.9580 -0.9279 -0.3781
  113MOL0     C14796   8.186   8.782   6.011 -0.2822  0.8174 -0.5507
  113MOL0     C14797   8.118   8.910   6.056 -0.0735  0.1584 -0.4239
  113MOL0     C14798   7.967   8.879   6.063  0.2777  0.0795 -0.3696
  113MOL0     C14799   7.910   8.813   5.940  0.0721  0.1064  0.3754
  113MOL0     C14800   7.930   8.894   5.807  0.2868 -0.1857  0.4919
  113MOL0     N14801   7.854   8.836   5.695  0.3131  0.3554 -0.1158
  113MOL0     C14802   7.729   8.870   5.666 -0.2227 -0.7396  0.3173
  113MOL0     C14803   7.694   8.815   5.545 -0.0593  0.3471 -0.0840
  113MOL0     C14804   7.552   8.816   5.484  0.4701 -0.1697  0.0197
  113MOL0     C14805   7.457   8.737   5.568  0.0694  0.1507 -0.7930
  113MOL0     C14806   7.319   8.748   5.506 -0.0406  0.2479  0.6602
  113MOL0     C14807   7.216   8.650   5.553 -1.0190  0.1343 -1.4399
  113MOL0     O14808   7.093   8.652   5.469 -0.1993 -0.1406 -0.4468
  113MOL0     C14809   6.988   8.683   5.550 -0.2381  0.3181  0.2368
  113MOL0     C14810   6.930   8.801   5.520  0.5924 -0.9365  0.1051
  113MOL0     C14811   6.798   8.835   5.560 -0.0706 -0.6378 -0.8053
  113MOL0     C14812   6.730   8.747   5.645 -1.3325 -0.8400 -0.0720
  113MOL0     C14813   6.593   8.786   5.700 -0.5817  0.5640  0.0041
  113MOL0     O14814   6.534   8.890   5.633  0.0171 -0.1042 -0.5544
  113MOL0     C14815   6.408   8.925   5.664  0.7315 -0.1011 -0.1821
  113MOL0     C14816   6.373   9.047   5.708  0.1218 -0.4583 -0.8674
  113MOL0     C14817   6.236   9.077   5.750  0.0107 -0.0902  0.5193
  113MOL0     C14818   6.136   8.978   5.734  1.0701 -0.6842 -0.7982
  113MOL0     O14819   6.006   8.984   5.786  0.3853  0.2082  0.3832
  113MOL0     C14820   5.977   9.098   5.858 -0.1516 -0.0393 -0.3820
  113MOL0     C14821   5.837   9.065   5.916  0.0831  0.3500 -0.8270
  113MOL0     C14822   5.773   9.182   5.986 -0.4897 -0.5612 -0.3961
  113MOL0     C14823   5.630   9.143   6.039 -0.2544 -0.0861  0.4224
  113MOL0     C14824   5.545   9.265   6.081 -0.6342  0.2550 -0.3966
  113MOL0     C14825   5.411   9.229   6.142  0.0448  0.1994  0.4980
  113MOL0     C14826   5.324   9.353   6.174 -0.2295  0.1928 -0.6908
  113MOL0     C14827   5.188   9.321   6.230  0.6093  0.0342 -0.6808
  113MOL0    Cl14828   5.099   9.291   6.091 -0.0700  0.0115  0.3696
  113MOL0     C14829   6.164   8.858   5.669  0.1260 -0.3080 -0.9069
  113MOL0     C14830   6.301   8.831   5.648 -0.1228  0.2058 -0.9700
  113MOL0     O14831   6.550   8.720   5.799 -0.8095 -0.3886  0.8733
  113MOL0     C14832   6.796   8.627   5.669 -0.7644 -0.2626 -0.1727
  113MOL0     C14833   6.925   8.588   5.624  0.1249 -0.0320  0.3441
  113MOL0     N14834   7.808   8.750   5.498 -1.3132 -0.6795 -0.2644
  113MOL0     N14835   7.905   8.777   5.590  0.9175  0.2491 -0.6803
  113MOL0     C14836   8.830   8.440   5.849  0.3324 -0.0468  0.6438
  113MOL0     C14837   8.963   8.426   5.842 -0.6091 -0.7967  0.1304
  113MOL0     C14838   9.408   8.478   5.971 -0.6023  0.0299 -0.9084
  113MOL0     C14839   9.415   8.346   5.915  0.1361  0.0652 -0.0243
  113MOL0     C14840   9.524   8.267   5.946 -0.7698 -0.1421  0.0940
  113MOL0     C14841   9.635   8.312   6.025  0.7301 -1.1363 -0.6211
  113MOL0     O14842   9.745   8.235   6.046  0.3127  0.2846 -0.9676
  113MOL0     C14843   9.763   8.194   6.186 -0.0379  0.3727  0.2853
  113MOL0     C14844   9.847   8.068   6.201  0.1536  0.8177  0.4063
  113MOL0     C14845   9.855   8.014   6.344 -0.4781  0.1024  0.2984
  113MOL0     C14846   9.985   8.053   6.407  0.7543  0.1521 -0.3889
  113MOL0     C14847  10.003   8.002   6.543 -0.0996 -0.6148  0.3745
  113MOL0     C14848  10.018   7.960   6.653 -1.7496  0.7523 -0.7058
  113MOL0     C14849   9.622   8.441   6.085  0.2328  0.4356 -0.3905
  113MOL0     C14850   9.518   8.527   6.048 -0.0001 -0.6056 -0.6918
  113MOL0     H14851   9.065   8.718   5.967  2.2061 -0.9991 -0.1822
  113MOL0     H14852   8.809   8.749   5.999 -1.1842 -0.9902 -2.4945
  113MOL0     H14853   8.601   8.771   5.918 -0.4579  0.4578 -0.3054
  113MOL0     H14854   8.617   8.695   6.080 -0.4290 -0.6114  0.5765
  113MOL0     H14855   8.392   8.595   6.060  1.6354 -1.7772 -1.3214
  113MOL0     H14856   8.393   8.633   5.884 -1.7393  0.1326  0.4514
  113MOL0     H14857   8.355   8.884   5.939  0.2723  1.8382  2.1267
  113MOL0     H14858   8.382   8.838   6.110 -3.8644  0.4909  1.6236
  113MOL0     H14859   8.160   8.749   5.910  1.7057  0.6536 -1.0583
  113MOL0     H14860   8.169   8.701   6.082 -0.0217  0.8734 -0.4220
  113MOL0     H14861   8.147   8.991   5.988 -2.1858  0.2289 -1.3023
  113MOL0     H14862   8.155   8.939   6.155 -1.9562  1.3901 -0.0289
  113MOL0     H14863   7.913   8.973   6.077 -1.2505 -0.6217 -1.2868
  113MOL0     H14864   7.935   8.821   6.150  0.3763  1.8009  0.8626
  113MOL0     H14865   7.936   8.707   5.931  1.3731  0.4787 -0.4789
  113MOL0     H14866   7.801   8.809   5.951 -0.5274 -1.1362 -3.9949
  113MOL0     H14867   8.037   8.897   5.783  0.7673 -0.2994  2.4380
  113MOL0     H14868   7.884   8.990   5.831 -1.5321  0.0372 -3.1204
  113MOL0     H14869   7.665   8.928   5.732 -0.6271 -0.1240 -0.5840
  113MOL0     H14870   7.563   8.785   5.380  0.9313  0.1731 -0.0362
  113MOL0     H14871   7.506   8.915   5.476 -1.3778 -1.0351 -0.7301
  113MOL0     H14872   7.451   8.772   5.672 -2.5430 -0.6602 -0.6166
  113MOL0     H14873   7.497   8.635   5.567  1.9392  0.8347 -0.6837
  113MOL0     H14874   7.287   8.850   5.529  0.9865  0.9939 -1.0151
  113MOL0     H14875   7.331   8.726   5.399  2.0204 -2.2177  1.3041
  113MOL0     H14876   7.193   8.670   5.658 -1.2326  1.8950 -1.7954
  113MOL0     H14877   7.259   8.550   5.545 -0.2043  0.3894 -0.4387
  113MOL0     H14878   6.968   8.888   5.466  0.4353  0.6089  2.3246
  113MOL0     H14879   6.753   8.932   5.542 -2.9457 -1.7100  0.0142
  113MOL0     H14880   6.463   9.105   5.725  2.8790 -4.2354 -1.2513
  113MOL0     H14881   6.214   9.179   5.779 -0.1892  1.6465 -4.8051
  113MOL0     H14882   5.976   9.189   5.799 -0.4923  0.4473  0.3608
  113MOL0     H14883   6.049   9.115   5.939 -0.6230 -0.1040  0.0578
  113MOL0     H14884   5.847   8.982   5.987 -0.8589  0.5232 -0.4726
  113MOL0     H14885   5.776   9.028   5.834  0.4121 -1.3442 -0.3479
  113MOL0     H14886   5.756   9.264   5.915 -2.7385 -2.0881 -1.7850
  113MOL0     H14887   5.836   9.225   6.064  0.7206  0.1841 -1.7298
  113MOL0     H14888   5.573   9.096   5.958 -0.6715 -2.4814  2.0355
  113MOL0     H14889   5.651   9.077   6.123  0.8184  1.5003  1.4398
  113MOL0     H14890   5.529   9.324   5.990  2.2407  0.7648 -0.6672
  113MOL0     H14891   5.605   9.321   6.153 -2.0190  1.6912 -0.2938
  113MOL0     H14892   5.434   9.170   6.231 -2.2079 -1.4807  0.0459
  113MOL0     H14893   5.361   9.169   6.065 -1.9713  0.5031  1.4949
  113MOL0     H14894   5.383   9.414   6.242  0.7757  1.3609 -2.5158
  113MOL0     H14895   5.307   9.414   6.085  1.7791  0.7582 -0.7408
  113MOL0     H14896   5.139   9.403   6.284 -1.1257 -0.5816 -1.2494
  113MOL0     H14897   5.186   9.236   6.298 -2.5474 -1.2161 -2.1170
  113MOL0     H14898   6.090   8.779   5.667  1.3961 -1.5767  0.0776
  113MOL0     H14899   6.320   8.730   5.616 -1.7136 -0.0063 -1.3440
  113MOL0     H14900   6.753   8.548   5.730  0.3190  0.5012  1.6610
  113MOL0     H14901   6.963   8.487   5.622 -0.1629 -0.2155  2.2870
  113MOL0     H14902   8.763   8.365   5.808 -0.9531  0.6838  1.3351
  113MOL0     H14903   9.000   8.340   5.787 -2.2635  0.0553 -2.4766
  113MOL0     H14904   9.337   8.309   5.849 -0.0356  0.7614 -0.2241
  113MOL0     H14905   9.535   8.170   5.898 -2.2087 -0.2785  0.0141
  113MOL0     H14906   9.668   8.181   6.238 -1.2013  0.5725 -1.6585
  113MOL0     H14907   9.816   8.271   6.243  0.9209  1.0768 -1.4710
  113MOL0     H14908   9.814   7.989   6.133 -1.6231  2.9971 -1.4172
  113MOL0     H14909   9.944   8.095   6.159  0.6299 -2.8315 -1.2454
  113MOL0     H14910   9.859   7.908   6.317  0.2354  1.0079 -3.8582
  113MOL0     H14911   9.767   8.029   6.407 -1.3442  1.6733 -1.2063
  113MOL0     H14912  10.062   8.008   6.343  1.8642  1.1498  0.1846
  113MOL0     H14913  10.004   8.159   6.427 -0.2811  0.5789 -1.5638
  113MOL0     H14914  10.021   7.926   6.755  4.2104  2.0150 -0.0967
  113MOL0     H14915   9.704   8.479   6.144  1.1373  3.4993 -3.3032
  113MOL0     H14916   9.518   8.620   6.104  3.6212 -0.8423 -0.0273
  114MOL0     O14917   6.335  10.459   6.901 -0.0888  0.5696 -0.6987
  114MOL0     C14918   6.367  10.339   6.877 -0.4158 -0.5146 -0.1060
  114MOL0     O14919   6.280  10.229   6.877 -0.4019 -0.9398  0.5858
  114MOL0     C14920   6.151  10.274   6.851 -0.4130 -0.0850  0.3104
  114MOL0     C14921   6.068  10.311   6.952 -0.2813  0.2257  0.0868
  114MOL0     C14922   5.943  10.356   6.916  0.0010 -0.5649  0.0247
  114MOL0     C14923   5.894  10.366   6.779 -0.4547  0.0598 -0.6127
  114MOL0     O14924   5.775  10.405   6.724 -0.4898 -0.4294 -0.1269
  114MOL0     C14925   5.690  10.465   6.820 -0.2118 -0.3375  0.2087
  114MOL0     C14926   5.567  10.519   6.746  0.4152 -0.5774  0.0665
  114MOL0     C14927   5.485  10.630   6.821 -1.0460  0.0740  0.2108
  114MOL0     C14928   5.364  10.662   6.724 -0.7776  0.3092  0.6029
  114MOL0     C14929   5.312  10.800   6.739 -0.3224 -0.5534 -0.5253
  114MOL0     C14930   5.292  10.864   6.879  0.3251  0.1528 -0.0836
  114MOL0     C14931   5.280  11.012   6.862  0.7159 -0.4430  0.4538
  114MOL0     C14932   5.317  11.099   6.989  0.7239  0.0832  0.3957
  114MOL0     N14933   5.239  11.084   7.114  0.4466  1.0852 -0.4272
  114MOL0     C14934   5.111  11.127   7.132  0.8143 -0.1138  0.6060
  114MOL0     C14935   5.056  11.057   7.236  0.6135  0.2617 -0.3632
  114MOL0     C14936   4.924  11.086   7.301 -0.6955 -0.0347 -0.1516
  114MOL0     C14937   4.804  11.064   7.211 -0.8699  0.1408 -0.0443
  114MOL0     C14938   4.817  10.934   7.130  0.4074  0.3508 -0.1645
  114MOL0     C14939   4.677  10.894   7.082  0.0985  0.4567  0.5025
  114MOL0     O14940   4.609  11.006   7.013 -0.2775  0.6546 -0.9108
  114MOL0     C14941   4.474  11.015   7.024 -0.3396 -0.5601 -0.0016
  114MOL0     C14942   4.409  11.142   6.990 -0.8322  0.3638  0.1108
  114MOL0     C14943   4.265  11.158   7.007 -1.2029  0.0458  0.4958
  114MOL0     C14944   4.187  11.058   7.061 -0.3177  0.2348  0.1335
  114MOL0     C14945   4.053  11.083   7.092  0.9532 -1.1396 -1.1561
  114MOL0     O14946   3.991  10.993   7.178 -0.6335  0.0743  0.2555
  114MOL0     C14947   3.864  11.042   7.215 -0.1344  0.2946  0.9211
  114MOL0     C14948   3.751  11.034   7.133  0.1561  0.3170 -0.4184
  114MOL0     C14949   3.624  11.072   7.184 -0.0481  0.4326 -0.3734
  114MOL0     C14950   3.604  11.118   7.318  0.2440 -0.2491  0.1349
  114MOL0     O14951   3.482  11.141   7.386  0.3284 -0.5417  0.5383
  114MOL0     C14952   3.372  11.161   7.291 -0.2255 -0.1111  0.6884
  114MOL0     C14953   3.275  11.048   7.267 -0.2044 -0.4288 -0.3522
  114MOL0     C14954   3.140  11.083   7.186  0.1768 -0.7602 -0.5463
  114MOL0     C14955   3.077  10.942   7.183 -0.1895  0.1475 -0.1639
  114MOL0     C14956   2.965  10.932   7.081  0.4602  0.2612 -0.5281
  114MOL0     C14957   2.932  10.784   7.068  0.8200  0.1958  0.7657
  114MOL0     C14958   2.808  10.751   6.976  0.1283 -0.0613  0.7439
  114MOL0     C14959   2.800  10.844   6.848  0.2121  0.6598 -0.8997
  114MOL0    Cl14960   2.947  10.812   6.746 -0.0400  0.3775  0.2944
  114MOL0     C14961   3.716  11.138   7.395 -0.7119 -0.2829 -0.2434
  114MOL0     C14962   3.841  11.103   7.340 -1.0313  0.2227  0.0051
  114MOL0     O14963   4.003  11.191   7.049 -0.0630  0.2127  0.2711
  114MOL0     C14964   4.252  10.937   7.090 -0.6847  0.4089  0.2973
  114MOL0     C14965   4.387  10.908   7.061  0.0515 -0.0313  0.0942
  114MOL0     N14966   5.140  10.957   7.280 -0.0347  0.1668  0.2055
  114MOL0     N14967   5.248  10.974   7.204  0.4236  0.2100  0.0673
  114MOL0     C14968   5.982  10.311   6.680 -0.9666 -0.5030 -1.0412
  114MOL0     C14969   6.101  10.257   6.716  0.5222  0.1978  0.2356
  114MOL0     C14970   6.511  10.314   6.846 -0.2427 -0.2844 -0.3191
  114MOL0     C14971   6.551  10.181   6.813 -0.1119 -0.5421 -0.1972
  114MOL0     C14972   6.684  10.155   6.766  0.6108 -0.6050 -0.1770
  114MOL0     C14973   6.780  10.257   6.753  0.1683  0.5809  0.1859
  114MOL0     O14974   6.909  10.230   6.704  0.7092  0.0489 -0.2911
  114MOL0     C14975   7.024  10.321   6.717  0.5308  0.0543 -0.1611
  114MOL0     C14976   7.155  10.244   6.687 -0.8620  0.3918  0.0962
  114MOL0     C14977   7.283  10.327   6.676  0.3729  0.8082  0.4675
  114MOL0     C14978   7.410  10.253   6.726  0.4394  0.6718  0.0321
  114MOL0     C14979   7.445  10.111   6.681 -0.2850  0.1269 -0.1397
  114MOL0     C14980   7.477   9.998   6.642  0.6627 -0.0107  0.1320
  114MOL0     C14981   6.741  10.388   6.801  0.4240 -0.1608  0.2447
  114MOL0     C14982   6.617  10.411   6.852  0.4603  0.2749  0.1039
  114MOL0     H14983   6.092  10.302   7.057  0.5012 -2.7280 -0.2433
  114MOL0     H14984   5.871  10.377   6.994 -0.5684 -4.0236  0.5935
  114MOL0     H14985   5.751  10.540   6.871  0.3764  1.8630 -3.3682
  114MOL0     H14986   5.654  10.388   6.889 -3.6950 -0.7107 -1.7552
  114MOL0     H14987   5.497  10.441   6.715 -1.7836  1.9727 -1.9200
  114MOL0     H14988   5.609  10.561   6.654  3.3140 -1.1573  1.0115
  114MOL0     H14989   5.551  10.713   6.845  0.6034 -1.6024  1.7731
  114MOL0     H14990   5.441  10.587   6.912  1.1382 -3.3705 -0.2064
  114MOL0     H14991   5.402  10.663   6.621 -0.2114 -1.1047  0.7704
  114MOL0     H14992   5.290  10.582   6.726 -0.3374 -0.3978 -3.2085
  114MOL0     H14993   5.217  10.798   6.685 -1.8577 -0.6474  2.0352
  114MOL0     H14994   5.383  10.867   6.689  1.6703 -0.6892  1.9402
  114MOL0     H14995   5.372  10.835   6.948  2.2312  1.0921 -1.7922
  114MOL0     H14996   5.199  10.823   6.921  1.3379 -0.3892  1.7422
  114MOL0     H14997   5.355  11.045   6.790 -1.6270  1.2429 -1.3981
  114MOL0     H14998   5.177  11.027   6.829 -0.2396 -3.2041  1.8339
  114MOL0     H14999   5.318  11.204   6.959  2.4994  0.2176  0.7821
  114MOL0     H15000   5.419  11.073   7.019  0.9396  1.1104  0.6029
  114MOL0     H15001   5.054  11.201   7.077  0.7930 -0.3958  0.2414
  114MOL0     H15002   4.919  11.192   7.329  0.4937  0.0770 -0.3123
  114MOL0     H15003   4.912  11.024   7.390  0.2079  1.0245  0.7376
  114MOL0     H15004   4.794  11.143   7.137  1.7645 -0.4602 -1.1306
  114MOL0     H15005   4.714  11.050   7.272  0.2124 -0.1288  1.5489
  114MOL0     H15006   4.870  10.944   7.035 -2.3349 -3.4070 -2.3782
  114MOL0     H15007   4.868  10.855   7.187 -2.6183  0.7359  3.3971
  114MOL0     H15008   4.617  10.860   7.167 -1.6697  0.2059 -0.7877
  114MOL0     H15009   4.687  10.809   7.013  2.2783 -0.2656  1.6230
  114MOL0     H15010   4.473  11.224   6.960  2.1138 -1.0429  2.0440
  114MOL0     H15011   4.237  11.258   6.976 -1.2665  0.0136  0.4503
  114MOL0     H15012   3.770  10.999   7.032  0.4003 -0.6364 -0.0531
  114MOL0     H15013   3.544  11.058   7.112  1.4089  2.8581 -2.6298
  114MOL0     H15014   3.392  11.198   7.190  1.4525 -3.4751 -0.3576
  114MOL0     H15015   3.316  11.240   7.342  1.3516 -0.5320  3.2212
  114MOL0     H15016   3.258  10.990   7.358 -2.3517 -1.6124 -1.4438
  114MOL0     H15017   3.321  10.981   7.195 -0.4235 -0.1739 -0.7321
  114MOL0     H15018   3.161  11.119   7.084  0.3205 -1.4807 -0.7794
  114MOL0     H15019   3.086  11.147   7.255 -0.4149 -2.3561  0.5275
  114MOL0     H15020   3.155  10.870   7.156 -0.7725 -0.2682 -0.7618
  114MOL0     H15021   3.039  10.910   7.281  0.6141 -0.6332 -0.0918
  114MOL0     H15022   3.004  10.969   6.986  1.2102 -1.8591 -1.1039
  114MOL0     H15023   2.879  10.988   7.118  0.9234  0.2108  0.6718
  114MOL0     H15024   2.912  10.749   7.170  2.7332 -1.6491  0.5760
  114MOL0     H15025   3.015  10.719   7.037 -1.4146 -3.1915  1.3701
  114MOL0     H15026   2.806  10.647   6.942 -0.6657 -0.6346  2.4155
  114MOL0     H15027   2.717  10.750   7.037  0.6145  0.7403  1.5090
  114MOL0     H15028   2.801  10.949   6.879  2.2620 -0.1655  2.3587
  114MOL0     H15029   2.703  10.825   6.802 -0.0853 -1.0618  0.3043
  114MOL0     H15030   3.703  11.169   7.499 -0.5034  3.2934 -1.1511
  114MOL0     H15031   3.926  11.104   7.407 -0.5676  2.9697 -0.5131
  114MOL0     H15032   4.192  10.855   7.127  0.0548 -0.0462  0.5174
  114MOL0     H15033   4.413  10.804   7.076  0.7996  0.3240  1.3197
  114MOL0     H15034   5.939  10.316   6.580 -0.7180  1.3760 -1.0940
  114MOL0     H15035   6.164  10.226   6.634 -0.1750  1.8294 -0.9913
  114MOL0     H15036   6.485  10.095   6.825  1.2538 -1.5755  0.1817
  114MOL0     H15037   6.722  10.058   6.737  3.3672  0.3898 -0.1558
  114MOL0     H15038   7.029  10.376   6.811 -0.5687  1.4131 -0.8727
  114MOL0     H15039   7.016  10.391   6.634  1.8262  0.7012  0.2345
  114MOL0     H15040   7.174  10.165   6.761  1.0439 -1.0684 -1.8091
  114MOL0     H15041   7.142  10.197   6.589 -0.6077 -0.2782  0.3703
  114MOL0     H15042   7.260  10.419   6.731 -4.5939  0.8890 -1.2448
  114MOL0     H15043   7.293  10.349   6.569  0.8582 -0.7645  0.1622
  114MOL0     H15044   7.502  10.299   6.690  0.5925  0.2077 -0.1878
  114MOL0     H15045   7.419  10.263   6.835  1.3565  0.8479 -0.0496
  114MOL0     H15046   7.520   9.909   6.601  2.2159  1.6628 -2.1806
  114MOL0     H15047   6.823  10.457   6.812  1.2966 -1.1768  0.2894
  114MOL0     H15048   6.596  10.511   6.888 -0.2931 -0.1545  0.8777
  115MOL0     O15049   8.144   7.032   8.012 -0.5976 -0.1539 -0.5361
  115MOL0     C15050   8.123   6.921   7.961 -0.0258 -0.2394  0.2198
  115MOL0     O15051   8.030   6.832   7.998 -0.3187  0.4462  0.0873
  115MOL0     C15052   7.909   6.865   8.050  0.6836  0.0564 -0.3750
  115MOL0     C15053   7.889   6.964   8.154 -0.1445  0.2172  0.9916
  115MOL0     C15054   7.762   6.976   8.214  0.5437 -0.4337  0.0559
  115MOL0     C15055   7.662   6.882   8.191  0.4093  0.3083 -0.4039
  115MOL0     O15056   7.550   6.894   8.274  0.4367  0.2592  0.3515
  115MOL0     C15057   7.436   6.812   8.238  0.5164  0.3970 -0.5318
  115MOL0     C15058   7.317   6.848   8.319 -0.8951  0.2757 -0.5769
  115MOL0     C15059   7.192   6.787   8.261 -0.0133 -0.0804 -0.7002
  115MOL0     C15060   7.065   6.804   8.345 -0.8193  0.0437  0.7387
  115MOL0     C15061   6.937   6.809   8.251 -0.6167 -0.3154 -0.1648
  115MOL0     C15062   6.912   6.673   8.167  0.0095  0.7904  0.3628
  115MOL0     C15063   6.851   6.557   8.262  1.0180  0.6230 -0.5080
  115MOL0     C15064   6.701   6.566   8.276  0.6224  0.5199 -0.0884
  115MOL0     N15065   6.648   6.441   8.335 -0.8105  0.6245 -0.4727
  115MOL0     C15066   6.593   6.338   8.259  0.4496 -0.0818 -1.0343
  115MOL0     C15067   6.562   6.242   8.347 -0.4269 -0.0881  0.0347
  115MOL0     C15068   6.480   6.116   8.321 -0.2232 -0.6649 -0.4012
  115MOL0     C15069   6.333   6.141   8.278 -0.5097  0.1983 -0.1927
  115MOL0     C15070   6.253   6.187   8.395  1.1261 -0.0251 -0.4576
  115MOL0     C15071   6.098   6.180   8.365 -0.0427 -0.2904 -0.4287
  115MOL0     O15072   6.026   6.269   8.453 -0.4093 -0.4524  0.1642
  115MOL0     C15073   5.885   6.255   8.455 -0.0998 -0.4507 -0.0582
  115MOL0     C15074   5.814   6.151   8.397  0.0865 -0.2717 -0.1346
  115MOL0     C15075   5.677   6.149   8.387  0.9120 -0.5025 -0.8076
  115MOL0     C15076   5.611   6.265   8.430 -0.8580  0.6369 -1.1357
  115MOL0     C15077   5.464   6.275   8.424 -1.4883 -0.0110  0.2966
  115MOL0     O15078   5.403   6.381   8.484 -1.0967  0.1894  0.3323
  115MOL0     C15079   5.264   6.392   8.492  0.4072  0.5273  0.0626
  115MOL0     C15080   5.213   6.494   8.421 -1.0609 -0.8568 -0.5796
  115MOL0     C15081   5.077   6.497   8.398 -1.0245 -0.1201 -0.4518
  115MOL0     C15082   4.993   6.404   8.453  0.1809 -0.0887 -0.0705
  115MOL0     O15083   4.860   6.406   8.423 -0.1419 -0.1541  0.3751
  115MOL0     C15084   4.771   6.293   8.425 -0.9452  0.2211 -0.0993
  115MOL0     C15085   4.662   6.298   8.329  0.4514 -0.1168  0.2061
  115MOL0     C15086   4.559   6.180   8.340 -0.8941 -0.1022  0.1648
  115MOL0     C15087   4.434   6.196   8.245  0.1401 -0.2155 -0.4974
  115MOL0     C15088   4.322   6.095   8.274 -0.4424  0.1626 -0.1473
  115MOL0     C15089   4.208   6.109   8.173 -0.1377  0.7752 -0.2364
  115MOL0     C15090   4.088   6.010   8.223  0.4147 -0.2678  0.3849
  115MOL0     C15091   3.984   6.016   8.106  1.0171  1.0409 -0.7274
  115MOL0    Cl15092   3.846   5.903   8.143 -0.1767  0.3970  0.0236
  115MOL0     C15093   5.037   6.310   8.541 -0.3283  0.1362  0.1392
  115MOL0     C15094   5.175   6.311   8.568 -0.0713 -0.7924  0.3332
  115MOL0     O15095   5.415   6.183   8.360  0.0670 -0.2552 -0.7982
  115MOL0     C15096   5.693   6.370   8.496 -0.0407  0.8864  0.6084
  115MOL0     C15097   5.827   6.365   8.508  0.1681 -0.7925  0.5424
  115MOL0     N15098   6.610   6.283   8.474  0.6927  0.2144 -0.0975
  115MOL0     N15099   6.660   6.398   8.464  0.0707 -0.5376  0.2988
  115MOL0     C15100   7.684   6.778   8.102  0.0147  0.8256 -0.1005
  115MOL0     C15101   7.806   6.773   8.033 -0.2127  1.0779 -0.1327
  115MOL0     C15102   8.206   6.894   7.841  0.8274 -1.2469  0.3553
  115MOL0     C15103   8.306   6.997   7.803 -0.1791 -0.1900  0.4327
  115MOL0     C15104   8.383   6.969   7.690  0.6680  0.6959  0.4661
  115MOL0     C15105   8.366   6.855   7.610  0.4671  0.0139 -0.9532
  115MOL0     O15106   8.438   6.835   7.495  0.0332  0.5325 -0.6201
  115MOL0     C15107   8.563   6.759   7.518 -0.5489 -0.2013  0.0586
  115MOL0     C15108   8.623   6.744   7.378 -0.3769  0.1017 -0.3570
  115MOL0     C15109   8.765   6.659   7.387  0.8266 -0.2476  0.7219
  115MOL0     C15110   8.752   6.507   7.399 -0.4177  0.0402 -0.2956
  115MOL0     C15111   8.887   6.442   7.421 -0.5524  0.4233 -0.3763
  115MOL0     C15112   9.001   6.404   7.440 -0.3565 -0.6894  0.2711
  115MOL0     C15113   8.263   6.761   7.636 -0.0579  0.4383 -0.8025
  115MOL0     C15114   8.180   6.784   7.750 -0.7606  0.1129 -1.7221
  115MOL0     H15115   7.976   7.022   8.181  0.3230  1.5229 -2.6823
  115MOL0     H15116   7.743   7.055   8.287  1.8172  0.6343 -0.7236
  115MOL0     H15117   7.450   6.703   8.236 -2.5625 -0.2735  3.0264
  115MOL0     H15118   7.411   6.833   8.133 -1.5590 -1.4954 -0.5072
  115MOL0     H15119   7.311   6.957   8.320  1.6548  0.5281  2.4182
  115MOL0     H15120   7.333   6.813   8.422 -0.6409 -2.6127 -1.5116
  115MOL0     H15121   7.207   6.679   8.253 -0.9925 -0.1507 -2.0771
  115MOL0     H15122   7.176   6.827   8.161  0.2596 -0.3479 -0.8519
  115MOL0     H15123   7.054   6.715   8.409  2.8575  0.1625  1.7367
  115MOL0     H15124   7.055   6.896   8.403 -0.9004  0.4790  0.0374
  115MOL0     H15125   6.948   6.893   8.183  1.8719 -1.2807 -1.0766
  115MOL0     H15126   6.855   6.821   8.323 -1.8008  2.0190 -1.7982
  115MOL0     H15127   7.010   6.635   8.134  0.1953  1.0648  0.5944
  115MOL0     H15128   6.858   6.697   8.075 -0.8756  3.0385  1.3981
  115MOL0     H15129   6.875   6.456   8.226 -1.6704 -0.9985  1.8383
  115MOL0     H15130   6.893   6.556   8.362  0.1089  0.1311 -0.1169
  115MOL0     H15131   6.661   6.577   8.175 -2.2024 -0.6428  0.8187
  115MOL0     H15132   6.673   6.651   8.339 -0.9868  0.8244 -1.1636
  115MOL0     H15133   6.570   6.337   8.153 -0.8657 -2.1601 -0.7761
  115MOL0     H15134   6.511   6.053   8.405  3.7477  0.9496 -0.4050
  115MOL0     H15135   6.522   6.065   8.234 -2.4714 -0.2210 -1.8481
  115MOL0     H15136   6.296   6.046   8.238  2.5798 -0.2388 -2.3459
  115MOL0     H15137   6.329   6.214   8.196 -0.1330  0.1975 -0.2106
  115MOL0     H15138   6.269   6.126   8.484 -0.6475  0.0967  0.0002
  115MOL0     H15139   6.286   6.288   8.424 -0.9474  0.3410  0.8732
  115MOL0     H15140   6.063   6.077   8.368 -1.5446  0.1839 -0.9126
  115MOL0     H15141   6.078   6.212   8.262  3.6201  1.0983 -0.8585
  115MOL0     H15142   5.870   6.064   8.365  1.8119  0.7004  0.1420
  115MOL0     H15143   5.631   6.059   8.347 -2.4259  1.1826 -1.1176
  115MOL0     H15144   5.276   6.566   8.371  1.0513 -1.4338  1.1074
  115MOL0     H15145   5.030   6.570   8.333  0.0935  1.3357  0.3129
  115MOL0     H15146   4.729   6.279   8.525  1.2578  2.3981  1.2624
  115MOL0     H15147   4.822   6.201   8.395  0.5400  0.1794  2.3071
  115MOL0     H15148   4.704   6.311   8.229  1.6976  1.2523  0.8541
  115MOL0     H15149   4.609   6.392   8.350  1.0242  0.2164  0.2095
  115MOL0     H15150   4.524   6.164   8.442  3.9284 -0.2224  2.0249
  115MOL0     H15151   4.601   6.085   8.305 -0.5086  0.4681 -0.9544
  115MOL0     H15152   4.391   6.295   8.264  3.2863  1.4182 -1.1406
  115MOL0     H15153   4.454   6.182   8.139 -0.0935  0.5033 -0.6405
  115MOL0     H15154   4.289   6.105   8.378  2.7456 -0.7120  1.0828
  115MOL0     H15155   4.368   5.996   8.269  1.3514  0.7894  1.9154
  115MOL0     H15156   4.237   6.083   8.071 -1.5589  2.1127 -1.0287
  115MOL0     H15157   4.172   6.212   8.174  1.2639  1.3985  4.0818
  115MOL0     H15158   4.139   5.913   8.219 -1.7505 -1.4325 -2.8726
  115MOL0     H15159   4.033   6.032   8.315 -1.3028 -1.1499 -0.3850
  115MOL0     H15160   4.038   5.979   8.018  0.8480 -4.4633  1.0714
  115MOL0     H15161   3.951   6.118   8.084  1.8027  1.6558  0.8239
  115MOL0     H15162   4.968   6.236   8.579  0.2358 -1.4459 -1.7596
  115MOL0     H15163   5.212   6.228   8.627 -0.8301  0.4210  2.6473
  115MOL0     H15164   5.642   6.455   8.541  1.4363  1.9761  0.3035
  115MOL0     H15165   5.886   6.451   8.539 -1.6666  1.2996 -1.4692
  115MOL0     H15166   7.615   6.695   8.087 -0.6124  1.5527 -1.4239
  115MOL0     H15167   7.818   6.692   7.961 -0.9683  2.5817 -2.0200
  115MOL0     H15168   8.329   7.077   7.872  1.7506  1.1275 -1.5791
  115MOL0     H15169   8.453   7.048   7.665  1.6398  0.7760  3.0546
  115MOL0     H15170   8.557   6.658   7.561 -0.0571 -0.4377 -0.4288
  115MOL0     H15171   8.626   6.812   7.590 -0.1858 -0.6734  0.0907
  115MOL0     H15172   8.554   6.689   7.313 -2.2795  0.7752  0.9954
  115MOL0     H15173   8.644   6.846   7.343  1.2954  0.2226  0.8527
  115MOL0     H15174   8.818   6.697   7.475  0.7936 -1.2873  1.1975
  115MOL0     H15175   8.814   6.697   7.297 -2.8757 -0.1599 -1.4689
  115MOL0     H15176   8.680   6.485   7.479  0.1026 -1.2785 -0.1696
  115MOL0     H15177   8.711   6.459   7.310 -0.3093  0.4757 -0.5830
  115MOL0     H15178   9.101   6.366   7.448 -0.1952 -0.6141 -1.1340
  115MOL0     H15179   8.255   6.670   7.577 -1.1921 -0.8138  1.1980
  115MOL0     H15180   8.102   6.711   7.773 -1.3666  1.3481  0.4856
  116MOL0     O15181   4.877   7.628   7.463  0.1574 -0.4970  0.2648
  116MOL0     C15182   4.930   7.724   7.523  0.6948  1.3274 -0.4597
  116MOL0     O15183   4.885   7.770   7.647 -1.0657 -0.5368 -0.3472
  116MOL0     C15184   4.760   7.733   7.689  0.3288  0.7834  0.2591
  116MOL0     C15185   4.747   7.637   7.794  0.0186 -0.2659  0.4959
  116MOL0     C15186   4.621   7.592   7.832  0.2245 -1.1892 -0.4112
  116MOL0     C15187   4.500   7.637   7.765  0.2258  0.1181 -0.3140
  116MOL0     O15188   4.374   7.596   7.795 -0.6819  0.6661  0.0872
  116MOL0     C15189   4.353   7.465   7.854  1.0257  1.2509  0.3375
  116MOL0     C15190   4.200   7.453   7.866 -0.3822 -0.6015  0.8381
  116MOL0     C15191   4.152   7.548   7.983 -0.9793 -0.7024  0.3644
  116MOL0     C15192   3.999   7.560   7.978 -0.3060  0.0031  0.1740
  116MOL0     C15193   3.955   7.650   8.080 -0.5874 -0.1299  0.5804
  116MOL0     C15194   3.812   7.682   8.053 -0.2671 -0.8830  1.0419
  116MOL0     C15195   3.706   7.569   8.068 -0.7941 -0.0820  0.4765
  116MOL0     C15196   3.685   7.536   8.221 -0.3572  0.9915  1.0665
  116MOL0     N15197   3.572   7.447   8.259  0.6553 -0.4609  0.4762
  116MOL0     C15198   3.450   7.493   8.213 -0.8169  0.2628 -0.2709
  116MOL0     C15199   3.370   7.399   8.249  0.2482 -0.5761  0.2851
  116MOL0     C15200   3.219   7.400   8.219 -0.1350 -0.1232  0.8408
  116MOL0     C15201   3.133   7.472   8.332 -0.3048 -0.2704 -0.1496
  116MOL0     C15202   2.988   7.494   8.296 -0.0537  0.3489 -0.4103
  116MOL0     C15203   2.912   7.372   8.240 -0.2625 -0.9227  0.5973
  116MOL0     O15204   2.926   7.260   8.333  0.0461 -0.4676  0.2653
  116MOL0     C15205   2.891   7.138   8.287  0.7492  0.9442  0.0743
  116MOL0     C15206   2.826   7.115   8.163 -0.0303  0.4463  0.6753
  116MOL0     C15207   2.796   6.986   8.113 -0.4296 -0.4486 -0.0187
  116MOL0     C15208   2.820   6.874   8.191 -0.0585 -0.0120  0.9859
  116MOL0     C15209   2.778   6.736   8.160 -0.9259 -0.0166  0.1312
  116MOL0     O15210   2.864   6.641   8.206 -0.1414 -0.3123 -0.3668
  116MOL0     C15211   2.817   6.510   8.215 -0.7280 -0.8571  1.1790
  116MOL0     C15212   2.891   6.411   8.157 -0.0172  0.0832  0.4158
  116MOL0     C15213   2.845   6.282   8.180 -0.6667 -0.6706 -0.4971
  116MOL0     C15214   2.729   6.257   8.258 -0.3847  0.5068 -0.3391
  116MOL0     O15215   2.701   6.124   8.282  0.2989 -0.1478  0.3299
  116MOL0     C15216   2.568   6.072   8.280 -0.2795  0.1731 -0.0869
  116MOL0     C15217   2.539   5.962   8.173 -0.7189 -0.3592  0.6493
  116MOL0     C15218   2.502   6.018   8.040 -0.4909 -0.5415 -0.6567
  116MOL0     C15219   2.365   6.083   8.037  0.5391 -0.2282 -0.1598
  116MOL0     C15220   2.353   6.161   7.898  0.4989 -0.0059  0.7719
  116MOL0     C15221   2.205   6.201   7.870  1.0313 -0.1354 -0.2602
  116MOL0     C15222   2.169   6.231   7.721 -0.1580  0.4226  0.2218
  116MOL0     C15223   2.034   6.303   7.704  0.7345  0.9472 -0.4485
  116MOL0    Cl15224   2.043   6.460   7.773 -0.0424 -0.1417  0.5434
  116MOL0     C15225   2.666   6.353   8.330  0.1773 -1.1785  0.7341
  116MOL0     C15226   2.713   6.481   8.312  0.1786  0.1191  0.5023
  116MOL0     O15227   2.671   6.720   8.108  0.6209  0.7956 -0.1525
  116MOL0     C15228   2.878   6.896   8.320  0.3932 -0.2963  0.4159
  116MOL0     C15229   2.908   7.020   8.367  0.5620  0.7297 -0.1541
  116MOL0     N15230   3.429   7.311   8.338  0.2459 -0.6156 -0.6835
  116MOL0     N15231   3.551   7.342   8.350 -0.2472  0.1430  0.4131
  116MOL0     C15232   4.520   7.723   7.660 -0.1805 -0.8061  0.4977
  116MOL0     C15233   4.643   7.782   7.630  0.2990 -0.5037  0.8405
  116MOL0     C15234   5.072   7.758   7.496 -1.2231  0.0928 -1.1371
  116MOL0     C15235   5.141   7.709   7.386  0.6334  0.2973  0.2046
  116MOL0     C15236   5.271   7.747   7.366 -0.6777 -0.2731  0.6194
  116MOL0     C15237   5.339   7.825   7.457  0.0053 -1.0321  0.3227
  116MOL0     O15238   5.468   7.873   7.428  0.4750  0.6129  0.2271
  116MOL0     C15239   5.534   7.836   7.301  0.0073  0.5228  0.8429
  116MOL0     C15240   5.665   7.906   7.269 -0.1134  0.0958  0.4433
  116MOL0     C15241   5.650   8.065   7.269  0.2312 -0.7808 -0.8106
  116MOL0     C15242   5.569   8.128   7.160  0.1652  0.0556 -0.6591
  116MOL0     C15243   5.434   8.135   7.205  0.3523  0.8307  0.3294
  116MOL0     C15244   5.319   8.136   7.257  0.7677 -0.3705 -0.0001
  116MOL0     C15245   5.284   7.854   7.578  0.0369 -1.2979 -0.4715
  116MOL0     C15246   5.149   7.830   7.598  0.2879 -0.2563 -0.9667
  116MOL0     H15247   4.835   7.598   7.844 -0.5079 -1.9035  0.1841
  116MOL0     H15248   4.613   7.521   7.913  0.0853  1.4971  2.1311
  116MOL0     H15249   4.402   7.465   7.952  1.8060  0.7732 -0.0439
  116MOL0     H15250   4.393   7.385   7.791 -2.4894 -0.1407 -0.3692
  116MOL0     H15251   4.158   7.354   7.885 -0.4150 -0.1878  3.2666
  116MOL0     H15252   4.154   7.498   7.777 -0.9499  0.8158  1.7980
  116MOL0     H15253   4.206   7.643   7.978 -0.0216 -1.2837 -0.8300
  116MOL0     H15254   4.183   7.506   8.079 -1.3906 -0.5722  0.5557
  116MOL0     H15255   3.965   7.586   7.877  0.9090 -1.0831 -0.5553
  116MOL0     H15256   3.961   7.458   7.996  1.5409 -1.0033 -1.2518
  116MOL0     H15257   4.014   7.742   8.074  2.8204 -1.7468  4.4256
  116MOL0     H15258   3.962   7.614   8.183  2.2882  0.3107  0.6373
  116MOL0     H15259   3.812   7.730   7.955  2.8050  0.8692  1.7608
  116MOL0     H15260   3.784   7.763   8.121 -0.8235 -0.0855 -0.0927
  116MOL0     H15261   3.619   7.619   8.026 -2.1697 -1.2654  1.7898
  116MOL0     H15262   3.728   7.486   8.001 -2.2929  0.4701 -0.7508
  116MOL0     H15263   3.670   7.635   8.265  0.1366  2.8390 -2.5976
  116MOL0     H15264   3.768   7.476   8.258 -2.3282 -2.4683  0.3495
  116MOL0     H15265   3.429   7.583   8.156 -1.3195 -0.5470 -1.4142
  116MOL0     H15266   3.188   7.296   8.206  0.3793 -0.8297  4.2031
  116MOL0     H15267   3.201   7.448   8.123  0.4824 -0.9183  0.3106
  116MOL0     H15268   3.178   7.569   8.356 -1.6106  0.6574 -1.2887
  116MOL0     H15269   3.132   7.408   8.421  1.3539 -1.7169 -1.1092
  116MOL0     H15270   2.935   7.518   8.389  0.8235 -1.1526  0.5158
  116MOL0     H15271   2.976   7.565   8.213  0.2770  0.8579 -0.0257
  116MOL0     H15272   2.954   7.342   8.144  2.5657 -1.1248  1.8199
  116MOL0     H15273   2.808   7.401   8.224 -1.2588 -3.9002  0.9596
  116MOL0     H15274   2.795   7.189   8.091  0.4398 -1.4140 -1.5517
  116MOL0     H15275   2.747   6.982   8.016 -1.8402 -1.7806  0.6939
  116MOL0     H15276   2.988   6.430   8.111  1.9316  0.0939  4.0900
  116MOL0     H15277   2.913   6.205   8.144  0.0272 -0.4488  0.3176
  116MOL0     H15278   2.491   6.148   8.294 -0.0210  1.1951 -3.4542
  116MOL0     H15279   2.564   6.009   8.370 -1.8538  2.4862  1.5821
  116MOL0     H15280   2.459   5.899   8.214 -1.3783  0.0836  0.0699
  116MOL0     H15281   2.631   5.903   8.166  0.3268  1.2817 -0.2941
  116MOL0     H15282   2.505   5.933   7.972  3.1153 -0.0290 -1.3292
  116MOL0     H15283   2.581   6.086   8.008  1.8772 -3.5200 -1.6056
  116MOL0     H15284   2.281   6.013   8.037  0.1226  0.2543 -1.4446
  116MOL0     H15285   2.361   6.167   8.107  3.6710  2.1227 -2.5136
  116MOL0     H15286   2.389   6.096   7.818 -0.4059 -0.1076  0.4422
  116MOL0     H15287   2.420   6.247   7.886  0.6181 -0.3520 -1.4332
  116MOL0     H15288   2.168   6.290   7.921  0.6172 -0.7132  0.4776
  116MOL0     H15289   2.129   6.130   7.904 -0.9062  1.6176 -0.7350
  116MOL0     H15290   2.238   6.306   7.680 -0.6714  0.3250 -0.8614
  116MOL0     H15291   2.162   6.137   7.666 -0.5684  1.6684 -1.9765
  116MOL0     H15292   1.956   6.248   7.757  1.7553  1.3744  1.5855
  116MOL0     H15293   2.002   6.291   7.600  2.4504  1.6100 -1.0759
  116MOL0     H15294   2.588   6.332   8.402 -3.4317  2.4151 -1.7174
  116MOL0     H15295   2.687   6.562   8.379  0.3773  0.5299  0.0897
  116MOL0     H15296   2.888   6.805   8.379  0.7561 -1.7226 -1.7357
  116MOL0     H15297   2.961   7.037   8.460 -1.5283  0.9374  1.0807
  116MOL0     H15298   4.439   7.758   7.598  0.2614  1.1337  0.9436
  116MOL0     H15299   4.643   7.858   7.553 -3.2066 -3.5201 -2.5116
  116MOL0     H15300   5.091   7.655   7.306 -1.9003  1.8547  0.6329
  116MOL0     H15301   5.322   7.700   7.283 -1.0639  1.3827 -0.5921
  116MOL0     H15302   5.465   7.861   7.219 -0.9076  0.1039  1.4591
  116MOL0     H15303   5.552   7.729   7.303  1.4420  0.7590  1.0718
  116MOL0     H15304   5.736   7.868   7.343  0.7396 -1.3334 -1.0520
  116MOL0     H15305   5.717   7.883   7.175 -0.6818 -1.2365  0.4417
  116MOL0     H15306   5.753   8.102   7.265  0.1867 -0.0630  2.2151
  116MOL0     H15307   5.617   8.104   7.366  2.3871 -0.7063 -0.0392
  116MOL0     H15308   5.600   8.233   7.157  2.1056 -0.3968  1.1009
  116MOL0     H15309   5.578   8.080   7.062 -2.0847  0.9181 -1.3417
  116MOL0     H15310   5.226   8.146   7.308  0.2530 -0.5276 -0.8806
  116MOL0     H15311   5.335   7.906   7.659 -0.5480  0.3917 -1.1405
  116MOL0     H15312   5.103   7.870   7.688  0.6063  4.0735 -2.4899
  117MOL0     O15313  10.369  10.388   5.766 -0.0137  0.6091 -0.5304
  117MOL0     C15314  10.450  10.297   5.806  0.4442  1.1029  0.6164
  117MOL0     O15315  10.419  10.181   5.870 -0.2643 -0.3077 -0.0199
  117MOL0     C15316  10.295  10.133   5.884 -0.2303  0.2934  1.0374
  117MOL0     C15317  10.199  10.149   5.781  0.4297 -0.4688 -0.3259
  117MOL0     C15318  10.076  10.093   5.811 -0.1507 -0.3069  0.0644
  117MOL0     C15319  10.043  10.025   5.930 -0.7876 -0.6281 -0.5768
  117MOL0     O15320   9.917   9.960   5.943 -0.2116  0.0530  0.6241
  117MOL0     C15321   9.852  10.002   6.061 -0.0635  0.8352 -1.3272
  117MOL0     C15322   9.715   9.922   6.069  0.7841 -0.6510 -0.1314
  117MOL0     C15323   9.612   9.956   5.962  0.9372 -0.6346 -0.5192
  117MOL0     C15324   9.651   9.918   5.812 -0.6256 -0.5164 -0.8560
  117MOL0     C15325   9.537   9.932   5.712 -0.1073 -0.6591 -0.4085
  117MOL0     C15326   9.406   9.849   5.736 -0.0329 -0.0460  0.2649
  117MOL0     C15327   9.322   9.872   5.620  1.0051 -0.3059  0.0076
  117MOL0     C15328   9.198   9.776   5.620 -0.7550 -0.0707 -0.6363
  117MOL0     N15329   9.115   9.785   5.505  0.4315  0.2973 -0.4478
  117MOL0     C15330   9.114   9.695   5.407  0.2795  0.0145  0.5634
  117MOL0     C15331   9.045   9.760   5.302  0.0152 -0.0854  0.1604
  117MOL0     C15332   9.026   9.710   5.158  0.0380  0.7121 -0.1991
  117MOL0     C15333   8.880   9.673   5.114 -0.6210  0.3265 -0.9056
  117MOL0     C15334   8.861   9.522   5.149  0.4116 -0.2888  0.7946
  117MOL0     C15335   8.735   9.463   5.087 -0.1575  0.1281  0.5649
  117MOL0     O15336   8.611   9.532   5.124  0.2127  0.1111  0.4980
  117MOL0     C15337   8.490   9.549   5.056  0.5042  0.2582  0.1935
  117MOL0     C15338   8.480   9.510   4.922  0.6719  0.4875  0.4767
  117MOL0     C15339   8.359   9.536   4.855  0.5041  0.1753  0.3811
  117MOL0     C15340   8.251   9.604   4.911 -0.1658  0.2692 -0.4971
  117MOL0     C15341   8.140   9.634   4.826 -0.1821  0.0608  0.1090
  117MOL0     O15342   8.120   9.583   4.701 -0.2340 -0.0746  0.8632
  117MOL0     C15343   8.000   9.609   4.630 -0.0899 -0.1571  0.2055
  117MOL0     C15344   7.947   9.733   4.604  0.2131  0.6747  1.4254
  117MOL0     C15345   7.831   9.753   4.533 -0.6292 -0.4136 -0.8117
  117MOL0     C15346   7.761   9.643   4.488 -0.3562  0.3963  0.6408
  117MOL0     O15347   7.654   9.676   4.406 -0.1951 -0.3241 -0.6144
  117MOL0     C15348   7.538   9.582   4.392 -0.9693  0.2481  0.0533
  117MOL0     C15349   7.468   9.583   4.531 -0.6232 -0.0823  0.5701
  117MOL0     C15350   7.334   9.660   4.531  0.1474 -0.4182 -0.3484
  117MOL0     C15351   7.279   9.656   4.666 -0.8439 -0.5322 -0.3991
  117MOL0     C15352   7.144   9.719   4.684 -0.1087 -0.1558 -0.1697
  117MOL0     C15353   7.100   9.707   4.824 -0.0164 -0.0648  0.1819
  117MOL0     C15354   6.951   9.752   4.852  0.0095  0.1599 -0.3491
  117MOL0     C15355   6.951   9.899   4.870 -0.7034 -0.7694  0.7585
  117MOL0    Cl15356   6.791   9.985   4.875 -0.2358 -0.1069 -0.0539
  117MOL0     C15357   7.813   9.513   4.521 -0.5619 -0.5645 -0.5590
  117MOL0     C15358   7.931   9.499   4.591  0.5183 -0.3428  0.6355
  117MOL0     O15359   8.065   9.719   4.884 -0.1993  0.0452 -0.3856
  117MOL0     C15360   8.267   9.640   5.047  0.2076 -0.8647 -0.7015
  117MOL0     C15361   8.386   9.614   5.117 -0.8235 -0.4911 -0.7535
  117MOL0     N15362   8.990   9.868   5.359 -0.0916 -0.4656  0.0137
  117MOL0     N15363   9.041   9.896   5.476 -0.6453  0.7867 -0.0894
  117MOL0     C15364  10.142  10.007   6.021 -0.6360 -0.4734 -0.5524
  117MOL0     C15365  10.276  10.053   5.999  0.4697 -1.1304  0.3272
  117MOL0     C15366  10.588  10.326   5.786  0.3130 -0.1657 -1.2013
  117MOL0     C15367  10.627  10.430   5.706  0.0189 -0.0274 -0.0425
  117MOL0     C15368  10.763  10.476   5.706  0.8064 -0.0175  0.4723
  117MOL0     C15369  10.862  10.404   5.767  0.1084  0.2450 -0.5104
  117MOL0     O15370  10.984  10.462   5.768 -0.3548  0.1856 -0.9046
  117MOL0     C15371  11.094  10.401   5.845 -0.3412 -0.1509 -0.3517
  117MOL0     C15372  11.209  10.496   5.812 -0.3018  0.1375  0.0295
  117MOL0     C15373  11.334  10.450   5.889  0.5193  0.9855  0.6889
  117MOL0     C15374  11.460  10.520   5.849  0.2361 -0.0695  0.2030
  117MOL0     C15375  11.562  10.489   5.951 -0.7695 -0.0104  0.0998
  117MOL0     C15376  11.640  10.493   6.049  1.0640  0.2625  0.6511
  117MOL0     C15377  10.824  10.295   5.846  0.9660  0.3064 -0.0604
  117MOL0     C15378  10.684  10.259   5.863 -0.0918 -0.4049 -0.0247
  117MOL0     H15379  10.211  10.216   5.696  1.7352  0.5690  0.6266
  117MOL0     H15380  10.005  10.095   5.729  2.3148 -1.0633 -2.1854
  117MOL0     H15381   9.842  10.111   6.063  2.0968  1.1207 -2.5934
  117MOL0     H15382   9.898   9.976   6.156 -1.1726 -0.4321 -1.1067
  117MOL0     H15383   9.674   9.930   6.170  1.2448  1.9795 -0.0594
  117MOL0     H15384   9.727   9.815   6.050  0.0264 -1.0702  1.5633
  117MOL0     H15385   9.592  10.064   5.961  1.8313 -0.4563  0.0394
  117MOL0     H15386   9.523   9.900   5.991 -0.2062  1.6722  0.7318
  117MOL0     H15387   9.722   9.997   5.787  0.4162 -1.4254 -0.8493
  117MOL0     H15388   9.701   9.821   5.803 -0.0921 -0.8475  3.4908
  117MOL0     H15389   9.579   9.900   5.617 -4.7684 -2.5651 -2.0823
  117MOL0     H15390   9.498  10.034   5.723  0.3925 -0.7019  3.1036
  117MOL0     H15391   9.346   9.895   5.816 -1.4706  0.2767 -0.9481
  117MOL0     H15392   9.424   9.744   5.760  1.6455  0.7084  2.7830
  117MOL0     H15393   9.281   9.973   5.611  0.2328 -0.4903  1.2977
  117MOL0     H15394   9.382   9.863   5.528 -1.3235 -0.5232 -1.5836
  117MOL0     H15395   9.148   9.778   5.717 -1.0603  0.3046 -0.7998
  117MOL0     H15396   9.249   9.680   5.631  1.3983  1.2166  1.8713
  117MOL0     H15397   9.188   9.617   5.392 -0.6469 -0.6768 -0.6046
  117MOL0     H15398   9.096   9.633   5.127  0.7971  1.1196  0.4619
  117MOL0     H15399   9.060   9.797   5.101  2.1813 -0.1596 -0.3281
  117MOL0     H15400   8.878   9.683   5.005  0.8598  0.6333 -0.9209
  117MOL0     H15401   8.818   9.742   5.172 -0.8467  0.7888 -1.6890
  117MOL0     H15402   8.946   9.456   5.134  1.0668  0.5406  0.8367
  117MOL0     H15403   8.843   9.523   5.257 -0.6902  0.9286  0.6343
  117MOL0     H15404   8.721   9.359   5.118 -1.0655 -0.0265 -0.3235
  117MOL0     H15405   8.747   9.465   4.978  0.6985 -0.5663  0.6267
  117MOL0     H15406   8.559   9.467   4.861  0.1953  0.4336 -0.1062
  117MOL0     H15407   8.360   9.495   4.754 -1.4261  0.0861  0.3542
  117MOL0     H15408   8.002   9.823   4.629 -0.3732  1.3031  0.5176
  117MOL0     H15409   7.812   9.860   4.525  0.4682  0.0228  1.5956
  117MOL0     H15410   7.585   9.487   4.364  1.3488  0.5081  2.6234
  117MOL0     H15411   7.470   9.624   4.318 -0.7060  1.1461  0.3119
  117MOL0     H15412   7.526   9.621   4.616 -0.6482  1.8270 -0.2127
  117MOL0     H15413   7.445   9.477   4.547  2.8436 -1.3341 -1.6516
  117MOL0     H15414   7.268   9.598   4.470  0.1429 -1.7103  0.9154
  117MOL0     H15415   7.334   9.766   4.504  0.0532  0.6059  3.2217
  117MOL0     H15416   7.268   9.551   4.693 -1.2241 -0.0762  1.3283
  117MOL0     H15417   7.345   9.686   4.748  0.2423 -3.6360 -0.0058
  117MOL0     H15418   7.065   9.669   4.627 -2.6132  3.8122 -0.5768
  117MOL0     H15419   7.150   9.823   4.650  3.8607 -0.5147 -1.0108
  117MOL0     H15420   7.157   9.772   4.892 -4.1397  2.3749  1.6845
  117MOL0     H15421   7.126   9.604   4.851 -0.9516 -0.9253 -1.9882
  117MOL0     H15422   6.889   9.723   4.767  1.4452  2.1282 -2.1793
  117MOL0     H15423   6.917   9.708   4.946 -1.2029  0.8648 -0.4428
  117MOL0     H15424   6.995   9.953   4.786 -1.5564  1.4564  1.6536
  117MOL0     H15425   7.017   9.915   4.956  0.7983 -1.7163 -0.1710
  117MOL0     H15426   7.758   9.427   4.482 -3.5314  0.6298  0.6968
  117MOL0     H15427   7.962   9.398   4.617  0.4067 -1.1152 -1.9617
  117MOL0     H15428   8.192   9.693   5.105  1.6155  1.1868 -0.6780
  117MOL0     H15429   8.404   9.651   5.217  0.3391 -0.0767 -1.0964
  117MOL0     H15430  10.129   9.939   6.105  0.1969 -2.0767 -1.6773
  117MOL0     H15431  10.366  10.045   6.059  0.7822 -0.5069 -0.0372
  117MOL0     H15432  10.547  10.475   5.649  0.5254  0.5029 -0.3425
  117MOL0     H15433  10.789  10.568   5.654 -0.6300  0.7561  1.0637
  117MOL0     H15434  11.117  10.302   5.804  2.6736  0.9676 -1.6663
  117MOL0     H15435  11.076  10.393   5.952 -2.6688  1.2366 -0.5801
  117MOL0     H15436  11.228  10.498   5.704 -1.5761 -0.2998 -0.2276
  117MOL0     H15437  11.179  10.592   5.855 -0.7547 -0.7845  1.8889
  117MOL0     H15438  11.346  10.342   5.879 -0.7546  1.0370 -2.8383
  117MOL0     H15439  11.305  10.469   5.992 -0.5425 -1.2342  0.8680
  117MOL0     H15440  11.486  10.484   5.749 -0.1251 -0.2011  0.1529
  117MOL0     H15441  11.447  10.627   5.831  0.0230 -0.1279  0.0018
  117MOL0     H15442  11.699  10.487   6.138  0.2182  0.8075  1.2650
  117MOL0     H15443  10.907  10.248   5.896  0.4398  0.2448  0.7758
  117MOL0     H15444  10.653  10.181   5.931  1.2756 -3.7581 -2.9038
  118MOL0     O15445   3.161   1.935   7.141 -0.5190  1.0342 -0.0878
  118MOL0     C15446   3.136   1.895   7.026  0.4594  0.0702  0.0533
  118MOL0     O15447   3.015   1.853   6.983  0.0027  0.0768 -0.0818
  118MOL0     C15448   2.912   1.878   7.066 -0.1998 -0.4808 -0.1696
  118MOL0     C15449   2.906   1.836   7.198  0.4320  0.2987  0.1528
  118MOL0     C15450   2.777   1.834   7.265 -0.7716 -0.9029 -0.1014
  118MOL0     C15451   2.670   1.899   7.204 -0.1400  0.6786 -0.3238
  118MOL0     O15452   2.544   1.909   7.256  0.0632 -0.0417  0.4277
  118MOL0     C15453   2.499   1.802   7.336  0.3286  0.0106  0.4665
  118MOL0     C15454   2.382   1.855   7.418 -0.6106 -0.7874 -0.5839
  118MOL0     C15455   2.285   1.745   7.467  0.1689  0.3816 -0.1676
  118MOL0     C15456   2.182   1.803   7.565  0.6642 -0.3670  0.5511
  118MOL0     C15457   2.112   1.712   7.661  0.0437  0.5115  0.3331
  118MOL0     C15458   2.026   1.602   7.585 -0.5171  0.2106 -0.3166
  118MOL0     C15459   1.901   1.648   7.500  0.1333  0.1078  0.1440
  118MOL0     C15460   1.796   1.527   7.482 -0.3539 -0.3291  0.1949
  118MOL0     N15461   1.711   1.498   7.602 -0.3144  0.0522 -0.5766
  118MOL0     C15462   1.645   1.383   7.625  0.9561 -0.2077  0.2267
  118MOL0     C15463   1.559   1.397   7.724  0.4196 -0.0742  0.0978
  118MOL0     C15464   1.479   1.282   7.778 -0.7314  0.5745 -0.0287
  118MOL0     C15465   1.366   1.232   7.692 -0.8228 -0.1015  0.0803
  118MOL0     C15466   1.241   1.297   7.728  0.3756 -0.3261 -0.3088
  118MOL0     C15467   1.136   1.291   7.619  0.2326  0.5531  0.2252
  118MOL0     O15468   1.022   1.355   7.679 -0.3195  0.5194 -0.2113
  118MOL0     C15469   0.901   1.322   7.628  0.0281 -0.3628  0.3947
  118MOL0     C15470   0.795   1.334   7.717  0.4509  0.2244  1.2451
  118MOL0     C15471   0.660   1.285   7.696  0.6958 -0.1375  0.3520
  118MOL0     C15472   0.633   1.226   7.572 -0.3881 -0.5966  0.5654
  118MOL0     C15473   0.497   1.187   7.522 -0.8740 -0.7050 -0.1280
  118MOL0     O15474   0.485   1.145   7.390 -0.6945 -0.1791  0.0696
  118MOL0     C15475   0.371   1.084   7.351  0.2173  0.0930  0.8218
  118MOL0     C15476   0.310   0.971   7.420 -0.5007 -0.7314 -0.3119
  118MOL0     C15477   0.201   0.902   7.367 -0.3084 -0.5421 -0.5870
  118MOL0     C15478   0.153   0.933   7.241 -0.1445 -1.0692 -0.2973
  118MOL0     O15479   0.048   0.859   7.198  0.3292 -0.1875  0.5191
  118MOL0     C15480  -0.081   0.919   7.204  0.6199  0.1863 -0.1495
  118MOL0     C15481  -0.129   0.998   7.323  0.4039  0.4785 -0.0722
  118MOL0     C15482  -0.247   1.090   7.276 -0.7743 -0.0171 -1.0532
  118MOL0     C15483  -0.312   1.158   7.396  0.0997  0.1883 -0.9442
  118MOL0     C15484  -0.391   1.280   7.364 -0.4477  0.3151  0.0758
  118MOL0     C15485  -0.443   1.349   7.481 -0.1210 -0.6671 -0.4518
  118MOL0     C15486  -0.539   1.470   7.445 -0.7995  0.0039 -0.5734
  118MOL0     C15487  -0.533   1.583   7.543 -0.6344  0.1060  0.3582
  118MOL0    Cl15488  -0.600   1.535   7.702 -0.1438 -0.2852 -0.0251
  118MOL0     C15489   0.214   1.037   7.170  0.1697 -0.1843  0.2614
  118MOL0     C15490   0.317   1.119   7.227 -0.4261  0.5243  0.3803
  118MOL0     O15491   0.409   1.180   7.608  0.3850 -0.6248 -0.6432
  118MOL0     C15492   0.742   1.215   7.482 -0.2454 -0.3299 -0.2240
  118MOL0     C15493   0.872   1.250   7.510 -0.7379 -0.2536 -0.0287
  118MOL0     N15494   1.583   1.533   7.767  0.5240 -0.5297 -0.0407
  118MOL0     N15495   1.662   1.592   7.690 -0.2162  0.1370 -0.1641
  118MOL0     C15496   2.687   1.959   7.077 -0.4780  0.8741  0.0104
  118MOL0     C15497   2.803   1.939   7.014  0.8618 -0.8944 -0.7717
  118MOL0     C15498   3.251   1.886   6.927  0.7126 -0.0287 -1.0678
  118MOL0     C15499   3.381   1.906   6.977  0.2116 -0.4573 -0.1334
  118MOL0     C15500   3.486   1.888   6.886 -0.6962 -0.3062  0.2398
  118MOL0     C15501   3.469   1.868   6.746  0.3869  0.0566  0.0898
  118MOL0     O15502   3.567   1.860   6.650 -0.0078  0.3779 -0.6675
  118MOL0     C15503   3.709   1.879   6.682  0.5401  0.4557 -0.1461
  118MOL0     C15504   3.789   1.879   6.556 -0.5605  0.1945  0.4752
  118MOL0     C15505   3.747   1.764   6.466 -0.9833  0.1132  0.2270
  118MOL0     C15506   3.846   1.772   6.339  0.1297  0.0771  0.2123
  118MOL0     C15507   3.816   1.894   6.254 -0.2103 -0.2948 -0.4782
  118MOL0     C15508   3.802   2.001   6.206 -0.3150 -0.5713  0.7152
  118MOL0     C15509   3.340   1.843   6.706  0.7332 -0.0473  0.2961
  118MOL0     C15510   3.235   1.859   6.790 -0.1756 -0.1192 -0.6775
  118MOL0     H15511   2.997   1.796   7.241 -0.4142 -0.0992  1.6238
  118MOL0     H15512   2.764   1.801   7.367  1.3001  3.4472  1.8115
  118MOL0     H15513   2.568   1.757   7.408  0.8556  1.5626  0.9726
  118MOL0     H15514   2.447   1.730   7.272 -2.6279  2.3910 -0.0478
  118MOL0     H15515   2.335   1.928   7.351 -0.8526  2.2629  2.5951
  118MOL0     H15516   2.429   1.917   7.495 -0.2899 -0.2338 -1.2090
  118MOL0     H15517   2.351   1.670   7.512 -0.6450  0.4840  1.2518
  118MOL0     H15518   2.241   1.691   7.383 -0.2856  0.4325  0.0353
  118MOL0     H15519   2.246   1.865   7.629  2.6435 -1.7359  0.0147
  118MOL0     H15520   2.108   1.862   7.510 -0.2755 -1.3422  0.7339
  118MOL0     H15521   2.043   1.761   7.729 -1.5798  1.5937 -1.9567
  118MOL0     H15522   2.195   1.662   7.713  1.0791 -1.0618 -2.5942
  118MOL0     H15523   1.987   1.533   7.660 -3.8512  1.5869 -0.6400
  118MOL0     H15524   2.093   1.544   7.520  2.9172  3.0809  0.3454
  118MOL0     H15525   1.848   1.721   7.563 -1.7704 -0.8681 -0.2515
  118MOL0     H15526   1.914   1.690   7.400  0.9107  3.4524  1.4958
  118MOL0     H15527   1.854   1.438   7.455  2.7303  1.0158  1.9510
  118MOL0     H15528   1.721   1.546   7.404  0.2000 -2.6322 -0.9953
  118MOL0     H15529   1.666   1.285   7.582 -3.1307 -0.7774 -0.8875
  118MOL0     H15530   1.449   1.306   7.880 -4.3630  0.5786 -0.9878
  118MOL0     H15531   1.553   1.201   7.790 -0.6059  0.7469  0.3965
  118MOL0     H15532   1.360   1.122   7.694  0.4891 -0.2197  2.6725
  118MOL0     H15533   1.399   1.266   7.594  0.9966  0.5477  0.8637
  118MOL0     H15534   1.211   1.236   7.814  0.6916 -2.5391 -1.6849
  118MOL0     H15535   1.248   1.401   7.761 -2.0589 -0.2310  0.1131
  118MOL0     H15536   1.115   1.189   7.587 -0.3947  1.1890 -1.4965
  118MOL0     H15537   1.174   1.343   7.530 -0.2662  0.2125 -0.1875
  118MOL0     H15538   0.820   1.391   7.806 -1.0840  1.9554  0.6300
  118MOL0     H15539   0.582   1.293   7.771 -0.4651  1.2813 -0.9347
  118MOL0     H15540   0.351   0.939   7.516 -2.3964  1.7598  1.4668
  118MOL0     H15541   0.156   0.827   7.431  3.4238 -1.2573  1.4691
  118MOL0     H15542  -0.153   0.837   7.201  2.4747 -1.4966 -2.3807
  118MOL0     H15543  -0.079   0.982   7.115  2.2224  2.1143  1.1512
  118MOL0     H15544  -0.054   1.067   7.363  2.4717  0.4432 -3.4866
  118MOL0     H15545  -0.160   0.934   7.406  0.0670 -0.6007 -1.0069
  118MOL0     H15546  -0.320   1.034   7.217 -0.2384 -1.0111 -0.7959
  118MOL0     H15547  -0.203   1.165   7.210 -0.2210  1.3525  0.8087
  118MOL0     H15548  -0.366   1.081   7.451  2.5420  0.8883  2.7173
  118MOL0     H15549  -0.232   1.194   7.461 -0.2783  2.7406 -1.7659
  118MOL0     H15550  -0.480   1.259   7.304 -1.5480 -0.0186  1.7662
  118MOL0     H15551  -0.324   1.350   7.312 -0.8719 -0.3283 -1.4051
  118MOL0     H15552  -0.361   1.377   7.547  0.1417 -3.1011  0.3473
  118MOL0     H15553  -0.503   1.275   7.535  2.1652 -1.2651  1.4316
  118MOL0     H15554  -0.510   1.507   7.346 -0.1702  2.2604  0.3801
  118MOL0     H15555  -0.646   1.447   7.446 -0.6219 -1.0346  1.9054
  118MOL0     H15556  -0.596   1.659   7.496 -3.0080 -1.5147  0.7492
  118MOL0     H15557  -0.429   1.615   7.555 -1.4211  2.4421  1.4402
  118MOL0     H15558   0.170   1.049   7.071 -0.9147 -2.8360  0.3352
  118MOL0     H15559   0.359   1.200   7.168 -0.3289  1.8353  2.1983
  118MOL0     H15560   0.734   1.172   7.383 -0.2828  0.5020 -0.5944
  118MOL0     H15561   0.961   1.242   7.448  0.9286  0.8981  2.1079
  118MOL0     H15562   2.596   1.994   7.029 -0.9528 -0.8978 -0.4626
  118MOL0     H15563   2.807   1.965   6.908  1.3346 -1.4078 -0.8859
  118MOL0     H15564   3.406   1.922   7.081  1.1331  2.9263 -0.7702
  118MOL0     H15565   3.584   1.898   6.933 -1.2426  5.9141  0.8986
  118MOL0     H15566   3.745   1.797   6.745  1.9016 -0.5858 -2.1907
  118MOL0     H15567   3.717   1.977   6.731 -3.4011  0.1007  1.5804
  118MOL0     H15568   3.767   1.969   6.497  0.8300 -1.1995 -2.3869
  118MOL0     H15569   3.895   1.881   6.585  1.3774  0.2745 -5.3075
  118MOL0     H15570   3.642   1.772   6.434 -0.6516 -0.4324 -1.0601
  118MOL0     H15571   3.767   1.675   6.526  1.6761  0.5921  0.1649
  118MOL0     H15572   3.947   1.776   6.381 -0.3354  1.0465  1.3031
  118MOL0     H15573   3.833   1.683   6.276 -2.0306  1.0042 -0.7368
  118MOL0     H15574   3.804   2.101   6.166 -0.9271 -1.1526 -0.8666
  118MOL0     H15575   3.318   1.819   6.603 -1.2371 -1.0153  0.8923
  118MOL0     H15576   3.137   1.838   6.749 -1.1660  0.9102  1.0316
  119MOL0     O15577  10.255   3.709   2.304  0.9025 -0.0780 -0.2097
  119MOL0     C15578  10.316   3.801   2.350  0.9756 -0.6326  0.1786
  119MOL0     O15579  10.263   3.913   2.411  0.7755 -0.0019  0.2231
  119MOL0     C15580  10.130   3.923   2.420  0.9366 -0.7574 -0.8766
  119MOL0     C15581  10.054   3.822   2.479  0.4346  0.4828 -0.5302
  119MOL0     C15582   9.911   3.835   2.477  0.5626 -0.2826 -0.2538
  119MOL0     C15583   9.856   3.960   2.445  0.4805 -0.3360 -0.5168
  119MOL0     O15584   9.725   3.981   2.479  0.4303  0.0227 -0.1384
  119MOL0     C15585   9.634   4.069   2.401 -1.3512 -0.0719  0.5122
  119MOL0     C15586   9.496   4.041   2.452 -1.1283 -0.0255  1.2593
  119MOL0     C15587   9.426   3.925   2.405 -0.1185  0.5087 -1.0802
  119MOL0     C15588   9.278   3.955   2.360 -0.3075 -0.3594  0.3060
  119MOL0     C15589   9.165   3.868   2.416  0.9828  0.0285 -0.6300
  119MOL0     C15590   9.033   3.926   2.350  0.3569 -1.2200 -0.1896
  119MOL0     C15591   8.908   3.855   2.369  0.6050 -0.0077  0.6604
  119MOL0     C15592   8.865   3.854   2.514 -0.0378  0.1069 -0.2499
  119MOL0     N15593   8.824   3.987   2.553  0.0397  0.3741  0.1025
  119MOL0     C15594   8.893   4.076   2.629  0.2212  0.5889 -0.7729
  119MOL0     C15595   8.818   4.179   2.631  0.0740 -0.5977  0.1234
  119MOL0     C15596   8.846   4.312   2.706  0.2157  0.4725  0.4272
  119MOL0     C15597   8.919   4.410   2.608  0.2696  0.9602  0.3936
  119MOL0     C15598   8.972   4.523   2.679  0.0727 -0.9924 -0.4829
  119MOL0     C15599   9.056   4.602   2.576  0.1786 -0.1433 -0.4406
  119MOL0     O15600   9.184   4.541   2.555 -0.2278 -0.3985 -0.0889
  119MOL0     C15601   9.260   4.586   2.450 -0.3033 -0.1995 -0.5680
  119MOL0     C15602   9.382   4.519   2.437  0.9685  0.0145  0.7301
  119MOL0     C15603   9.478   4.571   2.352 -0.4673 -0.5210  0.1242
  119MOL0     C15604   9.442   4.673   2.265 -0.3046  0.6711 -1.0175
  119MOL0     C15605   9.550   4.726   2.178  0.4122  0.0177  0.6353
  119MOL0     O15606   9.677   4.688   2.188  0.1062 -0.6013 -0.8640
  119MOL0     C15607   9.777   4.760   2.130  0.0680 -0.0457 -0.7663
  119MOL0     C15608   9.902   4.696   2.119 -0.1013 -1.0439  0.0632
  119MOL0     C15609  10.023   4.762   2.080  0.6010  0.0686  0.1033
  119MOL0     C15610  10.014   4.903   2.050 -0.6385  0.6982 -0.0855
  119MOL0     O15611  10.114   4.985   2.014  0.0451 -0.1768  0.6654
  119MOL0     C15612  10.238   4.922   1.997 -0.2063 -0.2071 -0.1960
  119MOL0     C15613  10.346   5.026   1.967 -0.8584  0.3771 -0.7727
  119MOL0     C15614  10.467   4.958   1.907 -0.1459 -0.1295 -1.1787
  119MOL0     C15615  10.467   4.953   1.755  0.3105 -0.7571 -0.4896
  119MOL0     C15616  10.609   4.906   1.712 -0.7701 -0.2473  0.0182
  119MOL0     C15617  10.619   4.884   1.564 -0.1795  0.4261 -0.8798
  119MOL0     C15618  10.559   4.750   1.519  0.6819 -0.5421  0.9730
  119MOL0     C15619  10.640   4.702   1.393  1.0123 -0.0826 -0.4846
  119MOL0    Cl15620  10.573   4.529   1.354 -0.0094 -0.0932 -0.0701
  119MOL0     C15621   9.889   4.965   2.068 -0.2709  0.2476 -0.3387
  119MOL0     C15622   9.776   4.898   2.101  1.1401 -0.2057  1.0522
  119MOL0     O15623   9.518   4.809   2.103 -0.0118  0.1098 -0.1036
  119MOL0     C15624   9.317   4.729   2.274  0.4377  0.6387 -0.7315
  119MOL0     C15625   9.226   4.690   2.363 -0.0802  0.2455  0.1021
  119MOL0     N15626   8.691   4.142   2.567 -0.6508 -0.2929 -0.9108
  119MOL0     N15627   8.699   4.028   2.513  0.3554  0.2514  0.0255
  119MOL0     C15628   9.933   4.058   2.391  0.1845  0.0940 -0.6499
  119MOL0     C15629  10.070   4.043   2.384  0.4766 -0.1185  0.8758
  119MOL0     C15630  10.462   3.794   2.331 -0.2631 -0.5670  0.3031
  119MOL0     C15631  10.546   3.899   2.375 -0.0335  0.4059 -0.0521
  119MOL0     C15632  10.686   3.881   2.362 -0.0527 -0.9186 -0.6693
  119MOL0     C15633  10.740   3.779   2.291 -0.0709  0.0810  0.8914
  119MOL0     O15634  10.879   3.746   2.262  0.1901 -0.0518 -0.0554
  119MOL0     C15635  10.955   3.760   2.379 -0.8924  0.7162 -0.0913
  119MOL0     C15636  11.097   3.694   2.352  0.6275  0.0541  0.3066
  119MOL0     C15637  11.080   3.552   2.317  0.4086  0.7301 -0.4144
  119MOL0     C15638  11.102   3.517   2.167  1.4469 -0.8717 -0.2313
  119MOL0     C15639  11.241   3.503   2.138  0.2672 -0.1742 -0.0038
  119MOL0     C15640  11.362   3.511   2.114  0.8856  0.0308 -0.0617
  119MOL0     C15641  10.658   3.683   2.240  0.5128  0.7165  0.6430
  119MOL0     C15642  10.517   3.686   2.261 -0.6638  0.6982  0.2564
  119MOL0     H15643  10.111   3.742   2.524  1.6144  0.0324 -2.6733
  119MOL0     H15644   9.838   3.762   2.512 -0.7475  1.2433  0.3142
  119MOL0     H15645   9.647   4.062   2.292 -3.0699 -0.8527  0.3200
  119MOL0     H15646   9.661   4.172   2.426 -2.2085 -0.4255  3.2590
  119MOL0     H15647   9.452   4.133   2.412 -3.0224 -0.7876  1.4785
  119MOL0     H15648   9.503   4.034   2.561 -1.8394  0.6455  1.3569
  119MOL0     H15649   9.425   3.846   2.481 -0.1600 -0.3031 -1.9147
  119MOL0     H15650   9.483   3.888   2.320  0.9449 -1.0498  0.2535
  119MOL0     H15651   9.260   4.059   2.391  0.1342 -0.4001  0.7069
  119MOL0     H15652   9.277   3.945   2.251 -0.3098 -2.8296  0.4982
  119MOL0     H15653   9.167   3.876   2.525  1.8182 -3.2922 -0.2964
  119MOL0     H15654   9.183   3.762   2.395  1.9578  0.0585 -0.0263
  119MOL0     H15655   9.046   3.933   2.242 -1.9303  2.7575 -0.4256
  119MOL0     H15656   9.020   4.032   2.373 -0.5845 -1.4514  0.4107
  119MOL0     H15657   8.834   3.907   2.308  2.7116  0.7277 -1.4328
  119MOL0     H15658   8.908   3.754   2.328 -3.2138  0.7531 -1.7197
  119MOL0     H15659   8.952   3.821   2.572 -0.8085 -2.5771 -0.4522
  119MOL0     H15660   8.781   3.784   2.520  1.6992 -2.0412  0.4107
  119MOL0     H15661   8.994   4.074   2.670  0.5564 -0.6574 -1.5922
  119MOL0     H15662   8.898   4.302   2.802  1.9237 -0.1546 -0.5217
  119MOL0     H15663   8.747   4.358   2.713  0.7840  2.0264 -1.0010
  119MOL0     H15664   8.863   4.436   2.518 -0.3460  0.7407  0.7080
  119MOL0     H15665   9.007   4.355   2.574  0.5911  1.5746  0.2179
  119MOL0     H15666   8.882   4.578   2.709  0.6740 -0.6044  0.6956
  119MOL0     H15667   9.033   4.492   2.765 -0.6467 -1.5600 -0.1614
  119MOL0     H15668   9.067   4.705   2.611 -2.1617  1.2792 -3.4488
  119MOL0     H15669   8.994   4.611   2.486 -0.4190 -0.2414 -0.0440
  119MOL0     H15670   9.391   4.428   2.494  2.1116  0.3901  1.1806
  119MOL0     H15671   9.573   4.521   2.334 -0.9543 -1.0873 -0.9936
  119MOL0     H15672   9.903   4.589   2.131 -3.2566 -0.9932  1.9078
  119MOL0     H15673  10.110   4.709   2.043  0.7775  1.2752 -1.3461
  119MOL0     H15674  10.249   4.854   1.912  3.6216 -1.8329  1.3427
  119MOL0     H15675  10.266   4.878   2.094  0.5211  2.4511  0.8741
  119MOL0     H15676  10.373   5.075   2.061 -1.3270 -0.9950  0.1242
  119MOL0     H15677  10.309   5.104   1.900 -2.4298 -0.6922 -1.2137
  119MOL0     H15678  10.477   4.860   1.954 -1.0567 -0.3326 -1.3998
  119MOL0     H15679  10.554   5.011   1.947 -0.7189 -0.1960  0.2219
  119MOL0     H15680  10.388   4.886   1.721  0.8782 -0.9376 -1.4975
  119MOL0     H15681  10.445   5.055   1.723  2.7372 -0.8923 -2.9266
  119MOL0     H15682  10.621   4.814   1.769 -2.0014 -1.3759 -1.4590
  119MOL0     H15683  10.679   4.985   1.741 -0.9060 -0.7525  1.8058
  119MOL0     H15684  10.728   4.875   1.553 -0.3452 -3.2646 -0.7041
  119MOL0     H15685  10.568   4.963   1.508  2.1221  0.9383 -2.3842
  119MOL0     H15686  10.574   4.673   1.595 -1.9419 -1.6576  0.4940
  119MOL0     H15687  10.450   4.754   1.515  0.4802 -3.4145  1.0939
  119MOL0     H15688  10.747   4.698   1.416  1.0653  0.7649 -0.5371
  119MOL0     H15689  10.619   4.750   1.297  1.1900  0.8245 -0.0779
  119MOL0     H15690   9.894   5.072   2.052  1.7679  0.2347  0.0179
  119MOL0     H15691   9.691   4.958   2.130 -0.9854 -1.3178 -2.3096
  119MOL0     H15692   9.280   4.798   2.199  0.7644 -0.3391 -1.8378
  119MOL0     H15693   9.131   4.741   2.352  1.5757  3.9405  1.5199
  119MOL0     H15694   9.898   4.157   2.361 -0.8124 -0.4004 -1.1713
  119MOL0     H15695  10.129   4.127   2.347 -3.0215  2.8751  1.4945
  119MOL0     H15696  10.488   3.976   2.425  0.4855  0.1200  1.0267
  119MOL0     H15697  10.755   3.957   2.398  2.1023 -3.3221  0.6202
  119MOL0     H15698  10.905   3.705   2.459  0.4854 -2.2820 -1.1506
  119MOL0     H15699  10.959   3.867   2.399  2.3330  0.4656  1.3197
  119MOL0     H15700  11.148   3.747   2.272 -2.5212  1.1583 -1.1135
  119MOL0     H15701  11.145   3.715   2.448 -1.6000 -0.4704  1.6046
  119MOL0     H15702  10.980   3.521   2.349  0.5758 -0.5460 -1.0688
  119MOL0     H15703  11.148   3.499   2.384  0.7953  0.6116 -0.8942
  119MOL0     H15704  11.048   3.425   2.139  0.9260  0.0505 -2.4718
  119MOL0     H15705  11.056   3.598   2.111 -0.0477 -0.7361  1.1289
  119MOL0     H15706  11.465   3.526   2.086  1.2657 -0.7080  0.9158
  119MOL0     H15707  10.704   3.597   2.194 -0.9962  0.4047 -0.3465
  119MOL0     H15708  10.452   3.607   2.224 -0.3147 -0.8841  2.7931
  120MOL0     O15709   3.050   4.429   7.797 -0.5343 -0.5005 -0.0002
  120MOL0     C15710   3.110   4.388   7.695 -0.3050 -1.2262  0.7424
  120MOL0     O15711   3.058   4.310   7.594  0.1948  0.1448  0.6321
  120MOL0     C15712   2.932   4.262   7.600 -0.8201 -0.3721  0.0602
  120MOL0     C15713   2.888   4.218   7.474  0.1475 -0.3874 -0.3798
  120MOL0     C15714   2.772   4.153   7.454 -0.1589 -1.4018 -0.3802
  120MOL0     C15715   2.684   4.119   7.563  0.1750 -0.6239 -0.7711
  120MOL0     O15716   2.549   4.076   7.548  0.1759  0.4540 -0.8813
  120MOL0     C15717   2.482   4.014   7.660 -0.4473 -0.6354  0.7584
  120MOL0     C15718   2.356   3.931   7.619 -0.1785  0.3113 -0.1637
  120MOL0     C15719   2.392   3.831   7.510 -0.3912 -0.2953  0.4562
  120MOL0     C15720   2.274   3.748   7.475  0.2601 -0.1665 -0.5600
  120MOL0     C15721   2.311   3.626   7.389 -0.1012  1.0320  0.8340
  120MOL0     C15722   2.185   3.565   7.315 -0.2978 -0.5745 -0.3523
  120MOL0     C15723   2.235   3.466   7.203 -0.1595  0.2656  0.1481
  120MOL0     C15724   2.124   3.364   7.172  0.5859  0.2188  0.0678
  120MOL0     N15725   2.152   3.251   7.087  0.2007  0.2012 -0.7913
  120MOL0     C15726   2.250   3.157   7.110  0.7665  0.0273 -0.7046
  120MOL0     C15727   2.222   3.056   7.023 -0.4477  0.2759  0.5988
  120MOL0     C15728   2.280   2.926   6.994 -0.0701 -0.6943  0.1024
  120MOL0     C15729   2.423   2.928   6.933 -0.2476 -0.4873 -0.5442
  120MOL0     C15730   2.424   3.003   6.793  0.8764 -0.1784  0.0238
  120MOL0     C15731   2.557   3.002   6.715 -0.3985 -0.3961 -1.2105
  120MOL0     O15732   2.608   2.862   6.707  0.2168  0.2819  0.1865
  120MOL0     C15733   2.731   2.844   6.645 -0.1191 -0.2194 -0.2214
  120MOL0     C15734   2.770   2.709   6.628 -0.2313  0.5954  0.6040
  120MOL0     C15735   2.904   2.673   6.576  0.5344 -0.4119  0.4079
  120MOL0     C15736   2.980   2.777   6.525 -0.2153 -0.7317 -0.1532
  120MOL0     C15737   3.106   2.770   6.450  0.1032 -0.5108  0.3787
  120MOL0     O15738   3.180   2.665   6.483  0.0642 -0.1133 -0.2858
  120MOL0     C15739   3.319   2.666   6.444 -0.3491 -0.1845  0.1649
  120MOL0     C15740   3.353   2.579   6.346 -0.2634  0.0411  0.6404
  120MOL0     C15741   3.492   2.563   6.303  0.3058 -0.6147 -0.4197
  120MOL0     C15742   3.580   2.660   6.349 -0.6546 -0.1943  0.0071
  120MOL0     O15743   3.707   2.657   6.310  0.3945  0.4132 -0.0970
  120MOL0     C15744   3.753   2.778   6.239  0.0773 -0.0908  0.2624
  120MOL0     C15745   3.889   2.820   6.307 -0.1438 -0.3757 -0.2087
  120MOL0     C15746   3.993   2.715   6.301 -0.8502 -0.2911 -0.0228
  120MOL0     C15747   4.141   2.772   6.319  0.0080 -0.6422 -0.6110
  120MOL0     C15748   4.246   2.686   6.244  0.2231  0.1263  0.3614
  120MOL0     C15749   4.377   2.713   6.299  1.2851 -0.1139  0.5655
  120MOL0     C15750   4.474   2.607   6.258  0.6885  0.2414 -0.4343
  120MOL0     C15751   4.610   2.691   6.263 -0.0352 -0.7043  0.2908
  120MOL0    Cl15752   4.730   2.586   6.194  0.6441  0.4162 -0.1537
  120MOL0     C15753   3.548   2.761   6.438  0.4750  0.5713  0.2550
  120MOL0     C15754   3.417   2.759   6.490  0.2993  0.2673  0.0485
  120MOL0     O15755   3.146   2.856   6.363  1.0811  0.2090 -0.4573
  120MOL0     C15756   2.935   2.904   6.544  0.3333 -0.2465 -0.0415
  120MOL0     C15757   2.813   2.941   6.595  0.4757  0.3275  0.5873
  120MOL0     N15758   2.115   3.099   6.948 -0.1614  0.6991  0.7248
  120MOL0     N15759   2.074   3.208   6.988  0.2010 -0.2427  0.5011
  120MOL0     C15760   2.731   4.159   7.690  0.1449  1.1082  0.3635
  120MOL0     C15761   2.853   4.223   7.708  0.5731  0.5901  0.9103
  120MOL0     C15762   3.260   4.395   7.685 -0.3971 -0.0960 -0.6148
  120MOL0     C15763   3.345   4.427   7.798  0.0137 -0.2146  0.5496
  120MOL0     C15764   3.485   4.439   7.788  0.2918  0.6094  0.0661
  120MOL0     C15765   3.542   4.411   7.661 -0.0870  0.0720 -0.0540
  120MOL0     O15766   3.673   4.436   7.641 -0.0832 -0.3761  0.6740
  120MOL0     C15767   3.763   4.484   7.749 -0.2856 -0.5687  0.7312
  120MOL0     C15768   3.898   4.497   7.673 -0.9254 -0.9961 -0.2804
  120MOL0     C15769   4.002   4.551   7.776  0.0157  0.2261  0.0299
  120MOL0     C15770   4.143   4.576   7.722  0.3457  0.4011  0.4546
  120MOL0     C15771   4.238   4.605   7.835  0.5582  0.3767 -0.0207
  120MOL0     C15772   4.312   4.623   7.930 -0.3473 -1.0277  0.0144
  120MOL0     C15773   3.456   4.378   7.548 -0.0532  0.2602 -1.0393
  120MOL0     C15774   3.324   4.376   7.559  0.8811 -0.0282  0.6671
  120MOL0     H15775   2.958   4.241   7.394  1.4284 -0.2797  0.7327
  120MOL0     H15776   2.742   4.123   7.354  0.7318 -1.7635 -0.5433
  120MOL0     H15777   2.455   4.093   7.730  1.5847  0.2860  0.5844
  120MOL0     H15778   2.548   3.953   7.722 -1.1158  0.1404  2.2894
  120MOL0     H15779   2.271   3.989   7.584 -0.5483 -0.1260 -0.0081
  120MOL0     H15780   2.328   3.876   7.709  0.6003 -0.0992 -0.1596
  120MOL0     H15781   2.470   3.760   7.538  1.6458  1.0713 -1.4268
  120MOL0     H15782   2.424   3.880   7.417 -1.8179  0.4801  0.3395
  120MOL0     H15783   2.212   3.730   7.563 -0.2091  1.9528 -0.4171
  120MOL0     H15784   2.214   3.808   7.406 -1.0287 -1.4330 -0.5935
  120MOL0     H15785   2.349   3.538   7.442  3.3573  0.6605 -1.9223
  120MOL0     H15786   2.389   3.652   7.317 -1.3010 -0.7539 -1.2270
  120MOL0     H15787   2.126   3.646   7.272  0.9152  1.2121  1.1690
  120MOL0     H15788   2.121   3.516   7.389 -1.0013 -1.1589 -1.3287
  120MOL0     H15789   2.272   3.524   7.118  0.6461  1.8056  1.5001
  120MOL0     H15790   2.316   3.403   7.242 -1.6493 -0.8313  1.6161
  120MOL0     H15791   2.043   3.423   7.126  1.4361  1.1040 -0.3421
  120MOL0     H15792   2.078   3.322   7.261 -1.6611  0.1852 -1.0245
  120MOL0     H15793   2.325   3.154   7.188  3.0578 -1.1584 -2.8148
  120MOL0     H15794   2.208   2.873   6.930  0.4735 -1.4762  0.1189
  120MOL0     H15795   2.270   2.883   7.094 -3.9515  2.0814  1.1551
  120MOL0     H15796   2.451   2.823   6.917  1.0560 -0.4246  1.0213
  120MOL0     H15797   2.495   2.967   7.006 -1.7967 -0.8996  1.3021
  120MOL0     H15798   2.353   2.959   6.722 -1.7619 -0.0941  2.4257
  120MOL0     H15799   2.398   3.109   6.800  1.1727 -0.0088 -1.2367
  120MOL0     H15800   2.626   3.064   6.773 -3.1632  0.3308  1.5312
  120MOL0     H15801   2.543   3.058   6.622  3.5542  2.3516 -0.3843
  120MOL0     H15802   2.694   2.632   6.640  1.4770 -1.1469  0.6220
  120MOL0     H15803   2.944   2.573   6.563 -0.5323 -0.8464  0.3983
  120MOL0     H15804   3.273   2.507   6.330 -0.2651 -0.4472  2.6317
  120MOL0     H15805   3.510   2.480   6.234 -0.3804  1.3179 -3.0947
  120MOL0     H15806   3.685   2.864   6.245 -0.5578 -0.6153  0.7849
  120MOL0     H15807   3.775   2.763   6.133  3.2762  0.4748  0.7638
  120MOL0     H15808   3.870   2.838   6.413  0.1762 -1.8087  0.1037
  120MOL0     H15809   3.922   2.913   6.258  1.7192 -2.4761 -3.2845
  120MOL0     H15810   3.977   2.656   6.210 -1.4201  1.4321 -1.0926
  120MOL0     H15811   3.966   2.649   6.384 -3.0580 -1.6804 -1.6943
  120MOL0     H15812   4.149   2.874   6.281  2.6284 -0.5808 -0.0907
  120MOL0     H15813   4.166   2.782   6.425 -2.1219 -4.5424  0.4372
  120MOL0     H15814   4.246   2.708   6.137  1.2836  2.0491  0.7146
  120MOL0     H15815   4.221   2.580   6.256 -4.2702  1.0799  1.1528
  120MOL0     H15816   4.379   2.717   6.409 -2.8151 -2.7899  0.9577
  120MOL0     H15817   4.393   2.813   6.258  0.5916 -0.1650  0.1541
  120MOL0     H15818   4.475   2.525   6.330  1.4458  2.9865  2.9628
  120MOL0     H15819   4.449   2.568   6.159 -2.5804 -1.6391  0.9861
  120MOL0     H15820   4.631   2.732   6.362  1.8912  2.3898 -1.2420
  120MOL0     H15821   4.611   2.774   6.191  1.2246 -1.4378 -0.5680
  120MOL0     H15822   3.626   2.824   6.479 -0.2174  0.4924  1.7322
  120MOL0     H15823   3.397   2.837   6.563 -2.6443  1.4876 -1.8657
  120MOL0     H15824   2.995   2.989   6.513 -0.7071  0.6418  0.2940
  120MOL0     H15825   2.778   3.043   6.606 -3.3553 -0.4406 -2.4229
  120MOL0     H15826   2.672   4.130   7.776 -2.8689 -3.5439 -2.7615
  120MOL0     H15827   2.895   4.243   7.806  0.7498  0.9698  0.7598
  120MOL0     H15828   3.300   4.462   7.890 -4.0694 -0.1988 -1.2647
  120MOL0     H15829   3.546   4.465   7.874  0.3293 -0.2990  0.3248
  120MOL0     H15830   3.764   4.424   7.840 -1.9560  2.4580  2.9306
  120MOL0     H15831   3.721   4.579   7.783 -1.8591 -1.0275  0.1624
  120MOL0     H15832   3.930   4.399   7.635  0.1196 -0.7084 -0.1625
  120MOL0     H15833   3.898   4.571   7.593 -0.1212  1.2477  1.6807
  120MOL0     H15834   3.997   4.494   7.870  0.4988  0.0322 -0.0639
  120MOL0     H15835   3.966   4.648   7.811 -1.2295  0.1165 -0.8710
  120MOL0     H15836   4.179   4.483   7.677 -1.9784  0.6655 -2.2167
  120MOL0     H15837   4.132   4.660   7.652  0.1254  1.7517  2.0503
  120MOL0     H15838   4.373   4.651   8.012 -2.1138  0.1412  0.9983
  120MOL0     H15839   3.501   4.348   7.454  0.2560 -1.6212 -0.3335
  120MOL0     H15840   3.265   4.352   7.471  0.9997  1.1071  0.2667
  121MOL0     O15841   4.110   9.422   9.908  0.1685  0.4989  0.0464
  121MOL0     C15842   4.175   9.498   9.978  0.0165 -0.9658  0.2544
  121MOL0     O15843   4.124   9.579  10.071 -0.4486  0.0728 -0.0289
  121MOL0     C15844   3.990   9.567  10.107  0.0047  0.1318 -0.4815
  121MOL0     C15845   3.916   9.685  10.081 -0.0621 -0.4410 -0.3292
  121MOL0     C15846   3.786   9.684  10.117 -0.1529 -0.5255  0.6458
  121MOL0     C15847   3.714   9.565  10.151 -0.4707  0.6344 -0.5597
  121MOL0     O15848   3.579   9.575  10.179  0.4664  0.3971 -0.4278
  121MOL0     C15849   3.508   9.459  10.202  0.9631 -0.7842  0.8045
  121MOL0     C15850   3.362   9.505  10.176 -0.3728  0.7574  0.2636
  121MOL0     C15851   3.320   9.624  10.260  0.4362  0.1274  0.3956
  121MOL0     C15852   3.166   9.631  10.252 -0.2820  0.1113  0.5393
  121MOL0     C15853   3.113   9.713  10.369  0.5868 -0.0781 -0.1486
  121MOL0     C15854   2.963   9.693  10.365 -0.0569 -0.4158  0.1616
  121MOL0     C15855   2.911   9.773  10.485  0.9772  0.4224 -0.2005
  121MOL0     C15856   2.759   9.764  10.511  0.3099  0.7525 -0.3552
  121MOL0     N15857   2.677   9.839  10.423  0.2909  0.1080 -0.4490
  121MOL0     C15858   2.707   9.920  10.318  0.5475  0.0660 -0.0692
  121MOL0     C15859   2.590   9.967  10.272  0.1725 -0.3607 -0.3283
  121MOL0     C15860   2.574  10.066  10.148 -0.0289  0.5978 -0.0780
  121MOL0     C15861   2.556  10.204  10.189 -0.4593  0.0659  0.2638
  121MOL0     C15862   2.684  10.257  10.265  0.1366  0.1832 -0.1605
  121MOL0     C15863   2.679  10.409  10.293 -0.2543 -0.0603  0.0092
  121MOL0     O15864   2.742  10.489  10.186 -0.1416  0.6739 -0.0356
  121MOL0     C15865   2.882  10.501  10.184  0.5830  0.0468 -0.0049
  121MOL0     C15866   2.950  10.587  10.099 -0.1443  0.0968  0.1555
  121MOL0     C15867   3.077  10.626  10.105  0.4493 -0.1329 -0.8469
  121MOL0     C15868   3.164  10.551  10.189  0.1173 -0.1428  0.1476
  121MOL0     C15869   3.308  10.574  10.201  0.5181 -0.2874  0.5231
  121MOL0     O15870   3.388  10.466  10.239 -0.1259 -0.5774  0.1400
  121MOL0     C15871   3.521  10.500  10.261  0.1758  0.7551 -0.5121
  121MOL0     C15872   3.628  10.432  10.202 -0.1774  0.2004 -0.2508
  121MOL0     C15873   3.766  10.455  10.235  0.1090  0.9624  0.3526
  121MOL0     C15874   3.799  10.542  10.340  0.3106  0.3608 -0.0142
  121MOL0     O15875   3.922  10.557  10.397  0.1429  0.0564  0.3518
  121MOL0     C15876   3.996  10.678  10.365 -0.7144  0.9670 -0.0847
  121MOL0     C15877   4.085  10.647  10.247  0.9241 -0.1462  0.2558
  121MOL0     C15878   4.171  10.521  10.283  0.2318 -0.3406  0.9740
  121MOL0     C15879   4.275  10.491  10.171 -0.0183  0.3024 -0.0184
  121MOL0     C15880   4.210  10.487  10.028 -0.9287  0.1210  0.3895
  121MOL0     C15881   4.319  10.439   9.935  0.6290 -0.1505  0.8774
  121MOL0     C15882   4.263  10.425   9.792  0.5037 -0.5673  0.2481
  121MOL0     C15883   4.373  10.415   9.687  0.7453 -0.4992 -0.5673
  121MOL0    Cl15884   4.292  10.389   9.527  0.3954 -0.0961  0.1610
  121MOL0     C15885   3.690  10.604  10.409  0.6816 -0.1059 -0.0740
  121MOL0     C15886   3.557  10.584  10.366  0.6204 -0.5790  0.7144
  121MOL0     O15887   3.350  10.683  10.167  0.1962 -0.1890 -1.0466
  121MOL0     C15888   3.104  10.458  10.275 -0.0152 -0.4591  0.2226
  121MOL0     C15889   2.964  10.429  10.267  0.6921  0.0194  0.3088
  121MOL0     N15890   2.489   9.917  10.344 -0.0699 -0.0195 -1.4580
  121MOL0     N15891   2.542   9.829  10.423  0.5420  0.1511  0.1430
  121MOL0     C15892   3.790   9.448  10.166  0.2788 -0.1304 -0.3624
  121MOL0     C15893   3.930   9.447  10.151 -0.6417 -0.6862 -0.6716
  121MOL0     C15894   4.322   9.509   9.964  0.1178 -0.4081  0.1523
  121MOL0     C15895   4.400   9.577  10.063  0.4322  0.5704  0.8593
  121MOL0     C15896   4.526   9.596  10.054 -0.6116  0.4000  0.2612
  121MOL0     C15897   4.592   9.538   9.948 -0.8899 -0.3777 -0.4117
  121MOL0     O15898   4.729   9.553   9.920  0.4221 -0.0705  0.1884
  121MOL0     C15899   4.817   9.606  10.017  0.3429 -0.9443 -0.3138
  121MOL0     C15900   4.969   9.583   9.970  0.9034 -0.4874  0.1058
  121MOL0     C15901   4.986   9.612   9.816  0.4069 -0.6721 -0.3245
  121MOL0     C15902   5.125   9.577   9.757  0.1524 -0.3414 -0.1084
  121MOL0     C15903   5.241   9.628   9.837 -0.5913 -0.1279 -1.1549
  121MOL0     C15904   5.320   9.672   9.916 -0.1309  0.3100 -0.0478
  121MOL0     C15905   4.526   9.479   9.845  0.4782 -0.1838 -0.2721
  121MOL0     C15906   4.389   9.458   9.853 -0.2643 -0.8814 -0.5297
  121MOL0     H15907   3.962   9.779  10.053 -0.3725 -0.5550 -1.2438
  121MOL0     H15908   3.733   9.778  10.104  0.4501 -0.3506 -0.7449
  121MOL0     H15909   3.521   9.433  10.307 -1.9387 -1.1658  1.1654
  121MOL0     H15910   3.534   9.375  10.138 -0.3088 -0.7109  0.1456
  121MOL0     H15911   3.302   9.423  10.215 -3.4640  3.5303  1.8250
  121MOL0     H15912   3.338   9.517  10.070 -0.1062  0.4754  0.1690
  121MOL0     H15913   3.370   9.714  10.220  0.8153  0.7707  2.2212
  121MOL0     H15914   3.349   9.603  10.363 -0.1143 -0.8138  0.3634
  121MOL0     H15915   3.131   9.679  10.160  0.9700  0.9677  0.4911
  121MOL0     H15916   3.123   9.530  10.256 -1.0511  0.0693 -3.5553
  121MOL0     H15917   3.141   9.819  10.365  2.4849 -0.4627  1.4502
  121MOL0     H15918   3.155   9.663  10.456 -0.9850 -1.6910 -0.2625
  121MOL0     H15919   2.937   9.588  10.375  4.3791 -1.7302  0.0732
  121MOL0     H15920   2.917   9.732  10.274  0.1836 -0.8345 -0.1416
  121MOL0     H15921   2.964   9.728  10.570  0.7392 -0.2230 -0.3830
  121MOL0     H15922   2.943   9.876  10.471  0.0462  0.6647 -0.6188
  121MOL0     H15923   2.737   9.790  10.615 -1.0495  0.6193 -0.5862
  121MOL0     H15924   2.719   9.664  10.493 -0.4258  0.8261  0.7317
  121MOL0     H15925   2.799   9.957  10.273  0.5933  1.2033  0.9161
  121MOL0     H15926   2.488  10.039  10.086  0.6788 -1.1284 -0.3646
  121MOL0     H15927   2.669  10.054  10.096  0.1895  0.5797  0.3220
  121MOL0     H15928   2.463  10.200  10.246 -0.1077  2.3837  1.1064
  121MOL0     H15929   2.533  10.266  10.102 -0.7752 -1.7682 -1.0189
  121MOL0     H15930   2.685  10.207  10.362  2.1193  0.1565 -0.1406
  121MOL0     H15931   2.778  10.240  10.212 -0.8260 -1.1718 -1.5074
  121MOL0     H15932   2.718  10.438  10.391 -1.1908  2.7390 -0.3355
  121MOL0     H15933   2.571  10.427  10.297 -0.2081  0.0349  1.1757
  121MOL0     H15934   2.882  10.638  10.031 -0.2456 -0.9161 -0.5224
  121MOL0     H15935   3.106  10.714  10.049 -0.6323  1.7739  1.4155
  121MOL0     H15936   3.608  10.365  10.118 -0.7159 -0.7877  0.6376
  121MOL0     H15937   3.849  10.400  10.192 -2.4230 -2.0974 -1.0983
  121MOL0     H15938   4.060  10.708  10.449  3.8674 -1.2074 -2.4381
  121MOL0     H15939   3.936  10.765  10.338  0.3394  3.0037  3.5025
  121MOL0     H15940   4.146  10.733  10.219  0.1007 -0.0615 -1.3969
  121MOL0     H15941   4.017  10.630  10.163 -0.5748  1.6341  1.0542
  121MOL0     H15942   4.111  10.430  10.300 -1.8007  0.7883  0.2568
  121MOL0     H15943   4.217  10.544  10.379 -3.3912 -0.2299  2.8529
  121MOL0     H15944   4.362  10.557  10.166  1.0609 -1.1157 -5.4374
  121MOL0     H15945   4.313  10.389  10.183  1.5593  1.0449  2.0919
  121MOL0     H15946   4.160  10.577   9.991 -0.5871  0.4276  0.6660
  121MOL0     H15947   4.129  10.413  10.023 -2.3145  1.4995  1.4371
  121MOL0     H15948   4.345  10.339   9.972  0.3727 -0.6530 -0.2704
  121MOL0     H15949   4.409  10.501   9.931  0.4174  0.1504 -3.2033
  121MOL0     H15950   4.203  10.333   9.791 -0.5335  0.0429  1.8284
  121MOL0     H15951   4.195  10.507   9.768  0.1359 -1.3774 -1.6382
  121MOL0     H15952   4.415  10.319   9.718 -0.2227 -0.5729  0.6281
  121MOL0     H15953   4.454  10.489   9.688  1.1676 -0.8938  2.0413
  121MOL0     H15954   3.713  10.673  10.489  1.9356 -0.9176  0.2909
  121MOL0     H15955   3.489  10.630  10.436 -3.9876 -0.7283 -3.1541
  121MOL0     H15956   3.169  10.394  10.334  4.2724  1.3808 -2.0449
  121MOL0     H15957   2.924  10.350  10.331 -0.2955 -2.3138 -2.8747
  121MOL0     H15958   3.741   9.358  10.204 -0.3259  0.6492  0.7635
  121MOL0     H15959   3.997   9.362  10.160  2.3882  1.6536  0.5141
  121MOL0     H15960   4.339   9.611  10.147 -0.7994  0.0368  0.2047
  121MOL0     H15961   4.575   9.652  10.133  2.8726  0.1874 -1.5244
  121MOL0     H15962   4.803   9.557  10.114 -0.2348 -1.9194 -0.8715
  121MOL0     H15963   4.782   9.709  10.024  0.5650 -0.9556  1.5183
  121MOL0     H15964   5.032   9.647  10.031  0.8359 -0.1934 -0.1328
  121MOL0     H15965   4.995   9.478   9.988 -1.2061 -1.0941 -0.0573
  121MOL0     H15966   4.969   9.718   9.796 -2.8183 -1.2164 -0.9739
  121MOL0     H15967   4.912   9.557   9.758  1.5933 -1.3933 -1.2153
  121MOL0     H15968   5.134   9.468   9.747  1.6178 -0.1885 -0.7837
  121MOL0     H15969   5.143   9.614   9.656 -0.2569 -1.2789 -0.5401
  121MOL0     H15970   5.393   9.720   9.979 -1.7225  0.3214  1.8544
  121MOL0     H15971   4.586   9.436   9.765  2.6404  0.2722  1.0249
  121MOL0     H15972   4.326   9.407   9.780 -1.8255  0.8359 -0.4611
  122MOL0     O15973   8.742   2.337   7.490  0.1583 -0.8732 -0.4336
  122MOL0     C15974   8.804   2.408   7.572  1.1963 -0.3625 -0.2503
  122MOL0     O15975   8.735   2.487   7.661  0.1375  0.2534  0.7272
  122MOL0     C15976   8.610   2.536   7.620 -0.5782 -0.9428  0.4075
  122MOL0     C15977   8.552   2.548   7.488 -0.1342 -0.3470  0.4991
  122MOL0     C15978   8.420   2.597   7.475  0.4608 -0.6114 -0.0339
  122MOL0     C15979   8.337   2.627   7.588 -1.4992 -0.7913  0.4152
  122MOL0     O15980   8.213   2.678   7.576  0.0155  0.9724 -0.4082
  122MOL0     C15981   8.105   2.592   7.623 -0.2690 -0.6714 -0.1170
  122MOL0     C15982   7.990   2.585   7.524  0.3480  0.6527 -0.6740
  122MOL0     C15983   7.920   2.719   7.511  0.4882 -0.5427  0.7148
  122MOL0     C15984   7.811   2.741   7.614  0.5055 -0.5753 -0.1592
  122MOL0     C15985   7.755   2.882   7.575 -1.0441  0.1403  0.1998
  122MOL0     C15986   7.655   2.910   7.699  0.0268 -0.0594  0.2696
  122MOL0     C15987   7.592   3.044   7.659 -0.5924 -0.0170  0.0042
  122MOL0     C15988   7.487   3.097   7.763 -0.2648 -0.0685 -0.0156
  122MOL0     N15989   7.361   3.025   7.743  0.6399  0.0095  0.1055
  122MOL0     C15990   7.245   3.094   7.721 -0.2082 -0.9790  0.8544
  122MOL0     C15991   7.146   3.005   7.736 -0.0343  0.2591 -0.3772
  122MOL0     C15992   7.000   3.026   7.714  0.6808  0.9039 -0.0702
  122MOL0     C15993   6.943   2.908   7.632 -0.4370 -0.5584 -0.6437
  122MOL0     C15994   6.894   2.792   7.717 -0.1697  0.7963  0.0423
  122MOL0     C15995   6.903   2.662   7.636  0.1534  0.0219 -0.0340
  122MOL0     O15996   6.823   2.662   7.524  0.0461 -0.6121  0.0698
  122MOL0     C15997   6.697   2.636   7.548  0.3034 -0.1077 -0.5374
  122MOL0     C15998   6.632   2.634   7.676  0.3442 -0.1405  0.0810
  122MOL0     C15999   6.500   2.601   7.689  0.4068  0.2108 -0.0915
  122MOL0     C16000   6.426   2.564   7.569  0.4184 -0.0006 -0.1051
  122MOL0     C16001   6.276   2.532   7.587  0.4673  1.1202  0.1625
  122MOL0     O16002   6.211   2.540   7.471  0.1699  0.2587  0.0654
  122MOL0     C16003   6.075   2.525   7.477 -0.1005 -0.5279 -0.3260
  122MOL0     C16004   6.019   2.418   7.412  0.2303 -0.2484  0.5123
  122MOL0     C16005   5.880   2.399   7.407 -0.1676 -0.0833  0.7204
  122MOL0     C16006   5.795   2.492   7.478  0.1562  1.3467 -0.2291
  122MOL0     O16007   5.663   2.487   7.480 -0.1021  0.3494  0.1937
  122MOL0     C16008   5.581   2.408   7.394  0.5272 -0.3444  0.3829
  122MOL0     C16009   5.426   2.407   7.424 -0.2813  1.4783  0.8080
  122MOL0     C16010   5.357   2.551   7.435  0.5610 -0.1983 -0.2764
  122MOL0     C16011   5.197   2.539   7.466 -0.5557  0.4711  0.3425
  122MOL0     C16012   5.152   2.680   7.496  0.5457 -0.7579 -0.4478
  122MOL0     C16013   5.029   2.693   7.582  0.2516 -0.5911 -0.6266
  122MOL0     C16014   4.907   2.624   7.532  0.0095 -0.3617 -0.1138
  122MOL0     C16015   4.777   2.703   7.566 -0.0218 -0.3481 -0.8445
  122MOL0    Cl16016   4.755   2.717   7.743 -0.6132  0.2159  0.2765
  122MOL0     C16017   5.858   2.607   7.536  0.4602  0.1166  0.1241
  122MOL0     C16018   5.995   2.624   7.527  0.2866  0.3133 -0.0764
  122MOL0     O16019   6.229   2.532   7.706 -0.1075  0.2766  0.7287
  122MOL0     C16020   6.494   2.560   7.444 -0.4545 -0.4002 -0.6804
  122MOL0     C16021   6.625   2.587   7.432  0.0689 -0.5564  1.0281
  122MOL0     N16022   7.204   2.884   7.781 -0.1623  0.1630 -0.4056
  122MOL0     N16023   7.334   2.902   7.787 -0.9853 -0.1949 -0.1177
  122MOL0     C16024   8.399   2.618   7.715 -0.2841 -0.2267  0.7099
  122MOL0     C16025   8.532   2.575   7.726 -0.2674 -0.8576 -0.3739
  122MOL0     C16026   8.945   2.405   7.573 -1.0028  0.5547  0.4989
  122MOL0     C16027   9.015   2.307   7.501  0.1633 -0.2325  0.3379
  122MOL0     C16028   9.151   2.324   7.477 -0.1270  0.7559 -0.2650
  122MOL0     C16029   9.225   2.418   7.544 -0.1651 -0.0083 -0.5854
  122MOL0     O16030   9.361   2.425   7.544  0.5227 -0.1637 -0.9391
  122MOL0     C16031   9.447   2.353   7.448 -0.7924  0.0506 -0.8862
  122MOL0     C16032   9.421   2.408   7.306 -0.4891 -0.1557 -0.5722
  122MOL0     C16033   9.502   2.345   7.181  0.3060 -1.0847 -0.7160
  122MOL0     C16034   9.649   2.319   7.217  1.2251  0.0415 -0.4362
  122MOL0     C16035   9.730   2.437   7.244  0.3733  0.4308  0.9868
  122MOL0     C16036   9.816   2.523   7.261 -0.0480 -0.5759 -0.1278
  122MOL0     C16037   9.153   2.507   7.629  0.2262 -0.2316 -0.0726
  122MOL0     C16038   9.017   2.505   7.636  0.5026  0.0797  0.1252
  122MOL0     H16039   8.592   2.523   7.391 -1.4481  0.4108 -0.2620
  122MOL0     H16040   8.388   2.621   7.374  1.6039 -1.8239 -0.7216
  122MOL0     H16041   8.077   2.638   7.718 -1.0299  0.7970 -1.0027
  122MOL0     H16042   8.143   2.494   7.651 -0.4329 -0.0227  2.6543
  122MOL0     H16043   7.919   2.508   7.555 -0.9945  1.6912 -1.0514
  122MOL0     H16044   8.024   2.562   7.423 -1.0707 -0.5071 -0.9318
  122MOL0     H16045   7.867   2.721   7.415  0.8834 -1.2179  0.4762
  122MOL0     H16046   7.996   2.797   7.519  1.9261 -1.7906 -0.2349
  122MOL0     H16047   7.740   2.660   7.599  0.3220 -0.6711  1.1318
  122MOL0     H16048   7.860   2.734   7.712 -0.8820  1.5189  0.7538
  122MOL0     H16049   7.697   2.871   7.483 -1.6260 -2.5398  0.8247
  122MOL0     H16050   7.840   2.951   7.570 -0.6951 -0.3171 -0.1296
  122MOL0     H16051   7.720   2.919   7.786 -0.6726 -1.5548  0.9795
  122MOL0     H16052   7.591   2.823   7.716  0.3887 -0.9783 -2.5640
  122MOL0     H16053   7.667   3.121   7.641  0.0596 -0.1637  1.8263
  122MOL0     H16054   7.546   3.030   7.561  2.5188 -1.0055 -1.4509
  122MOL0     H16055   7.476   3.205   7.754  0.6960 -0.1451 -3.0776
  122MOL0     H16056   7.517   3.076   7.866 -0.5996 -1.9730 -0.2698
  122MOL0     H16057   7.233   3.199   7.699  3.4663 -0.7246 -0.6023
  122MOL0     H16058   6.994   3.118   7.655 -1.8411  1.2893  0.6659
  122MOL0     H16059   6.928   3.040   7.795 -1.2146 -5.0269 -0.2837
  122MOL0     H16060   7.017   2.885   7.554  0.7463 -0.5758  0.4445
  122MOL0     H16061   6.854   2.943   7.578 -0.4436  0.5975  0.0708
  122MOL0     H16062   6.950   2.784   7.811 -1.6533 -0.5042  0.8658
  122MOL0     H16063   6.793   2.822   7.748 -0.2098  0.7171 -0.0120
  122MOL0     H16064   6.879   2.575   7.697 -0.0835  0.1204  0.0110
  122MOL0     H16065   7.008   2.646   7.608  0.3129 -0.5700  0.8681
  122MOL0     H16066   6.689   2.649   7.768 -1.4397 -2.9870  1.8031
  122MOL0     H16067   6.447   2.593   7.784  0.7727 -1.1391  0.0193
  122MOL0     H16068   6.094   2.351   7.370 -0.6144 -0.2153 -1.1057
  122MOL0     H16069   5.841   2.307   7.366  1.2445 -1.4956  2.4149
  122MOL0     H16070   5.614   2.304   7.383 -2.1543 -1.0279 -2.9561
  122MOL0     H16071   5.579   2.450   7.293 -0.8597 -2.7043 -0.6698
  122MOL0     H16072   5.419   2.338   7.509 -3.5304 -0.9708 -1.2134
  122MOL0     H16073   5.398   2.342   7.341  0.0516  1.3626  0.7855
  122MOL0     H16074   5.394   2.615   7.355  0.1862  2.9482  1.8939
  122MOL0     H16075   5.404   2.600   7.521  1.0598 -0.0621 -0.6212
  122MOL0     H16076   5.141   2.503   7.379 -1.9110  1.6365  0.7005
  122MOL0     H16077   5.182   2.467   7.547 -2.4806  0.6130  0.1438
  122MOL0     H16078   5.158   2.739   7.404  1.6520 -0.7622 -0.3955
  122MOL0     H16079   5.225   2.727   7.564 -0.9068  0.0705  0.5951
  122MOL0     H16080   5.006   2.799   7.592  1.4973 -0.3757  0.1182
  122MOL0     H16081   5.048   2.665   7.686  0.6773 -2.5098 -1.1762
  122MOL0     H16082   4.910   2.603   7.424  0.7402  0.5093 -0.2745
  122MOL0     H16083   4.900   2.522   7.572 -2.6385 -1.0445 -2.0487
  122MOL0     H16084   4.684   2.658   7.530  0.1513 -1.8185  0.4109
  122MOL0     H16085   4.784   2.803   7.523 -0.1610 -0.4706 -1.1574
  122MOL0     H16086   5.800   2.683   7.587 -1.4753 -0.4024 -1.1918
  122MOL0     H16087   6.042   2.714   7.566  0.3132 -0.5829  2.1334
  122MOL0     H16088   6.438   2.537   7.354 -3.8227 -1.7629  1.5582
  122MOL0     H16089   6.676   2.582   7.337 -2.2399  0.6673 -0.3558
  122MOL0     H16090   8.344   2.638   7.806  1.8555  1.4252  1.7277
  122MOL0     H16091   8.586   2.553   7.817  0.1566  2.9946  0.4943
  122MOL0     H16092   8.966   2.221   7.456 -1.0316  0.2293  0.7250
  122MOL0     H16093   9.210   2.246   7.430 -0.6839  0.5606 -0.6505
  122MOL0     H16094   9.431   2.245   7.458  1.9789 -0.2435  2.1468
  122MOL0     H16095   9.553   2.370   7.466 -0.5640 -2.1605  0.2682
  122MOL0     H16096   9.315   2.404   7.283  0.2122  0.4963 -4.7481
  122MOL0     H16097   9.457   2.512   7.312  3.0582 -1.0521 -2.9011
  122MOL0     H16098   9.495   2.409   7.092 -1.7296  2.4704  1.7475
  122MOL0     H16099   9.452   2.251   7.158 -0.7569 -0.7407  0.1242
  122MOL0     H16100   9.654   2.261   7.309 -0.3762 -0.0161 -0.3522
  122MOL0     H16101   9.694   2.254   7.142  1.3817 -2.3761  1.6395
  122MOL0     H16102   9.899   2.591   7.255 -3.0570  3.6211  1.2415
  122MOL0     H16103   9.206   2.583   7.686 -3.0938  2.2057  0.0518
  122MOL0     H16104   8.955   2.582   7.681 -1.3803 -0.2152 -1.7768
  123MOL0     O16105   2.107  10.295   7.362  0.5421 -0.5685  0.0106
  123MOL0     C16106   2.216  10.287   7.298 -0.1459 -0.4293  0.0234
  123MOL0     O16107   2.234  10.200   7.195  0.2495 -0.4378  0.0868
  123MOL0     C16108   2.127  10.111   7.168 -0.1966  0.3470 -0.0075
  123MOL0     C16109   2.069  10.029   7.267  0.3575  0.2857 -0.0003
  123MOL0     C16110   1.966   9.942   7.222  0.1760  0.3733  0.6375
  123MOL0     C16111   1.922   9.935   7.088 -0.8561  0.3776  0.2798
  123MOL0     O16112   1.818   9.849   7.051  0.1576 -0.4840  0.3549
  123MOL0     C16113   1.845   9.712   7.087 -0.1188 -0.1365  0.1748
  123MOL0     C16114   1.753   9.666   7.205 -0.0423 -0.0959  0.6871
  123MOL0     C16115   1.708   9.521   7.179 -0.0259  0.2571 -0.4651
  123MOL0     C16116   1.652   9.451   7.308  0.0608 -0.1257 -0.7447
  123MOL0     C16117   1.548   9.352   7.281  0.6922  1.3086  0.9921
  123MOL0     C16118   1.590   9.232   7.189 -0.2039 -0.7814  0.4282
  123MOL0     C16119   1.471   9.145   7.137 -0.0897 -0.0956 -0.6376
  123MOL0     C16120   1.393   9.089   7.266 -0.1623 -0.1504  0.4257
  123MOL0     N16121   1.276   9.005   7.221  0.0730  0.3622  0.1140
  123MOL0     C16122   1.146   9.024   7.255  0.1336 -0.0756  0.4178
  123MOL0     C16123   1.073   8.929   7.180 -0.0403  0.5284 -1.0118
  123MOL0     C16124   0.926   8.902   7.194  0.1074  0.3201 -0.6857
  123MOL0     C16125   0.874   8.876   7.336 -0.7866 -1.2862 -0.3956
  123MOL0     C16126   0.730   8.834   7.332 -0.5896 -0.9060 -0.3147
  123MOL0     C16127   0.678   8.811   7.473 -0.2738 -0.1968  0.7297
  123MOL0     O16128   0.543   8.857   7.490 -0.1412 -0.2649 -0.8962
  123MOL0     C16129   0.434   8.781   7.460  0.7133 -0.2893  0.9154
  123MOL0     C16130   0.433   8.641   7.424 -0.6330 -0.7608 -0.1547
  123MOL0     C16131   0.309   8.586   7.395 -1.6279  0.6766  0.1773
  123MOL0     C16132   0.197   8.670   7.410 -0.0263  0.3205  0.1323
  123MOL0     C16133   0.066   8.607   7.370  1.1765 -0.0046 -0.5426
  123MOL0     O16134   0.054   8.473   7.343 -0.7607  0.0380  1.1757
  123MOL0     C16135  -0.062   8.415   7.308  0.7964 -0.5995  0.2549
  123MOL0     C16136  -0.181   8.452   7.361 -0.1858 -0.3460 -0.4453
  123MOL0     C16137  -0.299   8.378   7.337  0.8630  0.4529 -0.8777
  123MOL0     C16138  -0.303   8.266   7.250 -0.1526  0.0905  0.0925
  123MOL0     O16139  -0.426   8.197   7.224  0.2674 -0.7501 -0.0541
  123MOL0     C16140  -0.428   8.068   7.157 -0.2647 -0.1206 -0.0260
  123MOL0     C16141  -0.577   8.020   7.171 -0.9100 -0.0266 -0.6079
  123MOL0     C16142  -0.675   8.076   7.080 -1.0415  0.2586 -0.1730
  123MOL0     C16143  -0.763   7.972   7.023  0.0157  0.1714  0.6812
  123MOL0     C16144  -0.853   8.035   6.918 -0.5679 -0.1176 -0.7517
  123MOL0     C16145  -0.976   7.942   6.891 -0.1564  0.1530  0.1857
  123MOL0     C16146  -0.943   7.796   6.846 -1.2191  0.2076 -0.3781
  123MOL0     C16147  -0.965   7.705   6.968 -0.3047 -0.7467 -0.1976
  123MOL0    Cl16148  -0.932   7.539   6.930  0.3445 -0.5285  0.1894
  123MOL0     C16149  -0.173   8.225   7.202  1.2256 -0.1265  0.3570
  123MOL0     C16150  -0.059   8.306   7.218 -0.2730 -0.2741  0.4242
  123MOL0     O16151  -0.034   8.685   7.358 -0.0008 -0.1918  0.4953
  123MOL0     C16152   0.199   8.805   7.439 -0.2214  0.2870  0.8957
  123MOL0     C16153   0.319   8.859   7.462  0.3662 -0.5457 -0.0082
  123MOL0     N16154   1.167   8.863   7.103 -0.1811  0.1249  0.0895
  123MOL0     N16155   1.290   8.905   7.126 -0.0312 -0.2080 -0.0027
  123MOL0     C16156   1.978  10.023   6.996 -0.4430  0.2874 -1.3242
  123MOL0     C16157   2.079  10.115   7.032  0.1937  0.0005  0.0055
  123MOL0     C16158   2.327  10.375   7.336 -0.2645  0.4372  1.0414
  123MOL0     C16159   2.411  10.424   7.232  0.3301 -0.2659  0.3508
  123MOL0     C16160   2.518  10.508   7.264 -0.0182 -0.3069 -0.1037
  123MOL0     C16161   2.551  10.537   7.400  0.1507 -0.0842  0.5285
  123MOL0     O16162   2.668  10.595   7.444  0.6996  0.6337  1.0055
  123MOL0     C16163   2.788  10.566   7.374 -1.2018 -0.0072 -0.0411
  123MOL0     C16164   2.916  10.546   7.457 -0.1860 -0.8335 -0.3113
  123MOL0     C16165   2.941  10.655   7.564  0.7443  0.9270 -0.7695
  123MOL0     C16166   3.071  10.626   7.648  0.0885 -0.0786 -0.1499
  123MOL0     C16167   3.128  10.753   7.700  0.4216  0.3124  0.3598
  123MOL0     C16168   3.187  10.849   7.748  0.6332  0.0467 -0.0626
  123MOL0     C16169   2.464  10.488   7.500  0.4003  0.4143  0.9398
  123MOL0     C16170   2.356  10.412   7.462 -0.0612  0.4501 -0.4682
  123MOL0     H16171   2.107  10.036   7.368  0.2026 -1.1785  0.1877
  123MOL0     H16172   1.921   9.871   7.290  0.8968 -3.5064 -2.5958
  123MOL0     H16173   1.953   9.697   7.098  0.1671  1.0496 -0.7205
  123MOL0     H16174   1.824   9.658   6.994  2.4710 -1.5620  0.3169
  123MOL0     H16175   1.657   9.719   7.204 -0.0998 -0.1900  1.0975
  123MOL0     H16176   1.808   9.672   7.299 -1.0005 -3.4445  1.5959
  123MOL0     H16177   1.800   9.475   7.141  1.8912  3.4176  0.0741
  123MOL0     H16178   1.637   9.517   7.095  0.2767  1.1350 -0.7746
  123MOL0     H16179   1.738   9.408   7.360 -0.9462 -1.4804 -0.1549
  123MOL0     H16180   1.599   9.523   7.370  1.5512  0.5219 -0.1574
  123MOL0     H16181   1.460   9.404   7.243  0.4908 -1.0612 -2.1697
  123MOL0     H16182   1.517   9.309   7.376 -1.2951  0.5352  0.0574
  123MOL0     H16183   1.665   9.175   7.245  0.9728 -0.7408 -1.0358
  123MOL0     H16184   1.636   9.274   7.098  1.2246  1.0289  1.9047
  123MOL0     H16185   1.403   9.195   7.068 -1.9317 -1.4724  0.1052
  123MOL0     H16186   1.519   9.061   7.085 -0.2788  0.7470 -2.2367
  123MOL0     H16187   1.365   9.172   7.332  0.8074 -0.8796  1.8013
  123MOL0     H16188   1.452   9.017   7.324 -2.9490 -1.2187  2.1572
  123MOL0     H16189   1.120   9.096   7.332  2.5179  2.8518 -1.3411
  123MOL0     H16190   0.898   8.812   7.138  2.6336 -3.0140  2.8410
  123MOL0     H16191   0.873   8.987   7.151 -0.4399  1.3280  1.8386
  123MOL0     H16192   0.885   8.970   7.391  0.7225 -0.2994 -2.2642
  123MOL0     H16193   0.933   8.804   7.393  0.4039 -1.7052 -2.0673
  123MOL0     H16194   0.675   8.921   7.294 -0.9711 -1.1577 -0.3451
  123MOL0     H16195   0.704   8.751   7.265  0.8804 -2.5529  1.0713
  123MOL0     H16196   0.746   8.856   7.546  0.4811 -1.2192  0.6698
  123MOL0     H16197   0.685   8.704   7.493  0.1216 -0.6098 -1.3800
  123MOL0     H16198   0.525   8.583   7.419  0.6437  0.6835  3.3265
  123MOL0     H16199   0.310   8.483   7.360  0.6856 -1.1579  4.8689
  123MOL0     H16200  -0.178   8.531   7.435 -1.0319 -0.9436  0.2529
  123MOL0     H16201  -0.392   8.405   7.385  1.9248  0.6049  1.2115
  123MOL0     H16202  -0.366   7.994   7.208 -0.6226 -0.8512 -0.6366
  123MOL0     H16203  -0.415   8.085   7.050  0.8840 -0.2377  0.0795
  123MOL0     H16204  -0.607   8.017   7.277  5.0773 -2.4466  1.4700
  123MOL0     H16205  -0.586   7.913   7.148  1.3105 -0.2584 -0.6054
  123MOL0     H16206  -0.635   8.138   6.999  0.4141 -2.0148 -1.2875
  123MOL0     H16207  -0.738   8.145   7.138  0.2259 -0.4384  2.1742
  123MOL0     H16208  -0.697   7.904   6.969 -1.1562  0.0124 -0.5901
  123MOL0     H16209  -0.817   7.922   7.104  1.9466 -0.7663  1.4599
  123MOL0     H16210  -0.794   8.069   6.832  0.8319 -0.0160  0.2209
  123MOL0     H16211  -0.905   8.125   6.951 -1.6126 -1.0507  0.2410
  123MOL0     H16212  -1.023   7.998   6.809  1.9424 -1.0693 -2.0044
  123MOL0     H16213  -1.048   7.937   6.973  0.0009 -1.6553  0.2612
  123MOL0     H16214  -1.003   7.762   6.761 -1.2130 -1.7979  0.3669
  123MOL0     H16215  -0.839   7.790   6.814 -1.3753 -2.7623 -0.6002
  123MOL0     H16216  -1.070   7.718   6.995 -0.5606  1.9564 -2.1011
  123MOL0     H16217  -0.896   7.740   7.045 -0.0951  2.9543 -1.8625
  123MOL0     H16218  -0.170   8.152   7.122 -3.0143  0.3447 -0.4360
  123MOL0     H16219   0.036   8.296   7.167 -0.5570  3.8756 -1.3731
  123MOL0     H16220   0.114   8.871   7.426  0.2930  1.1195  1.6264
  123MOL0     H16221   0.319   8.967   7.476 -2.7934 -0.4400 -0.0734
  123MOL0     H16222   1.951  10.007   6.892  0.7340  0.6482 -1.7045
  123MOL0     H16223   2.125  10.179   6.957  0.7202 -0.2292  0.1287
  123MOL0     H16224   2.398  10.404   7.126  0.1418  3.0074 -0.3615
  123MOL0     H16225   2.582  10.546   7.185 -1.6633 -1.1206 -1.9073
  123MOL0     H16226   2.800  10.655   7.311 -0.1217  0.0594  0.2295
  123MOL0     H16227   2.784  10.481   7.305  1.9097  1.4624 -2.3442
  123MOL0     H16228   2.905  10.448   7.504 -0.3022 -0.0127  1.4462
  123MOL0     H16229   3.001  10.535   7.389 -1.1099 -0.4602 -1.5645
  123MOL0     H16230   2.856  10.656   7.633  1.7780 -2.5294  0.7893
  123MOL0     H16231   2.940  10.754   7.517  1.4705  0.8839 -0.8866
  123MOL0     H16232   3.047  10.554   7.726  2.1310 -0.3996  0.2389
  123MOL0     H16233   3.138  10.577   7.578 -0.3048  2.7395 -2.7099
  123MOL0     H16234   3.221  10.936   7.801 -3.6173  0.1236  3.0815
  123MOL0     H16235   2.493  10.487   7.604 -0.4944  0.7958  1.2032
  123MOL0     H16236   2.295  10.373   7.543  2.1368 -0.8958  0.6121
  124MOL0     O16237   3.840   2.649   2.715 -0.2297  0.0295  0.0464
  124MOL0     C16238   3.786   2.658   2.601 -0.7063 -0.2213  0.0114
  124MOL0     O16239   3.844   2.625   2.484 -0.7675  0.3350 -0.5399
  124MOL0     C16240   3.979   2.583   2.489 -0.2162 -0.0057  0.3192
  124MOL0     C16241   4.012   2.469   2.415 -0.3574  0.7224  0.4230
  124MOL0     C16242   4.142   2.422   2.420 -0.1775 -0.4403  0.0450
  124MOL0     C16243   4.248   2.485   2.490 -0.5605 -0.0801 -0.2767
  124MOL0     O16244   4.372   2.421   2.487  0.3004 -0.7358  0.0068
  124MOL0     C16245   4.493   2.476   2.528  0.5080  0.3251  0.6985
  124MOL0     C16246   4.547   2.577   2.422 -0.7047  0.4627 -0.4575
  124MOL0     C16247   4.547   2.522   2.279 -0.1103  0.1322  0.6018
  124MOL0     C16248   4.630   2.397   2.256 -1.2235 -0.1207 -0.3269
  124MOL0     C16249   4.784   2.439   2.267 -0.6552  0.1338  0.1127
  124MOL0     C16250   4.870   2.324   2.268  0.0844  0.2125  0.1624
  124MOL0     C16251   5.020   2.368   2.245 -0.5778 -0.8692  0.4263
  124MOL0     C16252   5.119   2.258   2.290 -0.4748  0.3627 -0.4482
  124MOL0     N16253   5.199   2.232   2.172  0.0418 -0.3864  0.1654
  124MOL0     C16254   5.317   2.290   2.155 -0.0616  0.0657 -1.0718
  124MOL0     C16255   5.370   2.253   2.040 -0.7162 -0.7612 -0.0629
  124MOL0     C16256   5.494   2.306   1.978 -0.3266 -0.0331 -0.0007
  124MOL0     C16257   5.461   2.417   1.874 -0.4265 -0.4259 -0.5024
  124MOL0     C16258   5.396   2.366   1.739 -0.2060 -0.2528  0.5072
  124MOL0     C16259   5.367   2.476   1.643  0.3716 -0.2615  0.2339
  124MOL0     O16260   5.291   2.580   1.711 -0.2651  0.5390  0.9962
  124MOL0     C16261   5.157   2.571   1.716 -0.1267  0.2616 -0.0362
  124MOL0     C16262   5.097   2.628   1.823  0.0141  0.1796  0.1637
  124MOL0     C16263   4.952   2.631   1.839  0.2370 -0.2931  0.1773
  124MOL0     C16264   4.863   2.578   1.743 -0.2499 -0.0896  0.7665
  124MOL0     C16265   4.720   2.597   1.755 -0.8033 -1.3274  0.3486
  124MOL0     O16266   4.677   2.659   1.866 -0.2815  0.2007  0.5370
  124MOL0     C16267   4.551   2.712   1.879 -0.4695  0.4673 -0.0572
  124MOL0     C16268   4.456   2.627   1.925  0.4893  0.1309  0.3012
  124MOL0     C16269   4.323   2.669   1.955  1.5550 -0.6643  0.9075
  124MOL0     C16270   4.295   2.802   1.924  0.4386  0.1833 -0.1654
  124MOL0     O16271   4.163   2.840   1.940  0.0627  0.1985 -0.3499
  124MOL0     C16272   4.116   2.948   1.860 -0.0423 -0.7979 -0.3201
  124MOL0     C16273   3.967   2.961   1.849 -0.0137 -0.4291 -1.2216
  124MOL0     C16274   3.924   3.078   1.761 -0.5581  0.1178 -0.5181
  124MOL0     C16275   3.772   3.101   1.768 -1.1285 -0.1464  0.5424
  124MOL0     C16276   3.742   3.196   1.651 -0.7927  0.5576  0.4832
  124MOL0     C16277   3.611   3.275   1.687  0.3945  0.7720 -0.3449
  124MOL0     C16278   3.492   3.176   1.714 -0.1317  0.9667  0.0859
  124MOL0     C16279   3.350   3.228   1.708 -0.4004 -0.4338 -0.0306
  124MOL0    Cl16280   3.342   3.349   1.834 -0.0862 -0.7892  0.5166
  124MOL0     C16281   4.397   2.894   1.881 -0.3843 -0.3066 -0.4614
  124MOL0     C16282   4.529   2.847   1.865 -0.8804  0.3948  0.1566
  124MOL0     O16283   4.661   2.588   1.644  0.2270  0.6211 -0.0040
  124MOL0     C16284   4.931   2.519   1.634 -0.7637 -0.0767  0.3765
  124MOL0     C16285   5.070   2.520   1.617  0.1499  0.2343 -0.0616
  124MOL0     N16286   5.276   2.166   1.980 -1.0566 -0.8043  0.3181
  124MOL0     N16287   5.171   2.162   2.056 -0.4273  0.4936  0.4100
  124MOL0     C16288   4.221   2.599   2.559  0.6085 -0.2211  0.1132
  124MOL0     C16289   4.085   2.645   2.562  0.2200 -0.1324  0.1593
  124MOL0     C16290   3.643   2.704   2.584 -0.7177  0.6550  0.0988
  124MOL0     C16291   3.583   2.758   2.698  0.5195 -0.1110 -0.4433
  124MOL0     C16292   3.455   2.798   2.685  0.4967  0.1711 -0.0603
  124MOL0     C16293   3.380   2.786   2.570 -0.4036  1.6642 -0.5095
  124MOL0     O16294   3.253   2.830   2.569  0.0079 -0.7925  0.3377
  124MOL0     C16295   3.150   2.738   2.545 -0.1867  0.4505  0.1855
  124MOL0     C16296   3.088   2.712   2.679  0.2054  0.0893 -0.3489
  124MOL0     C16297   3.059   2.833   2.759 -0.1426 -0.8135  0.6333
  124MOL0     C16298   2.987   2.810   2.900 -0.8055  0.2660  0.7262
  124MOL0     C16299   2.922   2.939   2.941 -1.0901 -0.0038 -0.2007
  124MOL0     C16300   2.860   3.044   2.982 -0.3284 -0.3113 -0.2266
  124MOL0     C16301   3.443   2.732   2.451 -0.0147  1.5222 -0.0037
  124MOL0     C16302   3.574   2.688   2.459 -0.2009  0.4647  0.1409
  124MOL0     H16303   3.924   2.436   2.360  1.5382 -0.2068 -2.2774
  124MOL0     H16304   4.159   2.342   2.349  0.3681  0.0173 -0.3531
  124MOL0     H16305   4.556   2.390   2.550  0.2560 -0.2232 -0.5846
  124MOL0     H16306   4.481   2.519   2.628 -0.1848 -2.5206  1.9211
  124MOL0     H16307   4.650   2.604   2.445  0.6649 -1.5851 -3.5433
  124MOL0     H16308   4.491   2.671   2.425 -2.6621 -0.3919 -3.8610
  124MOL0     H16309   4.576   2.604   2.213 -2.5395  1.7936  1.4744
  124MOL0     H16310   4.446   2.490   2.253 -0.4595 -0.5751  2.6680
  124MOL0     H16311   4.616   2.320   2.332  0.9272 -0.7066 -0.4571
  124MOL0     H16312   4.607   2.348   2.162 -2.9232 -2.1886  1.0800
  124MOL0     H16313   4.797   2.495   2.360 -2.5410  0.7291  0.0758
  124MOL0     H16314   4.810   2.502   2.181  0.1555  0.5583  0.6560
  124MOL0     H16315   4.826   2.259   2.192 -0.5188  0.9516 -0.1386
  124MOL0     H16316   4.852   2.274   2.364 -0.7350  1.8640  0.9139
  124MOL0     H16317   5.032   2.378   2.137  2.4669  0.5159  0.7832
  124MOL0     H16318   5.031   2.470   2.282 -3.8063 -0.0629 -0.5204
  124MOL0     H16319   5.068   2.169   2.326 -2.4807  1.4527 -0.4095
  124MOL0     H16320   5.187   2.287   2.371  1.0723  2.2232 -2.2672
  124MOL0     H16321   5.374   2.355   2.221 -0.0353 -1.1292  0.1511
  124MOL0     H16322   5.545   2.222   1.930 -1.7549 -1.4010  0.7679
  124MOL0     H16323   5.566   2.349   2.048  2.2149 -1.5854 -1.5009
  124MOL0     H16324   5.550   2.462   1.829  0.0105 -1.8015 -1.0567
  124MOL0     H16325   5.393   2.487   1.925 -2.6433 -2.6941 -0.1576
  124MOL0     H16326   5.459   2.288   1.695 -1.9429 -2.8143  2.2446
  124MOL0     H16327   5.303   2.314   1.762  0.0082 -0.6280  0.5305
  124MOL0     H16328   5.314   2.443   1.553  2.1988 -2.9338  0.0213
  124MOL0     H16329   5.464   2.518   1.616 -0.5205  2.0680  0.4367
  124MOL0     H16330   5.163   2.670   1.898 -0.7966 -1.7761  2.0545
  124MOL0     H16331   4.906   2.687   1.919  0.6448  1.6317 -0.8557
  124MOL0     H16332   4.477   2.522   1.938  1.3894 -0.1163 -2.4945
  124MOL0     H16333   4.242   2.601   1.976  1.7770 -1.3735 -0.4206
  124MOL0     H16334   4.153   2.953   1.757 -0.1968  0.0427 -0.3420
  124MOL0     H16335   4.148   3.036   1.917 -0.1740  0.3427 -1.9336
  124MOL0     H16336   3.929   2.960   1.951 -0.4824 -1.7632 -1.3805
  124MOL0     H16337   3.932   2.871   1.798 -0.7796 -1.2323  0.6311
  124MOL0     H16338   3.945   3.052   1.657 -2.4503 -2.7287 -0.2973
  124MOL0     H16339   3.979   3.170   1.785 -0.7938  0.0785  0.2020
  124MOL0     H16340   3.714   3.008   1.769 -0.0927 -0.8204  2.0321
  124MOL0     H16341   3.748   3.144   1.866 -0.0565 -2.7352  2.0362
  124MOL0     H16342   3.715   3.124   1.574 -1.3477 -1.4380  2.4342
  124MOL0     H16343   3.818   3.273   1.634  0.1084 -0.8049 -2.1255
  124MOL0     H16344   3.587   3.339   1.601 -2.5523 -0.7311 -0.7835
  124MOL0     H16345   3.630   3.341   1.772  2.9656  0.3004 -0.4804
  124MOL0     H16346   3.483   3.097   1.638  0.8753  1.8094 -0.9386
  124MOL0     H16347   3.509   3.136   1.814 -1.0012 -0.7620 -0.4045
  124MOL0     H16348   3.277   3.153   1.738 -1.4447  0.8886  0.8305
  124MOL0     H16349   3.326   3.271   1.610 -1.1598  0.3223  0.4741
  124MOL0     H16350   4.372   2.998   1.867 -2.0264 -0.0763  3.0790
  124MOL0     H16351   4.610   2.909   1.829 -0.1562 -2.4937 -3.9341
  124MOL0     H16352   4.868   2.479   1.555 -0.7362 -0.6960  0.6627
  124MOL0     H16353   5.092   2.457   1.532 -5.3977 -2.0535 -0.2249
  124MOL0     H16354   4.302   2.649   2.609  1.8237 -2.5995  0.6896
  124MOL0     H16355   4.049   2.732   2.616 -1.7883 -2.0867  2.2293
  124MOL0     H16356   3.635   2.758   2.794  2.4505  1.0695 -1.4403
  124MOL0     H16357   3.407   2.834   2.775 -2.5081  0.0932 -1.5268
  124MOL0     H16358   3.176   2.642   2.500 -4.3535  0.0318 -1.8056
  124MOL0     H16359   3.071   2.781   2.483  1.4772  4.0178  0.2933
  124MOL0     H16360   3.005   2.645   2.654 -0.1205  0.6096 -0.6742
  124MOL0     H16361   3.152   2.649   2.742 -0.1032  0.0208 -0.0955
  124MOL0     H16362   2.992   2.895   2.698  2.5311 -0.8327 -2.5379
  124MOL0     H16363   3.151   2.889   2.777 -0.7146  0.3014  0.2089
  124MOL0     H16364   2.917   2.727   2.890  0.0874 -0.3151 -1.0847
  124MOL0     H16365   3.061   2.783   2.977 -1.0700 -1.6036  0.3671
  124MOL0     H16366   2.815   3.138   3.007  1.0293  0.3398 -0.1439
  124MOL0     H16367   3.398   2.726   2.353 -0.7246 -0.3256  0.3925
  124MOL0     H16368   3.626   2.655   2.370 -0.8946  1.4312 -0.6452
  125MOL0     O16369   6.247   9.845   3.828 -0.0212 -0.2011 -0.4130
  125MOL0     C16370   6.342   9.785   3.800  0.4194  0.3110  0.0220
  125MOL0     O16371   6.349   9.648   3.764 -0.7692 -0.5609  0.3212
  125MOL0     C16372   6.237   9.570   3.744  0.4632 -0.9684  0.3954
  125MOL0     C16373   6.132   9.569   3.829 -0.1822  0.0199 -0.0554
  125MOL0     C16374   6.024   9.481   3.815 -0.1493 -0.5828 -0.2890
  125MOL0     C16375   6.019   9.391   3.708  0.5176 -0.4147 -0.6276
  125MOL0     O16376   5.905   9.317   3.682 -0.6864  0.6618  0.4621
  125MOL0     C16377   5.942   9.181   3.687  0.5776  0.5912  0.9915
  125MOL0     C16378   5.811   9.097   3.701  0.0753 -0.0290  0.0096
  125MOL0     C16379   5.839   8.974   3.787 -0.7106  0.6545  0.3667
  125MOL0     C16380   5.723   8.880   3.797 -0.6412 -0.2354  0.1115
  125MOL0     C16381   5.621   8.933   3.890  0.2025 -0.2731 -0.3483
  125MOL0     C16382   5.488   8.852   3.888 -0.2430 -0.2491  1.4908
  125MOL0     C16383   5.382   8.916   3.980 -0.1922  0.6620 -0.6341
  125MOL0     C16384   5.421   8.916   4.130  0.4112  1.2604  0.0729
  125MOL0     N16385   5.301   8.930   4.212 -0.9001  1.0498  0.2530
  125MOL0     C16386   5.233   9.049   4.208 -0.0460 -0.1590 -0.1457
  125MOL0     C16387   5.125   9.021   4.282 -0.5449  0.1838  0.4304
  125MOL0     C16388   5.046   9.140   4.340  0.7186  0.1899  0.5251
  125MOL0     C16389   4.904   9.097   4.382  0.2972 -1.1866 -0.3820
  125MOL0     C16390   4.815   9.217   4.417  0.4863  0.1160 -0.5370
  125MOL0     C16391   4.744   9.270   4.289  0.1396  0.5918 -0.0592
  125MOL0     O16392   4.675   9.392   4.327 -0.5963  0.1508 -0.3940
  125MOL0     C16393   4.601   9.457   4.233  0.3165 -1.2036  0.1256
  125MOL0     C16394   4.569   9.400   4.117  0.0421 -0.3258 -0.6365
  125MOL0     C16395   4.489   9.467   4.024 -0.2891 -0.1775 -0.3100
  125MOL0     C16396   4.429   9.600   4.057 -0.6176  0.5172 -0.2229
  125MOL0     C16397   4.326   9.662   3.961  0.2258 -0.1575 -0.0351
  125MOL0     O16398   4.253   9.771   4.009 -0.1187  0.7518  0.9581
  125MOL0     C16399   4.129   9.795   3.963  0.5513 -0.0631  0.8214
  125MOL0     C16400   4.101   9.808   3.822 -0.4364  1.0618 -0.2929
  125MOL0     C16401   3.985   9.854   3.774  0.4595  0.0244  0.1660
  125MOL0     C16402   3.884   9.895   3.863  0.1045  0.7366  0.3751
  125MOL0     O16403   3.761   9.948   3.828 -0.4013  0.0241 -0.7279
  125MOL0     C16404   3.730   9.963   3.697  0.2409 -0.3252  1.5945
  125MOL0     C16405   3.600  10.038   3.673 -0.4407 -1.4477 -0.4324
  125MOL0     C16406   3.546  10.020   3.540  1.1719 -0.2043  1.0979
  125MOL0     C16407   3.408  10.092   3.525 -0.5704  0.0452  0.0693
  125MOL0     C16408   3.361  10.095   3.377  0.2265  0.0658 -0.2137
  125MOL0     C16409   3.221  10.164   3.344 -0.9030  0.1740 -0.8251
  125MOL0     C16410   3.094  10.091   3.392 -0.0542  0.0400 -0.9021
  125MOL0     C16411   2.966  10.163   3.350  0.1474  0.0014  0.2858
  125MOL0    Cl16412   2.814  10.117   3.431 -0.2653 -0.2440  0.1921
  125MOL0     C16413   3.899   9.873   4.002 -0.8212  0.6667  0.6185
  125MOL0     C16414   4.025   9.826   4.054 -0.3029 -0.9774 -0.1273
  125MOL0     O16415   4.317   9.604   3.849 -0.4137  0.5802 -0.1364
  125MOL0     C16416   4.473   9.656   4.175 -0.4979 -0.3940 -0.4268
  125MOL0     C16417   4.547   9.587   4.268  0.4953  0.0380 -0.2354
  125MOL0     N16418   5.133   8.898   4.337 -0.4711 -0.1356  0.2074
  125MOL0     N16419   5.242   8.845   4.289 -0.1331  0.0454 -0.1929
  125MOL0     C16420   6.129   9.397   3.617 -0.5600  0.7448  0.3536
  125MOL0     C16421   6.247   9.475   3.638  0.3848 -0.3923  0.5125
  125MOL0     C16422   6.480   9.852   3.801 -0.7287  0.0383 -0.2353
  125MOL0     C16423   6.603   9.782   3.805  0.0361  0.0398 -0.2047
  125MOL0     C16424   6.729   9.841   3.823 -0.4795 -0.1180 -0.9274
  125MOL0     C16425   6.735   9.977   3.835 -0.1724 -0.1150  0.0510
  125MOL0     O16426   6.845  10.051   3.871 -0.5187  0.5427  0.5195
  125MOL0     C16427   6.863  10.055   4.011  0.0990  0.3730  0.0448
  125MOL0     C16428   6.832  10.195   4.069 -0.0509 -0.1558 -0.0885
  125MOL0     C16429   6.908  10.308   3.985  0.6067 -0.3499  1.1505
  125MOL0     C16430   7.057  10.284   3.967 -0.0721  0.5284  0.6029
  125MOL0     C16431   7.129  10.263   4.094 -0.2649 -1.4154 -0.2019
  125MOL0     C16432   7.197  10.250   4.196 -0.2818 -0.6672  0.2359
  125MOL0     C16433   6.611  10.055   3.833  0.8058 -0.6004 -0.0580
  125MOL0     C16434   6.492   9.991   3.811 -0.5665  0.3091 -0.6275
  125MOL0     H16435   6.145   9.629   3.918  0.0683 -2.8910  2.0338
  125MOL0     H16436   5.940   9.489   3.884  0.7329  3.4547  0.5681
  125MOL0     H16437   6.011   9.165   3.770  2.2070 -0.9914 -0.5804
  125MOL0     H16438   5.998   9.146   3.600 -0.5950  0.6168  0.1993
  125MOL0     H16439   5.762   9.076   3.606  1.0493 -3.8504  0.1770
  125MOL0     H16440   5.740   9.148   3.766 -1.9100 -0.1749 -1.9526
  125MOL0     H16441   5.881   9.005   3.883 -0.5881  3.0490 -0.3858
  125MOL0     H16442   5.924   8.926   3.738  0.8615  1.6934  1.9534
  125MOL0     H16443   5.675   8.861   3.701  0.6231 -2.1969 -0.1848
  125MOL0     H16444   5.762   8.779   3.818 -0.4161  0.0099  0.9345
  125MOL0     H16445   5.589   9.033   3.858 -1.1107 -0.4780  0.2592
  125MOL0     H16446   5.666   8.938   3.989  0.3678  2.1516 -0.4966
  125MOL0     H16447   5.525   8.761   3.935 -1.0373 -1.6376 -0.4671
  125MOL0     H16448   5.448   8.838   3.787 -2.1347 -1.0539  2.2912
  125MOL0     H16449   5.362   9.019   3.951 -1.4243  0.0625 -2.0589
  125MOL0     H16450   5.285   8.866   3.970  0.3259 -0.1275 -2.0462
  125MOL0     H16451   5.487   9.002   4.142 -0.7073  2.4032 -1.4394
  125MOL0     H16452   5.474   8.828   4.167 -3.6632 -0.4529  2.5088
  125MOL0     H16453   5.260   9.149   4.173  0.8093 -0.2610  0.1955
  125MOL0     H16454   5.045   9.214   4.260 -2.3775 -1.0337 -0.7147
  125MOL0     H16455   5.090   9.180   4.432  1.5482 -1.3978  0.8542
  125MOL0     H16456   4.911   9.036   4.473  0.6423 -1.2582 -0.4551
  125MOL0     H16457   4.856   9.030   4.311  0.6943 -2.0063  0.1141
  125MOL0     H16458   4.738   9.195   4.491  2.4750 -0.0886  1.5673
  125MOL0     H16459   4.882   9.293   4.457 -1.3979 -0.0812  3.5066
  125MOL0     H16460   4.669   9.197   4.258  0.4543 -1.0200  2.6072
  125MOL0     H16461   4.814   9.280   4.205 -0.2455 -1.5898 -0.6855
  125MOL0     H16462   4.605   9.302   4.087  0.8300  0.5876 -2.8457
  125MOL0     H16463   4.469   9.411   3.933 -0.8447 -0.4139 -0.0519
  125MOL0     H16464   4.177   9.792   3.747  1.3611  0.6402  1.5550
  125MOL0     H16465   3.972   9.861   3.667 -1.0602  2.8079  0.4312
  125MOL0     H16466   3.716   9.865   3.650  0.3192  1.5025 -2.6902
  125MOL0     H16467   3.816  10.013   3.651 -0.3845 -1.5303 -1.1046
  125MOL0     H16468   3.618  10.143   3.697 -0.6634 -0.5133 -3.7935
  125MOL0     H16469   3.527  10.000   3.745 -0.6974 -0.2183 -0.0339
  125MOL0     H16470   3.523   9.914   3.527 -0.1568  0.1590  0.3199
  125MOL0     H16471   3.623  10.056   3.470  0.7122 -2.6714 -0.8012
  125MOL0     H16472   3.332  10.042   3.587 -1.0281 -1.8477 -1.9112
  125MOL0     H16473   3.417  10.191   3.571  0.5195  0.0331 -0.1052
  125MOL0     H16474   3.344   9.995   3.336 -0.9892  0.0057  0.4122
  125MOL0     H16475   3.431  10.152   3.315 -2.5075  1.4712 -2.2272
  125MOL0     H16476   3.227  10.182   3.236 -2.5208  1.9507 -0.6598
  125MOL0     H16477   3.220  10.266   3.383 -1.5132  0.0569 -0.5304
  125MOL0     H16478   3.087   9.987   3.358 -0.9481  0.1087 -0.9497
  125MOL0     H16479   3.103  10.087   3.501 -0.6978 -0.9977 -0.8770
  125MOL0     H16480   2.948  10.135   3.246 -0.6878  0.0746  0.3998
  125MOL0     H16481   2.995  10.269   3.356 -1.5768  0.7539 -2.7256
  125MOL0     H16482   3.832   9.903   4.082 -0.2272 -0.4001  1.5482
  125MOL0     H16483   4.039   9.809   4.161  0.6339 -3.2212 -0.5489
  125MOL0     H16484   4.439   9.757   4.196  1.9201  0.5821 -0.8898
  125MOL0     H16485   4.580   9.631   4.362  2.0354 -2.3582  0.4615
  125MOL0     H16486   6.122   9.343   3.523 -0.8050 -1.7310  1.7165
  125MOL0     H16487   6.333   9.465   3.573  0.5613  3.5491 -0.1039
  125MOL0     H16488   6.593   9.675   3.815  0.0742  0.0649  0.1188
  125MOL0     H16489   6.822   9.786   3.833 -0.2544  0.4576  0.3679
  125MOL0     H16490   6.966  10.020   4.011 -0.4457 -1.6010 -3.1087
  125MOL0     H16491   6.804   9.983   4.070  0.8758  0.2003  0.6272
  125MOL0     H16492   6.723  10.207   4.075  0.0488  1.3191 -0.8965
  125MOL0     H16493   6.872  10.194   4.170  1.9971 -0.3853 -0.8592
  125MOL0     H16494   6.880  10.402   4.034 -0.4994 -0.4164  0.6671
  125MOL0     H16495   6.875  10.317   3.882 -0.2565  1.1586  1.5289
  125MOL0     H16496   7.066  10.197   3.902  2.9745  0.8822  0.4033
  125MOL0     H16497   7.117  10.358   3.913  0.6872  0.1172  0.8656
  125MOL0     H16498   7.251  10.239   4.288  0.3195  0.3037  0.0094
  125MOL0     H16499   6.612  10.162   3.852  0.1275 -0.5280 -0.3879
  125MOL0     H16500   6.397  10.042   3.823 -0.2676  0.3578  2.3344
  126MOL0     O16501   3.475   4.746   0.698  0.5077  0.2627  0.6011
  126MOL0     C16502   3.518   4.733   0.814 -0.4755 -0.4554  0.0798
  126MOL0     O16503   3.445   4.739   0.928 -0.3352 -0.8966 -0.7374
  126MOL0     C16504   3.310   4.758   0.931 -0.7171  0.2002 -0.2887
  126MOL0     C16505   3.248   4.805   1.047 -1.0855 -0.3133 -0.1465
  126MOL0     C16506   3.109   4.822   1.062  0.4849 -0.3371 -0.5895
  126MOL0     C16507   3.029   4.789   0.957  0.0609 -0.5676 -0.9192
  126MOL0     O16508   2.895   4.805   0.949 -0.0293 -0.1637  0.5539
  126MOL0     C16509   2.822   4.854   1.061 -0.3932  0.0809 -0.3618
  126MOL0     C16510   2.669   4.839   1.020 -0.3006  0.2518 -0.2299
  126MOL0     C16511   2.626   4.697   0.990  0.9102 -1.2937 -0.4368
  126MOL0     C16512   2.470   4.696   0.954 -0.4753 -0.3351 -0.4340
  126MOL0     C16513   2.385   4.719   1.074 -1.2884  0.5557 -0.5945
  126MOL0     C16514   2.241   4.718   1.017 -0.0687  0.5784  0.1562
  126MOL0     C16515   2.132   4.728   1.124 -0.0632  0.0428  0.0704
  126MOL0     C16516   2.093   4.878   1.129  0.6262 -0.3081 -0.0021
  126MOL0     N16517   2.034   4.928   1.254 -0.0212 -0.2114  0.1129
  126MOL0     C16518   1.913   4.865   1.287  0.1097 -1.0434  0.8182
  126MOL0     C16519   1.887   4.909   1.414 -0.5184 -0.4377  0.6011
  126MOL0     C16520   1.766   4.881   1.504 -0.4539  0.5546 -0.1291
  126MOL0     C16521   1.648   4.981   1.479  0.0860  0.3444 -0.0105
  126MOL0     C16522   1.584   5.024   1.612  0.6042  0.1480  0.0136
  126MOL0     C16523   1.672   5.120   1.695 -0.5166  0.3464 -0.6082
  126MOL0     O16524   1.616   5.171   1.813  0.4586  0.3571 -0.7116
  126MOL0     C16525   1.485   5.220   1.801 -0.4905 -0.0452 -0.4189
  126MOL0     C16526   1.385   5.183   1.890  0.5580 -0.2156  0.1414
  126MOL0     C16527   1.262   5.240   1.880 -0.4946 -0.2344  0.0739
  126MOL0     C16528   1.226   5.332   1.784  1.1295  0.4372 -0.2713
  126MOL0     C16529   1.088   5.388   1.780 -0.4551 -0.2555 -0.1950
  126MOL0     O16530   1.010   5.369   1.891 -0.2748  0.2896 -0.1931
  126MOL0     C16531   0.879   5.400   1.879  0.1318 -0.3219  0.3640
  126MOL0     C16532   0.835   5.530   1.894  0.3945 -0.3528 -0.4152
  126MOL0     C16533   0.698   5.563   1.899  0.0482 -0.5045 -0.8200
  126MOL0     C16534   0.599   5.458   1.888  0.2238  0.0910  0.2744
  126MOL0     O16535   0.466   5.498   1.904 -0.1244  0.6186 -0.5421
  126MOL0     C16536   0.355   5.420   1.843  0.2500 -0.5440 -0.1418
  126MOL0     C16537   0.227   5.509   1.848 -0.9929  0.8688 -0.0371
  126MOL0     C16538   0.174   5.532   1.987 -0.3389  0.0562  0.0161
  126MOL0     C16539   0.040   5.603   1.972 -0.6235 -0.0163 -0.5385
  126MOL0     C16540  -0.022   5.651   2.101  0.6238  0.5281  0.5043
  126MOL0     C16541  -0.091   5.539   2.174  0.3667  0.1629 -0.0739
  126MOL0     C16542  -0.189   5.462   2.093 -0.0883 -0.0618  1.2366
  126MOL0     C16543  -0.261   5.345   2.172  0.2116  0.4088  0.3696
  126MOL0    Cl16544  -0.304   5.409   2.337  0.0290 -0.1139 -0.1446
  126MOL0     C16545   0.642   5.329   1.861 -0.0599  0.8310 -0.2034
  126MOL0     C16546   0.780   5.301   1.863 -0.2632 -0.9176  1.1093
  126MOL0     O16547   1.051   5.449   1.679  0.0957  0.6790 -0.1276
  126MOL0     C16548   1.331   5.370   1.698 -0.7306 -0.8022 -0.4048
  126MOL0     C16549   1.464   5.319   1.708  0.0750 -0.3354  0.4747
  126MOL0     N16550   2.007   4.991   1.451 -0.4793  0.0305 -0.0863
  126MOL0     N16551   2.097   4.996   1.355  0.5795 -0.2993  0.7516
  126MOL0     C16552   3.091   4.744   0.839 -0.1680  0.6184  0.0570
  126MOL0     C16553   3.231   4.727   0.825  0.0593  0.2281 -0.0477
  126MOL0     C16554   3.664   4.727   0.827 -0.2640 -0.3107 -0.7630
  126MOL0     C16555   3.717   4.688   0.946 -0.7493  0.2340  0.4846
  126MOL0     C16556   3.856   4.682   0.971  0.3445  1.1813 -0.4767
  126MOL0     C16557   3.948   4.729   0.877 -0.1249 -0.5340 -0.4291
  126MOL0     O16558   4.089   4.727   0.878 -0.0005 -0.3594  0.3340
  126MOL0     C16559   4.158   4.706   1.007  0.3665  0.1547 -0.4026
  126MOL0     C16560   4.275   4.796   1.050 -0.3391 -0.7766  0.6566
  126MOL0     C16561   4.394   4.761   0.958  0.5560  0.1318  0.0014
  126MOL0     C16562   4.515   4.855   0.975 -0.0654 -0.4062 -0.4829
  126MOL0     C16563   4.583   4.843   1.107  0.4348  0.2754 -0.9026
  126MOL0     C16564   4.630   4.813   1.212 -0.4395 -0.2314  0.8323
  126MOL0     C16565   3.891   4.771   0.756  0.4694  0.7335  0.3879
  126MOL0     C16566   3.754   4.770   0.729 -0.6886 -0.0877 -0.1022
  126MOL0     H16567   3.314   4.836   1.128  0.4190 -3.6557  0.1069
  126MOL0     H16568   3.067   4.870   1.150  0.4472  3.4419 -2.4714
  126MOL0     H16569   2.851   4.958   1.077 -0.8053  0.3743 -1.4347
  126MOL0     H16570   2.847   4.796   1.150 -0.9832 -1.8267 -1.3677
  126MOL0     H16571   2.638   4.902   0.936 -1.3016  0.7252  0.4741
  126MOL0     H16572   2.613   4.872   1.108 -2.1036  0.4990 -1.4205
  126MOL0     H16573   2.637   4.636   1.080  1.1574  1.1745  1.3084
  126MOL0     H16574   2.689   4.659   0.910  0.6270  0.5803 -1.6038
  126MOL0     H16575   2.448   4.759   0.868  3.7840  1.1105 -0.7218
  126MOL0     H16576   2.467   4.591   0.922 -0.5657 -0.1411 -1.0675
  126MOL0     H16577   2.394   4.822   1.110 -1.4650 -0.3103  2.0856
  126MOL0     H16578   2.404   4.641   1.148  0.6240  1.2848 -0.2486
  126MOL0     H16579   2.226   4.623   0.964  0.4328  0.7004 -0.2134
  126MOL0     H16580   2.235   4.800   0.944 -0.8228  1.5099  1.2313
  126MOL0     H16581   2.040   4.680   1.089 -0.8877  2.6100 -1.5190
  126MOL0     H16582   2.173   4.700   1.222  4.0583  3.8827 -0.2115
  126MOL0     H16583   2.026   4.900   1.045 -0.1468  2.9445  1.3411
  126MOL0     H16584   2.175   4.948   1.111 -1.0129  1.5438 -0.5563
  126MOL0     H16585   1.845   4.806   1.226 -0.1021  0.9277 -0.9457
  126MOL0     H16586   1.807   4.892   1.605 -0.4726  0.7661 -0.1434
  126MOL0     H16587   1.735   4.779   1.481 -1.1259  0.8988 -0.8122
  126MOL0     H16588   1.571   4.935   1.416 -0.1137  1.1508 -0.3661
  126MOL0     H16589   1.701   5.061   1.427  3.4393 -1.6961 -0.0016
  126MOL0     H16590   1.488   5.074   1.594 -0.5370 -1.8240  0.2566
  126MOL0     H16591   1.572   4.940   1.682 -3.4811  0.4729 -0.0595
  126MOL0     H16592   1.706   5.188   1.615  2.6974 -2.2694 -1.7267
  126MOL0     H16593   1.763   5.068   1.728 -0.0850  1.1899 -0.4335
  126MOL0     H16594   1.412   5.103   1.958  0.3132 -0.6056 -0.2132
  126MOL0     H16595   1.201   5.199   1.960 -0.0787  1.0849  1.1149
  126MOL0     H16596   0.905   5.610   1.914  0.5861 -0.8378  0.9445
  126MOL0     H16597   0.658   5.662   1.916 -0.0866 -0.4126 -1.6034
  126MOL0     H16598   0.349   5.320   1.889  1.7483 -0.1433  1.0293
  126MOL0     H16599   0.382   5.413   1.738  2.9734 -2.1983  0.5519
  126MOL0     H16600   0.151   5.455   1.790 -1.2646 -0.7794  1.7669
  126MOL0     H16601   0.250   5.606   1.803  0.1584 -0.2080 -1.9085
  126MOL0     H16602   0.252   5.584   2.043 -0.5568 -1.1026  1.4744
  126MOL0     H16603   0.163   5.435   2.037 -1.2208  1.0006  1.7628
  126MOL0     H16604   0.058   5.686   1.902  0.7427 -1.4582 -1.9871
  126MOL0     H16605  -0.028   5.550   1.905 -1.2436  2.0695 -1.6517
  126MOL0     H16606  -0.106   5.716   2.075 -1.5914 -2.8485 -1.6079
  126MOL0     H16607   0.045   5.698   2.174  0.3823  0.1428  0.9761
  126MOL0     H16608  -0.140   5.598   2.252  0.6195  1.4625 -0.8732
  126MOL0     H16609  -0.022   5.465   2.216 -0.3344  0.1983  1.2134
  126MOL0     H16610  -0.263   5.523   2.041  2.0052  1.7230  0.2035
  126MOL0     H16611  -0.139   5.402   2.017 -0.6364 -0.5906  1.2816
  126MOL0     H16612  -0.201   5.255   2.185  0.0144  0.2957  0.5176
  126MOL0     H16613  -0.351   5.312   2.119 -0.2883  0.9881  0.8370
  126MOL0     H16614   0.568   5.250   1.862 -1.3374  1.9691  0.4853
  126MOL0     H16615   0.804   5.202   1.827 -0.0301  0.5541 -3.4241
  126MOL0     H16616   1.322   5.449   1.625  2.5215  0.6382  0.5668
  126MOL0     H16617   1.541   5.348   1.638 -0.4281 -2.1057 -0.8710
  126MOL0     H16618   3.032   4.731   0.749  0.3620 -2.8589  0.0711
  126MOL0     H16619   3.262   4.683   0.731  0.0290 -1.8887  0.8673
  126MOL0     H16620   3.647   4.663   1.025  0.9342 -0.0116  1.9579
  126MOL0     H16621   3.879   4.639   1.068 -3.5102 -0.3891 -0.0539
  126MOL0     H16622   4.199   4.605   1.013  2.8079  0.9979 -1.5981
  126MOL0     H16623   4.089   4.727   1.089 -0.5432 -2.9809 -0.2181
  126MOL0     H16624   4.255   4.896   1.012 -0.6497 -0.6914  1.0393
  126MOL0     H16625   4.296   4.795   1.158 -1.4848  1.6899  0.9598
  126MOL0     H16626   4.366   4.768   0.853 -1.0310 -0.7737  0.3280
  126MOL0     H16627   4.429   4.659   0.977  2.9645  1.1942  1.9057
  126MOL0     H16628   4.588   4.830   0.898  1.7751 -0.9268  1.3356
  126MOL0     H16629   4.485   4.959   0.965 -0.8458 -0.7281 -1.7509
  126MOL0     H16630   4.674   4.794   1.308 -2.9640 -4.1919  1.4560
  126MOL0     H16631   3.957   4.820   0.686 -0.0647  0.8026 -0.0817
  126MOL0     H16632   3.712   4.803   0.635 -1.7498  0.1355  0.4328
  127MOL0     O16633   4.274   0.856   0.419 -0.1547 -0.2421 -0.4530
  127MOL0     C16634   4.355   0.946   0.450  0.0001 -0.9605  0.2755
  127MOL0     O16635   4.328   1.052   0.534  0.4879 -0.6527  0.6376
  127MOL0     C16636   4.209   1.054   0.610 -0.2586  0.0226  0.6169
  127MOL0     C16637   4.155   1.181   0.635  0.2048 -0.5313  0.3504
  127MOL0     C16638   4.027   1.192   0.691  0.2594 -1.1212 -0.1208
  127MOL0     C16639   3.955   1.092   0.738 -0.1424  0.1787 -0.4528
  127MOL0     O16640   3.833   1.128   0.788  0.2942  0.3788 -0.6588
  127MOL0     C16641   3.751   1.024   0.853  0.6083 -0.1524 -0.8530
  127MOL0     C16642   3.617   1.086   0.887  0.3476 -1.0346  0.4825
  127MOL0     C16643   3.564   1.030   1.022 -0.5203  0.1537  0.3232
  127MOL0     C16644   3.426   1.084   1.053  0.8733 -0.1040  0.1816
  127MOL0     C16645   3.381   1.044   1.196 -0.5201  0.1662  0.3174
  127MOL0     C16646   3.230   1.058   1.193  0.3483 -0.0487 -0.0154
  127MOL0     C16647   3.144   1.048   1.323 -0.0432 -0.2353  0.6146
  127MOL0     C16648   3.171   1.181   1.408 -0.3882  0.9588  0.0684
  127MOL0     N16649   3.248   1.164   1.534  0.7759  0.3167 -0.2963
  127MOL0     C16650   3.217   1.090   1.651 -0.1078  0.3532 -0.0395
  127MOL0     C16651   3.292   1.137   1.747  0.4248 -0.0067 -0.2874
  127MOL0     C16652   3.298   1.096   1.888 -0.6340 -0.2418 -0.1365
  127MOL0     C16653   3.171   1.138   1.971 -0.7557 -0.1338 -1.2696
  127MOL0     C16654   3.130   1.032   2.078  0.4003 -0.8113  0.0855
  127MOL0     C16655   3.041   1.087   2.184  0.0359 -0.0073 -0.8292
  127MOL0     O16656   2.936   1.167   2.128  0.3244 -0.3005 -0.3356
  127MOL0     C16657   2.816   1.172   2.195  0.1080 -0.3338 -0.1465
  127MOL0     C16658   2.808   1.193   2.337 -0.4885  0.1792  0.1187
  127MOL0     C16659   2.682   1.210   2.402  0.2439  0.4415  0.2793
  127MOL0     C16660   2.568   1.206   2.326 -0.6655 -0.4643 -0.6743
  127MOL0     C16661   2.428   1.219   2.383 -0.9299  0.4791  0.0517
  127MOL0     O16662   2.418   1.309   2.488 -0.7638 -0.2070  0.0770
  127MOL0     C16663   2.293   1.321   2.545  0.0793  0.5612 -0.5946
  127MOL0     C16664   2.218   1.205   2.592  0.6530 -0.3079 -0.4303
  127MOL0     C16665   2.086   1.227   2.629  0.9453  0.0977  0.0541
  127MOL0     C16666   2.027   1.347   2.637  0.1710 -0.5203  0.6984
  127MOL0     O16667   1.892   1.348   2.664 -0.7121 -0.1206 -0.3971
  127MOL0     C16668   1.813   1.451   2.604 -0.9653  1.0632 -0.3192
  127MOL0     C16669   1.812   1.456   2.455 -0.5946 -0.2083  0.4502
  127MOL0     C16670   1.754   1.333   2.374 -0.0391  0.4171  0.1127
  127MOL0     C16671   1.858   1.238   2.319 -0.5016  0.3230  1.1204
  127MOL0     C16672   1.807   1.124   2.230 -0.7194  0.1657  0.4769
  127MOL0     C16673   1.915   1.018   2.221 -0.3736 -0.4299  0.9638
  127MOL0     C16674   2.045   1.060   2.150  0.7763  0.3774 -0.9162
  127MOL0     C16675   2.164   0.965   2.163  0.0673 -0.5379  0.0813
  127MOL0    Cl16676   2.134   0.817   2.073 -0.3125 -0.4208 -0.0221
  127MOL0     C16677   2.114   1.460   2.610  0.3641 -0.4537 -0.9220
  127MOL0     C16678   2.245   1.447   2.568 -0.5489 -0.1375  0.2115
  127MOL0     O16679   2.341   1.140   2.344  0.6555  0.1118 -0.2097
  127MOL0     C16680   2.579   1.199   2.188 -0.4302  0.0307  0.7939
  127MOL0     C16681   2.703   1.176   2.119  0.0846 -0.0349 -0.6008
  127MOL0     N16682   3.382   1.228   1.687  0.7983 -0.4463  0.0203
  127MOL0     N16683   3.358   1.237   1.558 -0.2385 -0.3775  0.4806
  127MOL0     C16684   4.015   0.958   0.721  0.5724 -0.6007 -0.2796
  127MOL0     C16685   4.135   0.946   0.654  1.4237 -0.3084  0.5914
  127MOL0     C16686   4.494   0.957   0.382  0.6783 -0.1763 -0.1327
  127MOL0     C16687   4.512   0.918   0.256 -0.6616 -0.2688  0.3030
  127MOL0     C16688   4.636   0.933   0.195 -0.0964 -0.4163 -0.3545
  127MOL0     C16689   4.756   0.977   0.269 -0.0658 -0.3319 -0.6469
  127MOL0     O16690   4.875   1.014   0.212  0.3560 -0.2516 -0.3292
  127MOL0     C16691   4.992   0.942   0.250 -0.9649  0.1955 -0.3392
  127MOL0     C16692   5.012   0.833   0.146 -0.3585  0.4762  0.7788
  127MOL0     C16693   5.008   0.883  -0.002  0.4440 -0.5646 -0.1349
  127MOL0     C16694   5.032   0.787  -0.114  0.6634  0.7010 -0.4721
  127MOL0     C16695   5.168   0.727  -0.112  0.1398  0.2470 -0.1062
  127MOL0     C16696   5.279   0.692  -0.140  0.3318 -0.8315  0.5462
  127MOL0     C16697   4.736   1.018   0.400  1.1366  0.5726 -0.1359
  127MOL0     C16698   4.609   1.007   0.457  0.4935 -0.1162 -0.9426
  127MOL0     H16699   4.206   1.268   0.595  1.7948 -0.5676  2.1063
  127MOL0     H16700   3.978   1.288   0.695 -3.4130 -2.8045 -0.7748
  127MOL0     H16701   3.801   0.991   0.945 -0.7304  0.5184  0.1679
  127MOL0     H16702   3.731   0.930   0.801  1.5655 -1.4703  1.0493
  127MOL0     H16703   3.542   1.068   0.810  1.0486  0.3130 -0.5411
  127MOL0     H16704   3.628   1.195   0.892 -2.2267 -0.7174  0.7345
  127MOL0     H16705   3.629   1.065   1.103 -2.7042 -1.1621  2.7837
  127MOL0     H16706   3.560   0.922   1.034 -1.1033  0.3065  1.6351
  127MOL0     H16707   3.426   1.193   1.046 -0.0851 -0.0209  1.2128
  127MOL0     H16708   3.362   1.048   0.972  1.7396  0.6512 -0.8843
  127MOL0     H16709   3.430   1.108   1.269 -0.9239  1.2900 -0.3814
  127MOL0     H16710   3.401   0.937   1.210 -0.7359 -0.2410 -2.0085
  127MOL0     H16711   3.187   0.989   1.120  0.8929 -0.1305 -0.2577
  127MOL0     H16712   3.218   1.162   1.162  2.2075  0.2702  0.2632
  127MOL0     H16713   3.040   1.032   1.294 -0.6907 -0.1921  2.6953
  127MOL0     H16714   3.168   0.958   1.381  0.7764 -0.8820 -0.6714
  127MOL0     H16715   3.066   1.208   1.419 -0.0884  2.5876 -0.6316
  127MOL0     H16716   3.212   1.267   1.354  2.3849  3.0117  4.6973
  127MOL0     H16717   3.141   1.012   1.655  0.5201 -0.2780 -0.1398
  127MOL0     H16718   3.379   1.147   1.941 -0.0521 -1.3336  0.0605
  127MOL0     H16719   3.324   0.990   1.900  1.6917  0.5019  2.4470
  127MOL0     H16720   3.091   1.145   1.897 -1.0839  2.2024 -0.7683
  127MOL0     H16721   3.180   1.237   2.015  2.7976  1.0774 -4.2110
  127MOL0     H16722   3.072   0.953   2.030 -1.7436 -0.8246  2.4722
  127MOL0     H16723   3.214   0.986   2.131  1.1451  1.1531  0.7026
  127MOL0     H16724   3.096   1.143   2.260 -3.4899  0.7888  1.3645
  127MOL0     H16725   2.994   1.002   2.233 -0.2855  1.5455  1.7204
  127MOL0     H16726   2.898   1.196   2.398  1.9842 -0.0296 -3.1911
  127MOL0     H16727   2.666   1.224   2.508 -2.2915  1.8330 -0.2256
  127MOL0     H16728   2.250   1.102   2.578 -2.7489 -1.5053 -0.2667
  127MOL0     H16729   2.020   1.147   2.660 -0.8510  0.5038 -2.4243
  127MOL0     H16730   1.855   1.544   2.644  3.1484 -0.9129  0.4465
  127MOL0     H16731   1.711   1.436   2.641 -1.1628  1.4386 -0.7020
  127MOL0     H16732   1.915   1.470   2.422 -0.8209  0.7687  0.1362
  127MOL0     H16733   1.745   1.540   2.436 -1.1402 -0.1984  2.2323
  127MOL0     H16734   1.710   1.375   2.283 -0.5614 -1.2033 -0.4035
  127MOL0     H16735   1.690   1.267   2.433 -0.7877  1.1490  0.1484
  127MOL0     H16736   1.920   1.295   2.249  0.2698 -1.4059  0.3470
  127MOL0     H16737   1.937   1.201   2.385  1.0727  0.3288 -0.6691
  127MOL0     H16738   1.788   1.160   2.129 -1.4257 -0.5241  0.3499
  127MOL0     H16739   1.717   1.080   2.274 -1.1157  1.0068  0.5220
  127MOL0     H16740   1.863   0.947   2.156 -1.8172  1.2815  0.1440
  127MOL0     H16741   1.939   0.976   2.319  3.1348  2.4905  1.5681
  127MOL0     H16742   2.024   1.092   2.047  1.0750 -0.9891 -1.4253
  127MOL0     H16743   2.089   1.150   2.194  1.4085 -0.1414 -0.4754
  127MOL0     H16744   2.187   0.941   2.267 -0.7343 -0.4370  0.2886
  127MOL0     H16745   2.251   1.019   2.125 -0.4205 -0.6301 -1.2366
  127MOL0     H16746   2.075   1.561   2.603 -1.0010 -0.9946 -1.4937
  127MOL0     H16747   2.296   1.535   2.531  1.6995 -1.5648 -0.2297
  127MOL0     H16748   2.494   1.204   2.120  1.0731  0.2756 -1.1799
  127MOL0     H16749   2.707   1.158   2.012  0.5944  2.0834 -0.9997
  127MOL0     H16750   3.973   0.869   0.766 -2.3779  0.1710 -1.2456
  127MOL0     H16751   4.159   0.843   0.632  1.0274 -0.5778  1.4079
  127MOL0     H16752   4.426   0.879   0.202  1.6652 -2.0932 -2.3630
  127MOL0     H16753   4.652   0.880   0.102  0.5703 -2.9468  1.1006
  127MOL0     H16754   4.988   0.894   0.348  3.7202 -2.0089 -0.9881
  127MOL0     H16755   5.070   1.018   0.243 -0.8247 -0.0081 -1.1953
  127MOL0     H16756   5.112   0.791   0.158  0.7739  3.0323  1.0162
  127MOL0     H16757   4.934   0.758   0.163 -0.0876  0.5049  2.3023
  127MOL0     H16758   5.093   0.952  -0.005  2.0633 -2.1710  3.1466
  127MOL0     H16759   4.911   0.931  -0.019  1.4023  1.9227  0.8897
  127MOL0     H16760   4.958   0.706  -0.110  0.0416  1.0120 -3.3065
  127MOL0     H16761   5.024   0.837  -0.211 -1.5747 -0.9776 -1.2369
  127MOL0     H16762   5.382   0.672  -0.162  0.7553  3.3422 -2.6702
  127MOL0     H16763   4.816   1.058   0.462  0.1350 -2.4990  3.5458
  127MOL0     H16764   4.583   1.028   0.560  3.6401 -1.3497  0.2005
  128MOL0     O16765   4.645   5.302   5.752  0.3152 -0.9304  0.5180
  128MOL0     C16766   4.559   5.391   5.753  0.1953  0.4588  0.8858
  128MOL0     O16767   4.566   5.503   5.821  0.1261 -0.4097  0.3313
  128MOL0     C16768   4.666   5.537   5.910  0.7604 -0.3225  0.8557
  128MOL0     C16769   4.631   5.575   6.042 -0.7129  0.1568 -0.2419
  128MOL0     C16770   4.742   5.604   6.122  0.8869  0.6303 -0.7595
  128MOL0     C16771   4.870   5.613   6.087 -0.7106 -0.7984  0.8385
  128MOL0     O16772   4.954   5.625   6.188 -0.2183 -0.1622 -0.3163
  128MOL0     C16773   5.083   5.687   6.145 -0.3013  0.3172  0.4940
  128MOL0     C16774   5.162   5.739   6.267 -0.2670 -0.1828  0.4019
  128MOL0     C16775   5.090   5.863   6.322 -0.0714  0.3459  0.2717
  128MOL0     C16776   5.180   5.939   6.428  0.3145  0.1500  0.7015
  128MOL0     C16777   5.106   6.051   6.496 -0.2902 -0.3033  0.1156
  128MOL0     C16778   5.007   6.004   6.606 -0.1693 -0.7557  0.3428
  128MOL0     C16779   4.897   6.107   6.630  0.0414 -0.4433 -0.1282
  128MOL0     C16780   4.782   6.067   6.722  0.3112 -0.0550  0.1150
  128MOL0     N16781   4.830   6.039   6.856 -0.0690  0.8687 -0.8939
  128MOL0     C16782   4.828   6.122   6.969 -0.7928 -0.2090 -0.0803
  128MOL0     C16783   4.848   6.052   7.078 -0.2068  1.0469  0.5990
  128MOL0     C16784   4.840   6.095   7.222 -0.4838 -0.2054 -0.2835
  128MOL0     C16785   4.770   5.999   7.312  0.2904  0.2575 -0.1909
  128MOL0     C16786   4.627   5.954   7.260 -0.2692 -0.0337  0.4657
  128MOL0     C16787   4.517   6.055   7.287 -0.3166 -0.0716 -0.2551
  128MOL0     O16788   4.386   6.004   7.301  0.2947  0.2689  0.3042
  128MOL0     C16789   4.279   6.069   7.346  0.5285 -0.4156  0.1388
  128MOL0     C16790   4.262   6.200   7.315 -0.3659 -0.1825  0.3588
  128MOL0     C16791   4.148   6.278   7.335 -0.1596 -0.1246  0.2768
  128MOL0     C16792   4.041   6.216   7.394 -0.0765  0.3399  0.0562
  128MOL0     C16793   3.915   6.283   7.412 -0.1889 -0.1024  0.2055
  128MOL0     O16794   3.824   6.238   7.509 -0.3624 -0.4027  0.8825
  128MOL0     C16795   3.688   6.277   7.506 -0.2549  1.1974 -0.3443
  128MOL0     C16796   3.609   6.331   7.398  0.3220 -0.0636 -0.2586
  128MOL0     C16797   3.475   6.354   7.425 -0.3489 -0.2106 -0.5625
  128MOL0     C16798   3.422   6.338   7.553 -0.8136  0.3668 -0.7419
  128MOL0     O16799   3.291   6.353   7.584  0.8970  0.2774 -0.4441
  128MOL0     C16800   3.204   6.401   7.484 -0.2958 -0.0600 -0.1566
  128MOL0     C16801   3.090   6.486   7.549  0.3646 -0.4315 -0.1613
  128MOL0     C16802   2.967   6.512   7.460 -0.2113 -0.3591  0.4642
  128MOL0     C16803   2.888   6.634   7.495 -0.0079  0.4440 -0.4963
  128MOL0     C16804   2.788   6.662   7.386  0.5427  0.6890 -0.2641
  128MOL0     C16805   2.685   6.759   7.411  0.6638 -0.2076 -0.1641
  128MOL0     C16806   2.606   6.788   7.281 -0.0061  0.1123  0.3008
  128MOL0     C16807   2.487   6.875   7.323  0.3026 -0.2806  0.3714
  128MOL0    Cl16808   2.389   6.906   7.180  0.1379  0.2324 -0.2380
  128MOL0     C16809   3.495   6.278   7.658 -0.5315  0.0794  1.3115
  128MOL0     C16810   3.631   6.251   7.628  0.0546 -0.1184 -0.7202
  128MOL0     O16811   3.895   6.374   7.331  0.6108  0.2069 -0.4527
  128MOL0     C16812   4.056   6.081   7.442 -0.3288 -0.4748  0.1274
  128MOL0     C16813   4.181   6.011   7.416 -0.0010  1.2483  0.3253
  128MOL0     N16814   4.866   5.918   7.033 -0.3840  0.5628  0.1734
  128MOL0     N16815   4.853   5.914   6.907  0.4771 -0.2504  0.0588
  128MOL0     C16816   4.901   5.590   5.954 -0.4388 -0.0013  0.6480
  128MOL0     C16817   4.797   5.563   5.858  0.7435  0.2365  0.0932
  128MOL0     C16818   4.421   5.358   5.706 -1.1263  0.4077 -0.1638
  128MOL0     C16819   4.380   5.227   5.662  0.3428 -0.2361 -0.6390
  128MOL0     C16820   4.251   5.211   5.610  0.2995  0.4027  0.7958
  128MOL0     C16821   4.158   5.314   5.599  0.0156 -0.2474  0.6001
  128MOL0     O16822   4.031   5.312   5.543 -0.1373  0.4027  0.1730
  128MOL0     C16823   3.955   5.194   5.540  0.4903 -0.5004 -0.3234
  128MOL0     C16824   3.872   5.170   5.664 -0.4377 -0.2083 -0.0417
  128MOL0     C16825   3.961   5.095   5.764  0.4247  0.3536  0.6240
  128MOL0     C16826   3.865   5.015   5.851 -0.3435 -0.0045  0.9076
  128MOL0     C16827   3.784   5.099   5.943 -0.3332  0.6756  0.4729
  128MOL0     C16828   3.690   5.144   6.001  0.5489  0.5739  0.2949
  128MOL0     C16829   4.199   5.433   5.652  0.3329 -0.0237  0.2280
  128MOL0     C16830   4.321   5.455   5.704 -0.5359  0.6645 -0.0296
  128MOL0     H16831   4.530   5.562   6.081 -0.1803 -0.2155  1.0721
  128MOL0     H16832   4.708   5.627   6.223  0.7074  0.6646 -0.8280
  128MOL0     H16833   5.077   5.772   6.077  2.2056 -2.1303 -3.1240
  128MOL0     H16834   5.149   5.613   6.100  1.0258  1.6467  0.1606
  128MOL0     H16835   5.251   5.778   6.217 -1.8346  1.1263 -1.5309
  128MOL0     H16836   5.186   5.668   6.346  0.1605  0.0437  0.4770
  128MOL0     H16837   5.000   5.823   6.369 -0.2607  1.2251  0.6859
  128MOL0     H16838   5.052   5.940   6.254 -0.6507  2.1476  2.4871
  128MOL0     H16839   5.204   5.866   6.506  1.5301  0.3711  0.5601
  128MOL0     H16840   5.274   5.979   6.387  0.0006  1.7143  1.4211
  128MOL0     H16841   5.050   6.108   6.421  1.1073  3.0070  1.3654
  128MOL0     H16842   5.180   6.122   6.535  1.0721 -1.7523  0.2594
  128MOL0     H16843   5.062   5.982   6.698 -0.2972  1.8120  1.1333
  128MOL0     H16844   4.956   5.909   6.586  3.6208 -3.2732  1.5727
  128MOL0     H16845   4.931   6.205   6.666  0.2342 -1.1812  1.8183
  128MOL0     H16846   4.847   6.128   6.535  0.5835  2.4236  0.1188
  128MOL0     H16847   4.730   5.983   6.674 -0.0060 -0.4263  1.0746
  128MOL0     H16848   4.714   6.153   6.723  2.3555  1.6695 -1.4311
  128MOL0     H16849   4.798   6.225   6.955  0.2925  0.0560 -0.5768
  128MOL0     H16850   4.778   6.185   7.229  0.1696  0.1453  1.6750
  128MOL0     H16851   4.935   6.120   7.271 -1.1072 -0.5387  1.1440
  128MOL0     H16852   4.781   6.043   7.411  3.4779  2.2275 -1.2465
  128MOL0     H16853   4.845   5.920   7.323 -0.4621 -0.1790  2.4227
  128MOL0     H16854   4.620   5.938   7.152 -0.5707  1.0841  0.3139
  128MOL0     H16855   4.606   5.862   7.317 -0.1475 -0.5796 -0.3550
  128MOL0     H16856   4.512   6.130   7.207 -1.6123  3.4579  2.8741
  128MOL0     H16857   4.530   6.122   7.372  0.1311  2.4526 -2.2084
  128MOL0     H16858   4.342   6.236   7.251  1.5845 -2.7441  1.1734
  128MOL0     H16859   4.138   6.378   7.295  0.0351  0.1233  0.8246
  128MOL0     H16860   3.658   6.359   7.306  0.6236 -1.6225 -0.5895
  128MOL0     H16861   3.422   6.402   7.343 -0.2490  1.6164  0.3737
  128MOL0     H16862   3.161   6.318   7.426 -0.6641  0.7860 -1.1274
  128MOL0     H16863   3.257   6.467   7.415 -0.6222 -0.8338 -1.1872
  128MOL0     H16864   3.138   6.579   7.582 -1.2453  0.1539  0.6470
  128MOL0     H16865   3.051   6.439   7.640  1.8451 -0.3835  0.5440
  128MOL0     H16866   2.916   6.416   7.446  0.7634 -0.5158 -3.0892
  128MOL0     H16867   3.020   6.533   7.367  1.6599  4.0704  2.2311
  128MOL0     H16868   2.841   6.625   7.593 -0.7759 -3.0191 -1.0815
  128MOL0     H16869   2.952   6.722   7.506  1.3055 -0.4176 -1.0022
  128MOL0     H16870   2.743   6.566   7.362 -0.5185  0.7342  1.3759
  128MOL0     H16871   2.840   6.712   7.303  0.9650 -1.0028 -1.0622
  128MOL0     H16872   2.733   6.852   7.444  0.6829 -0.5930  0.9508
  128MOL0     H16873   2.609   6.731   7.484 -1.0638 -1.7137 -2.4281
  128MOL0     H16874   2.656   6.846   7.203 -1.0743  2.1635  1.0673
  128MOL0     H16875   2.569   6.697   7.233 -0.4840 -0.0171  0.8976
  128MOL0     H16876   2.539   6.966   7.354  0.0671  0.4706 -1.3409
  128MOL0     H16877   2.420   6.827   7.395  0.6987 -1.9321 -0.3063
  128MOL0     H16878   3.440   6.247   7.747 -1.1152  0.9907  1.2802
  128MOL0     H16879   3.695   6.199   7.698  2.9048  3.0891 -0.6499
  128MOL0     H16880   3.981   6.042   7.511 -0.0070  2.9659  2.7195
  128MOL0     H16881   4.196   5.913   7.461  1.6234 -0.0437 -2.6520
  128MOL0     H16882   5.005   5.588   5.922  0.1991 -0.5643  2.5534
  128MOL0     H16883   4.809   5.535   5.753  0.4416  2.0181 -0.4498
  128MOL0     H16884   4.451   5.145   5.673 -1.0826 -1.1818  3.2424
  128MOL0     H16885   4.216   5.118   5.566 -0.9377  1.0373  0.3862
  128MOL0     H16886   4.012   5.107   5.508  1.2094  0.6150 -2.2680
  128MOL0     H16887   3.885   5.213   5.458 -0.5302 -1.1313  0.3913
  128MOL0     H16888   3.812   5.246   5.714  2.5293  0.5864  2.6835
  128MOL0     H16889   3.805   5.093   5.624  0.3476 -0.3653 -1.0784
  128MOL0     H16890   4.013   5.170   5.824  1.8058 -1.1455  1.3776
  128MOL0     H16891   4.036   5.031   5.716 -0.3009 -0.4081  0.4641
  128MOL0     H16892   3.809   4.945   5.789 -1.7081 -0.4981  2.6262
  128MOL0     H16893   3.934   4.949   5.905  0.7547 -0.7525 -1.2746
  128MOL0     H16894   3.602   5.182   6.048  1.9334  1.1450  2.5625
  128MOL0     H16895   4.120   5.505   5.632  1.9002  1.9470  0.8651
  128MOL0     H16896   4.346   5.549   5.751  1.5868  0.7435 -1.2087
  129MOL0     O16897  10.793   9.755   0.138 -0.3856 -0.3669 -0.0450
  129MOL0     C16898  10.865   9.777   0.235 -0.4973 -0.1498  0.8700
  129MOL0     O16899  10.826   9.839   0.348  0.2580  0.0296 -0.9408
  129MOL0     C16900  10.690   9.861   0.363 -0.5407  0.1531 -0.4055
  129MOL0     C16901  10.617   9.764   0.435 -0.0381 -0.3476  0.6501
  129MOL0     C16902  10.477   9.781   0.448 -1.6372 -0.7265 -0.6528
  129MOL0     C16903  10.406   9.886   0.383  0.2084 -0.1035  0.0057
  129MOL0     O16904  10.273   9.887   0.412 -0.7132 -0.4189  0.5141
  129MOL0     C16905  10.202   9.958   0.310 -1.0932 -0.2368 -0.4767
  129MOL0     C16906  10.056   9.928   0.327 -0.3805  0.2827  0.1025
  129MOL0     C16907   9.965  10.012   0.246  0.9695  0.6298  0.2159
  129MOL0     C16908   9.825   9.940   0.230  0.1215 -0.2716  0.2716
  129MOL0     C16909   9.709  10.017   0.177  0.9478 -0.5527  0.0460
  129MOL0     C16910   9.573   9.940   0.193 -1.0710 -0.4096  0.0995
  129MOL0     C16911   9.459  10.043   0.183 -0.2298 -0.5222  1.2164
  129MOL0     C16912   9.317   9.984   0.184  0.3605  1.5428  0.4044
  129MOL0     N16913   9.205  10.066   0.227 -0.1719  0.3013  0.1798
  129MOL0     C16914   9.137  10.149   0.141 -0.2731  0.0984 -0.6332
  129MOL0     C16915   9.024  10.184   0.203 -0.8172 -0.7109 -0.0196
  129MOL0     C16916   8.919  10.276   0.135  0.1226 -0.2442  0.3127
  129MOL0     C16917   8.808  10.197   0.059 -0.4203  0.3186  0.3075
  129MOL0     C16918   8.711  10.298  -0.001 -0.5747 -0.3864 -0.1305
  129MOL0     C16919   8.607  10.224  -0.085 -0.8641  1.1356  0.3807
  129MOL0     O16920   8.493  10.313  -0.096  0.2388 -0.4333 -0.0975
  129MOL0     C16921   8.372  10.253  -0.135  0.4010 -0.4380 -0.3814
  129MOL0     C16922   8.251  10.309  -0.098 -0.7552  0.3840  0.7185
  129MOL0     C16923   8.134  10.253  -0.137  1.1716 -0.3053  0.4782
  129MOL0     C16924   8.124  10.132  -0.217  0.5553  0.1990  0.1214
  129MOL0     C16925   7.996  10.071  -0.256 -0.0853 -0.7611 -0.1998
  129MOL0     O16926   7.884  10.156  -0.268 -0.1491 -0.0353 -0.0921
  129MOL0     C16927   7.762  10.096  -0.308  0.8263 -0.4355 -0.1768
  129MOL0     C16928   7.739  10.069  -0.445  0.2536 -0.3100  0.1861
  129MOL0     C16929   7.642   9.985  -0.487  0.0332  0.6129 -0.4466
  129MOL0     C16930   7.540   9.935  -0.391 -0.0103 -0.4059 -0.2336
  129MOL0     O16931   7.435   9.850  -0.411  0.2029  0.7767  0.0433
  129MOL0     C16932   7.388   9.843  -0.544 -0.8652 -0.7688  0.6897
  129MOL0     C16933   7.293   9.725  -0.566  0.5579 -0.3370  0.0353
  129MOL0     C16934   7.173   9.744  -0.467  0.2677  0.2573 -0.6986
  129MOL0     C16935   7.068   9.629  -0.507 -0.7354 -0.4249  1.1162
  129MOL0     C16936   6.942   9.624  -0.417  0.8838  0.7596 -0.4557
  129MOL0     C16937   6.970   9.583  -0.269  0.0464  0.1603 -0.3925
  129MOL0     C16938   6.845   9.586  -0.188 -0.1174  0.7983 -0.5310
  129MOL0     C16939   6.853   9.485  -0.081  0.2765  0.2072  0.3004
  129MOL0    Cl16940   6.999   9.496   0.021 -0.1315  0.0821 -0.3320
  129MOL0     C16941   7.568   9.964  -0.256  0.8319  0.3334  0.7238
  129MOL0     C16942   7.677  10.038  -0.216 -0.4424 -0.2391  0.0650
  129MOL0     O16943   7.994   9.952  -0.283  0.3077  0.5377  0.1820
  129MOL0     C16944   8.250  10.068  -0.237  0.1094  1.1462 -0.8234
  129MOL0     C16945   8.370  10.125  -0.206 -0.6590  0.1963 -0.3729
  129MOL0     N16946   9.021  10.113   0.321  0.2315  0.2803 -0.1771
  129MOL0     N16947   9.131  10.040   0.336  0.2118 -0.5714  0.5828
  129MOL0     C16948  10.482   9.979   0.305 -0.1794  0.3192  0.4890
  129MOL0     C16949  10.628   9.968   0.303 -0.4209  0.3874 -0.6983
  129MOL0     C16950  11.000   9.716   0.227  0.0826  0.2559  0.5886
  129MOL0     C16951  11.050   9.660   0.111  0.6230 -0.5180  0.2056
  129MOL0     C16952  11.171   9.597   0.116 -0.6876 -0.0027  0.1305
  129MOL0     C16953  11.240   9.583   0.232  0.2844  0.0290 -0.2962
  129MOL0     O16954  11.364   9.522   0.236  0.2706 -0.1412  0.0830
  129MOL0     C16955  11.460   9.581   0.318  0.4163  1.3505  0.0342
  129MOL0     C16956  11.504   9.716   0.262 -0.7787 -0.0524  0.1905
  129MOL0     C16957  11.624   9.782   0.344  0.6376 -0.0048 -0.6950
  129MOL0     C16958  11.591   9.839   0.482 -0.9438  0.0503  0.5465
  129MOL0     C16959  11.716   9.878   0.551 -0.2140  0.4435 -0.0229
  129MOL0     C16960  11.811   9.902   0.616 -0.1397  0.6393  0.0972
  129MOL0     C16961  11.189   9.641   0.350 -0.2305  0.6227 -0.5178
  129MOL0     C16962  11.072   9.715   0.349  1.0755 -0.3256  0.2243
  129MOL0     H16963  10.670   9.687   0.490  2.1043  0.4988 -0.1146
  129MOL0     H16964  10.422   9.713   0.513 -3.3693  2.9577  2.0966
  129MOL0     H16965  10.243   9.926   0.214  3.4954 -0.8199  1.4129
  129MOL0     H16966  10.219  10.064   0.331  3.6845 -0.9801  0.5291
  129MOL0     H16967  10.035   9.941   0.433 -0.7114 -3.9757  0.7459
  129MOL0     H16968  10.036   9.824   0.299 -0.3197 -0.1410  1.5476
  129MOL0     H16969  10.013  10.014   0.148  0.6106  0.8601  0.0447
  129MOL0     H16970   9.964  10.116   0.280 -0.0238  0.8114 -0.3313
  129MOL0     H16971   9.836   9.852   0.167 -1.7043 -2.0543  2.2985
  129MOL0     H16972   9.802   9.901   0.329  1.4180 -0.4745  0.5160
  129MOL0     H16973   9.725  10.027   0.069 -0.7618 -4.0862 -0.6971
  129MOL0     H16974   9.713  10.110   0.234  0.0735 -0.1192 -0.5892
  129MOL0     H16975   9.569   9.886   0.289 -0.9376 -2.6141 -1.0810
  129MOL0     H16976   9.572   9.861   0.118 -1.1884 -1.4770  1.1998
  129MOL0     H16977   9.468  10.113   0.266  0.9973  1.8849 -0.7870
  129MOL0     H16978   9.467  10.102   0.091  1.0266 -0.1287  1.5495
  129MOL0     H16979   9.325   9.902   0.256 -1.3679 -0.6420 -1.7250
  129MOL0     H16980   9.298   9.956   0.080  0.1792  0.4888  0.7096
  129MOL0     H16981   9.171  10.190   0.046 -1.6886  0.8948 -0.8282
  129MOL0     H16982   8.978  10.325   0.057  2.1196 -1.5950  0.8807
  129MOL0     H16983   8.885  10.349   0.210  0.5366 -0.2618  0.5185
  129MOL0     H16984   8.763  10.127   0.130  0.5221  1.5753  2.2046
  129MOL0     H16985   8.851  10.136  -0.022 -2.1704  2.7970 -2.6907
  129MOL0     H16986   8.667  10.354   0.082  1.2462  0.0749  0.5723
  129MOL0     H16987   8.766  10.367  -0.064  2.1260  0.2696  2.6759
  129MOL0     H16988   8.575  10.133  -0.035  1.1074 -0.2586 -0.7672
  129MOL0     H16989   8.654  10.195  -0.179  2.2268  0.5338  1.9809
  129MOL0     H16990   8.248  10.397  -0.036 -1.5385 -0.0376  1.2925
  129MOL0     H16991   8.048  10.311  -0.106  1.6942 -0.3826  2.1790
  129MOL0     H16992   7.809  10.103  -0.520 -2.3632  1.2202 -1.7389
  129MOL0     H16993   7.637   9.973  -0.594  2.5032  0.1443 -0.5723
  129MOL0     H16994   7.470   9.842  -0.617 -1.8535  0.9654 -0.4984
  129MOL0     H16995   7.333   9.937  -0.552  1.6975  0.7744 -0.0526
  129MOL0     H16996   7.352   9.635  -0.545  2.6256  0.6051 -1.4122
  129MOL0     H16997   7.262   9.728  -0.671  1.4188  0.2013 -0.2079
  129MOL0     H16998   7.124   9.842  -0.471 -1.8307 -0.4927  2.7716
  129MOL0     H16999   7.200   9.725  -0.363  1.5884 -1.2171 -1.2619
  129MOL0     H17000   7.040   9.648  -0.611 -0.7459  1.0179  1.3523
  129MOL0     H17001   7.108   9.528  -0.501  1.5982  0.0683 -2.7340
  129MOL0     H17002   6.886   9.541  -0.459  0.6140  0.7772 -0.1342
  129MOL0     H17003   6.883   9.716  -0.427  0.0031  0.0884 -1.6238
  129MOL0     H17004   7.054   9.642  -0.233 -1.3390  1.2742  1.1413
  129MOL0     H17005   7.023   9.488  -0.256  4.2213  2.1013 -1.4637
  129MOL0     H17006   6.835   9.684  -0.140  1.4541  0.7968 -0.1366
  129MOL0     H17007   6.755   9.561  -0.246 -0.6015 -4.7223  1.9549
  129MOL0     H17008   6.839   9.383  -0.116 -2.9544  0.3963  0.7274
  129MOL0     H17009   6.768   9.505  -0.015 -0.8890 -0.5140 -0.9327
  129MOL0     H17010   7.492   9.925  -0.189  1.5818 -3.3010 -0.3074
  129MOL0     H17011   7.695  10.046  -0.109  0.2655 -0.5584 -0.0229
  129MOL0     H17012   8.252   9.975  -0.294 -0.6731  1.5001 -1.4402
  129MOL0     H17013   8.462  10.072  -0.232 -1.2637 -0.9027 -0.3214
  129MOL0     H17014  10.440  10.066   0.257 -4.5700 -0.2650  2.7243
  129MOL0     H17015  10.701  10.037   0.260  0.1557  0.3962  0.2741
  129MOL0     H17016  11.012   9.686   0.013 -0.8069 -1.1961  0.5485
  129MOL0     H17017  11.219   9.568   0.023  0.5421 -3.2547  1.6344
  129MOL0     H17018  11.549   9.520   0.333  0.7358  1.6613 -0.5587
  129MOL0     H17019  11.425   9.589   0.422  0.1207  0.0547  0.0525
  129MOL0     H17020  11.540   9.694   0.161 -2.1107  1.8049 -0.7468
  129MOL0     H17021  11.415   9.780   0.254 -0.9467 -0.4383 -1.1260
  129MOL0     H17022  11.670   9.860   0.283  0.6391 -0.2505 -1.0121
  129MOL0     H17023  11.710   9.715   0.346 -0.3108 -1.2704 -1.0117
  129MOL0     H17024  11.530   9.928   0.465  0.9729  1.0742 -1.3796
  129MOL0     H17025  11.540   9.768   0.548  3.5536 -3.7302  0.4891
  129MOL0     H17026  11.891   9.920   0.684  0.2659  1.7716 -0.6437
  129MOL0     H17027  11.244   9.643   0.444  0.3189  0.2182 -0.8180
  129MOL0     H17028  11.040   9.758   0.443  2.2129  2.3065 -0.5131
  130MOL0     O17029   4.832   2.833  10.426  0.0451  0.6903 -0.5862
  130MOL0     C17030   4.895   2.921  10.364 -0.4787  0.4937  0.1294
  130MOL0     O17031   4.832   3.021  10.296 -0.2216  0.0086 -0.1973
  130MOL0     C17032   4.715   3.069  10.346  1.0902 -0.1127  0.3250
  130MOL0     C17033   4.718   3.198  10.411  0.0342  0.3043  0.8767
  130MOL0     C17034   4.607   3.248  10.470  0.1661  0.2400 -0.0461
  130MOL0     C17035   4.483   3.176  10.461 -0.7751 -1.0200  0.9861
  130MOL0     O17036   4.376   3.227  10.525  0.3855  0.0165 -0.4317
  130MOL0     C17037   4.246   3.211  10.466  0.3193 -0.2878 -0.7105
  130MOL0     C17038   4.155   3.320  10.540 -0.5323 -0.8008  0.9674
  130MOL0     C17039   4.022   3.338  10.466  0.7036 -0.4174  0.2512
  130MOL0     C17040   3.951   3.203  10.443  0.5236  0.1054 -0.8191
  130MOL0     C17041   3.805   3.212  10.412 -0.0886  0.6211  0.1369
  130MOL0     C17042   3.714   3.250  10.532 -0.1698 -0.2051  0.0247
  130MOL0     C17043   3.705   3.130  10.631  0.5999 -0.3424 -0.6312
  130MOL0     C17044   3.612   3.011  10.596 -0.5539 -0.4381 -0.2751
  130MOL0     N17045   3.479   3.059  10.560 -0.1437 -0.2225  0.5938
  130MOL0     C17046   3.393   3.140  10.638  0.4692  1.2252  0.3789
  130MOL0     C17047   3.288   3.155  10.558  0.5090 -0.2686  0.8642
  130MOL0     C17048   3.159   3.230  10.597 -1.0705  0.4042  0.3642
  130MOL0     C17049   3.030   3.181  10.546  0.4902  1.0076 -0.4313
  130MOL0     C17050   2.915   3.259  10.611  0.1367  0.1599 -0.8021
  130MOL0     C17051   2.786   3.181  10.599 -0.7902 -0.2813 -0.5417
  130MOL0     O17052   2.666   3.255  10.649  0.0754 -0.0468  0.3479
  130MOL0     C17053   2.548   3.189  10.651  0.4441  0.5857  0.3886
  130MOL0     C17054   2.447   3.280  10.697 -0.0887  0.1382 -0.0226
  130MOL0     C17055   2.316   3.231  10.725 -0.2950  0.7088  0.2822
  130MOL0     C17056   2.277   3.099  10.681 -0.3924 -0.6137 -0.4122
  130MOL0     C17057   2.130   3.058  10.680 -1.1357 -0.8016 -0.5420
  130MOL0     O17058   2.041   3.143  10.733  0.3689 -0.5453  0.0462
  130MOL0     C17059   1.909   3.104  10.734 -0.3446  0.3403 -0.3137
  130MOL0     C17060   1.841   3.125  10.851 -0.8613  0.5185  0.2473
  130MOL0     C17061   1.705   3.093  10.854 -0.2770 -0.5908  0.0804
  130MOL0     C17062   1.643   3.038  10.746  0.8530 -0.4487 -0.7313
  130MOL0     O17063   1.510   3.004  10.779  0.4971 -0.2503  0.7896
  130MOL0     C17064   1.409   3.006  10.673 -0.2141 -0.0466 -0.0699
  130MOL0     C17065   1.403   3.137  10.596 -0.2406  0.1689  0.1616
  130MOL0     C17066   1.262   3.182  10.593  0.3142  0.0015 -0.3249
  130MOL0     C17067   1.240   3.288  10.493 -0.4797  0.0524  0.6045
  130MOL0     C17068   1.102   3.336  10.494  0.6597 -0.0381  0.0333
  130MOL0     C17069   1.061   3.412  10.368 -0.2543 -1.0470  0.4531
  130MOL0     C17070   0.913   3.446  10.365 -0.0917  0.0418 -0.7318
  130MOL0     C17071   0.874   3.495  10.225  0.0392 -0.7125  0.4428
  130MOL0    Cl17072   0.715   3.582  10.218 -0.0519 -0.3759  0.2791
  130MOL0     C17073   1.708   3.014  10.620  0.7807 -0.1392 -0.1600
  130MOL0     C17074   1.841   3.056  10.621  1.7156 -1.0495 -0.0366
  130MOL0     O17075   2.101   2.947  10.640 -0.5083 -0.1432 -0.3961
  130MOL0     C17076   2.379   3.019  10.623 -0.5056 -0.1726 -0.2603
  130MOL0     C17077   2.510   3.055  10.610 -0.7182 -0.9234  0.4994
  130MOL0     N17078   3.306   3.092  10.437  0.4114 -0.2409  0.2989
  130MOL0     N17079   3.426   3.050  10.435  0.0987  0.3490  0.1526
  130MOL0     C17080   4.473   3.065  10.373 -0.3406  1.3711 -0.3613
  130MOL0     C17081   4.588   3.018  10.307  0.5630  1.1522 -0.1790
  130MOL0     C17082   5.033   2.914  10.336  0.0171 -0.6709  0.6940
  130MOL0     C17083   5.100   2.991  10.234 -0.1366 -0.4107 -0.0909
  130MOL0     C17084   5.232   2.963  10.194 -0.5242 -0.8035  0.3464
  130MOL0     C17085   5.307   2.863  10.248  0.0656  0.8097 -0.1919
  130MOL0     O17086   5.440   2.832  10.227 -0.0395 -0.0705  0.1658
  130MOL0     C17087   5.533   2.933  10.187  0.4665 -0.0490 -0.1205
  130MOL0     C17088   5.678   2.887  10.231  0.8169  0.2696 -0.1920
  130MOL0     C17089   5.760   2.864  10.103  0.0542 -0.5019  0.1954
  130MOL0     C17090   5.905   2.859  10.128  0.0342 -0.8041 -0.1500
  130MOL0     C17091   5.973   2.867  10.002  0.9517  0.3228  0.0906
  130MOL0     C17092   6.006   2.876   9.886 -0.1612  0.2394 -0.0765
  130MOL0     C17093   5.241   2.783  10.346 -0.6321  0.0567  0.3580
  130MOL0     C17094   5.108   2.807  10.386  0.0477  0.5281 -0.5437
  130MOL0     H17095   4.810   3.256  10.420  1.2185 -1.3112 -0.1928
  130MOL0     H17096   4.596   3.340  10.526 -2.5778 -1.5007  2.5921
  130MOL0     H17097   4.217   3.107  10.483  1.2017 -0.3413  0.6513
  130MOL0     H17098   4.236   3.228  10.359 -2.2787  0.9173 -0.3634
  130MOL0     H17099   4.205   3.418  10.539 -1.4067 -0.2913  2.9613
  130MOL0     H17100   4.134   3.286  10.641 -1.4587  0.2804  1.1619
  130MOL0     H17101   4.035   3.396  10.374  0.0744  4.0084  2.6915
  130MOL0     H17102   3.961   3.410  10.520  1.6706  0.8528 -0.3154
  130MOL0     H17103   4.007   3.162  10.358 -0.4760 -0.4103 -1.2436
  130MOL0     H17104   3.974   3.138  10.528  1.2350  0.0950 -1.0157
  130MOL0     H17105   3.783   3.117  10.362  0.2014  0.8728 -0.4805
  130MOL0     H17106   3.791   3.294  10.341  0.6702 -1.1945 -2.2209
  130MOL0     H17107   3.622   3.296  10.496 -0.3702  1.3948  2.4247
  130MOL0     H17108   3.767   3.326  10.590 -0.5231  1.6217 -1.9231
  130MOL0     H17109   3.805   3.097  10.661  1.6761  2.8663 -0.3200
  130MOL0     H17110   3.648   3.173  10.714 -0.9142 -1.7610 -0.8950
  130MOL0     H17111   3.612   2.937  10.676  1.7583  0.0942  0.2914
  130MOL0     H17112   3.650   2.959  10.507 -0.8997  0.7197 -1.1323
  130MOL0     H17113   3.414   3.174  10.739  3.7408  2.1777 -0.4932
  130MOL0     H17114   3.173   3.337  10.578 -0.5741 -0.0230 -1.8656
  130MOL0     H17115   3.160   3.226  10.707  0.7310  0.5027  0.3845
  130MOL0     H17116   3.023   3.075  10.570 -3.5769  0.9329 -1.3728
  130MOL0     H17117   3.018   3.194  10.438 -1.9461 -3.2509 -0.8668
  130MOL0     H17118   2.928   3.278  10.718 -2.2894  0.9636 -0.5915
  130MOL0     H17119   2.911   3.359  10.569  0.5751  0.6307  0.2349
  130MOL0     H17120   2.791   3.080  10.640  0.8857  0.4087  1.0904
  130MOL0     H17121   2.769   3.163  10.492 -2.4536 -3.2791  0.1055
  130MOL0     H17122   2.476   3.379  10.730 -1.6113  0.4134  0.5857
  130MOL0     H17123   2.237   3.301  10.752 -1.1394 -0.4426  0.8722
  130MOL0     H17124   1.900   3.169  10.931 -1.3512  3.8162 -1.0441
  130MOL0     H17125   1.644   3.100  10.943  1.8811 -2.0231  1.7908
  130MOL0     H17126   1.311   2.988  10.718  0.7207  0.0402  2.1225
  130MOL0     H17127   1.429   2.924  10.603 -0.7984 -1.2494  1.1172
  130MOL0     H17128   1.436   3.122  10.493  3.0098 -1.5622  1.3288
  130MOL0     H17129   1.471   3.213  10.635 -0.5555 -0.8962  3.0695
  130MOL0     H17130   1.242   3.226  10.691 -0.4983 -2.1432  0.5561
  130MOL0     H17131   1.194   3.101  10.564  2.7488 -1.0745 -3.6139
  130MOL0     H17132   1.314   3.369  10.492 -0.8186  0.4440 -2.7470
  130MOL0     H17133   1.268   3.241  10.399 -1.8654 -2.9656  1.5851
  130MOL0     H17134   1.088   3.402  10.580  3.2526 -0.3916  0.8290
  130MOL0     H17135   1.035   3.252  10.512  1.5170 -0.5569  0.8711
  130MOL0     H17136   1.072   3.356  10.274 -1.2089 -0.8095  0.1876
  130MOL0     H17137   1.120   3.504  10.365  3.1615 -2.9097  2.8723
  130MOL0     H17138   0.848   3.361  10.387  1.2326 -0.6933  0.4362
  130MOL0     H17139   0.891   3.533  10.428 -1.0055 -0.8739  0.2571
  130MOL0     H17140   0.858   3.399  10.174  0.4330 -2.4206  3.3310
  130MOL0     H17141   0.947   3.565  10.182  2.0074 -2.4205  0.8749
  130MOL0     H17142   1.663   2.970  10.531 -0.8861 -1.2812  1.1788
  130MOL0     H17143   1.871   3.023  10.522  0.1934 -3.1744  0.1263
  130MOL0     H17144   2.349   2.919  10.596  1.3853 -1.4305  1.8951
  130MOL0     H17145   2.593   2.997  10.572  0.6519  1.3388 -0.1237
  130MOL0     H17146   4.376   3.023  10.350 -0.1616  1.1035 -0.6324
  130MOL0     H17147   4.564   2.937  10.239  3.4979 -0.9416  1.0628
  130MOL0     H17148   5.042   3.068  10.184 -0.5932  0.9703  2.4127
  130MOL0     H17149   5.284   3.017  10.116 -1.2372  0.3936  0.6684
  130MOL0     H17150   5.517   3.025  10.244  0.2691  0.5292 -1.0771
  130MOL0     H17151   5.519   2.955  10.080 -1.0746 -1.9661 -0.3542
  130MOL0     H17152   5.729   2.958  10.297 -0.6678  2.0632 -0.8995
  130MOL0     H17153   5.667   2.793  10.285 -1.2753 -0.9406 -2.5731
  130MOL0     H17154   5.747   2.950  10.037 -1.1512  1.4719  2.8341
  130MOL0     H17155   5.726   2.771  10.057 -1.0052  0.3652 -0.8388
  130MOL0     H17156   5.933   2.947  10.187 -1.1747 -2.4264  3.0868
  130MOL0     H17157   5.932   2.765  10.176  0.7639 -0.3975  0.2546
  130MOL0     H17158   6.027   2.878   9.781 -1.2328  0.0343 -0.3040
  130MOL0     H17159   5.304   2.700  10.377  1.4055  0.4659 -2.2857
  130MOL0     H17160   5.063   2.735  10.454 -2.9826 -2.6677 -5.3131
  131MOL0     O17161   9.158   7.200   2.335 -0.1837 -0.0532  0.4362
  131MOL0     C17162   9.263   7.151   2.373  0.3680  0.1055 -0.3037
  131MOL0     O17163   9.266   7.064   2.470 -0.3506 -0.3299 -0.4741
  131MOL0     C17164   9.155   7.045   2.548  0.0763 -0.2502  0.3813
  131MOL0     C17165   9.110   7.118   2.657  0.0775 -1.0941  0.0505
  131MOL0     C17166   8.995   7.088   2.728 -0.6394  0.6073  0.9570
  131MOL0     C17167   8.916   6.989   2.688 -0.0798 -0.0359  0.2549
  131MOL0     O17168   8.803   6.944   2.739  0.2606 -0.8998 -0.0667
  131MOL0     C17169   8.705   7.035   2.802 -0.5597  0.1216  0.4458
  131MOL0     C17170   8.578   6.969   2.823 -0.2935  0.2296  0.2031
  131MOL0     C17171   8.486   6.970   2.696 -0.1324 -0.7906  0.4454
  131MOL0     C17172   8.349   6.919   2.735 -0.3408  0.0555 -0.4713
  131MOL0     C17173   8.248   6.935   2.624 -0.0143 -0.2260 -0.2226
  131MOL0     C17174   8.107   6.891   2.674  1.4325 -0.9847 -0.2836
  131MOL0     C17175   8.004   6.885   2.564  0.9728  0.8568 -0.1410
  131MOL0     C17176   7.868   6.849   2.626  0.0928  0.0114 -0.5600
  131MOL0     N17177   7.768   6.859   2.520  0.3481  1.0632  0.0570
  131MOL0     C17178   7.669   6.954   2.513  0.5298 -0.1968 -0.6433
  131MOL0     C17179   7.593   6.918   2.415  0.7943  0.2561  0.8677
  131MOL0     C17180   7.466   6.978   2.374  0.7779  0.4094 -0.7726
  131MOL0     C17181   7.359   6.932   2.479 -0.0513  0.7333  0.4772
  131MOL0     C17182   7.211   6.942   2.422 -0.4553 -0.4376  0.3205
  131MOL0     C17183   7.110   6.863   2.510 -0.5736 -0.3883  0.4894
  131MOL0     O17184   6.991   6.939   2.509  0.3370 -0.5120  0.2916
  131MOL0     C17185   6.869   6.879   2.531 -0.0522  0.2742 -0.0378
  131MOL0     C17186   6.764   6.955   2.579  0.1371  0.7083 -0.1641
  131MOL0     C17187   6.630   6.909   2.585  0.3139 -0.4965  0.3200
  131MOL0     C17188   6.601   6.776   2.561 -0.1658  0.2032 -0.2834
  131MOL0     C17189   6.452   6.735   2.566 -0.1444 -0.8526 -0.5413
  131MOL0     O17190   6.423   6.606   2.581  0.0560 -0.5055 -0.6158
  131MOL0     C17191   6.294   6.563   2.590 -0.8338 -0.5792  1.1343
  131MOL0     C17192   6.276   6.433   2.540 -0.1456 -0.5466  0.3626
  131MOL0     C17193   6.150   6.371   2.554 -0.5025 -0.7776 -0.4947
  131MOL0     C17194   6.035   6.442   2.595 -0.1200  0.3787  0.1864
  131MOL0     O17195   5.916   6.375   2.609  0.0876 -0.5568  0.2104
  131MOL0     C17196   5.874   6.313   2.485 -0.0452 -0.4680  0.2874
  131MOL0     C17197   5.741   6.382   2.452  0.2752 -0.6573 -0.9218
  131MOL0     C17198   5.631   6.334   2.543  0.5701  0.0473  0.0052
  131MOL0     C17199   5.548   6.450   2.597 -0.8090  0.4193  0.3002
  131MOL0     C17200   5.418   6.400   2.669  0.7509 -0.1742  0.7784
  131MOL0     C17201   5.313   6.334   2.581  0.6319 -0.1568 -0.1152
  131MOL0     C17202   5.192   6.302   2.670 -0.9788 -0.1883 -0.1331
  131MOL0     C17203   5.067   6.258   2.601 -0.6180 -0.0812 -0.2430
  131MOL0    Cl17204   5.116   6.137   2.486 -0.1205 -0.2761 -0.0258
  131MOL0     C17205   6.050   6.572   2.631  0.1919  0.5375 -0.6228
  131MOL0     C17206   6.176   6.637   2.628 -0.0122 -0.1356 -0.8098
  131MOL0     O17207   6.371   6.826   2.553  0.5923 -0.5719 -0.1006
  131MOL0     C17208   6.711   6.689   2.532  0.3855 -0.0266  0.4722
  131MOL0     C17209   6.846   6.737   2.522  0.1661  0.0048 -0.8566
  131MOL0     N17210   7.649   6.805   2.356 -0.4275  0.1320 -0.8308
  131MOL0     N17211   7.752   6.768   2.417  0.4853 -0.2303 -0.7243
  131MOL0     C17212   8.952   6.915   2.576 -0.1708  0.2447  0.6070
  131MOL0     C17213   9.078   6.943   2.510 -0.1749 -0.0660  0.2443
  131MOL0     C17214   9.390   7.199   2.313  0.4113 -0.5318 -0.1974
  131MOL0     C17215   9.510   7.134   2.356 -0.0379 -0.3189 -0.8228
  131MOL0     C17216   9.634   7.182   2.312  0.5717  0.9880  0.2426
  131MOL0     C17217   9.633   7.283   2.218 -0.1018  0.0001  0.4544
  131MOL0     O17218   9.755   7.338   2.170 -0.0251  0.1437  0.4360
  131MOL0     C17219   9.879   7.284   2.220 -0.2858  0.0219 -0.4271
  131MOL0     C17220  10.000   7.363   2.167 -0.0717  0.1424  0.6703
  131MOL0     C17221  10.134   7.281   2.188 -0.1154 -0.5203  0.5699
  131MOL0     C17222  10.164   7.242   2.338  0.2390 -0.4882  0.5940
  131MOL0     C17223  10.296   7.185   2.350  0.1274 -0.6235 -0.4054
  131MOL0     C17224  10.416   7.158   2.349 -0.5304  0.2619 -0.1791
  131MOL0     C17225   9.516   7.340   2.168 -0.7730  0.8478 -0.0422
  131MOL0     C17226   9.395   7.307   2.215 -0.2882  0.0613 -0.4304
  131MOL0     H17227   9.169   7.205   2.683  0.8750 -1.5794 -0.1133
  131MOL0     H17228   8.959   7.147   2.811 -0.7621  0.3033  1.1206
  131MOL0     H17229   8.708   7.129   2.746 -1.2145 -0.9789 -1.5309
  131MOL0     H17230   8.736   7.067   2.901 -1.6056  2.1037  0.1743
  131MOL0     H17231   8.529   7.020   2.907 -1.2479  2.5034 -1.6158
  131MOL0     H17232   8.609   6.868   2.851  1.6859  1.3016  2.2097
  131MOL0     H17233   8.531   6.908   2.618 -0.5473  1.0872 -1.3905
  131MOL0     H17234   8.479   7.067   2.645 -0.8914 -1.3670 -0.5916
  131MOL0     H17235   8.349   6.810   2.745 -1.5245  0.1626  1.1275
  131MOL0     H17236   8.305   6.947   2.831  1.7655 -1.2655  0.9545
  131MOL0     H17237   8.278   6.867   2.544 -0.9303 -2.9934  1.6441
  131MOL0     H17238   8.234   7.040   2.597 -2.9413  0.0523  1.8856
  131MOL0     H17239   8.067   6.958   2.750 -1.0343 -2.1783 -0.4246
  131MOL0     H17240   8.108   6.793   2.723  1.9036 -2.2007 -2.5907
  131MOL0     H17241   7.996   6.983   2.515  0.8297  0.1428 -1.5939
  131MOL0     H17242   8.030   6.807   2.491  1.5927 -0.2682  1.2475
  131MOL0     H17243   7.866   6.928   2.702  2.5836 -0.8242  0.4945
  131MOL0     H17244   7.873   6.754   2.679 -2.0669 -0.1662 -0.5928
  131MOL0     H17245   7.637   7.025   2.589 -1.0365 -1.2921 -0.2395
  131MOL0     H17246   7.435   6.926   2.283 -2.5581 -1.7610  1.3770
  131MOL0     H17247   7.478   7.086   2.365 -0.8755  0.8432  1.4140
  131MOL0     H17248   7.372   6.980   2.577 -0.3906 -0.9064  1.3672
  131MOL0     H17249   7.373   6.824   2.494  1.9579  0.8646 -0.2339
  131MOL0     H17250   7.191   7.048   2.438 -0.6378 -0.2472 -0.9950
  131MOL0     H17251   7.208   6.920   2.315  2.3694  1.7018 -0.3171
  131MOL0     H17252   7.145   6.846   2.612  0.3409 -2.2642 -0.0883
  131MOL0     H17253   7.101   6.766   2.461 -0.8961  0.5110 -1.3261
  131MOL0     H17254   6.789   7.059   2.598  3.5794  0.2513 -1.3872
  131MOL0     H17255   6.562   6.983   2.626  0.0647 -0.6972  0.2710
  131MOL0     H17256   6.364   6.379   2.507  0.4271  0.2547  0.5389
  131MOL0     H17257   6.148   6.272   2.510  0.0304  0.1186 -2.6624
  131MOL0     H17258   5.855   6.205   2.488 -0.5040 -0.3879  0.2933
  131MOL0     H17259   5.935   6.348   2.402 -0.7346  1.3313  0.5052
  131MOL0     H17260   5.708   6.378   2.347  0.9283 -2.2067 -1.0943
  131MOL0     H17261   5.758   6.488   2.474  0.5409 -0.4791 -1.9295
  131MOL0     H17262   5.672   6.280   2.629 -1.1497 -1.4790 -0.0826
  131MOL0     H17263   5.579   6.251   2.496 -2.5371  0.9911  1.5136
  131MOL0     H17264   5.605   6.515   2.664  2.3696 -2.4261  0.6408
  131MOL0     H17265   5.524   6.511   2.509  0.7099  0.7072  0.0479
  131MOL0     H17266   5.378   6.486   2.723  1.2583 -0.0676  0.9930
  131MOL0     H17267   5.447   6.324   2.743  1.2877  1.1543  1.9707
  131MOL0     H17268   5.362   6.254   2.526 -1.3259 -0.8481 -0.9543
  131MOL0     H17269   5.274   6.411   2.513 -0.4018 -1.0775 -0.5880
  131MOL0     H17270   5.221   6.230   2.746 -2.0442 -2.0803 -1.4395
  131MOL0     H17271   5.165   6.401   2.709  0.1880  0.0275  0.1622
  131MOL0     H17272   5.022   6.344   2.550 -0.3366  0.5440  0.5324
  131MOL0     H17273   5.003   6.209   2.675 -2.1427 -1.0361 -2.1006
  131MOL0     H17274   5.957   6.622   2.655 -0.5856 -1.4706  0.8971
  131MOL0     H17275   6.194   6.736   2.670  1.2730 -0.7542  0.1818
  131MOL0     H17276   6.679   6.586   2.519  0.3989  0.0340 -0.0438
  131MOL0     H17277   6.918   6.658   2.506 -0.2461 -0.0783 -2.4816
  131MOL0     H17278   8.886   6.836   2.543 -0.2875  0.6991 -0.2684
  131MOL0     H17279   9.112   6.881   2.427 -0.5215  0.3108 -0.1809
  131MOL0     H17280   9.501   7.039   2.408  6.5846 -0.9032  0.1874
  131MOL0     H17281   9.723   7.122   2.325  0.2043  0.1701 -0.8244
  131MOL0     H17282   9.893   7.181   2.186 -2.3393 -0.3023 -0.4522
  131MOL0     H17283   9.878   7.298   2.328 -2.7611 -1.9676 -0.0799
  131MOL0     H17284   9.983   7.361   2.059  1.4809 -0.0831  0.4181
  131MOL0     H17285  10.002   7.466   2.205  3.4929  0.6900 -0.6576
  131MOL0     H17286  10.210   7.349   2.148  0.7593 -0.8343  1.6567
  131MOL0     H17287  10.140   7.187   2.131  0.7905  0.5874 -1.2533
  131MOL0     H17288  10.158   7.334   2.397  1.6023  0.2765 -0.3786
  131MOL0     H17289  10.088   7.173   2.375 -0.9171  0.3551 -0.1524
  131MOL0     H17290  10.518   7.126   2.340 -1.3951 -2.6723 -0.2358
  131MOL0     H17291   9.534   7.412   2.089 -0.5385  1.7957  0.8585
  131MOL0     H17292   9.313   7.371   2.182  0.7607  1.9110  0.3757
  132MOL0     O17293   7.900   1.393   3.408  0.1460 -0.1124 -0.2121
  132MOL0     C17294   7.872   1.509   3.448  0.6265 -0.1627 -0.1174
  132MOL0     O17295   7.962   1.590   3.508 -0.3127  0.6659 -0.2395
  132MOL0     C17296   8.070   1.524   3.555 -0.0282  0.0077 -0.0286
  132MOL0     C17297   8.064   1.450   3.676  0.8233 -0.3355  0.4404
  132MOL0     C17298   8.169   1.369   3.726  0.8486 -0.1159  0.4358
  132MOL0     C17299   8.289   1.377   3.655  0.3259  0.6043  0.1531
  132MOL0     O17300   8.397   1.308   3.706 -0.0496 -0.8023  0.7772
  132MOL0     C17301   8.389   1.163   3.700  0.5879  1.1058  0.5282
  132MOL0     C17302   8.527   1.116   3.651  0.2833 -0.6374  0.3056
  132MOL0     C17303   8.559   1.166   3.518  0.8679 -0.3169  0.5870
  132MOL0     C17304   8.681   1.089   3.452  0.5035 -0.0325  0.3647
  132MOL0     C17305   8.735   1.139   3.324 -0.3469  0.8347  0.7645
  132MOL0     C17306   8.863   1.059   3.293  0.0569 -0.2281 -0.9485
  132MOL0     C17307   8.845   0.917   3.229 -0.7360 -0.5107 -0.5201
  132MOL0     C17308   8.922   0.808   3.298  0.3182  0.0925 -0.1866
  132MOL0     N17309   8.856   0.783   3.427  0.8487 -0.3327 -0.5293
  132MOL0     C17310   8.738   0.721   3.438  0.2524 -0.5110 -0.0767
  132MOL0     C17311   8.695   0.750   3.564 -0.4389  0.2416 -0.9515
  132MOL0     C17312   8.565   0.706   3.622  0.4493 -0.2846  1.0463
  132MOL0     C17313   8.584   0.672   3.777  0.1036  0.2088  0.3246
  132MOL0     C17314   8.455   0.623   3.848  0.0552 -0.2270  0.9314
  132MOL0     C17315   8.342   0.728   3.847 -0.0134 -0.6447  0.1939
  132MOL0     O17316   8.257   0.685   3.944  0.5902  0.1019 -1.0787
  132MOL0     C17317   8.120   0.704   3.939 -0.2287  0.7738  0.2211
  132MOL0     C17318   8.062   0.666   4.061  0.8778  0.7357  0.7369
  132MOL0     C17319   7.922   0.652   4.071  0.6115 -0.2132  0.8197
  132MOL0     C17320   7.842   0.676   3.955  0.0215  0.3015  0.4478
  132MOL0     C17321   7.695   0.661   3.957 -0.4453  0.1823 -0.1121
  132MOL0     O17322   7.638   0.600   4.057  0.4505  0.6858 -0.7078
  132MOL0     C17323   7.501   0.583   4.039  0.0607  0.4980 -0.1114
  132MOL0     C17324   7.446   0.457   4.044  0.3067  0.1348  0.0900
  132MOL0     C17325   7.309   0.428   4.036 -0.7376 -0.3344 -0.0968
  132MOL0     C17326   7.218   0.531   4.021 -0.1499 -0.1736  0.6403
  132MOL0     O17327   7.084   0.492   4.004 -0.3279  0.8094  0.1162
  132MOL0     C17328   6.984   0.591   3.990 -0.3300  0.1234 -0.2642
  132MOL0     C17329   6.853   0.521   4.014  0.3661  0.3680 -0.8079
  132MOL0     C17330   6.735   0.621   4.002  0.3610 -0.0274  1.0786
  132MOL0     C17331   6.604   0.551   4.010 -0.5353 -0.5062  0.4852
  132MOL0     C17332   6.488   0.646   3.972 -0.4121 -0.1291  0.4069
  132MOL0     C17333   6.348   0.594   4.016 -0.2558  0.5144  0.5985
  132MOL0     C17334   6.297   0.461   3.960 -0.2557  1.0024  0.3227
  132MOL0     C17335   6.158   0.421   4.006  0.6322 -0.2670 -0.7171
  132MOL0    Cl17336   6.128   0.408   4.181 -0.3142  0.3011 -0.1551
  132MOL0     C17337   7.267   0.667   4.017 -0.1260  0.6730  0.5857
  132MOL0     C17338   7.405   0.692   4.029  0.1356  0.7230 -0.2608
  132MOL0     O17339   7.635   0.709   3.856 -0.9654 -0.1161 -0.5476
  132MOL0     C17340   7.907   0.709   3.831  0.0946  0.5476  0.4601
  132MOL0     C17341   8.050   0.728   3.827  0.2801  0.0865  0.3015
  132MOL0     N17342   8.792   0.822   3.630 -0.8793 -0.5840 -0.2099
  132MOL0     N17343   8.886   0.837   3.548 -0.5078 -0.0811  0.8366
  132MOL0     C17344   8.299   1.455   3.537  0.5716  0.0726  0.5491
  132MOL0     C17345   8.191   1.532   3.487  1.1104 -0.0781  0.0052
  132MOL0     C17346   7.755   1.571   3.398 -0.4152 -0.4650 -0.4190
  132MOL0     C17347   7.709   1.680   3.462 -0.2896 -0.3673 -0.0211
  132MOL0     C17348   7.588   1.734   3.436  0.7643 -0.4730 -0.2676
  132MOL0     C17349   7.499   1.691   3.338  0.1986  0.8292  0.1561
  132MOL0     O17350   7.385   1.752   3.303 -0.2715 -0.2032 -0.4501
  132MOL0     C17351   7.280   1.686   3.371 -0.3861 -1.1413  0.2281
  132MOL0     C17352   7.142   1.756   3.340 -0.6175  0.9779 -0.2732
  132MOL0     C17353   7.071   1.715   3.210  0.1578  0.6734  0.5297
  132MOL0     C17354   6.934   1.777   3.196  0.2156  0.4393 -0.1678
  132MOL0     C17355   6.835   1.673   3.233  0.1650 -0.1567  0.2052
  132MOL0     C17356   6.750   1.595   3.285 -0.6424 -0.6553 -0.1531
  132MOL0     C17357   7.539   1.567   3.273  0.0055  0.4039  0.8410
  132MOL0     C17358   7.670   1.512   3.301 -0.0055  0.5342  0.4970
  132MOL0     H17359   7.961   1.453   3.709  0.5584  0.8793 -0.4389
  132MOL0     H17360   8.147   1.312   3.816  2.1079 -1.0325  0.1876
  132MOL0     H17361   8.316   1.125   3.628  0.8182  0.7571  0.4800
  132MOL0     H17362   8.359   1.123   3.797 -2.1060  0.5202 -0.4604
  132MOL0     H17363   8.525   1.007   3.639  0.9285 -0.6760  0.5373
  132MOL0     H17364   8.608   1.151   3.715  0.4789  0.4951 -0.5274
  132MOL0     H17365   8.582   1.272   3.524 -0.9641  0.1302  0.1996
  132MOL0     H17366   8.472   1.153   3.453  0.2368 -2.5622  1.7694
  132MOL0     H17367   8.759   1.078   3.528  0.6779  0.3926  0.2501
  132MOL0     H17368   8.648   0.988   3.431  0.9807  0.2922 -2.2213
  132MOL0     H17369   8.762   1.245   3.334 -0.7290  1.0817 -0.5347
  132MOL0     H17370   8.667   1.134   3.238  1.0881  0.8879 -0.4145
  132MOL0     H17371   8.916   1.047   3.388 -0.2148  1.3599 -0.5706
  132MOL0     H17372   8.926   1.121   3.229 -0.2664 -0.4414 -1.4735
  132MOL0     H17373   8.738   0.895   3.228 -1.1626  1.2708  0.8561
  132MOL0     H17374   8.896   0.916   3.132 -0.4900  0.7518 -0.4219
  132MOL0     H17375   9.026   0.840   3.310 -0.3059  2.3021 -0.2165
  132MOL0     H17376   8.913   0.710   3.252 -0.2800 -0.5503  1.2542
  132MOL0     H17377   8.688   0.653   3.370  0.4885  1.1114 -1.9545
  132MOL0     H17378   8.530   0.623   3.561  1.4773  0.0456 -0.0192
  132MOL0     H17379   8.489   0.781   3.597 -0.2594 -0.1131  3.4342
  132MOL0     H17380   8.622   0.761   3.829 -0.6448  0.4718  0.4214
  132MOL0     H17381   8.668   0.601   3.782  1.2123  1.1417 -2.7256
  132MOL0     H17382   8.440   0.527   3.799  2.0700 -0.3196  0.3744
  132MOL0     H17383   8.475   0.593   3.951  0.4044  0.8943  1.2053
  132MOL0     H17384   8.307   0.749   3.745  2.1530  6.5604  0.3745
  132MOL0     H17385   8.382   0.822   3.886  2.1821 -1.2730 -0.3847
  132MOL0     H17386   8.132   0.643   4.141  1.5076  1.2814  0.3573
  132MOL0     H17387   7.878   0.631   4.167  0.6397  3.4097  1.7752
  132MOL0     H17388   7.506   0.370   4.068 -0.3816 -0.2643  0.3764
  132MOL0     H17389   7.283   0.323   4.046  1.0208 -0.7111  1.1163
  132MOL0     H17390   6.982   0.637   3.891 -1.2737 -1.4304 -0.9991
  132MOL0     H17391   6.996   0.660   4.074  0.5395 -1.1175  0.6660
  132MOL0     H17392   6.860   0.487   4.118 -0.3226 -0.7177 -1.1078
  132MOL0     H17393   6.854   0.427   3.958  1.8795 -4.6186  6.1486
  132MOL0     H17394   6.742   0.655   3.898 -1.5297 -1.7471  0.3418
  132MOL0     H17395   6.740   0.712   4.063 -2.5168  2.3181 -1.8235
  132MOL0     H17396   6.606   0.464   3.944 -2.9792  0.1906 -0.6033
  132MOL0     H17397   6.595   0.524   4.116 -0.4723  1.5719  1.0567
  132MOL0     H17398   6.486   0.671   3.865 -2.3712  2.4112  0.9599
  132MOL0     H17399   6.514   0.740   4.021  0.0555 -1.7010  3.3743
  132MOL0     H17400   6.270   0.664   3.986  0.7330  0.1146 -3.6006
  132MOL0     H17401   6.341   0.585   4.124  0.8610 -0.0666  0.6397
  132MOL0     H17402   6.302   0.460   3.851 -2.8953  0.5753  0.1309
  132MOL0     H17403   6.362   0.379   3.989 -1.5417 -0.3662 -0.5140
  132MOL0     H17404   6.133   0.320   3.972  2.7135 -1.5916  1.3450
  132MOL0     H17405   6.095   0.485   3.944  2.2802 -0.6824 -2.9702
  132MOL0     H17406   7.199   0.750   4.006  0.1337  1.2812  2.9357
  132MOL0     H17407   7.444   0.793   4.015  0.6988  0.8648  2.0569
  132MOL0     H17408   7.850   0.702   3.739  0.7818  0.6712  0.0202
  132MOL0     H17409   8.083   0.751   3.726 -1.9357  2.2729 -0.0287
  132MOL0     H17410   8.397   1.452   3.491  1.5654 -1.3673  2.6396
  132MOL0     H17411   8.207   1.588   3.396 -0.0069 -1.9392 -1.4048
  132MOL0     H17412   7.759   1.717   3.550 -0.2475  1.2470 -0.6951
  132MOL0     H17413   7.558   1.820   3.496 -1.8829  0.9064 -3.2688
  132MOL0     H17414   7.298   1.705   3.477  0.7855 -0.7585 -0.0216
  132MOL0     H17415   7.264   1.578   3.369  1.9979 -1.7522  3.9130
  132MOL0     H17416   7.071   1.722   3.416 -1.4521  1.1722 -0.9477
  132MOL0     H17417   7.160   1.863   3.352  1.6788  0.6833 -0.6369
  132MOL0     H17418   7.075   1.606   3.211 -2.1107  0.5665  1.2922
  132MOL0     H17419   7.135   1.755   3.130  1.1157  2.2103  1.9924
  132MOL0     H17420   6.915   1.870   3.250 -1.8965 -0.3649  0.5628
  132MOL0     H17421   6.924   1.806   3.092  2.4640  0.8861 -0.3126
  132MOL0     H17422   6.677   1.523   3.319 -1.6252 -0.9726 -2.7134
  132MOL0     H17423   7.484   1.521   3.192 -0.3727  0.4161  1.0898
  132MOL0     H17424   7.701   1.419   3.254  0.9198  0.1621  1.7819
  133MOL0     O17425   1.968   1.091   5.264 -0.1295  0.4618 -0.1456
  133MOL0     C17426   2.023   1.095   5.378 -0.5817  1.4072  0.4871
  133MOL0     O17427   1.970   1.042   5.492  0.2261  0.5574  0.1543
  133MOL0     C17428   1.850   0.977   5.480 -0.6316  1.0349  1.1740
  133MOL0     C17429   1.832   0.834   5.467 -0.1214 -0.3697 -0.4672
  133MOL0     C17430   1.707   0.776   5.459  0.0770 -0.4657  0.1804
  133MOL0     C17431   1.591   0.859   5.460 -0.2565  0.3287  0.7015
  133MOL0     O17432   1.463   0.809   5.441 -0.0636 -0.4206  0.0316
  133MOL0     C17433   1.440   0.670   5.431  0.2397  0.2384  0.1046
  133MOL0     C17434   1.293   0.636   5.390  0.1455 -0.5361  0.8478
  133MOL0     C17435   1.188   0.669   5.501 -0.2545 -0.3354 -0.7578
  133MOL0     C17436   1.061   0.590   5.498 -0.3925 -0.3152  0.3879
  133MOL0     C17437   0.960   0.630   5.602 -0.0232 -0.3795  0.5233
  133MOL0     C17438   0.928   0.778   5.595  0.5759 -0.0601 -0.6051
  133MOL0     C17439   0.802   0.802   5.676 -0.0649 -0.5550  0.6812
  133MOL0     C17440   0.706   0.915   5.621 -0.3342 -0.4974 -0.3867
  133MOL0     N17441   0.585   0.917   5.704  0.3407 -0.0059 -0.4965
  133MOL0     C17442   0.581   0.964   5.839  0.4422  0.5442  0.3662
  133MOL0     C17443   0.453   0.939   5.877  0.0814 -0.1471  0.1227
  133MOL0     C17444   0.404   0.970   6.018 -0.1575 -0.5804  0.1474
  133MOL0     C17445   0.400   1.122   6.039  1.1093  0.3265 -0.1924
  133MOL0     C17446   0.386   1.153   6.188  0.1662  0.3926 -0.2226
  133MOL0     C17447   0.389   1.297   6.233 -0.2029 -0.1330 -0.3346
  133MOL0     O17448   0.298   1.373   6.160  0.7096  0.1275  0.1321
  133MOL0     C17449   0.164   1.371   6.181 -0.9022  0.6245 -0.5123
  133MOL0     C17450   0.101   1.465   6.101  0.0669  0.6947  0.7756
  133MOL0     C17451  -0.037   1.485   6.108  0.3777  0.2856  0.4565
  133MOL0     C17452  -0.115   1.410   6.198  0.5190  0.1593 -0.4792
  133MOL0     C17453  -0.265   1.415   6.197  0.2853 -0.3886  0.4282
  133MOL0     O17454  -0.335   1.344   6.290  0.5108 -0.9393 -0.4719
  133MOL0     C17455  -0.468   1.327   6.269 -0.6341  0.0684  0.0538
  133MOL0     C17456  -0.509   1.189   6.277 -0.1821 -0.7282 -0.4185
  133MOL0     C17457  -0.647   1.164   6.258 -0.1734  0.2681 -0.1274
  133MOL0     C17458  -0.736   1.267   6.231  0.0138 -0.2626 -0.8949
  133MOL0     O17459  -0.869   1.253   6.206  0.0997 -0.3784  0.0935
  133MOL0     C17460  -0.925   1.120   6.203  0.7302  0.3691  0.2440
  133MOL0     C17461  -1.056   1.131   6.117 -0.4376  0.3055 -0.0964
  133MOL0     C17462  -1.112   0.985   6.086 -0.2394 -0.9574 -0.6292
  133MOL0     C17463  -1.258   1.003   6.034  0.9147  0.4215 -0.3807
  133MOL0     C17464  -1.321   0.870   6.001 -0.2842 -0.5727  0.2159
  133MOL0     C17465  -1.337   0.781   6.131 -0.7884 -0.4082  0.7094
  133MOL0     C17466  -1.407   0.646   6.098 -0.5125  0.7166  0.2958
  133MOL0     C17467  -1.521   0.607   6.195  0.1433 -0.2855 -0.8569
  133MOL0    Cl17468  -1.644   0.500   6.116  0.3103 -0.0454 -0.2563
  133MOL0     C17469  -0.705   1.402   6.240 -0.6364 -0.3037 -0.0808
  133MOL0     C17470  -0.571   1.428   6.245 -0.5121 -0.6908 -0.9687
  133MOL0     O17471  -0.317   1.481   6.103 -0.2892 -0.3004 -0.7789
  133MOL0     C17472  -0.051   1.319   6.287 -0.4237 -0.1938  0.5063
  133MOL0     C17473   0.093   1.308   6.279  0.3740  0.2029 -0.1868
  133MOL0     N17474   0.400   0.864   5.774  0.8376 -0.3640  0.0055
  133MOL0     N17475   0.479   0.848   5.675  0.4524  0.6176  0.0162
  133MOL0     C17476   1.609   0.996   5.459 -0.9756  0.2368  1.2155
  133MOL0     C17477   1.737   1.057   5.477  0.0875  0.3856 -0.8516
  133MOL0     C17478   2.166   1.131   5.376 -0.4503 -0.3621  0.4784
  133MOL0     C17479   2.242   1.097   5.262 -1.0031  0.0513 -0.0261
  133MOL0     C17480   2.379   1.110   5.255  0.4622  1.0546 -0.4963
  133MOL0     C17481   2.449   1.167   5.358 -0.6040 -0.4958 -0.4200
  133MOL0     O17482   2.588   1.193   5.360 -0.6260 -0.0073 -0.4816
  133MOL0     C17483   2.665   1.157   5.251 -0.5994 -0.7846 -0.1423
  133MOL0     C17484   2.799   1.105   5.288  0.2211 -0.8916  0.6362
  133MOL0     C17485   2.878   1.093   5.161 -0.1033 -0.8115 -0.0041
  133MOL0     C17486   3.015   1.032   5.194 -0.3007  0.3443  0.0217
  133MOL0     C17487   3.100   1.119   5.276 -0.5310  0.4596 -0.6520
  133MOL0     C17488   3.190   1.179   5.335  0.3668  0.2222 -0.0867
  133MOL0     C17489   2.372   1.196   5.481 -0.2728 -0.1038 -0.0058
  133MOL0     C17490   2.233   1.175   5.491 -0.1694  0.7595 -0.1201
  133MOL0     H17491   1.923   0.775   5.473 -1.5375 -2.7898 -1.5203
  133MOL0     H17492   1.695   0.668   5.460 -2.8335 -0.2391  1.1074
  133MOL0     H17493   1.469   0.615   5.522  1.7616  0.3888 -0.2707
  133MOL0     H17494   1.505   0.630   5.353 -2.6078 -4.1330 -0.4396
  133MOL0     H17495   1.287   0.527   5.382 -1.6070 -0.5447  1.6803
  133MOL0     H17496   1.280   0.680   5.291  1.1543 -2.7715 -0.3635
  133MOL0     H17497   1.149   0.771   5.501 -1.0053 -0.6177 -0.5662
  133MOL0     H17498   1.243   0.643   5.593 -1.3149 -0.5787 -0.1786
  133MOL0     H17499   1.019   0.604   5.398  2.2854 -0.5808 -0.8443
  133MOL0     H17500   1.080   0.484   5.518  0.2230  0.2384  3.0968
  133MOL0     H17501   0.999   0.598   5.699  2.8116 -2.7974 -1.2515
  133MOL0     H17502   0.868   0.575   5.581 -0.2416 -0.4794  1.6923
  133MOL0     H17503   0.915   0.803   5.489  0.3718  1.4557 -0.2507
  133MOL0     H17504   1.007   0.839   5.639 -0.0381 -0.3046  0.9168
  133MOL0     H17505   0.741   0.711   5.684 -2.0024  0.3364 -2.3709
  133MOL0     H17506   0.830   0.836   5.776 -0.1908 -2.4874  1.4193
  133MOL0     H17507   0.668   0.871   5.529  1.1362 -5.3825  1.0201
  133MOL0     H17508   0.755   1.013   5.619 -1.3365  0.1804  2.6362
  133MOL0     H17509   0.651   1.025   5.896 -0.2371  1.4564  0.2433
  133MOL0     H17510   0.470   0.924   6.092  1.3447  2.3619  0.7660
  133MOL0     H17511   0.303   0.930   6.034 -1.1757  2.1765  1.1595
  133MOL0     H17512   0.321   1.164   5.976 -0.3843  0.2260  1.5195
  133MOL0     H17513   0.494   1.167   6.007  1.5839  0.9567  1.9414
  133MOL0     H17514   0.295   1.106   6.227  0.1455  0.7916  0.2224
  133MOL0     H17515   0.463   1.100   6.244 -1.0102 -1.5378 -0.3281
  133MOL0     H17516   0.493   1.332   6.227  1.1408 -3.7084 -0.4083
  133MOL0     H17517   0.351   1.302   6.336 -1.2195  1.8187 -0.7614
  133MOL0     H17518   0.162   1.519   6.029  0.7159  0.1109  0.8753
  133MOL0     H17519  -0.083   1.560   6.044 -0.6847 -0.1638  0.6658
  133MOL0     H17520  -0.441   1.109   6.307 -1.0631 -0.8057  1.5471
  133MOL0     H17521  -0.676   1.061   6.276 -1.3798  0.2198 -1.9837
  133MOL0     H17522  -0.949   1.083   6.303 -0.0164  2.4284  0.8703
  133MOL0     H17523  -0.861   1.059   6.138  0.4936 -0.3674  0.6945
  133MOL0     H17524  -1.033   1.171   6.018  3.6563 -2.5989 -0.5668
  133MOL0     H17525  -1.129   1.197   6.164  2.2149  0.3872  4.3818
  133MOL0     H17526  -1.106   0.921   6.175  2.0925  0.9803  0.7071
  133MOL0     H17527  -1.043   0.937   6.017  5.0696  2.6534  1.5595
  133MOL0     H17528  -1.320   1.054   6.108  0.1656  1.6349 -1.7751
  133MOL0     H17529  -1.250   1.061   5.942 -0.1057  3.1999  1.1742
  133MOL0     H17530  -1.253   0.828   5.927  0.9004  2.5920 -0.6522
  133MOL0     H17531  -1.424   0.883   5.968 -0.1863  1.5178  0.6104
  133MOL0     H17532  -1.391   0.847   6.200 -0.6073 -0.2712  0.7201
  133MOL0     H17533  -1.237   0.759   6.168 -0.0788 -1.5422 -1.6790
  133MOL0     H17534  -1.452   0.648   5.999 -1.9390 -1.8723  0.7891
  133MOL0     H17535  -1.329   0.569   6.098 -3.3914 -2.4569  0.1727
  133MOL0     H17536  -1.572   0.689   6.246 -1.4469  0.2093 -3.0720
  133MOL0     H17537  -1.491   0.544   6.279  3.1773  0.6527 -1.1424
  133MOL0     H17538  -0.784   1.476   6.233  2.4899  3.1725 -4.5339
  133MOL0     H17539  -0.536   1.530   6.228 -1.3346 -0.0081  1.0607
  133MOL0     H17540  -0.111   1.251   6.346 -0.9323  0.1131  0.3434
  133MOL0     H17541   0.130   1.243   6.358 -1.0616  0.2947  0.6057
  133MOL0     H17542   1.535   1.075   5.448  1.5018  2.5667  0.0055
  133MOL0     H17543   1.752   1.164   5.489  0.5725  0.3314 -0.9357
  133MOL0     H17544   2.193   1.060   5.172 -1.7981 -2.2273  1.2405
  133MOL0     H17545   2.433   1.100   5.161  1.9842  1.3677  0.3108
  133MOL0     H17546   2.684   1.244   5.187 -1.4087 -1.0261 -0.7348
  133MOL0     H17547   2.623   1.091   5.175 -1.2380  2.4283 -2.8559
  133MOL0     H17548   2.845   1.176   5.357 -0.3327 -1.5993  1.7710
  133MOL0     H17549   2.790   1.007   5.336 -1.5157 -1.4808 -0.7961
  133MOL0     H17550   2.881   1.182   5.099 -0.8203 -1.2414 -0.6715
  133MOL0     H17551   2.836   1.020   5.091  1.3762 -2.2845  0.5516
  133MOL0     H17552   2.996   0.944   5.257  2.2737 -1.0352 -0.9855
  133MOL0     H17553   3.070   1.010   5.102 -2.6195  0.7467 -1.5602
  133MOL0     H17554   3.274   1.212   5.393  1.0951 -1.6598 -0.0029
  133MOL0     H17555   2.414   1.226   5.576  1.4906 -2.5445  0.0787
  133MOL0     H17556   2.178   1.194   5.583  2.1838  0.8855  1.3530
  134MOL0     O17557  11.047   4.384   4.705  0.3629 -0.0671  0.2556
  134MOL0     C17558  11.086   4.330   4.603 -0.0595  0.7241 -0.1632
  134MOL0     O17559  11.020   4.285   4.485 -0.4373  0.6133 -0.0530
  134MOL0     C17560  10.886   4.282   4.479 -0.0427  0.1510  0.5212
  134MOL0     C17561  10.800   4.370   4.556 -0.3982  0.4339  0.5856
  134MOL0     C17562  10.661   4.377   4.523  0.3063  0.7523 -0.8624
  134MOL0     C17563  10.605   4.309   4.423  0.5569 -0.0082 -0.0618
  134MOL0     O17564  10.469   4.328   4.395  0.1753  0.4211 -1.0183
  134MOL0     C17565  10.381   4.253   4.479 -0.7900  0.2906 -0.1648
  134MOL0     C17566  10.247   4.310   4.469  0.2838 -0.6351  0.3581
  134MOL0     C17567  10.237   4.459   4.516 -0.8049 -0.5098  0.2119
  134MOL0     C17568  10.097   4.507   4.534  0.0642  0.6603 -1.0395
  134MOL0     C17569  10.087   4.633   4.621 -0.1182 -0.5990 -0.1755
  134MOL0     C17570   9.945   4.688   4.629 -0.2200  0.0428 -0.3492
  134MOL0     C17571   9.906   4.745   4.498 -0.8639  0.3165 -0.2097
  134MOL0     C17572   9.773   4.826   4.505  0.7190 -0.1201 -0.0556
  134MOL0     N17573   9.657   4.758   4.562 -0.3088  0.3283  0.2261
  134MOL0     C17574   9.566   4.696   4.481 -0.0498 -0.0073 -0.2552
  134MOL0     C17575   9.479   4.651   4.568 -0.1541  0.2315 -0.7931
  134MOL0     C17576   9.357   4.578   4.531 -0.3938 -0.3667  0.4407
  134MOL0     C17577   9.233   4.660   4.542 -0.2562 -0.6023 -0.3208
  134MOL0     C17578   9.114   4.592   4.482 -0.0411 -0.5136  1.1617
  134MOL0     C17579   8.994   4.686   4.500 -0.7142  0.4319 -0.3732
  134MOL0     O17580   8.883   4.635   4.417  0.1635  0.7489  0.5908
  134MOL0     C17581   8.765   4.706   4.401 -0.5691  0.1752 -0.9276
  134MOL0     C17582   8.680   4.674   4.301 -0.0884 -0.3770 -0.2990
  134MOL0     C17583   8.553   4.737   4.283  0.0736  0.4738 -0.7156
  134MOL0     C17584   8.515   4.836   4.374  0.0863 -0.2823  0.4795
  134MOL0     C17585   8.379   4.895   4.367 -0.5719 -0.8613  0.0833
  134MOL0     O17586   8.299   4.824   4.288 -0.2018 -0.6559  0.3160
  134MOL0     C17587   8.179   4.892   4.274 -0.8796 -0.1109 -0.0102
  134MOL0     C17588   8.073   4.881   4.366  1.0520 -0.2340  0.6900
  134MOL0     C17589   7.949   4.936   4.346  0.6881 -0.4346 -0.0173
  134MOL0     C17590   7.920   5.013   4.229  0.4689 -0.0400  0.0867
  134MOL0     O17591   7.797   5.066   4.204 -0.0132  0.6148  0.3142
  134MOL0     C17592   7.742   5.048   4.076  0.7623  0.0643  0.4271
  134MOL0     C17593   7.630   4.935   4.078 -0.0654  0.5688  0.7160
  134MOL0     C17594   7.526   4.970   4.179 -0.5791  0.9596 -0.7317
  134MOL0     C17595   7.401   4.888   4.163 -0.1032 -0.2544  0.1195
  134MOL0     C17596   7.283   4.909   4.264 -0.2373  0.2871 -0.2720
  134MOL0     C17597   7.147   4.841   4.226 -0.0727  0.2745  0.4126
  134MOL0     C17598   7.156   4.699   4.204  0.8132  0.0726  0.2377
  134MOL0     C17599   7.014   4.634   4.231  0.7856 -0.1811  0.9067
  134MOL0    Cl17600   6.889   4.662   4.089 -0.0382  0.5971 -0.3399
  134MOL0     C17601   8.029   5.035   4.139  0.8960  0.1383 -0.6118
  134MOL0     C17602   8.156   4.969   4.157 -0.0839  0.0216 -0.2555
  134MOL0     O17603   8.352   4.997   4.424  0.0317 -0.2421  0.5602
  134MOL0     C17604   8.613   4.886   4.465 -0.5378  0.6617 -0.3248
  134MOL0     C17605   8.737   4.816   4.478  0.1400 -0.9324 -0.5782
  134MOL0     N17606   9.517   4.679   4.697 -0.1319  0.0154 -0.3300
  134MOL0     N17607   9.623   4.751   4.690  0.8456  0.3192 -0.0190
  134MOL0     C17608  10.678   4.221   4.345  1.0168  0.2352 -0.9517
  134MOL0     C17609  10.819   4.215   4.368 -0.2952  0.4584 -0.6644
  134MOL0     C17610  11.237   4.311   4.598  0.3456  0.0619  0.2774
  134MOL0     C17611  11.320   4.361   4.697 -0.0041  0.7833  0.1173
  134MOL0     C17612  11.455   4.356   4.698  0.9086 -0.5603  0.8766
  134MOL0     C17613  11.521   4.288   4.591  0.6747  1.8387  0.4158
  134MOL0     O17614  11.649   4.261   4.592 -0.1662 -0.8537  0.5419
  134MOL0     C17615  11.732   4.296   4.703  0.6815 -0.5580  0.0619
  134MOL0     C17616  11.878   4.255   4.657  0.2662 -0.3093  0.0625
  134MOL0     C17617  11.956   4.365   4.572  0.3903  0.3706 -0.9708
  134MOL0     C17618  12.104   4.326   4.554 -0.2774 -0.0470 -0.3157
  134MOL0     C17619  12.115   4.202   4.478  0.4143  0.3928 -0.5164
  134MOL0     C17620  12.122   4.095   4.417  0.2817 -0.3812 -0.2061
  134MOL0     C17621  11.441   4.236   4.485 -0.0463  0.6274 -0.9403
  134MOL0     C17622  11.304   4.247   4.492 -0.0580  0.2303  0.1282
  134MOL0     H17623  10.841   4.423   4.641  3.0667  0.9153 -1.2065
  134MOL0     H17624  10.588   4.439   4.574 -0.9236  2.3478 -4.2492
  134MOL0     H17625  10.422   4.257   4.580 -1.3723  1.3565  0.0441
  134MOL0     H17626  10.387   4.147   4.452 -0.8799 -0.1376  1.3898
  134MOL0     H17627  10.180   4.257   4.537  2.6602 -0.0637  3.3686
  134MOL0     H17628  10.216   4.299   4.364 -0.3559 -0.5014  0.5309
  134MOL0     H17629  10.293   4.521   4.445  0.4689  1.5294  2.8035
  134MOL0     H17630  10.290   4.466   4.611 -0.5973 -1.1446  0.1431
  134MOL0     H17631  10.037   4.526   4.444 -1.0947  1.9960 -0.0479
  134MOL0     H17632  10.045   4.424   4.583  1.0125  0.5515 -0.1854
  134MOL0     H17633  10.146   4.719   4.588 -2.0635  1.3632  1.1162
  134MOL0     H17634  10.120   4.603   4.721 -0.7506 -0.2262  0.1452
  134MOL0     H17635   9.947   4.767   4.706  0.9323 -1.9786  1.8297
  134MOL0     H17636   9.882   4.599   4.641  1.1692 -1.5788 -3.9949
  134MOL0     H17637   9.980   4.816   4.460 -0.1568  0.3190  1.1146
  134MOL0     H17638   9.889   4.670   4.421  0.5069 -0.1982 -0.0335
  134MOL0     H17639   9.751   4.857   4.402  1.0085  1.1764  0.2660
  134MOL0     H17640   9.781   4.910   4.574  1.9897  0.8917 -1.3720
  134MOL0     H17641   9.556   4.692   4.373 -2.5327  4.3496 -0.4332
  134MOL0     H17642   9.352   4.491   4.596  4.9698  0.1004  1.9197
  134MOL0     H17643   9.355   4.558   4.424 -0.5232  1.2786  0.1089
  134MOL0     H17644   9.258   4.761   4.510  0.9005 -0.7491  0.0661
  134MOL0     H17645   9.220   4.670   4.650  0.3493  0.4211 -0.3348
  134MOL0     H17646   9.118   4.587   4.373  1.2421 -2.1951  1.2349
  134MOL0     H17647   9.091   4.489   4.512  0.1329 -1.7486 -2.4745
  134MOL0     H17648   9.019   4.790   4.479 -0.6015  0.9037  1.8443
  134MOL0     H17649   8.971   4.678   4.607 -2.2075 -0.5802 -0.7352
  134MOL0     H17650   8.698   4.583   4.244  1.7324 -0.7215  0.7640
  134MOL0     H17651   8.482   4.704   4.208  2.3695 -0.5485 -2.5701
  134MOL0     H17652   8.104   4.826   4.455 -1.3515 -1.2423  0.9700
  134MOL0     H17653   7.866   4.945   4.415 -1.1642  1.2006 -2.2714
  134MOL0     H17654   7.813   5.026   3.997 -0.4296  1.8205 -1.2148
  134MOL0     H17655   7.692   5.142   4.053  0.7641  0.4435  1.8567
  134MOL0     H17656   7.680   4.841   4.106  2.3884  1.1914 -1.1779
  134MOL0     H17657   7.590   4.919   3.978  0.8411 -2.3347  0.7175
  134MOL0     H17658   7.496   5.074   4.163  0.4238  1.4002  0.1182
  134MOL0     H17659   7.573   4.961   4.277 -2.2656 -2.6384 -0.0798
  134MOL0     H17660   7.366   4.922   4.064  2.6183 -3.5063 -2.1967
  134MOL0     H17661   7.426   4.782   4.155 -0.3157 -0.1944 -2.1399
  134MOL0     H17662   7.266   5.011   4.299 -1.4202 -0.6280  2.0376
  134MOL0     H17663   7.309   4.857   4.356  0.1947  1.1145  0.0808
  134MOL0     H17664   7.115   4.883   4.131  1.5800 -2.0068 -1.2752
  134MOL0     H17665   7.082   4.855   4.313 -1.1663  0.7660 -0.4603
  134MOL0     H17666   7.194   4.678   4.103 -0.2291  0.7493 -0.3148
  134MOL0     H17667   7.226   4.658   4.278 -1.8786 -1.9035  1.8682
  134MOL0     H17668   6.972   4.674   4.324  0.1148  1.0731  0.0958
  134MOL0     H17669   7.023   4.528   4.257 -1.9120 -0.3390  1.5062
  134MOL0     H17670   8.011   5.094   4.050 -0.9567 -0.4666 -0.6850
  134MOL0     H17671   8.234   4.983   4.083  1.7162 -1.5041  1.2551
  134MOL0     H17672   8.587   4.964   4.536  2.1945  0.8264  0.5772
  134MOL0     H17673   8.806   4.848   4.555 -0.6546  0.5973 -0.4623
  134MOL0     H17674  10.635   4.176   4.257  1.5040  0.1271 -1.1343
  134MOL0     H17675  10.879   4.154   4.302 -0.4823  0.8248 -1.1739
  134MOL0     H17676  11.284   4.411   4.786  0.2824  0.9199  0.1590
  134MOL0     H17677  11.512   4.398   4.781  0.1063 -0.8264  1.5751
  134MOL0     H17678  11.711   4.240   4.795  0.1446 -1.3596 -0.5363
  134MOL0     H17679  11.728   4.402   4.730  0.0363 -0.3536 -0.8228
  134MOL0     H17680  11.937   4.252   4.749 -0.4410 -2.1414  0.4893
  134MOL0     H17681  11.874   4.158   4.606  0.5877  0.0672 -0.7032
  134MOL0     H17682  11.959   4.462   4.623 -5.0288  1.0238 -1.2300
  134MOL0     H17683  11.915   4.383   4.472  0.5664  1.3010 -0.8886
  134MOL0     H17684  12.159   4.400   4.495 -1.1020  0.1904 -0.7997
  134MOL0     H17685  12.150   4.302   4.650  0.3070  0.1549 -0.5380
  134MOL0     H17686  12.112   4.002   4.365 -0.8701  0.1243 -0.9252
  134MOL0     H17687  11.484   4.175   4.405  0.1988 -1.8714  0.9538
  134MOL0     H17688  11.244   4.216   4.408  0.6097 -0.8800  0.0367
  135MOL0     O17689   4.749   5.471  11.197  0.6822 -0.7080  0.0971
  135MOL0     C17690   4.664   5.394  11.237  0.3631  0.2997  0.9313
  135MOL0     O17691   4.557   5.338  11.162 -0.7988  0.4196  0.0297
  135MOL0     C17692   4.535   5.369  11.032 -0.1684  0.1137 -0.4435
  135MOL0     C17693   4.410   5.334  10.983 -0.0739  0.5810 -0.5528
  135MOL0     C17694   4.375   5.330  10.849 -0.0203 -0.1933  0.1434
  135MOL0     C17695   4.460   5.385  10.752 -0.0010  0.0758 -0.1657
  135MOL0     O17696   4.402   5.408  10.628 -0.0826 -0.1064  0.5937
  135MOL0     C17697   4.487   5.470  10.533 -0.6520 -0.7002  0.5742
  135MOL0     C17698   4.405   5.487  10.402  0.4893 -0.3931 -0.5897
  135MOL0     C17699   4.389   5.354  10.326  0.8378 -0.2665 -0.1799
  135MOL0     C17700   4.317   5.374  10.193  0.3108  0.1445 -0.3721
  135MOL0     C17701   4.162   5.385  10.210  0.4272  0.0002  0.5106
  135MOL0     C17702   4.098   5.249  10.209 -0.0138 -0.0959  0.2050
  135MOL0     C17703   3.955   5.243  10.270  0.7835 -0.5536 -0.8012
  135MOL0     C17704   3.850   5.129  10.227 -0.4725  0.7157  0.0943
  135MOL0     N17705   3.726   5.158  10.294 -0.3848 -0.9151  0.2947
  135MOL0     C17706   3.648   5.274  10.272 -0.2284  0.1893 -0.3786
  135MOL0     C17707   3.552   5.271  10.367 -0.2342  0.1117  0.2138
  135MOL0     C17708   3.440   5.374  10.369  0.1787 -0.2142  0.8973
  135MOL0     C17709   3.390   5.402  10.522 -0.5646  0.3732  1.1106
  135MOL0     C17710   3.265   5.324  10.570  0.1209  0.6500  0.5888
  135MOL0     C17711   3.146   5.336  10.480 -0.6173  0.0905  0.4460
  135MOL0     O17712   3.032   5.264  10.537 -0.0534  1.0635  0.1685
  135MOL0     C17713   2.910   5.274  10.487  0.3926  0.2244  0.5289
  135MOL0     C17714   2.810   5.194  10.542  0.5733  0.1943  0.0443
  135MOL0     C17715   2.671   5.191  10.502 -0.1249  1.5752 -0.9252
  135MOL0     C17716   2.637   5.265  10.390 -0.0683  0.5309 -0.1823
  135MOL0     C17717   2.500   5.253  10.334 -0.7785  0.4415 -0.1782
  135MOL0     O17718   2.434   5.127  10.342 -0.2588  0.1721 -0.9635
  135MOL0     C17719   2.312   5.121  10.274  0.4166 -1.7724 -0.3822
  135MOL0     C17720   2.191   5.140  10.343  0.3465  0.8030  0.0245
  135MOL0     C17721   2.071   5.144  10.281 -0.2721  0.1279  0.1679
  135MOL0     C17722   2.063   5.115  10.142 -0.6280 -1.5045  0.7432
  135MOL0     O17723   1.950   5.103  10.062 -0.0939  0.0448 -0.1721
  135MOL0     C17724   1.826   5.078  10.128  0.8026 -0.9399  0.3043
  135MOL0     C17725   1.710   5.071  10.022 -0.6987 -0.6651 -0.2216
  135MOL0     C17726   1.689   5.197   9.948 -0.0285  0.1415 -0.4345
  135MOL0     C17727   1.661   5.321  10.036 -1.3060  0.5975 -0.0020
  135MOL0     C17728   1.636   5.447   9.947 -0.8377  1.4848  0.4107
  135MOL0     C17729   1.588   5.568  10.012 -0.4928  0.2833 -0.5488
  135MOL0     C17730   1.443   5.546  10.059  0.4563 -0.2805  0.2745
  135MOL0     C17731   1.335   5.554   9.950  0.6569  1.0013  0.1544
  135MOL0    Cl17732   1.341   5.705   9.855  0.0600 -0.0125  0.5326
  135MOL0     C17733   2.184   5.089  10.072  1.2817 -0.1689  0.3726
  135MOL0     C17734   2.310   5.100  10.129 -0.2028 -0.0876 -0.6004
  135MOL0     O17735   2.459   5.353  10.271  0.0668 -0.1950 -0.5418
  135MOL0     C17736   2.733   5.350  10.331  0.1638  0.1676  0.4687
  135MOL0     C17737   2.864   5.346  10.372 -0.8754 -0.2415 -0.3105
  135MOL0     N17738   3.580   5.154  10.439  0.4288  0.0894  0.3322
  135MOL0     N17739   3.680   5.089  10.400  0.2635  0.6083  0.4444
  135MOL0     C17740   4.579   5.438  10.801 -0.2758 -0.1152  0.2565
  135MOL0     C17741   4.620   5.425  10.931  0.0580 -0.1694 -0.3801
  135MOL0     C17742   4.667   5.356  11.375 -0.1806  0.5431  0.6071
  135MOL0     C17743   4.570   5.262  11.425 -0.5629 -0.3157  0.0084
  135MOL0     C17744   4.571   5.227  11.557 -0.7523  0.9460  0.0563
  135MOL0     C17745   4.659   5.272  11.648  0.2268  0.1264 -0.3603
  135MOL0     O17746   4.650   5.234  11.782 -0.2831 -0.8667  0.1988
  135MOL0     C17747   4.773   5.195  11.850  0.3815 -0.6964  1.0069
  135MOL0     C17748   4.749   5.129  11.986  0.3642 -1.2910  1.6738
  135MOL0     C17749   4.640   5.202  12.062  0.7887  0.0891 -0.1436
  135MOL0     C17750   4.673   5.215  12.211 -0.1024  0.2475 -0.0971
  135MOL0     C17751   4.553   5.270  12.276 -0.7096 -0.8101 -0.0041
  135MOL0     C17752   4.451   5.313  12.332 -0.1652 -0.5805  0.2131
  135MOL0     C17753   4.749   5.363  11.606 -0.8404  0.4177  0.3767
  135MOL0     C17754   4.760   5.404  11.470  0.3775  0.7041 -0.1815
  135MOL0     H17755   4.333   5.297  11.051  4.2974 -1.1146  4.0788
  135MOL0     H17756   4.280   5.298  10.807 -0.1288 -1.0448  1.0111
  135MOL0     H17757   4.566   5.398  10.510 -3.8342 -4.3957  0.3006
  135MOL0     H17758   4.532   5.563  10.571  0.0049 -0.6264 -0.3235
  135MOL0     H17759   4.454   5.561  10.339 -1.3942  1.5997  0.1631
  135MOL0     H17760   4.309   5.531  10.430  0.4232  1.0619 -2.8953
  135MOL0     H17761   4.349   5.270  10.385 -1.9741 -0.2836 -1.8972
  135MOL0     H17762   4.489   5.324  10.295  1.1511  0.7542 -0.1790
  135MOL0     H17763   4.360   5.465  10.148 -1.3699  0.3988 -1.5429
  135MOL0     H17764   4.340   5.295  10.121  0.2283 -0.1248 -0.1011
  135MOL0     H17765   4.118   5.445  10.130  1.7562  0.5296  0.1565
  135MOL0     H17766   4.132   5.435  10.302  0.7250 -1.1769  1.2693
  135MOL0     H17767   4.170   5.176  10.248  0.0357  1.6541  3.8964
  135MOL0     H17768   4.077   5.220  10.106 -0.5620 -1.0619  0.5724
  135MOL0     H17769   3.966   5.229  10.377  0.5546  0.3218 -0.6587
  135MOL0     H17770   3.897   5.336  10.264  2.0524  0.4676  1.6572
  135MOL0     H17771   3.883   5.030  10.258  0.1548  0.7584 -0.4181
  135MOL0     H17772   3.834   5.121  10.119 -0.7365  0.3951  0.1543
  135MOL0     H17773   3.647   5.338  10.184 -3.1441  0.5457 -0.1847
  135MOL0     H17774   3.368   5.327  10.301  0.3744  1.2339 -0.3843
  135MOL0     H17775   3.478   5.468  10.327  0.1706 -0.2348  0.8429
  135MOL0     H17776   3.366   5.508  10.516  2.7009  1.1634 -0.4711
  135MOL0     H17777   3.476   5.400  10.591 -0.3814  0.7866  0.8959
  135MOL0     H17778   3.285   5.216  10.566  1.2920  0.8779 -0.1558
  135MOL0     H17779   3.246   5.345  10.676  1.9358 -3.1472  1.8444
  135MOL0     H17780   3.159   5.308  10.375 -1.3878 -1.1578  0.6567
  135MOL0     H17781   3.128   5.444  10.472 -0.6790  0.1602  1.4898
  135MOL0     H17782   2.850   5.128  10.618  0.6001 -0.1472 -0.2653
  135MOL0     H17783   2.607   5.122  10.556  0.9734  1.2244 -0.0356
  135MOL0     H17784   2.198   5.150  10.451  0.8630 -1.7335  0.2977
  135MOL0     H17785   1.984   5.183  10.332 -0.3006  1.6563 -0.9857
  135MOL0     H17786   1.800   5.164  10.191 -0.2485 -0.3781 -0.8467
  135MOL0     H17787   1.832   4.981  10.178 -1.2844 -3.1159 -3.2148
  135MOL0     H17788   1.620   5.042  10.078 -0.2888  2.6873  2.5385
  135MOL0     H17789   1.730   4.982   9.961  0.6636 -0.4636 -0.0915
  135MOL0     H17790   1.598   5.178   9.890  0.6590 -0.5546 -1.3213
  135MOL0     H17791   1.768   5.210   9.874  1.1314  3.2755  1.1630
  135MOL0     H17792   1.565   5.298  10.084 -1.4647  1.5997  0.1904
  135MOL0     H17793   1.747   5.337  10.101 -0.1181 -6.9927  1.1084
  135MOL0     H17794   1.566   5.423   9.866 -0.5195 -0.3575  0.6289
  135MOL0     H17795   1.735   5.474   9.909 -0.2344  4.4128  3.6470
  135MOL0     H17796   1.587   5.650   9.939  0.8297  0.9001  0.0715
  135MOL0     H17797   1.646   5.599  10.100 -0.8458 -0.7719  0.0582
  135MOL0     H17798   1.426   5.463  10.129  0.1245 -2.0623 -1.7988
  135MOL0     H17799   1.433   5.640  10.113  0.6967  0.3551 -0.7641
  135MOL0     H17800   1.238   5.554   9.999 -0.3307  0.2842 -1.7062
  135MOL0     H17801   1.324   5.469   9.882 -0.9067  0.9669  0.4237
  135MOL0     H17802   2.180   5.065   9.967 -2.5020 -2.5018  0.8852
  135MOL0     H17803   2.404   5.092  10.076  0.2298  2.5196 -0.3577
  135MOL0     H17804   2.711   5.409  10.243  0.0224  0.1442  0.4874
  135MOL0     H17805   2.938   5.406  10.318  2.4125 -1.6812  2.2592
  135MOL0     H17806   4.641   5.505  10.742 -1.5856 -1.5173 -2.9680
  135MOL0     H17807   4.725   5.448  10.945  0.2890 -1.9515  1.3394
  135MOL0     H17808   4.493   5.221  11.360 -1.4080 -0.1988  0.9177
  135MOL0     H17809   4.493   5.158  11.588  1.9997 -1.6358  1.7875
  135MOL0     H17810   4.828   5.288  11.866 -0.5947  0.4658 -1.7568
  135MOL0     H17811   4.828   5.120  11.793  2.7762  2.5146 -1.2665
  135MOL0     H17812   4.728   5.022  11.980  0.6288 -1.3917  2.3805
  135MOL0     H17813   4.837   5.141  12.049  0.4842 -1.9394  1.6338
  135MOL0     H17814   4.554   5.135  12.051  0.6119 -0.2581  2.6441
  135MOL0     H17815   4.623   5.299  12.014 -2.1036 -0.4832 -0.4722
  135MOL0     H17816   4.701   5.116  12.246  1.4197  0.9536  0.7675
  135MOL0     H17817   4.760   5.280  12.226 -0.6201  1.8731 -3.1829
  135MOL0     H17818   4.353   5.342  12.363 -0.1085  0.4008 -0.4493
  135MOL0     H17819   4.821   5.406  11.674  0.7254 -0.4967 -0.6318
  135MOL0     H17820   4.834   5.471  11.427 -1.4701  1.7916 -1.8538
  136MOL0     O17821   5.701   7.221   0.325 -0.4762 -0.0990 -0.1529
  136MOL0     C17822   5.733   7.273   0.430 -0.5869 -0.6581 -0.9632
  136MOL0     O17823   5.665   7.269   0.547  0.6297 -0.5085  0.1707
  136MOL0     C17824   5.547   7.202   0.554 -0.0812  0.0775  0.3086
  136MOL0     C17825   5.447   7.170   0.454 -0.0110  0.9545  0.3888
  136MOL0     C17826   5.331   7.097   0.497  0.1352 -0.6538 -0.2034
  136MOL0     C17827   5.308   7.056   0.623  0.1001 -0.0534  0.2709
  136MOL0     O17828   5.202   6.984   0.665  0.2637 -0.7833  0.0473
  136MOL0     C17829   5.093   6.961   0.573  0.3614  0.8701  0.4651
  136MOL0     C17830   4.975   6.930   0.662 -0.1091 -0.1474 -1.0661
  136MOL0     C17831   4.850   6.900   0.582  0.1947  0.4404  0.4119
  136MOL0     C17832   4.848   6.751   0.537 -0.2144  0.1264  0.0599
  136MOL0     C17833   4.723   6.725   0.454  0.1879  0.6644  1.3255
  136MOL0     C17834   4.691   6.841   0.347  0.1330 -0.6282  0.3264
  136MOL0     C17835   4.799   6.841   0.237  0.1143  0.8143 -0.1848
  136MOL0     C17836   4.818   6.970   0.163  0.3726 -0.3010  0.9434
  136MOL0     N17837   4.860   7.079   0.249 -0.1336  0.4420 -0.1352
  136MOL0     C17838   4.784   7.174   0.321  0.1691 -0.8414  0.5611
  136MOL0     C17839   4.871   7.263   0.378  1.1407  0.1730 -0.4965
  136MOL0     C17840   4.846   7.379   0.471 -0.6936  1.1643  0.3120
  136MOL0     C17841   4.709   7.436   0.451 -0.1917 -0.4947  0.0713
  136MOL0     C17842   4.677   7.564   0.517  1.0219 -0.9448 -0.3922
  136MOL0     C17843   4.535   7.610   0.469 -0.3487  0.6949  0.6479
  136MOL0     O17844   4.442   7.505   0.493  0.1970  0.2399 -0.1968
  136MOL0     C17845   4.314   7.538   0.479  0.3132  0.5770  0.2561
  136MOL0     C17846   4.220   7.435   0.489 -0.8421  0.2769  0.6446
  136MOL0     C17847   4.078   7.455   0.501  0.1708  0.0820  0.1984
  136MOL0     C17848   4.024   7.582   0.485  0.5626  0.4823  0.0653
  136MOL0     C17849   3.878   7.609   0.516  0.0672 -0.9290 -0.1545
  136MOL0     O17850   3.865   7.740   0.523  0.1097  0.0484 -0.4640
  136MOL0     C17851   3.741   7.799   0.560 -0.4226  0.1289  0.6039
  136MOL0     C17852   3.609   7.749   0.555  0.2410  0.5853  0.4507
  136MOL0     C17853   3.498   7.828   0.599 -0.3183 -0.3255 -0.7050
  136MOL0     C17854   3.517   7.959   0.640 -0.2515  0.5624 -0.2021
  136MOL0     O17855   3.410   8.030   0.693 -0.3719  0.7404  0.2353
  136MOL0     C17856   3.441   8.162   0.745 -0.2220  0.3647  0.1218
  136MOL0     C17857   3.312   8.240   0.794  0.0052 -0.7168  0.8350
  136MOL0     C17858   3.349   8.395   0.822 -0.3273  0.4690 -0.3616
  136MOL0     C17859   3.228   8.478   0.860  0.1299  0.1510 -0.3113
  136MOL0     C17860   3.275   8.624   0.896 -0.5028  0.2854 -0.0031
  136MOL0     C17861   3.180   8.697   0.988  0.3656 -0.0970  0.2769
  136MOL0     C17862   3.207   8.852   1.015  0.5441  0.2969 -0.9098
  136MOL0     C17863   3.081   8.918   1.072 -0.9316 -1.0895  0.6341
  136MOL0    Cl17864   3.028   8.851   1.225 -0.0550  0.2121 -0.0357
  136MOL0     C17865   3.647   8.010   0.645 -0.1616 -0.3460 -0.4796
  136MOL0     C17866   3.752   7.931   0.595 -0.2055  0.0361  1.0596
  136MOL0     O17867   3.792   7.521   0.514  0.7182  0.0557  0.0316
  136MOL0     C17868   4.117   7.682   0.472  0.6217 -0.2191  0.5540
  136MOL0     C17869   4.254   7.667   0.467 -0.1184 -0.4761  0.1769
  136MOL0     N17870   4.996   7.232   0.334 -0.1330  0.0127 -0.2707
  136MOL0     N17871   4.991   7.128   0.263  0.5332  0.5201  0.1048
  136MOL0     C17872   5.404   7.085   0.719 -0.1358  0.0556  0.3928
  136MOL0     C17873   5.525   7.152   0.681 -0.1925 -0.0055  0.3960
  136MOL0     C17874   5.844   7.371   0.426  0.8362 -0.3075  0.6860
  136MOL0     C17875   5.886   7.432   0.548 -0.6461  0.2215  0.4677
  136MOL0     C17876   5.989   7.528   0.546 -0.8264 -0.1518  0.1571
  136MOL0     C17877   6.052   7.563   0.421  0.1488  0.5742  0.5237
  136MOL0     O17878   6.165   7.641   0.405  0.3650  0.7360 -0.3250
  136MOL0     C17879   6.233   7.681   0.529  0.0427 -0.9471  0.5410
  136MOL0     C17880   6.373   7.740   0.501 -0.6088  0.0903  1.0843
  136MOL0     C17881   6.389   7.866   0.414 -0.5478  0.2010 -0.1325
  136MOL0     C17882   6.333   7.853   0.273 -0.1315 -0.6308  0.3611
  136MOL0     C17883   6.376   7.976   0.199  0.3065  0.5091 -0.4889
  136MOL0     C17884   6.412   8.083   0.142 -0.3646  0.5232  0.2822
  136MOL0     C17885   5.999   7.508   0.303  0.4432  0.4361 -0.4354
  136MOL0     C17886   5.906   7.403   0.301  0.4361 -0.3144 -0.2662
  136MOL0     H17887   5.448   7.196   0.349 -2.3001  0.8960  0.3033
  136MOL0     H17888   5.265   7.059   0.419 -0.8281  0.1923  0.1739
  136MOL0     H17889   5.123   6.876   0.512 -1.0043  0.2645  0.6096
  136MOL0     H17890   5.076   7.047   0.508  2.7500  0.3178 -1.0137
  136MOL0     H17891   4.961   7.005   0.740 -2.2493 -2.9352  1.4484
  136MOL0     H17892   4.991   6.839   0.719 -2.5537 -1.6734 -2.6223
  136MOL0     H17893   4.854   6.966   0.495  0.3030  1.4086  1.1254
  136MOL0     H17894   4.761   6.932   0.637  0.5175  1.1015  0.5695
  136MOL0     H17895   4.943   6.725   0.490  0.8512  0.1329  2.0836
  136MOL0     H17896   4.840   6.694   0.630 -1.8562 -0.4756 -0.4183
  136MOL0     H17897   4.638   6.722   0.524 -0.8840  2.1830  0.1515
  136MOL0     H17898   4.725   6.634   0.393  1.5035  0.7600  1.2046
  136MOL0     H17899   4.671   6.938   0.393  1.0336  0.5458 -1.6294
  136MOL0     H17900   4.593   6.815   0.308  0.1523  0.1992 -0.2971
  136MOL0     H17901   4.899   6.817   0.273 -0.1847  0.0481  0.1726
  136MOL0     H17902   4.787   6.762   0.163  3.3208  0.7128 -0.7420
  136MOL0     H17903   4.726   6.999   0.112  0.4606 -0.6071  0.6044
  136MOL0     H17904   4.888   6.966   0.079  0.0743  3.4370  0.3748
  136MOL0     H17905   4.679   7.171   0.347 -0.1872  3.1076  0.1763
  136MOL0     H17906   4.930   7.448   0.468  0.2400  0.2238  2.6518
  136MOL0     H17907   4.858   7.352   0.576  2.9203  0.2642 -0.1672
  136MOL0     H17908   4.647   7.350   0.479  3.4828 -4.0790 -1.6817
  136MOL0     H17909   4.690   7.451   0.344  2.5219  2.4069 -0.1372
  136MOL0     H17910   4.665   7.549   0.625 -0.0470 -4.5035 -0.8882
  136MOL0     H17911   4.749   7.638   0.483  2.0424 -1.3454  0.8237
  136MOL0     H17912   4.519   7.626   0.362 -3.4370  1.0343  1.0740
  136MOL0     H17913   4.522   7.705   0.522 -0.3367  2.1080 -1.7351
  136MOL0     H17914   4.259   7.334   0.492  0.0437  0.5566 -0.4254
  136MOL0     H17915   4.013   7.370   0.518  0.5421 -0.7695 -2.1611
  136MOL0     H17916   3.575   7.655   0.513 -0.2856  1.1352 -0.3702
  136MOL0     H17917   3.401   7.781   0.586 -1.0188  1.5876 -3.2721
  136MOL0     H17918   3.484   8.225   0.667 -0.2796  1.1157  0.6932
  136MOL0     H17919   3.505   8.153   0.833 -2.2001  0.5346  1.6407
  136MOL0     H17920   3.292   8.189   0.888  0.0309 -0.2905  1.0719
  136MOL0     H17921   3.223   8.230   0.732  0.2931 -0.4282  0.3649
  136MOL0     H17922   3.392   8.432   0.729  1.9334 -3.2314 -1.0177
  136MOL0     H17923   3.435   8.395   0.889  1.5303 -1.8096 -2.5086
  136MOL0     H17924   3.145   8.477   0.788  0.2585 -0.0779 -0.4549
  136MOL0     H17925   3.195   8.436   0.955 -1.3736 -0.1121 -0.9185
  136MOL0     H17926   3.287   8.675   0.800  1.4844 -2.5596 -1.4301
  136MOL0     H17927   3.371   8.613   0.948  0.2830  2.5089 -0.8812
  136MOL0     H17928   3.178   8.646   1.085 -0.0117 -0.0471  0.2952
  136MOL0     H17929   3.077   8.684   0.954  0.7014  0.8221 -1.2173
  136MOL0     H17930   3.285   8.876   1.088 -2.2590  1.2760  1.9753
  136MOL0     H17931   3.232   8.884   0.914 -1.2117 -1.5667 -2.0297
  136MOL0     H17932   3.003   8.903   0.997 -1.0529 -0.7692  0.6944
  136MOL0     H17933   3.092   9.026   1.087  1.3084 -1.0172 -0.9989
  136MOL0     H17934   3.673   8.109   0.681 -1.5946 -0.8901  2.3264
  136MOL0     H17935   3.840   7.994   0.584 -1.5716  1.5909 -2.3458
  136MOL0     H17936   4.072   7.779   0.458 -1.2800 -0.8089  2.0578
  136MOL0     H17937   4.319   7.753   0.453 -1.0476  0.5602  1.9039
  136MOL0     H17938   5.386   7.059   0.823 -0.1177 -0.0599  0.3681
  136MOL0     H17939   5.604   7.175   0.751  0.1855 -0.0711 -0.0091
  136MOL0     H17940   5.852   7.405   0.647  2.9266 -0.6547  1.5919
  136MOL0     H17941   6.015   7.566   0.644 -1.1091  1.6612 -0.4425
  136MOL0     H17942   6.247   7.591   0.590  0.6508 -2.0289 -1.1386
  136MOL0     H17943   6.173   7.750   0.590 -0.7337  0.6445 -1.8792
  136MOL0     H17944   6.431   7.750   0.594 -0.3236 -1.0780  1.0461
  136MOL0     H17945   6.429   7.667   0.442 -2.1623  1.5448 -2.4911
  136MOL0     H17946   6.495   7.890   0.408 -0.1383 -1.6134 -0.8302
  136MOL0     H17947   6.345   7.950   0.469 -0.2040 -1.4389  2.9087
  136MOL0     H17948   6.362   7.759   0.225  0.1551 -0.2647 -0.1920
  136MOL0     H17949   6.224   7.846   0.278 -0.2413 -0.4287 -1.3305
  136MOL0     H17950   6.449   8.161   0.079 -0.0766 -0.0897 -0.3127
  136MOL0     H17951   6.059   7.545   0.220  0.6106  1.4835  0.1397
  136MOL0     H17952   5.879   7.363   0.203 -0.0962 -1.1619  0.2129
  137MOL0     O17953   4.355   5.600   5.218 -0.2937 -0.3673  0.4686
  137MOL0     C17954   4.259   5.527   5.240 -0.0583  0.7159  0.2252
  137MOL0     O17955   4.131   5.559   5.237 -0.3593  0.2314  0.0051
  137MOL0     C17956   4.082   5.684   5.196  0.4813  0.4534  0.4436
  137MOL0     C17957   3.948   5.683   5.165  0.1844  0.5957 -0.6543
  137MOL0     C17958   3.877   5.792   5.147 -0.1059 -0.4092  0.3371
  137MOL0     C17959   3.934   5.922   5.161 -0.3631  0.0251 -0.0071
  137MOL0     O17960   3.861   6.032   5.140 -0.4420  0.3644 -0.1623
  137MOL0     C17961   3.917   6.144   5.203 -0.1693  0.7515  0.1822
  137MOL0     C17962   3.853   6.280   5.163  0.0477  0.4973 -0.5947
  137MOL0     C17963   3.706   6.288   5.166  0.6954  0.3654 -1.1501
  137MOL0     C17964   3.650   6.294   5.309 -0.4968 -0.5663 -0.3544
  137MOL0     C17965   3.509   6.264   5.330 -0.4072 -0.4145  0.5764
  137MOL0     C17966   3.429   6.353   5.423 -0.1525  0.5325  1.1677
  137MOL0     C17967   3.283   6.289   5.460 -0.6893  0.5551 -0.8167
  137MOL0     C17968   3.215   6.382   5.564  0.1071  0.9169  0.4713
  137MOL0     N17969   3.184   6.513   5.498 -0.9160  0.1553 -0.1169
  137MOL0     C17970   3.071   6.570   5.457  0.2328 -0.1547  0.8476
  137MOL0     C17971   3.085   6.707   5.454  1.2252 -0.4186  0.1785
  137MOL0     C17972   2.989   6.818   5.398 -0.5356  0.5744  0.7377
  137MOL0     C17973   2.841   6.786   5.394 -1.1062  0.2654  0.4076
  137MOL0     C17974   2.764   6.908   5.355 -1.0451 -0.0652 -0.5819
  137MOL0     C17975   2.619   6.885   5.400  0.1293  0.3651  1.3446
  137MOL0     O17976   2.555   6.775   5.326  0.0279 -0.1240 -1.0079
  137MOL0     C17977   2.419   6.777   5.346 -0.0653  0.5310 -0.5155
  137MOL0     C17978   2.358   6.724   5.466 -0.0450 -0.9475  0.2858
  137MOL0     C17979   2.219   6.729   5.484 -0.7454 -0.0160 -0.2460
  137MOL0     C17980   2.140   6.790   5.384 -0.3281 -0.9818 -0.0729
  137MOL0     C17981   2.002   6.819   5.397  0.4978 -0.5122  0.1724
  137MOL0     O17982   1.962   6.854   5.525 -0.8692  0.4654 -0.3562
  137MOL0     C17983   1.835   6.903   5.533  0.1887 -0.2498  0.0779
  137MOL0     C17984   1.814   7.037   5.551 -0.7361  0.5375  0.3486
  137MOL0     C17985   1.690   7.097   5.556 -0.2945  0.2793 -0.4374
  137MOL0     C17986   1.579   7.015   5.561 -1.3608  0.1243 -0.3389
  137MOL0     O17987   1.463   7.083   5.569  0.4850  0.4914  1.4595
  137MOL0     C17988   1.358   7.021   5.485 -0.5928 -0.4613 -0.4523
  137MOL0     C17989   1.270   7.137   5.447  0.1443 -0.8481  0.4735
  137MOL0     C17990   1.180   7.133   5.325 -0.2632  0.2762 -0.0761
  137MOL0     C17991   1.109   7.260   5.292 -0.2315 -0.4714 -0.5986
  137MOL0     C17992   1.030   7.250   5.162  0.4977 -0.0121  0.4310
  137MOL0     C17993   0.915   7.140   5.165 -0.5581  0.1158  0.4330
  137MOL0     C17994   0.830   7.167   5.037 -0.5353 -0.6675 -0.0008
  137MOL0     C17995   0.730   7.282   5.057 -0.1881 -0.1606  0.3648
  137MOL0    Cl17996   0.641   7.298   4.909  0.1647 -0.3701  0.0551
  137MOL0     C17997   1.592   6.870   5.555  0.3286 -0.4382 -0.1644
  137MOL0     C17998   1.722   6.814   5.539  0.4701  0.0005  0.4473
  137MOL0     O17999   1.923   6.823   5.302  0.1348  0.0853  0.4500
  137MOL0     C18000   2.201   6.831   5.267 -0.7611 -0.0345  0.2320
  137MOL0     C18001   2.337   6.823   5.245  0.5603  0.3009  0.5352
  137MOL0     N18002   3.212   6.731   5.509  0.0817 -0.5746  0.2736
  137MOL0     N18003   3.277   6.615   5.526 -0.1753 -0.0651 -0.4095
  137MOL0     C18004   4.071   5.926   5.174  0.9693  0.1499  0.0794
  137MOL0     C18005   4.141   5.813   5.193  0.0204  0.8629 -0.8930
  137MOL0     C18006   4.296   5.381   5.257  0.1868 -0.0111 -0.9819
  137MOL0     C18007   4.430   5.334   5.257  0.0349 -0.4426 -0.1654
  137MOL0     C18008   4.451   5.199   5.261 -0.2759  0.1390 -0.1735
  137MOL0     C18009   4.355   5.097   5.266  0.0420  1.3346  0.0841
  137MOL0     O18010   4.386   4.961   5.258  0.0790  0.2040  0.1210
  137MOL0     C18011   4.285   4.860   5.277  0.1680 -0.1465  0.2982
  137MOL0     C18012   4.354   4.723   5.241 -0.7250  0.9722 -1.1310
  137MOL0     C18013   4.492   4.705   5.308 -0.1232  0.5547 -0.8117
  137MOL0     C18014   4.558   4.577   5.269 -0.0782  0.5951 -0.2331
  137MOL0     C18015   4.682   4.551   5.341 -0.5600  0.3200 -0.5766
  137MOL0     C18016   4.776   4.521   5.419 -0.8671 -0.2565 -0.8742
  137MOL0     C18017   4.219   5.149   5.272 -0.4739  0.2740  0.4273
  137MOL0     C18018   4.199   5.284   5.262  0.7766  0.7485  0.7257
  137MOL0     H18019   3.886   5.593   5.163 -0.2771  0.8903  0.0758
  137MOL0     H18020   3.774   5.774   5.120  0.5889 -2.5251 -1.2123
  137MOL0     H18021   4.021   6.163   5.174 -1.2419  1.2028 -3.9307
  137MOL0     H18022   3.901   6.125   5.310 -1.6181  2.5471  0.3366
  137MOL0     H18023   3.887   6.308   5.062  0.4413  0.2363 -0.5347
  137MOL0     H18024   3.893   6.359   5.228  0.9640 -0.0581 -0.4659
  137MOL0     H18025   3.672   6.198   5.115 -0.0609 -0.3779  0.5655
  137MOL0     H18026   3.675   6.378   5.112 -1.9585  0.9346  1.1232
  137MOL0     H18027   3.717   6.243   5.379  1.2624  2.7062  0.5590
  137MOL0     H18028   3.662   6.401   5.329 -2.5433 -0.5552  1.0865
  137MOL0     H18029   3.502   6.159   5.360 -2.1073  0.2798  2.8502
  137MOL0     H18030   3.462   6.278   5.232 -3.3607  0.8426  2.0568
  137MOL0     H18031   3.428   6.446   5.366  1.2063 -1.3885 -2.3058
  137MOL0     H18032   3.494   6.353   5.511  2.4973 -0.3864 -0.6911
  137MOL0     H18033   3.226   6.269   5.369 -2.0111 -1.9087  0.4506
  137MOL0     H18034   3.303   6.191   5.505 -0.3237  1.1764  0.4100
  137MOL0     H18035   3.281   6.394   5.650  0.0437 -0.1187  0.6786
  137MOL0     H18036   3.122   6.340   5.603 -0.8974  1.8628 -0.7914
  137MOL0     H18037   2.992   6.508   5.415  0.5259  1.4885 -2.4886
  137MOL0     H18038   3.029   6.845   5.300  1.2970  1.9125  1.7805
  137MOL0     H18039   3.007   6.910   5.454 -1.8150  1.2184  0.1228
  137MOL0     H18040   2.808   6.749   5.492  0.0167  1.6695  1.3534
  137MOL0     H18041   2.823   6.705   5.323 -1.5308  0.0611  0.7407
  137MOL0     H18042   2.797   6.999   5.406 -2.3509 -0.3719  0.8570
  137MOL0     H18043   2.768   6.924   5.247 -2.9163  2.5616 -0.3563
  137MOL0     H18044   2.557   6.974   5.384 -0.3442 -0.2631 -0.5471
  137MOL0     H18045   2.617   6.863   5.507  0.0685  0.4180  1.3549
  137MOL0     H18046   2.420   6.674   5.540 -1.6668 -4.5110 -0.5419
  137MOL0     H18047   2.184   6.683   5.576 -0.1161 -0.6670 -0.3169
  137MOL0     H18048   1.902   7.100   5.566 -0.5850 -0.1006  2.2963
  137MOL0     H18049   1.679   7.205   5.551  0.9117  0.3604 -2.3414
  137MOL0     H18050   1.290   6.954   5.537  0.1869  1.5718  3.5898
  137MOL0     H18051   1.398   6.982   5.391  0.9973  0.3840 -0.1689
  137MOL0     H18052   1.342   7.219   5.437  1.5184 -1.6885  2.6484
  137MOL0     H18053   1.207   7.170   5.530 -0.1252  0.8680 -0.3808
  137MOL0     H18054   1.111   7.049   5.337 -0.2092  0.1837 -0.4089
  137MOL0     H18055   1.241   7.101   5.240 -1.9516 -3.0668 -0.1969
  137MOL0     H18056   1.044   7.279   5.378  1.5949  1.3050  0.4656
  137MOL0     H18057   1.177   7.345   5.291  0.7969 -1.0560  3.3806
  137MOL0     H18058   1.096   7.237   5.076  0.4560  1.3261  0.1693
  137MOL0     H18059   0.978   7.344   5.141  0.5994 -0.2705 -1.0974
  137MOL0     H18060   0.862   7.171   5.255  0.7255  3.8603  0.0872
  137MOL0     H18061   0.947   7.035   5.165 -1.5854 -0.4483 -4.2207
  137MOL0     H18062   0.897   7.195   4.954 -2.2731 -2.4320 -2.1261
  137MOL0     H18063   0.780   7.079   4.996  0.9679 -1.0440 -1.1218
  137MOL0     H18064   0.784   7.376   5.070 -1.9118  0.8860  0.1441
  137MOL0     H18065   0.664   7.278   5.143  0.4296  1.5206  0.9578
  137MOL0     H18066   1.501   6.811   5.551 -0.7263  1.1171  0.2489
  137MOL0     H18067   1.738   6.707   5.537 -2.1837 -0.5530  2.7647
  137MOL0     H18068   2.135   6.882   5.197 -0.2673  0.5952  0.2135
  137MOL0     H18069   2.386   6.858   5.154  1.0123  1.3704  1.1741
  137MOL0     H18070   4.141   6.007   5.193  1.1023 -0.3594  1.9039
  137MOL0     H18071   4.247   5.812   5.213 -0.1149  0.4338 -0.1573
  137MOL0     H18072   4.507   5.407   5.236  0.7056 -1.3600 -0.9560
  137MOL0     H18073   4.553   5.166   5.241 -0.5714 -1.5731  0.9028
  137MOL0     H18074   4.194   4.895   5.227  0.5771  4.4226  2.2270
  137MOL0     H18075   4.254   4.849   5.381  1.2475 -0.1082  0.6360
  137MOL0     H18076   4.287   4.640   5.264  1.2721  0.1800  2.6111
  137MOL0     H18077   4.383   4.719   5.135  1.5916 -1.4617 -0.5073
  137MOL0     H18078   4.483   4.700   5.417  0.2834  0.6384 -0.7734
  137MOL0     H18079   4.572   4.774   5.281  2.4620 -2.1902 -0.6962
  137MOL0     H18080   4.496   4.491   5.296  0.4441  1.4721  4.6603
  137MOL0     H18081   4.582   4.579   5.162  1.6997 -2.6058 -0.0162
  137MOL0     H18082   4.843   4.502   5.500 -2.2923  2.1513  1.0038
  137MOL0     H18083   4.124   5.096   5.270 -1.2347  1.5373  1.3885
  137MOL0     H18084   4.098   5.315   5.240  1.0629  1.8999  1.0035
  138MOL0     O18085   5.432   5.979   1.182 -0.0166  0.0507 -0.6893
  138MOL0     C18086   5.509   5.935   1.093 -0.0481 -0.2285 -0.0602
  138MOL0     O18087   5.465   5.865   0.980 -0.6178  0.4847  0.0377
  138MOL0     C18088   5.328   5.844   0.971 -0.1376 -0.0544  1.1064
  138MOL0     C18089   5.235   5.952   0.961  0.2215 -0.3504 -0.5929
  138MOL0     C18090   5.098   5.932   0.943  0.5113  0.5889  0.4539
  138MOL0     C18091   5.055   5.795   0.922  0.2577 -0.0616 -0.1397
  138MOL0     O18092   4.933   5.755   0.897 -0.1892  0.1569  0.0838
  138MOL0     C18093   4.863   5.855   0.819  0.1841 -0.0516  0.1259
  138MOL0     C18094   4.782   5.792   0.703 -0.0001 -0.2593  0.1761
  138MOL0     C18095   4.668   5.703   0.748 -0.0338  0.0349  0.5306
  138MOL0     C18096   4.592   5.647   0.624  0.0359  0.0796  0.0434
  138MOL0     C18097   4.461   5.579   0.667 -0.3497  0.3072 -0.9014
  138MOL0     C18098   4.429   5.474   0.555  0.1606 -0.8587  0.0245
  138MOL0     C18099   4.276   5.458   0.549  0.0791 -0.2607  0.5469
  138MOL0     C18100   4.201   5.571   0.475 -0.6024 -0.7287 -0.2097
  138MOL0     N18101   4.058   5.560   0.517 -0.7585 -0.5208  0.7206
  138MOL0     C18102   3.983   5.456   0.473  0.3082  0.4669 -0.1592
  138MOL0     C18103   3.868   5.476   0.546  0.2249 -1.1731 -0.0598
  138MOL0     C18104   3.744   5.391   0.534 -0.8847 -0.2725  0.0426
  138MOL0     C18105   3.733   5.317   0.669  0.3121 -0.2206 -0.1964
  138MOL0     C18106   3.630   5.215   0.680  0.2042  0.0920 -0.6154
  138MOL0     C18107   3.615   5.154   0.824 -0.0193  0.2070  0.7676
  138MOL0     O18108   3.569   5.254   0.914  0.5008  0.3080  0.3153
  138MOL0     C18109   3.431   5.273   0.932  0.1707  0.6509  0.3530
  138MOL0     C18110   3.347   5.174   0.971  0.0983  0.8605  0.0705
  138MOL0     C18111   3.211   5.199   0.976  0.3238  0.1145 -0.5260
  138MOL0     C18112   3.157   5.329   0.958 -0.7421  0.6098 -0.3828
  138MOL0     C18113   3.015   5.358   0.977  0.1475  0.4858 -0.0330
  138MOL0     O18114   2.946   5.258   1.043 -0.0811 -0.5388  0.6152
  138MOL0     C18115   2.814   5.284   1.057  0.3678  0.8564  0.9076
  138MOL0     C18116   2.738   5.185   0.985  0.1532  0.4295 -0.6481
  138MOL0     C18117   2.599   5.189   1.004  0.1723 -0.4887 -0.0130
  138MOL0     C18118   2.534   5.299   1.067 -0.3596  0.4428  0.6670
  138MOL0     O18119   2.398   5.304   1.054  0.0799 -0.6321  0.3988
  138MOL0     C18120   2.317   5.380   1.134  0.4654  0.2320 -0.7834
  138MOL0     C18121   2.178   5.337   1.108 -0.0250 -0.3088  1.1177
  138MOL0     C18122   2.082   5.412   1.202  0.0130  0.1054  0.3870
  138MOL0     C18123   2.049   5.313   1.317 -0.1137 -0.1006  0.6295
  138MOL0     C18124   1.918   5.354   1.392 -0.3080  0.5113 -0.9211
  138MOL0     C18125   1.810   5.420   1.308  0.6700 -1.2542 -0.3314
  138MOL0     C18126   1.668   5.412   1.378 -0.1032  0.4076 -0.0800
  138MOL0     C18127   1.565   5.478   1.285 -0.0376 -0.2974  0.1992
  138MOL0    Cl18128   1.391   5.454   1.337  0.3411 -0.7837 -0.2951
  138MOL0     C18129   2.614   5.395   1.134 -0.0113 -0.3855  0.5334
  138MOL0     C18130   2.754   5.382   1.130  0.4960 -0.4333 -0.2032
  138MOL0     O18131   2.969   5.467   0.941 -0.0225 -0.4178 -0.3920
  138MOL0     C18132   3.247   5.429   0.923 -0.0750  0.8308 -0.5871
  138MOL0     C18133   3.382   5.399   0.920  0.7359 -1.1406 -0.3558
  138MOL0     N18134   3.882   5.582   0.631 -1.0584 -0.0849  0.6409
  138MOL0     N18135   3.999   5.632   0.611  0.6718  0.6340 -0.3446
  138MOL0     C18136   5.149   5.686   0.931 -0.0564  1.0123 -0.2521
  138MOL0     C18137   5.285   5.713   0.958  0.4590  0.1202 -1.0647
  138MOL0     C18138   5.653   5.948   1.106 -0.5457  0.0794  0.3287
  138MOL0     C18139   5.707   6.036   1.199  0.6065 -0.2630 -0.0679
  138MOL0     C18140   5.842   6.067   1.195  0.2455 -1.0436  0.0529
  138MOL0     C18141   5.925   6.006   1.104 -0.0951 -0.9559  0.6669
  138MOL0     O18142   6.063   6.025   1.120  0.2295  0.3484 -0.8716
  138MOL0     C18143   6.120   5.908   1.174 -0.5570 -0.1560 -1.1481
  138MOL0     C18144   6.188   5.946   1.305 -0.0404 -0.4820  0.4717
  138MOL0     C18145   6.330   6.011   1.300  0.1394  0.8822 -0.3476
  138MOL0     C18146   6.327   6.163   1.265  0.0292 -0.3166  0.0566
  138MOL0     C18147   6.460   6.214   1.274 -0.0972  0.6689  0.2404
  138MOL0     C18148   6.562   6.268   1.249 -0.2182 -0.1494  0.2594
  138MOL0     C18149   5.873   5.921   1.009  0.1513  0.6727  0.3736
  138MOL0     C18150   5.741   5.891   1.004  0.1525 -0.2242  0.0794
  138MOL0     H18151   5.261   6.055   0.979 -1.7435 -0.3356  3.0269
  138MOL0     H18152   5.032   6.017   0.927 -0.0623 -0.0751 -0.8751
  138MOL0     H18153   4.929   5.929   0.773 -0.0153  0.4763  0.6727
  138MOL0     H18154   4.789   5.916   0.872 -1.7585  0.2550 -2.6934
  138MOL0     H18155   4.859   5.733   0.652  0.4517  2.1030 -2.0468
  138MOL0     H18156   4.756   5.867   0.629 -0.1812 -2.0939 -1.7224
  138MOL0     H18157   4.596   5.758   0.811 -0.2921 -1.0303  1.1851
  138MOL0     H18158   4.698   5.631   0.824  2.9027  0.5969  0.0204
  138MOL0     H18159   4.563   5.722   0.550 -0.7587  0.2324  0.5086
  138MOL0     H18160   4.659   5.575   0.574 -0.3971  0.6576 -1.4313
  138MOL0     H18161   4.382   5.655   0.673 -1.4919 -0.9339  3.1867
  138MOL0     H18162   4.463   5.534   0.767 -3.4509 -0.5721 -1.1322
  138MOL0     H18163   4.464   5.373   0.579 -1.3661 -1.6616 -1.0093
  138MOL0     H18164   4.465   5.495   0.453  0.5867  0.6661  0.4584
  138MOL0     H18165   4.258   5.360   0.504  0.2972  0.8122 -2.0133
  138MOL0     H18166   4.241   5.448   0.652 -1.6795 -1.1153 -0.0947
  138MOL0     H18167   4.207   5.556   0.367  3.4530  1.2264 -0.4305
  138MOL0     H18168   4.227   5.674   0.499  2.4696 -0.7664 -2.7838
  138MOL0     H18169   4.010   5.380   0.400 -0.6919  2.6984 -3.0360
  138MOL0     H18170   3.751   5.315   0.455 -0.4936  0.0926 -0.2770
  138MOL0     H18171   3.658   5.457   0.520  1.1754  2.4942 -0.4862
  138MOL0     H18172   3.719   5.390   0.749 -0.2948  1.0564 -1.4170
  138MOL0     H18173   3.829   5.266   0.685  0.6194  0.2591 -0.4850
  138MOL0     H18174   3.530   5.246   0.646 -0.3274 -1.4852 -0.5540
  138MOL0     H18175   3.665   5.134   0.616  0.5398 -1.7024  1.6803
  138MOL0     H18176   3.704   5.107   0.869 -0.5050 -1.1177  0.4089
  138MOL0     H18177   3.554   5.064   0.813  1.1759 -0.4213 -1.1579
  138MOL0     H18178   3.392   5.077   0.986  0.0898  0.7846 -0.3972
  138MOL0     H18179   3.139   5.119   0.994  1.2707 -1.3029 -2.6327
  138MOL0     H18180   2.803   5.113   0.937  2.1132  2.0844 -0.6308
  138MOL0     H18181   2.533   5.109   0.970  0.9020 -0.8604 -0.5892
  138MOL0     H18182   2.328   5.486   1.110 -1.8960  0.2126 -2.3343
  138MOL0     H18183   2.341   5.368   1.240 -0.1995 -0.4530 -0.6956
  138MOL0     H18184   2.173   5.229   1.122 -0.5863 -0.8013 -2.0948
  138MOL0     H18185   2.151   5.358   1.004 -1.9918  1.6155  1.9286
  138MOL0     H18186   1.993   5.448   1.151  0.1310 -0.0135  0.0920
  138MOL0     H18187   2.121   5.498   1.256  0.8511  0.7461 -1.1770
  138MOL0     H18188   2.038   5.210   1.284 -0.9675 -1.3054  4.2564
  138MOL0     H18189   2.139   5.321   1.378  0.5255  1.8721 -0.4725
  138MOL0     H18190   1.951   5.412   1.479  0.3484 -0.9991 -0.1327
  138MOL0     H18191   1.877   5.270   1.447  3.7812 -1.1745 -0.0832
  138MOL0     H18192   1.795   5.370   1.212 -0.9562 -0.2497 -0.6529
  138MOL0     H18193   1.840   5.523   1.286  0.3174 -1.0832 -0.0273
  138MOL0     H18194   1.640   5.306   1.383  1.8936 -0.1224  3.4442
  138MOL0     H18195   1.683   5.438   1.483  3.7004 -1.7519  0.1303
  138MOL0     H18196   1.574   5.429   1.188 -0.3012  3.3642 -1.8577
  138MOL0     H18197   1.583   5.586   1.288  0.4977 -0.2470 -2.7213
  138MOL0     H18198   2.579   5.485   1.185  0.0572  1.2491 -2.0956
  138MOL0     H18199   2.810   5.448   1.195  1.4879 -1.6806  0.2306
  138MOL0     H18200   3.221   5.533   0.902  1.3410  0.7308 -3.3161
  138MOL0     H18201   3.444   5.483   0.891 -1.0078  1.1574  2.0481
  138MOL0     H18202   5.112   5.584   0.934 -0.4267  1.1741  1.2172
  138MOL0     H18203   5.354   5.631   0.973  1.6005  1.6586  3.8345
  138MOL0     H18204   5.642   6.092   1.265  2.1524 -1.1127  2.2959
  138MOL0     H18205   5.896   6.128   1.267  0.3268 -3.9123  2.6272
  138MOL0     H18206   6.179   5.867   1.092 -0.4614 -2.5301  0.0226
  138MOL0     H18207   6.039   5.840   1.203 -1.7524  1.8408  0.5298
  138MOL0     H18208   6.119   6.014   1.357  0.3622  0.9223 -0.7473
  138MOL0     H18209   6.203   5.862   1.373  2.6633 -1.2656 -0.9630
  138MOL0     H18210   6.393   5.962   1.225  0.6701 -1.8014  1.6746
  138MOL0     H18211   6.376   5.999   1.399 -0.0333 -0.3418 -0.3938
  138MOL0     H18212   6.294   6.179   1.162 -0.0807 -1.3035 -0.0698
  138MOL0     H18213   6.264   6.223   1.330  1.4461  1.2432  0.0491
  138MOL0     H18214   6.654   6.312   1.216 -1.5385  1.1572 -1.9239
  138MOL0     H18215   5.925   5.852   0.944 -1.5885 -0.2263 -0.1107
  138MOL0     H18216   5.706   5.836   0.918  2.1543  0.4472 -1.2250
  139MOL0     O18217   8.166   8.274   6.292 -0.4387 -0.0545 -0.0130
  139MOL0     C18218   8.237   8.369   6.320  0.2255  0.3504  0.4116
  139MOL0     O18219   8.196   8.489   6.364  0.1734 -0.2330 -0.2970
  139MOL0     C18220   8.068   8.529   6.343  0.1610  0.2429 -0.5456
  139MOL0     C18221   8.009   8.608   6.449  0.5733 -0.2835 -0.0450
  139MOL0     C18222   7.878   8.665   6.451 -0.5219  0.7674 -0.7803
  139MOL0     C18223   7.801   8.633   6.341 -0.8041  0.9056  0.3402
  139MOL0     O18224   7.672   8.674   6.345 -0.9711 -0.3098  0.5544
  139MOL0     C18225   7.587   8.680   6.229 -0.0862  1.3116 -0.0127
  139MOL0     C18226   7.455   8.753   6.264 -0.0552 -0.5638  0.4217
  139MOL0     C18227   7.358   8.662   6.335  0.1608  0.9321 -0.5463
  139MOL0     C18228   7.222   8.746   6.352  0.0216 -0.1078  0.1335
  139MOL0     C18229   7.133   8.698   6.464  0.5875 -0.3215  0.3645
  139MOL0     C18230   7.014   8.792   6.503  0.3062  0.1609 -0.8625
  139MOL0     C18231   6.919   8.740   6.614 -0.1216 -0.3689  0.1140
  139MOL0     C18232   6.803   8.837   6.631  0.0308 -1.3133 -0.0104
  139MOL0     N18233   6.816   8.902   6.764 -0.5651  0.1268 -0.6748
  139MOL0     C18234   6.713   8.924   6.855  0.3148  0.1351  0.5987
  139MOL0     C18235   6.765   8.998   6.945  0.1342  0.5913 -1.7356
  139MOL0     C18236   6.706   9.054   7.071  0.0687  0.1155 -0.4355
  139MOL0     C18237   6.685   9.203   7.066  0.4911  0.5758 -0.1082
  139MOL0     C18238   6.563   9.244   6.989  0.2251  0.0473 -1.3057
  139MOL0     C18239   6.521   9.385   7.035  0.1992 -0.3087  0.2332
  139MOL0     O18240   6.413   9.431   6.952 -0.5952 -0.3652 -0.4638
  139MOL0     C18241   6.285   9.424   7.000 -1.1207  0.8192 -0.3245
  139MOL0     C18242   6.241   9.354   7.112  0.1259  0.2236  0.1451
  139MOL0     C18243   6.106   9.385   7.154 -0.6755  0.4871 -0.1967
  139MOL0     C18244   6.024   9.474   7.082 -0.4007  0.0023  0.3576
  139MOL0     C18245   5.897   9.517   7.134 -0.1446  0.3331 -0.1740
  139MOL0     O18246   5.820   9.596   7.046 -0.1887 -0.5455 -0.5803
  139MOL0     C18247   5.699   9.636   7.091 -0.0645 -1.1005  0.4573
  139MOL0     C18248   5.599   9.556   7.152  0.6351  0.1056  0.6333
  139MOL0     C18249   5.475   9.617   7.185  0.1427  0.9378  0.5966
  139MOL0     C18250   5.445   9.749   7.155 -0.3118  0.1905 -0.5485
  139MOL0     O18251   5.328   9.796   7.212  0.0783 -0.7751  0.3986
  139MOL0     C18252   5.296   9.933   7.177  0.1704 -0.3842  0.3364
  139MOL0     C18253   5.167   9.987   7.233 -1.0574 -0.1473 -0.4038
  139MOL0     C18254   5.052   9.889   7.215  0.3361  0.1487  0.1738
  139MOL0     C18255   4.926   9.944   7.282 -0.1025  0.7902  0.7916
  139MOL0     C18256   4.827   9.833   7.307 -0.3082 -0.7371 -0.6751
  139MOL0     C18257   4.717   9.879   7.412 -0.3728 -0.6534 -0.1795
  139MOL0     C18258   4.596   9.784   7.397  0.4583  0.0800 -0.8158
  139MOL0     C18259   4.505   9.842   7.289  0.2404  0.6014 -0.4541
  139MOL0    Cl18260   4.356   9.743   7.251 -0.2865 -0.1370  0.2289
  139MOL0     C18261   5.544   9.825   7.090  0.8396  0.3660  0.8449
  139MOL0     C18262   5.668   9.773   7.063  0.0389  0.2801  0.6169
  139MOL0     O18263   5.869   9.491   7.255 -0.0423 -0.4016 -0.5148
  139MOL0     C18264   6.077   9.529   6.961  0.2027 -0.2591  0.0165
  139MOL0     C18265   6.207   9.508   6.922 -0.1659  0.5032  0.5585
  139MOL0     N18266   6.900   9.014   6.922 -0.2040  0.0857 -0.3055
  139MOL0     N18267   6.931   8.955   6.812 -0.0881  0.4567 -1.0410
  139MOL0     C18268   7.847   8.539   6.242  0.4773  0.0709  0.5065
  139MOL0     C18269   7.977   8.492   6.248  0.1430 -1.2174  0.5493
  139MOL0     C18270   8.381   8.354   6.308  0.8013 -0.4734  0.7697
  139MOL0     C18271   8.436   8.260   6.220  0.6302  0.8430  0.0438
  139MOL0     C18272   8.568   8.240   6.197 -0.0579 -0.1200 -0.5143
  139MOL0     C18273   8.664   8.326   6.257  0.0985  0.0394 -0.6357
  139MOL0     O18274   8.794   8.276   6.248  0.0453 -0.9832 -0.3249
  139MOL0     C18275   8.909   8.357   6.273 -0.3674 -0.1886  0.1114
  139MOL0     C18276   9.006   8.280   6.382  0.7584 -0.0956 -0.2142
  139MOL0     C18277   9.043   8.136   6.355  0.5180  0.7305  0.6429
  139MOL0     C18278   9.131   8.127   6.227  0.1425  0.5242 -0.1272
  139MOL0     C18279   9.260   8.183   6.247  0.1343 -0.1960  0.0348
  139MOL0     C18280   9.368   8.228   6.270  0.4846 -0.2069  0.2072
  139MOL0     C18281   8.614   8.426   6.332  0.0604 -0.2023 -0.6668
  139MOL0     C18282   8.477   8.440   6.356  0.6452 -0.6231  0.3450
  139MOL0     H18283   8.085   8.635   6.522  1.9466  2.3835 -2.2653
  139MOL0     H18284   7.847   8.729   6.534  2.9182  0.3453  0.9727
  139MOL0     H18285   7.551   8.579   6.207  1.2254  0.4906  1.4123
  139MOL0     H18286   7.645   8.714   6.143  0.4349  0.8226  0.1400
  139MOL0     H18287   7.409   8.786   6.170 -1.8704  2.1109  2.1157
  139MOL0     H18288   7.481   8.846   6.315  3.6546 -0.1193 -1.8373
  139MOL0     H18289   7.403   8.631   6.430  0.8645  0.5740 -0.9846
  139MOL0     H18290   7.340   8.577   6.268 -0.0237  1.0409 -0.6347
  139MOL0     H18291   7.253   8.849   6.372  2.8633 -0.6474 -1.0391
  139MOL0     H18292   7.160   8.740   6.262  0.8819  3.7532 -0.9034
  139MOL0     H18293   7.198   8.687   6.551 -1.6848 -3.0857  1.8987
  139MOL0     H18294   7.095   8.597   6.442  2.5693 -1.0116 -0.1030
  139MOL0     H18295   6.962   8.820   6.411 -1.5213  3.3101  0.9426
  139MOL0     H18296   7.055   8.888   6.537 -1.0739  0.5723 -0.3031
  139MOL0     H18297   6.875   8.643   6.588 -1.6137  0.6038 -1.1904
  139MOL0     H18298   6.978   8.718   6.703 -1.3028 -0.0332  1.0028
  139MOL0     H18299   6.705   8.789   6.638 -1.5742  1.7548  0.3075
  139MOL0     H18300   6.804   8.915   6.553  0.1605 -0.9357  0.3647
  139MOL0     H18301   6.609   8.894   6.853 -0.6581  2.4700  4.6638
  139MOL0     H18302   6.769   9.040   7.161  0.9510 -0.8060 -1.1677
  139MOL0     H18303   6.613   8.998   7.079  0.6371 -0.7664  0.3698
  139MOL0     H18304   6.767   9.257   7.020  2.1676 -0.1503  1.8457
  139MOL0     H18305   6.666   9.248   7.164 -2.3603  3.1962 -1.6998
  139MOL0     H18306   6.571   9.240   6.880  0.3069 -1.3798 -1.2597
  139MOL0     H18307   6.482   9.176   7.017  0.1403  1.0922  1.2758
  139MOL0     H18308   6.601   9.461   7.030 -0.3256  0.3936  1.7698
  139MOL0     H18309   6.500   9.386   7.143  3.3434  0.8888  0.9646
  139MOL0     H18310   6.307   9.297   7.176  1.7445  2.2032  0.3460
  139MOL0     H18311   6.086   9.349   7.254 -0.3447  0.4676 -0.1364
  139MOL0     H18312   5.618   9.457   7.191  0.4256  0.4565  1.6681
  139MOL0     H18313   5.396   9.565   7.237 -0.2457 -1.2176 -1.9520
  139MOL0     H18314   5.290   9.942   7.068  2.6811 -0.4155  0.1348
  139MOL0     H18315   5.370  10.004   7.212  0.4219 -0.1961 -0.5449
  139MOL0     H18316   5.147  10.085   7.189 -2.5972 -0.0231  0.4778
  139MOL0     H18317   5.192   9.990   7.339  3.4557  1.4006 -1.2930
  139MOL0     H18318   5.084   9.797   7.265  2.7158  0.5041 -0.5691
  139MOL0     H18319   5.024   9.867   7.112  0.4069 -0.2033  0.2289
  139MOL0     H18320   4.961   9.972   7.382  1.8808 -2.0397  0.9890
  139MOL0     H18321   4.871  10.023   7.229 -1.9336  0.3394  1.9195
  139MOL0     H18322   4.872   9.739   7.342  1.2841  0.0927 -0.4306
  139MOL0     H18323   4.781   9.810   7.211 -1.0947  1.9165 -0.9984
  139MOL0     H18324   4.682   9.981   7.392  0.7093 -0.6752 -2.5632
  139MOL0     H18325   4.750   9.879   7.516 -0.5215  5.7701  0.2858
  139MOL0     H18326   4.623   9.681   7.371  0.2962  0.6670 -3.5677
  139MOL0     H18327   4.551   9.771   7.496 -0.3633 -2.7037 -1.4538
  139MOL0     H18328   4.555   9.848   7.192 -2.0031  1.1538 -1.6437
  139MOL0     H18329   4.483   9.943   7.324  1.9323 -0.1823  3.3429
  139MOL0     H18330   5.530   9.932   7.072  1.1068  0.5272  1.5697
  139MOL0     H18331   5.743   9.840   7.022 -1.2503 -0.2236 -2.9255
  139MOL0     H18332   6.023   9.607   6.908  1.9273  0.8698 -0.1472
  139MOL0     H18333   6.248   9.565   6.840 -0.6933 -1.1712 -0.9292
  139MOL0     H18334   7.786   8.511   6.157  0.2138  1.6046  0.1457
  139MOL0     H18335   8.008   8.411   6.182 -0.7342 -1.1048 -0.0305
  139MOL0     H18336   8.373   8.185   6.170  0.7191  0.3028  0.7282
  139MOL0     H18337   8.601   8.156   6.138  1.9565  0.4655 -0.2826
  139MOL0     H18338   8.882   8.454   6.316  1.3133 -0.4556  1.9328
  139MOL0     H18339   8.959   8.386   6.181  0.0762  1.4963  0.8489
  139MOL0     H18340   9.101   8.332   6.394  2.1651 -2.0256 -2.1393
  139MOL0     H18341   8.942   8.279   6.471 -1.5838 -0.8424 -1.7984
  139MOL0     H18342   8.944   8.093   6.335 -0.1949  1.9705  1.4211
  139MOL0     H18343   9.099   8.084   6.433  2.3354 -0.2887 -1.2144
  139MOL0     H18344   9.141   8.024   6.192  0.5430  0.9362 -1.2840
  139MOL0     H18345   9.073   8.182   6.152 -2.1592 -0.5498  0.7732
  139MOL0     H18346   9.460   8.276   6.295  1.2468 -2.0604  1.2305
  139MOL0     H18347   8.668   8.496   6.395  0.4522 -2.7135  2.0285
  139MOL0     H18348   8.446   8.519   6.424  0.0798  0.3148 -0.9642
  140MOL0     O18349   1.835   0.710  11.219  0.5549  0.0127  0.0511
  140MOL0     C18350   1.824   0.755  11.101 -0.3178  0.2144  0.1967
  140MOL0     O18351   1.711   0.773  11.030 -0.3637  0.5463  0.3724
  140MOL0     C18352   1.599   0.717  11.088 -0.1600 -0.8786  0.4063
  140MOL0     C18353   1.583   0.585  11.124 -0.5972  0.6448 -0.0107
  140MOL0     C18354   1.459   0.532  11.171 -0.1308  0.0772 -0.5775
  140MOL0     C18355   1.353   0.618  11.189  0.7451 -0.6181  0.2541
  140MOL0     O18356   1.235   0.564  11.247 -0.2190 -0.1834  0.1588
  140MOL0     C18357   1.117   0.645  11.245  0.6294  0.5344  0.0888
  140MOL0     C18358   1.001   0.556  11.283 -0.3100  0.5655  0.4348
  140MOL0     C18359   0.950   0.572  11.430  0.2780  0.4320 -0.8782
  140MOL0     C18360   0.832   0.488  11.463 -1.1713 -0.5606  0.4834
  140MOL0     C18361   0.765   0.530  11.600 -0.9522 -0.0177  0.5692
  140MOL0     C18362   0.679   0.405  11.636  0.6852  0.0825 -0.1779
  140MOL0     C18363   0.608   0.436  11.777  0.7624  0.1249 -0.2240
  140MOL0     C18364   0.554   0.301  11.845 -0.8563 -0.4709 -0.4589
  140MOL0     N18365   0.441   0.248  11.775  0.7763 -0.5602 -0.0350
  140MOL0     C18366   0.422   0.110  11.757 -0.5273 -0.7931 -0.2854
  140MOL0     C18367   0.297   0.101  11.711  0.7740  0.7405 -0.5355
  140MOL0     C18368   0.220  -0.020  11.695  0.8316  0.3827  0.2657
  140MOL0     C18369   0.204  -0.047  11.544  0.5298  0.4163 -0.4164
  140MOL0     C18370   0.336  -0.078  11.480  0.8126  0.1984 -0.3041
  140MOL0     C18371   0.306  -0.135  11.342 -0.9141  0.2293  0.3057
  140MOL0     O18372   0.246  -0.029  11.266  0.3170  0.3901 -0.0848
  140MOL0     C18373   0.135  -0.069  11.197  0.5557  0.2177 -0.2951
  140MOL0     C18374   0.010  -0.072  11.259 -0.0261  0.5703 -0.1477
  140MOL0     C18375  -0.110  -0.081  11.181  0.2878 -0.1822 -0.6402
  140MOL0     C18376  -0.100  -0.110  11.042 -0.8271 -1.2876  0.8249
  140MOL0     C18377  -0.218  -0.137  10.954 -0.8604  0.6634 -0.1277
  140MOL0     O18378  -0.306  -0.030  10.951 -0.0425  0.4767  0.2700
  140MOL0     C18379  -0.402  -0.047  10.847  0.3441 -0.3796  0.5083
  140MOL0     C18380  -0.533  -0.008  10.871  0.3126  0.9113  0.3607
  140MOL0     C18381  -0.622   0.004  10.762  0.3528  0.0345 -0.3705
  140MOL0     C18382  -0.592  -0.038  10.635 -0.7962  0.1007 -0.3878
  140MOL0     O18383  -0.687  -0.023  10.538  1.1207  0.2440 -0.1285
  140MOL0     C18384  -0.670  -0.083  10.406  0.1885 -0.8335  0.0752
  140MOL0     C18385  -0.791  -0.062  10.308 -0.7265  0.4508  0.1256
  140MOL0     C18386  -0.768  -0.155  10.184  0.3141 -0.5657 -0.1260
  140MOL0     C18387  -0.638  -0.148  10.105 -0.1033  0.9415  0.5162
  140MOL0     C18388  -0.667  -0.143   9.961  0.1151 -0.3027  0.3062
  140MOL0     C18389  -0.552  -0.199   9.881 -0.0428  0.1772 -0.7859
  140MOL0     C18390  -0.570  -0.191   9.723 -0.1513  0.0314 -0.5756
  140MOL0     C18391  -0.448  -0.241   9.654 -0.5434  1.0155 -0.3616
  140MOL0    Cl18392  -0.305  -0.159   9.721 -0.4721 -0.4067  0.0852
  140MOL0     C18393  -0.459  -0.081  10.610 -0.3908  0.4498 -0.8373
  140MOL0     C18394  -0.367  -0.080  10.712  0.9970  0.5216 -0.2262
  140MOL0     O18395  -0.227  -0.246  10.902 -0.0347 -0.3897  0.2559
  140MOL0     C18396   0.030  -0.104  10.987 -0.3699  0.1815 -0.0759
  140MOL0     C18397   0.139  -0.066  11.062 -0.0379  0.4538  0.6620
  140MOL0     N18398   0.249   0.222  11.683 -0.6104  0.3646  1.0210
  140MOL0     N18399   0.329   0.314  11.724  0.9364 -0.2835  0.1364
  140MOL0     C18400   1.370   0.750  11.145 -0.4286 -0.5606  0.3130
  140MOL0     C18401   1.489   0.796  11.084  0.9602 -0.3066  0.2846
  140MOL0     C18402   1.945   0.798  11.037 -0.5222  0.2977 -0.3383
  140MOL0     C18403   2.069   0.777  11.095  0.3093  0.1802 -0.1510
  140MOL0     C18404   2.176   0.831  11.032 -0.1681 -0.9454  0.9408
  140MOL0     C18405   2.171   0.899  10.905 -0.1071 -0.1396  0.0906
  140MOL0     O18406   2.275   0.946  10.825  0.0653  0.5337 -0.4309
  140MOL0     C18407   2.402   0.982  10.875 -0.1387  0.4008  0.1701
  140MOL0     C18408   2.400   1.129  10.914 -0.3065  0.5760 -0.3330
  140MOL0     C18409   2.549   1.184  10.932 -0.6397  0.0473  0.2298
  140MOL0     C18410   2.622   1.104  11.044  0.4737 -0.4286  0.1737
  140MOL0     C18411   2.762   1.155  11.053  0.9394 -0.1677  0.3057
  140MOL0     C18412   2.877   1.193  11.059  0.2110 -0.5604  0.6006
  140MOL0     C18413   2.048   0.911  10.849  0.2046  0.4699 -0.0460
  140MOL0     C18414   1.935   0.859  10.911 -0.1876  0.5667  0.0156
  140MOL0     H18415   1.665   0.515  11.119  0.1133  1.4225  0.5398
  140MOL0     H18416   1.449   0.436  11.221 -4.0663  0.7115  0.1823
  140MOL0     H18417   1.090   0.681  11.146 -0.6452  2.2008  0.9940
  140MOL0     H18418   1.127   0.726  11.317 -0.7610 -2.1083  3.5989
  140MOL0     H18419   1.017   0.450  11.262 -5.1441 -0.5052  0.8431
  140MOL0     H18420   0.920   0.596  11.221 -0.2997  1.3205  0.8980
  140MOL0     H18421   0.936   0.674  11.465  1.9303  0.6127 -0.6566
  140MOL0     H18422   1.029   0.531  11.493 -1.7092 -0.4135  1.1779
  140MOL0     H18423   0.759   0.506  11.383 -2.3859  1.5454  1.9595
  140MOL0     H18424   0.870   0.385  11.467  1.6054  0.4073  1.3569
  140MOL0     H18425   0.694   0.613  11.598 -0.8859  0.0531 -1.4466
  140MOL0     H18426   0.847   0.542  11.671  0.8231 -3.7675 -0.5586
  140MOL0     H18427   0.730   0.310  11.655 -1.2049 -1.7209 -3.1661
  140MOL0     H18428   0.598   0.388  11.564 -1.4059  0.8280  1.8573
  140MOL0     H18429   0.679   0.473  11.851  1.1783 -1.1844  0.0497
  140MOL0     H18430   0.531   0.514  11.771  0.5651 -0.0775 -0.3522
  140MOL0     H18431   0.521   0.327  11.946  0.5834  1.3421 -0.4119
  140MOL0     H18432   0.637   0.231  11.849 -0.5022 -0.0624 -0.5947
  140MOL0     H18433   0.484   0.026  11.787 -0.7915 -1.7627 -2.2921
  140MOL0     H18434   0.120  -0.006  11.737  0.2892 -1.4995 -0.2961
  140MOL0     H18435   0.256  -0.107  11.753 -2.3969 -1.2953 -0.0313
  140MOL0     H18436   0.146   0.031  11.495 -0.2034  0.0924 -0.0870
  140MOL0     H18437   0.135  -0.132  11.550  0.2720  0.7055  1.5437
  140MOL0     H18438   0.404   0.005  11.499  0.1021  0.4423  1.4007
  140MOL0     H18439   0.383  -0.166  11.524  0.7182  0.5700  0.5754
  140MOL0     H18440   0.240  -0.222  11.349 -1.7912  0.2949 -4.1166
  140MOL0     H18441   0.397  -0.165  11.290 -0.8719 -2.8405  1.9348
  140MOL0     H18442   0.006  -0.063  11.367 -0.3102  4.7602 -0.3470
  140MOL0     H18443  -0.203  -0.091  11.236 -0.0856  0.7636 -1.0736
  140MOL0     H18444  -0.546   0.006  10.978  0.3100 -2.4782  0.9127
  140MOL0     H18445  -0.723   0.038  10.785  0.1184 -1.1970  0.5412
  140MOL0     H18446  -0.649  -0.190  10.420  3.0816 -0.1373  1.6918
  140MOL0     H18447  -0.576  -0.039  10.375  0.5288 -1.0240  0.8040
  140MOL0     H18448  -0.790   0.044  10.281  0.7941  0.1710 -1.0048
  140MOL0     H18449  -0.884  -0.083  10.362  0.2987 -0.5272  1.5829
  140MOL0     H18450  -0.846  -0.121  10.115  0.2724  3.9559  1.7984
  140MOL0     H18451  -0.792  -0.258  10.213 -2.4373  0.1934  0.6418
  140MOL0     H18452  -0.583  -0.057  10.127  2.8116 -0.7615  0.7164
  140MOL0     H18453  -0.572  -0.229  10.137  2.2664  2.0856 -1.1348
  140MOL0     H18454  -0.690  -0.042   9.926 -2.8845 -0.6052  1.1441
  140MOL0     H18455  -0.752  -0.204   9.931  1.5662 -2.0088 -0.5104
  140MOL0     H18456  -0.537  -0.304   9.910 -1.0996  0.0446 -0.6732
  140MOL0     H18457  -0.461  -0.143   9.902 -0.9426  1.3053  0.2546
  140MOL0     H18458  -0.657  -0.248   9.687 -0.8940 -0.6819  2.1423
  140MOL0     H18459  -0.577  -0.086   9.693 -4.5448 -0.3957 -1.8447
  140MOL0     H18460  -0.450  -0.230   9.545  2.0177  0.4912 -0.5343
  140MOL0     H18461  -0.445  -0.350   9.670 -0.5455  0.7702 -1.9052
  140MOL0     H18462  -0.436  -0.126  10.514  0.7264  1.0389 -0.8628
  140MOL0     H18463  -0.265  -0.110  10.689  1.5299  1.4190  0.8575
  140MOL0     H18464   0.032  -0.126  10.881  0.9392 -0.3927  0.0519
  140MOL0     H18465   0.225  -0.049  10.998 -1.9476 -2.0302 -2.9071
  140MOL0     H18466   1.281   0.812  11.138 -1.4191 -1.9342  0.2449
  140MOL0     H18467   1.513   0.895  11.045  0.5394 -0.2535  0.1508
  140MOL0     H18468   2.085   0.729  11.191  1.8527  2.2273  0.6889
  140MOL0     H18469   2.267   0.816  11.089  0.9065 -0.0829 -0.4603
  140MOL0     H18470   2.470   0.963  10.792  0.6146 -0.9832  1.0635
  140MOL0     H18471   2.432   0.920  10.960 -0.9808  2.0190  1.7233
  140MOL0     H18472   2.346   1.191  10.841 -0.9564  0.0425 -0.3099
  140MOL0     H18473   2.338   1.125  11.004  2.7241  2.0174  2.0404
  140MOL0     H18474   2.554   1.288  10.965 -1.3752  0.6930 -1.5552
  140MOL0     H18475   2.608   1.178  10.840 -0.4349 -0.6638  0.4017
  140MOL0     H18476   2.576   1.113  11.143  1.0946  4.4931  0.2415
  140MOL0     H18477   2.626   1.000  11.009 -2.0115 -0.2042 -1.0180
  140MOL0     H18478   2.973   1.232  11.031 -0.7093 -0.1688 -2.3470
  140MOL0     H18479   2.047   0.952  10.748  2.1549 -0.4398 -0.4789
  140MOL0     H18480   1.843   0.866  10.854  0.1930 -1.5488 -0.9552
  141MOL0     O18481   2.088   6.486   4.188 -0.2046 -1.2353  0.0544
  141MOL0     C18482   1.977   6.534   4.157  0.2691  0.2338  0.0206
  141MOL0     O18483   1.958   6.665   4.115  0.8378 -0.2749 -0.2331
  141MOL0     C18484   2.052   6.761   4.136  0.6811 -0.0879  0.4623
  141MOL0     C18485   2.114   6.780   4.266  0.6239 -0.6118  0.1226
  141MOL0     C18486   2.212   6.878   4.276 -0.0367 -0.5802  0.0317
  141MOL0     C18487   2.246   6.957   4.172 -0.1631  0.0730 -0.4932
  141MOL0     O18488   2.351   7.051   4.178  0.5098  0.2685 -0.3257
  141MOL0     C18489   2.433   7.074   4.061 -0.0434 -0.4570  0.1774
  141MOL0     C18490   2.562   7.149   4.107  1.1990  0.2814 -0.8007
  141MOL0     C18491   2.657   7.074   4.193  0.3581  0.6822 -0.6139
  141MOL0     C18492   2.775   7.167   4.237  0.2211 -0.4197 -0.0992
  141MOL0     C18493   2.863   7.123   4.352  0.4621  0.0287 -0.4499
  141MOL0     C18494   2.924   6.985   4.323 -0.7369 -0.5120 -0.1675
  141MOL0     C18495   3.023   6.951   4.428  0.0521 -0.2132  0.1478
  141MOL0     C18496   3.165   7.016   4.426  0.7469  0.2310  1.5962
  141MOL0     N18497   3.225   7.023   4.289  0.0780  0.4030 -1.0777
  141MOL0     C18498   3.306   6.921   4.239 -0.1558 -0.1484 -1.2676
  141MOL0     C18499   3.343   6.954   4.116  0.1320 -1.0939  0.4358
  141MOL0     C18500   3.467   6.904   4.051  0.1125 -0.3284  0.1371
  141MOL0     C18501   3.579   7.004   4.033 -0.5827  0.8655  1.5080
  141MOL0     C18502   3.681   6.924   3.956 -0.4706 -0.8124  0.6714
  141MOL0     C18503   3.815   6.999   3.952  0.2141  0.0860  0.6696
  141MOL0     O18504   3.879   6.942   3.835  0.3506 -0.0514 -0.2452
  141MOL0     C18505   3.976   6.846   3.852  0.9623  0.0505 -0.4048
  141MOL0     C18506   4.036   6.796   3.737  0.2684 -0.3275 -0.0041
  141MOL0     C18507   4.136   6.708   3.745  0.0650 -0.5360 -0.5347
  141MOL0     C18508   4.185   6.670   3.867  0.1278 -0.1640 -1.0588
  141MOL0     C18509   4.297   6.581   3.873 -0.5609  0.2367  0.2935
  141MOL0     O18510   4.344   6.540   3.753 -0.2012 -0.1914 -0.3346
  141MOL0     C18511   4.457   6.475   3.729 -0.7397  0.3952 -0.4004
  141MOL0     C18512   4.468   6.420   3.603  0.4537 -0.6222 -0.0416
  141MOL0     C18513   4.574   6.343   3.553 -0.1511  0.4416  0.7325
  141MOL0     C18514   4.687   6.335   3.635 -0.4600 -1.0996 -0.9227
  141MOL0     O18515   4.803   6.270   3.588 -0.0977  0.1083  0.3197
  141MOL0     C18516   4.778   6.128   3.569 -0.1266  0.6475 -0.1586
  141MOL0     C18517   4.905   6.054   3.526 -0.3488  0.2075 -0.0463
  141MOL0     C18518   4.883   5.904   3.564  0.2043 -0.0862  0.1185
  141MOL0     C18519   5.001   5.824   3.513  0.2005  0.2041  0.2289
  141MOL0     C18520   4.999   5.675   3.553 -0.0855  0.6410 -0.3758
  141MOL0     C18521   4.895   5.583   3.512  0.7439 -0.1025  0.2041
  141MOL0     C18522   4.924   5.536   3.375  0.4127 -0.0899  0.8956
  141MOL0     C18523   4.844   5.415   3.329  0.9031 -0.2066 -0.2089
  141MOL0    Cl18524   4.917   5.358   3.170  0.3092 -0.3050  0.0479
  141MOL0     C18525   4.689   6.401   3.763 -0.4239  0.0948  0.9348
  141MOL0     C18526   4.573   6.467   3.806  0.0220  0.4378  0.5274
  141MOL0     O18527   4.352   6.547   3.985  0.4781  0.1733 -0.0283
  141MOL0     C18528   4.124   6.715   3.991  0.3827 -0.5058  0.4679
  141MOL0     C18529   4.007   6.791   3.976 -0.1586 -0.1559 -0.2363
  141MOL0     N18530   3.280   7.075   4.094 -1.0329 -0.3700  0.1847
  141MOL0     N18531   3.208   7.110   4.194  0.2280  0.2064  0.1033
  141MOL0     C18532   2.177   6.946   4.054 -1.0394 -0.5578  0.0681
  141MOL0     C18533   2.088   6.845   4.030  0.7508  0.5038 -0.2760
  141MOL0     C18534   1.861   6.442   4.131 -0.0092  0.0811  1.1319
  141MOL0     C18535   1.884   6.310   4.152  0.8691  0.2431 -0.2967
  141MOL0     C18536   1.787   6.209   4.110  0.8713 -0.7904 -0.3024
  141MOL0     C18537   1.665   6.243   4.045 -0.5668 -0.4895 -0.9416
  141MOL0     O18538   1.570   6.158   4.001  0.1029  0.0100  0.2174
  141MOL0     C18539   1.595   6.016   4.020 -0.5280  0.3037 -0.0127
  141MOL0     C18540   1.479   5.939   3.956 -0.7979 -0.5966  0.9700
  141MOL0     C18541   1.462   5.795   4.013  0.7255 -0.3309  0.5692
  141MOL0     C18542   1.551   5.679   3.960  0.6405 -0.5274 -0.5406
  141MOL0     C18543   1.693   5.703   3.989  0.2626  0.7949 -0.3768
  141MOL0     C18544   1.805   5.729   4.026  0.3784 -0.1502  0.3069
  141MOL0     C18545   1.654   6.377   4.016 -0.5860  0.1314  0.3844
  141MOL0     C18546   1.748   6.473   4.057 -0.6285  0.3969  0.3920
  141MOL0     H18547   2.090   6.708   4.344 -2.8424 -1.4531 -1.5342
  141MOL0     H18548   2.264   6.895   4.370 -2.0545  1.1569  0.9253
  141MOL0     H18549   2.388   7.138   3.985  0.7673 -2.4757 -2.1193
  141MOL0     H18550   2.450   6.988   3.996 -1.0997  0.4871 -1.4089
  141MOL0     H18551   2.523   7.239   4.154  0.4768  0.7698 -2.2690
  141MOL0     H18552   2.615   7.189   4.020  0.3546 -1.0058 -1.9509
  141MOL0     H18553   2.701   6.993   4.134  3.1170  3.0163 -1.9943
  141MOL0     H18554   2.605   7.020   4.274  0.6640 -0.5482 -1.2101
  141MOL0     H18555   2.832   7.192   4.147 -0.5414 -2.4213 -1.2059
  141MOL0     H18556   2.721   7.252   4.280  0.3790 -0.7948  0.8708
  141MOL0     H18557   2.799   7.118   4.440 -1.1967 -1.8596 -1.6717
  141MOL0     H18558   2.946   7.194   4.361  0.1765  0.3753 -0.5268
  141MOL0     H18559   2.980   6.987   4.229  0.7522  0.1097  0.6981
  141MOL0     H18560   2.846   6.909   4.316  0.3749 -1.8762  1.5569
  141MOL0     H18561   2.978   6.941   4.527  0.2333  2.1041  0.5183
  141MOL0     H18562   3.041   6.846   4.407 -3.7489 -1.0710  0.3693
  141MOL0     H18563   3.227   6.971   4.504 -1.0618 -3.0122  1.3356
  141MOL0     H18564   3.155   7.124   4.437  1.5865  0.4546  0.3360
  141MOL0     H18565   3.347   6.839   4.298 -0.0125  1.5318  1.1061
  141MOL0     H18566   3.441   6.861   3.954 -0.5698 -0.0641  0.1961
  141MOL0     H18567   3.493   6.813   4.105 -0.8402 -0.0729  1.0496
  141MOL0     H18568   3.624   7.045   4.123  0.4127  1.0855  0.9251
  141MOL0     H18569   3.551   7.087   3.967  1.6887 -0.3831 -1.2834
  141MOL0     H18570   3.700   6.821   3.986  1.0503 -0.8107 -0.2035
  141MOL0     H18571   3.645   6.925   3.852  0.1594 -1.4815  0.4370
  141MOL0     H18572   3.866   7.006   4.048  0.4289  1.9855  0.4592
  141MOL0     H18573   3.799   7.104   3.929 -1.2977 -0.1852  0.3732
  141MOL0     H18574   4.007   6.835   3.639 -0.2603 -2.7459 -0.8720
  141MOL0     H18575   4.167   6.673   3.647  1.8983 -0.0585 -0.1687
  141MOL0     H18576   4.379   6.438   3.544  0.9315  0.3031 -0.4886
  141MOL0     H18577   4.579   6.295   3.455  1.4596  4.0608 -1.1621
  141MOL0     H18578   4.697   6.110   3.499 -0.3249 -1.7091  0.6016
  141MOL0     H18579   4.740   6.079   3.659  0.0648 -0.0459 -0.4550
  141MOL0     H18580   4.980   6.097   3.593  0.4471 -0.8277 -0.2430
  141MOL0     H18581   4.927   6.080   3.422  5.6094 -0.2442  0.7336
  141MOL0     H18582   4.792   5.872   3.513  0.3558 -1.1809  0.5006
  141MOL0     H18583   4.881   5.883   3.672  1.6118 -1.1189 -0.0309
  141MOL0     H18584   5.011   5.833   3.404  3.0709  1.2995  0.4764
  141MOL0     H18585   5.091   5.870   3.556  0.9366  0.4167 -1.4569
  141MOL0     H18586   4.985   5.677   3.661 -0.4558 -0.1190 -0.4025
  141MOL0     H18587   5.094   5.621   3.546 -1.1046 -1.1618 -1.0462
  141MOL0     H18588   4.794   5.626   3.504  1.7703  2.3427 -0.7250
  141MOL0     H18589   4.905   5.497   3.578  0.3295 -0.2586  0.0665
  141MOL0     H18590   4.893   5.618   3.309 -0.7444 -0.3132  1.1472
  141MOL0     H18591   5.031   5.516   3.372  0.7501  1.4568  1.4119
  141MOL0     H18592   4.748   5.461   3.305  1.5894  1.7806  0.6583
  141MOL0     H18593   4.835   5.340   3.408 -0.5970  0.2815  0.1065
  141MOL0     H18594   4.775   6.397   3.830 -0.1670  2.1358  0.7835
  141MOL0     H18595   4.566   6.506   3.907 -0.2684  1.6720  0.0515
  141MOL0     H18596   4.147   6.668   4.086 -3.2581  2.0077  2.8498
  141MOL0     H18597   3.959   6.818   4.069 -0.9765  0.1423 -0.7345
  141MOL0     H18598   2.197   7.006   3.967  2.7312 -1.8213 -0.0918
  141MOL0     H18599   2.022   6.834   3.945  2.3865  0.8297 -1.6491
  141MOL0     H18600   1.977   6.274   4.194  2.1569  2.5391 -1.0417
  141MOL0     H18601   1.827   6.110   4.130 -2.8587 -1.9258  2.5456
  141MOL0     H18602   1.607   5.995   4.127  1.1828 -0.4686 -0.3165
  141MOL0     H18603   1.688   5.988   3.968  0.8068  2.0518  1.2820
  141MOL0     H18604   1.389   6.000   3.955  0.8917  2.3100 -2.9333
  141MOL0     H18605   1.514   5.925   3.853  0.8553 -0.9759  1.5472
  141MOL0     H18606   1.367   5.766   3.967  1.7064 -1.5068 -0.7965
  141MOL0     H18607   1.462   5.795   4.122 -1.7951 -1.1383  0.6317
  141MOL0     H18608   1.512   5.598   4.022 -2.3272  0.2423 -1.2329
  141MOL0     H18609   1.540   5.673   3.852  1.3312  2.1686 -0.8295
  141MOL0     H18610   1.905   5.742   4.061  1.7110 -4.0164 -1.4724
  141MOL0     H18611   1.566   6.413   3.963 -0.5183  2.3952  1.7144
  141MOL0     H18612   1.737   6.578   4.031  0.3495  0.3980 -0.0538
  142MOL0     O18613   9.778   4.161   6.769  0.0323  0.3498  0.4813
  142MOL0     C18614   9.776   4.280   6.778 -0.1099 -0.2092 -0.1885
  142MOL0     O18615   9.667   4.357   6.780 -0.2630 -0.1608  0.0013
  142MOL0     C18616   9.538   4.303   6.803 -0.6748 -0.0917  1.0605
  142MOL0     C18617   9.437   4.394   6.763  0.1566  0.9736  0.2958
  142MOL0     C18618   9.307   4.351   6.756 -0.3489 -0.8719 -0.4088
  142MOL0     C18619   9.268   4.229   6.807  0.4559  1.2995  0.2260
  142MOL0     O18620   9.127   4.205   6.807 -0.6408 -0.3372 -0.3571
  142MOL0     C18621   9.068   4.114   6.904  0.4112 -0.9141  1.6138
  142MOL0     C18622   8.914   4.131   6.901  0.4058 -0.3083  0.7700
  142MOL0     C18623   8.878   4.274   6.944  0.2614 -0.7314  0.3327
  142MOL0     C18624   8.726   4.297   6.916  0.0823  0.0332  0.7777
  142MOL0     C18625   8.679   4.446   6.932  0.1388  0.0973  0.1473
  142MOL0     C18626   8.529   4.465   6.903  0.0079  0.5691 -0.4133
  142MOL0     C18627   8.496   4.605   6.952 -0.1073 -0.3899 -0.4126
  142MOL0     C18628   8.352   4.643   6.924  0.2862  0.1585  0.5272
  142MOL0     N18629   8.334   4.787   6.943  0.0318 -0.1494 -0.1075
  142MOL0     C18630   8.311   4.883   6.843  0.5205  0.4763 -0.0525
  142MOL0     C18631   8.307   4.999   6.911 -0.4559  0.1873  0.4319
  142MOL0     C18632   8.281   5.134   6.853  0.2197  0.3325  0.9406
  142MOL0     C18633   8.138   5.179   6.881 -0.1099  0.3319 -0.9377
  142MOL0     C18634   8.116   5.309   6.811  0.4788  0.1328 -1.3266
  142MOL0     C18635   7.969   5.360   6.845  0.2561  0.8814  0.3482
  142MOL0     O18636   7.950   5.485   6.768 -0.2526 -0.2121  0.2378
  142MOL0     C18637   7.821   5.544   6.775  0.2958 -0.2431  1.0116
  142MOL0     C18638   7.794   5.637   6.677 -1.1596 -0.5434  0.5218
  142MOL0     C18639   7.661   5.685   6.664  0.5101 -0.0382  1.2560
  142MOL0     C18640   7.563   5.647   6.756  0.2161  0.2027  0.0223
  142MOL0     C18641   7.423   5.701   6.759 -0.4561  0.0890 -0.1523
  142MOL0     O18642   7.336   5.645   6.846  0.2846  0.0243 -0.3907
  142MOL0     C18643   7.207   5.687   6.864 -0.0439  1.1306 -0.3151
  142MOL0     C18644   7.183   5.810   6.924  0.2753 -0.5986 -1.1484
  142MOL0     C18645   7.053   5.851   6.945  1.0649  0.1354  0.1547
  142MOL0     C18646   6.945   5.781   6.876  0.3659 -0.3971 -0.7687
  142MOL0     O18647   6.813   5.808   6.899  0.5906  0.4910 -0.7340
  142MOL0     C18648   6.779   5.947   6.911  0.0909 -0.4746 -0.2032
  142MOL0     C18649   6.621   5.956   6.902 -0.5697 -0.1770  0.5256
  142MOL0     C18650   6.556   5.855   6.812 -0.8193  0.5925  0.1249
  142MOL0     C18651   6.406   5.884   6.778  0.4501 -0.2840 -0.4681
  142MOL0     C18652   6.320   5.897   6.903  0.4293 -0.5110 -0.3967
  142MOL0     C18653   6.276   5.761   6.958  0.3434  1.0581  0.3521
  142MOL0     C18654   6.188   5.772   7.090 -0.1831  0.3140 -0.2657
  142MOL0     C18655   6.175   5.640   7.166 -0.0272 -0.9235  0.1776
  142MOL0    Cl18656   6.097   5.660   7.326  0.2768  0.2715 -0.1869
  142MOL0     C18657   6.974   5.667   6.800 -0.7610  0.4872 -0.3752
  142MOL0     C18658   7.103   5.612   6.811 -0.2279 -0.3946 -0.6594
  142MOL0     O18659   7.407   5.799   6.699 -0.4173 -0.2912  1.1614
  142MOL0     C18660   7.593   5.554   6.860 -0.8348 -0.1853 -0.0656
  142MOL0     C18661   7.726   5.507   6.866  0.2576  0.2934 -0.7588
  142MOL0     N18662   8.329   4.986   7.041  0.0946 -0.0310 -0.1881
  142MOL0     N18663   8.357   4.858   7.059 -1.0220 -0.2520  0.1405
  142MOL0     C18664   9.371   4.146   6.851 -0.5827  0.4948 -0.6673
  142MOL0     C18665   9.501   4.183   6.857 -0.4630 -0.6087  0.0742
  142MOL0     C18666   9.902   4.365   6.797  0.6352 -0.4203  0.5262
  142MOL0     C18667  10.028   4.316   6.749 -0.1771  0.3739 -0.9536
  142MOL0     C18668  10.143   4.384   6.778  0.2465 -0.0390 -0.9714
  142MOL0     C18669  10.136   4.497   6.871 -0.4777  0.1291 -0.1272
  142MOL0     O18670  10.250   4.567   6.922 -0.0620 -0.7587  0.3463
  142MOL0     C18671  10.371   4.567   6.841  0.1478 -0.3575  0.2148
  142MOL0     C18672  10.473   4.683   6.859  0.0293 -0.2153  0.7471
  142MOL0     C18673  10.607   4.673   6.782 -0.7982 -0.4221  0.1642
  142MOL0     C18674  10.717   4.597   6.859 -0.1693 -0.2484  0.3587
  142MOL0     C18675  10.766   4.650   6.988 -0.2515  0.1788  0.8247
  142MOL0     C18676  10.815   4.689   7.093  0.9361 -0.5405 -0.1529
  142MOL0     C18677  10.014   4.544   6.910 -0.0618 -0.4053 -0.3887
  142MOL0     C18678   9.895   4.479   6.878  0.0399  0.1549 -0.4394
  142MOL0     H18679   9.456   4.493   6.722 -0.8522  2.1509  2.4699
  142MOL0     H18680   9.222   4.413   6.731 -1.6010 -2.4424 -0.1560
  142MOL0     H18681   9.106   4.140   7.003 -0.5865  0.0542  1.7709
  142MOL0     H18682   9.084   4.008   6.881 -3.3337 -1.5640  1.3352
  142MOL0     H18683   8.874   4.049   6.962  3.4372 -3.8393 -1.5766
  142MOL0     H18684   8.895   4.130   6.793  0.0033  2.6653  0.7289
  142MOL0     H18685   8.922   4.352   6.882  0.0273  0.7983  2.0293
  142MOL0     H18686   8.910   4.293   7.047 -0.5312 -1.3643  0.7012
  142MOL0     H18687   8.701   4.247   6.823 -2.3644  1.1949  0.7492
  142MOL0     H18688   8.670   4.237   6.989 -0.0419 -1.2804 -0.3747
  142MOL0     H18689   8.740   4.510   6.869 -1.3206 -1.0201 -2.6121
  142MOL0     H18690   8.703   4.471   7.036 -2.8129 -2.3491  1.5737
  142MOL0     H18691   8.482   4.387   6.963  0.6043 -0.5018 -1.2970
  142MOL0     H18692   8.501   4.446   6.799 -1.1347  0.2241 -0.0551
  142MOL0     H18693   8.517   4.615   7.058  0.7115 -1.0567 -0.4941
  142MOL0     H18694   8.564   4.680   6.909  0.7133  0.3447  2.0336
  142MOL0     H18695   8.281   4.588   6.985 -0.5739 -0.7363 -1.1996
  142MOL0     H18696   8.344   4.620   6.817  2.8635  2.0739 -0.1992
  142MOL0     H18697   8.281   4.869   6.740 -3.1308  1.0304  0.8007
  142MOL0     H18698   8.307   5.133   6.747 -0.4644 -0.3518  0.7660
  142MOL0     H18699   8.355   5.195   6.905  3.5668 -1.5633 -1.2657
  142MOL0     H18700   8.120   5.197   6.987 -1.6686  1.5483 -1.3762
  142MOL0     H18701   8.057   5.118   6.840 -0.3984  0.7358 -0.9808
  142MOL0     H18702   8.182   5.387   6.849  1.5471 -1.7326  0.9074
  142MOL0     H18703   8.125   5.296   6.703 -0.4319 -1.7559 -1.2203
  142MOL0     H18704   7.952   5.376   6.952 -2.6260  1.3093 -0.0907
  142MOL0     H18705   7.898   5.283   6.811 -0.7281  1.4842  0.9674
  142MOL0     H18706   7.869   5.663   6.603  0.7117 -0.8234  2.2278
  142MOL0     H18707   7.628   5.750   6.584 -1.3631 -2.8354 -0.3929
  142MOL0     H18708   7.257   5.869   6.977 -1.2309 -0.3689  0.8567
  142MOL0     H18709   7.022   5.944   6.992  1.0971  0.8630 -1.2009
  142MOL0     H18710   6.827   5.999   6.828 -1.8657  0.9368 -0.5077
  142MOL0     H18711   6.824   5.988   7.002  1.2834 -1.0415 -0.5038
  142MOL0     H18712   6.597   6.056   6.865 -1.4268 -0.8423 -0.7702
  142MOL0     H18713   6.579   5.953   7.003 -1.9855 -0.0041 -0.0406
  142MOL0     H18714   6.557   5.764   6.873  2.1176  1.5514  1.6936
  142MOL0     H18715   6.626   5.843   6.729 -0.4256  0.0171  0.5315
  142MOL0     H18716   6.405   5.984   6.732 -4.1617 -0.0775 -0.3812
  142MOL0     H18717   6.360   5.818   6.704 -1.2695  1.6259 -1.2213
  142MOL0     H18718   6.226   5.948   6.880 -0.0497 -0.2516  1.8732
  142MOL0     H18719   6.368   5.948   6.987 -1.3358 -0.4179  0.6162
  142MOL0     H18720   6.355   5.686   6.969 -0.0513  0.5054 -0.4960
  142MOL0     H18721   6.200   5.729   6.886 -0.9497  2.2200  1.1607
  142MOL0     H18722   6.238   5.847   7.152 -0.7929 -0.4670  1.2292
  142MOL0     H18723   6.089   5.808   7.060 -0.3570 -0.7356 -0.9890
  142MOL0     H18724   6.273   5.599   7.192  0.3376  1.5495  3.2661
  142MOL0     H18725   6.134   5.563   7.099  5.2530 -0.7015 -4.0871
  142MOL0     H18726   6.906   5.620   6.730  1.9223 -2.0120 -1.4819
  142MOL0     H18727   7.132   5.533   6.743  0.6484  0.0057 -0.7557
  142MOL0     H18728   7.530   5.528   6.944 -1.0635 -0.2669 -0.2634
  142MOL0     H18729   7.772   5.458   6.951  1.8594  1.2578 -1.0236
  142MOL0     H18730   9.341   4.045   6.878  0.1799  0.6633  0.9051
  142MOL0     H18731   9.581   4.115   6.887  1.5542  1.3836 -0.4952
  142MOL0     H18732  10.028   4.235   6.678  0.6749  0.0268 -0.5775
  142MOL0     H18733  10.240   4.353   6.740  1.4296  0.6607  1.3228
  142MOL0     H18734  10.340   4.565   6.736 -1.1105  0.6245  0.5340
  142MOL0     H18735  10.421   4.472   6.863  2.6459  0.4782 -1.4773
  142MOL0     H18736  10.417   4.770   6.821 -1.3806 -1.6915 -0.7153
  142MOL0     H18737  10.494   4.693   6.966 -0.8560 -0.8167  0.9946
  142MOL0     H18738  10.643   4.775   6.771 -1.2046 -0.3703 -0.7353
  142MOL0     H18739  10.583   4.636   6.682  0.7501  2.7533 -1.5239
  142MOL0     H18740  10.696   4.490   6.872 -1.8714 -0.0381 -0.4400
  142MOL0     H18741  10.806   4.597   6.795 -1.6998 -0.3067 -1.8899
  142MOL0     H18742  10.873   4.697   7.182  2.9778  0.7130 -1.5293
  142MOL0     H18743  10.016   4.632   6.974 -0.6732  0.7590 -1.9298
  142MOL0     H18744   9.808   4.520   6.929 -0.0705 -1.8344  1.1324
  143MOL0     O18745   0.522   6.331  11.198  0.0591  0.3602  0.9126
  143MOL0     C18746   0.585   6.269  11.282 -0.4066  0.1470 -0.4044
  143MOL0     O18747   0.540   6.163  11.358  0.6906  0.1999 -0.5696
  143MOL0     C18748   0.420   6.101  11.332  0.4454  0.3044 -0.3979
  143MOL0     C18749   0.361   6.059  11.452  0.0001 -0.7092  0.7497
  143MOL0     C18750   0.243   5.984  11.434 -0.3812  0.4554  0.5321
  143MOL0     C18751   0.178   5.953  11.314 -0.7595 -0.8241 -0.1295
  143MOL0     O18752   0.061   5.891  11.294 -0.6206 -0.7273  0.1933
  143MOL0     C18753  -0.040   5.878  11.393 -0.2870 -0.2257 -0.1340
  143MOL0     C18754  -0.126   5.770  11.348 -1.0987  1.8612  0.2012
  143MOL0     C18755  -0.259   5.756  11.425 -0.4558  0.4833 -0.1629
  143MOL0     C18756  -0.355   5.658  11.365  0.4243 -0.5080  0.5952
  143MOL0     C18757  -0.486   5.671  11.430 -0.2963 -0.2698 -0.4013
  143MOL0     C18758  -0.599   5.603  11.354 -0.4512 -0.1549 -0.3890
  143MOL0     C18759  -0.743   5.634  11.414  1.1632  0.4494  0.3015
  143MOL0     C18760  -0.750   5.602  11.565  0.5440 -0.3301 -0.0665
  143MOL0     N18761  -0.872   5.521  11.586  0.0087  0.2466 -0.6612
  143MOL0     C18762  -0.890   5.379  11.587  0.0802 -0.0280  0.0280
  143MOL0     C18763  -1.019   5.361  11.575  0.1609  0.0272 -0.4770
  143MOL0     C18764  -1.081   5.227  11.575  0.1840 -1.1637  0.5513
  143MOL0     C18765  -1.058   5.143  11.702 -0.1853 -0.2024  0.0358
  143MOL0     C18766  -1.119   5.209  11.823 -0.0092 -0.1002 -0.2272
  143MOL0     C18767  -1.272   5.208  11.829 -0.1227 -0.2349 -0.3554
  143MOL0     O18768  -1.339   5.083  11.849  0.2270  0.9363  0.2115
  143MOL0     C18769  -1.472   5.067  11.866  0.2685  0.9193  0.5266
  143MOL0     C18770  -1.552   5.181  11.889 -0.4308 -0.1567  0.0834
  143MOL0     C18771  -1.686   5.161  11.919  0.4725  0.3524 -0.2007
  143MOL0     C18772  -1.747   5.033  11.942  0.1391 -0.5830  0.1061
  143MOL0     C18773  -1.882   5.015  11.985 -0.3126  0.0660 -0.7011
  143MOL0     O18774  -1.932   4.886  11.988 -0.4033  0.9564 -0.1546
  143MOL0     C18775  -2.064   4.874  11.997  0.0736 -1.1317  0.5275
  143MOL0     C18776  -2.153   4.941  11.903  0.2196  0.3032 -0.6653
  143MOL0     C18777  -2.286   4.915  11.895  0.3335  0.9203 -0.1417
  143MOL0     C18778  -2.350   4.838  11.992 -0.4561  0.1170 -0.2499
  143MOL0     O18779  -2.483   4.815  11.999 -0.2882 -0.1031 -0.0720
  143MOL0     C18780  -2.576   4.877  11.908 -0.6995 -0.2460  0.2194
  143MOL0     C18781  -2.702   4.793  11.908  0.0114  0.9311  0.2144
  143MOL0     C18782  -2.678   4.648  11.850  0.4671  0.5634  0.2456
  143MOL0     C18783  -2.796   4.588  11.788 -0.1399 -0.4359 -0.6565
  143MOL0     C18784  -2.908   4.539  11.882  0.1727 -0.3750 -0.5623
  143MOL0     C18785  -3.005   4.444  11.814  0.2562  1.1608 -0.4778
  143MOL0     C18786  -3.126   4.435  11.910  0.0775  0.1561  0.1951
  143MOL0     C18787  -3.218   4.322  11.873  0.3981  1.0170  0.3734
  143MOL0    Cl18788  -3.144   4.167  11.880 -0.1503 -0.0271 -0.0246
  143MOL0     C18789  -2.270   4.787  12.099 -0.0974  0.1446 -0.0835
  143MOL0     C18790  -2.124   4.803  12.094  0.4092  0.3815  0.2868
  143MOL0     O18791  -1.942   5.113  12.023  0.8885 -0.3125 -0.3398
  143MOL0     C18792  -1.662   4.925  11.927  0.6056  0.8779 -1.5213
  143MOL0     C18793  -1.528   4.941  11.884 -0.1965 -0.4237  0.2018
  143MOL0     N18794  -1.082   5.485  11.577 -0.2541  0.0071 -0.3968
  143MOL0     N18795  -0.997   5.570  11.589  0.2448 -0.4513  0.5453
  143MOL0     C18796   0.247   5.987  11.201  0.1732  0.5603  0.3516
  143MOL0     C18797   0.367   6.058  11.213  0.3383 -0.0095  0.5911
  143MOL0     C18798   0.738   6.270  11.274 -0.1328 -0.5762 -0.2815
  143MOL0     C18799   0.820   6.165  11.316  0.7670 -0.7679  0.3987
  143MOL0     C18800   0.959   6.181  11.309  0.3843  0.2609  1.1407
  143MOL0     C18801   1.024   6.303  11.272 -0.1294 -0.4079 -1.1640
  143MOL0     O18802   1.152   6.327  11.254 -0.3728 -0.5040  0.0771
  143MOL0     C18803   1.253   6.239  11.297 -0.8559 -0.5124 -0.2929
  143MOL0     C18804   1.379   6.299  11.230  0.1522 -0.3806  0.0978
  143MOL0     C18805   1.496   6.194  11.230  0.8815  0.6233 -0.9955
  143MOL0     C18806   1.614   6.261  11.159 -0.3376 -0.4376 -0.7357
  143MOL0     C18807   1.740   6.174  11.156  0.2297 -0.4000 -0.5538
  143MOL0     C18808   1.839   6.101  11.139  0.6659 -0.6697  0.1188
  143MOL0     C18809   0.940   6.409  11.241 -1.1482 -0.3823 -0.5468
  143MOL0     C18810   0.802   6.391  11.237  0.1580  0.0026  0.6262
  143MOL0     H18811   0.405   6.087  11.548 -0.3080 -1.3274  1.0790
  143MOL0     H18812   0.205   5.950  11.530  1.2338 -0.6573  0.8164
  143MOL0     H18813  -0.094   5.972  11.405  1.9176  0.9218  1.3359
  143MOL0     H18814   0.003   5.857  11.491 -2.2777 -1.5768  0.5018
  143MOL0     H18815  -0.065   5.683  11.374  1.0421  2.5827 -2.0696
  143MOL0     H18816  -0.132   5.760  11.239  1.6086  0.5585  0.0901
  143MOL0     H18817  -0.301   5.857  11.415 -0.3489  0.3845 -1.8424
  143MOL0     H18818  -0.230   5.742  11.530  4.7969  0.0169 -1.4238
  143MOL0     H18819  -0.359   5.680  11.258  0.1623  1.1856  0.9247
  143MOL0     H18820  -0.314   5.557  11.369 -1.2701 -1.2190  0.9341
  143MOL0     H18821  -0.514   5.776  11.441  1.6737  0.1521  1.4247
  143MOL0     H18822  -0.478   5.635  11.534 -0.1406 -0.9083 -0.6271
  143MOL0     H18823  -0.588   5.495  11.342  0.8326 -0.0110 -0.6349
  143MOL0     H18824  -0.600   5.640  11.251  4.0948 -2.1014 -1.3448
  143MOL0     H18825  -0.766   5.737  11.388 -0.0963  0.3732  1.0479
  143MOL0     H18826  -0.820   5.581  11.357 -1.2421  2.7825  1.2217
  143MOL0     H18827  -0.759   5.696  11.621 -1.2126 -0.2328 -0.4434
  143MOL0     H18828  -0.661   5.550  11.601 -0.1204 -2.7199 -1.6225
  143MOL0     H18829  -0.819   5.296  11.584  1.0179  0.7279 -3.2953
  143MOL0     H18830  -1.035   5.183  11.486 -1.3683  1.3112 -1.6261
  143MOL0     H18831  -1.189   5.226  11.561  0.2924 -1.2009 -0.3720
  143MOL0     H18832  -0.951   5.138  11.723  0.0476  0.5531 -0.9191
  143MOL0     H18833  -1.096   5.042  11.680  3.0733 -1.8833  1.4841
  143MOL0     H18834  -1.085   5.163  11.916 -1.7164  0.2169  0.5996
  143MOL0     H18835  -1.082   5.311  11.833  2.2013 -1.0574  2.3871
  143MOL0     H18836  -1.312   5.246  11.734  0.6321 -1.3865 -1.1666
  143MOL0     H18837  -1.295   5.277  11.910 -0.3280  1.4004 -1.7482
  143MOL0     H18838  -1.515   5.282  11.876 -2.3424  0.8549  1.8286
  143MOL0     H18839  -1.756   5.242  11.935 -0.4261 -0.0621 -1.7524
  143MOL0     H18840  -2.123   5.013  11.827 -0.0408  1.2854  0.1404
  143MOL0     H18841  -2.342   4.970  11.820 -2.1531  1.1132  1.7331
  143MOL0     H18842  -2.534   4.876  11.807 -2.4369  0.8849 -0.5415
  143MOL0     H18843  -2.590   4.981  11.936  3.8735  0.8256 -0.6734
  143MOL0     H18844  -2.785   4.846  11.861 -0.8314  0.2667  0.9295
  143MOL0     H18845  -2.742   4.787  12.010  3.2466 -0.6914  1.5313
  143MOL0     H18846  -2.636   4.577  11.921 -1.4902 -1.7242 -0.7494
  143MOL0     H18847  -2.612   4.659  11.764 -2.6534 -0.5058 -2.4764
  143MOL0     H18848  -2.843   4.654  11.714  0.5588  2.9823  1.7011
  143MOL0     H18849  -2.744   4.506  11.737  4.3288  0.0261  2.5946
  143MOL0     H18850  -2.963   4.621  11.929 -0.3832 -1.5230  0.8478
  143MOL0     H18851  -2.866   4.484  11.967  2.4078  1.3249 -0.4844
  143MOL0     H18852  -2.962   4.348  11.785 -0.3575  0.3468  1.1827
  143MOL0     H18853  -3.039   4.500  11.726 -2.2359 -0.7590 -0.8335
  143MOL0     H18854  -3.098   4.420  12.014  1.9254 -0.2169 -0.3085
  143MOL0     H18855  -3.181   4.529  11.898 -1.7520 -0.5682  2.2899
  143MOL0     H18856  -3.272   4.339  11.780 -2.0580 -0.6772  1.4041
  143MOL0     H18857  -3.301   4.326  11.944 -1.2785 -1.2494 -1.2983
  143MOL0     H18858  -2.302   4.727  12.183 -0.0363  0.8199  0.4367
  143MOL0     H18859  -2.055   4.767  12.169  0.7429 -1.0026 -0.6325
  143MOL0     H18860  -1.702   4.824  11.935 -0.9478  1.6135  1.8108
  143MOL0     H18861  -1.475   4.852  11.852 -1.8706 -1.0881 -0.8700
  143MOL0     H18862   0.211   5.968  11.101  2.9689  0.5528 -0.7364
  143MOL0     H18863   0.416   6.090  11.121 -0.9941  2.2184  0.5801
  143MOL0     H18864   0.764   6.087  11.366 -3.5471  0.6908 -1.7330
  143MOL0     H18865   1.025   6.106  11.352 -1.0471 -0.6867  1.7979
  143MOL0     H18866   1.235   6.143  11.249 -1.3549  0.5112 -2.2801
  143MOL0     H18867   1.260   6.216  11.404  2.0143 -0.0807 -0.3036
  143MOL0     H18868   1.360   6.314  11.123  1.4132  1.5629  0.0947
  143MOL0     H18869   1.416   6.387  11.283  1.1556 -1.4085  1.1625
  143MOL0     H18870   1.453   6.104  11.184  1.8285 -0.1341 -0.4436
  143MOL0     H18871   1.527   6.167  11.331 -0.0161  3.0605 -0.0014
  143MOL0     H18872   1.585   6.258  11.054 -0.1907 -0.8036 -0.7691
  143MOL0     H18873   1.630   6.361  11.201 -1.0405 -1.4553  2.2351
  143MOL0     H18874   1.928   6.046  11.112  1.8116  2.0762 -2.1907
  143MOL0     H18875   0.987   6.502  11.210  0.0745 -1.5220 -2.2928
  143MOL0     H18876   0.736   6.473  11.211  0.3282  0.4445  1.5360
  144MOL0     O18877   7.779   8.919   8.942 -0.1320 -0.3170 -0.3556
  144MOL0     C18878   7.792   9.029   8.990 -0.5432  0.0419 -0.1323
  144MOL0     O18879   7.697   9.130   8.994  0.3769 -0.0358  0.2221
  144MOL0     C18880   7.574   9.110   8.932  0.2737  0.7940 -0.2405
  144MOL0     C18881   7.502   9.219   8.892 -0.3787  0.7934 -0.3938
  144MOL0     C18882   7.376   9.212   8.836 -1.0370  0.0123  0.1177
  144MOL0     C18883   7.301   9.090   8.844 -1.2118  0.3430 -0.3772
  144MOL0     O18884   7.172   9.066   8.808  0.5204  0.5624 -0.0257
  144MOL0     C18885   7.077   9.167   8.850  1.1480  0.9448  0.6307
  144MOL0     C18886   6.950   9.101   8.890 -0.6885 -0.6443 -0.4134
  144MOL0     C18887   6.863   9.045   8.772 -1.2995 -0.9226  0.2640
  144MOL0     C18888   6.712   9.044   8.814 -0.2399  0.5186  0.0855
  144MOL0     C18889   6.619   9.000   8.709 -0.3744  0.1241 -0.9104
  144MOL0     C18890   6.469   9.002   8.759  0.4629 -0.4143  0.3752
  144MOL0     C18891   6.430   8.879   8.841 -0.2171 -0.2140 -0.9272
  144MOL0     C18892   6.301   8.894   8.936 -0.6282 -0.1902  0.7913
  144MOL0     N18893   6.193   8.963   8.857 -0.0821 -0.1273  0.0972
  144MOL0     C18894   6.113   8.904   8.763 -0.5775  0.5272 -0.3993
  144MOL0     C18895   6.049   9.007   8.702  0.8175  0.0606  0.6989
  144MOL0     C18896   5.944   9.010   8.593 -0.3893 -0.0667  0.0927
  144MOL0     C18897   6.008   9.016   8.459  0.6264 -0.2446  0.9174
  144MOL0     C18898   5.910   9.089   8.356  0.1596 -0.7000  0.2044
  144MOL0     C18899   5.784   9.008   8.332 -0.7126 -0.3412  0.8857
  144MOL0     O18900   5.689   9.010   8.437  0.1160  0.5049 -0.0170
  144MOL0     C18901   5.593   9.106   8.443 -0.3404 -0.3309 -0.4511
  144MOL0     C18902   5.494   9.089   8.543  0.6105  0.7267 -0.0587
  144MOL0     C18903   5.385   9.182   8.557  0.1800  0.0284  0.2754
  144MOL0     C18904   5.378   9.294   8.475 -1.2914 -0.2066 -1.1095
  144MOL0     C18905   5.270   9.389   8.494  0.1447 -0.9451  0.5963
  144MOL0     O18906   5.253   9.481   8.392 -0.1658  0.5043 -0.2146
  144MOL0     C18907   5.156   9.578   8.396  1.1818  0.0162 -0.5636
  144MOL0     C18908   5.182   9.705   8.347 -0.2196  0.3015  0.1993
  144MOL0     C18909   5.088   9.815   8.344 -0.0383  0.4951 -0.2207
  144MOL0     C18910   4.957   9.786   8.395 -0.8061 -0.2942  0.2949
  144MOL0     O18911   4.868   9.888   8.415 -0.0259  0.3936  1.1149
  144MOL0     C18912   4.869  10.012   8.346 -0.8459 -1.1352  0.0658
  144MOL0     C18913   4.749  10.105   8.379 -0.1566  0.3249 -1.0608
  144MOL0     C18914   4.736  10.148   8.525  0.1096 -0.4619  0.9337
  144MOL0     C18915   4.835  10.266   8.545  0.8883 -0.7524  1.2145
  144MOL0     C18916   4.866  10.302   8.689 -0.3387 -0.3238 -0.1370
  144MOL0     C18917   4.950  10.432   8.708  0.4377  0.3863  0.7014
  144MOL0     C18918   5.042  10.436   8.831 -0.3431 -0.3026 -0.4810
  144MOL0     C18919   4.986  10.529   8.949 -0.4835  0.2153  0.3998
  144MOL0    Cl18920   5.055  10.474   9.107  0.0852  0.6150 -0.3919
  144MOL0     C18921   4.922   9.650   8.417  0.4478 -0.2139 -0.4684
  144MOL0     C18922   5.020   9.553   8.421 -0.0231 -0.2017 -0.4223
  144MOL0     O18923   5.200   9.386   8.602  0.2741 -0.4025  0.2226
  144MOL0     C18924   5.479   9.310   8.378 -1.2364  0.4693 -0.8315
  144MOL0     C18925   5.588   9.222   8.365 -0.5635  0.4284 -0.0991
  144MOL0     N18926   6.089   9.130   8.765 -0.9730  0.2676  0.2369
  144MOL0     N18927   6.174   9.097   8.858 -0.1709  0.8982  0.1052
  144MOL0     C18928   7.369   8.977   8.893 -0.3545 -0.0511  0.0356
  144MOL0     C18929   7.503   8.991   8.938  0.3105 -0.4601 -0.7377
  144MOL0     C18930   7.897   9.054   9.086 -0.1615  0.1490  0.1867
  144MOL0     C18931   7.971   8.955   9.146  0.1064 -1.0518  1.0394
  144MOL0     C18932   8.076   8.973   9.231  0.6081 -0.3328 -0.3351
  144MOL0     C18933   8.121   9.104   9.262  0.5858  0.3678  0.3788
  144MOL0     O18934   8.226   9.114   9.352  1.0728 -0.2971  0.3013
  144MOL0     C18935   8.251   9.234   9.419  0.4837  0.5189 -0.3749
  144MOL0     C18936   8.360   9.216   9.524 -0.4700 -0.5398  0.5533
  144MOL0     C18937   8.501   9.189   9.466  0.3207  0.0091  0.9233
  144MOL0     C18938   8.607   9.162   9.568  0.8307 -0.1519 -0.5410
  144MOL0     C18939   8.733   9.139   9.501 -0.0478  0.7961 -0.2028
  144MOL0     C18940   8.824   9.156   9.425 -0.3495  0.4218 -0.3214
  144MOL0     C18941   8.054   9.212   9.197 -0.1541  0.0446 -0.4046
  144MOL0     C18942   7.944   9.188   9.120  1.0641  0.3959 -0.5035
  144MOL0     H18943   7.558   9.311   8.890 -0.4634  0.8982  1.2470
  144MOL0     H18944   7.327   9.296   8.788 -2.3412 -0.1934  1.0326
  144MOL0     H18945   7.059   9.237   8.768  0.3866  0.9724  0.8138
  144MOL0     H18946   7.103   9.228   8.937 -0.8472  1.2841  1.0412
  144MOL0     H18947   6.888   9.174   8.943 -0.1174 -1.4341  1.4534
  144MOL0     H18948   6.974   9.022   8.962  1.3915 -0.1034 -0.4421
  144MOL0     H18949   6.902   8.944   8.755  3.7938  0.6616  1.0145
  144MOL0     H18950   6.882   9.094   8.677  2.4649 -3.6110 -0.6092
  144MOL0     H18951   6.697   8.974   8.896 -1.7386  1.1486  0.3887
  144MOL0     H18952   6.670   9.140   8.847 -2.2384  0.4233 -1.9459
  144MOL0     H18953   6.652   8.899   8.684 -0.5617  0.0404 -0.8237
  144MOL0     H18954   6.634   9.055   8.616 -0.9432  0.2729 -0.9149
  144MOL0     H18955   6.407   9.001   8.668  2.6866  1.2576 -1.2904
  144MOL0     H18956   6.454   9.102   8.802 -1.5395 -0.0550 -0.9828
  144MOL0     H18957   6.412   8.800   8.767  2.2144 -0.0206 -1.8176
  144MOL0     H18958   6.510   8.850   8.910 -2.1231  0.8406  1.9159
  144MOL0     H18959   6.329   8.965   9.014 -1.9454  0.6701  0.5315
  144MOL0     H18960   6.265   8.800   8.978 -3.5210 -0.7980 -2.5546
  144MOL0     H18961   6.100   8.798   8.744  0.7236  0.5554 -1.5311
  144MOL0     H18962   5.873   9.092   8.598 -1.7259 -0.5478 -4.9083
  144MOL0     H18963   5.886   8.917   8.593 -1.2220  0.4377 -0.6492
  144MOL0     H18964   6.041   8.917   8.426  0.9326  0.3786 -0.7401
  144MOL0     H18965   6.092   9.086   8.462 -0.1999  1.0537 -2.4026
  144MOL0     H18966   5.891   9.194   8.380  1.0659 -0.6724  0.8838
  144MOL0     H18967   5.968   9.092   8.263 -1.7235 -1.6774 -1.0682
  144MOL0     H18968   5.804   8.901   8.319 -1.1191 -0.3913  0.6655
  144MOL0     H18969   5.734   9.039   8.240 -1.0325 -0.8313  0.8876
  144MOL0     H18970   5.490   8.998   8.602  0.0478  0.2411 -0.8286
  144MOL0     H18971   5.308   9.162   8.631  0.2890 -0.2592  0.3139
  144MOL0     H18972   5.283   9.725   8.313  0.5508 -0.6125  1.8120
  144MOL0     H18973   5.116   9.917   8.321 -1.1458  0.8885  0.1601
  144MOL0     H18974   4.861   9.997   8.238 -1.9203  2.7873 -0.5722
  144MOL0     H18975   4.960  10.067   8.372 -0.3703 -1.5611 -0.6933
  144MOL0     H18976   4.657  10.058   8.342  0.0477  0.8294 -2.2458
  144MOL0     H18977   4.770  10.193   8.319  0.1696 -0.1409 -1.6376
  144MOL0     H18978   4.753  10.068   8.598  2.5063  0.1986  1.1797
  144MOL0     H18979   4.636  10.189   8.545  0.7822  0.0081  3.9581
  144MOL0     H18980   4.932  10.236   8.505  0.2781 -0.7207 -0.3622
  144MOL0     H18981   4.803  10.362   8.504  1.2954 -1.1401 -0.0690
  144MOL0     H18982   4.920  10.215   8.726  1.5409  1.3072  1.1808
  144MOL0     H18983   4.777  10.312   8.752 -0.0775  2.8770 -0.1012
  144MOL0     H18984   4.885  10.521   8.713 -0.8810 -0.5546  0.9487
  144MOL0     H18985   5.009  10.447   8.618 -2.9940  1.6065 -1.5711
  144MOL0     H18986   5.039  10.336   8.875  0.0112  0.8762  2.5405
  144MOL0     H18987   5.145  10.469   8.815 -0.9701  1.9482 -0.2097
  144MOL0     H18988   4.877  10.532   8.949 -0.5403 -1.2238  0.6566
  144MOL0     H18989   5.031  10.627   8.929  1.8340 -1.3560 -3.1020
  144MOL0     H18990   4.820   9.618   8.434  0.6828 -0.2465  1.0479
  144MOL0     H18991   5.003   9.450   8.451  1.2582 -0.0474  0.9848
  144MOL0     H18992   5.460   9.386   8.303 -0.7260  0.6399 -0.7872
  144MOL0     H18993   5.664   9.248   8.292 -2.6034  2.7327 -1.5689
  144MOL0     H18994   7.321   8.880   8.893 -0.0628 -0.1962  0.1070
  144MOL0     H18995   7.541   8.901   8.986 -0.2505 -1.6324 -2.3973
  144MOL0     H18996   7.946   8.853   9.118 -1.6665 -0.0106 -1.5169
  144MOL0     H18997   8.142   8.905   9.283  1.4383  0.9205  0.2962
  144MOL0     H18998   8.164   9.278   9.467  0.6826 -1.4331  1.9935
  144MOL0     H18999   8.283   9.307   9.344 -1.1535  1.7071  0.0408
  144MOL0     H19000   8.373   9.311   9.576  1.4285  0.4862 -1.6352
  144MOL0     H19001   8.332   9.146   9.603 -2.2372  0.4641  0.8747
  144MOL0     H19002   8.527   9.278   9.409 -1.6733  1.0187  1.5090
  144MOL0     H19003   8.477   9.104   9.401  1.5039  0.4377 -0.1089
  144MOL0     H19004   8.614   9.248   9.634 -2.4742  1.0655 -1.5705
  144MOL0     H19005   8.580   9.075   9.628 -5.0733  2.0230  0.6238
  144MOL0     H19006   8.902   9.162   9.353  0.0469  1.6532  0.1845
  144MOL0     H19007   8.092   9.310   9.222  0.9396 -0.2061 -1.0316
  144MOL0     H19008   7.895   9.278   9.084 -0.8032  0.0178  0.9017
  145MOL0     O19009  10.747   4.002   5.257 -0.5442  0.2960 -0.4666
  145MOL0     C19010  10.694   3.895   5.255  1.0664 -0.1717 -0.6209
  145MOL0     O19011  10.763   3.779   5.243 -0.4921 -0.1812 -0.5742
  145MOL0     C19012  10.899   3.783   5.238  0.0047  0.2595 -0.4698
  145MOL0     C19013  10.961   3.712   5.339 -0.2408 -0.2146  0.2440
  145MOL0     C19014  11.096   3.701   5.338  0.7050 -0.8639 -0.8617
  145MOL0     C19015  11.174   3.764   5.250 -0.1878  0.0154 -0.3195
  145MOL0     O19016  11.313   3.768   5.267 -0.3726 -0.0930  0.1794
  145MOL0     C19017  11.388   3.851   5.181 -0.1430  0.3926 -0.0838
  145MOL0     C19018  11.528   3.881   5.244 -0.4594 -0.1049  0.0958
  145MOL0     C19019  11.615   3.747   5.264 -0.8725  0.1955 -0.8821
  145MOL0     C19020  11.746   3.772   5.345  0.1145  0.2116  0.5769
  145MOL0     C19021  11.853   3.855   5.267 -0.2596 -0.9711  0.1225
  145MOL0     C19022  11.908   3.791   5.145 -0.1218  0.8230  0.6153
  145MOL0     C19023  11.970   3.649   5.160  0.0914 -0.4976 -0.7960
  145MOL0     C19024  12.047   3.598   5.033  0.1221  0.8724 -0.5775
  145MOL0     N19025  12.096   3.461   5.057  0.5635  0.0613  0.2134
  145MOL0     C19026  12.020   3.351   5.019 -0.8768  0.2682 -0.3721
  145MOL0     C19027  12.099   3.248   5.047  0.5151 -0.1329  0.1833
  145MOL0     C19028  12.066   3.100   5.024  0.2801  0.6646 -0.3344
  145MOL0     C19029  11.952   3.060   5.130  0.3274 -1.0167  0.0074
  145MOL0     C19030  12.002   2.998   5.255 -0.2515  0.2142 -0.4996
  145MOL0     C19031  12.103   3.085   5.337 -0.1187  0.1890  0.4425
  145MOL0     O19032  12.090   3.060   5.476  0.1903  0.1679 -0.0417
  145MOL0     C19033  11.982   3.109   5.550  0.3050  0.8338  0.0053
  145MOL0     C19034  11.922   3.024   5.650  0.3679 -0.3187  0.6074
  145MOL0     C19035  11.803   3.070   5.711  0.4270  0.0314 -0.0250
  145MOL0     C19036  11.744   3.193   5.678  0.1593  1.0781  0.1417
  145MOL0     C19037  11.610   3.227   5.731 -0.9535 -0.4668  1.2093
  145MOL0     O19038  11.550   3.128   5.810 -0.0955  0.1157 -0.6760
  145MOL0     C19039  11.426   3.127   5.849 -0.0885  0.3221 -0.3165
  145MOL0     C19040  11.334   3.232   5.840 -0.6198  0.0116 -0.2687
  145MOL0     C19041  11.200   3.211   5.874  0.1584  0.1952  0.1376
  145MOL0     C19042  11.161   3.090   5.938  0.2162  0.1644  0.4205
  145MOL0     O19043  11.038   3.053   5.985 -0.4301 -0.0587 -0.0492
  145MOL0     C19044  10.958   3.163   6.015  0.6301  0.7256  0.6653
  145MOL0     C19045  10.819   3.117   6.055 -0.6228  0.3217 -0.5541
  145MOL0     C19046  10.751   3.065   5.932  0.5954 -0.1386 -0.4691
  145MOL0     C19047  10.605   3.009   5.953 -0.0706 -0.2450  0.1178
  145MOL0     C19048  10.519   3.136   5.972 -0.0605 -0.5363  0.6539
  145MOL0     C19049  10.369   3.105   5.995 -0.4608  0.0616  0.5275
  145MOL0     C19050  10.332   3.016   6.107  0.0531 -0.0804 -0.2898
  145MOL0     C19051  10.179   2.988   6.104  0.1748  0.6614 -0.3566
  145MOL0    Cl19052  10.096   3.132   6.162 -0.2888 -0.2287  0.0253
  145MOL0     C19053  11.254   2.990   5.956 -0.5351 -0.3694 -0.2474
  145MOL0     C19054  11.384   3.005   5.907  0.2914  0.5581 -0.3791
  145MOL0     O19055  11.562   3.334   5.688 -0.1688  0.0752  0.6545
  145MOL0     C19056  11.816   3.280   5.592  0.2712  0.5886  0.8413
  145MOL0     C19057  11.931   3.237   5.525 -0.0884 -0.7100 -0.0977
  145MOL0     N19058  12.217   3.293   5.097  0.1703  0.0510 -0.7390
  145MOL0     N19059  12.216   3.420   5.092 -0.5330  0.3224  0.3377
  145MOL0     C19060  11.111   3.824   5.138  0.4518 -0.1527 -0.7337
  145MOL0     C19061  10.977   3.838   5.135 -0.2571 -0.0678  0.4987
  145MOL0     C19062  10.548   3.878   5.282 -0.4855 -0.9581  1.0328
  145MOL0     C19063  10.469   3.997   5.269 -0.1664 -0.4436  0.4139
  145MOL0     C19064  10.332   3.981   5.268 -0.1016  0.5756 -0.5218
  145MOL0     C19065  10.271   3.865   5.308 -0.1351  0.3222 -0.4862
  145MOL0     O19066  10.141   3.855   5.313 -0.4349  0.1001  0.2428
  145MOL0     C19067  10.076   3.842   5.186 -0.1394  0.0758 -0.4113
  145MOL0     C19068   9.932   3.907   5.200 -0.4890 -0.2292  0.6297
  145MOL0     C19069   9.928   4.068   5.180 -0.6468 -0.9141  0.0465
  145MOL0     C19070   9.780   4.124   5.184 -0.6904  0.0750  0.0960
  145MOL0     C19071   9.688   4.068   5.085  0.5968  1.2086  0.3986
  145MOL0     C19072   9.605   4.039   4.998 -0.2346  0.4981 -0.3531
  145MOL0     C19073  10.347   3.750   5.343 -1.1445  0.0893 -0.6292
  145MOL0     C19074  10.490   3.760   5.332 -0.4437  0.2612  0.2196
  145MOL0     H19075  10.903   3.655   5.411  1.0765 -2.9195 -0.6707
  145MOL0     H19076  11.131   3.635   5.417  1.5861 -2.5400 -2.5859
  145MOL0     H19077  11.348   3.952   5.169 -1.9524 -0.0160  1.8733
  145MOL0     H19078  11.392   3.802   5.084  3.0226 -0.6010  0.4289
  145MOL0     H19079  11.513   3.933   5.339  1.4389  4.4155 -1.8039
  145MOL0     H19080  11.584   3.949   5.180  0.1363  0.2774  1.0035
  145MOL0     H19081  11.636   3.704   5.166  0.1040  2.6219 -1.8037
  145MOL0     H19082  11.548   3.673   5.309 -1.8010  0.8777 -1.1189
  145MOL0     H19083  11.728   3.834   5.434 -2.0927  0.5763 -0.0498
  145MOL0     H19084  11.790   3.674   5.361  2.9603  0.8321 -2.3365
  145MOL0     H19085  11.939   3.887   5.327 -0.3450  1.5938 -1.0132
  145MOL0     H19086  11.811   3.950   5.233  2.7229  0.3878 -0.0529
  145MOL0     H19087  11.985   3.857   5.104  0.8216  0.5443  1.8935
  145MOL0     H19088  11.830   3.785   5.069 -1.5510  3.3606  1.7489
  145MOL0     H19089  12.035   3.658   5.247  0.7863  1.1088 -1.4368
  145MOL0     H19090  11.892   3.576   5.182  0.4879 -0.5860  0.3651
  145MOL0     H19091  12.129   3.668   5.012 -1.4374  3.1174  0.4270
  145MOL0     H19092  11.986   3.606   4.943  0.3575  2.3446 -0.6260
  145MOL0     H19093  11.920   3.337   4.979 -1.8345 -0.4198  2.1133
  145MOL0     H19094  12.156   3.044   5.053  0.6652  0.8212 -1.2128
  145MOL0     H19095  12.042   3.076   4.920  0.0989  1.3173 -0.4453
  145MOL0     H19096  11.890   2.981   5.086 -1.6941  1.0262 -1.0768
  145MOL0     H19097  11.898   3.153   5.154  0.5444 -0.0492 -2.8770
  145MOL0     H19098  11.909   2.973   5.309  0.3202  0.8604  0.8398
  145MOL0     H19099  12.059   2.911   5.224  0.6437  0.2181  1.0668
  145MOL0     H19100  12.090   3.190   5.309  0.1773  1.5047  4.6422
  145MOL0     H19101  12.202   3.056   5.298 -0.1750  2.4276 -1.6001
  145MOL0     H19102  11.959   2.925   5.678  2.8173  0.5494  0.6931
  145MOL0     H19103  11.764   2.993   5.777  0.9697 -1.3577 -1.2453
  145MOL0     H19104  11.354   3.320   5.780 -0.1842 -2.1996 -3.6663
  145MOL0     H19105  11.125   3.287   5.851  0.3698 -0.2307 -2.2287
  145MOL0     H19106  10.957   3.241   5.939 -1.3235 -1.4176 -1.6960
  145MOL0     H19107  10.990   3.207   6.110 -0.7833  1.1991  0.9456
  145MOL0     H19108  10.775   3.210   6.091 -2.1003 -0.6328  0.2085
  145MOL0     H19109  10.805   3.049   6.139 -4.0264  1.6586  0.0956
  145MOL0     H19110  10.817   2.993   5.882  1.8764  2.4043 -2.7666
  145MOL0     H19111  10.736   3.145   5.858 -2.4756 -0.1292  0.0495
  145MOL0     H19112  10.560   2.962   5.865 -0.9297  0.5055  0.1465
  145MOL0     H19113  10.609   2.943   6.041  1.2082 -0.8949 -0.3958
  145MOL0     H19114  10.528   3.205   5.888 -1.5117 -0.5987  0.4215
  145MOL0     H19115  10.554   3.201   6.053  0.4332 -2.1143  1.7538
  145MOL0     H19116  10.331   3.060   5.903 -0.0555 -0.3822  0.5736
  145MOL0     H19117  10.323   3.202   6.014  0.2145  0.1609  1.8162
  145MOL0     H19118  10.385   2.921   6.090  2.8772  1.9894 -5.2903
  145MOL0     H19119  10.364   3.058   6.202 -0.0942  2.1285 -1.1701
  145MOL0     H19120  10.148   2.899   6.161 -1.8206 -0.2261 -2.6309
  145MOL0     H19121  10.151   2.958   6.003  0.4306 -2.6437  0.4159
  145MOL0     H19122  11.214   2.903   6.007 -0.1222 -0.5532 -0.2330
  145MOL0     H19123  11.453   2.923   5.922 -0.2073 -0.3332 -2.5267
  145MOL0     H19124  11.776   3.380   5.581  1.7883  1.1663  0.3666
  145MOL0     H19125  11.984   3.309   5.464 -0.6566  2.7581  3.1377
  145MOL0     H19126  11.162   3.870   5.054  0.4485 -0.1880 -0.7555
  145MOL0     H19127  10.939   3.882   5.043 -0.5692 -0.5075  0.4122
  145MOL0     H19128  10.501   4.096   5.239  1.4057 -1.1393 -0.3202
  145MOL0     H19129  10.266   4.051   5.219 -0.4579 -0.9146 -2.3064
  145MOL0     H19130  10.062   3.737   5.158 -1.3333  0.0436  0.2663
  145MOL0     H19131  10.132   3.895   5.108  0.3634 -0.3046 -0.3183
  145MOL0     H19132   9.867   3.865   5.122 -0.6126  1.7154 -0.4052
  145MOL0     H19133   9.892   3.886   5.299  0.4552  0.1421  1.1024
  145MOL0     H19134   9.967   4.097   5.082 -4.6542  1.8909 -0.9527
  145MOL0     H19135   9.987   4.110   5.262 -2.2758 -0.3263  0.9598
  145MOL0     H19136   9.729   4.109   5.280  0.7057 -0.3428  0.8036
  145MOL0     H19137   9.782   4.231   5.162  1.1635  0.0394 -0.0779
  145MOL0     H19138   9.523   4.020   4.933 -0.4255 -1.0245  0.2994
  145MOL0     H19139  10.304   3.657   5.381  1.1416 -0.4194  0.9499
  145MOL0     H19140  10.550   3.671   5.346 -1.5532 -0.6173 -0.5094
  146MOL0     O19141   0.054   1.595   3.887  0.0127  0.6943 -0.4545
  146MOL0     C19142   0.066   1.704   3.936 -0.1410  0.1163  0.6679
  146MOL0     O19143  -0.018   1.803   3.921  0.5614 -0.7583  0.0455
  146MOL0     C19144  -0.124   1.781   3.835 -0.0963  0.3240  0.0535
  146MOL0     C19145  -0.105   1.777   3.695 -0.6040  1.1140  0.3515
  146MOL0     C19146  -0.221   1.762   3.611 -0.7211 -0.0213  0.8191
  146MOL0     C19147  -0.354   1.771   3.659 -0.0470  0.5158 -0.6091
  146MOL0     O19148  -0.469   1.772   3.583  0.1715 -0.2520  0.3185
  146MOL0     C19149  -0.466   1.696   3.463 -0.3752  0.7235  0.3193
  146MOL0     C19150  -0.612   1.660   3.436  0.0937  0.0867 -0.9898
  146MOL0     C19151  -0.714   1.771   3.420  0.1933  0.8188  1.0709
  146MOL0     C19152  -0.849   1.728   3.366  0.7507 -1.2749  0.7248
  146MOL0     C19153  -0.951   1.847   3.348  0.1801 -0.1968  0.2492
  146MOL0     C19154  -1.070   1.838   3.249 -0.6646 -0.1319 -0.3566
  146MOL0     C19155  -1.165   1.961   3.256  0.3792  0.4502  0.0891
  146MOL0     C19156  -1.305   1.937   3.187 -1.1816 -0.6245 -0.1832
  146MOL0     N19157  -1.291   1.936   3.039  0.2878  0.0589  0.1140
  146MOL0     C19158  -1.220   2.035   2.969 -1.2934 -0.2276 -0.9112
  146MOL0     C19159  -1.190   1.978   2.848  0.5127 -0.1130  0.0699
  146MOL0     C19160  -1.116   2.034   2.735  0.1908  0.0493 -0.5149
  146MOL0     C19161  -0.974   2.010   2.735 -0.1690  0.1205  0.0729
  146MOL0     C19162  -0.913   2.034   2.591  0.3766 -0.2528  0.9002
  146MOL0     C19163  -0.763   2.046   2.584 -1.3903  0.4655  0.5132
  146MOL0     O19164  -0.700   1.931   2.640 -0.2837 -0.0473 -0.2191
  146MOL0     C19165  -0.560   1.920   2.638 -1.0548  0.5406  0.4535
  146MOL0     C19166  -0.497   1.820   2.712 -0.7444  0.5368  1.4509
  146MOL0     C19167  -0.360   1.809   2.697 -0.3687 -0.1664  0.9136
  146MOL0     C19168  -0.283   1.900   2.618 -0.7217 -0.0135 -0.7066
  146MOL0     C19169  -0.131   1.880   2.619 -0.1925 -0.3984 -0.1469
  146MOL0     O19170  -0.065   1.781   2.694 -0.0436  0.3909 -0.1888
  146MOL0     C19171   0.063   1.767   2.660 -0.3747  0.0451 -0.4481
  146MOL0     C19172   0.164   1.855   2.692 -0.2487  0.0080  0.0824
  146MOL0     C19173   0.297   1.823   2.657  0.2542 -0.1710  0.0163
  146MOL0     C19174   0.326   1.706   2.590 -0.6604  0.8803 -0.3949
  146MOL0     O19175   0.451   1.676   2.547 -0.5138  0.3308  0.4311
  146MOL0     C19176   0.507   1.766   2.451  0.1632 -0.2281 -0.1893
  146MOL0     C19177   0.648   1.720   2.428 -1.4100 -0.0981  0.6316
  146MOL0     C19178   0.650   1.582   2.353 -0.4708 -0.3139 -0.1978
  146MOL0     C19179   0.798   1.547   2.325 -0.3277 -0.7087 -0.8753
  146MOL0     C19180   0.826   1.412   2.249  0.0434  0.4499  0.2729
  146MOL0     C19181   0.953   1.325   2.271 -0.0042 -0.3536 -0.3039
  146MOL0     C19182   1.074   1.415   2.231  0.5361  0.0443  0.3754
  146MOL0     C19183   1.203   1.359   2.282  0.6961  0.0325 -0.9262
  146MOL0    Cl19184   1.338   1.472   2.217 -0.1248  0.1647  0.1980
  146MOL0     C19185   0.230   1.617   2.557 -0.6205  0.1922  0.5646
  146MOL0     C19186   0.098   1.642   2.605 -1.0085  0.7198 -1.4992
  146MOL0     O19187  -0.075   1.958   2.540 -0.5344  0.1373  0.1852
  146MOL0     C19188  -0.346   2.009   2.558 -0.8647  1.2182 -0.0742
  146MOL0     C19189  -0.483   2.013   2.555  0.7241  0.0525  1.1003
  146MOL0     N19190  -1.242   1.854   2.851 -0.3658 -0.2181  0.0688
  146MOL0     N19191  -1.300   1.827   2.961 -0.7434 -0.3962  0.1463
  146MOL0     C19192  -0.368   1.776   3.801  0.3553  0.7437  0.9265
  146MOL0     C19193  -0.252   1.787   3.881 -0.0667  0.1063  0.1080
  146MOL0     C19194   0.176   1.737   4.025 -0.0830  0.5759  0.1289
  146MOL0     C19195   0.233   1.859   4.015  0.1229  0.5143 -0.5134
  146MOL0     C19196   0.348   1.888   4.100 -0.5821 -0.3019 -0.1330
  146MOL0     C19197   0.404   1.802   4.192 -0.3172  0.4184 -0.4526
  146MOL0     O19198   0.505   1.810   4.285  0.1470  0.4022 -0.8727
  146MOL0     C19199   0.505   1.932   4.348 -0.2285 -0.3056  0.0832
  146MOL0     C19200   0.638   1.955   4.417  0.4484 -0.5655  0.0831
  146MOL0     C19201   0.750   2.012   4.319 -0.3154 -0.2584  0.9747
  146MOL0     C19202   0.889   2.043   4.379  0.0961  0.0946 -0.3372
  146MOL0     C19203   0.985   2.072   4.274  0.1891 -0.0710  0.2998
  146MOL0     C19204   1.056   2.096   4.181 -0.6136  0.7638 -0.3037
  146MOL0     C19205   0.345   1.676   4.191  1.0617  0.1916 -0.1982
  146MOL0     C19206   0.235   1.644   4.109 -0.2242 -0.6179  0.1241
  146MOL0     H19207  -0.004   1.783   3.657 -0.8547  0.4615 -0.4357
  146MOL0     H19208  -0.209   1.741   3.505 -2.0285  0.1706  0.6264
  146MOL0     H19209  -0.404   1.606   3.476 -1.7928  0.0924  4.3365
  146MOL0     H19210  -0.436   1.752   3.374 -0.5942 -2.3445 -1.8379
  146MOL0     H19211  -0.657   1.597   3.514  0.5410  1.8369  0.7525
  146MOL0     H19212  -0.616   1.610   3.338 -0.1818  0.3770 -1.1270
  146MOL0     H19213  -0.673   1.849   3.354  2.0711 -0.2990  0.8293
  146MOL0     H19214  -0.727   1.806   3.523  0.8325  1.0575  1.0720
  146MOL0     H19215  -0.831   1.686   3.266  1.5700 -0.4520  0.5191
  146MOL0     H19216  -0.892   1.649   3.429  1.5805 -2.9148 -0.6611
  146MOL0     H19217  -0.901   1.944   3.334 -2.9654  1.6899  1.1044
  146MOL0     H19218  -0.992   1.855   3.449 -0.0702 -0.2695  0.1531
  146MOL0     H19219  -1.128   1.748   3.272 -1.4483 -0.6055 -3.5597
  146MOL0     H19220  -1.036   1.832   3.145  0.2214 -1.8400  0.0031
  146MOL0     H19221  -1.175   1.992   3.360  0.1425  0.6279  0.0143
  146MOL0     H19222  -1.118   2.050   3.212 -0.1358  1.5001  1.6039
  146MOL0     H19223  -1.369   2.024   3.203 -0.4669  0.0739 -0.9962
  146MOL0     H19224  -1.349   1.845   3.226  3.5184 -2.1848  2.2051
  146MOL0     H19225  -1.197   2.136   3.001  1.6493 -1.2005  0.3948
  146MOL0     H19226  -1.138   2.139   2.714 -0.5418 -0.0774 -0.4216
  146MOL0     H19227  -1.169   1.997   2.647 -5.1160  3.4197  0.7676
  146MOL0     H19228  -0.951   1.907   2.762 -0.3189 -0.0899 -0.5848
  146MOL0     H19229  -0.935   2.081   2.809 -1.7409  1.5424 -0.3971
  146MOL0     H19230  -0.944   1.955   2.522 -1.0065  1.3230 -0.3844
  146MOL0     H19231  -0.948   2.128   2.547  0.2535 -0.3832  0.7225
  146MOL0     H19232  -0.733   2.139   2.633 -3.6119  2.8999 -2.3854
  146MOL0     H19233  -0.739   2.051   2.477  0.0091  0.7581  0.8150
  146MOL0     H19234  -0.554   1.753   2.775 -2.3787 -1.8163 -2.2097
  146MOL0     H19235  -0.331   1.720   2.752 -3.3847 -0.2851  2.5294
  146MOL0     H19236   0.139   1.952   2.733  1.8521  0.0256  1.4462
  146MOL0     H19237   0.363   1.906   2.679 -0.8749  0.9057 -0.5212
  146MOL0     H19238   0.501   1.869   2.489 -0.8733 -0.3046 -0.1226
  146MOL0     H19239   0.445   1.759   2.362 -2.1483 -0.6031  1.3704
  146MOL0     H19240   0.708   1.711   2.520  2.6992 -1.1874 -1.8968
  146MOL0     H19241   0.699   1.797   2.370 -0.3183 -1.6299 -0.5140
  146MOL0     H19242   0.610   1.584   2.251 -0.6484 -1.9655 -0.1867
  146MOL0     H19243   0.599   1.504   2.410  0.5873 -0.1831  0.9793
  146MOL0     H19244   0.847   1.630   2.272 -0.6264  0.3243  0.3855
  146MOL0     H19245   0.863   1.553   2.414 -1.4990  0.4431 -0.0559
  146MOL0     H19246   0.809   1.436   2.144 -1.0881 -0.3872  0.2375
  146MOL0     H19247   0.741   1.353   2.286 -1.8800  2.8893 -0.0122
  146MOL0     H19248   0.966   1.231   2.216 -0.7795 -2.8328  3.4313
  146MOL0     H19249   0.958   1.304   2.378  2.2625  1.7149  0.1009
  146MOL0     H19250   1.077   1.426   2.122 -0.1555 -3.7675 -0.1837
  146MOL0     H19251   1.056   1.519   2.260  1.7292  2.2015 -5.2764
  146MOL0     H19252   1.221   1.257   2.249 -0.8757 -0.9519  1.0509
  146MOL0     H19253   1.222   1.350   2.390  3.0794  1.8116 -1.1063
  146MOL0     H19254   0.254   1.526   2.503 -0.6901  0.5191 -0.0360
  146MOL0     H19255   0.031   1.559   2.586  0.3103 -0.9144  0.5505
  146MOL0     H19256  -0.291   2.076   2.492  0.3701  0.0715 -0.2428
  146MOL0     H19257  -0.526   2.084   2.486  0.9131 -0.9226 -0.0551
  146MOL0     H19258  -0.464   1.789   3.848 -0.2711  2.1027 -0.6493
  146MOL0     H19259  -0.257   1.805   3.987  0.4190  1.2490 -0.0512
  146MOL0     H19260   0.191   1.945   3.963 -0.7819  1.6960  1.9828
  146MOL0     H19261   0.397   1.983   4.081  1.2784 -1.4644 -1.5359
  146MOL0     H19262   0.428   1.933   4.427 -1.3986 -0.9158 -1.0146
  146MOL0     H19263   0.490   2.016   4.280  1.1449 -1.9115 -2.3345
  146MOL0     H19264   0.643   2.006   4.514  1.6570  2.7567 -1.5824
  146MOL0     H19265   0.668   1.855   4.448  0.5687 -0.1870  1.2536
  146MOL0     H19266   0.712   2.103   4.271 -0.2422 -0.8834 -0.3075
  146MOL0     H19267   0.766   1.936   4.242  0.8866 -2.1700  2.9903
  146MOL0     H19268   0.863   2.138   4.428 -1.9675  0.8603 -2.7361
  146MOL0     H19269   0.923   1.969   4.452  1.9842  0.6240 -0.6233
  146MOL0     H19270   1.115   2.133   4.100  0.9578 -1.7419 -0.4206
  146MOL0     H19271   0.383   1.594   4.251  2.1512  1.5648  1.0545
  146MOL0     H19272   0.185   1.555   4.146  1.0380  0.0302  3.8542
  147MOL0     O19273   4.538   1.637   1.011 -0.0028 -0.6528 -0.1817
  147MOL0     C19274   4.566   1.651   0.890  0.8443  0.8539 -0.6385
  147MOL0     O19275   4.494   1.617   0.788 -0.2871  0.0180  0.4359
  147MOL0     C19276   4.358   1.606   0.790  0.6030  0.6486  0.1761
  147MOL0     C19277   4.303   1.532   0.681  0.0030  0.0096 -0.1688
  147MOL0     C19278   4.167   1.517   0.668  0.8726  0.3119  0.6839
  147MOL0     C19279   4.078   1.574   0.761  0.0639  0.5348 -0.2466
  147MOL0     O19280   3.947   1.566   0.720 -0.4240  0.2712  0.4350
  147MOL0     C19281   3.861   1.522   0.832  0.1448 -0.3551  0.4664
  147MOL0     C19282   3.748   1.629   0.849 -0.8452 -0.2201 -0.0866
  147MOL0     C19283   3.615   1.565   0.905  0.0874 -0.6186 -0.5602
  147MOL0     C19284   3.628   1.518   1.054  0.6796  0.2225 -0.5151
  147MOL0     C19285   3.483   1.489   1.111  0.2099  0.3500 -0.0351
  147MOL0     C19286   3.395   1.618   1.107  1.5357  0.3412 -0.4780
  147MOL0     C19287   3.256   1.587   1.173  0.0830  0.3589 -0.3935
  147MOL0     C19288   3.171   1.505   1.084  0.0181  0.7958 -0.1077
  147MOL0     N19289   3.036   1.504   1.137  0.6030 -0.1386 -0.3183
  147MOL0     C19290   2.914   1.567   1.099 -0.4069 -1.5693  0.1179
  147MOL0     C19291   2.819   1.518   1.187 -0.4211 -0.1764  0.4036
  147MOL0     C19292   2.677   1.539   1.164  0.2069  0.1444 -0.2931
  147MOL0     C19293   2.596   1.409   1.176  1.0024 -0.3259  0.8945
  147MOL0     C19294   2.446   1.448   1.172  0.1974 -0.0552 -0.3538
  147MOL0     C19295   2.369   1.333   1.218  0.0620  0.3630 -0.1242
  147MOL0     O19296   2.233   1.380   1.229 -0.1355  0.1079 -0.2573
  147MOL0     C19297   2.130   1.288   1.235  0.0229  0.8309  0.4831
  147MOL0     C19298   1.998   1.334   1.207 -0.2213 -0.2876 -0.0416
  147MOL0     C19299   1.891   1.238   1.204 -0.6426  0.2252  0.4738
  147MOL0     C19300   1.919   1.100   1.216  0.3761 -0.1508  0.7614
  147MOL0     C19301   1.811   1.001   1.222 -0.0213  0.5055 -0.7293
  147MOL0     O19302   1.686   1.049   1.210  0.3752 -0.2112 -0.0636
  147MOL0     C19303   1.580   0.967   1.248 -1.1479  1.1919  0.5502
  147MOL0     C19304   1.476   1.029   1.326  0.4239  0.0109  0.0523
  147MOL0     C19305   1.350   0.975   1.354  0.1704 -0.0071  0.5573
  147MOL0     C19306   1.325   0.846   1.302 -0.4249 -0.2857 -0.0251
  147MOL0     O19307   1.208   0.773   1.326  0.0277  0.4424  0.0973
  147MOL0     C19308   1.093   0.844   1.383  0.1915  0.9693  0.4624
  147MOL0     C19309   0.968   0.758   1.388 -0.8064  0.3901 -0.0689
  147MOL0     C19310   0.846   0.845   1.404  0.5140 -0.7172 -0.2079
  147MOL0     C19311   0.707   0.775   1.400 -0.4024  0.0795  0.1036
  147MOL0     C19312   0.675   0.707   1.532  0.5766  0.2036  0.0409
  147MOL0     C19313   0.547   0.628   1.522  0.0728  0.4024  0.1885
  147MOL0     C19314   0.518   0.566   1.668  0.5071  0.4889  0.4721
  147MOL0     C19315   0.374   0.513   1.690 -0.5896  0.1773 -0.6475
  147MOL0    Cl19316   0.361   0.381   1.573  0.5548  0.2010  0.1857
  147MOL0     C19317   1.425   0.780   1.227  0.0891 -0.6640  0.3689
  147MOL0     C19318   1.550   0.836   1.201 -0.1116 -0.0538  0.3502
  147MOL0     O19319   1.843   0.883   1.238 -0.2938 -0.1852  0.4761
  147MOL0     C19320   2.050   1.056   1.236  0.1358 -0.0777 -0.2786
  147MOL0     C19321   2.148   1.152   1.249 -0.7094  0.5948 -0.5632
  147MOL0     N19322   2.874   1.422   1.270 -0.0392  0.6937 -0.0632
  147MOL0     N19323   3.000   1.427   1.243 -0.3104  0.2674  0.1480
  147MOL0     C19324   4.129   1.660   0.862  0.6619 -0.7361  1.0365
  147MOL0     C19325   4.268   1.678   0.873 -0.6911 -0.0753  0.1957
  147MOL0     C19326   4.711   1.683   0.853 -0.3295 -0.4258 -0.2234
  147MOL0     C19327   4.808   1.711   0.952  0.0262  0.1721  0.0945
  147MOL0     C19328   4.940   1.747   0.917  0.6292  0.6781 -0.1233
  147MOL0     C19329   4.974   1.732   0.782 -0.0825  0.7179  0.1251
  147MOL0     O19330   5.105   1.772   0.762 -0.8727  0.1854 -0.2500
  147MOL0     C19331   5.155   1.789   0.629  0.4935  0.7173  0.6587
  147MOL0     C19332   5.284   1.866   0.648  0.1670 -0.3607  0.3687
  147MOL0     C19333   5.341   1.913   0.513 -0.1881 -0.0546  0.5520
  147MOL0     C19334   5.397   1.788   0.441 -0.3242 -0.0042  0.5600
  147MOL0     C19335   5.476   1.843   0.325 -0.0067 -0.8528  0.1647
  147MOL0     C19336   5.551   1.898   0.247  0.2811  0.2691 -0.6733
  147MOL0     C19337   4.882   1.694   0.683 -0.0401 -0.4558 -0.3912
  147MOL0     C19338   4.750   1.676   0.721  0.4716 -0.5535  0.1080
  147MOL0     H19339   4.371   1.487   0.609  1.6247 -1.0300  1.8949
  147MOL0     H19340   4.134   1.470   0.576  0.7392  1.7667 -0.0387
  147MOL0     H19341   3.915   1.489   0.921 -1.5886 -1.0460  1.2904
  147MOL0     H19342   3.813   1.429   0.798 -0.9013  0.3347  0.0146
  147MOL0     H19343   3.717   1.670   0.753 -2.3933 -3.8195 -1.2862
  147MOL0     H19344   3.792   1.702   0.918  0.9462 -0.3699 -1.0286
  147MOL0     H19345   3.577   1.493   0.833  0.4490 -0.4642 -0.9105
  147MOL0     H19346   3.540   1.645   0.895  0.0398 -0.2779  1.8909
  147MOL0     H19347   3.689   1.428   1.062 -1.9844 -1.6621  0.1416
  147MOL0     H19348   3.677   1.592   1.118 -0.7097 -0.2453  1.1654
  147MOL0     H19349   3.489   1.448   1.212  0.5135  1.0674  0.2422
  147MOL0     H19350   3.444   1.407   1.050  1.1100 -1.0271  1.1704
  147MOL0     H19351   3.368   1.662   1.010  0.4904  0.1293 -0.3001
  147MOL0     H19352   3.448   1.698   1.161 -1.4569  2.5633 -0.5536
  147MOL0     H19353   3.266   1.542   1.272 -0.0140  0.2852 -0.4171
  147MOL0     H19354   3.200   1.681   1.181 -0.9434 -0.3634  1.8953
  147MOL0     H19355   3.205   1.401   1.081 -0.2347  0.6788  0.7636
  147MOL0     H19356   3.166   1.540   0.980  1.2616 -2.0625 -1.2470
  147MOL0     H19357   2.909   1.640   1.019  3.0686 -1.0013  0.2578
  147MOL0     H19358   2.647   1.579   1.067 -1.4998  0.7384  0.4332
  147MOL0     H19359   2.645   1.611   1.240 -0.2337 -1.3744  1.0260
  147MOL0     H19360   2.616   1.359   1.272  0.1067  0.8801  1.7336
  147MOL0     H19361   2.608   1.338   1.094  2.5794 -0.5790  1.3146
  147MOL0     H19362   2.425   1.532   1.240 -0.2755 -1.7895  1.7310
  147MOL0     H19363   2.413   1.472   1.071  0.9897  3.6819  0.1054
  147MOL0     H19364   2.410   1.296   1.311  1.6211  2.0827 -0.0651
  147MOL0     H19365   2.392   1.256   1.144  1.0296 -0.7224  1.2545
  147MOL0     H19366   1.991   1.441   1.190  1.5873 -0.1934 -0.3660
  147MOL0     H19367   1.790   1.277   1.199 -0.5272  0.4018 -0.6313
  147MOL0     H19368   1.497   1.126   1.370  3.1203 -0.6878  0.5189
  147MOL0     H19369   1.280   1.038   1.406 -0.3389 -1.8244  2.1952
  147MOL0     H19370   1.077   0.925   1.311 -1.3957  0.4295  0.1688
  147MOL0     H19371   1.114   0.887   1.482 -1.0317  0.0024  1.1665
  147MOL0     H19372   0.971   0.707   1.484  0.2454  0.7201  0.0856
  147MOL0     H19373   0.970   0.686   1.305  0.8565  0.4644 -0.1449
  147MOL0     H19374   0.839   0.925   1.330 -0.9479  0.7344  1.4168
  147MOL0     H19375   0.854   0.891   1.503  1.9005  0.7195 -0.9474
  147MOL0     H19376   0.633   0.851   1.372  0.6650  1.3967  0.7408
  147MOL0     H19377   0.710   0.704   1.316 -1.0767 -1.2156  1.1378
  147MOL0     H19378   0.664   0.783   1.610 -2.3659 -1.4250  1.3829
  147MOL0     H19379   0.760   0.647   1.565  2.2093  2.2288 -0.2704
  147MOL0     H19380   0.553   0.544   1.453 -0.2015  2.4430 -2.4847
  147MOL0     H19381   0.465   0.691   1.489 -0.6344 -0.6875 -0.1785
  147MOL0     H19382   0.595   0.491   1.691 -1.8230 -1.5726  2.0701
  147MOL0     H19383   0.523   0.652   1.735 -1.7897  2.9132 -2.2315
  147MOL0     H19384   0.298   0.591   1.680 -0.3835  0.6424  1.0755
  147MOL0     H19385   0.359   0.467   1.788 -0.9575 -1.7317 -1.5691
  147MOL0     H19386   1.395   0.682   1.190 -2.7914 -0.2929  1.4654
  147MOL0     H19387   1.633   0.781   1.156  1.3598  1.3005  1.3132
  147MOL0     H19388   2.068   0.954   1.268  1.5708  0.6983  1.5701
  147MOL0     H19389   2.250   1.115   1.260 -0.6231  1.1145  0.5495
  147MOL0     H19390   4.069   1.721   0.929  2.8227  2.7081  0.1108
  147MOL0     H19391   4.306   1.750   0.946  2.0139 -1.9632  0.7843
  147MOL0     H19392   4.779   1.717   1.057  0.6462 -3.2585  0.5782
  147MOL0     H19393   5.020   1.758   0.990 -0.1782 -0.8228  1.0318
  147MOL0     H19394   5.077   1.848   0.580  0.2440  0.8301  1.1839
  147MOL0     H19395   5.180   1.697   0.576  1.2033  2.5423 -2.3668
  147MOL0     H19396   5.257   1.949   0.713 -3.6813 -3.5377  3.3564
  147MOL0     H19397   5.349   1.795   0.701 -1.3515 -2.3171 -0.2770
  147MOL0     H19398   5.415   1.989   0.541  0.1975 -0.3412  0.3188
  147MOL0     H19399   5.270   1.959   0.445  0.0688 -0.2060  0.1806
  147MOL0     H19400   5.461   1.727   0.506  1.0454  0.1702 -0.5784
  147MOL0     H19401   5.310   1.732   0.407 -2.2037  3.1092 -0.1478
  147MOL0     H19402   5.620   1.938   0.176 -0.2089  0.2493 -1.1725
  147MOL0     H19403   4.897   1.674   0.578 -0.5594  3.6554 -1.3987
  147MOL0     H19404   4.674   1.646   0.649  0.4446 -3.5123  1.2435
  148MOL0     O19405   1.288   8.196   2.170 -0.0169 -0.2736  0.3121
  148MOL0     C19406   1.193   8.112   2.192 -0.4548 -0.7363  0.3495
  148MOL0     O19407   1.196   7.977   2.168  0.2095 -0.2526  0.3658
  148MOL0     C19408   1.308   7.906   2.134  0.0603  0.3140  0.8919
  148MOL0     C19409   1.297   7.793   2.055 -0.1693  0.2190  0.7692
  148MOL0     C19410   1.409   7.723   2.004 -0.0979  0.6297  0.1571
  148MOL0     C19411   1.536   7.770   2.029  0.8895 -0.2929 -0.1437
  148MOL0     O19412   1.633   7.699   1.969 -0.6328 -0.0660 -0.1199
  148MOL0     C19413   1.747   7.665   2.049 -0.0059  0.4675  0.0616
  148MOL0     C19414   1.797   7.538   1.985  0.0175  0.2830 -0.8879
  148MOL0     C19415   1.911   7.573   1.887  0.1984 -0.1660 -0.5317
  148MOL0     C19416   1.961   7.453   1.818 -0.1627 -0.2971  0.2804
  148MOL0     C19417   2.046   7.507   1.691  0.0484  0.2986 -1.9572
  148MOL0     C19418   2.080   7.400   1.590 -0.6059 -0.5318 -0.7598
  148MOL0     C19419   2.177   7.453   1.487 -0.0687 -0.1761 -0.1866
  148MOL0     C19420   2.191   7.359   1.363  0.8876 -1.2738  0.5513
  148MOL0     N19421   2.190   7.434   1.240  0.2660  0.5780  1.1324
  148MOL0     C19422   2.078   7.503   1.193 -0.8955  0.4876  0.0855
  148MOL0     C19423   2.118   7.543   1.065 -0.5802  0.7467 -0.2001
  148MOL0     C19424   2.031   7.624   0.977 -0.3694 -0.4275  0.2434
  148MOL0     C19425   2.092   7.764   0.946  0.0383 -0.0457 -0.4548
  148MOL0     C19426   2.001   7.840   0.842  0.1795 -0.3760 -0.2444
  148MOL0     C19427   1.971   7.768   0.710  1.1090  0.5173  0.3656
  148MOL0     O19428   1.863   7.671   0.717 -0.4740 -0.3448  0.1377
  148MOL0     C19429   1.732   7.718   0.717 -0.0064 -0.6288  0.3047
  148MOL0     C19430   1.634   7.623   0.748  0.4341 -0.3716  0.4523
  148MOL0     C19431   1.495   7.662   0.747 -0.0639  0.2653  0.3550
  148MOL0     C19432   1.458   7.793   0.719  0.7970 -0.2675  0.4933
  148MOL0     C19433   1.313   7.824   0.715  0.9788 -0.8057 -0.5932
  148MOL0     O19434   1.236   7.741   0.791  0.0576  0.2857  0.4572
  148MOL0     C19435   1.104   7.763   0.813  0.7188  0.0482 -0.5081
  148MOL0     C19436   1.040   7.883   0.811 -0.4285  0.1637  0.1349
  148MOL0     C19437   0.897   7.893   0.837  0.2219 -0.1529 -0.2310
  148MOL0     C19438   0.830   7.772   0.863 -0.0544  0.2491 -0.2486
  148MOL0     O19439   0.692   7.797   0.873 -0.7268 -0.2247 -0.3464
  148MOL0     C19440   0.604   7.697   0.921  0.8059  0.1029  0.3764
  148MOL0     C19441   0.479   7.778   0.965 -0.4847  0.6123 -0.4571
  148MOL0     C19442   0.384   7.791   0.844 -0.3555  0.1100 -0.0571
  148MOL0     C19443   0.255   7.852   0.885 -0.8396  0.3180  0.5177
  148MOL0     C19444   0.151   7.837   0.759 -0.2135  0.1662 -0.5367
  148MOL0     C19445   0.015   7.910   0.794  0.3283  0.5684  0.4557
  148MOL0     C19446  -0.093   7.797   0.827 -0.2385 -0.3074 -0.9194
  148MOL0     C19447  -0.233   7.854   0.834  0.0738 -0.3838 -0.2348
  148MOL0    Cl19448  -0.256   7.917   1.001 -0.0295 -0.1642 -0.1925
  148MOL0     C19449   0.898   7.655   0.874  0.1516  0.5142  1.0995
  148MOL0     C19450   1.033   7.655   0.849  0.4607  0.5118 -0.9207
  148MOL0     O19451   1.277   7.926   0.657  0.5533  0.5046  0.2143
  148MOL0     C19452   1.553   7.897   0.693 -0.1091 -0.0754 -0.2519
  148MOL0     C19453   1.687   7.855   0.689 -0.3725 -0.5110  0.8695
  148MOL0     N19454   2.245   7.494   1.043  0.6979 -0.6177 -0.0601
  148MOL0     N19455   2.285   7.433   1.144  0.3798  0.2234 -0.4369
  148MOL0     C19456   1.551   7.873   2.123 -0.2616 -0.1791 -0.1294
  148MOL0     C19457   1.440   7.941   2.175  0.7911  0.0180  0.4895
  148MOL0     C19458   1.059   8.171   2.236 -0.2341 -0.2614 -0.0096
  148MOL0     C19459   1.037   8.310   2.265 -0.4498  0.9950 -0.1194
  148MOL0     C19460   0.909   8.358   2.302  0.5856 -0.3196  0.5947
  148MOL0     C19461   0.803   8.264   2.292  0.0469  0.2537 -0.3182
  148MOL0     O19462   0.670   8.306   2.307 -0.3915  0.2749  0.1154
  148MOL0     C19463   0.577   8.298   2.196 -0.5847 -0.1775  0.3587
  148MOL0     C19464   0.436   8.261   2.231 -0.1370 -0.2882  0.2663
  148MOL0     C19465   0.339   8.251   2.107 -0.6284  0.4093 -0.1353
  148MOL0     C19466   0.190   8.213   2.143  0.0948  0.7342  0.4244
  148MOL0     C19467   0.171   8.075   2.189  0.0836 -0.3305  0.3642
  148MOL0     C19468   0.134   7.966   2.229 -0.9259 -0.0035  0.3560
  148MOL0     C19469   0.826   8.130   2.280 -0.5011 -0.2590 -0.6759
  148MOL0     C19470   0.953   8.084   2.252  0.0196 -0.3043 -0.6346
  148MOL0     H19471   1.198   7.756   2.029 -0.2700 -0.7091  2.3935
  148MOL0     H19472   1.396   7.640   1.936  0.0148  0.1823  0.6736
  148MOL0     H19473   1.733   7.652   2.156 -0.8441 -2.0283 -0.3009
  148MOL0     H19474   1.828   7.740   2.048 -2.1534  2.9326 -0.1738
  148MOL0     H19475   1.715   7.491   1.930 -1.1219  2.4832 -1.1717
  148MOL0     H19476   1.837   7.469   2.060 -2.0769 -0.2075 -0.1456
  148MOL0     H19477   1.995   7.618   1.940  0.3328 -0.1383 -0.7697
  148MOL0     H19478   1.880   7.645   1.811 -3.0522 -1.7175 -0.8578
  148MOL0     H19479   2.032   7.404   1.886  0.5155 -0.2623 -0.3837
  148MOL0     H19480   1.890   7.379   1.781  0.3943 -0.8270  0.2424
  148MOL0     H19481   2.134   7.558   1.732  0.9852 -1.5282 -1.6226
  148MOL0     H19482   1.987   7.584   1.640 -2.1829 -1.8423 -2.8044
  148MOL0     H19483   1.985   7.360   1.554 -0.9099 -0.8184  0.3324
  148MOL0     H19484   2.127   7.323   1.652  0.4118 -0.4270 -1.3813
  148MOL0     H19485   2.135   7.551   1.461 -2.1708 -0.4921  1.6887
  148MOL0     H19486   2.270   7.482   1.534 -0.3843  1.3920 -0.4747
  148MOL0     H19487   2.103   7.294   1.359 -0.5848  0.5563  1.8738
  148MOL0     H19488   2.287   7.306   1.372  2.9213  1.8209 -1.0526
  148MOL0     H19489   1.984   7.509   1.248 -2.0726  0.2220 -1.7904
  148MOL0     H19490   1.937   7.639   1.030 -0.6737 -2.4546  0.3598
  148MOL0     H19491   2.016   7.568   0.884  0.0431 -1.5565  0.8390
  148MOL0     H19492   2.191   7.751   0.901 -0.9247 -2.1986 -2.1726
  148MOL0     H19493   2.107   7.812   1.043  0.7018 -0.4311 -0.3697
  148MOL0     H19494   1.902   7.864   0.880 -0.2740 -0.8691 -1.0835
  148MOL0     H19495   2.053   7.934   0.819  2.4453 -1.2591  0.9689
  148MOL0     H19496   2.067   7.722   0.684 -0.6435 -3.3135  0.0597
  148MOL0     H19497   1.942   7.847   0.640  1.1374  0.2481  0.0458
  148MOL0     H19498   1.662   7.522   0.777 -1.1297 -0.8461  0.3852
  148MOL0     H19499   1.416   7.588   0.761  1.3074 -1.3051  0.1114
  148MOL0     H19500   1.092   7.978   0.810 -0.9660  0.4570 -0.1380
  148MOL0     H19501   0.868   7.998   0.833  1.5820  0.2274 -1.1966
  148MOL0     H19502   0.644   7.652   1.013 -1.4956 -0.7523  1.0435
  148MOL0     H19503   0.580   7.624   0.843 -1.1318  1.0136  0.0743
  148MOL0     H19504   0.512   7.872   1.009  0.5087  0.0659 -0.0021
  148MOL0     H19505   0.425   7.726   1.044  1.2915 -0.7332 -0.0582
  148MOL0     H19506   0.363   7.703   0.782 -0.2286  0.8659 -1.2075
  148MOL0     H19507   0.430   7.864   0.777 -1.6440  1.9906  0.9963
  148MOL0     H19508   0.217   7.806   0.976 -0.3412 -1.8530 -0.3031
  148MOL0     H19509   0.271   7.959   0.900  1.7146  0.2923 -1.2737
  148MOL0     H19510   0.147   7.732   0.727  2.9858 -0.9101  2.0828
  148MOL0     H19511   0.201   7.880   0.672 -0.5871 -1.0865 -1.4159
  148MOL0     H19512  -0.030   7.965   0.712 -1.1455  1.4737  1.8282
  148MOL0     H19513   0.033   7.996   0.859  0.0466  0.1395  1.1098
  148MOL0     H19514  -0.081   7.721   0.749  0.6693 -0.3117 -0.7930
  148MOL0     H19515  -0.066   7.754   0.924 -3.4359 -3.5007 -1.2250
  148MOL0     H19516  -0.309   7.777   0.821  0.9622 -2.0953  3.4452
  148MOL0     H19517  -0.244   7.930   0.756  2.0341 -0.3533 -0.5506
  148MOL0     H19518   0.851   7.558   0.882 -3.6956  2.1303  0.4747
  148MOL0     H19519   1.087   7.563   0.864  2.4676  1.8977  1.0053
  148MOL0     H19520   1.524   7.998   0.665 -0.0451  0.1447  0.4476
  148MOL0     H19521   1.772   7.922   0.682  1.6894 -3.0532 -0.1482
  148MOL0     H19522   1.649   7.905   2.159 -1.6751  0.9917  3.0617
  148MOL0     H19523   1.465   8.021   2.243 -1.3187 -0.4677  1.9262
  148MOL0     H19524   1.123   8.375   2.257 -2.0466  3.2017 -0.1899
  148MOL0     H19525   0.886   8.463   2.312  0.6484 -0.3353  0.9397
  148MOL0     H19526   0.618   8.224   2.126 -1.3593 -0.5329  0.2770
  148MOL0     H19527   0.562   8.395   2.146 -2.3636 -1.0533 -0.9184
  148MOL0     H19528   0.431   8.164   2.282 -2.7212 -0.2115  0.3188
  148MOL0     H19529   0.400   8.332   2.306  0.5338 -0.6200  0.9169
  148MOL0     H19530   0.375   8.191   2.023 -2.1175  1.3506 -1.4937
  148MOL0     H19531   0.330   8.352   2.066 -0.7360 -0.0927 -1.4040
  148MOL0     H19532   0.152   8.286   2.215 -0.6046  1.1161 -0.3200
  148MOL0     H19533   0.124   8.221   2.056  2.4284  1.2722 -1.3945
  148MOL0     H19534   0.108   7.864   2.252  1.4279 -0.3438  1.8100
  148MOL0     H19535   0.739   8.065   2.279 -2.1974  1.8893  0.2451
  148MOL0     H19536   0.960   7.979   2.226 -0.7878  0.1768 -3.0135
  149MOL0     O19537   6.392   4.226   7.253  0.5925 -0.1890 -0.3693
  149MOL0     C19538   6.491   4.282   7.297 -0.6216 -0.3668 -0.0545
  149MOL0     O19539   6.595   4.345   7.220 -0.2239  0.2862  0.9242
  149MOL0     C19540   6.588   4.317   7.083 -0.5506 -0.6649 -0.3988
  149MOL0     C19541   6.480   4.344   7.004 -0.4441  0.1335 -0.3839
  149MOL0     C19542   6.486   4.324   6.868  0.5190  0.1707  0.1812
  149MOL0     C19543   6.603   4.288   6.801  0.4063  0.4168  0.6533
  149MOL0     O19544   6.597   4.262   6.664  0.7983 -0.4589 -0.2343
  149MOL0     C19545   6.487   4.176   6.627  0.1579  0.2385  0.1038
  149MOL0     C19546   6.487   4.137   6.480 -0.1897 -0.5644 -0.2715
  149MOL0     C19547   6.598   4.044   6.452 -0.8219  0.0207 -0.2746
  149MOL0     C19548   6.597   4.009   6.311  0.3222  0.5401  0.3282
  149MOL0     C19549   6.729   3.917   6.289  0.4707  0.0470  0.1066
  149MOL0     C19550   6.748   3.861   6.148 -0.4364  0.0591  0.1299
  149MOL0     C19551   6.788   3.958   6.040  0.3812 -1.1663 -0.3361
  149MOL0     C19552   6.923   4.020   6.083 -0.5012  0.1615  0.2221
  149MOL0     N19553   6.983   4.095   5.978  0.0916 -0.0960 -0.3079
  149MOL0     C19554   6.926   4.215   5.940  0.5723  0.2904 -1.2922
  149MOL0     C19555   7.015   4.252   5.842  0.7001 -0.4342  0.8948
  149MOL0     C19556   6.994   4.377   5.744 -0.8969 -0.3094  0.2545
  149MOL0     C19557   7.121   4.443   5.710  0.5542  0.5698  0.4768
  149MOL0     C19558   7.177   4.520   5.829 -0.3407 -0.0456 -0.4293
  149MOL0     C19559   7.331   4.491   5.838  0.8805  0.2903 -0.1367
  149MOL0     O19560   7.388   4.536   5.715 -0.6306  0.4457 -1.3318
  149MOL0     C19561   7.519   4.498   5.688 -0.0341 -0.5613 -0.5807
  149MOL0     C19562   7.610   4.591   5.633  1.2069 -0.2827  0.2321
  149MOL0     C19563   7.745   4.547   5.614  0.4615 -0.4015  0.2998
  149MOL0     C19564   7.788   4.421   5.648 -0.0458 -0.1856  0.8842
  149MOL0     C19565   7.939   4.386   5.634  0.4039  0.5935  0.2660
  149MOL0     O19566   7.972   4.246   5.621  0.1642  0.9155  0.2910
  149MOL0     C19567   8.101   4.219   5.600 -0.2187  0.7706 -0.0501
  149MOL0     C19568   8.185   4.178   5.707  0.7620  0.3498  0.7644
  149MOL0     C19569   8.306   4.130   5.684 -0.1582 -0.5907  0.2882
  149MOL0     C19570   8.357   4.135   5.557 -0.5455 -0.6817 -0.3776
  149MOL0     O19571   8.490   4.089   5.543 -0.0330  0.0172 -0.5102
  149MOL0     C19572   8.583   4.198   5.532  0.5499 -0.0637  0.2816
  149MOL0     C19573   8.699   4.151   5.434  0.1002  0.6981 -0.2105
  149MOL0     C19574   8.655   4.150   5.292 -0.1156  0.1522 -0.1003
  149MOL0     C19575   8.758   4.085   5.195  0.5585 -0.4843  0.3242
  149MOL0     C19576   8.849   4.191   5.130 -0.0648  0.2465 -0.6208
  149MOL0     C19577   8.984   4.201   5.202 -0.2685 -0.1778 -0.0166
  149MOL0     C19578   9.075   4.085   5.162  0.9804  0.5679 -0.3298
  149MOL0     C19579   9.194   4.055   5.251  0.0127 -0.4329  0.5189
  149MOL0    Cl19580   9.336   4.173   5.225 -0.0637  0.7160 -0.3255
  149MOL0     C19581   8.280   4.184   5.445  0.6722  0.2651 -0.5876
  149MOL0     C19582   8.148   4.222   5.468 -0.0013  0.1532 -0.2376
  149MOL0     O19583   8.016   4.483   5.629 -0.3386 -0.4347 -0.3397
  149MOL0     C19584   7.695   4.337   5.707 -0.0574  0.5929 -0.7985
  149MOL0     C19585   7.565   4.368   5.725 -0.4878  0.2831 -0.6410
  149MOL0     N19586   7.117   4.164   5.819  0.2152  0.3427  0.2941
  149MOL0     N19587   7.099   4.068   5.905  0.5388 -0.6627  0.0406
  149MOL0     C19588   6.719   4.276   6.881  1.0232  0.1933 -1.1426
  149MOL0     C19589   6.712   4.282   7.021  0.9808  0.3689  0.1224
  149MOL0     C19590   6.508   4.303   7.443  0.5801  0.4753  0.2896
  149MOL0     C19591   6.412   4.257   7.537 -0.9410  0.1360  1.0775
  149MOL0     C19592   6.420   4.290   7.665  0.1123  0.5471 -0.0700
  149MOL0     C19593   6.521   4.374   7.717  0.3687 -0.6903 -0.0652
  149MOL0     O19594   6.514   4.402   7.853 -0.0479  0.7721  0.0904
  149MOL0     C19595   6.566   4.530   7.897  0.3285  0.0950 -0.1117
  149MOL0     C19596   6.548   4.506   8.044  0.0595 -0.3861 -0.8501
  149MOL0     C19597   6.652   4.402   8.108  0.2906 -0.1448  0.3250
  149MOL0     C19598   6.778   4.483   8.144  0.2486 -0.1166 -0.6987
  149MOL0     C19599   6.749   4.583   8.252 -0.6228  0.4510 -0.1305
  149MOL0     C19600   6.713   4.638   8.343  0.0373 -0.3867 -0.9401
  149MOL0     C19601   6.614   4.425   7.627  0.0429 -0.3509  0.5040
  149MOL0     C19602   6.600   4.396   7.490  0.5684  0.3973 -0.3645
  149MOL0     H19603   6.390   4.387   7.046 -1.2852 -0.5408 -1.4287
  149MOL0     H19604   6.391   4.344   6.821 -0.6094  0.4080  2.4041
  149MOL0     H19605   6.389   4.217   6.654  1.8799  2.8788  2.9224
  149MOL0     H19606   6.489   4.080   6.679  1.4445 -1.4797 -2.8649
  149MOL0     H19607   6.494   4.221   6.410  0.6373 -0.7122 -0.3780
  149MOL0     H19608   6.392   4.087   6.458 -0.2028 -0.0571 -1.4514
  149MOL0     H19609   6.590   3.958   6.519 -0.3038 -1.4377 -2.0046
  149MOL0     H19610   6.693   4.096   6.472 -2.2285  2.4315  0.6198
  149MOL0     H19611   6.507   3.951   6.290  2.4662 -3.1187  0.3762
  149MOL0     H19612   6.594   4.096   6.244 -1.1432 -0.3743 -0.8568
  149MOL0     H19613   6.722   3.825   6.349  0.5957  1.0954  1.8111
  149MOL0     H19614   6.821   3.969   6.320  1.2988 -1.1007 -0.3289
  149MOL0     H19615   6.649   3.826   6.116 -0.8328  1.5891 -0.4118
  149MOL0     H19616   6.823   3.781   6.155  0.3711  0.9529  2.5029
  149MOL0     H19617   6.813   3.914   5.943 -0.9584 -1.1968 -0.6889
  149MOL0     H19618   6.710   4.033   6.023  1.4249  0.4053  1.3815
  149MOL0     H19619   6.993   3.937   6.102  1.0945  1.3869 -0.1143
  149MOL0     H19620   6.933   4.078   6.175  3.7135  0.6305 -0.3013
  149MOL0     H19621   6.836   4.268   5.971  1.6466  0.9396  0.9555
  149MOL0     H19622   6.934   4.449   5.800 -0.1834 -0.9858  1.9636
  149MOL0     H19623   6.937   4.349   5.655  0.5150 -0.4683 -0.6350
  149MOL0     H19624   7.125   4.505   5.620 -0.0014 -0.1547 -0.0596
  149MOL0     H19625   7.182   4.357   5.682 -0.3798  0.2009 -0.5032
  149MOL0     H19626   7.162   4.627   5.819  2.5521  0.5018 -0.0022
  149MOL0     H19627   7.135   4.486   5.924 -0.2421 -0.6741 -0.6039
  149MOL0     H19628   7.335   4.381   5.841  0.3899  0.2020 -1.8781
  149MOL0     H19629   7.365   4.546   5.926 -0.1641  0.2549  0.3062
  149MOL0     H19630   7.577   4.684   5.589 -0.9959 -0.6343  1.0038
  149MOL0     H19631   7.812   4.625   5.579 -2.8208  2.4168 -0.3026
  149MOL0     H19632   8.134   4.178   5.803  0.2367  1.1322  0.4926
  149MOL0     H19633   8.369   4.081   5.758  1.4859  0.4300 -0.3686
  149MOL0     H19634   8.624   4.222   5.630  0.3722 -0.6821  0.5101
  149MOL0     H19635   8.545   4.292   5.491  1.6151  0.0362 -0.5300
  149MOL0     H19636   8.733   4.048   5.453  0.3936  0.8989  0.3955
  149MOL0     H19637   8.790   4.209   5.450  0.1320  0.4213  0.7017
  149MOL0     H19638   8.616   4.246   5.255 -2.3598  0.7010  3.2676
  149MOL0     H19639   8.565   4.088   5.287  1.2305 -1.7953 -2.8273
  149MOL0     H19640   8.824   4.009   5.238 -0.7190 -1.3418  0.8161
  149MOL0     H19641   8.694   4.022   5.133  0.4707 -2.1896  2.0607
  149MOL0     H19642   8.809   4.289   5.156 -1.0112 -0.4778  0.8091
  149MOL0     H19643   8.855   4.187   5.021  2.6228  1.3141 -0.5983
  149MOL0     H19644   8.972   4.208   5.311  2.6507  3.0772  0.2410
  149MOL0     H19645   9.031   4.291   5.162  1.4952 -0.5216  1.1775
  149MOL0     H19646   9.024   3.987   5.165  2.0250  0.0109 -0.4431
  149MOL0     H19647   9.106   4.096   5.058 -1.5202 -0.9675 -1.3471
  149MOL0     H19648   9.228   3.955   5.221 -2.0479 -1.6221  1.8748
  149MOL0     H19649   9.163   4.062   5.355 -1.8562  2.8086 -0.1407
  149MOL0     H19650   8.331   4.196   5.350 -2.1977  3.1630 -1.9651
  149MOL0     H19651   8.066   4.252   5.404 -1.7307 -0.0236  1.7959
  149MOL0     H19652   7.732   4.238   5.732  0.2946  0.7138 -0.8370
  149MOL0     H19653   7.505   4.281   5.751  1.7053 -1.8027 -2.1126
  149MOL0     H19654   6.815   4.253   6.837  3.1365  2.9652  1.5709
  149MOL0     H19655   6.796   4.256   7.085 -0.1328  0.0609  1.5161
  149MOL0     H19656   6.328   4.201   7.496  2.5098 -1.8290 -4.6174
  149MOL0     H19657   6.358   4.244   7.742  0.6679 -1.9924 -1.0202
  149MOL0     H19658   6.516   4.621   7.862  1.1683  0.2743 -0.8848
  149MOL0     H19659   6.672   4.543   7.874  0.5317 -1.5500 -0.2763
  149MOL0     H19660   6.537   4.594   8.108 -2.6971  0.2086 -1.9821
  149MOL0     H19661   6.449   4.460   8.057 -0.0491 -0.1150 -0.6996
  149MOL0     H19662   6.671   4.317   8.041 -3.4101  0.4150 -1.6713
  149MOL0     H19663   6.609   4.345   8.190 -0.3390 -1.0302 -0.5989
  149MOL0     H19664   6.858   4.415   8.175 -0.1844 -2.7851 -4.6728
  149MOL0     H19665   6.813   4.534   8.053 -0.1718 -0.7421 -1.2240
  149MOL0     H19666   6.700   4.696   8.432 -1.8699 -1.6302 -0.3490
  149MOL0     H19667   6.685   4.489   7.679 -1.2340 -1.9931  4.7593
  149MOL0     H19668   6.675   4.427   7.418  1.2759 -2.7816 -1.1744
  150MOL0     O19669  10.987   9.033   7.317 -0.4127  0.2735 -0.4126
  150MOL0     C19670  11.048   8.973   7.406  1.0984 -0.1280 -0.5847
  150MOL0     O19671  10.996   8.866   7.482  0.4264  0.0610  0.7270
  150MOL0     C19672  10.892   8.792   7.440 -0.7035 -0.1389  0.5356
  150MOL0     C19673  10.857   8.768   7.306  0.6027  0.0754 -0.0859
  150MOL0     C19674  10.749   8.680   7.272 -0.4324  0.0403  0.1736
  150MOL0     C19675  10.680   8.609   7.376  0.1354 -0.4995 -0.5200
  150MOL0     O19676  10.567   8.526   7.356 -0.2858 -0.3390 -0.0855
  150MOL0     C19677  10.566   8.437   7.241 -0.8525  0.0805 -0.0080
  150MOL0     C19678  10.464   8.492   7.140 -0.5933 -1.0655 -0.2868
  150MOL0     C19679  10.316   8.473   7.182  0.0847 -0.5539  0.0201
  150MOL0     C19680  10.227   8.462   7.063 -0.7370 -0.3509 -0.4127
  150MOL0     C19681  10.085   8.492   7.105  0.5180 -0.1704  0.4264
  150MOL0     C19682   9.988   8.499   6.988  0.6600 -0.0845  0.4171
  150MOL0     C19683   9.837   8.510   7.018 -0.4130  0.7602 -0.1120
  150MOL0     C19684   9.778   8.653   6.997  0.0005  0.5038  0.7365
  150MOL0     N19685   9.767   8.704   6.855 -0.2778  0.0414  0.1533
  150MOL0     C19686   9.683   8.651   6.756  0.4814 -0.3369  0.1892
  150MOL0     C19687   9.688   8.731   6.648  0.4110  0.2876 -0.2431
  150MOL0     C19688   9.612   8.704   6.523 -0.3853 -0.6404 -0.0281
  150MOL0     C19689   9.490   8.787   6.508 -0.4943 -0.4492  0.0700
  150MOL0     C19690   9.423   8.757   6.364  0.2013  0.3422 -1.1569
  150MOL0     C19691   9.371   8.622   6.353 -0.3285  0.0357 -0.0505
  150MOL0     O19692   9.263   8.603   6.451 -0.8153 -0.3346  0.1172
  150MOL0     C19693   9.131   8.646   6.427 -0.9766  0.0894 -0.7376
  150MOL0     C19694   9.089   8.730   6.322  0.2478  0.4408 -0.5497
  150MOL0     C19695   8.959   8.768   6.316  1.5678 -0.4199 -0.0869
  150MOL0     C19696   8.861   8.736   6.416 -0.1144 -0.1559 -0.5015
  150MOL0     C19697   8.725   8.784   6.402  0.5954 -0.0238 -0.2226
  150MOL0     O19698   8.629   8.762   6.503  0.5720 -0.4763 -0.1912
  150MOL0     C19699   8.496   8.796   6.493  0.9136  0.2853 -1.1524
  150MOL0     C19700   8.436   8.844   6.611  0.1535 -0.3536 -0.0162
  150MOL0     C19701   8.303   8.890   6.621 -0.5464  0.1250 -0.4668
  150MOL0     C19702   8.224   8.878   6.504 -0.0455 -0.1163  0.3923
  150MOL0     O19703   8.091   8.916   6.512  0.7232 -0.1939 -0.1900
  150MOL0     C19704   8.052   9.020   6.598  0.2447 -0.7870  0.0042
  150MOL0     C19705   7.907   9.069   6.580 -0.1059 -0.8560 -0.6535
  150MOL0     C19706   7.898   9.162   6.456  0.1341  0.6985  0.2044
  150MOL0     C19707   7.755   9.185   6.424  0.0878 -0.6109  0.0716
  150MOL0     C19708   7.732   9.281   6.299  0.4790 -0.4120  0.1177
  150MOL0     C19709   7.609   9.380   6.323 -0.9216  0.1471 -0.6436
  150MOL0     C19710   7.484   9.285   6.323 -0.5108 -0.0003  1.1434
  150MOL0     C19711   7.358   9.366   6.295  0.8010  0.2284  0.3006
  150MOL0    Cl19712   7.362   9.472   6.142  0.4722 -0.0895 -0.0489
  150MOL0     C19713   8.281   8.818   6.388 -0.6146 -0.5113  0.6608
  150MOL0     C19714   8.414   8.787   6.383 -0.7721 -0.8106  0.0048
  150MOL0     O19715   8.701   8.839   6.289 -0.2092  0.6271 -0.9777
  150MOL0     C19716   8.899   8.654   6.519 -0.9364  0.0254  0.0444
  150MOL0     C19717   9.038   8.613   6.530 -0.4631  0.3813  0.4303
  150MOL0     N19718   9.788   8.829   6.680  0.5354  0.1464  0.4584
  150MOL0     N19719   9.840   8.803   6.797 -0.1290 -0.4466  0.3572
  150MOL0     C19720  10.718   8.634   7.511  0.0144  0.6363  0.4904
  150MOL0     C19721  10.825   8.722   7.539  0.3468  0.0330  0.7992
  150MOL0     C19722  11.154   9.039   7.464 -0.8101  1.3227 -0.5283
  150MOL0     C19723  11.208   9.153   7.392 -0.2954  1.1377  0.0788
  150MOL0     C19724  11.329   9.212   7.454  0.3102  0.5318  0.2678
  150MOL0     C19725  11.383   9.167   7.573  0.2573  0.9544 -0.5909
  150MOL0     O19726  11.501   9.230   7.613  0.7455 -0.0081 -0.4137
  150MOL0     C19727  11.570   9.191   7.730  0.4014  1.0296  0.5561
  150MOL0     C19728  11.687   9.274   7.751 -0.0350 -0.0333 -0.7553
  150MOL0     C19729  11.658   9.412   7.815 -0.1195 -0.2936  0.1676
  150MOL0     C19730  11.776   9.486   7.861 -0.1616  0.1843  0.0669
  150MOL0     C19731  11.840   9.573   7.759 -0.7080  0.4904 -0.1420
  150MOL0     C19732  11.890   9.645   7.668 -0.1133 -0.0959 -0.0905
  150MOL0     C19733  11.323   9.059   7.647 -0.0046  0.6305  0.4239
  150MOL0     C19734  11.206   9.002   7.588 -0.1088  0.0840 -2.1709
  150MOL0     H19735  10.894   8.827   7.223  0.1383  3.1831  1.7428
  150MOL0     H19736  10.714   8.671   7.170  1.1486 -2.8250 -0.2118
  150MOL0     H19737  10.542   8.332   7.258  0.4884 -0.1079  0.9012
  150MOL0     H19738  10.668   8.434   7.201 -1.4515  1.5802 -1.8008
  150MOL0     H19739  10.486   8.444   7.044  0.7125 -0.4073 -0.3348
  150MOL0     H19740  10.474   8.601   7.134 -1.5460 -1.0373 -2.5170
  150MOL0     H19741  10.289   8.553   7.253  0.9933 -1.4523  1.4312
  150MOL0     H19742  10.304   8.379   7.236 -0.3835 -1.7375 -2.0545
  150MOL0     H19743  10.257   8.533   6.985  2.2562 -0.3341  0.6151
  150MOL0     H19744  10.241   8.357   7.039 -3.0070 -0.2726 -2.4145
  150MOL0     H19745  10.089   8.594   7.144  0.5632 -0.4116  1.0693
  150MOL0     H19746  10.046   8.412   7.169 -2.0249 -1.4190 -2.4861
  150MOL0     H19747   9.990   8.401   6.939 -1.5888  0.8961 -1.8722
  150MOL0     H19748  10.024   8.570   6.913  3.2037 -0.3715  1.2680
  150MOL0     H19749   9.782   8.444   6.950  0.7058  0.4254 -0.7223
  150MOL0     H19750   9.818   8.474   7.120 -0.3038  0.5563 -0.1616
  150MOL0     H19751   9.835   8.715   7.066 -0.5773 -1.2059  2.8493
  150MOL0     H19752   9.674   8.656   7.028 -1.0356 -3.2189 -1.6070
  150MOL0     H19753   9.613   8.569   6.767 -1.8027  1.4950  0.1040
  150MOL0     H19754   9.589   8.597   6.510 -0.1151 -1.3091  3.7156
  150MOL0     H19755   9.674   8.734   6.439 -2.6310 -0.4473 -1.6996
  150MOL0     H19756   9.523   8.891   6.513 -0.7368 -0.2185 -2.1117
  150MOL0     H19757   9.427   8.770   6.595  0.0862 -0.8399  0.4249
  150MOL0     H19758   9.346   8.831   6.342 -0.1475 -0.2389 -1.9120
  150MOL0     H19759   9.504   8.765   6.290  1.3990 -1.5677 -0.1256
  150MOL0     H19760   9.448   8.547   6.371  0.2707  0.9601  1.4158
  150MOL0     H19761   9.344   8.606   6.248  1.6088 -2.3411 -0.2642
  150MOL0     H19762   9.159   8.773   6.251  2.2161  0.5557  1.3634
  150MOL0     H19763   8.933   8.834   6.235  0.7227 -2.2657 -1.3877
  150MOL0     H19764   8.495   8.849   6.702  2.9436 -1.7889 -1.6310
  150MOL0     H19765   8.276   8.921   6.721  1.5051 -0.2974  0.2629
  150MOL0     H19766   8.124   9.099   6.576 -0.7110 -0.0916 -0.7179
  150MOL0     H19767   8.055   8.992   6.703 -1.7235  0.5066  0.4594
  150MOL0     H19768   7.865   9.122   6.665 -2.2624 -1.5023 -1.2409
  150MOL0     H19769   7.826   8.995   6.576 -3.2996  2.1486  2.2515
  150MOL0     H19770   7.941   9.114   6.367 -3.6158 -0.6919 -1.0598
  150MOL0     H19771   7.959   9.250   6.476  0.5000 -0.0220  2.6235
  150MOL0     H19772   7.702   9.093   6.395  1.4749 -1.5908  0.5125
  150MOL0     H19773   7.707   9.219   6.516 -0.1770 -0.8680  0.0319
  150MOL0     H19774   7.719   9.216   6.212  1.0302  1.4640 -1.4426
  150MOL0     H19775   7.819   9.342   6.274 -0.4162  0.8835  0.0634
  150MOL0     H19776   7.612   9.453   6.241  0.0047 -0.7653 -1.4599
  150MOL0     H19777   7.621   9.425   6.422  1.4535 -4.7268  1.6296
  150MOL0     H19778   7.492   9.205   6.248 -1.3179  1.3897 -0.5019
  150MOL0     H19779   7.481   9.221   6.411  0.5819 -0.8450  0.5947
  150MOL0     H19780   7.327   9.433   6.375 -3.2442  0.7572 -1.4328
  150MOL0     H19781   7.263   9.313   6.277  0.5660  0.6227  0.3625
  150MOL0     H19782   8.211   8.789   6.312 -1.5937 -0.0230  1.3513
  150MOL0     H19783   8.456   8.762   6.286  3.1894  1.1087  1.0120
  150MOL0     H19784   8.827   8.637   6.599 -0.6904  1.7301  0.6698
  150MOL0     H19785   9.069   8.556   6.616  1.4332 -1.5837 -1.4468
  150MOL0     H19786  10.679   8.576   7.594 -1.6895 -2.2237 -2.1099
  150MOL0     H19787  10.868   8.727   7.638 -2.2407  5.2925  2.0436
  150MOL0     H19788  11.166   9.177   7.295  0.1466 -0.6385 -0.5758
  150MOL0     H19789  11.383   9.289   7.400  1.4583 -2.0076 -2.5191
  150MOL0     H19790  11.607   9.091   7.705 -3.0881 -0.3134  0.1870
  150MOL0     H19791  11.500   9.182   7.813 -2.2799 -1.7557 -1.7680
  150MOL0     H19792  11.755   9.234   7.827 -2.3088  1.7513  2.4670
  150MOL0     H19793  11.732   9.291   7.652 -0.6207  3.7782 -0.5081
  150MOL0     H19794  11.597   9.393   7.904  0.9413  2.9790  1.7698
  150MOL0     H19795  11.596   9.470   7.746  1.7891  1.1189 -0.4346
  150MOL0     H19796  11.742   9.563   7.931  1.5490  0.0506  1.1060
  150MOL0     H19797  11.848   9.417   7.907  0.7873 -0.4094 -2.1945
  150MOL0     H19798  11.938   9.701   7.590  0.0274  1.3668  1.0146
  150MOL0     H19799  11.375   9.015   7.731 -1.8839 -3.4803 -0.3221
  150MOL0     H19800  11.165   8.923   7.650  0.9590  0.1272 -1.3778
  151MOL0     O19801   5.587   5.848   8.789 -0.4724  0.6043 -0.2135
  151MOL0     C19802   5.631   5.964   8.766  0.5865  0.2573  0.0930
  151MOL0     O19803   5.553   6.082   8.780 -0.0215 -0.3858  0.8866
  151MOL0     C19804   5.429   6.079   8.830  0.5937  0.7159 -0.3689
  151MOL0     C19805   5.326   6.010   8.755 -0.2474  0.9241 -0.0511
  151MOL0     C19806   5.198   6.012   8.804 -0.0357  0.2071  0.9006
  151MOL0     C19807   5.161   6.073   8.930  1.0456  0.5297  0.2676
  151MOL0     O19808   5.030   6.076   8.979 -0.3326  0.3988  0.7972
  151MOL0     C19809   4.921   6.046   8.886  0.3328  0.0280 -1.4625
  151MOL0     C19810   4.786   6.079   8.943 -1.0607 -0.2874 -1.4571
  151MOL0     C19811   4.678   6.046   8.843 -0.3409  0.2336 -0.4478
  151MOL0     C19812   4.535   6.058   8.900 -0.7020 -0.9032  0.8210
  151MOL0     C19813   4.430   6.051   8.788  0.7146  0.4747  0.0647
  151MOL0     C19814   4.291   6.078   8.847  0.3892 -0.5852 -0.1319
  151MOL0     C19815   4.179   6.071   8.738  0.2963  0.1371 -0.1991
  151MOL0     C19816   4.117   5.934   8.720 -0.6875  0.1358  0.1540
  151MOL0     N19817   4.065   5.885   8.848  0.9683  0.9993 -0.2602
  151MOL0     C19818   3.967   5.944   8.936  0.2424 -0.2857  0.2809
  151MOL0     C19819   3.956   5.862   9.041  0.5049  0.6027  1.2870
  151MOL0     C19820   3.866   5.862   9.162  0.6142  0.6993 -0.0254
  151MOL0     C19821   3.745   5.951   9.150 -0.6788  0.5007  0.0851
  151MOL0     C19822   3.658   5.944   9.278 -0.0079  0.4915 -0.3423
  151MOL0     C19823   3.551   6.050   9.282 -0.3525 -0.6480  0.1686
  151MOL0     O19824   3.456   6.024   9.181  0.6303 -0.0462  0.3386
  151MOL0     C19825   3.384   6.131   9.129 -0.0797  0.0911  0.1035
  151MOL0     C19826   3.359   6.249   9.189 -0.8208  0.2758  0.5062
  151MOL0     C19827   3.258   6.329   9.136 -1.4701 -0.2802 -0.0086
  151MOL0     C19828   3.209   6.315   9.011 -0.8620 -0.4665 -0.1865
  151MOL0     C19829   3.124   6.420   8.953  1.4404  0.6301 -0.2508
  151MOL0     O19830   3.042   6.367   8.856  0.5125  0.0487  0.2682
  151MOL0     C19831   2.967   6.448   8.783  0.0592  0.1526  0.6025
  151MOL0     C19832   2.835   6.416   8.772 -0.4544 -0.2522 -0.8507
  151MOL0     C19833   2.740   6.498   8.703 -0.5474 -0.5167  0.6173
  151MOL0     C19834   2.783   6.619   8.654  0.1551 -0.1054  0.0451
  151MOL0     O19835   2.696   6.705   8.595 -0.2023  0.0308  0.2914
  151MOL0     C19836   2.579   6.748   8.670 -0.8035  0.4626  0.0888
  151MOL0     C19837   2.578   6.902   8.660 -0.4115 -0.2100  0.1244
  151MOL0     C19838   2.543   6.939   8.512  0.8776  0.0915  1.0662
  151MOL0     C19839   2.547   7.093   8.484 -0.4194 -0.1751 -0.8900
  151MOL0     C19840   2.475   7.127   8.360 -0.3757 -0.3639 -0.3240
  151MOL0     C19841   2.321   7.140   8.394 -0.0533  0.6226 -0.6365
  151MOL0     C19842   2.232   7.143   8.267  0.5335  0.5129 -0.5689
  151MOL0     C19843   2.076   7.166   8.296 -0.7440 -0.3912  0.1936
  151MOL0    Cl19844   2.004   7.172   8.137 -0.0976 -0.8656  0.3760
  151MOL0     C19845   2.915   6.652   8.658 -0.3762  0.0555 -1.0441
  151MOL0     C19846   3.007   6.568   8.725  0.2353 -0.5528 -0.5675
  151MOL0     O19847   3.116   6.537   8.991  0.3519  0.1567  0.0272
  151MOL0     C19848   3.235   6.186   8.950  0.3889 -0.2343 -0.4092
  151MOL0     C19849   3.312   6.088   9.018 -0.9706 -0.3795  0.4094
  151MOL0     N19850   4.045   5.754   9.022  0.2655 -0.8785  0.7313
  151MOL0     N19851   4.103   5.767   8.906 -0.2515 -0.2119 -0.2047
  151MOL0     C19852   5.260   6.148   8.990 -0.3643  0.2375 -0.8712
  151MOL0     C19853   5.394   6.153   8.945  1.1570  1.1149 -0.1488
  151MOL0     C19854   5.772   5.983   8.777 -0.2661 -0.5667 -0.0406
  151MOL0     C19855   5.836   6.103   8.805 -0.6711 -1.0235  0.2497
  151MOL0     C19856   5.972   6.119   8.812 -1.1365  0.7259  0.5360
  151MOL0     C19857   6.056   6.007   8.781 -0.2527 -0.9332 -0.4989
  151MOL0     O19858   6.190   6.010   8.797  0.3557  0.0519 -0.0017
  151MOL0     C19859   6.252   6.147   8.779  0.0112  1.0514 -0.4433
  151MOL0     C19860   6.401   6.135   8.743  0.1326 -0.0566 -0.4508
  151MOL0     C19861   6.492   6.129   8.863  0.4184 -0.6079 -0.2460
  151MOL0     C19862   6.647   6.108   8.833 -0.3688 -0.5993  0.0136
  151MOL0     C19863   6.686   5.964   8.792 -0.4650 -0.8740  1.3229
  151MOL0     C19864   6.721   5.849   8.761  0.2224  0.1580  0.5569
  151MOL0     C19865   5.997   5.889   8.750 -0.2433 -0.5586  0.1677
  151MOL0     C19866   5.849   5.871   8.750 -0.4678 -0.2440 -0.7051
  151MOL0     H19867   5.327   5.949   8.665 -4.0137  0.5365  0.0248
  151MOL0     H19868   5.128   5.960   8.740  0.3980 -0.1984  0.7425
  151MOL0     H19869   4.916   5.941   8.855 -0.2421 -0.3021 -0.3142
  151MOL0     H19870   4.943   6.106   8.797 -0.8277  1.3677 -0.8785
  151MOL0     H19871   4.780   6.185   8.971  0.6244  0.2266 -2.8185
  151MOL0     H19872   4.782   6.022   9.036 -2.0607  2.7565  0.5496
  151MOL0     H19873   4.689   5.951   8.791 -0.4527 -0.9858  1.6244
  151MOL0     H19874   4.685   6.120   8.763 -1.4379  1.1757  0.2769
  151MOL0     H19875   4.519   5.976   8.970  2.4904  0.2743  3.1644
  151MOL0     H19876   4.526   6.152   8.954  1.0594  0.0437 -0.4250
  151MOL0     H19877   4.427   5.955   8.735  1.3372 -0.5269  1.7536
  151MOL0     H19878   4.450   6.134   8.721 -1.9240  2.1875  1.2505
  151MOL0     H19879   4.274   6.180   8.881 -1.4296 -1.1810  0.8970
  151MOL0     H19880   4.256   6.024   8.936  1.3438  1.6007  1.6676
  151MOL0     H19881   4.107   6.146   8.770 -0.2131  0.2611 -1.5583
  151MOL0     H19882   4.214   6.123   8.648 -1.3944  3.8068  1.0709
  151MOL0     H19883   4.191   5.863   8.683  0.4123  1.1445  0.3438
  151MOL0     H19884   4.048   5.938   8.636  0.4153 -4.1765 -1.2320
  151MOL0     H19885   3.915   6.037   8.918  1.6302  0.6651  0.9955
  151MOL0     H19886   3.932   5.886   9.245 -0.6417 -3.1941  2.3690
  151MOL0     H19887   3.836   5.759   9.184  0.9537  0.3953 -0.9343
  151MOL0     H19888   3.674   5.927   9.070  0.9175  3.0553 -2.2943
  151MOL0     H19889   3.771   6.051   9.114 -3.4622  1.3536  0.1358
  151MOL0     H19890   3.612   5.845   9.285  1.0191  0.0976  1.1439
  151MOL0     H19891   3.731   5.960   9.358  1.6939  1.2337 -1.9660
  151MOL0     H19892   3.602   6.144   9.257 -0.4294  0.2087  2.9150
  151MOL0     H19893   3.514   6.064   9.384  0.5327 -2.8112  0.8489
  151MOL0     H19894   3.415   6.272   9.280 -1.1516  3.6489 -0.0198
  151MOL0     H19895   3.239   6.416   9.198  0.3839 -0.0784  0.3300
  151MOL0     H19896   2.791   6.335   8.830 -1.2524  0.8263  0.0890
  151MOL0     H19897   2.632   6.486   8.708 -0.5525 -0.5597  0.3801
  151MOL0     H19898   2.589   6.718   8.774  2.4396 -1.1265 -0.5534
  151MOL0     H19899   2.489   6.705   8.624  0.3609  0.0841 -1.9882
  151MOL0     H19900   2.678   6.936   8.690 -0.2852 -0.5011  0.0319
  151MOL0     H19901   2.501   6.943   8.727 -2.7656 -1.3730 -1.7199
  151MOL0     H19902   2.444   6.902   8.486  1.7836 -3.2408  1.9120
  151MOL0     H19903   2.603   6.885   8.438 -1.0992 -0.0575 -0.5195
  151MOL0     H19904   2.515   7.147   8.573  2.0509  3.9764 -2.2281
  151MOL0     H19905   2.650   7.124   8.461  0.8020 -1.2359  2.6135
  151MOL0     H19906   2.492   7.049   8.286  0.9812 -3.1084  2.6230
  151MOL0     H19907   2.505   7.223   8.316 -1.2667  0.3242  0.5120
  151MOL0     H19908   2.306   7.235   8.446  1.7190  0.9392 -0.6391
  151MOL0     H19909   2.284   7.077   8.475  1.7770  3.4657  2.7035
  151MOL0     H19910   2.255   7.224   8.198 -0.7694  1.4144  0.0084
  151MOL0     H19911   2.246   7.049   8.213 -1.2152 -0.1893  0.1334
  151MOL0     H19912   2.054   7.257   8.352 -1.9936 -1.1387  0.9583
  151MOL0     H19913   2.036   7.082   8.353  0.1560 -0.2659  1.0289
  151MOL0     H19914   2.931   6.748   8.610 -0.4848  0.4893 -0.2254
  151MOL0     H19915   3.110   6.599   8.734 -0.0727  0.1595  0.9211
  151MOL0     H19916   3.191   6.169   8.852 -1.0026 -0.6996  0.2634
  151MOL0     H19917   3.350   6.000   8.965  0.3136  1.4421 -1.8942
  151MOL0     H19918   5.258   6.197   9.087  0.5058  0.7915 -1.1261
  151MOL0     H19919   5.465   6.200   9.012  0.9307 -1.1492  1.8100
  151MOL0     H19920   5.789   6.200   8.813  1.5604  0.2443 -0.7487
  151MOL0     H19921   6.007   6.217   8.841 -0.3785 -0.0352  2.3250
  151MOL0     H19922   6.251   6.204   8.873  1.4939 -0.7547  0.7446
  151MOL0     H19923   6.192   6.195   8.702  1.7560  2.5144 -0.9733
  151MOL0     H19924   6.402   6.040   8.688 -0.5566 -1.0673  1.2026
  151MOL0     H19925   6.420   6.217   8.673 -1.2526 -0.2842 -1.1194
  151MOL0     H19926   6.445   6.052   8.925 -0.7448  0.4651  0.2396
  151MOL0     H19927   6.486   6.222   8.920  0.7415  0.2307 -1.5436
  151MOL0     H19928   6.682   6.179   8.758 -0.3283  0.6965  1.2153
  151MOL0     H19929   6.702   6.121   8.927  1.2672 -1.4428 -0.7916
  151MOL0     H19930   6.736   5.757   8.708 -1.5133 -0.2017  0.6264
  151MOL0     H19931   6.062   5.802   8.742  0.9271  0.0103  2.5242
  151MOL0     H19932   5.813   5.771   8.728  0.3886 -1.3828  2.5543
  152MOL0     O19933   3.358   5.361   4.051  0.0302 -0.0158  0.4230
  152MOL0     C19934   3.396   5.350   3.931 -0.7369  0.7986 -0.8147
  152MOL0     O19935   3.320   5.288   3.827 -0.0416 -0.3502 -0.1795
  152MOL0     C19936   3.202   5.226   3.855 -0.0128  0.4916 -0.5974
  152MOL0     C19937   3.090   5.284   3.916  0.7917 -0.6599  0.7934
  152MOL0     C19938   2.958   5.233   3.917 -0.0711 -0.2864 -0.2302
  152MOL0     C19939   2.936   5.103   3.874 -0.5546 -0.6408 -0.3044
  152MOL0     O19940   2.804   5.057   3.867  0.8417  1.0881  0.5860
  152MOL0     C19941   2.775   4.920   3.825 -0.4462 -0.4216 -0.3843
  152MOL0     C19942   2.636   4.888   3.869  0.6164  0.2936 -0.4529
  152MOL0     C19943   2.606   4.735   3.867  0.0261 -0.4632  0.0924
  152MOL0     C19944   2.589   4.679   3.731  0.3179 -0.0435  0.8424
  152MOL0     C19945   2.557   4.525   3.720 -0.2347  0.7241 -1.2341
  152MOL0     C19946   2.410   4.497   3.762  0.2825 -0.2011  0.8355
  152MOL0     C19947   2.364   4.348   3.759  0.4468 -0.8117  0.8821
  152MOL0     C19948   2.215   4.344   3.738  0.0090  0.3913  0.0303
  152MOL0     N19949   2.156   4.209   3.755 -0.1788  0.0024  0.1784
  152MOL0     C19950   2.142   4.121   3.650 -0.2986  0.7734 -0.1524
  152MOL0     C19951   2.093   4.007   3.708  0.0858  0.3811 -0.1859
  152MOL0     C19952   2.073   3.866   3.654 -0.4378  0.6885 -0.1961
  152MOL0     C19953   2.212   3.794   3.626  0.3185  0.6439 -0.6347
  152MOL0     C19954   2.298   3.760   3.752 -0.3193 -0.0050  0.3273
  152MOL0     C19955   2.224   3.650   3.836  0.1296  0.7100 -0.5837
  152MOL0     O19956   2.211   3.527   3.756  0.2108 -0.9331 -0.1643
  152MOL0     C19957   2.323   3.454   3.713  0.4742 -0.6875 -1.0104
  152MOL0     C19958   2.447   3.466   3.772  0.0347 -0.1044  0.9061
  152MOL0     C19959   2.561   3.401   3.716  0.9181 -0.0597  0.3173
  152MOL0     C19960   2.544   3.342   3.590 -0.2079  0.1733  0.1134
  152MOL0     C19961   2.667   3.299   3.514  0.1413  0.6283  0.8801
  152MOL0     O19962   2.658   3.174   3.464 -0.3083  0.5189 -0.7454
  152MOL0     C19963   2.773   3.105   3.435 -0.5125 -0.6341  0.8214
  152MOL0     C19964   2.891   3.101   3.507  0.1187  0.3744 -0.3681
  152MOL0     C19965   3.003   3.018   3.472  0.8455  0.6779 -0.0887
  152MOL0     C19966   2.992   2.926   3.365  0.9532  0.3648 -0.2663
  152MOL0     O19967   3.081   2.827   3.331 -0.1782 -0.0430 -0.6098
  152MOL0     C19968   3.199   2.808   3.407  1.1510  0.2685 -0.2514
  152MOL0     C19969   3.257   2.680   3.354 -0.9277  0.4747 -0.6479
  152MOL0     C19970   3.351   2.622   3.459  1.0370 -0.2633  0.8367
  152MOL0     C19971   3.425   2.491   3.421 -0.0102 -0.1470 -0.2534
  152MOL0     C19972   3.531   2.513   3.311 -0.6308  0.0278 -0.1730
  152MOL0     C19973   3.633   2.627   3.334 -0.4368  0.9020  0.0353
  152MOL0     C19974   3.731   2.593   3.453  0.1131 -0.5083  0.2356
  152MOL0     C19975   3.839   2.709   3.470  0.1819  1.4191 -0.1046
  152MOL0    Cl19976   3.943   2.681   3.621  0.2684 -0.4250 -0.0512
  152MOL0     C19977   2.870   2.927   3.296 -0.2385  0.0978 -0.1765
  152MOL0     C19978   2.768   3.016   3.331  0.5596  0.5224  1.1989
  152MOL0     O19979   2.766   3.372   3.514  0.4885 -1.0067 -0.6338
  152MOL0     C19980   2.418   3.327   3.530  0.5848 -0.3758 -0.8267
  152MOL0     C19981   2.302   3.380   3.598 -0.2190  0.2937  0.0096
  152MOL0     N19982   2.076   4.034   3.844  0.0415  0.6290  0.2619
  152MOL0     N19983   2.105   4.153   3.867  0.2329 -0.4260  0.3613
  152MOL0     C19984   3.052   5.044   3.818 -0.2159 -0.1096 -1.0715
  152MOL0     C19985   3.177   5.105   3.799 -0.0648  0.0597  0.4933
  152MOL0     C19986   3.521   5.420   3.902 -0.0917 -0.3711 -0.1937
  152MOL0     C19987   3.603   5.377   3.795 -0.2504  0.3422  0.0552
  152MOL0     C19988   3.733   5.423   3.790 -0.3577  0.5002  0.5394
  152MOL0     C19989   3.772   5.527   3.862  0.3294 -0.1601 -0.4985
  152MOL0     O19990   3.895   5.594   3.845  0.6590 -0.2381 -0.1390
  152MOL0     C19991   4.014   5.507   3.846  0.8440  0.0089  0.0233
  152MOL0     C19992   4.143   5.583   3.853  0.3873  1.1402 -0.4329
  152MOL0     C19993   4.180   5.615   4.000  0.7574 -0.4605 -0.1618
  152MOL0     C19994   4.333   5.651   3.997  0.2711 -0.4248  0.6729
  152MOL0     C19995   4.384   5.649   4.137 -0.4847  0.0624  0.5814
  152MOL0     C19996   4.428   5.647   4.251 -0.7113  0.1547  0.1070
  152MOL0     C19997   3.678   5.587   3.946  0.6702 -0.0064  0.2616
  152MOL0     C19998   3.557   5.534   3.977 -0.2567  0.5635 -0.2077
  152MOL0     H19999   3.095   5.388   3.949 -0.2443 -0.6992  1.0974
  152MOL0     H20000   2.879   5.301   3.945  0.0192 -1.5846  3.9462
  152MOL0     H20001   2.840   4.861   3.891  3.3272  2.0486 -1.5469
  152MOL0     H20002   2.801   4.900   3.721 -0.2634 -0.2631 -0.3702
  152MOL0     H20003   2.571   4.941   3.800 -0.9135  1.7950  2.0113
  152MOL0     H20004   2.620   4.928   3.969  2.6121  0.9104 -0.3233
  152MOL0     H20005   2.519   4.717   3.931  0.6135 -3.7048  0.1594
  152MOL0     H20006   2.682   4.676   3.918 -2.5471 -3.2873  0.9853
  152MOL0     H20007   2.504   4.736   3.692  0.7526 -0.7571 -1.2733
  152MOL0     H20008   2.672   4.697   3.662 -0.3895 -1.8254 -0.5643
  152MOL0     H20009   2.626   4.472   3.787  1.4940  0.3570 -3.2234
  152MOL0     H20010   2.576   4.482   3.621  0.3467 -1.2437 -0.3310
  152MOL0     H20011   2.345   4.550   3.691  0.0244  2.1401  2.6915
  152MOL0     H20012   2.397   4.533   3.864 -2.9769  0.9160  0.1514
  152MOL0     H20013   2.410   4.290   3.678 -3.3000 -1.7276 -0.7971
  152MOL0     H20014   2.372   4.301   3.858 -1.5334 -3.0617  0.0702
  152MOL0     H20015   2.187   4.366   3.634  2.8542  1.7533 -0.5355
  152MOL0     H20016   2.165   4.424   3.794 -0.9174 -0.5606  0.5945
  152MOL0     H20017   2.184   4.121   3.550 -0.7824 -0.1731 -0.3675
  152MOL0     H20018   2.038   3.891   3.553  0.3645 -0.5481 -0.7982
  152MOL0     H20019   1.998   3.812   3.713  0.4812  1.6471  1.9750
  152MOL0     H20020   2.261   3.864   3.557 -1.6013  1.6114 -1.0907
  152MOL0     H20021   2.182   3.702   3.575  1.7509 -1.1732  1.5879
  152MOL0     H20022   2.399   3.724   3.730 -1.0809 -3.5933  2.0205
  152MOL0     H20023   2.324   3.847   3.812  2.1064  0.5888 -1.4222
  152MOL0     H20024   2.126   3.687   3.867  0.8397  0.3310  2.3958
  152MOL0     H20025   2.275   3.620   3.928 -0.4053 -1.7595 -1.0124
  152MOL0     H20026   2.450   3.516   3.868  0.1600  1.4727  0.1141
  152MOL0     H20027   2.649   3.407   3.779  1.4992  1.2775 -0.5829
  152MOL0     H20028   2.897   3.167   3.592 -0.9584 -0.2418  0.2160
  152MOL0     H20029   3.093   3.025   3.533  1.6474  2.9206 -1.4262
  152MOL0     H20030   3.170   2.801   3.512 -0.0461  1.9389 -0.4268
  152MOL0     H20031   3.274   2.888   3.400  1.1416  0.7935  3.7525
  152MOL0     H20032   3.313   2.708   3.264 -1.4040 -0.3237 -1.2018
  152MOL0     H20033   3.177   2.610   3.330 -0.6611  0.9174 -3.1194
  152MOL0     H20034   3.286   2.598   3.544 -0.0686  2.3197  0.8135
  152MOL0     H20035   3.418   2.705   3.485  0.2716  1.3463 -1.9710
  152MOL0     H20036   3.473   2.454   3.512 -0.6595  1.4885  0.8102
  152MOL0     H20037   3.349   2.419   3.390 -0.4559 -0.7732  2.1445
  152MOL0     H20038   3.487   2.528   3.211  4.0445 -0.7589 -2.6066
  152MOL0     H20039   3.584   2.418   3.300 -0.6734  0.0245 -0.3668
  152MOL0     H20040   3.586   2.724   3.352  1.2306  2.1967 -2.1186
  152MOL0     H20041   3.699   2.629   3.246 -0.9132  2.1095 -0.3045
  152MOL0     H20042   3.681   2.597   3.550 -0.6291 -2.8015  0.0049
  152MOL0     H20043   3.771   2.492   3.441  0.7233 -0.0586 -2.0707
  152MOL0     H20044   3.785   2.802   3.490  1.5107  2.1208  0.3749
  152MOL0     H20045   3.912   2.733   3.392  2.4270  2.3854  2.1352
  152MOL0     H20046   2.864   2.855   3.215 -1.6874 -3.3873  2.7694
  152MOL0     H20047   2.676   3.012   3.274 -0.4445 -1.3827  2.8070
  152MOL0     H20048   2.419   3.267   3.439 -1.0404 -1.2625 -0.3026
  152MOL0     H20049   2.201   3.359   3.563 -0.6868 -0.1078  1.5338
  152MOL0     H20050   3.048   4.941   3.784 -1.6280 -0.4939  0.1403
  152MOL0     H20051   3.243   5.051   3.731 -0.1050  0.8764 -0.1983
  152MOL0     H20052   3.558   5.289   3.749 -1.5917  1.4211 -0.7674
  152MOL0     H20053   3.803   5.368   3.728  0.3466  2.6001 -0.6457
  152MOL0     H20054   4.014   5.446   3.755 -0.9296 -0.0009 -0.0041
  152MOL0     H20055   4.009   5.448   3.938 -0.3242  1.3163  0.8354
  152MOL0     H20056   4.223   5.524   3.809  0.5788  1.9168 -1.1458
  152MOL0     H20057   4.129   5.672   3.791  0.9943 -0.1908 -2.5541
  152MOL0     H20058   4.157   5.526   4.058  1.7650 -0.2062  0.6718
  152MOL0     H20059   4.124   5.697   4.045  0.6171 -0.1702 -0.8454
  152MOL0     H20060   4.394   5.576   3.946 -1.2778 -0.9138 -0.5386
  152MOL0     H20061   4.352   5.749   3.952 -0.4689  0.0036  1.2586
  152MOL0     H20062   4.467   5.647   4.351  2.9566  1.2059 -1.1485
  152MOL0     H20063   3.705   5.678   3.998  1.4165  0.2119 -0.4783
  152MOL0     H20064   3.498   5.581   4.056  1.2512 -2.2957  2.8591
  153MOL0     O20065   6.784   7.630   8.002  0.7932  0.1504 -0.3861
  153MOL0     C20066   6.862   7.589   8.092 -0.4092 -0.0651  0.3691
  153MOL0     O20067   6.830   7.539   8.210  0.3560 -0.1571 -0.0253
  153MOL0     C20068   6.697   7.564   8.231 -0.4096  0.1638  1.0516
  153MOL0     C20069   6.648   7.688   8.281 -0.1768  0.0690 -0.5855
  153MOL0     C20070   6.521   7.706   8.304  0.5115 -0.6785  0.2319
  153MOL0     C20071   6.424   7.607   8.282 -0.2656 -0.7487 -0.2026
  153MOL0     O20072   6.291   7.623   8.326  0.5571 -0.0752  0.0695
  153MOL0     C20073   6.183   7.661   8.234 -0.7595  0.4512  0.0070
  153MOL0     C20074   6.083   7.547   8.230  0.2437 -1.1045 -0.0517
  153MOL0     C20075   5.993   7.528   8.357  0.6366  1.0803  0.2227
  153MOL0     C20076   5.885   7.422   8.349  0.3019 -0.1861  0.5068
  153MOL0     C20077   5.769   7.461   8.245 -0.6666 -0.9290  0.5702
  153MOL0     C20078   5.661   7.345   8.248 -0.1860  0.1934  0.2165
  153MOL0     C20079   5.534   7.377   8.193  0.1649  0.2357  0.6550
  153MOL0     C20080   5.538   7.405   8.039 -0.4802 -0.0978 -0.1758
  153MOL0     N20081   5.413   7.437   7.977 -0.6989  0.3241  0.1402
  153MOL0     C20082   5.353   7.563   7.985 -0.7868 -0.0990  0.6299
  153MOL0     C20083   5.232   7.542   7.932 -0.0619 -0.0987 -0.3252
  153MOL0     C20084   5.120   7.629   7.917  0.1855  0.0861  0.8629
  153MOL0     C20085   5.030   7.643   8.045 -0.5563  0.5672  0.7104
  153MOL0     C20086   4.970   7.506   8.096  0.4216  0.2399 -0.0937
  153MOL0     C20087   4.878   7.526   8.205  0.5713  0.0349  0.1658
  153MOL0     O20088   4.760   7.591   8.150  0.4792 -0.0471 -0.2456
  153MOL0     C20089   4.646   7.592   8.238 -0.6634  0.9514  0.5294
  153MOL0     C20090   4.624   7.519   8.359  0.2320 -0.0607  0.0453
  153MOL0     C20091   4.511   7.527   8.429  0.1745  0.0209 -0.2117
  153MOL0     C20092   4.407   7.616   8.386  0.1865  0.8866  0.5279
  153MOL0     C20093   4.289   7.638   8.471 -0.6843  0.6773 -0.0720
  153MOL0     O20094   4.183   7.698   8.420  0.1277 -0.2531  0.0459
  153MOL0     C20095   4.060   7.709   8.483 -0.0108 -0.2512 -0.0109
  153MOL0     C20096   4.014   7.676   8.608  0.5322  0.2606  0.0590
  153MOL0     C20097   3.890   7.708   8.645  0.2767  1.0086 -0.0975
  153MOL0     C20098   3.803   7.786   8.565  0.2564  0.1369 -0.0607
  153MOL0     O20099   3.690   7.832   8.614  0.1082  0.0621  1.3509
  153MOL0     C20100   3.598   7.730   8.664  2.1587 -0.4208 -0.1909
  153MOL0     C20101   3.467   7.805   8.717 -0.1588  0.1677  0.6641
  153MOL0     C20102   3.389   7.863   8.601  0.4927  0.3710  0.7750
  153MOL0     C20103   3.238   7.889   8.637  0.4428  0.1077  0.4898
  153MOL0     C20104   3.152   7.769   8.677  0.3072  0.8167  0.5999
  153MOL0     C20105   3.003   7.808   8.722 -0.1091 -0.3265  0.5372
  153MOL0     C20106   2.995   7.884   8.846 -0.3313  0.3247  0.1106
  153MOL0     C20107   2.853   7.862   8.897 -1.1800  0.9573 -1.1340
  153MOL0    Cl20108   2.727   7.919   8.777  0.0066  0.1044  0.5993
  153MOL0     C20109   3.847   7.820   8.438 -0.1493 -0.3136  0.1738
  153MOL0     C20110   3.975   7.779   8.401  0.1778 -0.5854 -0.0145
  153MOL0     O20111   4.299   7.598   8.588  0.1207  0.0730  0.0879
  153MOL0     C20112   4.429   7.693   8.274  0.4444  0.2047 -0.3631
  153MOL0     C20113   4.547   7.675   8.198  0.0634  0.6549  0.5711
  153MOL0     N20114   5.226   7.411   7.879 -0.6771 -0.3902  0.3144
  153MOL0     N20115   5.332   7.350   7.912 -0.4503  0.5870  0.1941
  153MOL0     C20116   6.471   7.491   8.219  0.6233  0.1128 -0.2274
  153MOL0     C20117   6.605   7.469   8.198  0.7274  0.3957 -0.5721
  153MOL0     C20118   7.009   7.591   8.066 -0.3008 -0.1645 -0.8382
  153MOL0     C20119   7.056   7.595   7.932  0.0155  0.3381 -0.2996
  153MOL0     C20120   7.201   7.603   7.911  0.0669  1.2106  0.1400
  153MOL0     C20121   7.284   7.616   8.026 -0.2526  0.3114  0.4848
  153MOL0     O20122   7.412   7.635   8.027 -0.4922  0.3860  0.8052
  153MOL0     C20123   7.481   7.682   7.906 -0.0571  0.6381 -0.4294
  153MOL0     C20124   7.637   7.695   7.926  0.4008  0.2077  0.3045
  153MOL0     C20125   7.718   7.718   7.799  0.7675  0.4379  1.3685
  153MOL0     C20126   7.673   7.858   7.735  0.4581  0.3235 -0.3352
  153MOL0     C20127   7.745   7.960   7.814  0.8155 -0.9482 -0.8427
  153MOL0     C20128   7.812   8.029   7.886 -0.4933 -0.2356 -0.5759
  153MOL0     C20129   7.235   7.609   8.151  0.7915 -0.5115 -0.0773
  153MOL0     C20130   7.101   7.603   8.177  0.4985 -0.4641 -0.6394
  153MOL0     H20131   6.716   7.770   8.304 -0.7424  0.6547 -0.9687
  153MOL0     H20132   6.484   7.800   8.344  2.0810  0.7790 -1.5372
  153MOL0     H20133   6.226   7.687   8.137 -2.9373  1.1759 -0.8168
  153MOL0     H20134   6.137   7.753   8.270 -1.5424  0.8487 -1.9131
  153MOL0     H20135   6.119   7.447   8.205  3.8941  0.2216 -0.7119
  153MOL0     H20136   6.013   7.581   8.153  0.1455  0.6713  0.7732
  153MOL0     H20137   5.935   7.619   8.375 -2.6513 -0.5400 -1.3626
  153MOL0     H20138   6.057   7.505   8.443  2.0085  2.6903 -0.3235
  153MOL0     H20139   5.933   7.328   8.321 -0.9501 -0.5104 -0.6606
  153MOL0     H20140   5.849   7.401   8.450  2.2968 -0.4202  1.2099
  153MOL0     H20141   5.806   7.482   8.144  0.5801 -3.0582  0.5256
  153MOL0     H20142   5.710   7.546   8.281  0.8431  1.0689 -1.4107
  153MOL0     H20143   5.643   7.329   8.355  0.5504 -2.0822  0.0611
  153MOL0     H20144   5.701   7.251   8.209 -1.2212 -1.1504  2.2106
  153MOL0     H20145   5.464   7.297   8.219  2.0555 -2.9506 -3.0567
  153MOL0     H20146   5.499   7.475   8.228  1.6678  1.3607 -0.8426
  153MOL0     H20147   5.570   7.313   7.990 -1.0402 -0.6308  0.4285
  153MOL0     H20148   5.604   7.490   8.019 -1.4140  0.3271 -1.6002
  153MOL0     H20149   5.379   7.657   8.033 -2.2073  1.0010 -0.6413
  153MOL0     H20150   5.063   7.589   7.833  1.3483 -1.8871  0.9343
  153MOL0     H20151   5.158   7.728   7.891 -1.0094  0.2336 -0.4283
  153MOL0     H20152   4.948   7.712   8.025 -2.7170 -1.4385  2.1240
  153MOL0     H20153   5.074   7.700   8.127 -0.6367  1.3078  0.2535
  153MOL0     H20154   4.917   7.456   8.015 -0.2242  0.6621  0.0664
  153MOL0     H20155   5.052   7.434   8.107  0.8302  0.5656 -0.8457
  153MOL0     H20156   4.924   7.578   8.289  1.5183 -0.7495  0.1420
  153MOL0     H20157   4.846   7.429   8.244  2.3599 -1.0556 -0.9673
  153MOL0     H20158   4.687   7.441   8.400 -1.1704 -2.1487 -1.6070
  153MOL0     H20159   4.504   7.485   8.528 -0.4982  0.7665  0.0759
  153MOL0     H20160   4.077   7.631   8.683  0.2060  0.2897  0.3552
  153MOL0     H20161   3.865   7.678   8.746 -2.7701  0.5083 -0.8748
  153MOL0     H20162   3.627   7.673   8.753 -2.5978 -3.4376 -0.2585
  153MOL0     H20163   3.566   7.659   8.587 -0.5348  0.8034 -0.2858
  153MOL0     H20164   3.482   7.871   8.803  3.4161  0.7687 -0.2398
  153MOL0     H20165   3.407   7.719   8.747 -1.4261  0.3189 -1.2860
  153MOL0     H20166   3.389   7.796   8.515  0.0733 -0.8026  1.6486
  153MOL0     H20167   3.436   7.956   8.568 -0.9922  0.7991 -0.2117
  153MOL0     H20168   3.233   7.960   8.720  0.7877  1.5997 -0.7255
  153MOL0     H20169   3.193   7.933   8.548  2.7147 -2.0957 -1.9188
  153MOL0     H20170   3.203   7.717   8.758 -1.9091 -3.3862 -0.3667
  153MOL0     H20171   3.150   7.696   8.595  2.0079  0.7624  0.5899
  153MOL0     H20172   2.943   7.718   8.740 -1.3665  0.6115  1.1748
  153MOL0     H20173   2.949   7.857   8.641 -1.0224  0.3901  1.5533
  153MOL0     H20174   3.074   7.852   8.915 -1.2368 -2.0676  0.1418
  153MOL0     H20175   3.003   7.991   8.828 -0.4907  1.3412  4.9101
  153MOL0     H20176   2.839   7.928   8.983  2.0676  3.7529 -2.4764
  153MOL0     H20177   2.838   7.758   8.925 -0.4530  1.3082  0.7040
  153MOL0     H20178   3.780   7.858   8.361 -0.1435 -1.4079 -0.3972
  153MOL0     H20179   3.999   7.820   8.304  1.8748 -0.4826  0.4173
  153MOL0     H20180   4.354   7.762   8.237  2.9551  3.0941 -0.4332
  153MOL0     H20181   4.557   7.742   8.113 -2.3144  2.8631  1.9164
  153MOL0     H20182   6.399   7.411   8.210 -1.5129  1.0651  4.8427
  153MOL0     H20183   6.641   7.374   8.161  0.9383 -1.5840  3.9704
  153MOL0     H20184   6.984   7.596   7.851 -1.2871 -1.5523  0.7563
  153MOL0     H20185   7.257   7.597   7.818  1.3004 -0.7618  0.9393
  153MOL0     H20186   7.437   7.780   7.882 -0.8851  0.8658  1.8126
  153MOL0     H20187   7.462   7.623   7.816 -1.8281  0.0028  0.2998
  153MOL0     H20188   7.662   7.773   7.998 -2.2446  0.5543  0.9599
  153MOL0     H20189   7.663   7.602   7.978  0.9957 -0.3865 -1.0267
  153MOL0     H20190   7.706   7.637   7.727 -0.0100  1.3659  0.4194
  153MOL0     H20191   7.822   7.718   7.831  0.6711  1.1431  1.7080
  153MOL0     H20192   7.719   7.856   7.636  1.7682 -1.2774  0.2467
  153MOL0     H20193   7.567   7.863   7.712  0.7316 -0.6418 -1.9636
  153MOL0     H20194   7.883   8.092   7.936  3.2354 -2.8165 -2.1298
  153MOL0     H20195   7.307   7.618   8.232  0.5824  3.5004 -0.1523
  153MOL0     H20196   7.068   7.620   8.279 -1.1514  0.9678 -1.3595
  154MOL0     O20197  11.091   3.861   6.969 -0.7497 -0.3386  0.4170
  154MOL0     C20198  11.137   3.754   6.988 -0.6515 -0.4791 -0.9464
  154MOL0     O20199  11.075   3.657   7.061  0.3677 -0.0430 -0.0809
  154MOL0     C20200  10.948   3.673   7.111 -0.9219  0.1595 -0.1266
  154MOL0     C20201  10.884   3.554   7.120  0.5470 -1.0315 -0.2990
  154MOL0     C20202  10.749   3.543   7.162 -0.7415 -0.7468 -0.0365
  154MOL0     C20203  10.681   3.660   7.199 -0.1017  0.5478  0.1470
  154MOL0     O20204  10.548   3.670   7.227 -0.4180 -0.4394  0.1278
  154MOL0     C20205  10.454   3.579   7.177  0.3122  0.3751 -0.6985
  154MOL0     C20206  10.325   3.655   7.182 -0.5313  0.1491 -0.0909
  154MOL0     C20207  10.308   3.736   7.048 -0.2833  0.8640 -0.1687
  154MOL0     C20208  10.185   3.823   7.057  0.3509 -0.5028 -0.6879
  154MOL0     C20209  10.061   3.747   7.016  0.6623  0.8040 -0.4878
  154MOL0     C20210   9.947   3.848   7.000 -0.3221  0.4464  0.0074
  154MOL0     C20211   9.815   3.781   6.961 -0.4594 -0.9089  0.2088
  154MOL0     C20212   9.710   3.884   6.933 -0.3613 -0.9170 -0.4187
  154MOL0     N20213   9.578   3.819   6.937  0.1653 -0.4504  0.4462
  154MOL0     C20214   9.547   3.725   6.842 -0.0657 -0.4039 -0.6154
  154MOL0     C20215   9.412   3.704   6.872 -0.3570  0.0475  0.9141
  154MOL0     C20216   9.321   3.615   6.796 -0.3897 -0.6260 -0.2478
  154MOL0     C20217   9.188   3.682   6.778  0.9646  0.2665  0.2325
  154MOL0     C20218   9.115   3.602   6.656 -0.5795  0.3448 -0.8120
  154MOL0     C20219   8.983   3.660   6.624  0.0517  0.5735 -0.6269
  154MOL0     O20220   8.900   3.672   6.737  0.6104  0.3461  0.0269
  154MOL0     C20221   8.792   3.758   6.732  0.0921 -0.0607  0.7839
  154MOL0     C20222   8.759   3.831   6.615  0.1858  0.2531  0.3966
  154MOL0     C20223   8.654   3.918   6.607  1.2667 -0.4524  0.1692
  154MOL0     C20224   8.571   3.939   6.716  0.0252  0.0855  0.3617
  154MOL0     C20225   8.444   4.009   6.705  0.1060  0.5832  0.3705
  154MOL0     O20226   8.341   3.998   6.805 -0.2230 -0.4379  0.1863
  154MOL0     C20227   8.235   4.088   6.796 -0.0531  1.1672  0.6527
  154MOL0     C20228   8.102   4.042   6.794  0.0248 -0.1876 -0.6022
  154MOL0     C20229   7.997   4.128   6.806  0.3020  0.2808  0.6545
  154MOL0     C20230   8.014   4.262   6.795 -0.4304  0.1782  0.0209
  154MOL0     O20231   7.920   4.355   6.776 -0.4784  0.3197  0.3446
  154MOL0     C20232   7.824   4.317   6.674 -0.5297 -1.1515  0.6987
  154MOL0     C20233   7.686   4.368   6.703 -0.1646 -0.3150  1.1200
  154MOL0     C20234   7.597   4.358   6.582  0.1287  0.9383 -0.2540
  154MOL0     C20235   7.468   4.430   6.616  0.0978 -0.0773  0.7964
  154MOL0     C20236   7.377   4.433   6.494  0.0432  0.5526  0.2151
  154MOL0     C20237   7.258   4.517   6.501  0.6663 -0.0179 -0.6455
  154MOL0     C20238   7.148   4.426   6.574  0.1105 -1.3186 -0.4517
  154MOL0     C20239   7.045   4.502   6.651 -0.4150 -0.4570 -0.7951
  154MOL0    Cl20240   7.121   4.524   6.817  0.2742 -0.1403 -0.2313
  154MOL0     C20241   8.146   4.310   6.822 -0.1655  0.5727  0.6565
  154MOL0     C20242   8.257   4.226   6.821  1.1786 -0.6872 -0.3821
  154MOL0     O20243   8.440   4.084   6.610 -0.3079 -0.1491 -0.0522
  154MOL0     C20244   8.605   3.879   6.834 -0.3657 -0.0559  0.1829
  154MOL0     C20245   8.719   3.801   6.849 -0.9636  0.8905 -0.1841
  154MOL0     N20246   9.378   3.776   6.986  0.8677  0.0306 -0.2933
  154MOL0     N20247   9.474   3.850   7.022 -0.3492  0.4052  0.3214
  154MOL0     C20248  10.745   3.788   7.186  0.3677 -0.2777 -1.0581
  154MOL0     C20249  10.878   3.790   7.153  0.1931  0.3461  0.2756
  154MOL0     C20250  11.274   3.728   6.915 -0.1060  0.4507  0.2461
  154MOL0     C20251  11.344   3.841   6.870  0.1278  0.8331 -0.0655
  154MOL0     C20252  11.481   3.827   6.830  0.3358  0.6553 -0.1115
  154MOL0     C20253  11.537   3.697   6.840  0.4798  0.4085 -0.1890
  154MOL0     O20254  11.665   3.659   6.801 -0.4421 -0.7316 -0.2633
  154MOL0     C20255  11.769   3.764   6.783  1.1983 -0.4932  0.0619
  154MOL0     C20256  11.818   3.802   6.924  0.2109 -0.6039 -1.5127
  154MOL0     C20257  11.870   3.944   6.943 -0.3483 -0.0392 -1.2196
  154MOL0     C20258  11.837   4.003   7.083 -0.7289  0.2951 -0.4371
  154MOL0     C20259  11.904   4.126   7.110  0.0417  0.1420 -0.4015
  154MOL0     C20260  11.960   4.231   7.134  1.3892 -0.4333  1.0039
  154MOL0     C20261  11.458   3.587   6.864 -0.3832  0.3697  0.5892
  154MOL0     C20262  11.326   3.601   6.919 -0.1850  0.8033  0.2207
  154MOL0     H20263  10.944   3.468   7.090  1.5326 -1.3024  2.2518
  154MOL0     H20264  10.696   3.448   7.167  1.7445 -2.2502 -0.1654
  154MOL0     H20265  10.459   3.490   7.240  2.7232  1.7151  1.1894
  154MOL0     H20266  10.469   3.547   7.073 -1.2612  1.4443 -1.2839
  154MOL0     H20267  10.318   3.724   7.266  3.1708  1.9829 -1.0840
  154MOL0     H20268  10.244   3.584   7.201  0.8085 -1.3408  0.1969
  154MOL0     H20269  10.298   3.675   6.959 -2.0489  2.3811 -1.0818
  154MOL0     H20270  10.397   3.799   7.049  0.6369 -0.3670  1.5503
  154MOL0     H20271  10.174   3.868   7.157 -1.6893 -0.2281 -1.0021
  154MOL0     H20272  10.189   3.913   6.994 -1.2799 -0.1599 -0.3521
  154MOL0     H20273  10.039   3.663   7.082 -1.0031  2.0001  0.5518
  154MOL0     H20274  10.077   3.709   6.914  1.9954 -3.9317  1.2323
  154MOL0     H20275   9.974   3.926   6.929  0.6167  0.5957  0.5105
  154MOL0     H20276   9.937   3.901   7.095 -2.7182  0.1050  0.0032
  154MOL0     H20277   9.832   3.727   6.868  1.3236 -2.4941  1.3925
  154MOL0     H20278   9.790   3.710   7.041 -0.1234 -1.9204 -0.5703
  154MOL0     H20279   9.726   3.932   6.836 -1.3105 -0.0904 -0.1866
  154MOL0     H20280   9.710   3.964   7.008  0.5031 -1.7180  0.4571
  154MOL0     H20281   9.603   3.691   6.755 -0.0978  0.5474 -1.0247
  154MOL0     H20282   9.314   3.524   6.855  1.4405  0.1110  1.1859
  154MOL0     H20283   9.366   3.598   6.698  1.0758  2.1233 -0.1516
  154MOL0     H20284   9.193   3.786   6.744 -0.2796 -0.1135 -1.2534
  154MOL0     H20285   9.120   3.682   6.863 -1.3716 -2.2483 -1.4376
  154MOL0     H20286   9.176   3.622   6.568  0.4083  0.8701 -0.0350
  154MOL0     H20287   9.107   3.495   6.677 -1.1437  0.8907  2.2088
  154MOL0     H20288   8.926   3.598   6.554 -3.8522  2.6500  0.4419
  154MOL0     H20289   9.010   3.757   6.582 -0.8572  1.2876  0.3727
  154MOL0     H20290   8.817   3.805   6.527  3.2026  0.0363  2.3214
  154MOL0     H20291   8.634   3.956   6.508  2.3674  1.0818  0.4952
  154MOL0     H20292   8.086   3.935   6.801 -1.4088  0.0895  0.8096
  154MOL0     H20293   7.896   4.088   6.814 -0.4310  1.3092 -2.1186
  154MOL0     H20294   7.816   4.209   6.658 -0.5148 -1.1161  0.4450
  154MOL0     H20295   7.862   4.363   6.581 -1.4143  0.7348  1.2283
  154MOL0     H20296   7.701   4.475   6.722 -0.6402 -0.0275 -0.0258
  154MOL0     H20297   7.638   4.326   6.792 -0.0991 -0.5362  1.0525
  154MOL0     H20298   7.567   4.255   6.558 -1.9177  1.8218 -1.8519
  154MOL0     H20299   7.638   4.410   6.495  1.9256  3.0904  1.7234
  154MOL0     H20300   7.406   4.383   6.693 -0.0711  0.3976  0.9509
  154MOL0     H20301   7.490   4.530   6.655 -2.8508  0.2083  1.9936
  154MOL0     H20302   7.347   4.329   6.477  0.4810  0.6581 -1.3959
  154MOL0     H20303   7.443   4.466   6.413  1.9873 -1.9674  0.6488
  154MOL0     H20304   7.230   4.546   6.399 -2.2505  0.5965  0.2389
  154MOL0     H20305   7.270   4.605   6.565 -1.1938 -0.2793  0.1150
  154MOL0     H20306   7.100   4.371   6.492 -0.4565 -0.6987 -0.5421
  154MOL0     H20307   7.190   4.352   6.643 -2.1630  0.8962  3.6932
  154MOL0     H20308   6.951   4.452   6.676 -1.8551  1.9487 -1.0492
  154MOL0     H20309   7.025   4.596   6.599  0.3449  1.1439  1.6451
  154MOL0     H20310   8.149   4.418   6.833 -1.2355  0.5385  1.5672
  154MOL0     H20311   8.360   4.253   6.847  0.1721 -0.4053  4.2946
  154MOL0     H20312   8.540   3.879   6.921  0.8754  1.4368  1.1494
  154MOL0     H20313   8.758   3.748   6.935 -1.0367  1.2120  0.0506
  154MOL0     H20314  10.695   3.883   7.201  1.6273  0.5216 -1.7399
  154MOL0     H20315  10.924   3.888   7.145  0.4389  0.2076 -0.0807
  154MOL0     H20316  11.312   3.944   6.863  2.2806  1.5153 -0.9555
  154MOL0     H20317  11.531   3.919   6.801  1.7929 -0.1570 -0.2523
  154MOL0     H20318  11.740   3.856   6.731  4.8587  0.7716  0.0190
  154MOL0     H20319  11.858   3.730   6.729  0.6133 -1.4613 -0.3265
  154MOL0     H20320  11.734   3.800   6.994  1.7857  1.9563  0.6540
  154MOL0     H20321  11.893   3.731   6.963  2.2129  1.7118 -0.8852
  154MOL0     H20322  11.824   4.004   6.864 -0.2779  3.7476  1.3025
  154MOL0     H20323  11.977   3.945   6.922 -0.3122  2.4355 -1.2605
  154MOL0     H20324  11.728   4.008   7.097 -1.6373 -1.3048 -5.0652
  154MOL0     H20325  11.879   3.933   7.156  0.7735 -0.2550 -1.7715
  154MOL0     H20326  11.998   4.330   7.150  1.7929 -0.5417  0.7433
  154MOL0     H20327  11.503   3.489   6.864 -2.3323 -0.6107 -0.9651
  154MOL0     H20328  11.269   3.513   6.946 -1.0242  1.8937  2.2480
  155MOL0     O20329   2.161   3.680   0.255  0.0280 -0.3050 -0.4525
  155MOL0     C20330   2.193   3.582   0.197 -0.6786 -0.7060  0.2699
  155MOL0     O20331   2.197   3.456   0.246  0.1405  0.0198 -0.7004
  155MOL0     C20332   2.161   3.437   0.371 -0.0941 -0.7256 -0.0221
  155MOL0     C20333   2.032   3.457   0.416 -0.6491 -0.9185 -0.3807
  155MOL0     C20334   1.989   3.432   0.548  0.9596  0.3061  0.6552
  155MOL0     C20335   2.084   3.404   0.640 -0.5096 -0.3406 -0.2082
  155MOL0     O20336   2.064   3.391   0.774  0.1794 -0.1887 -0.7458
  155MOL0     C20337   1.921   3.373   0.811  0.3374 -0.1253  0.0374
  155MOL0     C20338   1.895   3.348   0.961  0.5888  0.1419 -0.0699
  155MOL0     C20339   1.747   3.326   1.000 -0.6208  0.1354  0.0409
  155MOL0     C20340   1.717   3.299   1.147  0.2290 -0.6454 -0.0355
  155MOL0     C20341   1.558   3.277   1.161  0.4996 -0.0596  0.6387
  155MOL0     C20342   1.502   3.140   1.105 -1.1705  0.4226  0.2642
  155MOL0     C20343   1.352   3.147   1.087  0.3532 -0.2293  0.7697
  155MOL0     C20344   1.294   3.020   1.007 -1.1353  0.9259 -0.4604
  155MOL0     N20345   1.149   3.032   0.997 -1.2365 -0.6528 -1.0356
  155MOL0     C20346   1.068   2.936   1.039 -0.2786  0.9046 -0.7169
  155MOL0     C20347   0.948   2.976   0.989 -0.5236  0.0623 -0.0069
  155MOL0     C20348   0.817   2.908   0.979 -0.3680  0.7605 -0.0612
  155MOL0     C20349   0.726   2.959   1.087 -0.5224 -0.4628  0.0442
  155MOL0     C20350   0.586   2.902   1.087 -0.4793 -0.7733  0.2216
  155MOL0     C20351   0.502   2.953   1.206 -0.2941  0.1807 -0.5205
  155MOL0     O20352   0.500   2.844   1.296 -1.2225  0.0048 -0.0174
  155MOL0     C20353   0.387   2.818   1.366  0.9154 -0.2211 -0.2299
  155MOL0     C20354   0.348   2.681   1.385  0.2645 -0.8443 -0.7336
  155MOL0     C20355   0.217   2.652   1.437  0.5577 -0.0122  0.0422
  155MOL0     C20356   0.122   2.755   1.468  0.0558 -0.0182  0.5862
  155MOL0     C20357  -0.011   2.726   1.523 -0.4926  0.6306  0.5938
  155MOL0     O20358  -0.099   2.832   1.496 -0.4523  0.4195 -0.2502
  155MOL0     C20359  -0.230   2.812   1.535 -0.0872 -0.1505  0.8705
  155MOL0     C20360  -0.295   2.684   1.527  0.4668  0.2669 -0.4729
  155MOL0     C20361  -0.434   2.670   1.557 -0.7287  0.4870 -0.2719
  155MOL0     C20362  -0.508   2.788   1.576  1.1755  1.0417  0.4101
  155MOL0     O20363  -0.638   2.770   1.612  0.2989  1.0555  0.0817
  155MOL0     C20364  -0.730   2.878   1.631 -1.0940  0.0906  0.2067
  155MOL0     C20365  -0.720   2.928   1.781 -0.2556  0.3749  0.0587
  155MOL0     C20366  -0.804   2.839   1.876 -0.5882  0.3651 -0.0354
  155MOL0     C20367  -0.953   2.848   1.866  0.7845  0.0618  0.3420
  155MOL0     C20368  -1.027   2.758   1.959 -0.6239  0.1415  1.1882
  155MOL0     C20369  -1.176   2.798   1.975  0.1967  0.0057  0.1043
  155MOL0     C20370  -1.249   2.708   2.080 -1.0653  0.4387 -0.1846
  155MOL0     C20371  -1.382   2.770   2.121  0.7016  0.3236 -0.3608
  155MOL0    Cl20372  -1.509   2.742   1.995 -0.3147 -0.2619  0.0247
  155MOL0     C20373  -0.450   2.913   1.566 -0.1376  0.1625 -0.7390
  155MOL0     C20374  -0.311   2.922   1.541 -0.3110  0.3311 -0.1368
  155MOL0     O20375  -0.031   2.616   1.576  0.0893 -0.4324  0.3123
  155MOL0     C20376   0.167   2.892   1.454  0.7736 -0.1232  0.2963
  155MOL0     C20377   0.293   2.919   1.401  0.4346 -0.1533 -1.1978
  155MOL0     N20378   0.971   3.086   0.912  0.1546  0.1846 -0.3812
  155MOL0     N20379   1.094   3.125   0.923 -0.3821 -0.2284  0.1193
  155MOL0     C20380   2.216   3.376   0.603  0.3058  0.4436 -0.1701
  155MOL0     C20381   2.252   3.384   0.464 -0.3093 -0.6888 -0.9180
  155MOL0     C20382   2.243   3.592   0.059 -0.4711 -0.5536 -0.7830
  155MOL0     C20383   2.307   3.485  -0.004 -0.2672 -0.0908 -0.4724
  155MOL0     C20384   2.348   3.490  -0.134  0.9281 -0.3139 -0.0887
  155MOL0     C20385   2.334   3.613  -0.201 -0.1575  0.4452  0.2522
  155MOL0     O20386   2.383   3.618  -0.334 -0.0596 -0.5386 -0.7500
  155MOL0     C20387   2.409   3.740  -0.409  0.4373  0.1937 -0.7195
  155MOL0     C20388   2.530   3.825  -0.353  0.1089  0.4710  0.7522
  155MOL0     C20389   2.541   3.969  -0.413 -0.5044  0.0187 -0.1771
  155MOL0     C20390   2.640   4.056  -0.335 -0.3663 -0.0358  0.4246
  155MOL0     C20391   2.581   4.085  -0.204  0.3553  0.7131  0.0483
  155MOL0     C20392   2.516   4.103  -0.103  0.7788 -0.6386 -1.3262
  155MOL0     C20393   2.274   3.724  -0.142 -0.2335  0.2156 -0.0566
  155MOL0     C20394   2.236   3.711  -0.007 -0.6195 -0.0058  0.0479
  155MOL0     H20395   1.961   3.493   0.342  0.3717 -1.7374 -1.7891
  155MOL0     H20396   1.884   3.449   0.568  0.5816  0.8729 -1.5738
  155MOL0     H20397   1.878   3.289   0.757 -4.9450  0.1755  3.1261
  155MOL0     H20398   1.866   3.465   0.787  1.9956  1.7298  2.7254
  155MOL0     H20399   1.920   3.437   1.018  2.1410  0.0667 -0.5914
  155MOL0     H20400   1.946   3.262   1.005 -2.0930 -0.7344  1.6100
  155MOL0     H20401   1.709   3.243   0.939 -0.2459 -0.7623  0.9923
  155MOL0     H20402   1.692   3.410   0.958 -1.1525  1.2071  2.6614
  155MOL0     H20403   1.780   3.211   1.163  1.6824  0.5405  1.1479
  155MOL0     H20404   1.749   3.383   1.210  2.6213  0.3681 -2.4022
  155MOL0     H20405   1.509   3.360   1.110  0.8837 -0.7898 -0.9659
  155MOL0     H20406   1.520   3.280   1.264 -0.1614  1.3229  0.3802
  155MOL0     H20407   1.528   3.055   1.169  0.8407 -0.7721 -1.9964
  155MOL0     H20408   1.532   3.115   1.003 -2.4739 -2.4795  0.4901
  155MOL0     H20409   1.294   3.154   1.180 -0.7665 -1.8505  0.2294
  155MOL0     H20410   1.331   3.236   1.027  2.8794  0.7061  1.1460
  155MOL0     H20411   1.323   2.924   1.049 -0.9633  1.9989  2.0329
  155MOL0     H20412   1.354   3.019   0.915  2.3653 -0.5650  1.6374
  155MOL0     H20413   1.093   2.844   1.091  0.9982  1.2876 -0.6298
  155MOL0     H20414   0.828   2.799   0.975 -1.4091  0.6387  0.1718
  155MOL0     H20415   0.763   2.938   0.888  0.6014  1.1861 -0.5142
  155MOL0     H20416   0.722   3.068   1.085  1.5200 -0.3530 -0.3629
  155MOL0     H20417   0.763   2.937   1.187 -0.8399 -0.8027  0.0890
  155MOL0     H20418   0.542   2.943   0.995  1.6489 -0.4079 -0.6871
  155MOL0     H20419   0.588   2.793   1.081  1.3343 -0.7111 -1.1185
  155MOL0     H20420   0.399   2.974   1.173 -0.3383  0.7090 -0.0603
  155MOL0     H20421   0.549   3.043   1.247  2.4543 -0.9456 -1.0530
  155MOL0     H20422   0.419   2.604   1.354  3.2297  1.5800 -0.4274
  155MOL0     H20423   0.187   2.549   1.448  0.6015 -0.0891 -0.5206
  155MOL0     H20424  -0.254   2.587   1.504 -1.3309 -0.6844  0.1391
  155MOL0     H20425  -0.481   2.572   1.553 -1.4521  0.8009  0.3064
  155MOL0     H20426  -0.826   2.830   1.606 -0.6650 -0.1242 -1.1456
  155MOL0     H20427  -0.718   2.965   1.566  2.0038 -1.0240 -0.8622
  155MOL0     H20428  -0.755   3.031   1.786  0.8451  1.0938 -3.7333
  155MOL0     H20429  -0.614   2.931   1.808 -0.3328 -1.7521  0.8261
  155MOL0     H20430  -0.783   2.861   1.981 -0.0261  1.1020 -0.2935
  155MOL0     H20431  -0.768   2.738   1.858  0.0000  1.1100 -3.7669
  155MOL0     H20432  -0.975   2.949   1.903 -2.9240 -1.6349  3.4935
  155MOL0     H20433  -0.994   2.837   1.765 -1.8973 -0.4289  1.3949
  155MOL0     H20434  -0.985   2.765   2.060  0.3963 -2.0872  0.9719
  155MOL0     H20435  -1.016   2.654   1.929  1.7086  1.2402 -2.4576
  155MOL0     H20436  -1.224   2.782   1.878  0.6858 -0.9841  0.0178
  155MOL0     H20437  -1.177   2.904   1.999  5.4285  0.2795  0.1968
  155MOL0     H20438  -1.261   2.606   2.045 -0.2326 -0.1366  1.1011
  155MOL0     H20439  -1.191   2.694   2.172 -0.8339 -0.8365 -0.5084
  155MOL0     H20440  -1.386   2.879   2.131 -2.1267  0.2713 -0.2132
  155MOL0     H20441  -1.413   2.712   2.208 -0.1745 -5.4975 -4.0222
  155MOL0     H20442  -0.509   3.000   1.594 -2.6216 -1.6509 -0.0419
  155MOL0     H20443  -0.272   3.023   1.529 -0.1063  0.8696  3.8787
  155MOL0     H20444   0.095   2.972   1.468 -3.8484 -3.8345  0.3897
  155MOL0     H20445   0.324   3.022   1.389  2.8772 -0.3977  1.8889
  155MOL0     H20446   2.296   3.359   0.675  2.0334 -2.7777 -2.6104
  155MOL0     H20447   2.354   3.366   0.431 -0.6477  1.5065 -3.4361
  155MOL0     H20448   2.322   3.393   0.051 -0.2651  0.4745  0.4941
  155MOL0     H20449   2.388   3.401  -0.182  0.1883 -1.3351  1.1650
  155MOL0     H20450   2.323   3.808  -0.410  0.4740  0.3788  1.9013
  155MOL0     H20451   2.436   3.706  -0.510  0.1670 -0.3128 -0.6236
  155MOL0     H20452   2.525   3.824  -0.244 -0.9479 -0.5992  0.7195
  155MOL0     H20453   2.626   3.783  -0.386  1.1160  2.4744  1.0064
  155MOL0     H20454   2.442   4.012  -0.430  0.1028  0.7438 -2.1245
  155MOL0     H20455   2.581   3.951  -0.513  2.0708 -0.1935  0.8071
  155MOL0     H20456   2.729   3.999  -0.308 -0.6199 -0.7146 -0.1545
  155MOL0     H20457   2.683   4.143  -0.386  1.7802 -0.1075  1.9605
  155MOL0     H20458   2.454   4.110  -0.016  1.9697  0.3314 -0.5261
  155MOL0     H20459   2.262   3.820  -0.191 -1.9195  0.9590  1.6727
  155MOL0     H20460   2.194   3.799   0.043  1.9384  0.7079  1.0767
  156MOL0     O20461  10.650   1.838   4.098 -0.5020 -0.0798 -0.3678
  156MOL0     C20462  10.689   1.952   4.134 -0.8090 -1.0798 -0.6144
  156MOL0     O20463  10.818   1.996   4.138  0.2120  0.5512 -0.9201
  156MOL0     C20464  10.911   1.920   4.217 -0.8535  0.0309 -0.0317
  156MOL0     C20465  11.041   1.976   4.226 -0.7565 -1.1488 -0.0397
  156MOL0     C20466  11.143   1.926   4.314  0.2176  0.6797 -0.4466
  156MOL0     C20467  11.113   1.821   4.405 -0.0242 -0.5376  0.0787
  156MOL0     O20468  11.220   1.766   4.475  0.1541 -0.3313 -0.8042
  156MOL0     C20469  11.351   1.826   4.484 -1.0311 -0.0735  0.2019
  156MOL0     C20470  11.453   1.718   4.539  0.1664 -0.3023 -0.1345
  156MOL0     C20471  11.423   1.697   4.685 -0.3161  0.2499  0.4209
  156MOL0     C20472  11.527   1.597   4.728 -0.5292  0.1091 -0.6995
  156MOL0     C20473  11.539   1.594   4.893  0.8297  0.9098  0.2132
  156MOL0     C20474  11.644   1.481   4.938  0.0391 -0.8910 -1.0313
  156MOL0     C20475  11.702   1.525   5.080  0.0760 -0.3324 -0.0473
  156MOL0     C20476  11.616   1.508   5.204  0.3644  0.1966 -0.2246
  156MOL0     N20477  11.485   1.575   5.183  0.3221 -0.2679 -0.8082
  156MOL0     C20478  11.465   1.710   5.187  0.0406 -0.8909  0.5034
  156MOL0     C20479  11.330   1.718   5.164  0.7094 -1.2532  0.3335
  156MOL0     C20480  11.259   1.851   5.165 -0.5862 -0.1252  0.2641
  156MOL0     C20481  11.216   1.901   5.030  0.0991  0.0127 -0.0482
  156MOL0     C20482  11.093   1.822   4.969 -0.6228  0.2983  0.1423
  156MOL0     C20483  11.027   1.881   4.838  0.8868 -0.0799  0.5205
  156MOL0     O20484  10.966   2.009   4.881  0.2499  0.3378  0.0614
  156MOL0     C20485  10.858   2.000   4.959  0.2339  0.0192 -0.2026
  156MOL0     C20486  10.773   1.891   4.991 -0.1556  0.0834 -0.5755
  156MOL0     C20487  10.666   1.915   5.080 -0.5093 -0.3995 -0.0316
  156MOL0     C20488  10.651   2.039   5.151  0.0398  0.4354 -0.2977
  156MOL0     C20489  10.549   2.047   5.253  1.0755 -0.2171  0.3417
  156MOL0     O20490  10.528   1.944   5.341  0.5954 -0.5541  0.2391
  156MOL0     C20491  10.447   1.969   5.447  0.2660  0.4981 -0.6060
  156MOL0     C20492  10.490   1.918   5.576  0.6766 -0.0381 -0.0871
  156MOL0     C20493  10.399   1.924   5.680  0.3061 -0.3537  0.5332
  156MOL0     C20494  10.283   2.004   5.677  0.0815  0.9976 -0.3518
  156MOL0     O20495  10.202   1.992   5.789  0.8988 -0.1599  0.2909
  156MOL0     C20496  10.064   2.032   5.771  0.7219  0.2923 -0.0839
  156MOL0     C20497   9.982   1.991   5.899 -0.0946  0.5604  1.2109
  156MOL0     C20498   9.834   2.030   5.888 -0.1192 -0.3619 -0.1716
  156MOL0     C20499   9.751   1.940   5.980  0.1992  0.6056 -0.4865
  156MOL0     C20500   9.605   1.996   5.966 -0.5773 -0.1835 -0.6335
  156MOL0     C20501   9.528   1.922   6.081  0.3433 -0.4327  0.1116
  156MOL0     C20502   9.398   1.999   6.115  0.3279  1.0360 -0.8359
  156MOL0     C20503   9.289   1.915   6.182 -1.0564  0.2603  0.0524
  156MOL0    Cl20504   9.368   1.830   6.311 -0.1060  0.2756  0.5278
  156MOL0     C20505  10.248   2.062   5.564 -0.0335  0.4116  0.2357
  156MOL0     C20506  10.324   2.047   5.444  0.0468  0.7874  0.3579
  156MOL0     O20507  10.516   2.165   5.271  0.0709 -0.5684 -0.2960
  156MOL0     C20508  10.739   2.140   5.122 -0.2134 -0.2611  0.4421
  156MOL0     C20509  10.835   2.126   5.020 -0.0429 -0.3426 -0.3451
  156MOL0     N20510  11.273   1.593   5.173  0.1445 -0.1914 -0.5260
  156MOL0     N20511  11.372   1.504   5.178  0.0167 -0.4185 -0.2768
  156MOL0     C20512  10.982   1.774   4.400 -0.0281 -0.0585 -0.7540
  156MOL0     C20513  10.884   1.823   4.310 -0.4484 -0.0260  0.1116
  156MOL0     C20514  10.594   2.057   4.199 -0.8444 -0.6685  0.1290
  156MOL0     C20515  10.466   2.024   4.236  0.3558  0.3546  0.3757
  156MOL0     C20516  10.383   2.120   4.292  0.3047  0.4792  0.3807
  156MOL0     C20517  10.420   2.248   4.305  0.2467  0.5629  0.1903
  156MOL0     O20518  10.341   2.355   4.347 -0.3388  0.2393  0.5486
  156MOL0     C20519  10.197   2.345   4.354  0.1825 -0.1976  0.7668
  156MOL0     C20520  10.123   2.329   4.222  1.0417  0.6549  0.1961
  156MOL0     C20521  10.124   2.464   4.145 -0.0003 -0.5822 -0.5342
  156MOL0     C20522  10.050   2.464   4.009 -0.1155  0.1585 -0.9377
  156MOL0     C20523  10.128   2.374   3.921  0.4303 -0.6417 -0.1883
  156MOL0     C20524  10.179   2.294   3.843 -0.2401 -0.5066 -0.0857
  156MOL0     C20525  10.547   2.285   4.279 -0.9712 -0.4320  0.5607
  156MOL0     C20526  10.638   2.193   4.218  0.4197 -0.8270 -0.4903
  156MOL0     H20527  11.067   2.065   4.170  0.0606 -2.0621 -1.1600
  156MOL0     H20528  11.238   1.978   4.313  0.6019 -0.0043 -2.0759
  156MOL0     H20529  11.349   1.907   4.557  0.0031  1.0232 -0.9325
  156MOL0     H20530  11.390   1.861   4.388  1.2654 -0.3016  0.9986
  156MOL0     H20531  11.554   1.755   4.522  0.8733 -2.9218 -2.4703
  156MOL0     H20532  11.443   1.630   4.473  0.5918 -1.2336  1.0114
  156MOL0     H20533  11.326   1.652   4.707  0.2100 -2.6404 -2.4103
  156MOL0     H20534  11.420   1.798   4.727 -2.0964  2.1064 -3.6957
  156MOL0     H20535  11.507   1.506   4.670 -2.0238  1.6501 -2.7386
  156MOL0     H20536  11.624   1.635   4.697  0.3190  0.7681  2.3880
  156MOL0     H20537  11.437   1.568   4.922  0.5895  1.7289  0.1161
  156MOL0     H20538  11.555   1.696   4.929  0.5775  0.0564  2.9333
  156MOL0     H20539  11.721   1.492   4.861 -0.2685  0.6926 -1.1552
  156MOL0     H20540  11.601   1.380   4.941  1.9487 -1.7090  1.0818
  156MOL0     H20541  11.801   1.480   5.087 -0.0502 -0.7086 -0.6312
  156MOL0     H20542  11.722   1.633   5.081 -2.8099  0.3010  0.9624
  156MOL0     H20543  11.659   1.553   5.294 -0.9045 -1.5524  1.3367
  156MOL0     H20544  11.607   1.402   5.232  3.4598 -1.0127 -3.0811
  156MOL0     H20545  11.543   1.785   5.196 -0.4259 -0.3612  0.1512
  156MOL0     H20546  11.328   1.927   5.204  0.9884 -0.8762 -0.9299
  156MOL0     H20547  11.177   1.830   5.235 -2.6532  0.1684 -1.9670
  156MOL0     H20548  11.293   1.898   4.953  1.1959 -0.2212  1.0183
  156MOL0     H20549  11.180   2.002   5.048 -3.3095 -1.2282  0.8748
  156MOL0     H20550  11.139   1.724   4.951  0.8639  0.6139  1.9119
  156MOL0     H20551  11.016   1.795   5.041 -0.5148 -0.2018  0.0736
  156MOL0     H20552  10.948   1.815   4.802 -0.7107 -0.0382  3.6193
  156MOL0     H20553  11.099   1.900   4.758 -2.7760  1.0291 -2.8131
  156MOL0     H20554  10.776   1.794   4.943  0.7627 -1.0271  1.6095
  156MOL0     H20555  10.604   1.836   5.121  1.4239 -2.6285 -1.1655
  156MOL0     H20556  10.578   1.858   5.596  0.9066  0.0058 -0.9240
  156MOL0     H20557  10.413   1.866   5.771  2.2976 -2.1794 -0.8374
  156MOL0     H20558  10.023   1.968   5.692  0.6540 -1.9331  1.6432
  156MOL0     H20559  10.068   2.139   5.751  2.0897  0.5048  1.1837
  156MOL0     H20560  10.034   2.019   5.991  1.4288 -2.0842  1.2544
  156MOL0     H20561   9.992   1.882   5.891 -0.1734  0.6968 -1.7964
  156MOL0     H20562   9.801   1.999   5.789  1.1677 -1.4347 -0.2846
  156MOL0     H20563   9.824   2.137   5.907 -1.3139  0.0082 -2.4863
  156MOL0     H20564   9.772   1.839   5.945  1.2969  0.9031 -0.7297
  156MOL0     H20565   9.807   1.951   6.074 -0.1849 -0.6518 -0.0860
  156MOL0     H20566   9.563   1.981   5.866 -1.1699  0.0487 -0.4291
  156MOL0     H20567   9.609   2.104   5.981  1.0775  0.1243 -2.7674
  156MOL0     H20568   9.588   1.921   6.172  1.7148  0.3653 -0.7317
  156MOL0     H20569   9.528   1.817   6.049  2.1814  0.0589 -1.7337
  156MOL0     H20570   9.426   2.064   6.198  1.6436 -1.0762  0.4929
  156MOL0     H20571   9.354   2.049   6.028  0.0557  0.7868 -0.8420
  156MOL0     H20572   9.234   1.846   6.118  1.1592 -1.8419  0.2920
  156MOL0     H20573   9.214   1.984   6.222 -1.2505 -0.1404  0.3811
  156MOL0     H20574  10.163   2.129   5.562 -0.5081 -0.1591  0.9058
  156MOL0     H20575  10.295   2.106   5.358  1.2790  0.2799 -0.4398
  156MOL0     H20576  10.741   2.237   5.171  0.5221  1.3203 -2.4901
  156MOL0     H20577  10.894   2.213   4.993  1.1337 -0.2184  2.3509
  156MOL0     H20578  10.947   1.695   4.466 -1.0775  1.0414  0.0473
  156MOL0     H20579  10.781   1.788   4.308 -0.5693  0.3578 -0.8258
  156MOL0     H20580  10.436   1.926   4.203  2.7758  0.0884 -1.2762
  156MOL0     H20581  10.279   2.088   4.301  0.1351 -0.0528 -2.5304
  156MOL0     H20582  10.161   2.440   4.395  2.6286  2.0406 -1.8081
  156MOL0     H20583  10.175   2.268   4.428 -1.6282 -0.8425 -0.3726
  156MOL0     H20584  10.169   2.253   4.157  0.0258  0.9538 -0.9101
  156MOL0     H20585  10.024   2.292   4.248  1.4734 -0.7716 -0.0995
  156MOL0     H20586  10.227   2.499   4.132  0.3629 -0.9929  0.9875
  156MOL0     H20587  10.085   2.545   4.208 -0.4664  1.1348 -2.8951
  156MOL0     H20588   9.950   2.422   4.021 -0.5813  1.3336 -0.6153
  156MOL0     H20589  10.043   2.567   3.972  0.8823  1.3948  2.0245
  156MOL0     H20590  10.228   2.222   3.781 -1.6791 -0.6700 -1.0894
  156MOL0     H20591  10.571   2.389   4.301 -4.2838  0.9397 -1.5431
  156MOL0     H20592  10.731   2.230   4.177 -1.3984  1.8909 -2.5145
  157MOL0     O20593   3.960   4.328   0.146  0.4693  0.1588 -0.4931
  157MOL0     C20594   4.041   4.266   0.217 -0.0799 -0.5083  0.3951
  157MOL0     O20595   4.011   4.188   0.328 -0.4008 -0.1332  0.3384
  157MOL0     C20596   3.886   4.146   0.360  0.9958 -0.0646 -0.0708
  157MOL0     C20597   3.848   4.016   0.330 -0.6358 -0.0190  0.4167
  157MOL0     C20598   3.724   3.974   0.344  0.1122 -0.7542 -0.2313
  157MOL0     C20599   3.628   4.054   0.410 -0.0939 -0.4078  0.0116
  157MOL0     O20600   3.504   3.989   0.428 -0.5228  0.1857 -0.2187
  157MOL0     C20601   3.407   4.045   0.509  0.7937  0.3728 -0.3759
  157MOL0     C20602   3.316   3.933   0.547  0.6088  0.5293 -0.0063
  157MOL0     C20603   3.180   3.982   0.599 -0.0608 -0.5447  0.8775
  157MOL0     C20604   3.080   4.022   0.486  0.2187 -0.1320  0.0243
  157MOL0     C20605   2.944   4.043   0.550 -1.4819 -0.0642 -0.4404
  157MOL0     C20606   2.838   4.043   0.439  0.2718  0.0789 -0.0425
  157MOL0     C20607   2.846   4.159   0.339 -0.6497 -0.3439  0.0424
  157MOL0     C20608   2.753   4.141   0.221  0.0333  0.5279  0.1380
  157MOL0     N20609   2.703   4.270   0.177 -0.2322 -0.2330  0.6670
  157MOL0     C20610   2.762   4.337   0.073 -0.6732 -0.8739 -0.5438
  157MOL0     C20611   2.707   4.459   0.087 -0.2070 -0.4172  0.2722
  157MOL0     C20612   2.761   4.576   0.008 -0.2684  0.0095 -0.2743
  157MOL0     C20613   2.889   4.640   0.065 -0.0915 -0.2787  0.8056
  157MOL0     C20614   3.010   4.541   0.077 -0.2448 -0.3913 -0.2143
  157MOL0     C20615   3.135   4.612   0.121  0.1047 -0.7135 -0.6486
  157MOL0     O20616   3.236   4.523   0.159 -0.2898  0.1049  0.3791
  157MOL0     C20617   3.358   4.574   0.208  0.5508 -0.2773  0.3897
  157MOL0     C20618   3.385   4.698   0.255 -0.2730  0.1096  0.9805
  157MOL0     C20619   3.514   4.731   0.311  0.7181  0.6888  0.4256
  157MOL0     C20620   3.617   4.636   0.313 -0.2617  0.0953 -0.5986
  157MOL0     C20621   3.756   4.670   0.358  0.9183 -0.7347  0.5099
  157MOL0     O20622   3.839   4.576   0.389 -0.2491  0.6844 -0.2430
  157MOL0     C20623   3.969   4.595   0.423 -0.5738 -0.3549 -1.0939
  157MOL0     C20624   4.070   4.639   0.335  0.4158  0.8582 -0.9639
  157MOL0     C20625   4.203   4.645   0.376 -0.1070  0.2039  0.6204
  157MOL0     C20626   4.240   4.614   0.506 -0.2476  0.2656  0.4649
  157MOL0     O20627   4.374   4.624   0.541 -0.1156 -0.7468  0.0813
  157MOL0     C20628   4.436   4.510   0.600  0.5594 -0.3627  0.0481
  157MOL0     C20629   4.569   4.555   0.642 -0.3125 -0.1403 -0.7750
  157MOL0     C20630   4.674   4.549   0.528  0.5476 -0.0792 -0.0617
  157MOL0     C20631   4.680   4.684   0.452  0.2585  0.5182 -0.4325
  157MOL0     C20632   4.778   4.676   0.338 -0.9051  0.2844 -0.7352
  157MOL0     C20633   4.753   4.796   0.245 -0.1346 -0.3691 -0.2320
  157MOL0     C20634   4.793   4.930   0.305  0.2364  0.1932 -0.2216
  157MOL0     C20635   4.942   4.921   0.341 -0.0942  0.1055  0.2593
  157MOL0    Cl20636   5.008   5.094   0.329  0.3390  0.3270  0.1230
  157MOL0     C20637   4.144   4.580   0.598  0.6756 -0.2303 -0.0707
  157MOL0     C20638   4.009   4.567   0.557  0.1459  0.5112 -0.1162
  157MOL0     O20639   3.781   4.791   0.381 -0.2352  0.0223  0.3713
  157MOL0     C20640   3.587   4.513   0.262  0.1859 -0.4837  0.9889
  157MOL0     C20641   3.463   4.485   0.213 -1.1863  0.0637  0.0875
  157MOL0     N20642   2.618   4.466   0.189 -0.1592 -0.2930  0.2074
  157MOL0     N20643   2.613   4.351   0.238 -0.5561 -0.4408 -0.0347
  157MOL0     C20644   3.658   4.193   0.439  0.9129 -0.7036  0.1426
  157MOL0     C20645   3.785   4.238   0.407 -0.8724 -0.0322  0.0781
  157MOL0     C20646   4.187   4.297   0.197 -0.4900  0.6506  0.4429
  157MOL0     C20647   4.226   4.399   0.108  0.9475  0.1459  0.9972
  157MOL0     C20648   4.364   4.427   0.106 -0.5650  0.8444 -0.8409
  157MOL0     C20649   4.457   4.355   0.183  0.5904  0.1426  0.1962
  157MOL0     O20650   4.591   4.364   0.165  0.0008 -0.6742 -0.4198
  157MOL0     C20651   4.652   4.416   0.051  0.1925  0.6173 -0.5785
  157MOL0     C20652   4.796   4.357   0.027  0.6541 -0.0064  0.0834
  157MOL0     C20653   4.900   4.427   0.102 -0.1547  0.2002 -0.4655
  157MOL0     C20654   5.034   4.357   0.072 -0.2586  0.2451 -0.8407
  157MOL0     C20655   5.147   4.398   0.160 -0.6995  0.5554 -0.5751
  157MOL0     C20656   5.247   4.437   0.228 -0.0377  0.3706  0.2296
  157MOL0     C20657   4.411   4.255   0.278 -0.3366  0.7152  0.1195
  157MOL0     C20658   4.280   4.227   0.282 -0.0526 -0.5160 -0.0624
  157MOL0     H20659   3.927   3.954   0.289 -1.6476 -1.2665  0.2948
  157MOL0     H20660   3.683   3.877   0.315 -1.8295  0.5396 -2.1747
  157MOL0     H20661   3.357   4.118   0.444 -1.1708 -0.9302 -0.3858
  157MOL0     H20662   3.444   4.099   0.596  2.3159  0.6684 -1.1727
  157MOL0     H20663   3.357   3.872   0.628 -1.7705 -1.6418 -0.3257
  157MOL0     H20664   3.297   3.872   0.459  1.5944 -0.1403  0.2345
  157MOL0     H20665   3.200   4.069   0.662 -0.4540 -0.3631  0.7516
  157MOL0     H20666   3.130   3.905   0.658 -2.2833 -0.4170 -0.7346
  157MOL0     H20667   3.099   4.118   0.437  0.6836  0.1993  0.8346
  157MOL0     H20668   3.069   3.940   0.415 -0.0917 -0.9320  0.9759
  157MOL0     H20669   2.947   4.145   0.591 -2.2920 -0.1229 -0.2137
  157MOL0     H20670   2.927   3.969   0.628  2.1672 -1.6604 -1.0006
  157MOL0     H20671   2.741   4.055   0.489 -0.7931  1.1558 -2.2456
  157MOL0     H20672   2.847   3.944   0.394  0.1928 -1.0563  2.2579
  157MOL0     H20673   2.811   4.249   0.391 -3.7198 -1.3856 -0.0052
  157MOL0     H20674   2.940   4.179   0.287 -1.7760 -2.6172 -3.1481
  157MOL0     H20675   2.668   4.078   0.250  1.5335 -1.4222  0.5088
  157MOL0     H20676   2.795   4.088   0.135  0.7909  2.8249 -0.9871
  157MOL0     H20677   2.844   4.311   0.007  1.3589  2.0114  0.6398
  157MOL0     H20678   2.679   4.647   0.005 -2.2718 -2.1776 -0.8469
  157MOL0     H20679   2.780   4.543  -0.095  0.5571 -2.2865  0.5251
  157MOL0     H20680   2.872   4.687   0.162 -3.2276  3.0595 -1.1037
  157MOL0     H20681   2.914   4.712  -0.014 -0.6697 -0.5908  0.3236
  157MOL0     H20682   2.994   4.453   0.140  0.5438 -0.5036 -0.1539
  157MOL0     H20683   3.023   4.500  -0.024 -0.4358 -1.7821  0.3097
  157MOL0     H20684   3.103   4.671   0.207  1.2284 -0.9398 -0.0641
  157MOL0     H20685   3.177   4.683   0.049  3.4730 -0.9640  0.8948
  157MOL0     H20686   3.308   4.775   0.255 -1.6681 -1.2100 -0.8991
  157MOL0     H20687   3.540   4.828   0.353 -0.8048  0.8647  1.0069
  157MOL0     H20688   4.030   4.668   0.238  1.2993 -2.6256 -2.4965
  157MOL0     H20689   4.277   4.678   0.303  0.6584 -1.9122  0.3677
  157MOL0     H20690   4.436   4.433   0.523 -0.8465  2.3288 -2.8698
  157MOL0     H20691   4.383   4.467   0.685  0.5837 -1.1226 -0.3146
  157MOL0     H20692   4.597   4.490   0.725  2.1906  0.6935 -0.8816
  157MOL0     H20693   4.557   4.651   0.693  0.7447 -0.5019  0.1839
  157MOL0     H20694   4.653   4.472   0.453 -2.5652 -0.7478  1.3357
  157MOL0     H20695   4.774   4.532   0.568  0.5065 -2.7083 -0.8395
  157MOL0     H20696   4.579   4.713   0.421 -0.0588  2.1855  1.9429
  157MOL0     H20697   4.711   4.759   0.525  0.2241 -0.8182  0.9926
  157MOL0     H20698   4.753   4.588   0.277 -1.4297 -0.3030  0.2860
  157MOL0     H20699   4.878   4.677   0.382 -1.4783  3.3452  0.7519
  157MOL0     H20700   4.646   4.802   0.221 -0.4903  1.5031  1.5349
  157MOL0     H20701   4.808   4.781   0.152 -0.8118  1.6004 -1.0099
  157MOL0     H20702   4.771   5.010   0.234 -1.1091 -2.1197 -2.6026
  157MOL0     H20703   4.738   4.950   0.397  0.0801  1.6634 -0.6251
  157MOL0     H20704   4.999   4.861   0.270 -2.1142  0.1185 -1.4958
  157MOL0     H20705   4.954   4.879   0.441  1.8676  1.2601  0.5564
  157MOL0     H20706   4.170   4.572   0.704  4.8450  1.0459 -0.8217
  157MOL0     H20707   3.939   4.528   0.630 -0.0359 -1.1819 -1.1573
  157MOL0     H20708   3.663   4.436   0.257  0.8907  0.2696 -0.6409
  157MOL0     H20709   3.445   4.382   0.185 -2.1235  0.5426 -1.1909
  157MOL0     H20710   3.583   4.266   0.468  0.4513 -1.4815  0.9611
  157MOL0     H20711   3.820   4.339   0.426 -1.2219  0.5603 -2.1035
  157MOL0     H20712   4.148   4.450   0.053  0.6947  1.1568  2.2764
  157MOL0     H20713   4.409   4.505   0.046  0.4015  0.4983 -0.5750
  157MOL0     H20714   4.654   4.525   0.056  0.2141  0.6209 -0.6500
  157MOL0     H20715   4.599   4.383  -0.039 -1.4171  1.4753  0.0115
  157MOL0     H20716   4.790   4.249   0.044  4.3148 -0.4704 -0.8119
  157MOL0     H20717   4.821   4.365  -0.079 -1.2925  0.3397 -0.3968
  157MOL0     H20718   4.883   4.435   0.209 -0.5620  0.3103 -0.5379
  157MOL0     H20719   4.903   4.531   0.069 -0.5049  0.3746  0.0472
  157MOL0     H20720   5.027   4.250   0.094  2.2902  0.3501  0.9142
  157MOL0     H20721   5.058   4.368  -0.034  0.0934 -0.1911 -0.8067
  157MOL0     H20722   5.336   4.489   0.257  0.1672 -0.2146  0.6810
  157MOL0     H20723   4.482   4.200   0.338  1.2666 -1.8464 -3.7097
  157MOL0     H20724   4.238   4.158   0.354  0.7759 -0.8686  0.0836
  158MOL0     O20725   1.233   4.346  10.157  0.2514  0.4713  0.6234
  158MOL0     C20726   1.244   4.231  10.200  0.0392  0.4518 -0.0693
  158MOL0     O20727   1.143   4.172  10.263 -0.1808 -0.5146  0.2040
  158MOL0     C20728   1.010   4.231  10.265 -0.5176  0.4816  0.7613
  158MOL0     C20729   0.933   4.215  10.378 -0.2754 -0.1092 -1.1080
  158MOL0     C20730   0.799   4.240  10.381  1.0159  0.3142 -0.0980
  158MOL0     C20731   0.736   4.287  10.263  0.1734  0.1623  0.0105
  158MOL0     O20732   0.606   4.330  10.277  0.8286  0.1019  0.7916
  158MOL0     C20733   0.507   4.294  10.180 -0.4779 -0.2274 -0.2055
  158MOL0     C20734   0.375   4.325  10.237  0.8620  0.4896  0.1512
  158MOL0     C20735   0.262   4.257  10.155 -0.2410  0.0173 -0.2191
  158MOL0     C20736   0.116   4.276  10.215  0.5756  0.2644  0.6501
  158MOL0     C20737   0.003   4.219  10.120  1.5100  0.6837 -0.1689
  158MOL0     C20738   0.001   4.065  10.141 -0.2977 -0.8904  0.7234
  158MOL0     C20739  -0.138   4.013  10.094  1.1932 -0.1586  0.7089
  158MOL0     C20740  -0.152   3.860  10.120  0.2278  0.1694 -0.0527
  158MOL0     N20741  -0.284   3.798  10.087 -0.5089 -0.1931 -0.8397
  158MOL0     C20742  -0.343   3.701  10.163  0.7683  1.5185 -0.2590
  158MOL0     C20743  -0.472   3.704  10.119 -0.2599 -0.3738  0.3383
  158MOL0     C20744  -0.585   3.618  10.168 -0.2332  0.0737  0.2684
  158MOL0     C20745  -0.715   3.698  10.196  0.0544  0.4956 -0.0594
  158MOL0     C20746  -0.800   3.600  10.275  0.2921  0.4722 -0.5103
  158MOL0     C20747  -0.948   3.635  10.312  0.2704 -0.6085 -0.2154
  158MOL0     O20748  -1.021   3.654  10.192  0.1460 -0.6503 -0.7023
  158MOL0     C20749  -1.147   3.597  10.191 -0.9575 -0.2449 -0.2443
  158MOL0     C20750  -1.196   3.518  10.082  0.6337 -0.1964  0.9739
  158MOL0     C20751  -1.330   3.470  10.075  0.1411 -0.7088 -0.2415
  158MOL0     C20752  -1.422   3.508  10.169  0.3982  1.0059 -0.0514
  158MOL0     C20753  -1.564   3.444  10.164 -0.3313  0.4634  0.0734
  158MOL0     O20754  -1.594   3.373  10.048  1.7391 -0.3917 -0.4500
  158MOL0     C20755  -1.725   3.332  10.033  0.5558 -0.2586  0.0600
  158MOL0     C20756  -1.761   3.202  10.082  0.5509  0.5455 -0.2250
  158MOL0     C20757  -1.896   3.155  10.076  0.8139 -0.9000  0.2084
  158MOL0     C20758  -2.000   3.223  10.009  0.5265  0.1831 -0.2127
  158MOL0     O20759  -2.124   3.166   9.997  0.1090 -0.1979  0.9963
  158MOL0     C20760  -2.220   3.229   9.909 -0.6962 -0.5401  0.1123
  158MOL0     C20761  -2.282   3.339   9.999  0.8229 -0.2420  0.3859
  158MOL0     C20762  -2.342   3.283  10.124  0.9336  0.7587  0.0578
  158MOL0     C20763  -2.418   3.393  10.207  0.2986  0.6989  0.1011
  158MOL0     C20764  -2.457   3.352  10.343 -0.1411 -0.9273  0.1809
  158MOL0     C20765  -2.568   3.236  10.354 -1.0412 -0.6864 -0.4831
  158MOL0     C20766  -2.603   3.201  10.494 -0.1193  0.3273  0.0643
  158MOL0     C20767  -2.707   3.080  10.484  0.1997  0.2234  0.1212
  158MOL0    Cl20768  -2.769   3.034  10.634  0.0812  0.1116  0.0168
  158MOL0     C20769  -1.960   3.353   9.958 -0.1651  0.4346  0.3321
  158MOL0     C20770  -1.830   3.409   9.972  0.1076  0.0569 -0.1359
  158MOL0     O20771  -1.632   3.465  10.259  0.0560 -0.8464 -0.2126
  158MOL0     C20772  -1.381   3.581  10.274 -1.1332  0.3537 -0.8210
  158MOL0     C20773  -1.245   3.627  10.280 -0.0553  0.5666  0.4144
  158MOL0     N20774  -0.472   3.803  10.020  0.2582 -0.3668 -0.0392
  158MOL0     N20775  -0.356   3.858   9.993  1.6824  0.6346  0.5323
  158MOL0     C20776   0.807   4.297  10.140 -0.2490 -0.0728  0.1447
  158MOL0     C20777   0.953   4.267  10.141 -0.1885  0.3754  0.0117
  158MOL0     C20778   1.358   4.145  10.169 -0.8840 -0.1165  1.3977
  158MOL0     C20779   1.371   4.018  10.205 -0.1078  0.8737 -0.0143
  158MOL0     C20780   1.487   3.939  10.180  0.8320 -0.5346  0.7579
  158MOL0     C20781   1.597   3.990  10.117 -0.8016  0.0063 -0.5522
  158MOL0     O20782   1.705   3.906  10.092 -0.3680  0.4620 -0.1328
  158MOL0     C20783   1.812   3.958  10.178  0.3005  0.3525 -0.1263
  158MOL0     C20784   1.925   4.020  10.098  0.1152 -0.0513  0.6509
  158MOL0     C20785   2.038   4.071  10.191 -0.3449  0.3633 -0.9191
  158MOL0     C20786   2.174   4.087  10.115 -0.8027  0.6063 -0.6754
  158MOL0     C20787   2.259   4.171  10.199 -0.3209  0.1015 -0.0235
  158MOL0     C20788   2.317   4.259  10.263  0.5004  0.1369 -0.3727
  158MOL0     C20789   1.592   4.121  10.071  0.0533  0.1557  0.7643
  158MOL0     C20790   1.469   4.195  10.091  0.1972  0.0564  0.1114
  158MOL0     H20791   0.995   4.178  10.459  0.8760  2.3077 -0.8066
  158MOL0     H20792   0.737   4.234  10.470  1.6665  1.8872  0.4844
  158MOL0     H20793   0.508   4.189  10.151 -0.3121  0.2354 -2.0452
  158MOL0     H20794   0.514   4.346  10.084  2.5002  0.6879  0.3991
  158MOL0     H20795   0.360   4.432  10.250  1.9600  0.8447 -1.3154
  158MOL0     H20796   0.377   4.282  10.338 -0.1259  2.1299  0.9091
  158MOL0     H20797   0.288   4.151  10.139 -3.2417 -1.0080  1.0413
  158MOL0     H20798   0.267   4.308  10.058 -2.2834  0.5614 -0.0803
  158MOL0     H20799   0.112   4.217  10.306  0.4308 -1.5235 -0.4560
  158MOL0     H20800   0.087   4.378  10.242  0.9623 -0.1060  2.5746
  158MOL0     H20801   0.020   4.254  10.018  0.0966  1.3618 -0.1906
  158MOL0     H20802  -0.096   4.257  10.146 -0.2914 -2.4621 -1.7879
  158MOL0     H20803   0.028   4.043  10.244  0.4973  1.2671  1.0171
  158MOL0     H20804   0.083   4.022  10.082 -0.2034 -0.7726  0.7694
  158MOL0     H20805  -0.217   4.065  10.148 -1.7215 -2.8320 -0.6743
  158MOL0     H20806  -0.141   4.032   9.986 -1.2359 -2.1027  0.3717
  158MOL0     H20807  -0.125   3.824  10.219  0.5531 -2.4558 -1.0102
  158MOL0     H20808  -0.079   3.817  10.051  0.2328  0.4595 -0.2309
  158MOL0     H20809  -0.313   3.655  10.257 -0.7940  0.4901 -0.2301
  158MOL0     H20810  -0.553   3.567  10.260 -2.7083 -2.2619 -0.0315
  158MOL0     H20811  -0.605   3.534  10.102  2.5082 -1.0995  0.7738
  158MOL0     H20812  -0.768   3.727  10.105 -2.0129 -0.5053  0.7439
  158MOL0     H20813  -0.687   3.791  10.247  1.1880  1.3099 -2.0902
  158MOL0     H20814  -0.807   3.511  10.212 -0.3013 -1.3469  1.9609
  158MOL0     H20815  -0.768   3.579  10.378 -0.2821  2.3976  0.1124
  158MOL0     H20816  -0.952   3.722  10.377  2.8995 -0.8683  0.4105
  158MOL0     H20817  -0.995   3.553  10.367  0.1769 -1.0300 -0.8999
  158MOL0     H20818  -1.127   3.485  10.005  0.1479 -0.9898  0.8644
  158MOL0     H20819  -1.363   3.420   9.984 -1.7456  1.4880 -0.8538
  158MOL0     H20820  -1.678   3.153  10.131  0.0679 -1.5678 -1.4061
  158MOL0     H20821  -1.931   3.062  10.118  0.0761 -1.0995 -0.8150
  158MOL0     H20822  -2.288   3.157   9.865 -0.1387  0.5082 -2.6794
  158MOL0     H20823  -2.178   3.281   9.822 -0.7308  0.5987  0.7602
  158MOL0     H20824  -2.366   3.377   9.940  1.0086 -1.1801 -0.5072
  158MOL0     H20825  -2.213   3.414  10.040 -1.1612  1.4029  0.9218
  158MOL0     H20826  -2.262   3.231  10.178  1.8359  0.1735 -1.7800
  158MOL0     H20827  -2.422   3.210  10.107  0.9404  0.2459  1.9847
  158MOL0     H20828  -2.341   3.470  10.207  0.5867  0.4170 -0.2187
  158MOL0     H20829  -2.506   3.428  10.153 -0.8566 -1.8006  0.1918
  158MOL0     H20830  -2.489   3.444  10.395  0.0272  0.0889 -1.4462
  158MOL0     H20831  -2.367   3.310  10.387  0.7291 -0.4968 -1.1339
  158MOL0     H20832  -2.528   3.146  10.307  2.9603  0.2634  0.6354
  158MOL0     H20833  -2.645   3.278  10.289  1.3327  1.1608 -2.3335
  158MOL0     H20834  -2.510   3.185  10.548  1.9808 -1.8910 -3.7778
  158MOL0     H20835  -2.644   3.291  10.541 -4.6955 -1.0886 -0.7567
  158MOL0     H20836  -2.645   2.996  10.450  0.4724  0.3724  0.2440
  158MOL0     H20837  -2.793   3.103  10.420  0.4648 -0.5695 -0.5369
  158MOL0     H20838  -2.036   3.409   9.905 -0.7021  0.6557  1.3150
  158MOL0     H20839  -1.818   3.511   9.936  1.9480 -0.9000 -2.5653
  158MOL0     H20840  -1.445   3.627  10.348  2.2636 -0.0523  2.7202
  158MOL0     H20841  -1.211   3.683  10.367  1.0858  0.4140  0.0852
  158MOL0     H20842   0.760   4.322  10.045 -1.6799  3.7798  1.6442
  158MOL0     H20843   1.018   4.257  10.055  1.0301  1.6855  0.7391
  158MOL0     H20844   1.288   3.966  10.252 -1.0291  2.9836  0.8010
  158MOL0     H20845   1.494   3.836  10.213  0.2173 -1.2662 -1.2439
  158MOL0     H20846   1.851   3.866  10.223 -0.5231  1.2620  2.6646
  158MOL0     H20847   1.784   4.024  10.260  1.9200 -0.0787  0.8219
  158MOL0     H20848   1.964   3.944  10.030 -1.2858 -2.5774  2.4807
  158MOL0     H20849   1.893   4.107  10.041  0.4988  0.3222  1.0071
  158MOL0     H20850   2.047   4.010  10.281 -1.7092  0.9714 -0.3467
  158MOL0     H20851   2.001   4.164  10.235  0.1074  0.1306 -0.0434
  158MOL0     H20852   2.217   3.989  10.093 -2.9715 -0.1618 -1.7738
  158MOL0     H20853   2.162   4.148  10.025  1.7800 -0.4042 -1.8076
  158MOL0     H20854   2.374   4.337  10.308 -2.9058  2.1494  0.7430
  158MOL0     H20855   1.671   4.173  10.019  0.3614  1.2004  2.2169
  158MOL0     H20856   1.466   4.296  10.049 -0.6892 -0.5746 -1.4700
  159MOL0     O20857   1.249   4.005   3.130 -0.7186 -0.0394  0.0086
  159MOL0     C20858   1.140   4.062   3.145 -0.1038 -0.1051 -0.0411
  159MOL0     O20859   1.024   4.032   3.087  0.0862 -0.3778 -0.7883
  159MOL0     C20860   0.993   3.918   3.013 -0.2120  0.6143 -0.2060
  159MOL0     C20861   1.080   3.804   3.011 -0.9322 -0.2902  0.1295
  159MOL0     C20862   1.037   3.689   2.941 -0.0600  0.0508  0.0468
  159MOL0     C20863   0.916   3.679   2.878  1.7259  0.7290  0.0177
  159MOL0     O20864   0.878   3.554   2.823 -0.2784 -1.0471 -0.4384
  159MOL0     C20865   0.740   3.527   2.772 -0.4647 -0.3258  0.3638
  159MOL0     C20866   0.641   3.517   2.895  0.0183 -0.0123  0.4777
  159MOL0     C20867   0.499   3.483   2.839  0.0315 -0.1132 -0.5217
  159MOL0     C20868   0.407   3.488   2.954 -0.2464 -0.2530 -0.3755
  159MOL0     C20869   0.255   3.484   2.911 -0.7711  0.2132 -1.1670
  159MOL0     C20870   0.157   3.447   3.021 -0.1313  0.3456  0.1376
  159MOL0     C20871   0.007   3.442   2.966 -0.8967 -0.0811  0.7148
  159MOL0     C20872  -0.082   3.369   3.060 -0.6105  0.2192 -0.1032
  159MOL0     N20873  -0.217   3.357   3.015 -0.5115 -0.1905  0.4130
  159MOL0     C20874  -0.311   3.452   2.996  0.0334 -0.2813  0.3808
  159MOL0     C20875  -0.416   3.393   2.947 -0.4333  1.1946 -0.7596
  159MOL0     C20876  -0.535   3.466   2.906 -0.4462 -0.0206 -0.2373
  159MOL0     C20877  -0.666   3.407   2.955 -0.2188 -0.0858  0.2706
  159MOL0     C20878  -0.683   3.428   3.104  0.9075 -0.1301  0.3005
  159MOL0     C20879  -0.805   3.370   3.170  0.1661  0.3498 -0.3607
  159MOL0     O20880  -0.801   3.434   3.297 -0.0903  0.2751  0.4745
  159MOL0     C20881  -0.885   3.380   3.399 -0.2534  0.4841 -1.0990
  159MOL0     C20882  -0.936   3.475   3.495 -0.7005 -0.3085 -0.2581
  159MOL0     C20883  -1.007   3.439   3.605 -0.3467  0.2620 -0.5299
  159MOL0     C20884  -1.045   3.302   3.618  0.2223 -0.7055 -0.6020
  159MOL0     C20885  -1.119   3.250   3.731  0.6304  0.1577 -0.1326
  159MOL0     O20886  -1.201   3.142   3.707  0.3115 -0.3901  0.7653
  159MOL0     C20887  -1.265   3.092   3.810  0.5959 -0.0975  0.2380
  159MOL0     C20888  -1.404   3.089   3.799  0.6063 -0.6454  0.0784
  159MOL0     C20889  -1.476   3.053   3.911  0.1677 -0.0544  0.2562
  159MOL0     C20890  -1.409   2.999   4.020 -1.3061  0.4397 -0.3256
  159MOL0     O20891  -1.474   2.958   4.134 -0.3281 -0.1378  0.5220
  159MOL0     C20892  -1.594   2.885   4.122  0.1776 -0.0785  0.0041
  159MOL0     C20893  -1.641   2.842   4.257 -0.4663  0.4515  0.0365
  159MOL0     C20894  -1.770   2.758   4.261 -0.4578 -0.3606  0.7355
  159MOL0     C20895  -1.895   2.828   4.199 -0.2878  0.2974  0.6514
  159MOL0     C20896  -1.941   2.937   4.290  0.4010 -0.4200 -0.1730
  159MOL0     C20897  -1.967   2.901   4.441 -0.8212  0.6611 -0.9789
  159MOL0     C20898  -2.073   2.787   4.464 -0.2869  0.1930 -0.1813
  159MOL0     C20899  -2.125   2.818   4.610  0.0776  0.3440  0.0725
  159MOL0    Cl20900  -2.275   2.917   4.598 -0.2237 -0.2640  0.1725
  159MOL0     C20901  -1.269   3.005   4.032  0.9334 -0.1513 -0.1636
  159MOL0     C20902  -1.195   3.055   3.930  0.9481 -0.0384  0.4145
  159MOL0     O20903  -1.105   3.306   3.840  0.6156  0.6914  0.1466
  159MOL0     C20904  -1.007   3.204   3.521 -0.2137  0.3459 -0.1530
  159MOL0     C20905  -0.924   3.247   3.421  0.1476  0.2309  0.0682
  159MOL0     N20906  -0.392   3.256   2.924 -0.5248 -0.2574  0.0375
  159MOL0     N20907  -0.273   3.237   2.972  0.7415 -0.5490  0.5247
  159MOL0     C20908   0.829   3.794   2.886  0.2189  0.0465 -0.3166
  159MOL0     C20909   0.867   3.911   2.943 -1.6379 -0.2703 -0.4461
  159MOL0     C20910   1.142   4.180   3.242 -0.0550  0.6114 -0.3006
  159MOL0     C20911   1.261   4.233   3.290  0.0108 -0.6453  0.1401
  159MOL0     C20912   1.274   4.346   3.380  0.1117  0.7625  0.5300
  159MOL0     C20913   1.155   4.410   3.416  0.2945  0.4649  0.1872
  159MOL0     O20914   1.148   4.526   3.493  0.0501 -0.7281 -0.0607
  159MOL0     C20915   1.276   4.591   3.515  0.3980  0.4583  0.5155
  159MOL0     C20916   1.245   4.725   3.574 -0.1705 -0.4324 -0.1858
  159MOL0     C20917   1.360   4.821   3.553 -0.1478 -0.5089  0.6012
  159MOL0     C20918   1.317   4.966   3.590 -0.5920  0.2406  0.7106
  159MOL0     C20919   1.421   5.063   3.561 -0.1267  0.9095 -0.9486
  159MOL0     C20920   1.490   5.158   3.536  0.5456 -0.0564  0.3340
  159MOL0     C20921   1.035   4.357   3.363  0.8909 -0.2494  0.2647
  159MOL0     C20922   1.020   4.245   3.278  0.0043 -0.1080 -0.8816
  159MOL0     H20923   1.179   3.799   3.055 -0.9853  0.4248  0.3324
  159MOL0     H20924   1.101   3.602   2.958 -0.5767 -0.8370 -2.2135
  159MOL0     H20925   0.742   3.434   2.715 -0.9699  1.5709 -3.0340
  159MOL0     H20926   0.707   3.607   2.706  0.9614  0.1562  0.1927
  159MOL0     H20927   0.642   3.615   2.943  1.1029  0.2403 -0.0345
  159MOL0     H20928   0.665   3.436   2.964 -0.8088 -2.2769 -1.7339
  159MOL0     H20929   0.498   3.383   2.795  1.6495 -0.2734 -0.2457
  159MOL0     H20930   0.476   3.567   2.774 -0.6880 -0.4212 -0.6743
  159MOL0     H20931   0.435   3.412   3.028  0.3360  0.8242  0.5382
  159MOL0     H20932   0.421   3.588   2.995 -1.5867 -1.1304  2.4897
  159MOL0     H20933   0.259   3.402   2.838  3.8980 -0.1362 -0.8490
  159MOL0     H20934   0.219   3.581   2.875 -3.1374  0.7833  2.2576
  159MOL0     H20935   0.156   3.531   3.092 -3.9054  2.5668 -2.2260
  159MOL0     H20936   0.173   3.350   3.069 -2.5277  0.3397  1.0660
  159MOL0     H20937  -0.032   3.544   2.952 -0.6532  0.1883  1.9290
  159MOL0     H20938   0.019   3.390   2.870 -0.8732  0.7190  0.2691
  159MOL0     H20939  -0.094   3.433   3.148 -0.4138  0.3002 -0.1345
  159MOL0     H20940  -0.034   3.275   3.088 -0.2637  0.5500  0.4406
  159MOL0     H20941  -0.287   3.557   3.012 -1.4186  0.3017 -0.9865
  159MOL0     H20942  -0.541   3.457   2.798  0.0480  3.2796 -0.6534
  159MOL0     H20943  -0.529   3.573   2.930  3.4126 -0.3300  0.8547
  159MOL0     H20944  -0.670   3.301   2.928 -0.3189  0.5152 -2.3395
  159MOL0     H20945  -0.741   3.463   2.898  0.0797  1.9215  1.7288
  159MOL0     H20946  -0.591   3.383   3.144  0.6493 -1.2199 -0.2947
  159MOL0     H20947  -0.669   3.533   3.131  2.9286 -0.5450  1.0692
  159MOL0     H20948  -0.799   3.261   3.180 -0.9956  0.2435 -0.7146
  159MOL0     H20949  -0.893   3.398   3.112  0.9922  3.9504 -0.0602
  159MOL0     H20950  -0.922   3.578   3.465 -0.2891 -0.8320 -2.0041
  159MOL0     H20951  -1.038   3.515   3.675 -0.4622  0.4148 -0.7487
  159MOL0     H20952  -1.440   3.119   3.701  2.4514 -1.6353 -0.9697
  159MOL0     H20953  -1.583   3.059   3.897  0.4378  3.0905 -1.3143
  159MOL0     H20954  -1.574   2.795   4.065  2.3199 -0.1681  0.7900
  159MOL0     H20955  -1.668   2.951   4.075  2.1914  3.1601  1.0528
  159MOL0     H20956  -1.639   2.925   4.328  0.1415 -1.0280  1.8176
  159MOL0     H20957  -1.560   2.783   4.301 -0.9594  1.2459  2.1566
  159MOL0     H20958  -1.789   2.725   4.363 -1.1511 -0.1081  0.6951
  159MOL0     H20959  -1.751   2.673   4.195  0.3366  0.7202 -0.5022
  159MOL0     H20960  -1.878   2.870   4.099  1.6870 -0.2344  0.7207
  159MOL0     H20961  -1.972   2.751   4.195  2.8658 -3.2315 -4.9321
  159MOL0     H20962  -2.040   2.972   4.257 -0.6017 -1.6992  1.3343
  159MOL0     H20963  -1.880   3.027   4.277 -0.6197  0.4003  0.5762
  159MOL0     H20964  -2.005   2.999   4.473 -3.5640  0.0073 -1.9893
  159MOL0     H20965  -1.879   2.896   4.506 -1.1611  5.7627  0.3346
  159MOL0     H20966  -2.153   2.797   4.391 -1.0701 -1.0938  0.4609
  159MOL0     H20967  -2.020   2.691   4.468  1.6969  1.0634 -2.9536
  159MOL0     H20968  -2.050   2.858   4.678 -0.2609 -0.9554  1.2629
  159MOL0     H20969  -2.159   2.722   4.651  0.6394 -0.0367 -0.3345
  159MOL0     H20970  -1.210   2.947   4.102 -0.4763  1.6931  2.7071
  159MOL0     H20971  -1.087   3.056   3.925  0.8973  1.3332 -2.8584
  159MOL0     H20972  -1.039   3.101   3.512 -0.7198  0.5751 -1.0808
  159MOL0     H20973  -0.904   3.165   3.353 -2.6065  0.3167 -1.0083
  159MOL0     H20974   0.730   3.784   2.841 -0.2646 -1.1479  0.9246
  159MOL0     H20975   0.796   3.994   2.942 -2.6055 -1.0884 -1.5640
  159MOL0     H20976   1.353   4.190   3.253 -0.0919 -0.9843  0.2739
  159MOL0     H20977   1.377   4.360   3.409  0.4741 -0.0367 -0.3216
  159MOL0     H20978   1.324   4.598   3.417 -1.7432 -0.0694 -0.6204
  159MOL0     H20979   1.342   4.539   3.586  0.0662  0.0601  0.5324
  159MOL0     H20980   1.152   4.757   3.526  0.6634  0.0165 -1.5404
  159MOL0     H20981   1.243   4.714   3.683 -0.1678 -1.3842 -0.2757
  159MOL0     H20982   1.378   4.820   3.445 -0.3845 -0.4761  0.5617
  159MOL0     H20983   1.453   4.781   3.596  1.0275 -0.0663 -1.3609
  159MOL0     H20984   1.228   5.002   3.538  0.3192 -0.0132 -1.0957
  159MOL0     H20985   1.303   4.958   3.698 -1.6270  0.6810  0.6212
  159MOL0     H20986   1.552   5.240   3.505 -0.2515  0.2589 -0.4883
  159MOL0     H20987   0.950   4.418   3.390 -0.0547 -1.3831 -0.1172
  159MOL0     H20988   0.920   4.218   3.248 -0.1009 -0.2205 -0.4405
  160MOL0     O20989   5.970   1.627   3.376  0.6116  0.1270  0.1621
  160MOL0     C20990   5.869   1.695   3.385 -0.5637  0.4383 -0.2229
  160MOL0     O20991   5.851   1.813   3.313 -0.2493  0.3118 -0.3996
  160MOL0     C20992   5.936   1.852   3.217  0.1270  0.1487 -0.6636
  160MOL0     C20993   6.011   1.976   3.237 -0.0920  0.3700  0.6062
  160MOL0     C20994   6.087   2.026   3.131  0.2775 -0.3214 -0.3182
  160MOL0     C20995   6.099   1.950   3.010  0.3405  0.3545 -0.7856
  160MOL0     O20996   6.185   2.001   2.917  0.2423  0.1779  0.0663
  160MOL0     C20997   6.238   1.914   2.815  0.3761  0.2203 -0.0956
  160MOL0     C20998   6.365   1.976   2.751 -0.5513  1.5668 -0.4407
  160MOL0     C20999   6.357   2.127   2.734 -0.2438 -0.2261 -0.1908
  160MOL0     C21000   6.482   2.182   2.667  0.3396 -0.7187  0.0141
  160MOL0     C21001   6.489   2.337   2.662 -0.4075  0.1706  0.0766
  160MOL0     C21002   6.357   2.408   2.613 -0.4664 -0.2543 -0.6894
  160MOL0     C21003   6.310   2.367   2.478  0.5054  0.6638  0.7225
  160MOL0     C21004   6.396   2.422   2.360  0.5561  0.0051 -1.0246
  160MOL0     N21005   6.421   2.558   2.374 -0.1033 -0.5371  0.4252
  160MOL0     C21006   6.320   2.660   2.373 -0.0410 -0.2497  0.4299
  160MOL0     C21007   6.376   2.781   2.392 -0.2351 -0.2493 -0.2737
  160MOL0     C21008   6.321   2.924   2.396 -0.0025 -0.7753 -0.0939
  160MOL0     C21009   6.173   2.944   2.385 -0.2429  0.4910 -0.0838
  160MOL0     C21010   6.145   3.072   2.454  0.4473 -0.2644 -0.9323
  160MOL0     C21011   5.991   3.101   2.476  0.0969  0.3372 -0.0752
  160MOL0     O21012   5.916   3.052   2.363 -0.0612  0.2397 -0.7983
  160MOL0     C21013   5.808   2.967   2.381  0.6544  1.1446  0.2220
  160MOL0     C21014   5.813   2.837   2.313  0.4434  0.1197 -0.0400
  160MOL0     C21015   5.724   2.739   2.340  0.4179 -0.5215  0.2504
  160MOL0     C21016   5.616   2.763   2.425  0.1373 -0.3876 -0.4028
  160MOL0     C21017   5.508   2.663   2.438 -0.2402  0.4115 -0.6530
  160MOL0     O21018   5.398   2.704   2.508  0.3882 -0.7540  0.3323
  160MOL0     C21019   5.294   2.622   2.529 -0.4295 -0.0824  0.4176
  160MOL0     C21020   5.297   2.496   2.587 -0.1612 -0.3784 -0.3393
  160MOL0     C21021   5.179   2.426   2.599 -0.2840 -0.1782  0.2303
  160MOL0     C21022   5.060   2.478   2.553  0.4825 -0.2545  0.3538
  160MOL0     O21023   4.936   2.415   2.561 -0.1079  0.6949 -0.6491
  160MOL0     C21024   4.922   2.287   2.623  1.1459  0.6657  0.0614
  160MOL0     C21025   4.776   2.282   2.683  0.1513  0.6082  0.5048
  160MOL0     C21026   4.721   2.390   2.776  0.0817 -0.2009 -0.1808
  160MOL0     C21027   4.597   2.339   2.840  1.1065 -0.1003 -0.0742
  160MOL0     C21028   4.548   2.460   2.915  0.6608 -0.1514  0.3825
  160MOL0     C21029   4.412   2.424   2.984 -0.3803  0.8174  0.1586
  160MOL0     C21030   4.303   2.416   2.885 -0.3598 -0.9078  0.8392
  160MOL0     C21031   4.170   2.391   2.956 -1.4958  0.1693 -0.4782
  160MOL0    Cl21032   4.133   2.541   3.054 -0.0037  0.0472 -0.3168
  160MOL0     C21033   5.058   2.602   2.489 -0.1449 -0.7618  0.1531
  160MOL0     C21034   5.171   2.674   2.480 -0.9798 -0.8371  0.1420
  160MOL0     O21035   5.524   2.543   2.415 -0.1199 -0.4073  0.7703
  160MOL0     C21036   5.602   2.885   2.481 -0.3754 -0.0969  0.4255
  160MOL0     C21037   5.701   2.980   2.473  0.0216 -0.6023 -0.5810
  160MOL0     N21038   6.508   2.756   2.398 -0.4142 -0.1406 -0.4492
  160MOL0     N21039   6.541   2.624   2.391  0.5298  0.2296  0.5853
  160MOL0     C21040   6.026   1.827   2.998 -0.0447 -0.9995 -0.4121
  160MOL0     C21041   5.953   1.778   3.097  0.0441 -0.3201  0.8276
  160MOL0     C21042   5.776   1.657   3.487  0.7617  0.7680  0.6995
  160MOL0     C21043   5.803   1.576   3.603  0.2690 -0.6441 -0.0406
  160MOL0     C21044   5.701   1.546   3.700 -0.7634 -1.1844 -0.1857
  160MOL0     C21045   5.580   1.605   3.689 -0.4131 -0.0375  0.1115
  160MOL0     O21046   5.501   1.576   3.807 -0.4621 -1.0768  0.2845
  160MOL0     C21047   5.364   1.620   3.817 -0.6317 -0.2587 -0.1807
  160MOL0     C21048   5.296   1.558   3.938  0.4300 -0.2463 -0.5128
  160MOL0     C21049   5.360   1.610   4.073 -0.2379  0.2744 -0.9607
  160MOL0     C21050   5.307   1.737   4.129  0.6609  0.1125  0.7551
  160MOL0     C21051   5.383   1.794   4.239  0.6583  0.2874  0.3791
  160MOL0     C21052   5.462   1.842   4.323 -1.2673  0.4895 -0.3923
  160MOL0     C21053   5.550   1.678   3.577  0.1118 -0.2974 -0.3634
  160MOL0     C21054   5.649   1.705   3.476  0.1995  0.3721 -0.6461
  160MOL0     H21055   5.993   2.039   3.324 -0.8904 -1.3289  1.7290
  160MOL0     H21056   6.125   2.127   3.129 -1.0547  0.2434  1.0635
  160MOL0     H21057   6.172   1.898   2.729  1.7653 -0.1979 -1.1153
  160MOL0     H21058   6.253   1.814   2.856 -0.7902  0.0403 -0.0739
  160MOL0     H21059   6.399   1.930   2.657 -1.5581 -1.2920  0.5002
  160MOL0     H21060   6.449   1.960   2.820  1.4118 -2.8139 -3.4016
  160MOL0     H21061   6.362   2.183   2.828  3.7804 -2.8468  1.4268
  160MOL0     H21062   6.264   2.156   2.684 -1.7780 -0.8181  2.1864
  160MOL0     H21063   6.569   2.163   2.731 -1.2722 -2.1247  1.9308
  160MOL0     H21064   6.493   2.159   2.561 -0.2046 -1.8676  0.2003
  160MOL0     H21065   6.584   2.361   2.614  0.5606 -0.7483  1.4803
  160MOL0     H21066   6.501   2.376   2.763 -1.0847  1.7440 -0.4308
  160MOL0     H21067   6.376   2.515   2.623  1.6313 -0.5681 -0.7474
  160MOL0     H21068   6.276   2.378   2.680 -0.9640 -4.3840 -2.7809
  160MOL0     H21069   6.295   2.259   2.469 -3.7102  0.8665  2.8976
  160MOL0     H21070   6.208   2.409   2.478 -0.4553 -1.5233  1.8358
  160MOL0     H21071   6.365   2.392   2.260  2.4162 -1.3040 -1.2678
  160MOL0     H21072   6.486   2.362   2.379  0.9992  1.3705  1.7511
  160MOL0     H21073   6.214   2.639   2.376 -0.5659  2.2019  2.8522
  160MOL0     H21074   6.376   2.985   2.324  1.3204 -0.2780  1.2940
  160MOL0     H21075   6.352   2.966   2.492 -1.1593 -0.4677  0.1567
  160MOL0     H21076   6.124   2.857   2.430 -0.1918 -0.0259 -0.9918
  160MOL0     H21077   6.141   2.956   2.281 -1.9108  4.5168  0.7176
  160MOL0     H21078   6.180   3.069   2.557 -0.4874  3.2306 -0.3740
  160MOL0     H21079   6.185   3.156   2.396  0.2061 -0.3742 -1.2653
  160MOL0     H21080   5.975   3.209   2.479  0.8381  0.4289  1.7624
  160MOL0     H21081   5.950   3.062   2.570  0.2997  0.2709 -0.0156
  160MOL0     H21082   5.883   2.817   2.232  1.8228  0.7319  0.9567
  160MOL0     H21083   5.713   2.644   2.288  0.3989 -0.0529 -0.6163
  160MOL0     H21084   5.386   2.455   2.634 -0.8479 -2.6905 -0.9237
  160MOL0     H21085   5.165   2.332   2.651  0.5439 -2.4881 -3.3656
  160MOL0     H21086   4.980   2.279   2.716  1.3136 -0.4090 -0.1244
  160MOL0     H21087   4.954   2.199   2.567 -0.4575  0.6409 -0.8960
  160MOL0     H21088   4.757   2.184   2.726  0.6988  0.0976 -0.3744
  160MOL0     H21089   4.720   2.303   2.591 -0.3877  1.8238  1.0907
  160MOL0     H21090   4.693   2.476   2.715 -3.2280 -0.8381  0.2373
  160MOL0     H21091   4.799   2.422   2.846  0.0935 -0.6780  0.0317
  160MOL0     H21092   4.535   2.276   2.775  1.5007 -0.2756 -0.2897
  160MOL0     H21093   4.620   2.272   2.923  0.6064  0.0599  0.1959
  160MOL0     H21094   4.524   2.546   2.851 -0.2918 -2.1440 -2.1377
  160MOL0     H21095   4.621   2.483   2.993  0.1984 -0.2966  0.8675
  160MOL0     H21096   4.381   2.499   3.057 -1.4248  0.6976 -0.1490
  160MOL0     H21097   4.419   2.328   3.036  0.6964  0.8062  0.0264
  160MOL0     H21098   4.296   2.512   2.832 -2.6515  0.6651  3.6944
  160MOL0     H21099   4.324   2.334   2.814  1.0854 -0.6325  0.9215
  160MOL0     H21100   4.166   2.310   3.030 -1.8933 -0.0710 -0.7542
  160MOL0     H21101   4.090   2.384   2.882  0.1664  0.8621 -2.4208
  160MOL0     H21102   4.975   2.653   2.443  0.4574  1.1394  1.0609
  160MOL0     H21103   5.174   2.774   2.437 -0.7244 -0.8527  0.1232
  160MOL0     H21104   5.529   2.910   2.557  0.4000 -1.6946  1.7600
  160MOL0     H21105   5.694   3.077   2.521  2.0554  0.2630 -1.8774
  160MOL0     H21106   6.050   1.760   2.915  1.0444 -0.1066 -0.8565
  160MOL0     H21107   5.902   1.683   3.084  1.2615 -0.8816 -0.0635
  160MOL0     H21108   5.903   1.533   3.608  1.2217  1.2441 -1.5703
  160MOL0     H21109   5.714   1.480   3.786 -2.0178 -1.5721 -0.2788
  160MOL0     H21110   5.311   1.587   3.727 -0.3294 -0.0542 -0.4346
  160MOL0     H21111   5.376   1.728   3.817  3.3676 -0.5348 -2.0774
  160MOL0     H21112   5.190   1.586   3.938  0.7636  1.5434  2.9640
  160MOL0     H21113   5.291   1.449   3.936  1.1613 -0.3914  1.9123
  160MOL0     H21114   5.467   1.623   4.058  0.5922  0.9006  3.9654
  160MOL0     H21115   5.347   1.543   4.159 -1.3479  1.6423 -0.0224
  160MOL0     H21116   5.300   1.803   4.041 -1.8917 -0.4890  0.4236
  160MOL0     H21117   5.206   1.722   4.168  1.2941 -2.9069  1.4562
  160MOL0     H21118   5.527   1.892   4.392  0.5529 -1.4046 -0.6291
  160MOL0     H21119   5.451   1.717   3.557  0.2031  0.1153 -0.0313
  160MOL0     H21120   5.624   1.779   3.400  1.0819  3.4277  1.8198
  161MOL0     O21121   5.844   1.689   9.624  0.7216  0.4233 -0.3847
  161MOL0     C21122   5.942   1.737   9.566  0.4534  0.0690 -0.2172
  161MOL0     O21123   5.934   1.804   9.443 -0.0632  0.0022  0.4805
  161MOL0     C21124   5.813   1.854   9.405 -0.3806  0.2460  0.0350
  161MOL0     C21125   5.751   1.805   9.285  1.1212 -0.7754  0.2760
  161MOL0     C21126   5.621   1.854   9.240  0.6620 -1.3269 -0.1958
  161MOL0     C21127   5.550   1.947   9.320  0.4780 -0.0602  0.5734
  161MOL0     O21128   5.426   1.991   9.282  0.0816 -0.2894 -0.0045
  161MOL0     C21129   5.368   2.094   9.350  0.3047  0.3582 -0.2774
  161MOL0     C21130   5.228   2.122   9.295 -0.0516 -0.9045  0.4301
  161MOL0     C21131   5.195   2.086   9.155  0.1835 -0.4251 -0.1545
  161MOL0     C21132   5.065   2.136   9.098  0.9816  0.9102  1.0761
  161MOL0     C21133   4.942   2.076   9.170  0.5381 -0.1320 -0.1307
  161MOL0     C21134   4.815   2.099   9.079  0.5379  0.5331 -0.1245
  161MOL0     C21135   4.688   2.073   9.155  0.3274  1.2792  0.3654
  161MOL0     C21136   4.691   1.932   9.216 -0.3299  0.7950 -0.1124
  161MOL0     N21137   4.559   1.889   9.265  0.1666  0.0773  0.6455
  161MOL0     C21138   4.461   1.826   9.195  0.4612 -0.3047 -0.8238
  161MOL0     C21139   4.368   1.813   9.296  0.7629  0.3675 -0.0021
  161MOL0     C21140   4.225   1.764   9.287  0.2809  0.0291  0.1856
  161MOL0     C21141   4.208   1.619   9.331 -0.0467  0.0823 -0.4034
  161MOL0     C21142   4.071   1.566   9.295  0.1001 -0.0493  0.1116
  161MOL0     C21143   3.951   1.634   9.369 -0.5471  0.0238 -0.2568
  161MOL0     O21144   3.834   1.555   9.360  0.0276  0.1736  0.2105
  161MOL0     C21145   3.771   1.515   9.471 -0.9085 -0.9278 -0.1333
  161MOL0     C21146   3.783   1.578   9.593 -0.0313 -0.5643 -0.2443
  161MOL0     C21147   3.722   1.531   9.716  0.1720 -0.1650  0.6401
  161MOL0     C21148   3.634   1.425   9.705  0.3045  0.5870  0.5048
  161MOL0     C21149   3.560   1.382   9.823  0.0680  0.4161 -0.1047
  161MOL0     O21150   3.567   1.452   9.934  0.0169 -0.1717  0.3404
  161MOL0     C21151   3.482   1.403  10.032  0.7141 -0.0843  0.0139
  161MOL0     C21152   3.339   1.423  10.025 -1.4487 -1.4328 -0.4429
  161MOL0     C21153   3.256   1.366  10.126  0.0941 -0.3364 -0.4541
  161MOL0     C21154   3.303   1.285  10.230  0.2312 -0.7106  0.0845
  161MOL0     O21155   3.226   1.244  10.332  0.3889  0.5112 -0.1814
  161MOL0     C21156   3.083   1.230  10.311  0.0222 -0.0094 -0.7071
  161MOL0     C21157   3.021   1.352  10.360 -0.5119 -0.2818  0.1371
  161MOL0     C21158   2.872   1.385  10.312  0.2301 -0.2894  0.6248
  161MOL0     C21159   2.764   1.281  10.347 -0.0928  0.6193  0.3147
  161MOL0     C21160   2.639   1.357  10.390 -0.2213  0.1742  0.6658
  161MOL0     C21161   2.511   1.275  10.378 -0.4975 -0.3939  0.7250
  161MOL0     C21162   2.490   1.178  10.494  0.1730 -0.1892 -0.8244
  161MOL0     C21163   2.349   1.119  10.492 -0.1680 -0.6993 -0.1642
  161MOL0    Cl21164   2.305   1.039  10.338 -0.4844  0.0391  0.1144
  161MOL0     C21165   3.440   1.262  10.232 -0.9624 -0.4693 -0.4417
  161MOL0     C21166   3.531   1.326  10.141  0.5216  0.8552  0.1680
  161MOL0     O21167   3.485   1.286   9.813 -0.4255  0.5744  0.7360
  161MOL0     C21168   3.620   1.357   9.584 -0.4842  0.8414  0.6355
  161MOL0     C21169   3.689   1.401   9.469  0.1768  0.6145 -0.2790
  161MOL0     N21170   4.414   1.848   9.420  0.5170 -0.2819  1.0843
  161MOL0     N21171   4.527   1.899   9.399 -0.6590 -0.0499 -0.1713
  161MOL0     C21172   5.622   2.004   9.436  0.7833  0.2915 -1.4966
  161MOL0     C21173   5.750   1.957   9.479 -0.2887 -0.3666  0.8817
  161MOL0     C21174   6.075   1.705   9.621  0.4643 -0.5262 -1.0877
  161MOL0     C21175   6.184   1.789   9.579  0.1925 -0.1409  0.2142
  161MOL0     C21176   6.299   1.772   9.644 -0.5165  0.3375  0.0628
  161MOL0     C21177   6.329   1.674   9.740 -0.1614 -0.1585  0.1973
  161MOL0     O21178   6.459   1.669   9.783 -0.3163  0.5370 -0.0001
  161MOL0     C21179   6.489   1.593   9.901 -0.3240 -0.0742 -0.2813
  161MOL0     C21180   6.603   1.652   9.977  0.2951  0.1084 -0.6216
  161MOL0     C21181   6.733   1.660   9.902 -0.6109 -0.1699 -0.7991
  161MOL0     C21182   6.825   1.767   9.971 -0.4604  0.0952 -0.6171
  161MOL0     C21183   6.959   1.779   9.901 -1.0205  0.2622 -0.0711
  161MOL0     C21184   7.054   1.806   9.838 -0.7091  0.1667  0.3083
  161MOL0     C21185   6.225   1.590   9.778 -0.4489  0.8041 -0.3072
  161MOL0     C21186   6.099   1.606   9.716 -0.4090  0.4969  0.3028
  161MOL0     H21187   5.799   1.723   9.233  0.5720  0.0417 -1.6218
  161MOL0     H21188   5.571   1.815   9.152 -1.8752  0.2217  0.4619
  161MOL0     H21189   5.439   2.176   9.343 -0.0429  1.1362  3.2396
  161MOL0     H21190   5.365   2.057   9.453  3.3159 -2.2450 -0.9418
  161MOL0     H21191   5.228   2.231   9.291  1.6482 -0.6718  3.5123
  161MOL0     H21192   5.152   2.088   9.365 -0.6355  0.4204  0.4537
  161MOL0     H21193   5.199   1.977   9.143 -1.1251 -0.2347 -3.1363
  161MOL0     H21194   5.287   2.121   9.108  1.4767 -1.1655  1.6750
  161MOL0     H21195   5.059   2.245   9.105  0.5813  0.8517  1.6780
  161MOL0     H21196   5.071   2.114   8.991 -1.3501 -0.0703  1.0825
  161MOL0     H21197   4.941   2.128   9.266 -0.8708 -1.6979  0.7632
  161MOL0     H21198   4.971   1.970   9.180  2.9112  0.5476  1.1057
  161MOL0     H21199   4.826   2.033   8.992  0.9404  0.9846 -0.4245
  161MOL0     H21200   4.823   2.204   9.048  2.5913  0.1286 -1.1733
  161MOL0     H21201   4.668   2.142   9.238  0.1328  1.5309  0.1150
  161MOL0     H21202   4.608   2.085   9.081  0.3709 -1.1099 -0.1328
  161MOL0     H21203   4.759   1.933   9.302  0.5244  0.8379 -0.7767
  161MOL0     H21204   4.738   1.875   9.135  2.5623  1.4408  0.9939
  161MOL0     H21205   4.460   1.793   9.092  1.5013  0.6015 -1.1364
  161MOL0     H21206   4.187   1.778   9.185 -1.3373  1.1596  0.8942
  161MOL0     H21207   4.168   1.837   9.345  1.6803  0.9333  0.4708
  161MOL0     H21208   4.222   1.595   9.437 -3.0627  1.8205  0.5074
  161MOL0     H21209   4.284   1.572   9.268  0.2423  1.1820 -0.8894
  161MOL0     H21210   4.059   1.585   9.188  1.6695  0.0450 -0.0687
  161MOL0     H21211   4.076   1.459   9.315  0.4259  0.1216  0.9970
  161MOL0     H21212   3.933   1.724   9.310 -0.2950  0.1981 -0.0684
  161MOL0     H21213   3.988   1.660   9.469 -0.3547  0.3199 -0.4036
  161MOL0     H21214   3.838   1.672   9.599  1.3640 -1.3846  0.1400
  161MOL0     H21215   3.730   1.584   9.810  2.3798  0.9624 -0.1158
  161MOL0     H21216   3.300   1.486   9.946  1.0569  1.8700  0.7496
  161MOL0     H21217   3.152   1.396  10.132  0.6799  2.4570 -2.5820
  161MOL0     H21218   3.049   1.146  10.371  0.7933 -0.3248 -0.7031
  161MOL0     H21219   3.044   1.212  10.210 -0.1186  2.9320 -1.2847
  161MOL0     H21220   3.083   1.436  10.328 -1.1593 -0.3939 -1.4888
  161MOL0     H21221   3.019   1.358  10.470 -1.8177 -2.6857  0.3025
  161MOL0     H21222   2.882   1.392  10.203 -0.7128  2.2086  0.6246
  161MOL0     H21223   2.843   1.484  10.349 -2.5354 -0.3127 -1.1515
  161MOL0     H21224   2.742   1.226  10.255 -0.7146  1.7669 -0.2412
  161MOL0     H21225   2.802   1.207  10.418 -2.9235 -1.2361  0.0601
  161MOL0     H21226   2.631   1.439  10.318 -0.4440 -0.4252  0.0083
  161MOL0     H21227   2.653   1.395  10.492 -3.2558  0.1406  1.1843
  161MOL0     H21228   2.520   1.228  10.280  1.8937  2.5004 -0.6006
  161MOL0     H21229   2.426   1.342  10.359 -0.2172  0.1646  1.3967
  161MOL0     H21230   2.562   1.097  10.477 -1.5177 -1.1961 -4.0207
  161MOL0     H21231   2.508   1.231  10.588 -0.5892  0.0939 -0.8284
  161MOL0     H21232   2.283   1.202  10.517  3.1413  1.6063  1.6522
  161MOL0     H21233   2.358   1.043  10.569 -1.8618 -2.1323 -1.2874
  161MOL0     H21234   3.480   1.209  10.318  1.0438 -0.9551 -1.5917
  161MOL0     H21235   3.635   1.297  10.148  0.2266 -0.1877  0.4008
  161MOL0     H21236   3.548   1.278   9.565 -3.8850  3.4166  1.8301
  161MOL0     H21237   3.684   1.353   9.372  0.6453 -2.5900  1.1384
  161MOL0     H21238   5.582   2.089   9.492  2.5638  0.5736 -0.5951
  161MOL0     H21239   5.806   1.984   9.567  3.0047 -1.0921 -0.8306
  161MOL0     H21240   6.169   1.861   9.499 -2.2576 -0.5990  0.2026
  161MOL0     H21241   6.389   1.819   9.605 -2.0616  2.1035 -1.5671
  161MOL0     H21242   6.511   1.488   9.878 -0.1415  0.0500 -0.6928
  161MOL0     H21243   6.406   1.603   9.971  1.7410  2.5512  2.0619
  161MOL0     H21244   6.557   1.750   9.995  1.1509  0.0233  2.7875
  161MOL0     H21245   6.617   1.615  10.079  0.1869  2.2835  0.2232
  161MOL0     H21246   6.732   1.671   9.793  0.3432 -1.0295 -0.9141
  161MOL0     H21247   6.776   1.559   9.911 -2.2420 -1.0199 -1.8901
  161MOL0     H21248   6.792   1.872   9.976 -1.3564 -0.2567  2.5359
  161MOL0     H21249   6.832   1.737  10.076 -0.5073 -0.3066 -0.7299
  161MOL0     H21250   7.141   1.818   9.776  0.0915 -1.0438  1.1382
  161MOL0     H21251   6.231   1.512   9.853 -0.8175  1.8316  0.8103
  161MOL0     H21252   6.026   1.527   9.728 -0.7740  0.9350  1.0378
  162MOL0     O21253   6.959   5.726   8.038 -0.0505  0.3839  0.1943
  162MOL0     C21254   6.866   5.653   8.074 -0.5398  0.3253 -0.2003
  162MOL0     O21255   6.824   5.634   8.200 -0.2543 -0.3235 -0.0513
  162MOL0     C21256   6.894   5.695   8.304 -0.3648 -0.1613  0.1919
  162MOL0     C21257   6.874   5.830   8.324 -0.8847  0.3151 -0.0406
  162MOL0     C21258   6.927   5.895   8.438 -0.6693 -0.9139 -0.0977
  162MOL0     C21259   7.001   5.818   8.533 -0.7142  0.3026 -0.6411
  162MOL0     O21260   7.049   5.887   8.635 -0.1090  0.0606 -0.3952
  162MOL0     C21261   7.156   5.833   8.710  0.0366  0.5750 -0.3471
  162MOL0     C21262   7.220   5.946   8.792  0.0645 -0.6502 -0.0421
  162MOL0     C21263   7.122   6.007   8.897 -0.6045 -0.0766 -0.0071
  162MOL0     C21264   7.126   5.939   9.036 -0.1884  0.6583  0.0107
  162MOL0     C21265   6.998   5.979   9.108 -0.0487  0.1260 -1.2289
  162MOL0     C21266   6.971   5.878   9.220 -0.0929  0.6419  0.8931
  162MOL0     C21267   6.870   5.936   9.318  0.4330 -0.7479  0.3933
  162MOL0     C21268   6.723   5.915   9.274 -0.5817  0.3979  0.6545
  162MOL0     N21269   6.627   6.010   9.336 -0.9289  0.5736 -0.1547
  162MOL0     C21270   6.555   5.993   9.442  0.1112  0.6591 -0.2526
  162MOL0     C21271   6.461   6.088   9.446 -0.4078 -0.6220 -0.9739
  162MOL0     C21272   6.351   6.117   9.539  0.1455 -0.4608 -1.2951
  162MOL0     C21273   6.394   6.202   9.665 -0.0702  0.2400  0.1967
  162MOL0     C21274   6.334   6.135   9.789 -0.5337 -0.0805 -0.3869
  162MOL0     C21275   6.185   6.136   9.804  0.3039  0.9313 -0.0285
  162MOL0     O21276   6.126   6.269   9.779  0.4477 -0.2833  0.2168
  162MOL0     C21277   5.985   6.271   9.789 -0.0786 -0.2809  0.9201
  162MOL0     C21278   5.904   6.277   9.678 -0.1286  0.4274  0.6822
  162MOL0     C21279   5.765   6.270   9.681 -0.1765  0.2732 -0.3398
  162MOL0     C21280   5.697   6.264   9.800  0.0039  0.3614 -0.4691
  162MOL0     C21281   5.545   6.255   9.822 -0.0670  0.3246 -0.5464
  162MOL0     O21282   5.469   6.246   9.714 -0.3273 -0.9757  0.2616
  162MOL0     C21283   5.333   6.251   9.730 -0.9080 -0.0194 -0.1899
  162MOL0     C21284   5.259   6.151   9.677 -0.1190  0.1240  0.4824
  162MOL0     C21285   5.119   6.152   9.691  1.2137 -0.5801  0.6250
  162MOL0     C21286   5.050   6.265   9.751 -0.6380  0.5206  0.0004
  162MOL0     O21287   4.910   6.275   9.754  0.2327 -0.6204 -0.2589
  162MOL0     C21288   4.849   6.405   9.751  0.0223  0.0926  0.3068
  162MOL0     C21289   4.698   6.402   9.771  0.4227  0.1999  0.0236
  162MOL0     C21290   4.626   6.543   9.764  0.9499 -0.8055 -0.0663
  162MOL0     C21291   4.479   6.536   9.799  0.7189  0.0431  0.2479
  162MOL0     C21292   4.411   6.677   9.795  0.2676 -0.2105 -0.5689
  162MOL0     C21293   4.265   6.649   9.783  0.5492  0.0674 -0.4772
  162MOL0     C21294   4.206   6.575   9.901 -0.3650  0.0948  0.0326
  162MOL0     C21295   4.145   6.668  10.002 -0.2550 -0.3881  0.0864
  162MOL0    Cl21296   3.977   6.717   9.943 -0.0862  0.0402 -0.2649
  162MOL0     C21297   5.134   6.370   9.806  0.1375  0.3639  0.0567
  162MOL0     C21298   5.269   6.356   9.796 -0.7083  0.0218  0.2033
  162MOL0     O21299   5.501   6.242   9.935 -0.0737 -0.3186 -0.1232
  162MOL0     C21300   5.777   6.251   9.915 -0.2679  0.4409 -0.0068
  162MOL0     C21301   5.921   6.262   9.911 -0.3904 -0.5337  0.9299
  162MOL0     N21302   6.471   6.156   9.327 -0.6881 -0.3880 -0.4651
  162MOL0     N21303   6.572   6.103   9.259  0.1126 -0.2785  0.0982
  162MOL0     C21304   7.021   5.682   8.505  0.2731  0.0742  0.4911
  162MOL0     C21305   6.974   5.620   8.388  0.3205 -0.3919 -0.3537
  162MOL0     C21306   6.794   5.579   7.970  0.3439  0.2614  0.4842
  162MOL0     C21307   6.674   5.501   7.990  0.1820 -0.1718 -1.1485
  162MOL0     C21308   6.602   5.446   7.889 -0.1915 -0.0705  0.2655
  162MOL0     C21309   6.643   5.461   7.763 -0.1954  0.3281  0.0390
  162MOL0     O21310   6.565   5.405   7.665 -0.5504  0.0926 -0.8190
  162MOL0     C21311   6.591   5.452   7.529  0.1492  0.0019 -1.3478
  162MOL0     C21312   6.499   5.369   7.426 -1.7212 -0.1345 -0.9212
  162MOL0     C21313   6.350   5.406   7.429 -1.1487  0.7832  0.8178
  162MOL0     C21314   6.270   5.369   7.559 -1.2183  0.2336  0.9945
  162MOL0     C21315   6.130   5.349   7.528  0.1687  0.2520 -0.8871
  162MOL0     C21316   6.019   5.326   7.496  0.0654  0.1171  0.9179
  162MOL0     C21317   6.758   5.531   7.729  0.0656  0.3163  0.0855
  162MOL0     C21318   6.832   5.590   7.832  0.9835 -0.4152 -0.1849
  162MOL0     H21319   6.806   5.883   8.258  0.3358  0.4167 -1.2471
  162MOL0     H21320   6.903   5.998   8.462  2.2137 -0.4365  1.0282
  162MOL0     H21321   7.230   5.789   8.642 -0.6750  0.0473 -0.8079
  162MOL0     H21322   7.118   5.755   8.777  0.1301 -1.4653 -2.4947
  162MOL0     H21323   7.253   6.030   8.731 -2.3276  1.9936  2.0393
  162MOL0     H21324   7.311   5.910   8.842  0.6964 -0.0822 -0.7553
  162MOL0     H21325   7.023   5.997   8.852  0.2793 -0.5208 -1.9120
  162MOL0     H21326   7.139   6.112   8.922  3.2098 -0.9133  1.5381
  162MOL0     H21327   7.136   5.830   9.041  3.1155  0.7244 -1.9605
  162MOL0     H21328   7.214   5.978   9.088  1.0788 -0.3596 -1.2679
  162MOL0     H21329   6.921   5.955   9.034  2.4999 -1.7813 -3.4349
  162MOL0     H21330   7.001   6.084   9.141  1.6801 -0.2780  0.0307
  162MOL0     H21331   7.064   5.852   9.270 -0.0130  2.7274  1.9229
  162MOL0     H21332   6.943   5.783   9.174 -3.2808  1.8368  0.0766
  162MOL0     H21333   6.892   5.892   9.416  2.3486 -0.5640  0.0805
  162MOL0     H21334   6.887   6.043   9.330  0.7788 -0.9659  2.1886
  162MOL0     H21335   6.692   5.811   9.281  0.3435 -0.0259 -0.9783
  162MOL0     H21336   6.729   5.927   9.165  2.6985 -0.6035  0.6112
  162MOL0     H21337   6.560   5.913   9.516 -2.3760 -0.6399 -1.4007
  162MOL0     H21338   6.305   6.022   9.568  0.0785  0.5639  2.5234
  162MOL0     H21339   6.265   6.164   9.492  0.4802  1.2844 -0.2743
  162MOL0     H21340   6.347   6.300   9.650 -0.9266 -0.4224 -1.6841
  162MOL0     H21341   6.501   6.211   9.685 -0.8931  2.4141  5.3438
  162MOL0     H21342   6.370   6.032   9.794 -0.6054 -0.0926 -0.0896
  162MOL0     H21343   6.376   6.184   9.877 -1.0375  0.7502 -0.5952
  162MOL0     H21344   6.173   6.101   9.907  2.4338  0.6035  0.1557
  162MOL0     H21345   6.162   6.054   9.736  0.5100  0.4739  0.4461
  162MOL0     H21346   5.945   6.302   9.581  0.1774  0.1618  0.7422
  162MOL0     H21347   5.709   6.278   9.589 -1.5011  0.8179  0.4873
  162MOL0     H21348   5.299   6.074   9.611 -1.4054  0.6143 -0.9384
  162MOL0     H21349   5.050   6.080   9.649 -3.0508  4.6626 -2.7971
  162MOL0     H21350   4.869   6.451   9.654  1.2996  1.1290  1.0192
  162MOL0     H21351   4.892   6.475   9.824 -1.6286 -0.3468  1.7666
  162MOL0     H21352   4.684   6.354   9.868  0.2021 -2.7795 -1.3768
  162MOL0     H21353   4.657   6.352   9.683 -1.8771  2.1192 -0.0965
  162MOL0     H21354   4.631   6.579   9.661 -0.2698  2.3465  0.8558
  162MOL0     H21355   4.683   6.608   9.831  1.2403 -1.7459  0.6251
  162MOL0     H21356   4.427   6.460   9.740 -1.0207 -0.3397  2.1866
  162MOL0     H21357   4.470   6.508   9.904 -1.7719 -1.1524 -0.2153
  162MOL0     H21358   4.431   6.730   9.701 -0.9118 -3.1268 -2.6517
  162MOL0     H21359   4.442   6.732   9.884 -2.3130  1.8742 -0.8203
  162MOL0     H21360   4.247   6.597   9.688 -1.3723  1.1752 -0.7839
  162MOL0     H21361   4.222   6.749   9.774  0.7832  0.2829  0.6319
  162MOL0     H21362   4.130   6.506   9.863  1.7825 -3.4604  1.6307
  162MOL0     H21363   4.267   6.502   9.955  0.7365  1.1487  0.2507
  162MOL0     H21364   4.210   6.752  10.029  0.4729 -0.2863 -1.8692
  162MOL0     H21365   4.132   6.614  10.097  0.5594 -0.9959 -0.1439
  162MOL0     H21366   5.094   6.465   9.839 -1.1299 -0.8304  2.1484
  162MOL0     H21367   5.337   6.435   9.826  3.6969 -2.0620 -3.2436
  162MOL0     H21368   5.739   6.271  10.015  2.4585  4.3729  0.4496
  162MOL0     H21369   5.983   6.258  10.000 -1.0915 -0.8928  1.4092
  162MOL0     H21370   7.093   5.634   8.570  0.0671  1.8885  2.1528
  162MOL0     H21371   6.988   5.515   8.365  3.6028  0.0717 -0.9669
  162MOL0     H21372   6.634   5.503   8.091 -1.1001  2.2882 -1.6272
  162MOL0     H21373   6.511   5.395   7.917  0.3035 -0.2944  1.5017
  162MOL0     H21374   6.697   5.435   7.508 -0.2213 -1.8713 -1.8833
  162MOL0     H21375   6.564   5.558   7.520  0.1669  0.0606 -0.7375
  162MOL0     H21376   6.530   5.381   7.322  1.0145  2.2837  0.0416
  162MOL0     H21377   6.514   5.264   7.449 -2.9894 -0.3268 -0.9040
  162MOL0     H21378   6.306   5.352   7.345  1.8115  1.6271 -1.4076
  162MOL0     H21379   6.345   5.513   7.409  1.1315  0.8780  0.4626
  162MOL0     H21380   6.329   5.286   7.599  0.9613  0.8573 -0.7716
  162MOL0     H21381   6.290   5.450   7.630 -0.9101 -0.0121  1.1909
  162MOL0     H21382   5.915   5.299   7.493  0.1195 -0.7173  3.6508
  162MOL0     H21383   6.791   5.550   7.627 -3.4092 -0.4434 -1.3354
  162MOL0     H21384   6.911   5.651   7.789  2.9981 -1.3539  1.9801
  163MOL0     O21385   8.609   9.376  10.533  0.9840 -0.0124 -0.9459
  163MOL0     C21386   8.532   9.432  10.456 -0.1739 -0.3240 -0.9681
  163MOL0     O21387   8.569   9.527  10.370  0.0569  0.0588 -0.3501
  163MOL0     C21388   8.682   9.601  10.397  0.3313  0.9037 -0.6506
  163MOL0     C21389   8.796   9.560  10.328 -0.6133 -0.5401 -0.0819
  163MOL0     C21390   8.918   9.630  10.364 -0.5124 -0.0458 -0.4343
  163MOL0     C21391   8.915   9.742  10.450  0.1301 -0.5271 -0.6281
  163MOL0     O21392   9.023   9.811  10.502 -1.0211 -0.2050  0.4934
  163MOL0     C21393   9.151   9.754  10.495  0.9850  0.4538  0.2384
  163MOL0     C21394   9.222   9.783  10.629  0.0702 -0.3366  0.3397
  163MOL0     C21395   9.271   9.932  10.656  0.3717 -0.6646 -0.3945
  163MOL0     C21396   9.163  10.045  10.637  0.1827 -0.0896 -0.1342
  163MOL0     C21397   9.231  10.187  10.663  0.6293  0.7625  0.7177
  163MOL0     C21398   9.123  10.298  10.664  0.1082  0.1306  0.0517
  163MOL0     C21399   9.170  10.438  10.703  0.4480 -0.0060 -0.6045
  163MOL0     C21400   9.286  10.493  10.619  0.5147 -0.4039  0.3947
  163MOL0     N21401   9.328  10.622  10.666 -0.9819 -0.1585 -0.4398
  163MOL0     C21402   9.334  10.733  10.587  0.5653  0.1445 -0.2491
  163MOL0     C21403   9.351  10.838  10.672  0.5552 -0.5575  0.0880
  163MOL0     C21404   9.375  10.981  10.630  0.8050 -0.2128 -0.0003
  163MOL0     C21405   9.489  10.993  10.538 -0.8293 -0.6434  0.3730
  163MOL0     C21406   9.449  11.063  10.414 -0.4680 -0.1750  0.2299
  163MOL0     C21407   9.560  11.053  10.306 -0.3659 -0.4475  0.3299
  163MOL0     O21408   9.552  10.918  10.260  0.0528  0.1398  0.6818
  163MOL0     C21409   9.489  10.893  10.139 -0.2796  0.1495  0.2364
  163MOL0     C21410   9.390  10.978  10.083 -0.2728 -0.0629 -1.3201
  163MOL0     C21411   9.328  10.948   9.959  0.0198  0.4880  0.4334
  163MOL0     C21412   9.364  10.834   9.882 -0.5036  0.6439  0.3301
  163MOL0     C21413   9.293  10.824   9.752 -0.6617 -0.0780 -0.0315
  163MOL0     O21414   9.328  10.710   9.675  0.3315  0.4500 -0.0951
  163MOL0     C21415   9.241  10.667   9.575 -0.8383 -0.7003  0.3817
  163MOL0     C21416   9.221  10.738   9.453  0.9849 -0.0976 -0.7734
  163MOL0     C21417   9.124  10.704   9.357 -0.0563  1.0468 -0.9015
  163MOL0     C21418   9.054  10.580   9.377  0.5184 -0.5081  0.4213
  163MOL0     O21419   8.958  10.518   9.297 -0.1643  0.2985 -0.1746
  163MOL0     C21420   8.882  10.612   9.216  0.2858 -0.2277  0.7393
  163MOL0     C21421   8.728  10.577   9.210 -0.7304  1.2040 -0.2561
  163MOL0     C21422   8.664  10.643   9.088  0.3967  0.6620 -0.2795
  163MOL0     C21423   8.522  10.593   9.071 -0.6264  0.0554  0.6125
  163MOL0     C21424   8.457  10.636   8.939 -0.7732 -0.1914  0.5965
  163MOL0     C21425   8.443  10.790   8.921  0.5663 -0.2727 -0.1623
  163MOL0     C21426   8.356  10.852   9.022  0.1850 -0.7667  0.1167
  163MOL0     C21427   8.295  10.989   8.984 -0.3099 -0.0343  1.2721
  163MOL0    Cl21428   8.165  10.970   8.852 -0.4501 -0.5464  0.2422
  163MOL0     C21429   9.077  10.509   9.493  0.6782  0.3098 -0.7297
  163MOL0     C21430   9.173  10.548   9.592  0.1372  0.7498 -0.3503
  163MOL0     O21431   9.219  10.911   9.709 -0.0359 -0.7516 -0.5902
  163MOL0     C21432   9.457  10.745   9.935 -0.4125 -0.6218 -0.7722
  163MOL0     C21433   9.518  10.776  10.066  0.0083  0.4497 -0.5333
  163MOL0     N21434   9.352  10.793  10.804  0.0340  0.0589 -0.0060
  163MOL0     N21435   9.348  10.661  10.802 -0.5554  0.1226 -0.0883
  163MOL0     C21436   8.789   9.781  10.499  0.8213  0.7617 -0.3016
  163MOL0     C21437   8.677   9.708  10.485  0.3663  1.2420 -0.5429
  163MOL0     C21438   8.397   9.386  10.451 -0.0100  0.5195 -0.1923
  163MOL0     C21439   8.328   9.317  10.557  0.2590  0.0557  0.1449
  163MOL0     C21440   8.194   9.274  10.541  0.2041 -0.0205  0.3381
  163MOL0     C21441   8.120   9.327  10.438  0.5602  0.7970 -0.7907
  163MOL0     O21442   7.987   9.289  10.440  0.5946 -0.3486  0.3659
  163MOL0     C21443   7.892   9.389  10.384  0.0432  0.2173 -0.0025
  163MOL0     C21444   7.845   9.335  10.251 -0.0995 -0.4611  0.3389
  163MOL0     C21445   7.805   9.449  10.157  0.0043  0.3093 -0.1583
  163MOL0     C21446   7.735   9.394  10.033 -0.3946  0.0159 -0.4623
  163MOL0     C21447   7.603   9.342  10.057  0.4928 -0.0888  0.0299
  163MOL0     C21448   7.495   9.293  10.072  0.0451  0.0416 -0.8005
  163MOL0     C21449   8.183   9.391  10.331 -0.8199 -0.5208 -0.3800
  163MOL0     C21450   8.318   9.414  10.341  0.3482  0.2985 -0.3625
  163MOL0     H21451   8.807   9.476  10.260 -0.5825 -0.8753  0.3295
  163MOL0     H21452   9.014   9.588  10.335  0.9536  1.6584  1.6546
  163MOL0     H21453   9.204   9.800  10.410  1.2522 -0.6288 -0.2046
  163MOL0     H21454   9.155   9.646  10.481  1.4614  0.3770  0.9293
  163MOL0     H21455   9.316   9.726  10.632  0.0577 -0.3343  0.9530
  163MOL0     H21456   9.152   9.755  10.708 -0.2096 -0.0204  0.2078
  163MOL0     H21457   9.349   9.956  10.583  2.0379 -0.6793  1.2769
  163MOL0     H21458   9.307   9.938  10.760  0.0502 -0.5209 -0.2881
  163MOL0     H21459   9.129  10.045  10.533  0.6335  1.2149 -0.3023
  163MOL0     H21460   9.081  10.028  10.707  1.0917  0.7883  1.1779
  163MOL0     H21461   9.310  10.201  10.589  1.3581 -1.9569  0.8818
  163MOL0     H21462   9.267  10.179  10.766 -0.8817 -0.8995  1.1793
  163MOL0     H21463   9.045  10.261  10.731 -1.8952 -2.9784 -3.5765
  163MOL0     H21464   9.090  10.293  10.560 -1.2694 -1.5058  0.5220
  163MOL0     H21465   9.090  10.513  10.705  3.0930  3.0804 -0.4104
  163MOL0     H21466   9.208  10.443  10.805 -0.7685 -1.6122 -0.0355
  163MOL0     H21467   9.264  10.496  10.512  2.8468  0.1773 -0.1319
  163MOL0     H21468   9.371  10.427  10.639  1.2576  1.3248  3.3870
  163MOL0     H21469   9.332  10.734  10.478  0.1152 -0.6987 -0.2564
  163MOL0     H21470   9.398  11.048  10.713  0.5971 -0.6886  0.4522
  163MOL0     H21471   9.285  11.004  10.571 -0.1074 -0.9920  1.0479
  163MOL0     H21472   9.527  10.897  10.503  0.1349 -0.5450  1.1163
  163MOL0     H21473   9.574  11.039  10.590 -1.4574  0.8446  0.1505
  163MOL0     H21474   9.360  11.013  10.376  0.0902 -0.1219 -1.1952
  163MOL0     H21475   9.436  11.171  10.432 -0.8924 -0.4191  1.4669
  163MOL0     H21476   9.657  11.078  10.350 -1.5690  3.7274  1.0098
  163MOL0     H21477   9.553  11.127  10.225 -1.0399 -2.2419 -1.3261
  163MOL0     H21478   9.352  11.069  10.128  0.5998 -0.8658  1.1933
  163MOL0     H21479   9.261  11.024   9.919  1.8765  3.1873  2.1514
  163MOL0     H21480   9.285  10.824   9.439 -2.2015  2.5679 -0.3168
  163MOL0     H21481   9.126  10.765   9.267 -1.0938  1.7742 -0.4426
  163MOL0     H21482   8.929  10.610   9.117  0.7749  0.1996  0.9553
  163MOL0     H21483   8.900  10.717   9.244 -0.4777  0.9862 -2.7921
  163MOL0     H21484   8.684  10.617   9.301 -0.6499  2.9422 -0.9463
  163MOL0     H21485   8.734  10.468   9.208  1.3983  1.2340  1.1318
  163MOL0     H21486   8.728  10.623   9.001  0.2888  1.5522 -0.5763
  163MOL0     H21487   8.661  10.752   9.098 -0.4003  0.8717 -2.2334
  163MOL0     H21488   8.526  10.484   9.082  1.7203 -0.1505 -1.3711
  163MOL0     H21489   8.465  10.631   9.157 -1.4163  0.4004 -0.0433
  163MOL0     H21490   8.359  10.591   8.916 -0.8865 -0.6349  1.8932
  163MOL0     H21491   8.523  10.620   8.853 -1.7099  1.7006 -0.5628
  163MOL0     H21492   8.399  10.803   8.822  0.2087 -0.5178 -0.0376
  163MOL0     H21493   8.543  10.833   8.927  1.7290 -2.9297  1.1292
  163MOL0     H21494   8.268  10.791   9.046  3.0310 -4.1474  3.1467
  163MOL0     H21495   8.405  10.868   9.118 -1.7709  0.2188  1.0173
  163MOL0     H21496   8.374  11.056   8.948  0.1841 -0.4987  1.4806
  163MOL0     H21497   8.255  11.033   9.076  2.1774  1.8518  1.5665
  163MOL0     H21498   9.033  10.410   9.495  0.6764  0.3242  1.4098
  163MOL0     H21499   9.192  10.481   9.675 -0.7035  0.5299 -0.3182
  163MOL0     H21500   9.462  10.649   9.885 -0.8851 -0.5332 -0.9921
  163MOL0     H21501   9.574  10.695  10.113 -2.2039  0.9848  3.3774
  163MOL0     H21502   8.799   9.844  10.587 -0.7318 -1.7609  1.8495
  163MOL0     H21503   8.584   9.726  10.538  0.9278 -0.3085  1.0557
  163MOL0     H21504   8.369   9.301  10.656 -1.7627 -0.3842  0.9631
  163MOL0     H21505   8.157   9.223  10.629  1.2358 -2.5920 -0.6225
  163MOL0     H21506   7.943   9.484  10.369 -0.1061  1.7539  6.4923
  163MOL0     H21507   7.806   9.408  10.449  2.0117 -2.2853  3.6573
  163MOL0     H21508   7.934   9.303  10.197  2.0093  5.0170 -0.0258
  163MOL0     H21509   7.776   9.250  10.255 -2.8066  1.5374 -0.5494
  163MOL0     H21510   7.894   9.506  10.129 -1.4651  2.1317 -1.4260
  163MOL0     H21511   7.736   9.517  10.208 -3.0787 -2.3723 -0.4679
  163MOL0     H21512   7.712   9.470   9.958 -2.5680 -0.2655 -0.1328
  163MOL0     H21513   7.795   9.318   9.982  0.1728  0.5290 -0.5834
  163MOL0     H21514   7.405   9.235  10.068  0.2284 -0.5463  2.0096
  163MOL0     H21515   8.121   9.417  10.246 -1.8088 -1.6293 -0.0390
  163MOL0     H21516   8.358   9.486  10.270  2.8899  0.6291  1.2769
  164MOL0     O21517   0.935   6.915  10.717 -0.1077  0.1243  0.1846
  164MOL0     C21518   1.033   6.943  10.795  0.8256 -0.2827  0.0354
  164MOL0     O21519   1.024   6.952  10.935 -0.7404  0.6075 -0.1977
  164MOL0     C21520   0.897   6.939  10.986 -0.7227  0.0905  0.2026
  164MOL0     C21521   0.839   7.042  11.054 -0.4981  0.3700 -0.8933
  164MOL0     C21522   0.721   7.017  11.119  0.2459 -0.5001 -0.4678
  164MOL0     C21523   0.657   6.893  11.129  0.6242 -0.1757  0.1161
  164MOL0     O21524   0.540   6.889  11.196 -0.6296 -0.1740 -0.1509
  164MOL0     C21525   0.472   6.767  11.210 -0.2604  0.3543 -0.0339
  164MOL0     C21526   0.340   6.780  11.281 -0.1103 -0.7350  0.9181
  164MOL0     C21527   0.294   6.633  11.300  0.3958 -0.3858 -0.1593
  164MOL0     C21528   0.176   6.620  11.384  0.3750  0.0836 -0.9467
  164MOL0     C21529   0.143   6.470  11.423  0.0669  0.1914  0.2060
  164MOL0     C21530   0.160   6.368  11.304  0.0027  0.6923 -0.5563
  164MOL0     C21531   0.037   6.363  11.205 -1.0652 -0.3332 -0.7009
  164MOL0     C21532  -0.047   6.232  11.231 -0.7147  0.9245 -0.1507
  164MOL0     N21533  -0.115   6.239  11.366  0.7406  0.6032  0.3887
  164MOL0     C21534  -0.072   6.205  11.495 -0.0587  0.6468  1.0571
  164MOL0     C21535  -0.184   6.224  11.572 -0.2312 -0.9074 -0.5989
  164MOL0     C21536  -0.191   6.198  11.722 -0.3213 -0.6157  0.8012
  164MOL0     C21537  -0.313   6.123  11.761  0.9033 -0.4173  0.5449
  164MOL0     C21538  -0.317   5.982  11.694 -0.6026  0.4363  0.4528
  164MOL0     C21539  -0.420   5.892  11.773 -0.0488 -0.6551  0.2426
  164MOL0     O21540  -0.553   5.948  11.763 -0.1236 -0.1356 -1.7404
  164MOL0     C21541  -0.663   5.878  11.810 -0.2140 -0.4166 -0.0490
  164MOL0     C21542  -0.661   5.762  11.892  0.0729  0.7412  0.5783
  164MOL0     C21543  -0.778   5.707  11.947  0.2742  0.4795 -0.0305
  164MOL0     C21544  -0.904   5.749  11.901  0.1297 -0.3594 -0.8338
  164MOL0     C21545  -1.021   5.671  11.953 -0.6471 -0.2423  0.3288
  164MOL0     O21546  -1.143   5.703  11.899  0.0248  0.0116  0.0055
  164MOL0     C21547  -1.252   5.657  11.960 -1.0604 -0.6539 -0.5486
  164MOL0     C21548  -1.345   5.755  11.978  0.0883 -0.8439  0.8002
  164MOL0     C21549  -1.472   5.731  12.040 -0.0502  0.7551 -0.2942
  164MOL0     C21550  -1.498   5.598  12.074  0.0184 -0.0351 -0.1839
  164MOL0     O21551  -1.616   5.558  12.131 -0.2353 -0.2098 -0.2248
  164MOL0     C21552  -1.723   5.653  12.121 -0.1107 -0.4159  0.0298
  164MOL0     C21553  -1.853   5.596  12.175 -0.0148  0.6608 -0.4846
  164MOL0     C21554  -1.855   5.575  12.320 -1.0970  0.1627 -0.5088
  164MOL0     C21555  -1.990   5.530  12.369  0.2853  0.3234 -0.2465
  164MOL0     C21556  -1.994   5.503  12.514 -0.8100  0.1929  0.7988
  164MOL0     C21557  -2.133   5.514  12.573 -0.5897 -0.8362 -0.4070
  164MOL0     C21558  -2.242   5.426  12.502 -0.0448  0.0936 -0.9530
  164MOL0     C21559  -2.366   5.443  12.597  0.4529  0.2085  0.5568
  164MOL0    Cl21560  -2.494   5.353  12.498 -0.2361 -0.4256 -0.1271
  164MOL0     C21561  -1.406   5.503  12.066 -0.1209 -0.7107  0.6847
  164MOL0     C21562  -1.283   5.527  12.011 -0.5380 -0.2598 -0.3143
  164MOL0     O21563  -1.003   5.597  12.052 -0.2307  0.5676 -0.2310
  164MOL0     C21564  -0.907   5.854  11.807  0.5270 -0.3725 -0.0473
  164MOL0     C21565  -0.790   5.916  11.767 -1.0458  0.0952 -0.5531
  164MOL0     N21566  -0.291   6.251  11.493  1.3176 -0.8145 -0.6578
  164MOL0     N21567  -0.249   6.267  11.373  0.2855  0.1041  0.0092
  164MOL0     C21568   0.711   6.793  11.043 -0.1400 -1.0410  0.9334
  164MOL0     C21569   0.839   6.811  10.979  0.3794  0.3254  0.1225
  164MOL0     C21570   1.166   6.955  10.733 -0.4272  0.1077  0.4213
  164MOL0     C21571   1.176   6.944  10.599 -1.2416 -0.1813  0.1408
  164MOL0     C21572   1.295   6.969  10.537  0.7577  0.4413  0.1074
  164MOL0     C21573   1.415   6.996  10.604 -0.4748 -0.5833  0.2631
  164MOL0     O21574   1.526   7.012  10.524 -0.3104  0.3458  0.3752
  164MOL0     C21575   1.648   7.057  10.581  0.2026 -0.3996  0.3895
  164MOL0     C21576   1.770   7.020  10.501  0.3265  0.7215 -0.0844
  164MOL0     C21577   1.889   7.099  10.562 -0.5951 -0.0109  0.2936
  164MOL0     C21578   2.014   7.119  10.473 -0.4265  0.3437  0.7112
  164MOL0     C21579   1.982   7.197  10.351  0.0789 -0.2440  0.2981
  164MOL0     C21580   1.962   7.254  10.245 -0.1744  0.0099  0.0269
  164MOL0     C21581   1.406   7.010  10.744 -0.7341  0.3890 -0.7646
  164MOL0     C21582   1.284   6.990  10.802 -0.5608  0.0423 -0.2291
  164MOL0     H21583   0.890   7.136  11.071  0.4751 -0.1529 -0.8257
  164MOL0     H21584   0.669   7.095  11.172  2.2895 -0.1670  1.1852
  164MOL0     H21585   0.539   6.710  11.275  1.7786  2.3819 -0.2527
  164MOL0     H21586   0.448   6.716  11.116  1.3793  1.8491 -1.3303
  164MOL0     H21587   0.276   6.853  11.231 -0.5291 -0.5728  1.6715
  164MOL0     H21588   0.366   6.833  11.373  0.7602  1.7185 -0.6437
  164MOL0     H21589   0.371   6.573  11.349 -0.0846 -1.3922 -0.6028
  164MOL0     H21590   0.281   6.591  11.200  1.7533 -0.0210 -0.5059
  164MOL0     H21591   0.184   6.681  11.474 -0.0208 -0.4820 -0.5285
  164MOL0     H21592   0.085   6.663  11.341 -1.7173 -1.1480  1.9605
  164MOL0     H21593   0.044   6.461  11.469 -0.1231 -3.2443 -0.5647
  164MOL0     H21594   0.221   6.442  11.494  1.8103  0.5721 -1.4968
  164MOL0     H21595   0.174   6.263  11.333 -1.7451  0.6881  0.4421
  164MOL0     H21596   0.256   6.385  11.254  0.0560 -0.1469 -0.7630
  164MOL0     H21597  -0.025   6.453  11.202 -1.0496 -0.3232 -0.7422
  164MOL0     H21598   0.083   6.346  11.107 -3.4200 -1.3799 -1.6963
  164MOL0     H21599   0.020   6.145  11.234  2.2076  2.9185 -1.8522
  164MOL0     H21600  -0.122   6.219  11.153 -1.1159 -0.7914  0.4917
  164MOL0     H21601   0.025   6.158  11.509 -1.2183 -3.2948 -2.3545
  164MOL0     H21602  -0.188   6.294  11.776 -0.2698  0.5521 -1.1765
  164MOL0     H21603  -0.099   6.143  11.744  0.1244  0.5014  1.8942
  164MOL0     H21604  -0.403   6.171  11.722  1.2686 -0.0571  0.1203
  164MOL0     H21605  -0.319   6.115  11.869  0.7551 -0.3903  0.5389
  164MOL0     H21606  -0.340   5.983  11.587  0.4330 -1.4147  0.1692
  164MOL0     H21607  -0.226   5.923  11.703 -2.6298 -2.7131  2.2558
  164MOL0     H21608  -0.390   5.888  11.878  1.8358  0.8482 -0.1675
  164MOL0     H21609  -0.415   5.788  11.740  1.7063 -0.2125 -1.0605
  164MOL0     H21610  -0.571   5.720  11.936 -0.0252 -0.6433 -0.4588
  164MOL0     H21611  -0.769   5.625  12.018 -1.0770 -0.5609 -0.9958
  164MOL0     H21612  -1.319   5.856  11.946 -0.7816 -0.6202  0.7697
  164MOL0     H21613  -1.545   5.811  12.048 -0.0154  0.6967  0.8298
  164MOL0     H21614  -1.725   5.673  12.013  3.3186 -2.2999 -0.5645
  164MOL0     H21615  -1.702   5.747  12.173 -0.0402 -0.6700  0.4675
  164MOL0     H21616  -1.879   5.499  12.131  3.3754  0.1346 -1.6054
  164MOL0     H21617  -1.936   5.662  12.148 -1.5139 -0.7801  0.4399
  164MOL0     H21618  -1.851   5.670  12.375 -1.2276  0.7844 -1.5514
  164MOL0     H21619  -1.778   5.500  12.340 -1.3395 -0.2622 -1.1271
  164MOL0     H21620  -2.056   5.616  12.350  1.5069  1.6373  1.1738
  164MOL0     H21621  -2.030   5.445  12.313 -2.8587  1.6500 -0.2089
  164MOL0     H21622  -1.933   5.571  12.573  0.3061 -2.9825  3.6586
  164MOL0     H21623  -1.946   5.405  12.530 -0.4310  0.6213  2.4450
  164MOL0     H21624  -2.166   5.618  12.565  0.4611 -0.4350  0.1949
  164MOL0     H21625  -2.126   5.504  12.682  0.7636  2.0485 -0.1191
  164MOL0     H21626  -2.268   5.454  12.399  1.4207 -0.5626 -1.5326
  164MOL0     H21627  -2.194   5.328  12.501  1.0898  0.6140  0.3500
  164MOL0     H21628  -2.399   5.548  12.601 -0.5323 -0.0326 -0.6604
  164MOL0     H21629  -2.347   5.404  12.698  2.3131 -0.5591 -0.0438
  164MOL0     H21630  -1.436   5.404  12.101 -0.0463 -0.0296  2.8317
  164MOL0     H21631  -1.204   5.454  11.997 -0.7185 -0.4813 -0.2034
  164MOL0     H21632  -1.003   5.882  11.765  0.4701 -1.9890 -1.0736
  164MOL0     H21633  -0.791   5.988  11.686  0.4061 -0.7393 -1.3445
  164MOL0     H21634   0.673   6.697  11.011  0.6925 -0.9851 -0.2867
  164MOL0     H21635   0.896   6.732  10.931  0.8351 -0.2108  1.4737
  164MOL0     H21636   1.095   6.912  10.534 -2.5532 -0.6769  1.9519
  164MOL0     H21637   1.304   6.951  10.430  0.3521 -0.3699  0.2096
  164MOL0     H21638   1.661   7.024  10.684  1.2121  0.8267  0.6685
  164MOL0     H21639   1.652   7.166  10.587 -1.5427 -0.3241  0.7560
  164MOL0     H21640   1.799   6.915  10.498  1.9643  1.1555 -2.3697
  164MOL0     H21641   1.765   7.051  10.396  2.9245  2.1526  0.1176
  164MOL0     H21642   1.919   7.043  10.651  2.0404  2.3125  1.0225
  164MOL0     H21643   1.867   7.203  10.590  0.1997 -0.2637  1.9716
  164MOL0     H21644   2.090   7.167  10.535 -2.1639  0.9599  2.4769
  164MOL0     H21645   2.042   7.019  10.439 -0.5065 -0.0586  1.8017
  164MOL0     H21646   1.942   7.294  10.147 -1.4548  0.4670  0.4634
  164MOL0     H21647   1.487   7.033  10.813  0.2117  0.7870 -1.9715
  164MOL0     H21648   1.292   6.999  10.910  1.4355 -1.1253 -0.2395
  165MOL0     O21649   4.781   6.663   8.217  0.4995  0.0299 -0.1670
  165MOL0     C21650   4.705   6.616   8.134  0.5041 -0.8617 -0.6206
  165MOL0     O21651   4.750   6.549   8.018  0.4806 -0.1160 -0.6534
  165MOL0     C21652   4.883   6.531   8.020 -0.7804 -0.3351 -0.3122
  165MOL0     C21653   4.945   6.435   8.092 -0.6918 -0.0369 -1.1566
  165MOL0     C21654   5.083   6.421   8.084 -0.1204 -0.8636  1.2149
  165MOL0     C21655   5.160   6.506   8.005 -0.3620 -0.1640  0.5877
  165MOL0     O21656   5.291   6.462   7.982  0.3009 -0.2249  0.3817
  165MOL0     C21657   5.391   6.508   8.078  0.4459 -0.0474 -0.3092
  165MOL0     C21658   5.531   6.496   8.026  0.0055  0.1146 -0.7192
  165MOL0     C21659   5.635   6.498   8.131  0.0243  0.2025 -0.6558
  165MOL0     C21660   5.781   6.501   8.085  0.7277 -0.1610  0.2462
  165MOL0     C21661   5.865   6.554   8.199 -0.0473  0.4081  0.5911
  165MOL0     C21662   6.023   6.530   8.180 -0.1300 -0.5680 -0.3873
  165MOL0     C21663   6.116   6.587   8.298 -0.3390 -0.0740 -0.0422
  165MOL0     C21664   6.259   6.539   8.275 -0.1717 -0.1695 -0.0522
  165MOL0     N21665   6.339   6.638   8.201  0.2586  0.3141 -0.0491
  165MOL0     C21666   6.383   6.755   8.250  0.8985 -0.2031 -0.6233
  165MOL0     C21667   6.459   6.812   8.157  1.5958  0.4243  0.5883
  165MOL0     C21668   6.541   6.941   8.167  0.2454 -0.6656  0.1630
  165MOL0     C21669   6.467   7.066   8.120 -0.1294  0.2765  0.5618
  165MOL0     C21670   6.440   7.071   7.967 -0.1501 -0.3654  0.0726
  165MOL0     C21671   6.574   7.093   7.895  0.0417  0.6978  0.3392
  165MOL0     O21672   6.668   7.189   7.949  0.6792 -0.0127 -0.5563
  165MOL0     C21673   6.798   7.148   7.928  0.0678 -0.4158 -0.0041
  165MOL0     C21674   6.887   7.201   8.022  0.7536  0.1274  0.4338
  165MOL0     C21675   7.026   7.195   8.005 -0.5040  0.4735 -0.1006
  165MOL0     C21676   7.079   7.115   7.897  0.6004 -0.9571  0.4411
  165MOL0     C21677   7.215   7.099   7.883 -1.2168  0.7047 -0.0013
  165MOL0     O21678   7.305   7.129   7.975  0.5150  0.6005 -0.4652
  165MOL0     C21679   7.431   7.161   7.930  0.4776 -0.2520 -0.2610
  165MOL0     C21680   7.465   7.285   7.875  0.3957  0.2615  0.2670
  165MOL0     C21681   7.595   7.307   7.832  0.6234  0.4514  0.4196
  165MOL0     C21682   7.688   7.203   7.802 -0.7270 -0.3067  0.8605
  165MOL0     O21683   7.819   7.225   7.775 -0.5494  0.3400  0.1026
  165MOL0     C21684   7.870   7.172   7.648 -0.4861  0.0473  0.2166
  165MOL0     C21685   8.012   7.209   7.618 -0.2103 -0.4901  0.0930
  165MOL0     C21686   8.048   7.354   7.664  0.5986  0.8409 -0.1892
  165MOL0     C21687   7.996   7.453   7.550  0.1072 -0.0755  0.3411
  165MOL0     C21688   8.007   7.599   7.577 -0.3466 -0.1257  1.0083
  165MOL0     C21689   7.966   7.671   7.451  0.0648 -0.1077  0.2373
  165MOL0     C21690   7.971   7.822   7.468 -0.0795 -0.2530 -0.5630
  165MOL0     C21691   7.868   7.900   7.381  0.6880  0.2752 -0.7691
  165MOL0    Cl21692   7.881   8.085   7.410  0.4228 -0.1648  0.3203
  165MOL0     C21693   7.650   7.073   7.837 -0.8438 -0.7447 -0.1908
  165MOL0     C21694   7.526   7.056   7.910  0.3642 -1.1633  0.5681
  165MOL0     O21695   7.253   7.075   7.765  0.6500  0.1474 -0.2886
  165MOL0     C21696   6.984   7.070   7.806 -0.0322 -0.2082 -0.1229
  165MOL0     C21697   6.853   7.081   7.820  1.1642 -0.3235  0.4801
  165MOL0     N21698   6.453   6.726   8.044  0.3789 -0.3010  0.1753
  165MOL0     N21699   6.379   6.630   8.072  0.0315 -0.2149  0.1269
  165MOL0     C21700   5.104   6.621   7.952 -0.4234  0.0991 -0.2227
  165MOL0     C21701   4.960   6.630   7.958 -0.7078 -0.2847  0.3955
  165MOL0     C21702   4.557   6.628   8.156 -0.2096 -1.0641  0.1325
  165MOL0     C21703   4.465   6.599   8.048  0.5420  0.1931  0.2868
  165MOL0     C21704   4.331   6.614   8.070  0.2819  0.9427 -0.5605
  165MOL0     C21705   4.277   6.648   8.195  0.1686 -1.0021 -0.5773
  165MOL0     O21706   4.144   6.671   8.234 -0.2464  0.1388  0.1704
  165MOL0     C21707   4.068   6.555   8.190  0.1518  0.2566 -0.8425
  165MOL0     C21708   3.932   6.553   8.258 -0.4304 -0.0657 -0.1151
  165MOL0     C21709   3.870   6.415   8.250  0.2808  1.5674 -0.0908
  165MOL0     C21710   3.726   6.391   8.308 -0.4572 -0.1109 -1.4398
  165MOL0     C21711   3.687   6.252   8.291  0.1939  0.6240  0.4725
  165MOL0     C21712   3.658   6.132   8.279  0.7446 -0.2370 -0.7659
  165MOL0     C21713   4.366   6.686   8.292 -1.1520  0.1631 -0.9533
  165MOL0     C21714   4.501   6.676   8.275 -0.8369  0.2564 -0.0908
  165MOL0     H21715   4.892   6.363   8.155  0.4493  1.1808  1.3713
  165MOL0     H21716   5.124   6.330   8.128  0.0354 -2.5439 -2.0956
  165MOL0     H21717   5.375   6.442   8.164  0.3159  1.0572  0.5355
  165MOL0     H21718   5.370   6.612   8.104 -0.1291  0.7426 -3.4507
  165MOL0     H21719   5.542   6.579   7.956  0.6750 -0.0396 -0.8015
  165MOL0     H21720   5.550   6.404   7.969 -1.6718 -0.2744 -0.6941
  165MOL0     H21721   5.620   6.405   8.187  0.5703  1.3341  1.4760
  165MOL0     H21722   5.631   6.579   8.204  2.2499  0.0680 -0.2969
  165MOL0     H21723   5.806   6.400   8.051 -2.0035 -0.4107 -1.2458
  165MOL0     H21724   5.782   6.566   7.997  3.7407 -2.0482 -1.2804
  165MOL0     H21725   5.835   6.498   8.288  2.4754 -1.1621  0.5846
  165MOL0     H21726   5.846   6.661   8.208  0.2607  0.5007  0.1653
  165MOL0     H21727   6.040   6.564   8.077  0.6095 -0.9369 -0.3955
  165MOL0     H21728   6.043   6.423   8.188 -1.1411 -0.7179  0.2838
  165MOL0     H21729   6.103   6.695   8.314 -1.6717 -0.1749 -0.3264
  165MOL0     H21730   6.078   6.535   8.387  0.1024  3.0220  2.1322
  165MOL0     H21731   6.263   6.439   8.229 -1.5765 -0.8470  1.2203
  165MOL0     H21732   6.316   6.519   8.366  0.7584 -1.3521 -0.8564
  165MOL0     H21733   6.361   6.787   8.352 -2.8311 -2.0806 -0.6509
  165MOL0     H21734   6.637   6.928   8.116 -0.6847  0.3863 -1.9907
  165MOL0     H21735   6.555   6.955   8.274 -1.4708 -0.4746  0.4019
  165MOL0     H21736   6.523   7.159   8.134 -2.2533  1.9507 -1.3025
  165MOL0     H21737   6.376   7.074   8.181 -0.6962  0.8954 -0.3446
  165MOL0     H21738   6.383   6.986   7.930 -0.3019 -0.6273  0.8987
  165MOL0     H21739   6.376   7.158   7.951 -2.6000 -1.6619  2.1807
  165MOL0     H21740   6.550   7.123   7.792 -1.8003 -1.0521  0.2076
  165MOL0     H21741   6.631   7.001   7.879  2.2047  1.6967  1.7969
  165MOL0     H21742   6.840   7.260   8.100  2.1034 -0.0327  1.4151
  165MOL0     H21743   7.089   7.249   8.075 -2.7753  2.0981  0.7843
  165MOL0     H21744   7.382   7.354   7.874  0.6251  0.5527 -1.2287
  165MOL0     H21745   7.620   7.412   7.819  0.5028  0.4602  0.2536
  165MOL0     H21746   7.805   7.199   7.564 -0.9523 -2.9211 -0.5222
  165MOL0     H21747   7.860   7.063   7.652 -1.1781  0.1415  1.7439
  165MOL0     H21748   8.042   7.200   7.513  1.3307  3.4740  0.0284
  165MOL0     H21749   8.077   7.142   7.676  1.8007  0.8964 -0.4312
  165MOL0     H21750   8.157   7.361   7.661  0.6693  1.5987  2.0419
  165MOL0     H21751   8.015   7.374   7.766 -2.5017  0.8142 -1.0698
  165MOL0     H21752   8.040   7.426   7.453  0.4475 -0.0922  0.5013
  165MOL0     H21753   7.891   7.425   7.535  0.4489 -0.3122 -2.1291
  165MOL0     H21754   8.111   7.625   7.597 -0.7280  2.2796  0.1637
  165MOL0     H21755   7.964   7.625   7.675 -1.0276 -1.2738  1.0331
  165MOL0     H21756   7.867   7.633   7.424 -0.6947  0.5282  2.0267
  165MOL0     H21757   8.038   7.644   7.373  1.0779 -0.5973  1.3162
  165MOL0     H21758   7.958   7.847   7.574 -0.8357  0.3032 -0.7781
  165MOL0     H21759   8.071   7.856   7.438 -0.3231 -1.9618 -3.7870
  165MOL0     H21760   7.764   7.871   7.395  1.1502 -0.2832  2.3577
  165MOL0     H21761   7.889   7.874   7.277  1.5583  0.1883 -0.5783
  165MOL0     H21762   7.720   6.990   7.833  0.5878  0.3702  0.9044
  165MOL0     H21763   7.517   6.954   7.945  2.6995 -0.7950  2.4599
  165MOL0     H21764   7.025   7.018   7.720  4.6476  1.4967  0.7825
  165MOL0     H21765   6.782   7.042   7.746 -2.9729  1.4121  3.1505
  165MOL0     H21766   5.170   6.691   7.902 -1.7152  1.3216 -0.2875
  165MOL0     H21767   4.910   6.714   7.910 -1.1168 -2.9100 -4.5095
  165MOL0     H21768   4.495   6.578   7.946 -2.5922  1.5890 -1.0613
  165MOL0     H21769   4.252   6.582   8.003 -0.2909  1.3582 -0.0926
  165MOL0     H21770   4.116   6.463   8.222 -0.2903  0.0403 -0.8051
  165MOL0     H21771   4.055   6.556   8.081 -1.4127 -1.7205 -0.7305
  165MOL0     H21772   3.955   6.590   8.359 -0.5784  1.0965 -0.4899
  165MOL0     H21773   3.862   6.624   8.213 -1.7237  0.2524  2.2204
  165MOL0     H21774   3.944   6.356   8.306  2.4119  2.9255 -1.3410
  165MOL0     H21775   3.879   6.378   8.148  4.3572 -0.1539  0.6821
  165MOL0     H21776   3.718   6.423   8.412 -0.3608  0.8867 -1.7244
  165MOL0     H21777   3.672   6.465   8.247 -3.3389 -1.0735 -0.2270
  165MOL0     H21778   3.639   6.028   8.260 -0.1331 -0.0574 -0.9209
  165MOL0     H21779   4.337   6.728   8.388  1.6574  1.7701 -0.6870
  165MOL0     H21780   4.570   6.697   8.356  0.4833  2.0926 -1.6146
  166MOL0     O21781   3.645   8.827   4.948  0.8299 -0.4438  0.2488
  166MOL0     C21782   3.556   8.801   4.872 -0.2257 -0.2042  0.0933
  166MOL0     O21783   3.575   8.762   4.737  0.3694 -0.1301 -0.1558
  166MOL0     C21784   3.697   8.720   4.690  0.6102 -0.5357 -0.9719
  166MOL0     C21785   3.735   8.761   4.565 -0.3158 -0.1570  0.5087
  166MOL0     C21786   3.858   8.712   4.508  0.2542  0.5243  0.2879
  166MOL0     C21787   3.927   8.605   4.570 -0.7919  0.3886 -0.1782
  166MOL0     O21788   4.047   8.553   4.528  0.2628  0.1693 -0.0832
  166MOL0     C21789   4.099   8.589   4.396 -0.3631  0.8099  0.2530
  166MOL0     C21790   4.205   8.499   4.333 -0.3329 -0.0722  0.2736
  166MOL0     C21791   4.164   8.364   4.287  0.1870 -0.0317  0.3398
  166MOL0     C21792   4.277   8.282   4.221  0.3018  0.1211 -0.2183
  166MOL0     C21793   4.221   8.148   4.161 -0.7107  0.0958  0.1916
  166MOL0     C21794   4.259   8.119   4.014  0.4695  0.1061  0.1335
  166MOL0     C21795   4.412   8.115   3.990 -0.2452  0.4813 -0.6712
  166MOL0     C21796   4.466   7.978   4.045  0.4085 -0.1773  0.1658
  166MOL0     N21797   4.600   7.943   3.987 -0.0399 -0.0603 -0.4196
  166MOL0     C21798   4.637   7.959   3.852 -0.3980 -0.0782  0.2952
  166MOL0     C21799   4.763   7.901   3.840 -0.3865 -0.8059 -0.2868
  166MOL0     C21800   4.849   7.873   3.711  0.4309 -0.5262 -0.2722
  166MOL0     C21801   4.891   7.998   3.643 -0.2841  0.4761  0.2753
  166MOL0     C21802   4.983   8.097   3.720 -0.2737  0.5280 -0.8206
  166MOL0     C21803   5.126   8.044   3.725  0.2918 -1.0880  0.3316
  166MOL0     O21804   5.196   8.026   3.598  0.3822 -0.7304 -0.6121
  166MOL0     C21805   5.323   7.980   3.589 -0.9082  0.3747  0.1626
  166MOL0     C21806   5.403   7.963   3.703  0.5416 -0.5578 -0.1518
  166MOL0     C21807   5.547   7.947   3.683 -0.0930 -0.7450  0.7562
  166MOL0     C21808   5.604   7.952   3.550 -0.2029 -0.4735 -0.5205
  166MOL0     C21809   5.747   7.949   3.534 -0.4125  0.3472  0.3361
  166MOL0     O21810   5.799   7.948   3.402 -0.0731 -1.0143 -0.1911
  166MOL0     C21811   5.930   7.918   3.374 -0.3155 -0.2706  0.8236
  166MOL0     C21812   6.035   7.916   3.466  0.3708  0.7112  0.5720
  166MOL0     C21813   6.167   7.896   3.415 -0.1443  0.3058 -0.3296
  166MOL0     C21814   6.196   7.874   3.280  0.8360  0.4772  0.3749
  166MOL0     O21815   6.320   7.852   3.229  0.6034  0.2157  0.2063
  166MOL0     C21816   6.383   7.952   3.151  0.1106 -0.2771 -0.3505
  166MOL0     C21817   6.538   7.913   3.122  0.6797 -0.5783 -0.4051
  166MOL0     C21818   6.600   8.026   3.042 -0.1277  0.9186  0.3066
  166MOL0     C21819   6.748   8.013   3.043  0.5889  0.3611 -0.2503
  166MOL0     C21820   6.832   8.102   2.953 -0.1881 -0.4708 -0.9182
  166MOL0     C21821   6.982   8.127   3.003 -0.5045  0.9684 -0.3511
  166MOL0     C21822   7.054   7.988   3.001  0.0343  0.0084 -0.1590
  166MOL0     C21823   7.197   7.990   3.061  0.6637  0.0627 -0.0119
  166MOL0    Cl21824   7.279   8.073   2.926  0.0855 -0.3190  0.1480
  166MOL0     C21825   6.088   7.877   3.189  0.9609  1.0518 -0.7776
  166MOL0     C21826   5.959   7.896   3.239  0.0513 -0.4136 -0.7383
  166MOL0     O21827   5.803   7.936   3.643 -0.2348 -0.0753  0.3015
  166MOL0     C21828   5.518   7.978   3.450 -0.6459 -0.0783 -0.5317
  166MOL0     C21829   5.381   7.984   3.460  0.4274  0.0258 -0.1283
  166MOL0     N21830   4.801   7.869   3.964 -0.8952  0.5354 -0.7449
  166MOL0     N21831   4.714   7.901   4.053 -0.6255 -1.2756  0.2959
  166MOL0     C21832   3.878   8.569   4.697  0.5588 -0.9721 -0.0233
  166MOL0     C21833   3.769   8.631   4.764 -0.1930 -0.0640  0.2990
  166MOL0     C21834   3.420   8.816   4.925  0.3474 -0.1983 -0.7497
  166MOL0     C21835   3.313   8.735   4.879  0.0885 -1.7677  0.3669
  166MOL0     C21836   3.182   8.762   4.918 -0.3212 -0.6306 -0.5263
  166MOL0     C21837   3.152   8.860   5.012  0.4104 -0.5963  0.4237
  166MOL0     O21838   3.020   8.875   5.054 -1.0879 -0.2705  0.0213
  166MOL0     C21839   2.977   8.808   5.173 -0.5032  0.4606 -0.1902
  166MOL0     C21840   2.997   8.655   5.174  0.4704 -0.4969 -0.1821
  166MOL0     C21841   2.913   8.577   5.275 -0.4616  0.2963  0.0001
  166MOL0     C21842   2.764   8.558   5.253 -0.3072 -0.7932  0.6942
  166MOL0     C21843   2.689   8.513   5.371  0.2671 -0.5055  0.6569
  166MOL0     C21844   2.637   8.495   5.480 -0.7044  1.5370 -0.4020
  166MOL0     C21845   3.254   8.938   5.065 -0.8990  0.0683 -0.3864
  166MOL0     C21846   3.389   8.917   5.021  0.3671  0.8677  0.2862
  166MOL0     H21847   3.687   8.845   4.517  1.2716 -0.0481 -1.0152
  166MOL0     H21848   3.890   8.756   4.414 -0.5579  1.0082  0.2325
  166MOL0     H21849   4.144   8.688   4.407  0.5409  0.4468 -0.0860
  166MOL0     H21850   4.025   8.611   4.320 -0.0363  0.9264 -0.0333
  166MOL0     H21851   4.280   8.477   4.410 -0.7242  0.3753  0.7915
  166MOL0     H21852   4.256   8.556   4.255  0.1909  0.5117  1.0141
  166MOL0     H21853   4.082   8.371   4.215  0.0186 -2.5846  0.1952
  166MOL0     H21854   4.126   8.307   4.372 -0.4142  1.4569  1.0965
  166MOL0     H21855   4.323   8.338   4.139 -2.2984  0.4911 -1.5405
  166MOL0     H21856   4.353   8.264   4.298 -0.5017 -1.1396  0.3111
  166MOL0     H21857   4.113   8.156   4.174 -0.5361  0.6540  1.5051
  166MOL0     H21858   4.243   8.060   4.222 -1.5605 -0.1197  0.2006
  166MOL0     H21859   4.217   8.198   3.952  2.0858  0.3588 -0.6762
  166MOL0     H21860   4.209   8.028   3.979  2.8263 -0.6771 -1.3943
  166MOL0     H21861   4.434   8.134   3.885 -1.0091  3.0139 -0.4273
  166MOL0     H21862   4.456   8.200   4.043  0.3217 -0.4712  0.4404
  166MOL0     H21863   4.401   7.894   4.021  0.2649  0.4314 -1.7231
  166MOL0     H21864   4.480   7.995   4.152  1.7655  1.7707 -0.2516
  166MOL0     H21865   4.575   7.999   3.773 -2.5690 -3.3215  0.1524
  166MOL0     H21866   4.781   7.817   3.645  0.1051 -1.9827  1.2352
  166MOL0     H21867   4.940   7.818   3.737  3.5029  2.4788 -3.5472
  166MOL0     H21868   4.798   8.053   3.626 -0.1942  0.3014 -0.8513
  166MOL0     H21869   4.940   7.970   3.549 -1.9052 -0.0521 -0.4439
  166MOL0     H21870   4.962   8.197   3.680 -0.7407  1.5474  1.7789
  166MOL0     H21871   4.942   8.101   3.821  1.1128 -2.9841  0.0125
  166MOL0     H21872   5.117   7.941   3.760  2.5830 -1.2112  0.6983
  166MOL0     H21873   5.196   8.098   3.790  2.0545 -1.5632 -1.0879
  166MOL0     H21874   5.373   7.955   3.807  4.1758 -0.6199  1.0308
  166MOL0     H21875   5.609   7.937   3.771 -0.3879 -2.2499  0.8196
  166MOL0     H21876   6.014   7.921   3.572 -0.0779 -2.4088  0.7243
  166MOL0     H21877   6.248   7.880   3.486 -0.5847  1.2333  0.4122
  166MOL0     H21878   6.379   8.045   3.209 -4.7751  1.0037 -2.2420
  166MOL0     H21879   6.319   7.973   3.064  1.6042  0.2346 -1.3729
  166MOL0     H21880   6.539   7.822   3.062 -0.3832 -0.4971 -0.5617
  166MOL0     H21881   6.594   7.891   3.214  1.8144 -1.3118 -1.2464
  166MOL0     H21882   6.586   8.122   3.094 -1.0168 -0.0021  1.8648
  166MOL0     H21883   6.556   8.035   2.943 -1.7772 -1.5117  0.7340
  166MOL0     H21884   6.783   8.026   3.146 -0.1825 -1.7347  0.3385
  166MOL0     H21885   6.762   7.906   3.025 -3.5047 -0.0390 -2.2875
  166MOL0     H21886   6.779   8.197   2.939  2.0982  0.7097 -2.1792
  166MOL0     H21887   6.830   8.060   2.852  3.1197  2.9673 -2.6142
  166MOL0     H21888   6.992   8.171   3.103 -0.5856 -0.1464  0.1651
  166MOL0     H21889   7.033   8.190   2.930 -0.0107  2.2130  1.0308
  166MOL0     H21890   6.997   7.915   3.061 -2.9486  2.6488  0.4743
  166MOL0     H21891   7.047   7.961   2.896 -0.0495  1.5010 -0.5501
  166MOL0     H21892   7.232   7.887   3.060 -0.6855 -0.5672 -4.6997
  166MOL0     H21893   7.209   8.048   3.153  3.3818  1.7862 -1.3231
  166MOL0     H21894   6.096   7.862   3.082  1.5016 -3.3434 -0.2873
  166MOL0     H21895   5.868   7.910   3.182 -0.6242 -1.1323  0.1371
  166MOL0     H21896   5.561   7.989   3.351  1.0279  0.4421  0.2327
  166MOL0     H21897   5.305   7.995   3.384 -2.7222 -1.2442  2.5786
  166MOL0     H21898   3.925   8.483   4.744 -1.4482 -2.0137  0.1457
  166MOL0     H21899   3.720   8.598   4.855 -1.2928  1.9785  0.5096
  166MOL0     H21900   3.333   8.651   4.814 -1.5008 -0.6913 -1.6290
  166MOL0     H21901   3.108   8.696   4.874  1.5886 -4.4588  1.4339
  166MOL0     H21902   2.872   8.832   5.192 -0.4824 -1.2466  2.7005
  166MOL0     H21903   3.030   8.848   5.260  2.0354 -0.8892 -1.0184
  166MOL0     H21904   2.991   8.613   5.073  2.7358  2.3232 -1.6466
  166MOL0     H21905   3.103   8.649   5.201  0.9750  5.0269  0.1900
  166MOL0     H21906   2.935   8.617   5.374 -0.4293  0.8005 -0.2068
  166MOL0     H21907   2.965   8.482   5.270  0.2865  0.6669  0.5758
  166MOL0     H21908   2.735   8.659   5.223 -0.3962 -0.1642  2.7402
  166MOL0     H21909   2.748   8.481   5.176 -0.9989 -0.1060  0.1343
  166MOL0     H21910   2.592   8.480   5.576 -1.0807 -1.9306 -0.9643
  166MOL0     H21911   3.232   9.018   5.135 -0.0796  0.8396 -0.9833
  166MOL0     H21912   3.463   8.983   5.064 -1.5328  2.7313  0.9207
  167MOL0     O21913   7.795   1.520   9.227 -0.4797 -0.7670  0.8099
  167MOL0     C21914   7.775   1.477   9.341 -0.3352  0.0027  0.1533
  167MOL0     O21915   7.657   1.443   9.398  0.4316 -0.4350  0.3877
  167MOL0     C21916   7.541   1.449   9.318  0.9109 -0.6843 -0.5481
  167MOL0     C21917   7.505   1.568   9.239  0.3142  0.0066  0.4403
  167MOL0     C21918   7.384   1.582   9.170 -0.8368  0.0390  0.5872
  167MOL0     C21919   7.289   1.481   9.177 -0.6514 -0.1454 -0.1640
  167MOL0     O21920   7.168   1.506   9.112 -0.0242  0.2402 -0.4515
  167MOL0     C21921   7.070   1.407   9.136 -0.2732 -0.2511 -0.3450
  167MOL0     C21922   6.943   1.466   9.078 -0.8521  0.8369  0.0860
  167MOL0     C21923   6.828   1.366   9.078  0.1464 -0.1809 -0.7706
  167MOL0     C21924   6.692   1.423   9.039  0.6664 -0.1336 -0.5157
  167MOL0     C21925   6.579   1.318   9.040 -0.1641 -0.7767  0.3898
  167MOL0     C21926   6.443   1.372   9.079 -0.1295  0.2794  0.8217
  167MOL0     C21927   6.327   1.271   9.063  0.2725  0.2904 -0.0651
  167MOL0     C21928   6.193   1.344   9.083 -0.1680 -0.5702  0.1968
  167MOL0     N21929   6.077   1.255   9.075 -0.0304 -0.4529 -0.2064
  167MOL0     C21930   5.945   1.298   9.067 -0.6447 -0.2027 -0.5075
  167MOL0     C21931   5.871   1.192   9.061  0.4666  1.6294 -0.0349
  167MOL0     C21932   5.711   1.191   9.050  0.0184 -0.6393  0.6884
  167MOL0     C21933   5.643   1.054   9.084 -0.3306 -0.8106  0.0784
  167MOL0     C21934   5.493   1.072   9.142 -1.1860  0.2282 -0.5870
  167MOL0     C21935   5.417   0.941   9.155  0.2278  0.1132 -0.4754
  167MOL0     O21936   5.360   0.894   9.036  0.2281  0.1272  0.1343
  167MOL0     C21937   5.232   0.926   9.003  0.0884 -0.2320 -0.4213
  167MOL0     C21938   5.214   0.997   8.883 -0.1947 -0.1830 -0.3127
  167MOL0     C21939   5.086   1.018   8.839 -0.6871 -0.1889 -0.0500
  167MOL0     C21940   4.973   0.972   8.913 -0.9591  0.3973  0.3740
  167MOL0     C21941   4.842   0.987   8.853  0.3911  0.1926  0.0961
  167MOL0     O21942   4.736   0.930   8.930  0.4002  0.0038  0.3622
  167MOL0     C21943   4.615   0.915   8.877 -0.7747  0.6247 -0.3618
  167MOL0     C21944   4.563   0.790   8.905 -0.0280 -0.0135  0.4084
  167MOL0     C21945   4.430   0.763   8.877  0.0407  0.1063  0.0112
  167MOL0     C21946   4.347   0.847   8.799  1.3924 -0.2909 -0.8448
  167MOL0     O21947   4.214   0.814   8.782 -0.1195  0.2966 -0.2212
  167MOL0     C21948   4.110   0.907   8.805  0.2995 -0.2784 -0.3585
  167MOL0     C21949   3.975   0.834   8.785 -0.1619 -0.6488  0.2356
  167MOL0     C21950   3.952   0.712   8.878  0.1929  0.2468  0.2011
  167MOL0     C21951   3.806   0.658   8.867  0.7249  0.2831  0.6124
  167MOL0     C21952   3.770   0.642   8.710 -0.9521 -0.7675 -0.2191
  167MOL0     C21953   3.636   0.576   8.682 -0.2432  0.0349 -0.3394
  167MOL0     C21954   3.594   0.557   8.532  0.4492 -0.5840 -0.1448
  167MOL0     C21955   3.458   0.491   8.537 -0.4088  0.3418 -0.2205
  167MOL0    Cl21956   3.419   0.449   8.379 -0.1985  0.1045 -0.1164
  167MOL0     C21957   4.403   0.974   8.766 -0.3261  0.3190 -0.4822
  167MOL0     C21958   4.530   1.005   8.808 -0.7527 -0.3590 -0.7323
  167MOL0     O21959   4.827   1.035   8.735  0.1810  0.6035  0.0057
  167MOL0     C21960   4.992   0.913   9.043 -0.7172  0.4188  0.3880
  167MOL0     C21961   5.120   0.891   9.083 -0.1867  0.4454 -1.0101
  167MOL0     N21962   5.953   1.082   9.096  0.3424 -0.6019  0.6257
  167MOL0     N21963   6.080   1.118   9.101  0.3994  1.3333 -0.3606
  167MOL0     C21964   7.319   1.373   9.258 -0.2187  0.3801  0.9693
  167MOL0     C21965   7.445   1.350   9.324 -0.9293 -0.6996  0.3940
  167MOL0     C21966   7.881   1.449   9.441 -0.5636  0.2141  0.8574
  167MOL0     C21967   8.014   1.481   9.400 -0.5666  0.8020 -0.4131
  167MOL0     C21968   8.115   1.445   9.487 -0.5749  0.4166  0.2746
  167MOL0     C21969   8.087   1.404   9.618  0.5228  0.5861  0.2387
  167MOL0     O21970   8.186   1.379   9.709 -0.3810 -0.2156  0.3709
  167MOL0     C21971   8.280   1.275   9.674 -0.3599  0.4371 -0.8721
  167MOL0     C21972   8.427   1.334   9.660 -0.1892  0.7224  0.2365
  167MOL0     C21973   8.459   1.427   9.778  0.6430 -0.6390  0.2218
  167MOL0     C21974   8.602   1.472   9.778 -0.2233 -0.4466 -1.3755
  167MOL0     C21975   8.710   1.376   9.800 -0.1965  0.3812  0.2715
  167MOL0     C21976   8.804   1.302   9.842  0.5654 -1.0781  0.3091
  167MOL0     C21977   7.955   1.390   9.661  0.5068  0.4865  0.3398
  167MOL0     C21978   7.851   1.402   9.571  0.8449 -0.4266 -0.5295
  167MOL0     H21979   7.573   1.648   9.212 -0.6550  0.9215  0.6978
  167MOL0     H21980   7.367   1.675   9.116 -0.3920  0.6551  1.4788
  167MOL0     H21981   7.060   1.395   9.245  1.5469  1.7071  0.1117
  167MOL0     H21982   7.088   1.315   9.081  0.0630  1.3151 -3.0361
  167MOL0     H21983   6.967   1.485   8.973  0.6887  3.6885  0.8545
  167MOL0     H21984   6.918   1.560   9.129  2.5268  1.3799  0.9396
  167MOL0     H21985   6.819   1.336   9.183 -0.1648 -0.4507 -0.8721
  167MOL0     H21986   6.853   1.277   9.019 -1.1698 -0.6452 -0.6742
  167MOL0     H21987   6.669   1.513   9.097 -0.1020  0.0288 -1.0675
  167MOL0     H21988   6.704   1.458   8.936 -1.3994  0.1558 -0.7037
  167MOL0     H21989   6.606   1.234   9.105 -0.3129 -2.3447 -1.4711
  167MOL0     H21990   6.564   1.288   8.936 -0.1044  2.5263 -0.6954
  167MOL0     H21991   6.427   1.453   9.007  0.6585 -0.2431  0.0333
  167MOL0     H21992   6.448   1.399   9.184  1.5323 -0.8588  1.0683
  167MOL0     H21993   6.335   1.226   8.964 -1.5330  1.0676 -0.5953
  167MOL0     H21994   6.348   1.203   9.146  0.5326 -1.2889 -1.3854
  167MOL0     H21995   6.184   1.407   8.994  1.3057  0.1693  0.5406
  167MOL0     H21996   6.198   1.398   9.178 -0.6426  0.9672 -0.6097
  167MOL0     H21997   5.912   1.400   9.051  3.0769  1.1529 -0.4408
  167MOL0     H21998   5.688   1.220   8.947  0.8496  1.2297  0.9927
  167MOL0     H21999   5.671   1.271   9.113 -1.6684 -0.9353  0.0390
  167MOL0     H22000   5.700   1.004   9.163 -0.0384 -3.6325 -1.7749
  167MOL0     H22001   5.654   0.978   9.007 -2.2279 -0.6757 -0.3809
  167MOL0     H22002   5.505   1.119   9.240  2.4602 -1.0829 -0.2549
  167MOL0     H22003   5.432   1.137   9.079 -2.1845 -0.1861 -0.0678
  167MOL0     H22004   5.336   0.961   9.227  1.4871 -0.6988  1.2472
  167MOL0     H22005   5.478   0.864   9.204  1.8387  1.4005 -0.3765
  167MOL0     H22006   5.297   1.033   8.823  0.7484 -1.8656 -0.0930
  167MOL0     H22007   5.075   1.078   8.749 -0.3439 -0.3639 -0.2074
  167MOL0     H22008   4.624   0.720   8.961 -1.2783  0.3216  2.2727
  167MOL0     H22009   4.384   0.666   8.895 -3.4742  1.9344  2.0221
  167MOL0     H22010   4.114   1.000   8.747  1.0166 -0.0437  0.0408
  167MOL0     H22011   4.103   0.947   8.907 -4.4339  0.9847 -0.9533
  167MOL0     H22012   3.967   0.805   8.680 -3.6865 -1.9886  0.7485
  167MOL0     H22013   3.898   0.907   8.813  1.3833  0.6898  1.1847
  167MOL0     H22014   3.975   0.739   8.982  0.6621  0.6511 -0.0029
  167MOL0     H22015   4.031   0.641   8.852 -1.0743 -1.1132 -0.0543
  167MOL0     H22016   3.800   0.559   8.914 -0.3297  0.3418  0.6239
  167MOL0     H22017   3.733   0.721   8.918  0.2483 -0.5642  1.0089
  167MOL0     H22018   3.844   0.582   8.657  0.8476  1.5065 -0.3805
  167MOL0     H22019   3.766   0.741   8.666  1.3160 -1.7890 -3.0055
  167MOL0     H22020   3.561   0.642   8.726  0.4709  1.1976 -0.8265
  167MOL0     H22021   3.638   0.474   8.722 -2.0166 -0.6449 -1.8302
  167MOL0     H22022   3.583   0.652   8.479 -1.6841  0.0833  1.3448
  167MOL0     H22023   3.654   0.485   8.475 -1.0161 -3.1621  1.3952
  167MOL0     H22024   3.386   0.562   8.579 -0.1109  0.4006  0.1914
  167MOL0     H22025   3.467   0.403   8.600 -0.2740  1.3662  1.2313
  167MOL0     H22026   4.360   1.062   8.718  0.0202  0.6114 -0.2665
  167MOL0     H22027   4.575   1.102   8.787 -1.7659  0.0674 -1.0102
  167MOL0     H22028   4.923   0.884   9.121 -0.2502 -1.4875  0.1425
  167MOL0     H22029   5.136   0.837   9.175  0.8634  2.9419  0.3807
  167MOL0     H22030   7.255   1.287   9.277 -0.7010  0.3871 -0.5106
  167MOL0     H22031   7.455   1.262   9.387 -0.3440 -0.5843  0.4650
  167MOL0     H22032   8.051   1.505   9.301  3.3899 -3.6503 -0.3694
  167MOL0     H22033   8.220   1.467   9.470  0.1767 -0.2601  3.3949
  167MOL0     H22034   8.245   1.213   9.590 -0.0309 -1.8153  0.5701
  167MOL0     H22035   8.291   1.203   9.755  2.0069 -0.4883 -1.9191
  167MOL0     H22036   8.497   1.250   9.663  1.4424  2.0541  0.6620
  167MOL0     H22037   8.437   1.389   9.566  0.3806  0.3169  0.0555
  167MOL0     H22038   8.433   1.380   9.873 -0.5547  1.2752  0.9213
  167MOL0     H22039   8.398   1.517   9.763  2.1214 -0.0256 -2.8476
  167MOL0     H22040   8.623   1.520   9.682 -0.2858 -0.2745 -1.3031
  167MOL0     H22041   8.603   1.542   9.862  0.0537  1.4448 -2.9019
  167MOL0     H22042   8.871   1.241   9.899  0.4627 -2.5991 -1.1154
  167MOL0     H22043   7.931   1.349   9.759 -0.9066  1.6421  0.5216
  167MOL0     H22044   7.761   1.350   9.603  1.8226 -1.6130  0.4240
  168MOL0     O22045   9.856   0.550   2.640 -0.7997 -0.3866 -0.1666
  168MOL0     C22046   9.938   0.609   2.570 -0.1698 -0.5924  0.0373
  168MOL0     O22047   9.910   0.650   2.442  0.0251 -0.2700 -0.7336
  168MOL0     C22048   9.785   0.612   2.389  0.2824  0.3209  0.1273
  168MOL0     C22049   9.774   0.495   2.315  0.1983  0.9157 -0.0200
  168MOL0     C22050   9.653   0.470   2.245  0.2160  0.3864 -1.0359
  168MOL0     C22051   9.548   0.562   2.256  0.1757  0.0087  0.5145
  168MOL0     O22052   9.424   0.535   2.209 -0.0793  0.1146 -0.1432
  168MOL0     C22053   9.409   0.406   2.146 -0.7360  0.3733  0.0507
  168MOL0     C22054   9.262   0.388   2.141 -0.0605  0.5521  0.2439
  168MOL0     C22055   9.185   0.518   2.124  0.0906 -0.2165 -0.2482
  168MOL0     C22056   9.037   0.492   2.076 -0.2330 -1.1356  1.2810
  168MOL0     C22057   8.985   0.624   2.010  0.1121  1.0714 -0.4688
  168MOL0     C22058   8.834   0.611   1.989  0.4182  0.1078  0.4966
  168MOL0     C22059   8.756   0.727   1.930 -0.0130  0.0665  0.0631
  168MOL0     C22060   8.606   0.679   1.907  0.2223 -0.6023  0.1569
  168MOL0     N22061   8.523   0.774   1.838  0.1373  0.2664 -0.1650
  168MOL0     C22062   8.466   0.745   1.715  0.1672 -0.1390  0.0776
  168MOL0     C22063   8.365   0.838   1.701 -0.2170  0.4181  0.5998
  168MOL0     C22064   8.289   0.866   1.574  0.2394 -0.0956 -0.0348
  168MOL0     C22065   8.143   0.840   1.614  0.2146  0.4229 -0.4614
  168MOL0     C22066   8.117   0.690   1.599  1.2318 -0.3820  0.2172
  168MOL0     C22067   7.970   0.668   1.637 -0.1999 -0.4071 -0.4631
  168MOL0     O22068   7.924   0.536   1.608 -0.0199 -0.6334  0.4037
  168MOL0     C22069   7.803   0.501   1.651  1.3275  1.7280  0.2080
  168MOL0     C22070   7.708   0.582   1.718 -0.8675 -0.1058 -0.4168
  168MOL0     C22071   7.587   0.533   1.763  0.6200  0.2372 -0.5675
  168MOL0     C22072   7.548   0.397   1.753 -0.4889 -0.6269  0.4258
  168MOL0     C22073   7.415   0.343   1.796  0.2351 -0.1856 -0.9298
  168MOL0     O22074   7.323   0.442   1.824  0.0709 -0.2760  0.0418
  168MOL0     C22075   7.195   0.418   1.874 -0.1453  0.3376  0.9766
  168MOL0     C22076   7.166   0.524   1.961 -0.0670  0.4782  0.1017
  168MOL0     C22077   7.047   0.518   2.031  0.0845 -0.2990  0.5923
  168MOL0     C22078   6.946   0.420   2.000  0.4083  0.0270  0.1413
  168MOL0     O22079   6.830   0.418   2.069  0.3961 -0.0355  0.5129
  168MOL0     C22080   6.758   0.540   2.088 -0.3783  0.6726  0.5693
  168MOL0     C22081   6.602   0.541   2.061  0.2897 -0.9628 -0.7768
  168MOL0     C22082   6.541   0.679   2.124 -1.2410  0.3976  0.5005
  168MOL0     C22083   6.603   0.816   2.088 -0.4516  0.1967 -0.1103
  168MOL0     C22084   6.618   0.838   1.932  0.1099 -0.3206  0.1906
  168MOL0     C22085   6.695   0.971   1.913  0.1750  0.7288  0.0889
  168MOL0     C22086   6.620   1.098   1.959  0.9575  0.2143  0.5151
  168MOL0     C22087   6.710   1.219   1.925 -0.3825 -0.0923 -0.0262
  168MOL0    Cl22088   6.644   1.365   1.993 -0.0341 -0.3071 -0.1371
  168MOL0     C22089   6.978   0.311   1.922 -0.5515 -0.5977  0.0890
  168MOL0     C22090   7.099   0.318   1.846  0.9214 -0.1009  0.1927
  168MOL0     O22091   7.384   0.228   1.777 -0.0924  0.5658 -0.0675
  168MOL0     C22092   7.644   0.312   1.678  0.5206  0.3255 -0.2810
  168MOL0     C22093   7.757   0.371   1.624  0.3446  0.2896  0.4449
  168MOL0     N22094   8.373   0.929   1.810  0.1385 -0.2490 -0.1149
  168MOL0     N22095   8.456   0.874   1.891 -0.1196  0.6784  0.1872
  168MOL0     C22096   9.559   0.680   2.332 -0.6261  0.1045 -0.6588
  168MOL0     C22097   9.675   0.707   2.398 -0.0938  0.3354  0.5109
  168MOL0     C22098  10.072   0.653   2.621 -0.0076  0.2156 -0.5466
  168MOL0     C22099  10.099   0.637   2.756 -0.1462 -0.2328  0.4958
  168MOL0     C22100  10.232   0.651   2.794 -0.6466 -0.2603 -0.9090
  168MOL0     C22101  10.343   0.685   2.716  0.5368  1.1860  0.9185
  168MOL0     O22102  10.467   0.710   2.767 -0.0775  0.4642 -0.3352
  168MOL0     C22103  10.591   0.737   2.691 -0.0449  0.7432  1.5198
  168MOL0     C22104  10.591   0.883   2.645 -0.5053 -0.4288 -0.5625
  168MOL0     C22105  10.734   0.917   2.574  0.2363  0.5300  0.4615
  168MOL0     C22106  10.852   0.910   2.665 -0.0175  0.4671 -0.6019
  168MOL0     C22107  10.970   0.915   2.573 -0.2636 -0.4049 -0.8218
  168MOL0     C22108  11.079   0.905   2.515  0.6356  0.9538  0.0904
  168MOL0     C22109  10.311   0.704   2.574 -0.7979  0.2855 -0.3547
  168MOL0     C22110  10.179   0.684   2.538 -0.7643 -0.0473  1.1760
  168MOL0     H22111   9.852   0.419   2.312 -0.3476  0.3822 -1.5772
  168MOL0     H22112   9.646   0.385   2.178 -1.5613 -0.6316  0.3487
  168MOL0     H22113   9.450   0.325   2.207  1.5037  1.6681  0.3859
  168MOL0     H22114   9.456   0.415   2.048 -0.1734  0.0425  0.2874
  168MOL0     H22115   9.223   0.333   2.227 -1.0073  0.7559 -0.0409
  168MOL0     H22116   9.241   0.336   2.047  1.0903  0.2491  0.1352
  168MOL0     H22117   9.232   0.572   2.041  2.1501 -0.6589  0.5671
  168MOL0     H22118   9.195   0.579   2.213  0.6389  1.6793 -1.5559
  168MOL0     H22119   9.040   0.411   2.003  1.7632  0.3916 -0.4821
  168MOL0     H22120   8.973   0.453   2.156  0.3033 -0.5920  1.9929
  168MOL0     H22121   9.034   0.648   1.915 -1.9682  0.3419 -1.7873
  168MOL0     H22122   9.014   0.703   2.081  3.8507  0.1906 -0.8493
  168MOL0     H22123   8.788   0.580   2.084 -1.0071 -1.8901 -0.7803
  168MOL0     H22124   8.819   0.528   1.919  2.1828 -1.9041  2.3102
  168MOL0     H22125   8.748   0.822   1.984 -1.7978 -0.0477  0.0592
  168MOL0     H22126   8.801   0.747   1.832  2.5165  1.9731  1.5168
  168MOL0     H22127   8.562   0.668   2.006  0.0381 -0.8233  0.0528
  168MOL0     H22128   8.606   0.582   1.857 -4.2021 -1.1163  0.8118
  168MOL0     H22129   8.501   0.671   1.643 -0.2438 -1.8123  1.5229
  168MOL0     H22130   8.317   0.813   1.483 -0.9143 -1.4306  0.3543
  168MOL0     H22131   8.291   0.972   1.549  0.0780 -0.3728 -1.3047
  168MOL0     H22132   8.075   0.894   1.548 -0.8998 -0.1947  0.1650
  168MOL0     H22133   8.113   0.878   1.712  0.4113  0.5245 -0.4402
  168MOL0     H22134   8.151   0.651   1.503  2.6932  1.9194 -0.2909
  168MOL0     H22135   8.171   0.637   1.678  0.9310  0.8025  1.2573
  168MOL0     H22136   7.906   0.740   1.585 -2.3430 -1.8812  0.0182
  168MOL0     H22137   7.958   0.688   1.744 -0.0028  0.4641 -0.5918
  168MOL0     H22138   7.736   0.683   1.746  0.4443 -0.7782  0.7863
  168MOL0     H22139   7.517   0.592   1.822 -0.5088 -0.8063 -0.8190
  168MOL0     H22140   7.239   0.602   1.976  0.3167  0.8522 -2.9847
  168MOL0     H22141   7.036   0.604   2.095  1.1840  0.6267 -0.4158
  168MOL0     H22142   6.794   0.607   2.010 -2.1522 -1.8002 -2.6124
  168MOL0     H22143   6.769   0.573   2.192 -0.7148  1.1862  0.4470
  168MOL0     H22144   6.551   0.454   2.104 -0.4074 -1.7240 -2.9690
  168MOL0     H22145   6.588   0.534   1.952 -0.5273  1.0451 -0.8515
  168MOL0     H22146   6.535   0.669   2.233  0.4211 -3.3783  0.3923
  168MOL0     H22147   6.439   0.686   2.085 -0.5877 -5.0608 -3.2718
  168MOL0     H22148   6.537   0.888   2.136 -2.1192 -2.1872  1.4142
  168MOL0     H22149   6.689   0.841   2.151 -2.0662  0.2561  2.1764
  168MOL0     H22150   6.529   0.836   1.869  1.9414 -3.1826 -2.6142
  168MOL0     H22151   6.690   0.766   1.891  1.0655 -0.1278  1.4687
  168MOL0     H22152   6.710   0.972   1.804  0.5897 -3.3317 -0.0645
  168MOL0     H22153   6.791   0.952   1.962 -0.7529 -1.4318  1.2118
  168MOL0     H22154   6.532   1.109   1.894  1.7507 -1.8600 -1.0398
  168MOL0     H22155   6.580   1.094   2.061  0.4745 -1.7660  0.2935
  168MOL0     H22156   6.716   1.229   1.816 -0.2920  3.8057  0.1969
  168MOL0     H22157   6.815   1.195   1.944  0.1132  1.0587 -1.1723
  168MOL0     H22158   6.902   0.234   1.912  0.5942 -1.6341 -1.0133
  168MOL0     H22159   7.134   0.240   1.779  2.4447  0.0110  0.8361
  168MOL0     H22160   7.636   0.205   1.666  1.2893  0.1737  0.4946
  168MOL0     H22161   7.828   0.313   1.566 -0.2518 -0.4862  0.4785
  168MOL0     H22162   9.475   0.748   2.339 -0.5553  0.1427 -0.1633
  168MOL0     H22163   9.680   0.793   2.464 -0.4404  2.5197 -2.1091
  168MOL0     H22164  10.026   0.611   2.832  0.6757  4.2558  3.1518
  168MOL0     H22165  10.236   0.622   2.898 -0.6129 -0.4564 -0.9644
  168MOL0     H22166  10.589   0.667   2.607  1.3559 -1.2026  3.0164
  168MOL0     H22167  10.672   0.697   2.753 -0.6272  1.0519  2.5028
  168MOL0     H22168  10.506   0.907   2.581 -0.9671  0.2516  0.2682
  168MOL0     H22169  10.575   0.948   2.732 -1.1245 -2.6251  1.0485
  168MOL0     H22170  10.731   1.014   2.525  1.6152  2.1838  3.3828
  168MOL0     H22171  10.752   0.842   2.496  2.2450  2.2761 -0.8660
  168MOL0     H22172  10.849   0.987   2.743  1.2006 -3.2965  3.5447
  168MOL0     H22173  10.846   0.814   2.717 -4.0511  0.5000 -0.7091
  168MOL0     H22174  11.173   0.896   2.464  0.6071 -0.1576  0.1921
  168MOL0     H22175  10.384   0.730   2.498  0.3507 -0.5275  0.4361
  168MOL0     H22176  10.158   0.680   2.432  1.6102 -0.7322  0.6968
  169MOL0     O22177   3.480   6.885  10.716  0.1512 -0.1866 -0.1108
  169MOL0     C22178   3.390   6.864  10.636  0.1963 -0.1023  0.5046
  169MOL0     O22179   3.256   6.858  10.663  0.1980 -0.1475 -0.1049
  169MOL0     C22180   3.218   6.880  10.792  0.4824  0.5165  0.6100
  169MOL0     C22181   3.178   6.772  10.875  0.4281 -0.1307  0.1339
  169MOL0     C22182   3.122   6.802  11.006 -0.4215 -0.5068  0.2408
  169MOL0     C22183   3.096   6.934  11.049 -0.8441 -0.2194 -0.5370
  169MOL0     O22184   3.056   6.964  11.182  0.2640 -0.0648  0.1617
  169MOL0     C22185   2.970   6.872  11.251  0.6183  0.0262  0.4948
  169MOL0     C22186   2.874   6.953  11.340 -0.6634  0.1949 -0.4657
  169MOL0     C22187   2.780   6.873  11.427 -1.0520  0.3852 -0.0135
  169MOL0     C22188   2.694   6.961  11.517  0.2699  0.2502  0.7392
  169MOL0     C22189   2.620   6.871  11.624 -0.0785 -0.4198  0.0048
  169MOL0     C22190   2.523   6.952  11.709 -0.1230  0.6448  0.2226
  169MOL0     C22191   2.494   6.866  11.837  0.0458 -1.1928 -0.0161
  169MOL0     C22192   2.372   6.920  11.903 -0.0087 -0.0849 -0.3049
  169MOL0     N22193   2.237   6.880  11.844 -0.0662  0.7185  0.7907
  169MOL0     C22194   2.165   6.971  11.767  0.4814 -0.3746 -0.4262
  169MOL0     C22195   2.043   6.906  11.749 -0.5885 -0.4920 -0.8408
  169MOL0     C22196   1.914   6.948  11.669 -0.5763 -0.6496  0.2068
  169MOL0     C22197   1.815   6.832  11.638  0.2341  0.8657 -0.6210
  169MOL0     C22198   1.721   6.876  11.518  0.1673  0.4556 -0.3914
  169MOL0     C22199   1.603   6.972  11.546 -0.2768  0.0012 -0.0408
  169MOL0     O22200   1.518   6.919  11.650 -0.0215  0.0314  0.1798
  169MOL0     C22201   1.389   6.963  11.661  0.1148 -0.1587 -0.3786
  169MOL0     C22202   1.355   7.087  11.614  0.4878  0.4642  0.0609
  169MOL0     C22203   1.222   7.123  11.626 -0.4354 -0.2162 -0.0558
  169MOL0     C22204   1.121   7.035  11.674 -0.1819 -0.4817 -0.4434
  169MOL0     C22205   0.983   7.084  11.703  0.2418  0.2835  0.1625
  169MOL0     O22206   0.934   7.180  11.632  0.2253  0.1976 -0.0967
  169MOL0     C22207   0.797   7.192  11.636 -0.4297 -0.3988  0.3954
  169MOL0     C22208   0.742   7.280  11.735 -0.4347 -0.1635 -0.1356
  169MOL0     C22209   0.607   7.296  11.761 -1.0805 -0.1650 -0.4276
  169MOL0     C22210   0.523   7.244  11.667  0.3045 -0.0447 -0.7465
  169MOL0     O22211   0.389   7.285  11.676  0.1321  0.2137 -0.6647
  169MOL0     C22212   0.367   7.431  11.689  1.1247 -0.5248  0.7659
  169MOL0     C22213   0.214   7.464  11.656  0.4380 -0.0276 -1.3453
  169MOL0     C22214   0.184   7.613  11.651  0.8776 -0.3050 -0.3140
  169MOL0     C22215   0.030   7.646  11.673 -0.4505 -1.2091 -0.8197
  169MOL0     C22216   0.001   7.798  11.689 -0.5814 -1.0137 -0.2755
  169MOL0     C22217  -0.152   7.830  11.698 -1.0501  0.5313 -0.0554
  169MOL0     C22218  -0.171   7.985  11.687  0.0663 -0.7109  0.7188
  169MOL0     C22219  -0.301   8.041  11.749  0.0275 -0.3408 -0.1764
  169MOL0    Cl22220  -0.441   7.962  11.678 -0.4734  0.2948  0.0264
  169MOL0     C22221   0.567   7.156  11.568  0.3792  0.3432 -0.3084
  169MOL0     C22222   0.706   7.129  11.557 -0.3275  0.1446 -0.6536
  169MOL0     O22223   0.922   7.016  11.787  0.1442 -0.8243 -0.1397
  169MOL0     C22224   1.160   6.908  11.716 -0.7805  0.5162 -0.2971
  169MOL0     C22225   1.295   6.873  11.713 -0.3982  0.3931  0.0573
  169MOL0     N22226   2.049   6.793  11.825 -0.8914  0.0650 -0.0732
  169MOL0     N22227   2.167   6.771  11.873 -0.3887  0.0135 -0.7230
  169MOL0     C22228   3.142   7.042  10.966  0.1525  0.5429  0.7594
  169MOL0     C22229   3.200   7.010  10.836  0.2331  0.0994  0.5908
  169MOL0     C22230   3.431   6.828  10.501  0.5588  0.1551  0.5121
  169MOL0     C22231   3.548   6.880  10.446 -0.4882 -0.6010  0.1102
  169MOL0     C22232   3.591   6.854  10.312  0.8932 -0.0111 -0.1976
  169MOL0     C22233   3.504   6.788  10.233  0.9043 -0.1122  0.1513
  169MOL0     O22234   3.547   6.773  10.101 -1.2754  0.3018 -0.1779
  169MOL0     C22235   3.472   6.711   9.990 -0.3570 -0.0097 -0.8107
  169MOL0     C22236   3.464   6.564  10.002 -0.3990 -0.8781 -0.8387
  169MOL0     C22237   3.604   6.499   9.992 -0.6726 -0.3301 -0.3772
  169MOL0     C22238   3.610   6.351  10.033  0.0583 -0.3098  1.1854
  169MOL0     C22239   3.745   6.302  10.002 -1.1865 -0.0539  0.4812
  169MOL0     C22240   3.862   6.277   9.977  0.1525  0.1868  0.9446
  169MOL0     C22241   3.371   6.752  10.271 -0.6291 -0.4971 -0.0334
  169MOL0     C22242   3.345   6.763  10.409  0.3735  0.2153 -0.4300
  169MOL0     H22243   3.188   6.670  10.838  0.6543 -0.7716  1.8643
  169MOL0     H22244   3.092   6.713  11.060 -0.7262 -0.4236  0.2064
  169MOL0     H22245   3.027   6.800  11.310 -3.0324 -2.6090  1.1548
  169MOL0     H22246   2.903   6.817  11.185 -0.3781 -0.5193  1.9114
  169MOL0     H22247   2.817   7.022  11.277  1.1879  0.6056 -1.7758
  169MOL0     H22248   2.934   7.019  11.403 -2.7116  1.7285 -0.0284
  169MOL0     H22249   2.843   6.811  11.491 -0.8856  1.2747  0.6950
  169MOL0     H22250   2.718   6.810  11.362 -0.5895 -1.5445  1.3352
  169MOL0     H22251   2.759   7.035  11.565  1.3596 -1.1879  1.5501
  169MOL0     H22252   2.613   7.016  11.467 -1.8910 -1.7226  1.8994
  169MOL0     H22253   2.698   6.830  11.689 -1.1510  1.6754  2.8169
  169MOL0     H22254   2.565   6.790  11.577  0.2010 -0.5039 -0.1831
  169MOL0     H22255   2.431   6.975  11.655 -0.6015 -0.6925  0.4257
  169MOL0     H22256   2.569   7.049  11.727  2.2372 -0.2012 -0.8502
  169MOL0     H22257   2.475   6.765  11.800 -1.5083 -1.0547  0.3428
  169MOL0     H22258   2.572   6.872  11.913  0.5880  0.4690 -0.6626
  169MOL0     H22259   2.380   7.028  11.920  0.4843 -0.3605  1.3221
  169MOL0     H22260   2.379   6.888  12.007 -0.2988  1.9766  0.4091
  169MOL0     H22261   2.198   7.066  11.727 -0.1738 -1.1044 -2.9104
  169MOL0     H22262   1.953   6.981  11.573 -1.5286 -1.8015 -0.6107
  169MOL0     H22263   1.858   7.027  11.720 -1.2958  0.3449 -2.0396
  169MOL0     H22264   1.761   6.801  11.728  1.3745 -1.8879 -0.7848
  169MOL0     H22265   1.877   6.744  11.616  0.0291  0.4217  0.5041
  169MOL0     H22266   1.772   6.917  11.431 -1.4469 -0.9433 -2.0773
  169MOL0     H22267   1.677   6.782  11.484 -3.2212  0.7605  2.5191
  169MOL0     H22268   1.553   6.976  11.448  0.5461  0.0271 -0.4701
  169MOL0     H22269   1.643   7.069  11.577  0.3234 -1.1062  2.9377
  169MOL0     H22270   1.418   7.154  11.557  2.5592 -1.0439  0.4734
  169MOL0     H22271   1.186   7.219  11.591 -0.5614 -0.9839 -2.1600
  169MOL0     H22272   0.812   7.322  11.806 -1.7646 -0.5287  1.4420
  169MOL0     H22273   0.589   7.354  11.851  2.0790 -0.6884  0.6901
  169MOL0     H22274   0.439   7.487  11.628  1.5840 -0.4475  1.3739
  169MOL0     H22275   0.384   7.463  11.792 -0.5468 -2.0524  1.5819
  169MOL0     H22276   0.164   7.423  11.744  1.5715 -1.9628 -1.5522
  169MOL0     H22277   0.173   7.400  11.577 -2.0684  1.6345 -1.5150
  169MOL0     H22278   0.217   7.657  11.556 -1.3703  0.3329 -0.8832
  169MOL0     H22279   0.225   7.664  11.738 -0.2544 -0.3373  0.2573
  169MOL0     H22280  -0.026   7.606  11.588 -0.1771 -2.0035 -0.6388
  169MOL0     H22281  -0.011   7.596  11.762 -2.9605 -1.0061 -1.7877
  169MOL0     H22282   0.032   7.853  11.600 -0.8601  1.4722  1.0750
  169MOL0     H22283   0.059   7.838  11.772  1.8139 -3.0981 -0.8306
  169MOL0     H22284  -0.207   7.793  11.785 -0.1991 -0.2617  0.1594
  169MOL0     H22285  -0.196   7.782  11.611 -1.9337  2.9911 -1.0687
  169MOL0     H22286  -0.085   8.041  11.723  0.7469 -0.1492 -1.6034
  169MOL0     H22287  -0.187   8.013  11.582 -1.7666 -0.8395  0.9272
  169MOL0     H22288  -0.310   8.149  11.735 -0.5731 -0.0801  1.9743
  169MOL0     H22289  -0.307   8.011  11.854 -1.7849  1.6518  0.3709
  169MOL0     H22290   0.505   7.097  11.502 -0.2661 -0.3033  0.8397
  169MOL0     H22291   0.739   7.059  11.481  1.2414  1.3557 -1.1431
  169MOL0     H22292   1.090   6.830  11.745  0.1083 -1.0841 -2.2330
  169MOL0     H22293   1.324   6.775  11.749  2.0547 -0.3337 -3.4491
  169MOL0     H22294   3.143   7.141  11.012 -1.0567  1.1921 -0.5486
  169MOL0     H22295   3.237   7.099  10.785  2.5141  0.5138  2.7806
  169MOL0     H22296   3.609   6.926  10.524 -1.4392 -3.3325  2.6640
  169MOL0     H22297   3.687   6.892  10.278 -0.8825  2.6594 -2.5954
  169MOL0     H22298   3.528   6.733   9.899 -0.1717  1.1873 -0.4224
  169MOL0     H22299   3.373   6.758   9.990 -1.3115 -1.8458 -2.7257
  169MOL0     H22300   3.419   6.546  10.100  0.1757  1.4379 -0.0792
  169MOL0     H22301   3.398   6.528   9.923 -1.3972  0.0390 -0.4400
  169MOL0     H22302   3.678   6.552  10.053 -1.5047 -0.4398  0.7668
  169MOL0     H22303   3.646   6.498   9.891  2.6512 -4.7566  0.7690
  169MOL0     H22304   3.593   6.332  10.139 -0.4311 -0.1882  1.1314
  169MOL0     H22305   3.539   6.299   9.968  0.7965 -0.3153  0.3677
  169MOL0     H22306   3.965   6.253   9.959 -0.2362 -0.2688 -0.8586
  169MOL0     H22307   3.293   6.733  10.198  0.3158  1.2218 -1.5740
  169MOL0     H22308   3.247   6.742  10.450  0.7840 -0.2953  0.3175
  170MOL0     O22309   3.245   4.789   7.245 -0.2851  0.7070  0.2652
  170MOL0     C22310   3.209   4.670   7.242 -0.2118  0.8225  0.4308
  170MOL0     O22311   3.296   4.561   7.232  0.3486 -0.4519 -0.2073
  170MOL0     C22312   3.431   4.583   7.221  0.7875 -0.1082  0.4893
  170MOL0     C22313   3.501   4.530   7.116 -0.4495 -0.1414 -0.2336
  170MOL0     C22314   3.637   4.545   7.093  0.4818 -0.0843 -0.3660
  170MOL0     C22315   3.717   4.613   7.194 -0.5104  0.7155  0.2044
  170MOL0     O22316   3.854   4.603   7.189  0.8931 -0.3819  0.0363
  170MOL0     C22317   3.927   4.711   7.252 -0.5791  0.2612 -0.9956
  170MOL0     C22318   4.080   4.709   7.225  0.1911  0.4247 -0.0942
  170MOL0     C22319   4.166   4.671   7.351  0.0182  0.2230 -0.0464
  170MOL0     C22320   4.313   4.684   7.321 -0.0725  0.0890 -0.8324
  170MOL0     C22321   4.387   4.610   7.430 -0.1916  0.4103 -0.4932
  170MOL0     C22322   4.542   4.602   7.408 -0.5718 -1.2331 -0.4574
  170MOL0     C22323   4.593   4.509   7.297 -0.2197 -0.5746  0.1742
  170MOL0     C22324   4.593   4.358   7.331  0.1061  1.0763  0.0498
  170MOL0     N22325   4.623   4.258   7.227 -0.0249 -0.2896  0.0703
  170MOL0     C22326   4.593   4.268   7.089 -0.7139  0.4485 -0.3073
  170MOL0     C22327   4.631   4.145   7.038 -0.3171 -1.0101 -0.0856
  170MOL0     C22328   4.631   4.100   6.897 -0.5668  0.3765 -0.8167
  170MOL0     C22329   4.491   4.069   6.838  0.3291 -0.2917 -0.2464
  170MOL0     C22330   4.410   3.958   6.907  0.2890  0.8452 -0.9277
  170MOL0     C22331   4.353   4.006   7.038  0.3402 -0.7250  0.2712
  170MOL0     O22332   4.273   4.132   7.023 -0.7530  0.6798 -0.3133
  170MOL0     C22333   4.143   4.130   6.974  0.2668  0.1639 -0.6061
  170MOL0     C22334   4.070   4.251   6.977 -0.3264 -1.5262 -0.3242
  170MOL0     C22335   3.935   4.261   6.934 -0.3340 -0.0543 -0.1720
  170MOL0     C22336   3.866   4.143   6.906  0.1733 -0.4421 -0.5311
  170MOL0     C22337   3.720   4.133   6.877  0.5370 -0.1523 -0.3472
  170MOL0     O22338   3.666   4.012   6.844  0.0260 -0.8694  0.5781
  170MOL0     C22339   3.523   4.012   6.844  0.2246  0.1128  0.2300
  170MOL0     C22340   3.466   3.902   6.904  0.2258 -0.2033 -0.6247
  170MOL0     C22341   3.325   3.888   6.906 -0.2521 -0.9334 -0.1644
  170MOL0     C22342   3.244   3.985   6.843 -0.1224  0.5728  0.3569
  170MOL0     O22343   3.110   3.993   6.853  1.0643  0.0426 -0.8014
  170MOL0     C22344   3.024   3.880   6.898  0.1852  1.0481  0.9518
  170MOL0     C22345   3.025   3.780   6.789 -0.2994  0.1584  0.1825
  170MOL0     C22346   2.937   3.667   6.817 -0.6461 -1.3556 -0.6116
  170MOL0     C22347   2.787   3.714   6.822 -0.9919  0.6280 -0.4639
  170MOL0     C22348   2.695   3.587   6.795 -0.6643 -1.2699 -0.8581
  170MOL0     C22349   2.703   3.479   6.906  0.2840  0.4956  0.1722
  170MOL0     C22350   2.589   3.380   6.892  0.4501  0.2074  0.4303
  170MOL0     C22351   2.598   3.272   7.002  0.2597  0.3005 -0.0630
  170MOL0    Cl22352   2.569   3.326   7.173  0.3063 -0.0293  0.0870
  170MOL0     C22353   3.305   4.098   6.787 -0.0258  0.3007  0.3203
  170MOL0     C22354   3.444   4.111   6.787 -0.0539 -0.2552  0.1465
  170MOL0     O22355   3.665   4.241   6.900  0.3980 -0.0026 -0.2649
  170MOL0     C22356   3.932   4.025   6.912 -0.3133  0.6187 -0.5820
  170MOL0     C22357   4.066   4.019   6.940 -0.1606  1.2571 -0.0510
  170MOL0     N22358   4.688   4.065   7.135 -0.3643  0.2002 -0.4793
  170MOL0     N22359   4.681   4.131   7.243 -0.1583  0.0675 -0.2567
  170MOL0     C22360   3.646   4.662   7.308  0.1204 -0.8245  0.1018
  170MOL0     C22361   3.506   4.652   7.318  0.3382 -0.2267  0.1560
  170MOL0     C22362   3.068   4.649   7.255  0.1233  0.5740 -0.3522
  170MOL0     C22363   2.979   4.752   7.250 -0.7166 -0.0683  0.1555
  170MOL0     C22364   2.844   4.737   7.270  1.0950  0.2205  0.2506
  170MOL0     C22365   2.786   4.610   7.281 -0.4232 -1.2693 -0.1255
  170MOL0     O22366   2.656   4.607   7.271  0.0262 -0.0822 -0.4011
  170MOL0     C22367   2.599   4.485   7.315 -0.0755  0.1628  1.0276
  170MOL0     C22368   2.446   4.507   7.311  0.6595  0.1111  0.5442
  170MOL0     C22369   2.384   4.405   7.410 -0.1248  0.7085  0.0055
  170MOL0     C22370   2.243   4.413   7.453  0.5179 -0.3343  0.2701
  170MOL0     C22371   2.206   4.315   7.561  0.0725 -0.1693 -0.4223
  170MOL0     C22372   2.154   4.240   7.643 -0.0960  0.5103  0.0225
  170MOL0     C22373   2.880   4.501   7.278  0.8626 -0.4427 -0.2717
  170MOL0     C22374   3.018   4.517   7.266 -0.0413  1.0600  0.0828
  170MOL0     H22375   3.447   4.467   7.046 -1.0449 -0.5699  0.6042
  170MOL0     H22376   3.669   4.497   7.001 -0.9899 -0.9918 -0.4412
  170MOL0     H22377   3.918   4.694   7.360 -1.5056 -0.7771 -1.2225
  170MOL0     H22378   3.878   4.807   7.236 -2.2904 -0.8241 -2.5568
  170MOL0     H22379   4.100   4.809   7.184  2.2490  0.0192 -0.1859
  170MOL0     H22380   4.090   4.630   7.150  2.9683  1.4778 -0.9719
  170MOL0     H22381   4.155   4.563   7.358  3.4282 -0.1759  0.5715
  170MOL0     H22382   4.125   4.715   7.443  0.4599 -0.0227  0.2697
  170MOL0     H22383   4.341   4.641   7.224  1.7922 -0.7830  0.0418
  170MOL0     H22384   4.352   4.785   7.336 -0.6937 -0.1229  3.0781
  170MOL0     H22385   4.341   4.513   7.452  2.8525 -0.5776  2.1824
  170MOL0     H22386   4.371   4.658   7.527 -1.0169  1.0294 -0.9166
  170MOL0     H22387   4.598   4.560   7.492  2.6645 -2.1760 -2.8671
  170MOL0     H22388   4.587   4.701   7.393  2.1160 -2.4138 -0.8718
  170MOL0     H22389   4.561   4.545   7.199  1.0650  0.2936  0.0409
  170MOL0     H22390   4.700   4.529   7.292 -0.9209  4.3176 -0.0627
  170MOL0     H22391   4.490   4.341   7.364  0.1704  1.6747  0.5755
  170MOL0     H22392   4.665   4.336   7.410  0.8211  4.6362  0.5549
  170MOL0     H22393   4.549   4.356   7.042  2.3151  1.0537 -2.3338
  170MOL0     H22394   4.688   4.007   6.891  0.9813  1.1021  1.1631
  170MOL0     H22395   4.693   4.164   6.832  1.1772 -0.2729  0.1300
  170MOL0     H22396   4.508   4.028   6.738 -0.8767 -0.3348 -0.4439
  170MOL0     H22397   4.439   4.165   6.833 -3.5176 -2.2181 -0.2808
  170MOL0     H22398   4.325   3.921   6.849  0.3335 -2.2555  0.7914
  170MOL0     H22399   4.476   3.875   6.932  1.4157  2.2539  1.1088
  170MOL0     H22400   4.427   4.035   7.113 -0.3332 -2.6541  1.7636
  170MOL0     H22401   4.306   3.923   7.090  0.2698 -1.3629 -0.7687
  170MOL0     H22402   4.113   4.346   7.008 -2.3058 -0.1812 -1.4819
  170MOL0     H22403   3.891   4.359   6.920  2.4986  1.5137  1.0618
  170MOL0     H22404   3.522   3.822   6.950 -0.1517  0.5759  1.3338
  170MOL0     H22405   3.286   3.808   6.969  2.3464 -1.1858  1.2294
  170MOL0     H22406   2.920   3.914   6.908 -0.6406 -1.3930  1.2616
  170MOL0     H22407   3.064   3.824   6.983  2.6412  0.2749 -0.5967
  170MOL0     H22408   3.123   3.739   6.761 -0.4546 -0.3098  0.3170
  170MOL0     H22409   2.995   3.827   6.695  1.8092 -1.1137 -1.2236
  170MOL0     H22410   2.966   3.616   6.909 -0.0956 -1.3049 -0.7569
  170MOL0     H22411   2.940   3.599   6.732 -1.0315 -2.4940  0.2572
  170MOL0     H22412   2.775   3.770   6.915  2.3792  0.3896  0.2609
  170MOL0     H22413   2.777   3.790   6.744  0.8106  1.6711  0.2530
  170MOL0     H22414   2.710   3.544   6.695 -1.5890 -0.9223 -1.1520
  170MOL0     H22415   2.596   3.632   6.784  1.1341  2.7495 -2.9651
  170MOL0     H22416   2.690   3.520   7.006 -1.0034  0.9914 -0.1751
  170MOL0     H22417   2.800   3.431   6.899  0.4908  0.6669  1.5644
  170MOL0     H22418   2.490   3.426   6.887  0.2134 -0.4083 -1.1886
  170MOL0     H22419   2.608   3.316   6.806  2.1943 -0.2585  1.1073
  170MOL0     H22420   2.692   3.217   6.994 -0.4421 -0.9697  0.0200
  170MOL0     H22421   2.509   3.210   6.988  1.2304 -1.5080  1.2783
  170MOL0     H22422   3.234   4.162   6.737 -3.3829 -0.8973  3.0957
  170MOL0     H22423   3.488   4.184   6.721 -0.7110  0.5386  0.5707
  170MOL0     H22424   3.883   3.929   6.904  1.8126 -0.5459 -0.5630
  170MOL0     H22425   4.108   3.920   6.959 -0.4679  1.8273  4.6583
  170MOL0     H22426   3.708   4.696   7.390  3.1507 -2.0119 -1.5217
  170MOL0     H22427   3.457   4.703   7.400  1.4998 -1.4056  1.6452
  170MOL0     H22428   3.002   4.855   7.225 -1.6377  0.8735  2.8098
  170MOL0     H22429   2.783   4.827   7.268  0.8725  0.0691  0.1625
  170MOL0     H22430   2.646   4.462   7.411  1.5836 -1.3326 -0.0818
  170MOL0     H22431   2.612   4.399   7.249  1.4746 -1.1574  2.9264
  170MOL0     H22432   2.417   4.606   7.349  2.4778  0.8814  0.0314
  170MOL0     H22433   2.407   4.491   7.210  3.2790 -2.4618 -0.2001
  170MOL0     H22434   2.441   4.408   7.503 -0.3666 -1.0293  0.2473
  170MOL0     H22435   2.400   4.303   7.374 -0.7324  0.3393  0.7364
  170MOL0     H22436   2.219   4.517   7.477  1.0865  0.0381 -0.7635
  170MOL0     H22437   2.179   4.393   7.367  1.8312  0.4339 -0.9121
  170MOL0     H22438   2.109   4.175   7.715 -2.1815 -0.4898 -2.0810
  170MOL0     H22439   2.848   4.397   7.283  1.8433 -0.7064  1.3032
  170MOL0     H22440   3.091   4.437   7.277 -0.3484  0.9784  1.7761
  171MOL0     O22441   9.505   3.464   7.778 -0.5918 -0.0928 -0.4485
  171MOL0     C22442   9.574   3.563   7.761  0.1564  1.1330 -0.2067
  171MOL0     O22443   9.526   3.676   7.717 -0.2669 -0.4104 -0.0780
  171MOL0     C22444   9.409   3.688   7.645  0.5100  0.4615 -0.0988
  171MOL0     C22445   9.366   3.822   7.621  0.0949  0.3187  0.1407
  171MOL0     C22446   9.248   3.846   7.554 -0.6176  0.6814  0.8022
  171MOL0     C22447   9.167   3.745   7.511 -0.5573  0.2462 -0.8038
  171MOL0     O22448   9.062   3.772   7.434 -0.5152  0.5825 -0.6203
  171MOL0     C22449   9.099   3.840   7.307 -0.2915  0.4891 -0.4689
  171MOL0     C22450   8.981   3.821   7.215  0.6182  0.5644  0.4803
  171MOL0     C22451   8.971   3.671   7.185 -0.7664 -0.2391  0.4662
  171MOL0     C22452   8.834   3.609   7.230 -0.1495  0.1007 -0.3925
  171MOL0     C22453   8.832   3.456   7.229 -0.8303  0.1855  0.2668
  171MOL0     C22454   8.688   3.399   7.253 -0.8642  0.4005 -1.0868
  171MOL0     C22455   8.583   3.447   7.144 -0.3127 -0.7165  0.1693
  171MOL0     C22456   8.483   3.529   7.220  0.7189 -0.3036  0.5385
  171MOL0     N22457   8.373   3.559   7.127 -0.3065  0.1505 -0.0665
  171MOL0     C22458   8.256   3.486   7.097 -0.4497  0.1592  0.5120
  171MOL0     C22459   8.187   3.556   7.008 -0.2216  0.0742 -0.0962
  171MOL0     C22460   8.061   3.519   6.946 -0.1487  0.5272  1.0844
  171MOL0     C22461   7.938   3.569   7.020 -0.2894  0.1916 -0.4353
  171MOL0     C22462   7.920   3.729   7.021  0.5991  0.2125 -0.2090
  171MOL0     C22463   7.785   3.768   7.081  0.2296 -0.0780 -0.2277
  171MOL0     O22464   7.665   3.740   7.008 -0.5479  0.5554  0.2530
  171MOL0     C22465   7.537   3.775   7.065 -0.2016 -0.3732 -0.5085
  171MOL0     C22466   7.526   3.793   7.202 -0.4531  0.1601 -0.3188
  171MOL0     C22467   7.399   3.819   7.256  0.6492 -1.1352 -0.3857
  171MOL0     C22468   7.277   3.816   7.184  0.4775 -1.4347  0.1119
  171MOL0     C22469   7.143   3.821   7.244 -0.0204 -0.6710  0.7218
  171MOL0     O22470   7.038   3.803   7.158  0.1113  0.0570  0.2922
  171MOL0     C22471   6.912   3.814   7.226 -0.1558  0.0597 -0.8268
  171MOL0     C22472   6.862   3.700   7.281 -0.2990  1.0684  0.0789
  171MOL0     C22473   6.736   3.701   7.345  0.1935 -0.4260  0.5014
  171MOL0     C22474   6.666   3.823   7.358 -0.2872 -0.1696  0.0943
  171MOL0     O22475   6.538   3.842   7.410  0.1645 -0.1569  0.2226
  171MOL0     C22476   6.473   3.737   7.482  0.2605  0.2729 -0.9590
  171MOL0     C22477   6.356   3.779   7.567  0.0741 -0.0834 -0.4700
  171MOL0     C22478   6.388   3.901   7.665 -0.4058 -0.3985  0.1969
  171MOL0     C22479   6.485   3.865   7.779  0.2479  0.4891 -0.5663
  171MOL0     C22480   6.425   3.785   7.897  1.1766  0.4903  0.9970
  171MOL0     C22481   6.330   3.872   7.981 -0.2963  0.0257  0.2505
  171MOL0     C22482   6.318   3.816   8.122  0.5700  0.1791 -0.1678
  171MOL0     C22483   6.199   3.887   8.201 -1.1224 -0.0580  1.0825
  171MOL0    Cl22484   6.170   3.798   8.357  0.1948 -0.3036 -0.0049
  171MOL0     C22485   6.717   3.939   7.299  0.0768 -0.0090 -0.2159
  171MOL0     C22486   6.837   3.931   7.230  0.7812 -0.7849 -0.4540
  171MOL0     O22487   7.135   3.826   7.358 -0.0968 -1.0036  0.5508
  171MOL0     C22488   7.297   3.797   7.051 -0.0457 -0.3697  0.2401
  171MOL0     C22489   7.422   3.783   6.990 -0.0069 -0.5474  0.5030
  171MOL0     N22490   8.255   3.669   6.991  0.4867 -0.0603 -0.3175
  171MOL0     N22491   8.354   3.674   7.069 -0.9144  0.2299  0.1992
  171MOL0     C22492   9.214   3.615   7.524  0.0448  0.6912  0.2746
  171MOL0     C22493   9.329   3.585   7.593 -0.0028  0.4619  0.3317
  171MOL0     C22494   9.718   3.562   7.803  0.2920 -0.7995 -0.9414
  171MOL0     C22495   9.788   3.446   7.826  0.2096 -0.1234  0.2812
  171MOL0     C22496   9.918   3.446   7.885 -0.0295 -0.8375  0.4296
  171MOL0     C22497   9.974   3.565   7.911 -0.0829  0.3591 -0.7200
  171MOL0     O22498  10.104   3.547   7.962  0.2854 -0.2582  0.1521
  171MOL0     C22499  10.191   3.649   7.920 -0.7558 -0.1105  0.0292
  171MOL0     C22500  10.326   3.608   7.973 -0.0506  0.0012 -0.0000
  171MOL0     C22501  10.429   3.706   7.928  0.8761 -0.1384  0.6090
  171MOL0     C22502  10.568   3.665   7.969 -0.5331 -0.5180 -0.3143
  171MOL0     C22503  10.628   3.539   7.915  0.0614  0.1238  0.4256
  171MOL0     C22504  10.665   3.437   7.874 -0.3255  1.5033 -0.5799
  171MOL0     C22505   9.908   3.683   7.877 -0.8756 -0.7877  0.6405
  171MOL0     C22506   9.780   3.683   7.827 -0.3035  0.5089  0.1044
  171MOL0     H22507   9.432   3.901   7.655 -0.0253 -0.1407  1.4806
  171MOL0     H22508   9.224   3.947   7.524  0.3472 -0.3686 -4.7016
  171MOL0     H22509   9.195   3.812   7.263  0.6001  3.0215 -0.2735
  171MOL0     H22510   9.100   3.948   7.322 -1.2236  0.8577 -2.7642
  171MOL0     H22511   9.000   3.872   7.120  0.5445 -0.3259 -0.0258
  171MOL0     H22512   8.898   3.868   7.268  0.1107 -1.3634  1.4894
  171MOL0     H22513   9.038   3.615   7.250 -0.1443  1.8631  1.7330
  171MOL0     H22514   9.000   3.632   7.087  2.8407 -0.7058  1.5728
  171MOL0     H22515   8.812   3.637   7.333 -0.5360 -2.6972  0.3518
  171MOL0     H22516   8.756   3.654   7.167  0.3896 -2.0855 -2.7662
  171MOL0     H22517   8.901   3.412   7.301 -0.3505  2.1848  1.1213
  171MOL0     H22518   8.858   3.434   7.125 -5.2689  0.8947 -1.2094
  171MOL0     H22519   8.658   3.410   7.357 -0.5240  1.9264 -1.1397
  171MOL0     H22520   8.701   3.290   7.249 -1.8432  0.2259 -0.0407
  171MOL0     H22521   8.629   3.508   7.066  0.8855 -0.1623  1.2647
  171MOL0     H22522   8.533   3.357   7.108 -0.9514 -0.5498  0.6306
  171MOL0     H22523   8.523   3.623   7.261 -2.4790  1.5784 -0.3281
  171MOL0     H22524   8.433   3.466   7.294 -1.6611  2.7164  1.6944
  171MOL0     H22525   8.225   3.390   7.139 -3.6884  1.1143  0.5483
  171MOL0     H22526   8.058   3.412   6.922  2.9303  0.9689 -2.3143
  171MOL0     H22527   8.057   3.566   6.847 -1.9764  1.4310  1.5529
  171MOL0     H22528   7.940   3.535   7.124  1.6927  2.8012  0.4809
  171MOL0     H22529   7.846   3.536   6.971 -0.0817 -2.9170  1.0335
  171MOL0     H22530   7.992   3.778   7.088 -2.0485  1.9993  1.5112
  171MOL0     H22531   7.905   3.771   6.921 -3.3517 -1.0222 -0.3012
  171MOL0     H22532   7.783   3.875   7.105 -1.1218 -0.6090  2.5288
  171MOL0     H22533   7.773   3.721   7.179  0.4043 -2.7586 -1.4092
  171MOL0     H22534   7.609   3.793   7.271 -0.2520  0.2481 -0.5592
  171MOL0     H22535   7.388   3.829   7.364 -2.5266  2.3884 -0.8319
  171MOL0     H22536   6.913   3.605   7.295  0.6516  1.3927 -1.0849
  171MOL0     H22537   6.696   3.604   7.373 -1.8665 -0.0242 -0.8023
  171MOL0     H22538   6.547   3.688   7.546 -0.0668  0.3971 -0.4821
  171MOL0     H22539   6.433   3.668   7.407 -0.4456  0.9002 -1.1762
  171MOL0     H22540   6.326   3.688   7.620 -1.7023  0.2357 -0.8702
  171MOL0     H22541   6.274   3.809   7.501 -2.5773 -1.7165  1.8622
  171MOL0     H22542   6.295   3.941   7.707 -0.0176  1.2878 -0.4599
  171MOL0     H22543   6.424   3.989   7.611  2.2506 -0.4720  1.7150
  171MOL0     H22544   6.576   3.813   7.747  1.0301  0.8887  0.9230
  171MOL0     H22545   6.531   3.960   7.807  0.0636  0.2580  0.5922
  171MOL0     H22546   6.508   3.756   7.962  0.8326 -1.3948  0.6539
  171MOL0     H22547   6.390   3.690   7.856  2.1252  0.6712 -0.2850
  171MOL0     H22548   6.225   3.883   7.952 -0.8812  0.2670  2.3061
  171MOL0     H22549   6.374   3.972   7.981  2.1023 -0.9367 -1.2531
  171MOL0     H22550   6.299   3.709   8.128  0.8655  0.2217  1.9672
  171MOL0     H22551   6.408   3.844   8.176 -0.1650  0.0700  1.1534
  171MOL0     H22552   6.108   3.904   8.143  0.2238 -2.4568 -2.0266
  171MOL0     H22553   6.241   3.985   8.225  0.7682 -0.9699  1.7732
  171MOL0     H22554   6.654   4.027   7.302 -0.2875 -0.2989  1.3849
  171MOL0     H22555   6.872   4.020   7.180  0.0965 -1.2865 -1.8877
  171MOL0     H22556   7.213   3.794   6.982  0.0255  3.0216 -0.1805
  171MOL0     H22557   7.431   3.772   6.882 -3.9217 -1.9852  0.1572
  171MOL0     H22558   9.173   3.531   7.470 -0.9866  2.6559 -2.1815
  171MOL0     H22559   9.358   3.480   7.597 -0.7621  0.0794 -2.1426
  171MOL0     H22560   9.743   3.350   7.800  1.4255 -0.0167 -2.5517
  171MOL0     H22561   9.977   3.358   7.907  0.1955 -0.9615 -0.5794
  171MOL0     H22562  10.170   3.747   7.963  2.1626 -0.3382  2.2992
  171MOL0     H22563  10.187   3.651   7.810 -0.8139  0.2253  0.0381
  171MOL0     H22564  10.325   3.609   8.082  2.1550 -0.2743  0.0693
  171MOL0     H22565  10.348   3.510   7.930 -1.5435 -1.5425  2.5535
  171MOL0     H22566  10.421   3.806   7.974  1.8796  0.9333 -1.4088
  171MOL0     H22567  10.425   3.724   7.820 -4.6903 -0.2892  0.5037
  171MOL0     H22568  10.627   3.750   7.933 -1.7740  1.1279  1.3644
  171MOL0     H22569  10.562   3.670   8.078 -1.7793  0.6460 -0.4067
  171MOL0     H22570  10.678   3.335   7.842 -4.0307 -0.0389  2.0320
  171MOL0     H22571   9.951   3.780   7.898 -0.5300 -0.9217  0.5619
  171MOL0     H22572   9.725   3.775   7.807 -2.7121 -0.5373  1.4061
  172MOL0     O22573   6.274   0.134   3.529 -0.8219  0.0414 -0.7427
  172MOL0     C22574   6.290   0.128   3.653 -0.8571  0.5100  0.2109
  172MOL0     O22575   6.198   0.143   3.753  0.4410  0.3201 -0.4887
  172MOL0     C22576   6.067   0.163   3.731 -0.1388  0.8558  0.5073
  172MOL0     C22577   5.983   0.118   3.832 -0.0321 -0.0481  0.4159
  172MOL0     C22578   5.844   0.127   3.819  0.0656  0.4029 -0.6215
  172MOL0     C22579   5.784   0.185   3.710  0.3256  0.1529 -1.3113
  172MOL0     O22580   5.642   0.179   3.706 -0.1164 -0.4610  0.6439
  172MOL0     C22581   5.581   0.108   3.592  0.4187  0.4895 -0.4966
  172MOL0     C22582   5.469   0.027   3.655 -0.1229  0.1085  0.0470
  172MOL0     C22583   5.360   0.122   3.692  0.5132  0.2810 -0.8341
  172MOL0     C22584   5.242   0.045   3.751  0.6508  0.4203  0.5496
  172MOL0     C22585   5.125   0.137   3.784  0.1684  0.1759 -0.3902
  172MOL0     C22586   5.016   0.062   3.866 -0.4838 -0.9335 -0.2744
  172MOL0     C22587   4.889   0.152   3.896  0.4950 -1.0145  0.5403
  172MOL0     C22588   4.835   0.098   4.030 -0.6489  1.0263 -0.9097
  172MOL0     N22589   4.699   0.166   4.051  0.3882 -0.4137 -0.1705
  172MOL0     C22590   4.687   0.294   4.094 -0.9911 -0.8976  0.1372
  172MOL0     C22591   4.564   0.305   4.126  0.8850 -1.0635  0.0053
  172MOL0     C22592   4.513   0.437   4.167  0.1288 -0.1632  0.2949
  172MOL0     C22593   4.453   0.525   4.059  0.3519  0.1329 -0.3869
  172MOL0     C22594   4.562   0.579   3.964  0.7312 -0.1051  0.0218
  172MOL0     C22595   4.662   0.678   4.025 -0.3180 -0.8781 -0.2776
  172MOL0     O22596   4.776   0.623   4.090  0.3578 -0.3207  0.6402
  172MOL0     C22597   4.899   0.617   4.023  1.1352  0.0918  0.6197
  172MOL0     C22598   5.004   0.578   4.097  0.0425 -0.3460  0.0087
  172MOL0     C22599   5.134   0.569   4.039  0.4007  0.1651 -0.2790
  172MOL0     C22600   5.145   0.601   3.899  0.2742 -0.7634 -1.5376
  172MOL0     C22601   5.276   0.572   3.839  0.0890  0.0068  0.2277
  172MOL0     O22602   5.285   0.589   3.706 -0.5663 -0.1561  0.4498
  172MOL0     C22603   5.401   0.587   3.636 -0.1185 -0.1031 -0.1034
  172MOL0     C22604   5.450   0.708   3.585 -1.1756 -0.9351  0.7796
  172MOL0     C22605   5.565   0.708   3.504  0.1297  1.1535 -0.3461
  172MOL0     C22606   5.623   0.584   3.467 -0.1051  0.1399  0.7115
  172MOL0     O22607   5.720   0.569   3.378 -0.0084  0.0413  0.8920
  172MOL0     C22608   5.802   0.672   3.331 -0.6952 -0.4464 -0.2780
  172MOL0     C22609   5.862   0.638   3.198 -0.3497  0.0668 -0.2171
  172MOL0     C22610   6.005   0.685   3.173 -0.3065  0.5104  0.5313
  172MOL0     C22611   6.105   0.591   3.245  1.1186 -0.0628 -0.0943
  172MOL0     C22612   6.242   0.662   3.270  0.8225 -1.3775  0.3023
  172MOL0     C22613   6.316   0.693   3.144  0.7260 -0.6500 -0.6528
  172MOL0     C22614   6.470   0.702   3.180 -0.7399 -0.4078  0.7577
  172MOL0     C22615   6.518   0.810   3.278  0.3916 -0.5707  0.3897
  172MOL0    Cl22616   6.485   0.967   3.184 -0.1222  0.3959  0.3222
  172MOL0     C22617   5.571   0.467   3.529 -0.5931 -0.4338  0.4708
  172MOL0     C22618   5.467   0.471   3.624  0.3318  0.2713 -0.4348
  172MOL0     O22619   5.367   0.532   3.914  0.1366 -0.0704 -0.5105
  172MOL0     C22620   5.040   0.656   3.830  0.8346  0.1949  0.8720
  172MOL0     C22621   4.913   0.664   3.892 -0.5409 -0.7349  0.3386
  172MOL0     N22622   4.490   0.188   4.119 -0.0551 -0.0332 -0.2197
  172MOL0     N22623   4.576   0.102   4.066  0.6600  0.5799  0.1978
  172MOL0     C22624   5.866   0.226   3.604  0.1091 -0.1312 -0.6267
  172MOL0     C22625   6.010   0.226   3.615 -0.1123  0.4205 -0.0501
  172MOL0     C22626   6.432   0.109   3.688 -0.5785 -0.6723  0.9158
  172MOL0     C22627   6.528   0.070   3.595  0.8514 -0.6105  0.4358
  172MOL0     C22628   6.662   0.055   3.633  0.2111 -0.0189  0.1165
  172MOL0     C22629   6.704   0.081   3.764 -0.0080 -0.0226 -0.3954
  172MOL0     O22630   6.835   0.077   3.797 -0.1701 -0.0860  0.4119
  172MOL0     C22631   6.874   0.037   3.931 -0.0301 -0.0229 -0.3694
  172MOL0     C22632   7.007  -0.037   3.909 -0.5172  0.9599 -0.5575
  172MOL0     C22633   7.128   0.059   3.916 -0.1791 -0.2037 -0.2065
  172MOL0     C22634   7.126   0.160   3.798 -0.8825 -0.0953  0.8528
  172MOL0     C22635   7.266   0.185   3.760 -0.2284 -0.3170 -0.5099
  172MOL0     C22636   7.373   0.234   3.744 -0.3668  0.3066  0.1380
  172MOL0     C22637   6.605   0.106   3.857 -0.6247  0.2012 -0.2181
  172MOL0     C22638   6.473   0.112   3.819  0.2014  1.3357 -0.2949
  172MOL0     H22639   6.025   0.072   3.920 -1.9956 -0.3946  1.2298
  172MOL0     H22640   5.774   0.094   3.896  0.2604  1.4969  0.0510
  172MOL0     H22641   5.651   0.034   3.551 -0.6358  0.3035 -2.0072
  172MOL0     H22642   5.539   0.171   3.514  0.5540  1.1469 -0.0472
  172MOL0     H22643   5.509  -0.027   3.742 -3.1175  1.5787  2.5417
  172MOL0     H22644   5.424  -0.045   3.586 -0.6431  0.5794 -0.1058
  172MOL0     H22645   5.339   0.180   3.601  0.5021 -1.0128 -1.6885
  172MOL0     H22646   5.404   0.188   3.767  3.0878  0.2115 -2.1680
  172MOL0     H22647   5.201  -0.035   3.690 -0.8537  0.2301  1.7445
  172MOL0     H22648   5.281  -0.006   3.840  1.6618  0.6175  0.2423
  172MOL0     H22649   5.092   0.181   3.689  2.4307  1.0599 -0.8043
  172MOL0     H22650   5.155   0.221   3.847 -0.3699  0.5028 -0.5628
  172MOL0     H22651   5.061   0.035   3.963  3.1412 -0.3447 -1.6366
  172MOL0     H22652   4.987  -0.027   3.809 -0.2867 -1.1342 -0.0706
  172MOL0     H22653   4.906   0.260   3.900 -2.8054 -0.4075  0.8989
  172MOL0     H22654   4.814   0.122   3.822  0.1273  1.3353 -0.1255
  172MOL0     H22655   4.905   0.134   4.105 -2.3470  1.8262  0.3769
  172MOL0     H22656   4.831  -0.011   4.036 -1.2002  1.0800 -0.0482
  172MOL0     H22657   4.767   0.367   4.101 -3.7777  2.4637 -0.5828
  172MOL0     H22658   4.596   0.491   4.212  0.6468 -1.1839  0.5785
  172MOL0     H22659   4.447   0.422   4.253  2.2305 -2.6475  1.6126
  172MOL0     H22660   4.396   0.602   4.112 -0.0086 -0.4319  0.0581
  172MOL0     H22661   4.380   0.467   4.002  1.4894 -2.6706  0.8476
  172MOL0     H22662   4.617   0.502   3.908  0.6607  2.1954 -3.5304
  172MOL0     H22663   4.508   0.626   3.881 -0.2163  2.5542  2.0236
  172MOL0     H22664   4.607   0.745   4.092  0.9812  1.9768 -1.8826
  172MOL0     H22665   4.697   0.746   3.947  1.0400 -2.4809 -1.1468
  172MOL0     H22666   4.985   0.555   4.201 -0.7229  1.8632  0.3990
  172MOL0     H22667   5.214   0.527   4.100  0.6325  0.8045 -0.1399
  172MOL0     H22668   5.385   0.793   3.606 -0.9782 -1.0641  1.9503
  172MOL0     H22669   5.598   0.808   3.476  0.2973  0.5181 -2.6540
  172MOL0     H22670   5.873   0.689   3.412 -0.8963  0.7789 -0.3438
  172MOL0     H22671   5.745   0.764   3.317  3.2032  1.8814 -2.5276
  172MOL0     H22672   5.788   0.684   3.131 -1.4820 -0.5558  0.5703
  172MOL0     H22673   5.852   0.530   3.184  1.3500 -0.0514 -0.6334
  172MOL0     H22674   6.007   0.791   3.201 -0.7094  0.0925  2.2650
  172MOL0     H22675   6.023   0.683   3.066 -0.3008  2.9230  0.4354
  172MOL0     H22676   6.058   0.565   3.341  1.9618  0.6556  0.5286
  172MOL0     H22677   6.109   0.497   3.188  2.1799 -0.7383  1.0309
  172MOL0     H22678   6.303   0.608   3.343  1.5565  0.3830  1.0340
  172MOL0     H22679   6.223   0.758   3.318 -0.5299 -2.1526  1.3925
  172MOL0     H22680   6.282   0.783   3.093  1.8287  0.3739  0.3460
  172MOL0     H22681   6.305   0.614   3.069 -2.7687  1.4654 -2.6405
  172MOL0     H22682   6.511   0.608   3.218  2.1898  1.0040  1.3522
  172MOL0     H22683   6.528   0.720   3.089  0.7702 -2.8550  1.1597
  172MOL0     H22684   6.621   0.793   3.312  0.2985 -1.1905  0.3790
  172MOL0     H22685   6.456   0.808   3.368 -0.0858 -3.3737  0.0935
  172MOL0     H22686   5.610   0.370   3.501 -1.6256 -0.2581 -1.7876
  172MOL0     H22687   5.434   0.378   3.670  0.1312  1.7222  2.6604
  172MOL0     H22688   5.050   0.690   3.728  0.8968 -1.8673  0.1503
  172MOL0     H22689   4.832   0.694   3.826 -0.1606 -1.1982 -0.3456
  172MOL0     H22690   5.811   0.268   3.520  2.8351  1.3166 -1.7819
  172MOL0     H22691   6.068   0.275   3.538 -0.6809  2.0647  0.5078
  172MOL0     H22692   6.495   0.045   3.494  0.0916 -0.5094  0.6464
  172MOL0     H22693   6.741   0.032   3.563 -0.7302  0.3817 -1.1224
  172MOL0     H22694   6.800  -0.036   3.967 -0.7327  1.1001  0.5268
  172MOL0     H22695   6.889   0.124   3.995  0.7441  0.7274 -1.5240
  172MOL0     H22696   7.008  -0.116   3.984 -0.3137  1.1147 -0.3970
  172MOL0     H22697   7.010  -0.099   3.819 -2.4828 -0.0101 -0.0169
  172MOL0     H22698   7.216  -0.005   3.902  0.8724  1.1894 -0.1410
  172MOL0     H22699   7.142   0.112   4.011  1.6128  0.3441 -0.7384
  172MOL0     H22700   7.077   0.122   3.709  2.8144  0.8598 -1.8533
  172MOL0     H22701   7.084   0.257   3.827  0.0685  0.3137  0.9326
  172MOL0     H22702   7.473   0.265   3.719  1.0152 -0.8602  3.6361
  172MOL0     H22703   6.631   0.129   3.960 -0.9708  0.4864 -0.1928
  172MOL0     H22704   6.412   0.139   3.905  2.1473  0.0078  1.6223
  173MOL0     O22705  11.087   1.237   2.640 -0.8411  0.1759 -0.7816
  173MOL0     C22706  11.144   1.302   2.723  0.1363  0.3702 -0.3610
  173MOL0     O22707  11.081   1.368   2.827  0.3489 -0.2429  0.4162
  173MOL0     C22708  10.950   1.393   2.837  0.3692  0.3024  0.3249
  173MOL0     C22709  10.910   1.441   2.954 -0.2561  0.0302 -0.2641
  173MOL0     C22710  10.780   1.466   2.988 -0.1759 -0.1809  1.0959
  173MOL0     C22711  10.681   1.435   2.892 -0.5982 -0.2597 -0.3298
  173MOL0     O22712  10.549   1.458   2.924 -0.4559  0.4177 -0.1874
  173MOL0     C22713  10.447   1.408   2.840  0.7172 -0.3221  0.4133
  173MOL0     C22714  10.321   1.455   2.904  0.1902 -0.4103  0.3048
  173MOL0     C22715  10.306   1.375   3.031 -0.4781 -0.5144 -0.4644
  173MOL0     C22716  10.210   1.452   3.122  0.2684  0.7883 -1.1374
  173MOL0     C22717  10.078   1.502   3.059 -0.5187 -0.7362 -0.2694
  173MOL0     C22718   9.984   1.397   2.992 -0.2301  0.2222  0.0011
  173MOL0     C22719   9.834   1.434   2.987  0.1498 -0.3059  0.0403
  173MOL0     C22720   9.810   1.517   2.866  0.0985 -0.4991  0.0143
  173MOL0     N22721   9.668   1.558   2.876 -0.7752 -0.4675  0.8895
  173MOL0     C22722   9.628   1.678   2.933 -0.8121  0.0499 -1.2284
  173MOL0     C22723   9.493   1.653   2.948 -0.1675  0.1697 -0.0538
  173MOL0     C22724   9.411   1.752   3.028  1.1645  0.0282 -0.1711
  173MOL0     C22725   9.266   1.747   2.979 -0.9267 -0.5489 -0.2749
  173MOL0     C22726   9.203   1.869   3.035 -0.3497  0.0240  0.5797
  173MOL0     C22727   9.049   1.874   3.025  0.5553 -0.1538  0.2327
  173MOL0     O22728   8.996   1.884   2.895  0.4213 -0.1162 -0.0735
  173MOL0     C22729   8.857   1.902   2.869  1.2444 -0.1950  1.0332
  173MOL0     C22730   8.776   1.985   2.949  1.3452 -0.0596  0.4935
  173MOL0     C22731   8.643   2.005   2.913 -0.0880 -0.0967  0.0751
  173MOL0     C22732   8.593   1.942   2.801  0.2131 -0.9377 -0.0930
  173MOL0     C22733   8.459   1.970   2.739 -0.6273 -0.1315 -0.1323
  173MOL0     O22734   8.426   1.910   2.621  0.6257 -0.4540 -0.0923
  173MOL0     C22735   8.301   1.908   2.577 -0.1331  0.8316 -0.4085
  173MOL0     C22736   8.192   1.864   2.661 -0.3652 -0.5022  0.1324
  173MOL0     C22737   8.068   1.840   2.612  0.1718 -0.1905  0.5099
  173MOL0     C22738   8.043   1.863   2.473  0.8729  0.0356 -0.4625
  173MOL0     O22739   7.912   1.845   2.443 -0.3638  0.5958  0.2719
  173MOL0     C22740   7.885   1.835   2.294 -0.7027 -0.8834 -0.9172
  173MOL0     C22741   7.731   1.825   2.284  0.2148  0.2034 -0.4852
  173MOL0     C22742   7.670   1.731   2.176 -0.0698 -0.7561 -0.2281
  173MOL0     C22743   7.514   1.731   2.178  0.0164 -0.5753  0.5600
  173MOL0     C22744   7.449   1.625   2.087 -0.2074 -0.0939  0.4814
  173MOL0     C22745   7.491   1.482   2.108 -0.4633  1.7760  0.1059
  173MOL0     C22746   7.488   1.432   2.249  0.7857  0.9720 -0.7881
  173MOL0     C22747   7.530   1.291   2.275  0.4003 -0.7507  0.3639
  173MOL0    Cl22748   7.437   1.178   2.176  0.0654  0.0334 -0.3208
  173MOL0     C22749   8.147   1.914   2.388  0.2788 -0.0668  0.0122
  173MOL0     C22750   8.271   1.936   2.440 -1.0177  0.0503 -0.5171
  173MOL0     O22751   8.390   2.043   2.797  0.6189  0.3674 -0.5253
  173MOL0     C22752   8.674   1.857   2.728  0.4688  0.0285  0.6886
  173MOL0     C22753   8.805   1.833   2.762  0.3672 -0.0371 -1.3802
  173MOL0     N22754   9.452   1.536   2.892 -0.0092  0.1823 -0.0673
  173MOL0     N22755   9.555   1.484   2.837  0.3291  0.0582  0.1569
  173MOL0     C22756  10.724   1.403   2.761 -0.0160  0.0663  0.0108
  173MOL0     C22757  10.858   1.393   2.735  0.1425  0.0470  0.2607
  173MOL0     C22758  11.288   1.293   2.710 -0.2999 -0.7946 -0.3858
  173MOL0     C22759  11.348   1.213   2.612  0.3361  0.6524 -0.5508
  173MOL0     C22760  11.486   1.192   2.607  0.1120  0.0073  0.7340
  173MOL0     C22761  11.566   1.255   2.697  0.3298  0.2860  0.3727
  173MOL0     O22762  11.698   1.205   2.690  0.2275  0.6950 -0.3216
  173MOL0     C22763  11.788   1.274   2.788 -0.1989 -0.3873 -0.2388
  173MOL0     C22764  11.835   1.411   2.726  0.1878  0.4477 -0.4371
  173MOL0     C22765  11.972   1.403   2.672 -0.3740  0.2961  0.3759
  173MOL0     C22766  12.079   1.415   2.772 -0.0523  0.3962 -0.9614
  173MOL0     C22767  12.212   1.423   2.716  0.1419  0.1609 -0.6445
  173MOL0     C22768  12.326   1.429   2.678 -0.3173 -0.2594 -0.1523
  173MOL0     C22769  11.511   1.358   2.787 -0.0671  1.7365  0.3425
  173MOL0     C22770  11.375   1.370   2.795 -0.3439  0.1578 -0.8510
  173MOL0     H22771  10.984   1.448   3.033  0.5317 -0.8822 -0.8889
  173MOL0     H22772  10.755   1.480   3.093 -0.8754  1.1269  0.7763
  173MOL0     H22773  10.452   1.299   2.842  0.8855 -0.3149  1.9278
  173MOL0     H22774  10.445   1.451   2.740  2.6188  0.2474  0.5915
  173MOL0     H22775  10.239   1.433   2.836  2.7169 -0.5031 -2.9479
  173MOL0     H22776  10.340   1.562   2.918 -0.9650 -0.3536  1.6231
  173MOL0     H22777  10.391   1.367   3.100 -3.1760 -0.1391  3.2050
  173MOL0     H22778  10.284   1.269   3.012  2.6664 -1.6001  1.1965
  173MOL0     H22779  10.190   1.390   3.210 -0.4411  1.3718 -0.8809
  173MOL0     H22780  10.269   1.537   3.156  0.8449 -0.1087  0.1939
  173MOL0     H22781  10.086   1.582   2.985 -2.4895  0.2189  0.4699
  173MOL0     H22782  10.026   1.536   3.150  0.0730  1.3113 -0.6483
  173MOL0     H22783   9.998   1.307   3.053 -3.5281 -0.8402 -0.5882
  173MOL0     H22784  10.002   1.364   2.890  0.1095 -0.1343  0.1758
  173MOL0     H22785   9.777   1.341   2.983  0.2576 -0.3439 -0.8941
  173MOL0     H22786   9.807   1.483   3.081  0.0524  1.2300 -0.7586
  173MOL0     H22787   9.821   1.462   2.772 -0.5702 -0.9956  0.2175
  173MOL0     H22788   9.881   1.600   2.867  1.5713 -1.6978 -0.5357
  173MOL0     H22789   9.691   1.752   2.981 -0.0207 -0.7521 -0.9908
  173MOL0     H22790   9.456   1.851   3.018  0.6470  0.1573 -1.4711
  173MOL0     H22791   9.409   1.720   3.132  2.3645 -0.6244 -0.3253
  173MOL0     H22792   9.223   1.657   3.025  0.5003 -0.9026  0.4176
  173MOL0     H22793   9.257   1.739   2.870 -1.2418 -1.4729 -0.1892
  173MOL0     H22794   9.241   1.886   3.136 -1.6101 -0.1340  1.0990
  173MOL0     H22795   9.245   1.951   2.976  2.3352 -1.9037 -0.3936
  173MOL0     H22796   9.005   1.954   3.085  1.0223  0.2896 -0.0106
  173MOL0     H22797   8.997   1.789   3.071 -2.2827  1.3678  0.0270
  173MOL0     H22798   8.816   2.033   3.038  6.2637 -0.1446 -1.3895
  173MOL0     H22799   8.581   2.074   2.969 -0.7902 -0.2065 -0.5616
  173MOL0     H22800   8.211   1.856   2.768 -1.4738 -0.3167  0.3501
  173MOL0     H22801   7.993   1.802   2.680  0.6863 -0.2498  1.0501
  173MOL0     H22802   7.938   1.746   2.259 -2.2969 -1.9766 -0.6543
  173MOL0     H22803   7.916   1.927   2.242  0.4311 -0.4729  0.4200
  173MOL0     H22804   7.689   1.926   2.286 -1.5508 -0.3355  4.1747
  173MOL0     H22805   7.695   1.791   2.382 -1.6465  0.7838 -0.9207
  173MOL0     H22806   7.712   1.633   2.200  1.5635  0.1342  0.7437
  173MOL0     H22807   7.696   1.764   2.075  0.3632  3.1740  0.9822
  173MOL0     H22808   7.487   1.722   2.284 -0.6342  3.1183  0.8155
  173MOL0     H22809   7.484   1.828   2.138 -0.0547 -2.0848 -3.5275
  173MOL0     H22810   7.473   1.651   1.984  1.0275  1.7175  1.1790
  173MOL0     H22811   7.341   1.644   2.098 -0.3845 -0.6826 -0.2210
  173MOL0     H22812   7.593   1.466   2.072 -0.7389 -0.9325  0.2792
  173MOL0     H22813   7.425   1.419   2.048 -1.7988  0.3266  2.9110
  173MOL0     H22814   7.554   1.492   2.312  0.1669 -2.0192  3.0552
  173MOL0     H22815   7.389   1.442   2.295  1.9137  2.0584  1.5868
  173MOL0     H22816   7.536   1.255   2.378  2.8997 -1.7676 -0.0662
  173MOL0     H22817   7.635   1.297   2.244 -0.0595 -1.2772 -1.4142
  173MOL0     H22818   8.137   1.935   2.282  2.2647 -1.2309 -0.4649
  173MOL0     H22819   8.344   1.984   2.374 -0.9121 -1.2683 -1.3948
  173MOL0     H22820   8.632   1.803   2.644 -0.4270  4.2280 -1.8583
  173MOL0     H22821   8.872   1.766   2.709  1.2110 -0.8098  0.5778
  173MOL0     H22822  10.654   1.388   2.680  1.9661  1.4775 -2.1025
  173MOL0     H22823  10.888   1.378   2.632 -0.6523  1.4849 -0.2094
  173MOL0     H22824  11.284   1.169   2.536  2.5655 -2.3416 -0.9083
  173MOL0     H22825  11.521   1.116   2.537 -2.3248  0.4958 -1.1585
  173MOL0     H22826  11.879   1.215   2.807 -0.6726 -1.6865 -1.7448
  173MOL0     H22827  11.739   1.291   2.884 -2.3248  0.1223 -1.3590
  173MOL0     H22828  11.753   1.433   2.657 -0.0364 -0.6080 -0.5238
  173MOL0     H22829  11.849   1.485   2.806  0.2025  1.0938 -1.0289
  173MOL0     H22830  11.982   1.487   2.602 -0.1150 -0.2758 -0.2944
  173MOL0     H22831  11.983   1.318   2.604 -0.4245  1.5390 -1.2789
  173MOL0     H22832  12.058   1.511   2.822  1.1903 -0.1391  0.6957
  173MOL0     H22833  12.072   1.337   2.848  1.4560  0.3696 -0.8157
  173MOL0     H22834  12.429   1.411   2.654 -0.1454  0.2538  0.1886
  173MOL0     H22835  11.576   1.424   2.843 -0.8403  2.9354 -0.1374
  173MOL0     H22836  11.335   1.455   2.851  0.8344  0.1649  0.0283
  174MOL0     O22837   6.037   3.782   5.325 -0.6442  0.4791 -0.4689
  174MOL0     C22838   6.048   3.784   5.447  0.0402  0.5135 -0.0666
  174MOL0     O22839   5.993   3.877   5.534  0.4928 -0.9973 -0.3153
  174MOL0     C22840   5.893   3.952   5.486  0.4359  0.7192  0.5458
  174MOL0     C22841   5.763   3.904   5.468  0.3270 -0.4618 -0.6839
  174MOL0     C22842   5.668   3.996   5.414 -0.1081 -1.0840 -0.1087
  174MOL0     C22843   5.704   4.133   5.400  0.0268  0.6716  0.4821
  174MOL0     O22844   5.612   4.233   5.382 -0.4108  0.4482 -0.2945
  174MOL0     C22845   5.548   4.221   5.255  0.0844  0.1479 -0.5075
  174MOL0     C22846   5.435   4.321   5.250 -0.3999  0.0291 -0.5198
  174MOL0     C22847   5.318   4.285   5.162 -0.2228 -0.2362 -0.9198
  174MOL0     C22848   5.216   4.402   5.154 -0.1515 -0.2745 -0.0337
  174MOL0     C22849   5.133   4.386   5.026  0.8618 -0.3821  0.0832
  174MOL0     C22850   5.043   4.256   5.016  0.4756  0.4657  0.1204
  174MOL0     C22851   4.898   4.285   5.072 -0.1818 -1.0235 -0.0585
  174MOL0     C22852   4.801   4.182   5.020 -0.6693  0.1273  0.0022
  174MOL0     N22853   4.667   4.218   5.068 -0.0698  0.0092  0.0599
  174MOL0     C22854   4.596   4.325   5.030 -0.0650 -0.2637  0.0551
  174MOL0     C22855   4.467   4.308   5.072  0.6340 -0.1615  0.2798
  174MOL0     C22856   4.349   4.409   5.065  0.0222 -0.5273  0.0592
  174MOL0     C22857   4.228   4.343   5.004 -0.2190 -0.3866  0.3308
  174MOL0     C22858   4.146   4.446   4.926  0.4918 -0.4118 -0.6905
  174MOL0     C22859   4.000   4.403   4.940  0.0468 -0.2907  0.8968
  174MOL0     O22860   3.917   4.479   4.852  0.8676 -0.3376 -0.6249
  174MOL0     C22861   3.800   4.428   4.823  0.6420  0.6342  0.4828
  174MOL0     C22862   3.717   4.348   4.907  0.8002 -0.4370 -0.4504
  174MOL0     C22863   3.601   4.284   4.865  0.8373  0.4758  0.0551
  174MOL0     C22864   3.549   4.312   4.734 -0.2976 -0.1356 -0.4984
  174MOL0     C22865   3.431   4.249   4.691  0.7989 -0.6009 -0.5829
  174MOL0     O22866   3.345   4.190   4.783 -0.4401  0.1945  0.0174
  174MOL0     C22867   3.234   4.122   4.746 -0.5617  0.6754  0.7920
  174MOL0     C22868   3.133   4.122   4.834  0.1621 -0.6483  0.2092
  174MOL0     C22869   3.012   4.048   4.817 -0.1142 -0.6104  0.3402
  174MOL0     C22870   3.002   3.962   4.703  0.4607  0.2423  0.2286
  174MOL0     O22871   2.897   3.882   4.674 -0.0962 -0.3423  0.1001
  174MOL0     C22872   2.829   3.838   4.798 -0.3665  1.1123 -0.0579
  174MOL0     C22873   2.688   3.885   4.814  0.4999 -0.6308  0.6296
  174MOL0     C22874   2.617   3.796   4.913 -0.1310 -0.0396 -0.6437
  174MOL0     C22875   2.476   3.845   4.921 -0.8070 -0.0524 -0.2393
  174MOL0     C22876   2.385   3.766   5.016 -0.2979  0.6511  0.6671
  174MOL0     C22877   2.242   3.777   4.977  0.0802 -0.6376 -0.4460
  174MOL0     C22878   2.162   3.676   5.064 -0.1255 -0.2355 -0.4686
  174MOL0     C22879   2.075   3.592   4.966  0.3172 -0.8942  0.0266
  174MOL0    Cl22880   1.962   3.505   5.075  0.2228 -0.0323  0.3421
  174MOL0     C22881   3.100   3.964   4.608  0.1611  0.6778 -0.0816
  174MOL0     C22882   3.215   4.040   4.630 -0.3865 -0.6795 -0.0102
  174MOL0     O22883   3.408   4.275   4.572  0.6004 -0.2006 -0.1970
  174MOL0     C22884   3.633   4.399   4.648  0.4140  0.0724 -0.2254
  174MOL0     C22885   3.759   4.447   4.689 -0.5577 -0.8410 -0.2466
  174MOL0     N22886   4.461   4.185   5.130  0.0795 -0.0517  0.3890
  174MOL0     N22887   4.578   4.124   5.107 -0.3079 -0.4265  0.2682
  174MOL0     C22888   5.836   4.175   5.422  0.5282 -1.0816 -0.6366
  174MOL0     C22889   5.926   4.079   5.445 -0.6085 -0.7157  1.0101
  174MOL0     C22890   6.131   3.676   5.506  0.8151  0.2430 -1.0761
  174MOL0     C22891   6.232   3.607   5.433  0.4917  0.5155  0.3408
  174MOL0     C22892   6.315   3.520   5.486 -0.4567  0.5506 -0.1017
  174MOL0     C22893   6.321   3.503   5.627  0.4507  0.1043  0.4079
  174MOL0     O22894   6.417   3.424   5.680  0.7365  0.1222  0.0369
  174MOL0     C22895   6.545   3.476   5.686  0.0469 -0.1116 -0.3186
  174MOL0     C22896   6.566   3.552   5.823  0.1856 -0.3525  0.0256
  174MOL0     C22897   6.716   3.532   5.867 -0.1207  0.3759 -0.5665
  174MOL0     C22898   6.822   3.570   5.768 -0.0446 -0.2727  0.5104
  174MOL0     C22899   6.796   3.702   5.708 -0.3025 -0.1663  0.4595
  174MOL0     C22900   6.781   3.805   5.643 -0.4526  0.4786  0.1295
  174MOL0     C22901   6.229   3.569   5.706  0.5594 -0.2380  0.3323
  174MOL0     C22902   6.126   3.648   5.644  0.3415 -0.0180 -0.1352
  174MOL0     H22903   5.730   3.806   5.500 -0.7693 -1.1978 -3.7307
  174MOL0     H22904   5.565   3.971   5.390 -0.4539  0.0022  0.1872
  174MOL0     H22905   5.495   4.125   5.251  0.2898 -0.2315  2.8334
  174MOL0     H22906   5.624   4.226   5.177  1.6319  1.0569  0.9841
  174MOL0     H22907   5.477   4.417   5.218  2.1243  0.0748  2.4559
  174MOL0     H22908   5.395   4.333   5.352  0.5211  0.7918 -0.2314
  174MOL0     H22909   5.273   4.193   5.199  2.8847 -1.8774 -0.9145
  174MOL0     H22910   5.364   4.256   5.066  2.5950  1.4680 -0.1969
  174MOL0     H22911   5.146   4.399   5.238  0.6761 -2.5441  0.6368
  174MOL0     H22912   5.272   4.496   5.158  0.7013 -0.8062  2.5933
  174MOL0     H22913   5.187   4.399   4.931 -1.1858  0.7445 -0.9798
  174MOL0     H22914   5.064   4.471   5.030  1.6663  0.3248 -0.3834
  174MOL0     H22915   5.092   4.170   5.063  2.1534  1.7504  0.8078
  174MOL0     H22916   5.030   4.228   4.911  1.6710 -0.8165  0.2730
  174MOL0     H22917   4.895   4.299   5.181  0.3648 -1.2410 -0.0115
  174MOL0     H22918   4.880   4.380   5.020  4.8398 -1.3126 -3.0483
  174MOL0     H22919   4.827   4.079   5.044 -1.6312  0.3036  2.0708
  174MOL0     H22920   4.798   4.196   4.912 -1.1164  0.4190  0.0536
  174MOL0     H22921   4.639   4.415   4.986 -0.3949  0.2578  0.7862
  174MOL0     H22922   4.383   4.493   5.004  2.3180 -1.2911  0.1833
  174MOL0     H22923   4.316   4.439   5.165  2.5123  0.4692  0.6495
  174MOL0     H22924   4.170   4.297   5.084 -0.6089 -0.4151  0.0348
  174MOL0     H22925   4.250   4.263   4.933 -3.0029 -2.3117  1.4609
  174MOL0     H22926   4.168   4.547   4.963  0.3863 -0.6388  0.0004
  174MOL0     H22927   4.174   4.445   4.820  0.2076  0.2282 -0.7793
  174MOL0     H22928   3.975   4.409   5.046 -2.4240 -0.6284  0.3925
  174MOL0     H22929   3.997   4.301   4.901  0.7921 -0.3809  1.0593
  174MOL0     H22930   3.732   4.338   5.014 -1.7732 -0.0035  0.0198
  174MOL0     H22931   3.546   4.230   4.941  0.5888 -1.0557 -1.1785
  174MOL0     H22932   3.138   4.202   4.908 -0.5550 -1.0399  0.6969
  174MOL0     H22933   2.936   4.075   4.891  1.2934 -1.9782  2.4016
  174MOL0     H22934   2.880   3.880   4.885  2.7739  2.4056 -2.3487
  174MOL0     H22935   2.828   3.729   4.792  0.2067  1.0097  1.2483
  174MOL0     H22936   2.637   3.865   4.720 -0.4668  0.5625  0.8800
  174MOL0     H22937   2.685   3.988   4.850  0.8403 -0.4961  0.2823
  174MOL0     H22938   2.670   3.803   5.009  3.0564 -2.5036 -2.0265
  174MOL0     H22939   2.613   3.694   4.875 -2.8238  0.1749 -1.1746
  174MOL0     H22940   2.470   3.945   4.966  0.2761 -1.7474  4.2341
  174MOL0     H22941   2.439   3.836   4.819  1.9002  0.6452 -1.3691
  174MOL0     H22942   2.408   3.775   5.122 -0.7522 -0.0954  0.8305
  174MOL0     H22943   2.402   3.661   4.993 -1.8536  0.8391 -1.7392
  174MOL0     H22944   2.225   3.758   4.871 -1.9089  1.0050 -0.4854
  174MOL0     H22945   2.210   3.882   4.983  0.2097 -0.6862  2.4737
  174MOL0     H22946   2.227   3.609   5.121 -0.6524  0.2618  0.7772
  174MOL0     H22947   2.101   3.721   5.144 -1.6098  1.2579 -2.3437
  174MOL0     H22948   2.140   3.524   4.911  0.1582  1.5681 -3.5095
  174MOL0     H22949   2.016   3.654   4.897 -0.0529  0.3287  1.3810
  174MOL0     H22950   3.076   3.910   4.518 -3.0113 -2.2092  2.2114
  174MOL0     H22951   3.296   4.019   4.561 -0.9947  0.6952 -1.1679
  174MOL0     H22952   3.603   4.415   4.545 -2.2935 -3.8000 -0.2314
  174MOL0     H22953   3.817   4.514   4.627  1.7660 -1.7164  0.8889
  174MOL0     H22954   5.869   4.278   5.409  2.6731 -1.5992  0.3317
  174MOL0     H22955   6.027   4.121   5.445 -0.8856  0.1771 -2.2004
  174MOL0     H22956   6.238   3.639   5.329 -2.4111  3.7131  0.9960
  174MOL0     H22957   6.397   3.473   5.433 -0.8468 -1.3132  0.8626
  174MOL0     H22958   6.556   3.547   5.603  0.5645  0.7942  0.4997
  174MOL0     H22959   6.617   3.394   5.683 -1.8289 -1.9187  0.9682
  174MOL0     H22960   6.556   3.659   5.804 -1.6761 -0.3106  0.9765
  174MOL0     H22961   6.483   3.531   5.892 -0.5245  0.4489 -0.5647
  174MOL0     H22962   6.732   3.431   5.908 -3.3363  0.6385  1.7328
  174MOL0     H22963   6.730   3.603   5.949 -0.8422  0.1469 -0.2413
  174MOL0     H22964   6.915   3.575   5.825  0.2045 -0.5984  0.1358
  174MOL0     H22965   6.834   3.492   5.693  2.1394 -2.0124  2.5338
  174MOL0     H22966   6.778   3.896   5.587 -0.8392 -1.4566 -3.2650
  174MOL0     H22967   6.237   3.554   5.813 -0.6786  1.8361  0.7627
  174MOL0     H22968   6.070   3.704   5.718 -0.0289 -1.7994  0.9935
  175MOL0     O22969   4.075   3.137   9.168 -0.2639  0.3420  0.9293
  175MOL0     C22970   4.150   3.142   9.265 -0.4202 -0.0488 -0.6443
  175MOL0     O22971   4.109   3.142   9.391 -0.4494  0.5606 -0.1089
  175MOL0     C22972   3.980   3.132   9.433  0.9313  0.6957  0.9129
  175MOL0     C22973   3.856   3.134   9.350 -0.2737 -0.0614  0.3760
  175MOL0     C22974   3.729   3.104   9.407 -0.9668  0.1733 -0.0996
  175MOL0     C22975   3.714   3.075   9.541  0.2543  0.1937 -0.6282
  175MOL0     O22976   3.589   3.057   9.599  0.3114  0.3423  0.1081
  175MOL0     C22977   3.494   2.966   9.535 -0.3715  0.5914 -0.1784
  175MOL0     C22978   3.356   2.986   9.597 -0.9886  0.2197 -0.3633
  175MOL0     C22979   3.255   3.014   9.485 -0.0680 -0.0112  0.3530
  175MOL0     C22980   3.121   2.997   9.557 -0.3587  0.1777  0.0365
  175MOL0     C22981   3.004   3.044   9.467 -0.2295 -0.4151 -0.4765
  175MOL0     C22982   2.877   2.998   9.534  0.4063  0.4646 -0.2163
  175MOL0     C22983   2.752   3.077   9.477  0.5858  0.5054  0.2576
  175MOL0     C22984   2.734   3.031   9.332 -0.5900  0.6419 -0.4214
  175MOL0     N22985   2.600   3.059   9.277  1.2823 -0.7988  0.3644
  175MOL0     C22986   2.512   3.150   9.335 -0.4144 -0.8302  0.2001
  175MOL0     C22987   2.394   3.142   9.269  0.1424  0.4293 -0.7077
  175MOL0     C22988   2.276   3.226   9.291  0.3648 -0.1586 -0.3797
  175MOL0     C22989   2.162   3.193   9.198 -0.2856  0.7051  0.7591
  175MOL0     C22990   2.086   3.072   9.243  0.5076 -0.3328 -0.0427
  175MOL0     C22991   1.971   3.031   9.151 -0.1160  0.2243 -0.8549
  175MOL0     O22992   1.858   3.120   9.162  0.1666  0.5540  0.1300
  175MOL0     C22993   1.739   3.076   9.106 -0.9070  0.2413 -0.8467
  175MOL0     C22994   1.731   2.982   9.002 -0.2893  0.5312 -0.1437
  175MOL0     C22995   1.608   2.940   8.954 -0.0649  0.3781  0.7158
  175MOL0     C22996   1.490   2.996   9.006  0.5152 -0.7848  0.7512
  175MOL0     C22997   1.353   2.947   8.974  0.4319 -0.2229 -0.7798
  175MOL0     O22998   1.241   3.017   9.022 -0.4786  0.3370  0.4073
  175MOL0     C22999   1.112   2.976   9.001  0.5453 -0.0804  0.8422
  175MOL0     C23000   1.011   3.067   9.045  0.4374  0.8427  0.3395
  175MOL0     C23001   0.875   3.038   9.031  0.3274  0.2372  0.5518
  175MOL0     C23002   0.828   2.939   8.960 -0.3075 -0.0781  0.6745
  175MOL0     O23003   0.691   2.932   8.954 -0.0728 -0.4002  0.1339
  175MOL0     C23004   0.644   2.851   8.845  0.1899 -0.4156 -1.3483
  175MOL0     C23005   0.496   2.882   8.847 -1.4109  0.7010 -0.4535
  175MOL0     C23006   0.417   2.817   8.722 -0.1701  1.0477 -0.2438
  175MOL0     C23007   0.263   2.807   8.740 -0.3442 -0.6512 -0.2055
  175MOL0     C23008   0.198   2.729   8.629  0.6909  0.6176  0.0032
  175MOL0     C23009   0.052   2.757   8.644  0.3928  0.3046  0.4917
  175MOL0     C23010  -0.008   2.720   8.513  0.6408 -0.2674 -0.6574
  175MOL0     C23011  -0.157   2.729   8.506 -0.2333  0.6335  0.1531
  175MOL0    Cl23012  -0.209   2.627   8.362 -0.3251 -0.1510 -0.1475
  175MOL0     C23013   0.927   2.850   8.904  0.2739 -0.5632  0.8223
  175MOL0     C23014   1.070   2.864   8.929 -0.6153 -0.0215  0.4226
  175MOL0     O23015   1.351   2.848   8.901  0.4643  0.3093  0.2809
  175MOL0     C23016   1.498   3.095   9.105  0.9067  1.2374  0.0952
  175MOL0     C23017   1.626   3.139   9.154  0.2447  0.9240  0.0537
  175MOL0     N23018   2.401   3.025   9.192  0.3682 -0.7207 -0.1337
  175MOL0     N23019   2.517   2.978   9.201 -0.0636 -0.3114 -0.3366
  175MOL0     C23020   3.829   3.087   9.626  0.3563  0.0205  0.3084
  175MOL0     C23021   3.957   3.117   9.565 -0.1638  0.0016 -0.4592
  175MOL0     C23022   4.292   3.140   9.235  0.2540 -0.2513  0.2940
  175MOL0     C23023   4.397   3.165   9.337 -0.0986 -0.7405  0.4545
  175MOL0     C23024   4.533   3.176   9.304  1.2672 -0.2838 -0.1011
  175MOL0     C23025   4.569   3.164   9.172 -0.2056 -0.0766  0.9956
  175MOL0     O23026   4.707   3.176   9.155 -0.0723 -0.0876  0.1748
  175MOL0     C23027   4.767   3.171   9.025  0.7664  0.6778  0.3824
  175MOL0     C23028   4.911   3.216   9.020  0.0535  0.7134 -0.0838
  175MOL0     C23029   4.933   3.359   9.041 -0.3494  0.3913 -0.6697
  175MOL0     C23030   5.085   3.401   9.024 -0.5474  1.1594  0.4132
  175MOL0     C23031   5.096   3.532   9.074 -0.5579 -0.2677 -0.5620
  175MOL0     C23032   5.135   3.645   9.107 -0.4826  0.3899  0.7712
  175MOL0     C23033   4.473   3.152   9.072  0.1160  0.5176 -0.7733
  175MOL0     C23034   4.336   3.133   9.100 -0.8966  0.6034  0.3951
  175MOL0     H23035   3.867   3.159   9.245  1.8761  2.2475  1.0719
  175MOL0     H23036   3.637   3.115   9.350  0.9656  2.6599 -3.0421
  175MOL0     H23037   3.528   2.864   9.554 -0.9053  0.6150  0.9504
  175MOL0     H23038   3.494   2.997   9.430  1.7657 -0.9284 -0.6866
  175MOL0     H23039   3.364   3.067   9.670  1.4619 -0.8339  0.6638
  175MOL0     H23040   3.330   2.891   9.643  0.8034 -0.3494 -0.4224
  175MOL0     H23041   3.262   2.926   9.420  3.1343 -3.5072  4.7642
  175MOL0     H23042   3.260   3.104   9.424  0.3555 -0.7337 -0.7107
  175MOL0     H23043   3.114   2.891   9.586  1.1440 -0.6914 -2.4831
  175MOL0     H23044   3.132   3.065   9.642  1.1556 -1.2103  1.0165
  175MOL0     H23045   3.022   3.007   9.366  0.9685  1.2582 -0.9186
  175MOL0     H23046   3.004   3.153   9.470 -1.5505 -0.4063  2.0898
  175MOL0     H23047   2.883   3.021   9.641  2.5045  3.3160 -0.8213
  175MOL0     H23048   2.868   2.890   9.523 -0.2265  0.6454 -1.7981
  175MOL0     H23049   2.667   3.056   9.542  1.7944  1.5642  2.2993
  175MOL0     H23050   2.773   3.185   9.480 -1.5591  1.0627 -1.9846
  175MOL0     H23051   2.751   2.923   9.321  3.1703  1.3045 -2.7797
  175MOL0     H23052   2.810   3.066   9.262  1.1070 -3.1656 -0.7261
  175MOL0     H23053   2.537   3.227   9.407  0.0489 -0.1556 -0.6596
  175MOL0     H23054   2.310   3.330   9.283 -0.1642  0.0065 -0.5579
  175MOL0     H23055   2.237   3.222   9.393  1.2308 -0.1774 -0.0436
  175MOL0     H23056   2.193   3.171   9.096 -1.6264 -2.4211  0.9207
  175MOL0     H23057   2.091   3.277   9.192  0.3222  1.1550 -0.4250
  175MOL0     H23058   2.161   2.992   9.251  1.9327  1.0060  0.7243
  175MOL0     H23059   2.057   3.105   9.343  1.9024  3.8280 -0.8232
  175MOL0     H23060   1.936   2.933   9.185 -1.6705  0.7671 -0.8349
  175MOL0     H23061   2.011   3.022   9.049  2.1675  1.1797 -0.1089
  175MOL0     H23062   1.819   2.940   8.954 -1.0746  0.0318 -1.1934
  175MOL0     H23063   1.599   2.861   8.880  2.3985  0.4473  0.2267
  175MOL0     H23064   1.041   3.153   9.103  1.2768 -0.0638  1.2962
  175MOL0     H23065   0.803   3.101   9.082  1.9743  1.9189  0.9464
  175MOL0     H23066   0.647   2.741   8.846 -0.5062 -0.4567 -2.2190
  175MOL0     H23067   0.690   2.876   8.749  1.7580  1.4219 -0.1922
  175MOL0     H23068   0.493   2.991   8.843 -1.1911  0.9167  2.6090
  175MOL0     H23069   0.451   2.848   8.941 -1.1331  1.5284 -0.0122
  175MOL0     H23070   0.458   2.719   8.698 -0.6580  0.0946  2.4689
  175MOL0     H23071   0.448   2.889   8.646 -0.1184 -0.6384 -1.8597
  175MOL0     H23072   0.235   2.764   8.836  0.3943 -0.3360  0.1620
  175MOL0     H23073   0.230   2.912   8.742  3.0908  0.5414  1.3799
  175MOL0     H23074   0.206   2.620   8.633 -3.9903  0.1063  1.2709
  175MOL0     H23075   0.229   2.765   8.530 -1.3986 -3.8874 -2.6195
  175MOL0     H23076   0.034   2.861   8.673  0.3309  0.3011  0.4683
  175MOL0     H23077   0.009   2.712   8.734  0.5164  2.5892  1.7506
  175MOL0     H23078   0.029   2.783   8.432  1.9687  2.1155  1.6590
  175MOL0     H23079   0.030   2.619   8.493  0.4732 -0.6641  0.9212
  175MOL0     H23080  -0.190   2.834   8.508  1.5714  1.2457  2.2523
  175MOL0     H23081  -0.215   2.682   8.586 -1.2471 -0.7227 -1.3336
  175MOL0     H23082   0.891   2.776   8.832  0.7559  0.4117 -0.4660
  175MOL0     H23083   1.127   2.780   8.890 -3.0259 -2.1596  1.2072
  175MOL0     H23084   1.418   3.143   9.160  0.3718  0.8825 -0.3670
  175MOL0     H23085   1.626   3.222   9.224 -4.0657  2.0908 -1.0364
  175MOL0     H23086   3.820   3.068   9.733 -1.6080  1.9426  0.5397
  175MOL0     H23087   4.046   3.136   9.623 -0.7364  2.9268 -0.4086
  175MOL0     H23088   4.378   3.188   9.442 -1.2150  1.9844 -0.2494
  175MOL0     H23089   4.598   3.211   9.383  0.5719  0.1120  0.3087
  175MOL0     H23090   4.715   3.234   8.952  2.0202 -0.3342 -1.4861
  175MOL0     H23091   4.775   3.068   8.987 -1.2396  0.0237  1.5859
  175MOL0     H23092   4.976   3.167   9.092  0.2436 -1.1595 -1.4695
  175MOL0     H23093   4.957   3.184   8.926  3.0221  0.5296  1.3341
  175MOL0     H23094   4.914   3.379   9.147  0.6950 -2.2982  0.1277
  175MOL0     H23095   4.873   3.425   8.978 -0.5783  1.1754  0.3435
  175MOL0     H23096   5.154   3.337   9.080  0.5623  1.4606 -0.5763
  175MOL0     H23097   5.114   3.395   8.919  0.8727 -0.0278  0.8413
  175MOL0     H23098   5.166   3.742   9.139 -2.4125  1.0354  0.8215
  175MOL0     H23099   4.515   3.162   8.973  0.0049  0.0138 -0.8762
  175MOL0     H23100   4.273   3.112   9.014 -3.3846 -0.8259  2.3961
  176MOL0     O23101   9.900   2.479   4.524  0.1691  0.7250  0.0732
  176MOL0     C23102   9.828   2.577   4.542 -0.2140 -0.0043  0.4467
  176MOL0     O23103   9.857   2.706   4.494 -0.9008 -0.6444  0.5691
  176MOL0     C23104   9.986   2.740   4.470 -0.5014 -0.2166  0.0664
  176MOL0     C23105  10.010   2.840   4.379  1.1261 -1.1470 -0.4178
  176MOL0     C23106  10.137   2.909   4.358 -0.6110  0.1263 -0.0731
  176MOL0     C23107  10.238   2.860   4.433 -0.2037  1.1845 -0.1505
  176MOL0     O23108  10.357   2.925   4.414  0.9548 -0.5494 -0.5122
  176MOL0     C23109  10.478   2.843   4.402  0.9818  1.0133 -0.0847
  176MOL0     C23110  10.485   2.773   4.264  0.1382 -0.2143  0.1048
  176MOL0     C23111  10.457   2.866   4.146  0.1397  0.0599 -0.1070
  176MOL0     C23112  10.487   2.807   4.005 -1.0872  0.2253  0.2758
  176MOL0     C23113  10.409   2.667   3.986 -0.1409 -0.2150 -1.1228
  176MOL0     C23114  10.390   2.619   3.844  0.0723 -0.0855 -0.0342
  176MOL0     C23115  10.275   2.702   3.769 -0.0890 -0.8199 -0.7044
  176MOL0     C23116  10.232   2.630   3.640 -0.6343 -0.7557 -0.4300
  176MOL0     N23117  10.156   2.706   3.544 -0.4938 -0.7709  0.1069
  176MOL0     C23118  10.129   2.655   3.421 -0.1566 -0.2030 -0.4181
  176MOL0     C23119  10.051   2.749   3.363  0.2119  0.1097  0.8561
  176MOL0     C23120   9.982   2.724   3.229  0.1489  0.0071 -0.3886
  176MOL0     C23121   9.831   2.712   3.254  0.3533 -0.1298 -0.0712
  176MOL0     C23122   9.768   2.846   3.283  0.5785 -0.0813 -0.3514
  176MOL0     C23123   9.611   2.844   3.302 -0.6432  0.0722 -0.1668
  176MOL0     O23124   9.572   2.944   3.398  0.2113 -0.2596  0.5575
  176MOL0     C23125   9.538   3.066   3.350  0.5903  0.6644 -0.3235
  176MOL0     C23126   9.570   3.134   3.229 -0.2781 -0.9579 -0.5395
  176MOL0     C23127   9.527   3.265   3.193  0.0054 -0.1201 -0.1122
  176MOL0     C23128   9.434   3.330   3.282 -0.4189 -0.6553  0.4870
  176MOL0     C23129   9.380   3.466   3.254  0.2946  0.2068 -1.0473
  176MOL0     O23130   9.264   3.503   3.319  0.7441 -0.3920  0.0749
  176MOL0     C23131   9.204   3.617   3.272  0.5149 -0.3951  0.4715
  176MOL0     C23132   9.246   3.747   3.291  0.0060 -0.2753  0.1515
  176MOL0     C23133   9.180   3.861   3.250 -0.4734  0.4554 -0.3249
  176MOL0     C23134   9.060   3.846   3.189 -0.0413  0.5031  0.4643
  176MOL0     O23135   8.996   3.959   3.142 -0.1323  0.2467 -0.8361
  176MOL0     C23136   8.866   3.947   3.071 -0.7020 -0.1428 -0.0728
  176MOL0     C23137   8.803   4.083   3.051  0.7823  0.4518  0.2568
  176MOL0     C23138   8.662   4.060   3.000 -0.5175 -0.1036  0.0962
  176MOL0     C23139   8.573   4.183   3.026 -0.1809  0.3665 -0.6024
  176MOL0     C23140   8.424   4.158   3.013 -0.0961  0.5644  0.1057
  176MOL0     C23141   8.382   4.148   2.867 -0.8216 -0.8519 -0.0002
  176MOL0     C23142   8.422   4.255   2.758  0.6238 -0.2616  0.0720
  176MOL0     C23143   8.350   4.212   2.621  0.5294  1.0689  0.0037
  176MOL0    Cl23144   8.181   4.246   2.600  0.0561  0.1826  0.4627
  176MOL0     C23145   9.011   3.716   3.171  0.2271  0.2047 -0.2360
  176MOL0     C23146   9.079   3.608   3.220  0.6512 -0.5381  0.3396
  176MOL0     O23147   9.434   3.530   3.164 -0.4617 -0.0088 -0.5439
  176MOL0     C23148   9.405   3.267   3.406  0.3139 -0.5978  0.0397
  176MOL0     C23149   9.453   3.138   3.439 -0.4259 -0.1548 -0.1366
  176MOL0     N23150  10.051   2.862   3.447 -0.2214 -0.7084  0.0151
  176MOL0     N23151  10.107   2.831   3.554 -0.3601 -0.1853  0.3326
  176MOL0     C23152  10.223   2.763   4.527  1.1271  0.4171 -0.5354
  176MOL0     C23153  10.100   2.698   4.545 -0.4963 -0.5957 -0.3044
  176MOL0     C23154   9.690   2.560   4.588  0.6061  0.6845  0.3835
  176MOL0     C23155   9.617   2.661   4.636  0.9413 -0.5939  0.6658
  176MOL0     C23156   9.484   2.647   4.682  0.3377 -0.5816  0.1956
  176MOL0     C23157   9.426   2.522   4.678 -0.2436 -0.7436 -0.1584
  176MOL0     O23158   9.295   2.515   4.721  0.1920 -1.3726 -0.0506
  176MOL0     C23159   9.210   2.403   4.663  0.4880 -0.3818  0.6502
  176MOL0     C23160   9.059   2.427   4.683  0.4093  0.3678 -0.5561
  176MOL0     C23161   8.971   2.295   4.644  0.4644 -0.1950  0.2483
  176MOL0     C23162   8.996   2.162   4.719  0.3602 -0.6605  0.1285
  176MOL0     C23163   8.941   2.173   4.855 -0.0786  0.5913  0.2677
  176MOL0     C23164   8.918   2.174   4.974 -0.3058  1.2807 -0.6504
  176MOL0     C23165   9.506   2.410   4.628 -0.0065 -0.3526 -0.0195
  176MOL0     C23166   9.630   2.429   4.581  0.3039 -0.1157  0.2703
  176MOL0     H23167   9.924   2.870   4.319 -1.0639 -1.3985  2.3605
  176MOL0     H23168  10.153   2.977   4.275  0.9262  0.1670  0.2229
  176MOL0     H23169  10.475   2.763   4.476 -0.4640  0.5256 -0.6250
  176MOL0     H23170  10.562   2.912   4.418  0.5750  1.1157  1.7325
  176MOL0     H23171  10.421   2.684   4.263  1.9608 -1.6212  1.0846
  176MOL0     H23172  10.589   2.741   4.249  0.0468  0.0253 -1.2108
  176MOL0     H23173  10.512   2.958   4.167 -0.0341 -0.0562  0.8997
  176MOL0     H23174  10.349   2.885   4.143  0.3571  1.2008 -1.1588
  176MOL0     H23175  10.451   2.875   3.928 -3.7486  0.4889  1.6006
  176MOL0     H23176  10.595   2.794   3.996 -1.1828  0.5630 -1.9439
  176MOL0     H23177  10.312   2.679   4.036  0.1015 -1.8805 -0.1990
  176MOL0     H23178  10.458   2.590   4.045  1.9079  1.8037 -0.0444
  176MOL0     H23179  10.360   2.514   3.853  0.7313 -0.2287  0.5255
  176MOL0     H23180  10.472   2.626   3.773 -0.2490 -1.6932 -0.6041
  176MOL0     H23181  10.189   2.729   3.830  0.1124  1.1986 -1.2386
  176MOL0     H23182  10.320   2.798   3.742  0.7307 -1.2565 -0.9190
  176MOL0     H23183  10.175   2.543   3.673 -0.9492 -0.3514  0.1212
  176MOL0     H23184  10.331   2.595   3.609  0.3638  0.6177  1.0059
  176MOL0     H23185  10.144   2.555   3.381 -1.6218 -1.9288  2.9568
  176MOL0     H23186  10.010   2.625   3.191  0.4932  0.6018 -1.7462
  176MOL0     H23187  10.018   2.799   3.158  1.8481 -1.1386 -0.7863
  176MOL0     H23188   9.807   2.645   3.337 -2.2035  2.6717  1.6553
  176MOL0     H23189   9.785   2.680   3.160 -0.4236  0.0158  0.2564
  176MOL0     H23190   9.811   2.886   3.375  0.7046 -0.8838 -0.0494
  176MOL0     H23191   9.795   2.906   3.196 -1.8796  1.8773  0.1378
  176MOL0     H23192   9.567   2.747   3.330  1.4888 -0.8661  0.1467
  176MOL0     H23193   9.581   2.857   3.198 -0.5122  2.2096  0.0279
  176MOL0     H23194   9.645   3.097   3.159  1.8325 -0.3066  1.2784
  176MOL0     H23195   9.562   3.303   3.097  2.5730 -4.1602 -1.0237
  176MOL0     H23196   9.345   3.754   3.333  0.2425 -1.7535 -0.0961
  176MOL0     H23197   9.218   3.959   3.275 -0.8242  1.1634 -2.4033
  176MOL0     H23198   8.810   3.880   3.137 -0.1473 -1.1046 -0.5443
  176MOL0     H23199   8.891   3.902   2.974  1.2995  1.4926 -0.3854
  176MOL0     H23200   8.854   4.129   2.965 -1.5649  4.1135  0.5922
  176MOL0     H23201   8.804   4.123   3.153  0.0695 -2.5886  1.5381
  176MOL0     H23202   8.627   3.978   3.064 -0.3765  1.6829  2.6051
  176MOL0     H23203   8.660   4.041   2.893  1.9651 -1.0763  0.1626
  176MOL0     H23204   8.604   4.224   3.123  0.2360  1.5077 -1.1954
  176MOL0     H23205   8.612   4.261   2.959  1.4925  0.5826  0.5489
  176MOL0     H23206   8.380   4.252   3.050 -2.3826 -0.0458 -0.8815
  176MOL0     H23207   8.393   4.078   3.080 -1.7367  2.2135  1.4313
  176MOL0     H23208   8.273   4.140   2.859 -1.3522  4.1202 -1.1802
  176MOL0     H23209   8.425   4.054   2.832 -0.7713 -1.0865  0.6802
  176MOL0     H23210   8.402   4.358   2.789 -1.3092  0.0737 -2.0515
  176MOL0     H23211   8.530   4.252   2.738  0.4200 -0.7624 -1.0155
  176MOL0     H23212   8.364   4.107   2.594 -2.9605  0.7703 -1.1841
  176MOL0     H23213   8.401   4.278   2.550 -0.3926  2.1230  0.2924
  176MOL0     H23214   8.919   3.688   3.121 -1.0768  1.6747  1.2250
  176MOL0     H23215   9.038   3.507   3.216 -0.3378 -0.1738  0.9320
  176MOL0     H23216   9.332   3.312   3.473 -1.9006 -0.7547 -2.1004
  176MOL0     H23217   9.420   3.099   3.535 -0.1983  0.8419  0.3636
  176MOL0     H23218  10.307   2.740   4.591  0.2714 -0.0087  0.4727
  176MOL0     H23219  10.070   2.623   4.617 -4.3316 -0.0114 -1.0829
  176MOL0     H23220   9.661   2.760   4.640  3.5236 -1.4358 -2.4828
  176MOL0     H23221   9.435   2.730   4.732  0.6751  1.1160 -2.1040
  176MOL0     H23222   9.228   2.307   4.714 -2.8214 -1.6539 -0.2816
  176MOL0     H23223   9.222   2.382   4.556  1.3926  0.5069  0.5639
  176MOL0     H23224   9.035   2.448   4.787  0.9825  0.0736 -0.3634
  176MOL0     H23225   9.026   2.507   4.615  0.2498  1.2998  0.5933
  176MOL0     H23226   8.992   2.272   4.539  3.7535  0.4022  0.6679
  176MOL0     H23227   8.869   2.332   4.654  0.8473  1.0284 -0.1838
  176MOL0     H23228   8.951   2.083   4.658 -0.2486 -0.2062 -0.0081
  176MOL0     H23229   9.105   2.152   4.714  0.4288  0.2235 -0.2182
  176MOL0     H23230   8.909   2.163   5.080 -0.5935 -0.2168 -0.8068
  176MOL0     H23231   9.458   2.315   4.654  0.0287 -0.2510  0.4327
  176MOL0     H23232   9.683   2.340   4.548 -1.5481 -0.5496 -1.7783
  177MOL0     O23233   5.422   5.133  10.609 -0.2483  0.1958  0.7051
  177MOL0     C23234   5.500   5.068  10.684  0.3547  0.5662 -0.0700
  177MOL0     O23235   5.480   4.943  10.721  0.4614 -0.0381 -0.0729
  177MOL0     C23236   5.361   4.876  10.681 -0.2537 -0.1150  0.8399
  177MOL0     C23237   5.254   4.858  10.768  1.2196 -0.7064  0.6121
  177MOL0     C23238   5.128   4.816  10.719  0.0565 -0.1161 -0.7836
  177MOL0     C23239   5.109   4.782  10.589 -0.2757 -0.9859 -0.3397
  177MOL0     O23240   4.977   4.743  10.543 -0.1410 -1.3242 -0.6835
  177MOL0     C23241   4.961   4.775  10.404 -0.4423  0.1174  0.9560
  177MOL0     C23242   4.805   4.767  10.351  0.6285 -0.5161 -0.9140
  177MOL0     C23243   4.750   4.632  10.351  0.1582 -0.1268 -1.1901
  177MOL0     C23244   4.607   4.639  10.280 -0.3453 -0.5691  0.1202
  177MOL0     C23245   4.523   4.512  10.289 -0.2471 -0.3417 -0.0662
  177MOL0     C23246   4.436   4.502  10.418 -1.0472 -0.0583  0.2180
  177MOL0     C23247   4.336   4.390  10.437  0.2573 -0.8794  0.2172
  177MOL0     C23248   4.324   4.374  10.596  0.0822  0.8973  0.2596
  177MOL0     N23249   4.226   4.261  10.626  0.0738  0.1273  0.0862
  177MOL0     C23250   4.109   4.267  10.701  0.0580 -0.0957 -0.2522
  177MOL0     C23251   4.082   4.135  10.736 -0.1018 -0.1282  0.5637
  177MOL0     C23252   3.964   4.090  10.815 -0.2056 -0.7623  0.7094
  177MOL0     C23253   3.829   4.076  10.745  0.6487  0.1055  0.3897
  177MOL0     C23254   3.719   4.020  10.837 -0.4907  0.6010  0.8648
  177MOL0     C23255   3.593   4.004  10.753  0.3640  0.6353 -0.1418
  177MOL0     O23256   3.489   3.971  10.842  0.4686 -0.4525  0.0158
  177MOL0     C23257   3.359   3.943  10.800 -0.4981 -0.0195  0.0426
  177MOL0     C23258   3.285   3.909  10.907 -0.1262 -0.4915 -0.2949
  177MOL0     C23259   3.150   3.871  10.891 -0.0770  0.0136  1.4259
  177MOL0     C23260   3.093   3.879  10.758  0.6120  0.0061  0.0019
  177MOL0     C23261   2.948   3.843  10.743 -0.5839 -0.3415 -1.3550
  177MOL0     O23262   2.917   3.816  10.620  0.2876 -0.3972 -0.0076
  177MOL0     C23263   2.790   3.788  10.577 -0.4657  1.2446  0.0831
  177MOL0     C23264   2.710   3.884  10.519  1.0170 -0.6702  0.5728
  177MOL0     C23265   2.576   3.853  10.479  0.0972 -0.1159  0.7047
  177MOL0     C23266   2.522   3.724  10.509 -0.3973 -0.4219  0.7012
  177MOL0     O23267   2.401   3.685  10.475 -0.1069 -0.6412  0.4094
  177MOL0     C23268   2.300   3.787  10.458  0.0641  0.3043 -0.2991
  177MOL0     C23269   2.163   3.716  10.460 -0.4916  0.2614 -0.5325
  177MOL0     C23270   2.144   3.646  10.600 -0.7769  0.2137  0.4096
  177MOL0     C23271   2.001   3.600  10.616  0.0491  0.8812  0.6702
  177MOL0     C23272   1.958   3.546  10.752 -0.6000  0.1033 -0.1612
  177MOL0     C23273   1.802   3.531  10.759 -0.2539  0.8593  0.0316
  177MOL0     C23274   1.767   3.449  10.889  0.3115 -0.2151  0.5026
  177MOL0     C23275   1.785   3.537  11.006 -0.1689 -0.6394  0.6151
  177MOL0    Cl23276   1.667   3.473  11.135  0.0946 -0.4675  0.2046
  177MOL0     C23277   2.606   3.627  10.570  0.1167 -0.5819  0.5071
  177MOL0     C23278   2.745   3.655  10.593  0.5145 -0.0530  1.0303
  177MOL0     O23279   2.877   3.842  10.843  0.3063  0.5897  0.1114
  177MOL0     C23280   3.175   3.915  10.651  0.4636 -0.1920  0.0179
  177MOL0     C23281   3.309   3.941  10.675 -0.0587 -0.3623 -0.0471
  177MOL0     N23282   4.179   4.054  10.667  0.2799 -0.6245  0.4463
  177MOL0     N23283   4.265   4.133  10.621  0.4712  0.2508  0.0875
  177MOL0     C23284   5.222   4.791  10.507  0.2615 -0.1559  0.0440
  177MOL0     C23285   5.342   4.842  10.549 -0.9743  0.2292 -0.1566
  177MOL0     C23286   5.616   5.128  10.746 -0.4355 -0.0223 -0.0810
  177MOL0     C23287   5.695   5.056  10.841  0.5017  0.2755 -0.7363
  177MOL0     C23288   5.813   5.105  10.885 -0.5277  0.6314 -0.2754
  177MOL0     C23289   5.854   5.242  10.856  0.5000 -0.1562 -0.3863
  177MOL0     O23290   5.953   5.302  10.918 -0.1038  0.2187  0.4111
  177MOL0     C23291   6.056   5.372  10.843  0.3988  0.0492 -0.6623
  177MOL0     C23292   6.197   5.324  10.884  0.4538  0.6357  0.3622
  177MOL0     C23293   6.257   5.370  11.018  0.6333 -0.7377 -0.4269
  177MOL0     C23294   6.403   5.397  11.011 -0.3317  0.1650  0.1500
  177MOL0     C23295   6.455   5.427  11.143  0.2454 -0.6467  0.8462
  177MOL0     C23296   6.499   5.457  11.257 -0.9081  0.1716  0.6984
  177MOL0     C23297   5.762   5.322  10.777 -1.0484 -0.4721 -0.4819
  177MOL0     C23298   5.650   5.262  10.714 -1.1686 -0.4193 -0.4478
  177MOL0     H23299   5.256   4.890  10.871  1.3132  3.3483 -0.4539
  177MOL0     H23300   5.039   4.826  10.782 -0.8456  0.6027 -2.1279
  177MOL0     H23301   5.018   4.698  10.352  0.1733  1.5906 -0.6474
  177MOL0     H23302   5.007   4.872  10.385  2.2375 -1.1052  0.7574
  177MOL0     H23303   4.808   4.806  10.248  0.8753 -0.9390 -1.0701
  177MOL0     H23304   4.737   4.836  10.402  1.6813 -0.4065  0.3652
  177MOL0     H23305   4.741   4.593  10.452  1.3561 -2.1757 -1.8110
  177MOL0     H23306   4.817   4.559  10.305 -0.6723  0.0058 -2.6960
  177MOL0     H23307   4.560   4.732  10.313 -0.0399 -0.0987 -0.7517
  177MOL0     H23308   4.619   4.650  10.172 -0.9698 -3.2662 -0.3113
  177MOL0     H23309   4.600   4.435  10.288  1.5226  1.2719  1.5536
  177MOL0     H23310   4.458   4.494  10.203  0.8266  3.9811 -2.0867
  177MOL0     H23311   4.376   4.593  10.419 -1.0055  0.1215 -2.8484
  177MOL0     H23312   4.515   4.490  10.493 -0.8458 -0.9680 -0.1221
  177MOL0     H23313   4.240   4.413  10.389  0.0793  2.3621  1.8452
  177MOL0     H23314   4.392   4.305  10.397 -0.1943 -1.0798  0.0024
  177MOL0     H23315   4.305   4.467  10.649 -0.6436  0.4509  0.8092
  177MOL0     H23316   4.418   4.340  10.640  1.7287 -0.6533 -3.8768
  177MOL0     H23317   4.056   4.361  10.719  3.5474  1.8373  0.8885
  177MOL0     H23318   3.952   4.148  10.907 -0.2491  2.5803 -1.2429
  177MOL0     H23319   3.989   3.989  10.847 -0.2551 -2.3226 -3.5081
  177MOL0     H23320   3.838   4.009  10.659 -0.5612 -0.1016  0.4108
  177MOL0     H23321   3.782   4.172  10.721  0.7327 -0.1983 -1.0406
  177MOL0     H23322   3.749   3.920  10.869 -1.2891  0.1202  0.1407
  177MOL0     H23323   3.713   4.088  10.923  1.9140 -0.2004  1.7539
  177MOL0     H23324   3.602   3.924  10.680 -4.0571  0.8663 -1.2230
  177MOL0     H23325   3.569   4.101  10.708  1.0640 -0.1051 -2.2126
  177MOL0     H23326   3.342   3.909  11.000 -0.5376 -0.1233 -0.0355
  177MOL0     H23327   3.092   3.851  10.980  2.4673  1.3343  3.5488
  177MOL0     H23328   2.753   3.978  10.486  1.6241 -1.2194 -0.2587
  177MOL0     H23329   2.517   3.922  10.419 -0.8717  0.7175  2.5364
  177MOL0     H23330   2.311   3.838  10.362 -1.7264 -2.9794 -2.4590
  177MOL0     H23331   2.300   3.860  10.539 -0.9169  1.3736 -1.2211
  177MOL0     H23332   2.158   3.643  10.379  0.5149 -2.8948  2.0061
  177MOL0     H23333   2.096   3.800  10.440 -0.9381  0.3745  1.2746
  177MOL0     H23334   2.170   3.715  10.682  2.3915 -0.6542  0.2887
  177MOL0     H23335   2.207   3.557  10.602  0.3676  0.9873 -0.0018
  177MOL0     H23336   1.938   3.683  10.585  0.9898  0.8935 -1.3094
  177MOL0     H23337   1.974   3.521  10.545 -0.6570  0.7771  1.0478
  177MOL0     H23338   1.991   3.610  10.835  0.8559 -1.0145  0.1607
  177MOL0     H23339   2.005   3.449  10.770 -0.7348 -0.3277 -1.9666
  177MOL0     H23340   1.764   3.480  10.670 -0.1323 -2.0081  1.5074
  177MOL0     H23341   1.752   3.629  10.759 -1.1672  0.4167 -1.1027
  177MOL0     H23342   1.664   3.412  10.881  1.0583 -2.1748 -0.8221
  177MOL0     H23343   1.830   3.361  10.900  0.3462 -0.1530  0.7938
  177MOL0     H23344   1.735   3.632  10.990 -1.2007 -1.1828  0.5670
  177MOL0     H23345   1.888   3.545  11.043 -0.6301  0.9407  1.6380
  177MOL0     H23346   2.572   3.529  10.602  0.2388 -1.2367 -1.2697
  177MOL0     H23347   2.801   3.579  10.648 -3.5277 -3.7982  0.5477
  177MOL0     H23348   3.145   3.921  10.547  0.7254  0.3482 -0.0327
  177MOL0     H23349   3.375   3.967  10.593  0.7854  1.1964  1.0799
  177MOL0     H23350   5.223   4.779  10.400 -0.0990 -2.7085  0.2680
  177MOL0     H23351   5.429   4.850  10.484 -1.2555  2.2948 -0.3201
  177MOL0     H23352   5.659   4.957  10.868  0.0995  1.0084  1.6586
  177MOL0     H23353   5.883   5.044  10.943 -0.8069 -1.2536 -1.8192
  177MOL0     H23354   6.054   5.479  10.861 -0.3633  0.0135 -0.4940
  177MOL0     H23355   6.038   5.363  10.735  3.3349  3.1817 -1.5846
  177MOL0     H23356   6.212   5.218  10.862 -3.3968 -0.4476  2.0114
  177MOL0     H23357   6.258   5.386  10.817  0.0540  1.6428  0.8995
  177MOL0     H23358   6.244   5.290  11.091  0.6513 -1.6430 -1.3987
  177MOL0     H23359   6.209   5.465  11.045  3.4736  0.2013  1.9333
  177MOL0     H23360   6.459   5.312  10.972 -0.5442 -0.2493  0.7262
  177MOL0     H23361   6.426   5.479  10.943 -1.4713  0.2638 -0.1372
  177MOL0     H23362   6.529   5.498  11.351 -1.6169  1.5761  0.3554
  177MOL0     H23363   5.793   5.426  10.766  1.1872 -1.2979 -3.3952
  177MOL0     H23364   5.589   5.312  10.639 -0.4675 -0.3247 -0.9599
  178MOL0     O23365   0.014   4.822  10.257  0.3020 -0.3389 -0.2380
  178MOL0     C23366   0.052   4.725  10.194  0.2540 -0.0760  0.3346
  178MOL0     O23367  -0.016   4.601  10.189 -0.8451  0.2633  0.1018
  178MOL0     C23368  -0.132   4.597  10.258 -0.5230 -0.5209  0.7508
  178MOL0     C23369  -0.242   4.673  10.222  0.0929  0.1612  0.1528
  178MOL0     C23370  -0.366   4.640  10.274  0.3378 -0.2061  0.3839
  178MOL0     C23371  -0.379   4.540  10.372  0.2932  0.1208 -0.1906
  178MOL0     O23372  -0.496   4.493  10.427  0.8256 -0.1218  0.2443
  178MOL0     C23373  -0.557   4.590  10.516  0.1379 -0.5314  0.7418
  178MOL0     C23374  -0.693   4.543  10.552  0.4218 -0.0885 -0.1782
  178MOL0     C23375  -0.787   4.526  10.433  0.0421 -0.3831  0.7467
  178MOL0     C23376  -0.926   4.467  10.459 -0.2016  0.2556 -0.1391
  178MOL0     C23377  -1.022   4.499  10.347  0.0399 -0.2236 -0.4733
  178MOL0     C23378  -1.153   4.541  10.417 -0.5535  0.5622  0.2556
  178MOL0     C23379  -1.263   4.539  10.305  0.1419  0.6120  0.0387
  178MOL0     C23380  -1.402   4.562  10.360 -0.8514 -0.7021  0.1933
  178MOL0     N23381  -1.438   4.462  10.468 -0.9314  0.0898  0.4468
  178MOL0     C23382  -1.449   4.332  10.438  0.0829  0.5684  0.6763
  178MOL0     C23383  -1.482   4.279  10.557 -0.2356  0.2387  0.2052
  178MOL0     C23384  -1.528   4.138  10.587  0.0881 -0.7624  0.2694
  178MOL0     C23385  -1.690   4.124  10.587 -0.1581  0.0447 -0.4784
  178MOL0     C23386  -1.741   4.127  10.449  0.9540  0.0265  0.1980
  178MOL0     C23387  -1.882   4.062  10.430  0.4353 -0.2163  0.3261
  178MOL0     O23388  -1.974   4.140  10.502 -0.0892 -0.1722 -0.0119
  178MOL0     C23389  -2.110   4.142  10.460 -0.6265 -0.4673  0.3158
  178MOL0     C23390  -2.192   4.238  10.502  0.1836 -0.4875  0.3337
  178MOL0     C23391  -2.326   4.245  10.477 -0.1533  0.9546  0.1551
  178MOL0     C23392  -2.388   4.145  10.392 -0.2017 -0.2023 -0.7032
  178MOL0     C23393  -2.534   4.152  10.356 -0.6287  0.1392 -0.8573
  178MOL0     O23394  -2.596   4.276  10.397 -0.4178  1.1968 -0.2697
  178MOL0     C23395  -2.713   4.314  10.342 -0.6327  0.0295 -0.7601
  178MOL0     C23396  -2.719   4.451  10.340  0.2912  1.0843 -0.3884
  178MOL0     C23397  -2.835   4.501  10.287 -0.5188 -0.2843  0.1734
  178MOL0     C23398  -2.948   4.424  10.260  0.1929  0.6195 -0.3412
  178MOL0     O23399  -3.069   4.475  10.210  0.0568  0.1500 -0.5657
  178MOL0     C23400  -3.184   4.473  10.300  0.1422 -0.3710  0.2765
  178MOL0     C23401  -3.319   4.486  10.227 -0.6012 -0.8881 -0.3814
  178MOL0     C23402  -3.429   4.485  10.334  0.2046  0.2554 -0.2923
  178MOL0     C23403  -3.572   4.494  10.268  0.0057  0.5570  0.5637
  178MOL0     C23404  -3.681   4.519  10.362 -0.2802  0.2752 -0.2995
  178MOL0     C23405  -3.824   4.483  10.299  0.1224  0.1445  0.3289
  178MOL0     C23406  -3.836   4.336  10.243 -0.3009 -0.1086  0.3042
  178MOL0     C23407  -3.976   4.307  10.194 -0.6426  0.5310  0.8183
  178MOL0    Cl23408  -4.069   4.299  10.341  0.3425 -0.3699 -0.1151
  178MOL0     C23409  -2.942   4.283  10.285 -0.5387 -0.2946  0.2176
  178MOL0     C23410  -2.818   4.235  10.327  0.3875  0.5388  0.5391
  178MOL0     O23411  -2.577   4.066  10.285  0.1360 -0.1365 -0.3112
  178MOL0     C23412  -2.305   4.035  10.350  0.5192  0.9205  0.5351
  178MOL0     C23413  -2.167   4.039  10.388 -0.2591  0.3588 -0.1980
  178MOL0     N23414  -1.465   4.375  10.657 -0.1309  0.1271 -0.6376
  178MOL0     N23415  -1.431   4.482  10.601  0.4646 -0.3346 -0.0261
  178MOL0     C23416  -0.270   4.462  10.407  0.0869  0.2821 -0.8515
  178MOL0     C23417  -0.143   4.498  10.348  0.1859  0.1782  0.2416
  178MOL0     C23418   0.175   4.716  10.121  0.5462  0.1245 -0.1586
  178MOL0     C23419   0.216   4.600  10.052  0.0775  0.2048  0.3402
  178MOL0     C23420   0.338   4.594   9.988 -0.3136 -0.2804 -0.2065
  178MOL0     C23421   0.426   4.702  10.004  0.0982  0.2934  0.3915
  178MOL0     O23422   0.541   4.686   9.946  0.4051 -0.2276  0.0804
  178MOL0     C23423   0.646   4.639  10.034 -0.0976 -0.7610 -0.1014
  178MOL0     C23424   0.740   4.752  10.077  0.1650  0.1920 -0.3845
  178MOL0     C23425   0.862   4.700  10.165  0.8310  0.1920  0.2082
  178MOL0     C23426   0.830   4.653  10.308  0.4579  0.0685  0.6026
  178MOL0     C23427   0.942   4.580  10.357 -0.2838 -0.7710  0.6706
  178MOL0     C23428   1.045   4.525  10.380 -0.1827 -0.1308 -0.0832
  178MOL0     C23429   0.379   4.828  10.051 -0.3291  0.5232 -0.4345
  178MOL0     C23430   0.250   4.835  10.118 -1.3437  0.1580  0.2822
  178MOL0     H23431  -0.220   4.747  10.146  3.0536 -0.1559  0.5680
  178MOL0     H23432  -0.446   4.711  10.256 -0.3089 -0.5166  1.8213
  178MOL0     H23433  -0.570   4.686  10.464 -0.0305 -1.8710 -1.8278
  178MOL0     H23434  -0.487   4.609  10.598  0.9905  0.1707 -0.1174
  178MOL0     H23435  -0.747   4.621  10.608 -1.5793 -0.1944 -1.8358
  178MOL0     H23436  -0.669   4.455  10.612  0.4047  0.7629  1.1203
  178MOL0     H23437  -0.728   4.479  10.354 -2.1617 -0.6990 -0.7845
  178MOL0     H23438  -0.797   4.631  10.404  4.1456  0.8547  2.8945
  178MOL0     H23439  -0.905   4.360  10.463  0.1915  0.3161 -0.5131
  178MOL0     H23440  -0.955   4.500  10.559 -2.3692  2.4843 -1.3863
  178MOL0     H23441  -1.039   4.405  10.294 -3.9609 -0.7917  1.4567
  178MOL0     H23442  -0.996   4.581  10.279  1.6001 -0.3985 -0.1106
  178MOL0     H23443  -1.147   4.645  10.451  0.0196 -0.1642  2.5841
  178MOL0     H23444  -1.170   4.476  10.504  1.5546 -2.7137 -1.5446
  178MOL0     H23445  -1.237   4.613  10.228 -2.2228  1.1205 -0.3435
  178MOL0     H23446  -1.279   4.448  10.247 -1.2251  0.9368 -0.1178
  178MOL0     H23447  -1.476   4.553  10.280 -0.8063 -0.9812  0.1801
  178MOL0     H23448  -1.395   4.664  10.398  3.5363 -1.1062  1.0086
  178MOL0     H23449  -1.445   4.291  10.338  1.5326 -1.3340  1.4607
  178MOL0     H23450  -1.489   4.107  10.684  0.0502 -0.3957  0.4015
  178MOL0     H23451  -1.485   4.066  10.516  0.4302 -3.7780  3.2877
  178MOL0     H23452  -1.718   4.212  10.647  1.1291  1.6512 -2.0977
  178MOL0     H23453  -1.726   4.034  10.637 -3.9994  1.3721 -0.4927
  178MOL0     H23454  -1.748   4.227  10.407  0.9662 -0.5349 -1.2183
  178MOL0     H23455  -1.675   4.075  10.378  0.5890  1.1284 -0.9850
  178MOL0     H23456  -1.894   3.960  10.465 -0.4046 -0.9304 -1.8743
  178MOL0     H23457  -1.897   4.060  10.322  0.8728  0.1361  0.2553
  178MOL0     H23458  -2.149   4.315  10.566 -2.8266  0.8003  0.9727
  178MOL0     H23459  -2.374   4.336  10.514  2.5494  3.8972 -2.9290
  178MOL0     H23460  -2.625   4.507  10.343  1.5763 -0.7760 -2.3780
  178MOL0     H23461  -2.859   4.604  10.263 -1.7922 -0.6779 -0.3176
  178MOL0     H23462  -3.169   4.568  10.352  1.4157  0.8430 -2.1049
  178MOL0     H23463  -3.187   4.389  10.369  1.2935 -0.6655 -0.0087
  178MOL0     H23464  -3.314   4.398  10.162  0.8224 -0.7858 -0.4428
  178MOL0     H23465  -3.327   4.577  10.167 -1.7220 -0.8180 -0.1529
  178MOL0     H23466  -3.405   4.556  10.414  2.6676  0.0921 -0.8018
  178MOL0     H23467  -3.430   4.388  10.385 -1.6950  0.5807  0.3718
  178MOL0     H23468  -3.572   4.573  10.192 -1.0917 -1.3095 -1.4949
  178MOL0     H23469  -3.577   4.402  10.209  1.1461  0.4585  0.5946
  178MOL0     H23470  -3.681   4.619  10.406 -2.5352 -0.1426  0.7670
  178MOL0     H23471  -3.670   4.454  10.449  2.8942  1.2686  0.1613
  178MOL0     H23472  -3.848   4.547  10.213 -0.9766 -1.2694 -0.4595
  178MOL0     H23473  -3.902   4.509  10.372 -0.9189  1.9063 -1.2872
  178MOL0     H23474  -3.771   4.326  10.155  0.8219 -4.0167  1.3769
  178MOL0     H23475  -3.810   4.268  10.325  1.1471  1.8133  1.5329
  178MOL0     H23476  -3.979   4.215  10.134 -0.0697  1.4041 -0.5867
  178MOL0     H23477  -4.000   4.388  10.125 -0.0246  0.9073  1.0404
  178MOL0     H23478  -3.037   4.231  10.296 -0.7063  0.0615  0.4716
  178MOL0     H23479  -2.828   4.131  10.357 -0.2222  0.9200  1.7132
  178MOL0     H23480  -2.335   3.950  10.289 -0.7510  0.3709  1.8759
  178MOL0     H23481  -2.107   3.955  10.356 -2.0348 -1.9328  2.0550
  178MOL0     H23482  -0.283   4.379  10.476  1.3685  0.5710 -0.2402
  178MOL0     H23483  -0.058   4.437  10.375 -2.2214 -3.8755 -0.4550
  178MOL0     H23484   0.145   4.518  10.049  2.2325 -1.7462 -1.7132
  178MOL0     H23485   0.357   4.498   9.940  0.1504  0.9852 -2.6882
  178MOL0     H23486   0.708   4.568   9.977 -2.2341 -1.6341 -1.4683
  178MOL0     H23487   0.603   4.588  10.120 -1.9130 -0.1406 -0.5987
  178MOL0     H23488   0.784   4.805   9.992 -1.4452  1.1067 -0.7063
  178MOL0     H23489   0.670   4.816  10.132 -1.3668 -2.2266  0.6508
  178MOL0     H23490   0.954   4.759  10.172  0.9674 -0.1613  1.9982
  178MOL0     H23491   0.883   4.610  10.106 -0.6080 -0.0106 -0.0263
  178MOL0     H23492   0.814   4.740  10.372 -1.1443 -0.3039  0.7371
  178MOL0     H23493   0.737   4.597  10.303  0.2534  0.3988  0.7033
  178MOL0     H23494   1.133   4.481  10.422 -1.5794 -3.5598 -0.3566
  178MOL0     H23495   0.452   4.906  10.031 -1.1725  1.1131 -1.3624
  178MOL0     H23496   0.225   4.935  10.153 -0.8094  0.7040 -0.8263
  179MOL0     O23497   4.675   8.185   1.374 -0.2207  0.3578 -0.7880
  179MOL0     C23498   4.662   8.192   1.253 -0.7348  0.2022 -0.3025
  179MOL0     O23499   4.546   8.216   1.186 -1.0273 -0.8521  0.2054
  179MOL0     C23500   4.442   8.271   1.255  0.3382 -0.2189 -0.7368
  179MOL0     C23501   4.434   8.384   1.337  0.5136 -0.5314  0.2930
  179MOL0     C23502   4.318   8.433   1.402  1.5609  0.2411  0.3464
  179MOL0     C23503   4.198   8.361   1.380  0.2390 -0.7833 -0.2382
  179MOL0     O23504   4.081   8.399   1.436 -0.1533 -0.0560  0.0906
  179MOL0     C23505   4.071   8.362   1.572 -0.2587  0.5642  0.4164
  179MOL0     C23506   3.925   8.359   1.614 -0.4253  0.3349 -0.4016
  179MOL0     C23507   3.877   8.497   1.651  0.3869 -0.9989  0.4134
  179MOL0     C23508   3.726   8.505   1.678  0.6640 -0.1868  0.0950
  179MOL0     C23509   3.677   8.650   1.714 -0.0990  0.2363  0.8201
  179MOL0     C23510   3.518   8.670   1.714 -0.4026 -0.7025 -0.1476
  179MOL0     C23511   3.486   8.768   1.827  0.2058 -0.2794  0.3398
  179MOL0     C23512   3.336   8.804   1.831  0.3126 -0.2589  0.3268
  179MOL0     N23513   3.240   8.764   1.936  0.0439  0.1604  0.1734
  179MOL0     C23514   3.273   8.709   2.058  0.4848 -0.2214  0.2488
  179MOL0     C23515   3.156   8.686   2.123 -0.0918 -0.7722  0.0653
  179MOL0     C23516   3.155   8.653   2.270  0.1393  0.0891 -0.4259
  179MOL0     C23517   3.106   8.523   2.320  0.5625 -0.1549  0.8572
  179MOL0     C23518   2.950   8.524   2.304  0.1906  0.5848 -0.3852
  179MOL0     C23519   2.860   8.531   2.428 -0.8452 -0.0941  0.0851
  179MOL0     O23520   2.728   8.564   2.389  0.8104 -0.3221  0.3190
  179MOL0     C23521   2.630   8.481   2.377  0.6078  1.0698 -0.5128
  179MOL0     C23522   2.641   8.342   2.379 -0.1970  0.8011  0.7117
  179MOL0     C23523   2.535   8.251   2.380  0.5518 -0.1048  0.1666
  179MOL0     C23524   2.402   8.315   2.374  0.6241  0.7838  0.2532
  179MOL0     C23525   2.278   8.238   2.356  0.8692 -0.4007  0.8617
  179MOL0     O23526   2.163   8.310   2.383 -0.5620  0.2131  0.0601
  179MOL0     C23527   2.039   8.253   2.380 -0.0176  0.3566  1.0845
  179MOL0     C23528   1.990   8.155   2.292  0.2444  0.3789 -0.0016
  179MOL0     C23529   1.862   8.106   2.298 -0.2145  0.2272  0.0853
  179MOL0     C23530   1.774   8.144   2.397 -0.8601  0.0305  0.3153
  179MOL0     O23531   1.652   8.082   2.426 -0.3629  0.2225 -0.1335
  179MOL0     C23532   1.553   8.175   2.482  0.3346  0.4654  1.3070
  179MOL0     C23533   1.428   8.089   2.503 -0.4051  0.5086 -0.3994
  179MOL0     C23534   1.326   8.188   2.560  0.4007  0.1235  0.8733
  179MOL0     C23535   1.199   8.121   2.612  0.3100 -0.1185 -0.2939
  179MOL0     C23536   1.096   8.234   2.638 -0.1447  0.4347  0.2753
  179MOL0     C23537   0.968   8.176   2.705  0.3979 -0.3814 -0.3641
  179MOL0     C23538   0.876   8.301   2.746  0.1790 -0.5942  0.0896
  179MOL0     C23539   0.741   8.246   2.793  0.5174 -0.4205  0.0130
  179MOL0    Cl23540   0.752   8.205   2.970 -0.0735  0.4193  0.4512
  179MOL0     C23541   1.826   8.237   2.497 -0.1901  0.1053  0.4062
  179MOL0     C23542   1.954   8.291   2.478 -0.8778  0.6404 -0.5915
  179MOL0     O23543   2.286   8.117   2.338 -0.5248  0.1710  0.3200
  179MOL0     C23544   2.396   8.451   2.355  0.7519 -0.6539 -0.0046
  179MOL0     C23545   2.503   8.537   2.374  0.5153 -0.0152  0.2039
  179MOL0     N23546   3.051   8.728   2.042 -0.6241 -0.9495 -0.8358
  179MOL0     N23547   3.100   8.779   1.931 -0.6687 -0.8148 -0.1538
  179MOL0     C23548   4.195   8.253   1.296 -0.3043  0.0628 -0.8231
  179MOL0     C23549   4.322   8.211   1.244  0.5683  0.9159  0.4055
  179MOL0     C23550   4.777   8.151   1.175 -0.5329 -0.1767  0.9454
  179MOL0     C23551   4.760   8.157   1.041 -0.3266  0.5173 -0.2422
  179MOL0     C23552   4.872   8.142   0.953 -0.4358  0.2153  0.0967
  179MOL0     C23553   4.995   8.124   1.013 -1.0702 -0.4114 -0.2085
  179MOL0     O23554   5.107   8.102   0.939 -0.3059 -0.4020  0.5537
  179MOL0     C23555   5.207   8.203   0.921  0.3186 -0.9757  0.5693
  179MOL0     C23556   5.348   8.162   0.952  0.0693 -0.5370  0.3748
  179MOL0     C23557   5.398   8.057   0.833 -1.0117 -0.1191 -0.4069
  179MOL0     C23558   5.362   8.084   0.683  0.7864  0.5355  0.7330
  179MOL0     C23559   5.440   8.199   0.633  0.5787  0.0215  0.1108
  179MOL0     C23560   5.499   8.305   0.603 -0.3244 -0.9529  1.0008
  179MOL0     C23561   5.014   8.129   1.150 -0.6483  1.1516 -0.3293
  179MOL0     C23562   4.905   8.146   1.232  0.2017  0.2997  0.0436
  179MOL0     H23563   4.534   8.427   1.343  1.5221 -1.9690 -3.3666
  179MOL0     H23564   4.322   8.517   1.471  1.9212 -1.3603  2.3371
  179MOL0     H23565   4.122   8.433   1.639  0.7739  0.3030 -0.0758
  179MOL0     H23566   4.122   8.267   1.586 -0.1509  0.5257 -0.2044
  179MOL0     H23567   3.908   8.293   1.699  4.5074 -2.3183 -1.0895
  179MOL0     H23568   3.874   8.313   1.530 -1.9328  2.5551 -0.7836
  179MOL0     H23569   3.899   8.559   1.563 -2.0575 -3.0233 -1.8156
  179MOL0     H23570   3.927   8.544   1.736 -3.1150  3.9275  0.1669
  179MOL0     H23571   3.664   8.464   1.598 -1.4624 -0.2336  1.6890
  179MOL0     H23572   3.701   8.430   1.753  1.4948 -0.7725 -0.2016
  179MOL0     H23573   3.731   8.727   1.659 -1.8283  1.3916  0.6493
  179MOL0     H23574   3.713   8.662   1.816  1.2373  0.9671  0.2799
  179MOL0     H23575   3.472   8.572   1.734 -2.1216  0.1291  0.2165
  179MOL0     H23576   3.493   8.702   1.613  1.1772  2.1789  0.2756
  179MOL0     H23577   3.529   8.723   1.917 -1.0787 -0.9938  0.6274
  179MOL0     H23578   3.548   8.857   1.816 -2.1018  1.5909  1.3918
  179MOL0     H23579   3.285   8.769   1.740 -1.8773  1.2011  0.8926
  179MOL0     H23580   3.331   8.912   1.811 -1.7310 -0.0388  1.6718
  179MOL0     H23581   3.373   8.696   2.098  0.7365 -0.3417 -0.4038
  179MOL0     H23582   3.108   8.731   2.331 -1.7932 -1.2350 -0.1297
  179MOL0     H23583   3.260   8.653   2.299 -0.0958  0.4738  0.4786
  179MOL0     H23584   3.124   8.515   2.427 -2.0317 -0.0052  1.3661
  179MOL0     H23585   3.143   8.441   2.258  1.0578 -0.0757  1.0448
  179MOL0     H23586   2.918   8.604   2.237 -0.3355 -0.9499 -2.0274
  179MOL0     H23587   2.911   8.437   2.250  0.0985  0.8413 -0.7303
  179MOL0     H23588   2.897   8.617   2.484  0.0079  0.4642 -1.2695
  179MOL0     H23589   2.871   8.446   2.495 -0.4486 -0.9125 -0.9838
  179MOL0     H23590   2.733   8.284   2.388  0.0570  1.5094  3.7719
  179MOL0     H23591   2.559   8.145   2.383  0.6324 -0.1870 -1.9389
  179MOL0     H23592   2.062   8.110   2.222  0.7362  0.0915  0.6760
  179MOL0     H23593   1.836   8.027   2.228  2.4074 -0.3958 -0.2846
  179MOL0     H23594   1.542   8.263   2.416 -3.2292 -1.1094 -0.4463
  179MOL0     H23595   1.577   8.211   2.582 -1.4867  1.3073  1.4812
  179MOL0     H23596   1.451   8.007   2.572 -2.9150  0.3942  0.4178
  179MOL0     H23597   1.390   8.054   2.407  1.8220  2.0956 -1.9518
  179MOL0     H23598   1.300   8.273   2.495 -1.0873 -0.6709  0.3799
  179MOL0     H23599   1.379   8.232   2.645  2.2077  1.8615 -1.0254
  179MOL0     H23600   1.150   8.052   2.543 -3.5642  0.5862  1.4760
  179MOL0     H23601   1.206   8.067   2.707  0.0220 -0.5906 -0.5393
  179MOL0     H23602   1.071   8.274   2.540 -1.2696 -1.8016 -0.4249
  179MOL0     H23603   1.135   8.307   2.710  0.4183 -0.7432  1.2108
  179MOL0     H23604   1.003   8.126   2.796  0.1954  1.7502  0.9623
  179MOL0     H23605   0.917   8.113   2.632  0.1789  0.6945 -1.1712
  179MOL0     H23606   0.931   8.360   2.819 -1.4830  0.6838  0.3688
  179MOL0     H23607   0.855   8.362   2.657 -1.8360 -1.1490  0.1442
  179MOL0     H23608   0.711   8.159   2.733  2.1724 -0.6684 -0.5070
  179MOL0     H23609   0.667   8.325   2.774  1.6333  0.4285 -0.9017
  179MOL0     H23610   1.768   8.280   2.578 -1.0667  1.6015 -0.9657
  179MOL0     H23611   1.994   8.366   2.545  2.1971 -0.4890 -0.9779
  179MOL0     H23612   2.299   8.495   2.333  0.2474 -1.6109  0.2936
  179MOL0     H23613   2.488   8.642   2.399 -0.2687 -0.8512  3.8808
  179MOL0     H23614   4.100   8.201   1.294 -0.6256  0.5893  0.0752
  179MOL0     H23615   4.320   8.118   1.187  3.3999  1.5511 -0.9022
  179MOL0     H23616   4.660   8.163   1.000 -1.3431  0.3081  2.0914
  179MOL0     H23617   4.854   8.139   0.846  1.1436  1.5393 -0.2432
  179MOL0     H23618   5.180   8.287   0.984  2.0298  0.1825 -0.1619
  179MOL0     H23619   5.205   8.238   0.817 -0.4745 -2.0464  0.2056
  179MOL0     H23620   5.406   8.253   0.969  1.1212 -1.3600  1.3549
  179MOL0     H23621   5.342   8.102   1.043 -1.9330 -0.4480  0.3678
  179MOL0     H23622   5.364   7.959   0.869  3.2322 -1.6493  0.0556
  179MOL0     H23623   5.508   8.050   0.834 -1.0612 -1.1772 -1.0044
  179MOL0     H23624   5.387   8.001   0.616 -1.8620 -0.1144  0.4415
  179MOL0     H23625   5.255   8.096   0.663  0.5503 -1.0639  0.9268
  179MOL0     H23626   5.554   8.397   0.594 -2.1443  0.3513  2.4156
  179MOL0     H23627   5.114   8.115   1.191 -0.3934  4.0465  0.2168
  179MOL0     H23628   4.930   8.128   1.336  3.2998  1.6358 -0.3713
  180MOL0     O23629   9.747  11.149   4.576 -0.1820 -0.0835 -0.2584
  180MOL0     C23630   9.815  11.176   4.671 -0.1883 -0.5374 -0.7093
  180MOL0     O23631   9.778  11.254   4.779  0.2997 -0.8006 -0.3591
  180MOL0     C23632   9.667  11.334   4.771 -0.1337  0.6299  0.2108
  180MOL0     C23633   9.681  11.475   4.766  0.6617 -0.2767 -0.2666
  180MOL0     C23634   9.568  11.555   4.768 -0.3889  0.2796  0.2469
  180MOL0     C23635   9.437  11.501   4.757 -0.4008 -0.3404 -0.2437
  180MOL0     O23636   9.326  11.575   4.760  0.6368 -0.7803 -0.9761
  180MOL0     C23637   9.337  11.708   4.814  1.1423  0.5361 -0.1992
  180MOL0     C23638   9.190  11.756   4.827  0.0079  0.7883 -0.0902
  180MOL0     C23639   9.114  11.673   4.935 -1.0117 -0.3523 -0.4266
  180MOL0     C23640   8.969  11.707   4.946  0.4715 -0.3688  0.2265
  180MOL0     C23641   8.918  11.634   5.080  1.3327 -0.8449 -0.1809
  180MOL0     C23642   8.760  11.647   5.092 -0.1437 -0.7137  0.7803
  180MOL0     C23643   8.694  11.557   5.196  0.5426 -0.0671 -0.0754
  180MOL0     C23644   8.635  11.431   5.136  0.5222  0.9708  0.3125
  180MOL0     N23645   8.555  11.335   5.224  0.2546 -0.8298 -0.1574
  180MOL0     C23646   8.418  11.344   5.251 -0.3215 -0.8113  0.6858
  180MOL0     C23647   8.387  11.252   5.346 -0.2761  0.4972  0.2030
  180MOL0     C23648   8.257  11.235   5.418  0.4053 -0.2721 -0.1912
  180MOL0     C23649   8.173  11.118   5.369 -0.2463 -0.3223  0.1796
  180MOL0     C23650   8.127  11.146   5.223 -0.0136  0.2330 -0.7406
  180MOL0     C23651   8.072  11.021   5.159 -0.0157 -0.2205  0.9972
  180MOL0     O23652   7.945  10.972   5.212  0.2732 -0.1181 -0.0023
  180MOL0     C23653   7.827  11.048   5.224  0.4556 -0.0419 -1.0901
  180MOL0     C23654   7.756  11.050   5.341 -0.0580 -0.0794 -0.4075
  180MOL0     C23655   7.645  11.141   5.356 -0.2911  0.3503  1.0320
  180MOL0     C23656   7.586  11.206   5.238 -0.1303  0.2903  0.2154
  180MOL0     C23657   7.455  11.281   5.249 -0.6275  0.4639 -0.6197
  180MOL0     O23658   7.403  11.292   5.378 -0.1600  0.0487  0.8207
  180MOL0     C23659   7.292  11.376   5.407 -0.3290 -0.0500  0.7880
  180MOL0     C23660   7.296  11.475   5.495 -0.0797 -0.2692 -0.4685
  180MOL0     C23661   7.191  11.570   5.523  0.6103  0.0459  0.2843
  180MOL0     C23662   7.071  11.563   5.455 -0.4689 -0.5349  0.0921
  180MOL0     O23663   6.972  11.655   5.478  0.9389 -0.8657  0.3208
  180MOL0     C23664   6.852  11.603   5.530 -0.1446  1.5285  0.5502
  180MOL0     C23665   6.748  11.624   5.427  0.6693  0.2451 -0.0944
  180MOL0     C23666   6.730  11.768   5.379  0.7186 -0.0088  0.8196
  180MOL0     C23667   6.602  11.791   5.294 -0.2647 -0.3462  0.4510
  180MOL0     C23668   6.601  11.701   5.168 -0.0584 -0.6921  0.4876
  180MOL0     C23669   6.467  11.742   5.097 -0.0007  0.2311 -0.1499
  180MOL0     C23670   6.431  11.674   4.969 -0.1893  0.9189  0.2143
  180MOL0     C23671   6.387  11.530   4.987  1.0862  0.3316  0.0616
  180MOL0    Cl23672   6.228  11.488   5.046 -0.1946 -0.1583 -0.0208
  180MOL0     C23673   7.068  11.462   5.351  0.4882 -0.2148  0.1348
  180MOL0     C23674   7.179  11.378   5.328 -0.3394  0.7864  0.0222
  180MOL0     O23675   7.424  11.341   5.148 -0.0687 -0.3126  0.0901
  180MOL0     C23676   7.659  11.195   5.119  1.0083 -0.5211 -1.0482
  180MOL0     C23677   7.783  11.127   5.122  0.0965  0.8081  1.0548
  180MOL0     N23678   8.506  11.181   5.374  0.4251 -0.4428  0.4122
  180MOL0     N23679   8.598  11.239   5.301 -0.4649  0.1990  0.2775
  180MOL0     C23680   9.422  11.366   4.746 -0.4448 -0.1044  0.0019
  180MOL0     C23681   9.533  11.286   4.770 -0.8686  0.2083  0.2501
  180MOL0     C23682   9.958  11.133   4.677  0.8703  0.4033 -0.2548
  180MOL0     C23683   9.999  11.022   4.604 -0.1173  0.3789 -0.0999
  180MOL0     C23684  10.138  10.987   4.609  0.5098  0.2942 -0.5035
  180MOL0     C23685  10.229  11.044   4.701  0.7857  0.2740 -0.2251
  180MOL0     O23686  10.363  11.020   4.698  0.7272 -1.2749 -0.4411
  180MOL0     C23687  10.428  10.919   4.620  0.3178 -0.2240 -0.5618
  180MOL0     C23688  10.572  10.921   4.649  0.0003  0.1711 -0.3902
  180MOL0     C23689  10.644  10.801   4.588  0.5674 -0.5581  0.6792
  180MOL0     C23690  10.787  10.775   4.636 -0.9107 -0.0973  0.4509
  180MOL0     C23691  10.873  10.703   4.534  0.7354  0.2265 -0.1740
  180MOL0     C23692  10.950  10.661   4.448  0.9142  0.4787 -0.0674
  180MOL0     C23693  10.183  11.151   4.774  0.1888  0.2634  0.9012
  180MOL0     C23694  10.050  11.194   4.767 -0.5014  0.7646  0.3608
  180MOL0     H23695   9.782  11.514   4.772  1.3318 -2.0329  0.6171
  180MOL0     H23696   9.569  11.664   4.771  0.0549  0.2716  0.5189
  180MOL0     H23697   9.393  11.782   4.755  0.2720  1.0372 -0.4168
  180MOL0     H23698   9.390  11.722   4.909  0.4644 -0.6073  0.3579
  180MOL0     H23699   9.141  11.727   4.734 -1.4897 -0.7413  1.1167
  180MOL0     H23700   9.184  11.864   4.845  1.5469  0.8348  0.3032
  180MOL0     H23701   9.160  11.712   5.027 -0.9886  0.4082 -0.7538
  180MOL0     H23702   9.126  11.565   4.917  1.1766  0.1924 -2.7938
  180MOL0     H23703   8.936  11.811   4.937 -2.3192 -0.7244  3.9324
  180MOL0     H23704   8.912  11.662   4.864  0.2741  2.2380 -1.1534
  180MOL0     H23705   8.964  11.676   5.170 -3.5730 -1.8632  3.2360
  180MOL0     H23706   8.943  11.529   5.064 -0.7541 -1.2575 -1.0592
  180MOL0     H23707   8.718  11.623   4.993  2.4687 -1.0721 -0.3234
  180MOL0     H23708   8.738  11.749   5.123 -1.4335 -1.2600  1.7405
  180MOL0     H23709   8.761  11.535   5.280  0.2309 -0.8049 -0.0129
  180MOL0     H23710   8.609  11.609   5.242  2.1335  1.0372  1.7771
  180MOL0     H23711   8.722  11.374   5.102 -0.3286 -0.3582  0.2868
  180MOL0     H23712   8.575  11.452   5.047  0.5699 -0.8924 -0.2086
  180MOL0     H23713   8.346  11.406   5.198  0.4959  1.7703  2.4132
  180MOL0     H23714   8.202  11.329   5.411  0.3840 -0.1588  1.2233
  180MOL0     H23715   8.290  11.223   5.521  1.9873  2.1334 -0.3601
  180MOL0     H23716   8.086  11.096   5.433 -0.0521 -1.5389  0.0489
  180MOL0     H23717   8.237  11.030   5.362  0.4371  0.1521  0.4139
  180MOL0     H23718   8.067  11.236   5.204  0.9022  0.6650 -1.6908
  180MOL0     H23719   8.218  11.156   5.164  0.5242 -2.5926 -0.5277
  180MOL0     H23720   8.144  10.940   5.175  0.5006 -0.1495 -0.8021
  180MOL0     H23721   8.065  11.033   5.051 -3.8917 -1.6298  0.9458
  180MOL0     H23722   7.770  10.994   5.433 -0.6049  2.2843  1.1812
  180MOL0     H23723   7.588  11.148   5.448  0.2976  0.5612  1.3883
  180MOL0     H23724   7.388  11.478   5.554  0.1542  3.2533 -0.8039
  180MOL0     H23725   7.217  11.642   5.601 -0.1918  2.5977 -1.6537
  180MOL0     H23726   6.832  11.654   5.625 -1.1882  0.3566  0.9767
  180MOL0     H23727   6.871  11.498   5.554  0.0504  0.8428 -2.3102
  180MOL0     H23728   6.653  11.588   5.468  0.5077 -0.6186 -1.1612
  180MOL0     H23729   6.766  11.560   5.340  1.0307  0.3815 -0.1218
  180MOL0     H23730   6.815  11.806   5.322 -0.5957  2.3575  0.3096
  180MOL0     H23731   6.714  11.834   5.465 -2.1965 -1.5685  1.6186
  180MOL0     H23732   6.509  11.769   5.348 -1.6456  0.9152 -1.3098
  180MOL0     H23733   6.610  11.898   5.275 -2.5429 -0.1512  0.3906
  180MOL0     H23734   6.596  11.594   5.187  0.4001 -0.8625 -0.3128
  180MOL0     H23735   6.694  11.724   5.115  0.1791  2.0882  1.8806
  180MOL0     H23736   6.459  11.851   5.089 -1.7269  0.1481 -0.0602
  180MOL0     H23737   6.387  11.707   5.163  0.4396  0.6835  0.6261
  180MOL0     H23738   6.351  11.721   4.911 -0.0814 -0.5935 -1.2360
  180MOL0     H23739   6.519  11.698   4.909  0.6627  2.0803  1.8515
  180MOL0     H23740   6.457  11.469   5.045  0.4898  0.8159  1.3105
  180MOL0     H23741   6.388  11.492   4.884 -0.8172 -2.7219  1.0304
  180MOL0     H23742   6.984  11.440   5.287  0.3415  0.2368  0.1634
  180MOL0     H23743   7.169  11.310   5.244 -1.0910  2.4553 -1.2959
  180MOL0     H23744   7.621  11.246   5.031 -1.0833  1.5321  0.9414
  180MOL0     H23745   7.847  11.123   5.034 -1.7555 -2.1083 -0.3147
  180MOL0     H23746   9.326  11.317   4.736 -0.9241  1.1472 -2.3755
  180MOL0     H23747   9.528  11.178   4.779  2.5249  0.0312  1.8203
  180MOL0     H23748   9.929  10.965   4.544 -1.5459  2.2736 -0.3434
  180MOL0     H23749  10.160  10.889   4.570 -2.1069 -0.3843 -0.4788
  180MOL0     H23750  10.406  10.930   4.513 -3.1428 -1.1088 -0.0525
  180MOL0     H23751  10.392  10.818   4.640  1.2082 -0.4917 -0.2692
  180MOL0     H23752  10.607  11.010   4.598 -0.1065  0.3349 -0.1786
  180MOL0     H23753  10.594  10.931   4.756 -1.3989 -1.6708  0.1233
  180MOL0     H23754  10.653  10.832   4.483  0.4814  0.4370  0.9577
  180MOL0     H23755  10.582  10.712   4.594  1.0674 -1.0396 -0.8479
  180MOL0     H23756  10.833  10.873   4.648 -0.5278  0.0020 -1.5592
  180MOL0     H23757  10.775  10.723   4.732 -2.4050 -1.0738 -0.2228
  180MOL0     H23758  11.014  10.625   4.370 -0.9242 -2.2347 -0.4780
  180MOL0     H23759  10.255  11.199   4.840 -2.5221  2.6664  2.3619
  180MOL0     H23760  10.027  11.282   4.827  2.4831 -0.0306  2.9029
  181MOL0     O23761   7.768   0.203   0.101 -1.1078  0.2706 -0.3375
  181MOL0     C23762   7.831   0.131   0.180 -0.0785  0.6043  0.0886
  181MOL0     O23763   7.809   0.002   0.215 -0.2428 -0.3104 -0.0774
  181MOL0     C23764   7.705  -0.066   0.154  0.4944 -0.9238  0.4517
  181MOL0     C23765   7.721  -0.124   0.025 -0.2453 -0.0747  0.7552
  181MOL0     C23766   7.606  -0.192  -0.030 -0.0745 -0.6815 -0.1918
  181MOL0     C23767   7.485  -0.181   0.031  0.9464  0.3578  0.0248
  181MOL0     O23768   7.386  -0.242  -0.038 -0.3055  0.0194  0.1701
  181MOL0     C23769   7.261  -0.262   0.019 -0.2275 -0.1266 -0.4292
  181MOL0     C23770   7.177  -0.357  -0.052  0.5521 -0.6039  0.1319
  181MOL0     C23771   7.030  -0.351  -0.003  1.4021 -0.7813 -0.3419
  181MOL0     C23772   6.931  -0.440  -0.076  0.2994  0.8617  0.0509
  181MOL0     C23773   6.814  -0.478   0.007 -0.2171  0.4130 -0.0766
  181MOL0     C23774   6.707  -0.541  -0.086 -0.2879  0.8409  0.8093
  181MOL0     C23775   6.585  -0.587  -0.009 -0.1194  0.0688 -0.1186
  181MOL0     C23776   6.493  -0.476   0.043  0.0781  0.5046 -1.3156
  181MOL0     N23777   6.414  -0.429  -0.075 -0.3417 -0.0735  0.9702
  181MOL0     C23778   6.446  -0.313  -0.146  0.1868  0.4996  0.0162
  181MOL0     C23779   6.349  -0.299  -0.243  0.2609 -0.2005 -0.4151
  181MOL0     C23780   6.326  -0.172  -0.332  0.1253  0.0463  0.0344
  181MOL0     C23781   6.444  -0.122  -0.416 -0.4791  1.1897 -0.4468
  181MOL0     C23782   6.501  -0.216  -0.523 -0.2734  0.0034  0.9292
  181MOL0     C23783   6.630  -0.158  -0.572 -0.2434 -0.2524  0.1375
  181MOL0     O23784   6.716  -0.133  -0.462  0.6564 -0.3058 -0.5291
  181MOL0     C23785   6.842  -0.092  -0.474 -0.3320 -0.1209 -0.2395
  181MOL0     C23786   6.914  -0.056  -0.361 -0.1179 -0.0665  0.6975
  181MOL0     C23787   7.033   0.001  -0.369  0.0998 -0.7424 -0.2831
  181MOL0     C23788   7.102   0.013  -0.491 -0.0318  0.6041 -0.2587
  181MOL0     C23789   7.242   0.059  -0.494  0.3568  0.0689  0.3044
  181MOL0     O23790   7.303   0.078  -0.371  0.7805  0.2514 -0.4076
  181MOL0     C23791   7.431   0.135  -0.355  0.6072  0.3235  0.0509
  181MOL0     C23792   7.513   0.089  -0.254 -0.0875 -0.0149 -0.0992
  181MOL0     C23793   7.643   0.128  -0.240 -0.3543 -0.0903  0.5387
  181MOL0     C23794   7.698   0.227  -0.330  0.1216  0.3104 -0.2708
  181MOL0     O23795   7.832   0.264  -0.341 -0.0210  0.2168  0.1008
  181MOL0     C23796   7.917   0.214  -0.242 -1.4037 -0.1975 -0.0363
  181MOL0     C23797   8.051   0.230  -0.312  0.1665 -0.2401 -0.5072
  181MOL0     C23798   8.070   0.113  -0.407  0.1304 -0.5228 -0.3578
  181MOL0     C23799   8.217   0.098  -0.441  0.2911 -0.5555  0.4989
  181MOL0     C23800   8.227  -0.030  -0.538 -0.7174 -0.5537 -0.1333
  181MOL0     C23801   8.375  -0.069  -0.564  0.0898  1.4828  0.3982
  181MOL0     C23802   8.430   0.015  -0.683  0.5070 -1.2874 -0.9901
  181MOL0     C23803   8.573   0.082  -0.659  0.3511  0.0635 -0.2999
  181MOL0    Cl23804   8.581   0.232  -0.560  0.5962  0.2035  0.1774
  181MOL0     C23805   7.618   0.286  -0.422 -0.2012 -0.5451  0.1130
  181MOL0     C23806   7.483   0.243  -0.439 -0.4131  1.1355 -0.9624
  181MOL0     O23807   7.293   0.086  -0.601  0.4306  0.4510  0.3545
  181MOL0     C23808   7.033  -0.017  -0.610  0.0163 -0.2580 -0.9243
  181MOL0     C23809   6.900  -0.069  -0.601  1.1295  0.5765 -0.1094
  181MOL0     N23810   6.286  -0.422  -0.245 -0.8194 -0.5394  0.3650
  181MOL0     N23811   6.321  -0.497  -0.145 -0.2636  0.2656  0.1158
  181MOL0     C23812   7.461  -0.119   0.155  0.7739  0.2359 -0.8812
  181MOL0     C23813   7.580  -0.067   0.215  0.0036 -0.2065 -0.6689
  181MOL0     C23814   7.937   0.198   0.256  0.1740  0.4601  0.9356
  181MOL0     C23815   8.002   0.300   0.189  0.8096 -0.2071  0.7653
  181MOL0     C23816   8.120   0.361   0.245  0.2008  0.2514  0.2736
  181MOL0     C23817   8.178   0.317   0.370 -0.4941 -0.1350 -0.0484
  181MOL0     O23818   8.291   0.366   0.431 -0.0334  0.2374  0.6564
  181MOL0     C23819   8.351   0.475   0.360  0.2882  0.0986 -0.1139
  181MOL0     C23820   8.459   0.547   0.442  0.0687  0.1289  0.0703
  181MOL0     C23821   8.597   0.482   0.416  0.3469 -0.0099  0.6565
  181MOL0     C23822   8.711   0.586   0.462 -0.1245 -0.3697 -0.6480
  181MOL0     C23823   8.826   0.496   0.458 -0.6489  0.1354 -0.2901
  181MOL0     C23824   8.913   0.416   0.463  0.1631 -0.4270  1.0421
  181MOL0     C23825   8.110   0.211   0.433  0.0568 -0.0685 -0.1083
  181MOL0     C23826   8.002   0.147   0.373  0.1083 -0.6473  0.0222
  181MOL0     H23827   7.816  -0.135  -0.026 -1.0985 -2.3329 -0.4939
  181MOL0     H23828   7.613  -0.246  -0.123 -3.8977 -3.4141  0.9004
  181MOL0     H23829   7.204  -0.169   0.029 -1.6879 -1.2348  2.7399
  181MOL0     H23830   7.281  -0.302   0.119  0.7547  0.9502 -0.1719
  181MOL0     H23831   7.219  -0.457  -0.041  3.0525  0.6592  4.3862
  181MOL0     H23832   7.178  -0.343  -0.161  1.6343 -0.0500  0.1938
  181MOL0     H23833   6.997  -0.248  -0.015  1.7317 -0.6174  0.1076
  181MOL0     H23834   7.031  -0.380   0.103  1.0978 -0.5361 -0.2711
  181MOL0     H23835   6.894  -0.386  -0.164  1.6935  1.4667 -0.1972
  181MOL0     H23836   6.982  -0.532  -0.107 -2.2219 -1.3319  1.9194
  181MOL0     H23837   6.776  -0.385   0.051 -1.9151 -0.0573 -0.4752
  181MOL0     H23838   6.840  -0.538   0.094  0.6225  0.4882 -0.2679
  181MOL0     H23839   6.755  -0.635  -0.116  0.6038  1.8454 -1.1737
  181MOL0     H23840   6.675  -0.500  -0.182 -3.6172 -0.9715  1.0217
  181MOL0     H23841   6.519  -0.661  -0.055  1.5770 -0.7374 -1.4121
  181MOL0     H23842   6.631  -0.657   0.062 -0.0619 -0.3220 -0.5315
  181MOL0     H23843   6.545  -0.390   0.086 -2.1356  0.7670  1.1548
  181MOL0     H23844   6.425  -0.516   0.119  1.5536 -2.9176 -1.6596
  181MOL0     H23845   6.521  -0.238  -0.125  3.1961 -2.6463  1.5304
  181MOL0     H23846   6.297  -0.088  -0.269 -3.5721  0.9672 -2.5547
  181MOL0     H23847   6.237  -0.195  -0.391 -0.6616  0.7117  0.9349
  181MOL0     H23848   6.519  -0.094  -0.342 -0.8795  3.4055 -0.7951
  181MOL0     H23849   6.419  -0.026  -0.463 -1.4756  2.1736  1.9232
  181MOL0     H23850   6.516  -0.316  -0.483  0.4211  0.1003  0.9192
  181MOL0     H23851   6.436  -0.219  -0.611 -2.1479  0.5986  2.2224
  181MOL0     H23852   6.612  -0.074  -0.640 -4.8291 -2.0281 -1.2454
  181MOL0     H23853   6.666  -0.242  -0.632  1.6301  0.7688 -0.2590
  181MOL0     H23854   6.871  -0.095  -0.269 -0.6356  0.1654  0.5575
  181MOL0     H23855   7.066   0.043  -0.275 -4.1337  1.4263  0.4610
  181MOL0     H23856   7.469   0.011  -0.193  0.4443 -1.5111 -1.5539
  181MOL0     H23857   7.713   0.080  -0.172  0.5651  2.2859  1.3730
  181MOL0     H23858   7.909   0.109  -0.212  2.6676 -0.3822  0.9675
  181MOL0     H23859   7.909   0.280  -0.155 -0.7987  0.1675 -0.2509
  181MOL0     H23860   8.127   0.227  -0.234  1.4269  1.2677 -1.6153
  181MOL0     H23861   8.067   0.324  -0.365  2.1890 -0.7035 -0.7818
  181MOL0     H23862   8.011   0.137  -0.496  1.6884 -1.1567 -1.6325
  181MOL0     H23863   8.044   0.023  -0.350  2.5367 -1.3974 -0.4885
  181MOL0     H23864   8.259   0.186  -0.492  0.7915  0.3582  2.4177
  181MOL0     H23865   8.272   0.083  -0.348  0.9081  2.6342  0.7705
  181MOL0     H23866   8.166  -0.013  -0.627 -0.4984 -1.0287 -0.3742
  181MOL0     H23867   8.175  -0.109  -0.484 -3.1258  1.3958  0.6340
  181MOL0     H23868   8.366  -0.178  -0.576  2.1462  1.2031  0.9553
  181MOL0     H23869   8.437  -0.063  -0.474  0.4380 -1.3793  0.4377
  181MOL0     H23870   8.438  -0.030  -0.783  2.3586  0.4501 -1.7057
  181MOL0     H23871   8.360   0.098  -0.697 -0.1670 -1.8466 -0.9576
  181MOL0     H23872   8.631   0.099  -0.750  3.9777 -3.9584  0.8786
  181MOL0     H23873   8.631   0.005  -0.606 -0.1771 -0.5694 -0.6296
  181MOL0     H23874   7.657   0.341  -0.507 -1.7608 -1.8529 -1.5140
  181MOL0     H23875   7.416   0.287  -0.511  0.6855 -2.9179 -4.9592
  181MOL0     H23876   7.078   0.007  -0.706  1.3228 -1.6371 -0.6983
  181MOL0     H23877   6.854  -0.090  -0.697  2.5771 -0.8257 -0.5410
  181MOL0     H23878   7.364  -0.106   0.203  1.3225 -1.3136  0.7432
  181MOL0     H23879   7.578  -0.018   0.312 -0.4773 -0.5227 -0.5123
  181MOL0     H23880   7.968   0.337   0.093  1.0125 -3.2552 -0.5821
  181MOL0     H23881   8.169   0.440   0.189  3.3895  0.0716  2.5301
  181MOL0     H23882   8.271   0.546   0.339 -0.1440 -0.7212 -1.2778
  181MOL0     H23883   8.386   0.441   0.262 -1.6057  0.2655 -0.8823
  181MOL0     H23884   8.456   0.652   0.411 -0.9305  0.4250  1.1033
  181MOL0     H23885   8.425   0.551   0.546 -1.8526 -1.0676 -0.4628
  181MOL0     H23886   8.600   0.470   0.307 -1.1251 -2.4063  0.8221
  181MOL0     H23887   8.602   0.390   0.473  1.4479  0.0610  0.6951
  181MOL0     H23888   8.720   0.669   0.391 -0.6304 -0.4230 -0.7725
  181MOL0     H23889   8.678   0.618   0.561 -1.9969  0.0345 -1.3654
  181MOL0     H23890   8.993   0.346   0.476 -0.9816 -1.6137  1.9111
  181MOL0     H23891   8.145   0.188   0.533  0.3301  0.9252  0.0398
  181MOL0     H23892   7.965   0.053   0.414 -0.8035 -0.8551 -1.2052
  182MOL0     O23893   7.762   7.996   6.680  0.3010  0.9847  0.0976
  182MOL0     C23894   7.853   8.053   6.608  0.2274 -0.2056  0.6646
  182MOL0     O23895   7.856   8.180   6.570  0.5219  0.0018  0.2754
  182MOL0     C23896   7.765   8.269   6.623 -0.3332  0.6922 -0.3077
  182MOL0     C23897   7.711   8.270   6.754 -0.3311 -0.2365 -0.5300
  182MOL0     C23898   7.611   8.366   6.780 -0.0359 -0.0841  0.2138
  182MOL0     C23899   7.564   8.457   6.684  0.6542 -0.6511  0.9253
  182MOL0     O23900   7.459   8.545   6.696 -0.3008  0.1669  0.3510
  182MOL0     C23901   7.396   8.574   6.822 -0.3502 -0.0076 -0.0628
  182MOL0     C23902   7.295   8.458   6.845  0.2312  0.2128  0.3917
  182MOL0     C23903   7.225   8.455   6.983  0.2749  0.1625  0.2604
  182MOL0     C23904   7.134   8.575   6.993 -0.1593  0.7196 -0.2085
  182MOL0     C23905   7.050   8.551   7.117 -0.0481  0.1982 -0.9112
  182MOL0     C23906   6.945   8.671   7.117  0.0971 -0.2265  0.8201
  182MOL0     C23907   6.831   8.659   7.219 -0.0194 -0.0318 -0.1474
  182MOL0     C23908   6.879   8.662   7.364  0.4366 -1.0651 -0.3264
  182MOL0     N23909   6.881   8.801   7.418 -0.5024 -0.9478 -0.0406
  182MOL0     C23910   6.989   8.887   7.426  0.0897  0.2363 -0.0792
  182MOL0     C23911   6.944   9.002   7.479  0.1470  0.2456  0.1240
  182MOL0     C23912   7.034   9.124   7.490  0.8170  1.0514  0.5232
  182MOL0     C23913   6.961   9.245   7.429 -0.0273  0.3712 -1.1280
  182MOL0     C23914   6.875   9.306   7.538 -0.3836  0.4703 -0.5127
  182MOL0     C23915   6.754   9.378   7.484  0.0867  0.0609  0.7026
  182MOL0     O23916   6.803   9.503   7.433  0.1910  0.0488 -0.0524
  182MOL0     C23917   6.727   9.565   7.335 -0.9969  0.1233 -0.3849
  182MOL0     C23918   6.788   9.672   7.266  0.3246  1.1917  0.1683
  182MOL0     C23919   6.715   9.764   7.177  0.3277  0.0436  0.0538
  182MOL0     C23920   6.578   9.749   7.171  0.4545  0.1513 -0.4292
  182MOL0     C23921   6.497   9.839   7.082 -0.3727  0.4733  0.1963
  182MOL0     O23922   6.363   9.834   7.103  0.1835 -0.0236  0.0631
  182MOL0     C23923   6.267   9.875   7.012  0.8496 -0.3966  0.8329
  182MOL0     C23924   6.151   9.962   7.033  0.9133  0.5818 -0.5159
  182MOL0     C23925   6.057   9.981   6.935 -0.7546  0.3658 -0.9318
  182MOL0     C23926   6.069   9.934   6.801 -0.4637  0.4190 -0.2856
  182MOL0     O23927   5.981   9.963   6.705 -0.5842 -0.2951 -0.2990
  182MOL0     C23928   5.857   9.909   6.723  0.3452  0.0481 -0.5778
  182MOL0     C23929   5.766  10.033   6.732 -0.6693  0.1183  0.0700
  182MOL0     C23930   5.625   9.984   6.754 -0.0598  0.7003  0.7119
  182MOL0     C23931   5.539  10.111   6.739 -0.4452  0.2953  0.3617
  182MOL0     C23932   5.407  10.078   6.780 -0.9407 -1.1300  0.0195
  182MOL0     C23933   5.306  10.178   6.738  0.6415 -0.1585 -0.5014
  182MOL0     C23934   5.172  10.143   6.812  0.0878 -0.0627  0.3856
  182MOL0     C23935   5.052  10.224   6.771 -0.3176  0.1654  0.0600
  182MOL0    Cl23936   4.911  10.151   6.855  0.3830 -0.0834 -0.0064
  182MOL0     C23937   6.182   9.861   6.779  0.3384 -0.4985  1.0683
  182MOL0     C23938   6.276   9.834   6.881  0.7817 -0.0311  0.7642
  182MOL0     O23939   6.554   9.900   6.990 -0.0623 -0.2068  0.2238
  182MOL0     C23940   6.513   9.651   7.252  0.7781  0.0705  0.8207
  182MOL0     C23941   6.590   9.561   7.331 -0.0461  0.7057 -0.5169
  182MOL0     N23942   6.810   8.986   7.516 -0.5354 -0.6411 -0.3146
  182MOL0     N23943   6.777   8.865   7.478  0.2746 -0.4613 -0.4391
  182MOL0     C23944   7.620   8.448   6.553  0.6780 -0.1825 -0.8239
  182MOL0     C23945   7.718   8.357   6.528 -0.0714 -0.6395  0.1194
  182MOL0     C23946   7.958   7.967   6.555 -0.1215 -0.1165  0.6332
  182MOL0     C23947   7.940   7.830   6.534 -0.6339  0.3921 -0.8683
  182MOL0     C23948   8.043   7.745   6.495  0.3499  0.8943 -0.5006
  182MOL0     C23949   8.172   7.800   6.470  1.0169 -0.0316  0.0245
  182MOL0     O23950   8.287   7.735   6.446 -0.1971 -0.0354  0.7542
  182MOL0     C23951   8.295   7.593   6.472  0.2654 -0.2607 -1.1785
  182MOL0     C23952   8.296   7.568   6.624 -0.3705 -0.5969 -0.4226
  182MOL0     C23953   8.307   7.422   6.648  0.8739  0.4635  0.0786
  182MOL0     C23954   8.170   7.346   6.649 -0.3089  0.2250 -1.4451
  182MOL0     C23955   8.067   7.384   6.750  0.0944  0.4404 -0.0699
  182MOL0     C23956   7.987   7.405   6.835 -0.8313 -0.6560 -0.8829
  182MOL0     C23957   8.190   7.936   6.475  0.3527  0.0304 -1.1918
  182MOL0     C23958   8.083   8.020   6.515  0.2802 -0.4140  0.4183
  182MOL0     H23959   7.741   8.196   6.827 -0.7737 -0.0590 -0.1670
  182MOL0     H23960   7.569   8.360   6.880 -0.3288 -0.8389  0.0535
  182MOL0     H23961   7.342   8.668   6.806 -1.5751 -0.7530 -0.5071
  182MOL0     H23962   7.474   8.579   6.898  1.2606  1.1682 -1.7284
  182MOL0     H23963   7.351   8.365   6.833  0.9737  0.7471 -0.3818
  182MOL0     H23964   7.216   8.464   6.770 -1.7236  0.1210  2.3159
  182MOL0     H23965   7.303   8.455   7.060 -0.5779 -2.2802  1.2447
  182MOL0     H23966   7.168   8.361   6.987  2.0586 -1.0242 -0.7275
  182MOL0     H23967   7.187   8.669   7.011 -3.2090  2.2189  1.7506
  182MOL0     H23968   7.077   8.584   6.900  2.0414  0.8806 -1.6388
  182MOL0     H23969   7.114   8.549   7.206 -2.5998  1.6224  1.0929
  182MOL0     H23970   6.995   8.457   7.117 -1.7869  1.1604  0.3698
  182MOL0     H23971   6.914   8.683   7.012 -0.1016 -1.7474  0.6817
  182MOL0     H23972   7.003   8.762   7.136 -1.5019  0.6515  1.7523
  182MOL0     H23973   6.760   8.741   7.203  0.7728  1.2570  2.3594
  182MOL0     H23974   6.776   8.566   7.203 -1.9355  0.4032  3.0374
  182MOL0     H23975   6.979   8.618   7.361  0.1702 -1.6160 -1.7080
  182MOL0     H23976   6.822   8.587   7.419  1.9898 -2.3034 -0.3562
  182MOL0     H23977   7.089   8.877   7.385  0.9585  4.9338  0.3104
  182MOL0     H23978   7.133   9.111   7.446 -0.2382  2.4459 -2.4992
  182MOL0     H23979   7.039   9.139   7.599 -0.1903 -1.3370  0.9629
  182MOL0     H23980   6.895   9.216   7.346  0.3508 -2.6645 -0.4810
  182MOL0     H23981   7.030   9.326   7.403  0.0834  0.8614  0.5812
  182MOL0     H23982   6.860   9.227   7.611  2.0117 -2.1546 -2.6167
  182MOL0     H23983   6.943   9.373   7.592 -0.2870  1.4051 -1.7406
  182MOL0     H23984   6.677   9.381   7.561 -3.5796 -2.9917 -2.4058
  182MOL0     H23985   6.718   9.313   7.403  2.2369 -0.0751 -0.2121
  182MOL0     H23986   6.896   9.676   7.262  0.3239  0.2372 -2.4642
  182MOL0     H23987   6.768   9.840   7.121 -0.6770  1.3925  0.8620
  182MOL0     H23988   6.133  10.005   7.131  2.1659 -1.0985  0.5010
  182MOL0     H23989   5.976  10.041   6.975  0.0352 -2.2064  5.9171
  182MOL0     H23990   5.851   9.864   6.823  0.1858  3.8863  1.3187
  182MOL0     H23991   5.837   9.829   6.652 -0.3063 -1.7546  1.5272
  182MOL0     H23992   5.770  10.098   6.645 -1.3360  0.0999  0.0207
  182MOL0     H23993   5.800  10.094   6.816  4.2438 -0.2388 -1.3504
  182MOL0     H23994   5.614   9.924   6.845 -3.1069 -2.2176 -1.3342
  182MOL0     H23995   5.600   9.911   6.677  0.6407  0.3505  0.8065
  182MOL0     H23996   5.580  10.192   6.799  2.7917  1.0961 -2.6255
  182MOL0     H23997   5.538  10.149   6.637 -1.5471 -0.1619  0.1876
  182MOL0     H23998   5.420  10.078   6.889 -2.0464  1.0780  0.2068
  182MOL0     H23999   5.376   9.979   6.745  1.2952 -1.6224 -0.7776
  182MOL0     H24000   5.287  10.178   6.630  1.2416  1.1033 -0.6277
  182MOL0     H24001   5.335  10.281   6.760  0.4600 -0.4880  1.4451
  182MOL0     H24002   5.152  10.036   6.803  1.5578 -0.7890  3.9495
  182MOL0     H24003   5.191  10.159   6.919 -0.6860 -0.8008  0.6410
  182MOL0     H24004   5.036  10.237   6.663 -0.6859 -0.8210 -0.0151
  182MOL0     H24005   5.065  10.328   6.803  1.8935  0.7092 -2.2659
  182MOL0     H24006   6.197   9.821   6.679 -2.9634 -2.4502  1.2017
  182MOL0     H24007   6.360   9.773   6.849  0.6829 -0.6373  1.6106
  182MOL0     H24008   6.405   9.655   7.261  0.2367 -1.5335 -3.0018
  182MOL0     H24009   6.555   9.487   7.402 -0.2059 -0.4652 -1.7708
  182MOL0     H24010   7.590   8.510   6.469  3.9734  2.0009 -0.5589
  182MOL0     H24011   7.754   8.345   6.426 -0.1287 -1.1910  0.1600
  182MOL0     H24012   7.837   7.795   6.534 -0.7140  0.3180  2.4138
  182MOL0     H24013   8.020   7.639   6.489  2.1830  0.4909 -0.8675
  182MOL0     H24014   8.386   7.551   6.429  2.3132  1.6610  0.9552
  182MOL0     H24015   8.210   7.544   6.426 -1.7972  0.8610  1.1808
  182MOL0     H24016   8.390   7.607   6.665 -0.5940 -0.6896  0.1789
  182MOL0     H24017   8.211   7.610   6.678  0.5800 -2.3587  2.7114
  182MOL0     H24018   8.349   7.417   6.749 -1.3287 -1.9796  0.9644
  182MOL0     H24019   8.382   7.378   6.581 -1.0624 -2.3598 -0.3992
  182MOL0     H24020   8.127   7.353   6.548  0.5523 -0.2487 -1.8610
  182MOL0     H24021   8.193   7.246   6.688  0.1776  0.2406 -1.6794
  182MOL0     H24022   7.904   7.412   6.902  0.1905 -2.3944  0.6328
  182MOL0     H24023   8.286   7.982   6.452  1.7440 -2.1239 -0.0673
  182MOL0     H24024   8.090   8.128   6.510 -0.0673 -0.3860  0.4953
  183MOL0     O24025  11.234   3.973   3.907 -0.5351  0.2101 -0.5117
  183MOL0     C24026  11.300   4.007   3.814 -0.2030 -0.5314 -0.2007
  183MOL0     O24027  11.247   4.051   3.704  0.3240  0.0536 -0.8310
  183MOL0     C24028  11.109   4.044   3.692 -0.3636  0.2803 -0.0150
  183MOL0     C24029  11.030   4.157   3.717 -0.4082  0.8081 -0.0591
  183MOL0     C24030  10.893   4.155   3.699 -0.0906  0.4207 -0.4762
  183MOL0     C24031  10.822   4.045   3.641  0.8718 -0.1517 -0.1227
  183MOL0     O24032  10.691   4.052   3.641  0.4142 -0.3185 -0.2707
  183MOL0     C24033  10.622   3.947   3.717 -0.3331 -1.3514 -0.9965
  183MOL0     C24034  10.478   3.956   3.675  0.2445  0.3484  0.2652
  183MOL0     C24035  10.401   3.832   3.716  0.1785  0.7331  1.1640
  183MOL0     C24036  10.413   3.792   3.859 -0.5429 -0.2071  0.5522
  183MOL0     C24037  10.304   3.701   3.904  0.1378 -0.3006 -0.2088
  183MOL0     C24038  10.163   3.756   3.893  0.4771 -0.0569  0.0380
  183MOL0     C24039  10.063   3.646   3.923  0.7667  0.1372 -0.6968
  183MOL0     C24040   9.942   3.658   3.829  0.6432 -0.6909 -0.6900
  183MOL0     N24041   9.862   3.774   3.863  0.0399  0.0556  0.5275
  183MOL0     C24042   9.818   3.803   3.987 -0.4726 -0.2864  0.1580
  183MOL0     C24043   9.746   3.914   3.977 -0.5298 -0.0015  0.0318
  183MOL0     C24044   9.682   3.984   4.085  0.7099 -0.0510  0.0403
  183MOL0     C24045   9.531   3.981   4.043 -0.6954 -0.2800  0.0253
  183MOL0     C24046   9.441   4.033   4.164 -0.0049  0.0107  0.3241
  183MOL0     C24047   9.291   4.075   4.149 -0.3735 -0.1072 -0.0061
  183MOL0     O24048   9.205   3.961   4.183 -0.7719  0.3705  0.0186
  183MOL0     C24049   9.080   3.977   4.127 -0.2596  0.3922  0.3200
  183MOL0     C24050   9.028   4.106   4.096 -0.0576  0.9680 -0.5774
  183MOL0     C24051   8.902   4.133   4.049 -0.8966  0.3378 -0.3779
  183MOL0     C24052   8.817   4.027   4.016  0.6852 -0.3516 -0.6065
  183MOL0     C24053   8.687   4.043   3.952  0.0438 -0.2532  0.2498
  183MOL0     O24054   8.597   3.943   3.955  0.1921 -0.4932 -0.4330
  183MOL0     C24055   8.458   3.970   3.943  0.0118 -0.4153 -0.1475
  183MOL0     C24056   8.400   4.086   3.969  0.5805 -1.4088 -0.6693
  183MOL0     C24057   8.260   4.113   3.959 -0.0227  0.1244 -0.2149
  183MOL0     C24058   8.184   4.004   3.917 -0.1247 -0.0208  0.0570
  183MOL0     O24059   8.045   4.001   3.893 -1.1663 -0.4499 -0.2621
  183MOL0     C24060   7.968   4.088   3.979  0.1682  0.7231  0.0736
  183MOL0     C24061   7.864   4.167   3.901 -0.7274  0.3708  0.0425
  183MOL0     C24062   7.773   4.082   3.807 -0.2574 -0.4321 -0.8649
  183MOL0     C24063   7.669   4.004   3.893 -0.6228 -0.6318 -0.3177
  183MOL0     C24064   7.583   3.899   3.814  0.1696  0.0594  0.1563
  183MOL0     C24065   7.483   3.830   3.908  0.4125 -0.7725 -1.0450
  183MOL0     C24066   7.413   3.720   3.819 -0.2257  0.0144  0.2894
  183MOL0     C24067   7.331   3.769   3.708  0.2149  0.0289  0.2466
  183MOL0    Cl24068   7.206   3.653   3.664 -0.1706  0.5338 -0.1480
  183MOL0     C24069   8.248   3.876   3.885  0.3471 -0.3303  0.4198
  183MOL0     C24070   8.384   3.860   3.894 -0.7952  0.2043  1.0951
  183MOL0     O24071   8.671   4.152   3.901  0.1107 -0.4370 -0.4067
  183MOL0     C24072   8.871   3.896   4.049 -0.2287 -0.6011  0.1224
  183MOL0     C24073   9.004   3.870   4.094 -0.4727 -0.2932  0.4647
  183MOL0     N24074   9.753   3.958   3.848  0.8721 -0.0669 -0.7190
  183MOL0     N24075   9.817   3.871   3.784  0.2113 -0.5040 -0.0127
  183MOL0     C24076  10.912   3.941   3.599  0.3218  0.6007  0.3391
  183MOL0     C24077  11.048   3.936   3.634  0.5178  0.4184 -0.5114
  183MOL0     C24078  11.441   4.015   3.833  0.1573  0.2323 -0.1304
  183MOL0     C24079  11.523   4.024   3.725  0.7634 -0.6125 -0.3558
  183MOL0     C24080  11.665   4.013   3.731  0.5664 -0.7840 -0.0263
  183MOL0     C24081  11.715   4.001   3.858 -0.9600 -0.2005 -0.8241
  183MOL0     O24082  11.858   3.993   3.878 -0.3872 -0.7251 -0.0468
  183MOL0     C24083  11.951   4.073   3.804 -0.2734 -0.2895  0.7895
  183MOL0     C24084  12.035   3.962   3.736  0.0043 -0.7535  0.1348
  183MOL0     C24085  12.174   4.019   3.685 -0.1883 -0.2656  0.9071
  183MOL0     C24086  12.275   3.899   3.666  0.5008  0.0018 -0.3306
  183MOL0     C24087  12.394   3.952   3.614 -0.1792 -0.6380  0.6997
  183MOL0     C24088  12.498   4.011   3.578  0.2980 -0.4413  0.3196
  183MOL0     C24089  11.633   3.979   3.971  0.2077 -0.1651 -0.4185
  183MOL0     C24090  11.494   3.998   3.953 -0.3842  0.1835 -0.2075
  183MOL0     H24091  11.074   4.240   3.771  0.5257 -1.6769  3.3998
  183MOL0     H24092  10.832   4.235   3.741  0.5958 -0.3788  2.2938
  183MOL0     H24093  10.626   3.973   3.824  0.8815 -0.0529 -1.3254
  183MOL0     H24094  10.673   3.851   3.711 -0.3445 -1.7230  2.7018
  183MOL0     H24095  10.460   3.977   3.569 -0.0010 -2.9032 -0.4147
  183MOL0     H24096  10.434   4.040   3.730 -1.3971 -0.1153 -0.2912
  183MOL0     H24097  10.434   3.748   3.655 -1.9403  0.3944  0.4193
  183MOL0     H24098  10.297   3.842   3.685  0.0263 -0.9449  1.0289
  183MOL0     H24099  10.506   3.740   3.880 -1.0398 -1.4862 -0.2995
  183MOL0     H24100  10.416   3.878   3.927 -0.8754  0.2686 -0.0216
  183MOL0     H24101  10.326   3.658   4.002  2.6777 -2.2215 -1.5016
  183MOL0     H24102  10.324   3.622   3.831  0.4906  1.8053 -2.5194
  183MOL0     H24103  10.142   3.781   3.789 -0.9929  0.1607  0.3613
  183MOL0     H24104  10.146   3.845   3.955  1.2241 -1.0744  1.7963
  183MOL0     H24105  10.107   3.546   3.914  1.9478  0.6383 -0.6618
  183MOL0     H24106  10.035   3.656   4.028  1.4691  1.2378 -0.6025
  183MOL0     H24107   9.876   3.574   3.852 -1.9676  1.3876 -0.0371
  183MOL0     H24108   9.977   3.645   3.726  0.2156 -1.3434 -0.7593
  183MOL0     H24109   9.839   3.733   4.067  1.4506  0.4044  0.3182
  183MOL0     H24110   9.717   4.084   4.109  1.6716 -0.7681  1.7216
  183MOL0     H24111   9.694   3.924   4.175  1.4764 -0.7959 -0.5456
  183MOL0     H24112   9.501   3.881   4.011 -0.1354 -1.0188  1.7405
  183MOL0     H24113   9.520   4.051   3.959  0.2001  0.1205  0.2388
  183MOL0     H24114   9.449   3.966   4.250  1.3818 -0.2083  0.0491
  183MOL0     H24115   9.488   4.126   4.197 -0.0710 -0.0811  0.6823
  183MOL0     H24116   9.290   4.100   4.042  1.7641 -2.6086 -0.7090
  183MOL0     H24117   9.271   4.161   4.214  0.3255 -1.0059  1.4243
  183MOL0     H24118   9.086   4.194   4.120 -1.6351  2.4996 -2.1281
  183MOL0     H24119   8.872   4.236   4.031 -0.7332  0.6664  1.1187
  183MOL0     H24120   8.458   4.160   4.022  3.6736 -3.6401 -0.6160
  183MOL0     H24121   8.229   4.214   3.983 -0.1481 -0.2589  1.3011
  183MOL0     H24122   8.018   4.156   4.049  0.9305  1.6934 -1.3562
  183MOL0     H24123   7.917   4.011   4.038  2.6553  0.6066  2.2708
  183MOL0     H24124   7.923   4.239   3.843  2.5954 -0.5820  2.0051
  183MOL0     H24125   7.801   4.218   3.974 -3.2067 -1.3807 -0.7523
  183MOL0     H24126   7.841   4.020   3.748  2.2480  2.1556 -0.9295
  183MOL0     H24127   7.716   4.152   3.745 -1.1215  1.5090  1.9195
  183MOL0     H24128   7.734   3.953   3.964  2.1083  2.5668 -0.2771
  183MOL0     H24129   7.605   4.074   3.948 -0.4740 -0.3143 -0.5419
  183MOL0     H24130   7.647   3.835   3.752 -0.8465 -1.6765  0.8335
  183MOL0     H24131   7.534   3.962   3.740 -0.5120 -0.6509 -0.0118
  183MOL0     H24132   7.410   3.895   3.957  0.2427 -0.8801 -1.1565
  183MOL0     H24133   7.535   3.790   3.995  0.7258  0.0788 -0.8272
  183MOL0     H24134   7.491   3.656   3.776  0.4643 -1.0801  2.9363
  183MOL0     H24135   7.351   3.665   3.891  0.5832 -2.4874 -0.8176
  183MOL0     H24136   7.395   3.791   3.622 -1.7409  0.6985 -1.1362
  183MOL0     H24137   7.287   3.865   3.736  3.9510  1.6789  1.0207
  183MOL0     H24138   8.185   3.794   3.850  1.0520 -0.7715  0.1714
  183MOL0     H24139   8.435   3.767   3.871  0.1146  1.1060 -0.7222
  183MOL0     H24140   8.799   3.815   4.043  0.1221 -0.9730  0.8227
  183MOL0     H24141   9.040   3.771   4.123 -0.5189 -0.4119  0.1200
  183MOL0     H24142  10.868   3.857   3.547  1.2008  1.4159 -1.8474
  183MOL0     H24143  11.123   3.858   3.626  0.1088 -0.2002  1.3334
  183MOL0     H24144  11.489   4.044   3.624 -0.6362 -2.3517 -0.2732
  183MOL0     H24145  11.728   4.013   3.643 -0.7415 -1.0165 -0.9969
  183MOL0     H24146  12.017   4.115   3.880  0.2481 -0.7313  0.5907
  183MOL0     H24147  11.915   4.152   3.738  2.3740 -0.8714 -1.5507
  183MOL0     H24148  12.064   3.889   3.812 -2.2609  0.1505  1.9561
  183MOL0     H24149  11.978   3.905   3.662  0.2657 -2.1038  0.9429
  183MOL0     H24150  12.207   4.091   3.761 -2.0535 -2.3360  3.9310
  183MOL0     H24151  12.155   4.074   3.593  2.1197  1.1092  1.1847
  183MOL0     H24152  12.298   3.843   3.758  3.0810  0.0073 -0.9067
  183MOL0     H24153  12.252   3.828   3.586  1.2712 -1.6326  0.8224
  183MOL0     H24154  12.588   4.061   3.548  0.2947  1.0300  2.4828
  183MOL0     H24155  11.678   3.963   4.069 -1.0834  0.1650  0.2605
  183MOL0     H24156  11.429   4.005   4.040  0.3087 -0.5575  0.3839
  184MOL0     O24157   6.828   9.123   0.978  0.1206 -0.3767  0.4406
  184MOL0     C24158   6.851   9.060   1.084 -0.7474 -0.1519 -0.3563
  184MOL0     O24159   6.768   8.995   1.164  0.1856 -0.1023 -0.9211
  184MOL0     C24160   6.638   9.010   1.123  0.1546  0.0977 -0.1605
  184MOL0     C24161   6.569   8.958   1.007 -0.1093 -0.1865  0.5596
  184MOL0     C24162   6.439   9.008   0.963  0.1885  1.2151 -0.5024
  184MOL0     C24163   6.369   9.091   1.046  0.2928 -0.1381  0.0090
  184MOL0     O24164   6.251   9.151   1.022  0.1675 -0.0996  0.1641
  184MOL0     C24165   6.180   9.102   0.904 -0.6522 -0.1085  0.1087
  184MOL0     C24166   6.040   9.162   0.902  0.1372  1.0494 -0.0625
  184MOL0     C24167   5.957   9.082   0.814 -0.7308  0.7727  1.1439
  184MOL0     C24168   5.818   9.120   0.816  0.5028 -0.1104  1.0537
  184MOL0     C24169   5.745   9.053   0.702  0.2893  0.1491 -0.3289
  184MOL0     C24170   5.602   9.119   0.685  0.0201 -0.1737 -0.0501
  184MOL0     C24171   5.486   9.047   0.758  0.7105 -0.6200  0.7139
  184MOL0     C24172   5.464   9.089   0.910 -0.0475  0.0173  0.3393
  184MOL0     N24173   5.316   9.090   0.937 -1.0620 -0.4400  0.8258
  184MOL0     C24174   5.249   9.044   1.049 -0.1510 -0.0235 -0.4497
  184MOL0     C24175   5.129   9.105   1.050  0.2135 -0.6696 -0.7759
  184MOL0     C24176   5.027   9.107   1.162  0.1084 -0.5669  0.2150
  184MOL0     C24177   4.899   9.198   1.145 -0.5738 -0.1587  0.5407
  184MOL0     C24178   4.813   9.193   1.270  0.1149 -0.6706  0.3141
  184MOL0     C24179   4.701   9.301   1.268 -0.1854  0.5258  0.2192
  184MOL0     O24180   4.599   9.251   1.358  0.1771 -0.1192 -0.5422
  184MOL0     C24181   4.489   9.333   1.384  0.3456 -0.3328  0.0691
  184MOL0     C24182   4.385   9.277   1.456  0.3174 -0.5259 -1.0383
  184MOL0     C24183   4.262   9.341   1.483  0.2910  0.1220 -0.1857
  184MOL0     C24184   4.245   9.474   1.448 -0.1423 -0.0151 -0.3735
  184MOL0     C24185   4.125   9.550   1.474  0.4944  1.3895 -0.6769
  184MOL0     O24186   4.014   9.478   1.500 -0.1523 -0.0753 -0.2127
  184MOL0     C24187   3.914   9.547   1.558  0.5606  0.3844 -0.5255
  184MOL0     C24188   3.802   9.592   1.486 -0.4306 -0.6682 -0.2118
  184MOL0     C24189   3.688   9.638   1.552  0.1858  0.4331 -0.2845
  184MOL0     C24190   3.674   9.633   1.689 -0.1638  0.5221 -0.0657
  184MOL0     O24191   3.551   9.668   1.742  0.7547  0.0896  0.1266
  184MOL0     C24192   3.531   9.690   1.881 -0.9575 -0.1353  0.6679
  184MOL0     C24193   3.381   9.732   1.928 -0.6508  0.2122  0.0867
  184MOL0     C24194   3.361   9.869   1.859  0.2623 -0.1923 -0.0102
  184MOL0     C24195   3.223   9.921   1.887  0.8698  0.4698  0.3039
  184MOL0     C24196   3.113   9.830   1.822 -0.0069  0.6182  0.5018
  184MOL0     C24197   2.976   9.894   1.845 -0.0578  0.3154 -0.5361
  184MOL0     C24198   2.954  10.001   1.724 -0.1839 -0.8137 -0.0143
  184MOL0     C24199   2.803  10.026   1.720  0.6458 -0.6605 -0.7195
  184MOL0    Cl24200   2.772  10.172   1.611  0.3130  0.3848 -0.0463
  184MOL0     C24201   3.790   9.597   1.761  0.2568  0.1280  0.2697
  184MOL0     C24202   3.915   9.560   1.696 -0.3287  0.0387 -0.5428
  184MOL0     O24203   4.132   9.670   1.471 -0.8174  0.1790 -1.1733
  184MOL0     C24204   4.344   9.527   1.370 -0.0340 -0.4189  0.4161
  184MOL0     C24205   4.464   9.460   1.335 -0.5466 -0.4834  1.1213
  184MOL0     N24206   5.126   9.160   0.922  0.2074 -1.3508 -0.2036
  184MOL0     N24207   5.232   9.159   0.856 -0.2161  0.6431 -0.4089
  184MOL0     C24208   6.427   9.127   1.163 -0.3230 -0.0512  1.1124
  184MOL0     C24209   6.552   9.083   1.203  0.2070 -0.2718  0.4869
  184MOL0     C24210   6.995   9.037   1.122 -0.0269 -0.1723  0.5786
  184MOL0     C24211   7.097   9.071   1.030  0.0519  0.2826 -0.8312
  184MOL0     C24212   7.226   9.035   1.065  0.5698  0.2612  0.4001
  184MOL0     C24213   7.274   8.985   1.185  1.0083 -0.1142 -0.5865
  184MOL0     O24214   7.412   8.967   1.202  0.9247  0.8962  0.2013
  184MOL0     C24215   7.450   8.925   1.337 -0.0350 -0.6652  0.3783
  184MOL0     C24216   7.594   8.958   1.364 -0.5607 -0.2562  0.1490
  184MOL0     C24217   7.693   8.863   1.294 -1.0332 -0.3548 -0.1561
  184MOL0     C24218   7.747   8.898   1.156  0.4079  1.3209  0.5821
  184MOL0     C24219   7.807   9.023   1.146 -0.7491 -0.0424 -0.3893
  184MOL0     C24220   7.854   9.130   1.114 -0.3530 -0.3788 -0.7657
  184MOL0     C24221   7.168   8.964   1.276 -0.0046  0.5584 -0.3372
  184MOL0     C24222   7.037   8.981   1.247 -0.4219 -0.8792  0.3988
  184MOL0     H24223   6.614   8.905   0.924  0.2152  2.2949 -0.9714
  184MOL0     H24224   6.391   8.988   0.868 -0.3433  1.1304 -0.2163
  184MOL0     H24225   6.178   8.992   0.910  1.6828 -0.3261 -1.5137
  184MOL0     H24226   6.226   9.130   0.809  1.2874 -3.8014 -0.2505
  184MOL0     H24227   6.038   9.271   0.888 -1.7126  0.7972 -2.4864
  184MOL0     H24228   6.003   9.148   1.004 -2.0165 -2.2042 -1.1389
  184MOL0     H24229   5.954   8.976   0.840  1.4740 -0.1429 -1.7211
  184MOL0     H24230   5.999   9.086   0.713  1.3931 -0.2708  1.9032
  184MOL0     H24231   5.765   9.105   0.911  0.5198 -0.7686  0.9631
  184MOL0     H24232   5.812   9.229   0.808  0.1585 -0.2897 -3.0739
  184MOL0     H24233   5.730   8.946   0.720  0.6723  0.0729 -0.4602
  184MOL0     H24234   5.814   9.068   0.619  1.4251  1.4121  0.7928
  184MOL0     H24235   5.585   9.133   0.578 -0.7912 -0.1654  0.0790
  184MOL0     H24236   5.608   9.220   0.727  2.7043  0.3159 -1.4124
  184MOL0     H24237   5.399   9.067   0.695 -2.3610  1.9258  5.2194
  184MOL0     H24238   5.507   8.940   0.764  1.0720 -0.6256 -0.5218
  184MOL0     H24239   5.517   9.177   0.949 -0.0226 -0.0456  0.4498
  184MOL0     H24240   5.523   9.024   0.976  0.4646  2.8718  2.9289
  184MOL0     H24241   5.287   8.990   1.134  1.7620  0.7833 -0.7454
  184MOL0     H24242   5.077   9.131   1.256  2.8209 -1.7418 -0.8473
  184MOL0     H24243   4.989   9.005   1.174 -3.6929  0.0411 -3.9058
  184MOL0     H24244   4.845   9.178   1.052 -0.2346  1.0291  0.0594
  184MOL0     H24245   4.937   9.301   1.139 -1.6977  0.2865  0.8404
  184MOL0     H24246   4.760   9.097   1.269  0.3125 -0.9174 -4.0162
  184MOL0     H24247   4.883   9.194   1.354  0.1670 -1.0344  0.2762
  184MOL0     H24248   4.653   9.315   1.171  1.7817 -0.8073 -1.0360
  184MOL0     H24249   4.738   9.396   1.307 -2.5422  1.6641 -0.1659
  184MOL0     H24250   4.397   9.175   1.491  0.1785  0.5723  2.6657
  184MOL0     H24251   4.190   9.291   1.548 -0.1924  1.5095  0.3793
  184MOL0     H24252   3.790   9.586   1.378  1.1227  3.5599 -0.8105
  184MOL0     H24253   3.598   9.662   1.497 -1.4344  1.6208  2.6217
  184MOL0     H24254   3.602   9.769   1.907 -0.4871 -0.3418  0.0201
  184MOL0     H24255   3.548   9.593   1.929 -4.1593 -1.3626 -0.3680
  184MOL0     H24256   3.383   9.737   2.037  2.4518  1.7711  0.0471
  184MOL0     H24257   3.315   9.652   1.892  1.7026 -1.5864 -0.5067
  184MOL0     H24258   3.382   9.863   1.752  3.9546  1.4261  0.4688
  184MOL0     H24259   3.441   9.931   1.901  1.6985 -1.6279 -0.5249
  184MOL0     H24260   3.208   9.919   1.996  0.3022 -3.3664  0.2818
  184MOL0     H24261   3.213  10.027   1.862 -1.0957  0.7438  1.9241
  184MOL0     H24262   3.120   9.734   1.874  2.7328 -0.7073 -2.0057
  184MOL0     H24263   3.120   9.807   1.715  1.5258 -1.7027  1.0155
  184MOL0     H24264   2.960   9.938   1.944 -0.4826  0.3226 -0.6079
  184MOL0     H24265   2.891   9.826   1.842  0.2259 -0.2162  1.8312
  184MOL0     H24266   3.009  10.094   1.743 -1.7300  0.3074 -0.8222
  184MOL0     H24267   2.993   9.975   1.625  0.3118 -0.8672  0.1889
  184MOL0     H24268   2.760  10.048   1.818 -1.1154 -2.2834 -1.0688
  184MOL0     H24269   2.751   9.936   1.685  2.5618 -1.4343 -1.7384
  184MOL0     H24270   3.775   9.587   1.868 -1.6191  1.0591  0.1352
  184MOL0     H24271   3.999   9.508   1.741 -0.9284 -2.8650 -2.5050
  184MOL0     H24272   4.322   9.629   1.339 -0.8873 -1.3578 -2.4512
  184MOL0     H24273   4.536   9.523   1.283  0.2038 -0.6341  1.9496
  184MOL0     H24274   6.374   9.197   1.227 -2.9755 -0.4890 -0.4434
  184MOL0     H24275   6.589   9.129   1.295 -0.5921  2.2191 -0.3571
  184MOL0     H24276   7.081   9.118   0.934 -2.6883 -0.5229 -0.8467
  184MOL0     H24277   7.303   9.057   0.992 -1.3280  1.0417 -1.5046
  184MOL0     H24278   7.439   8.818   1.356  0.3151 -0.6888  0.4577
  184MOL0     H24279   7.388   8.994   1.396 -0.0495 -0.6955  0.3972
  184MOL0     H24280   7.609   9.065   1.352  1.2834 -0.3172  1.3999
  184MOL0     H24281   7.622   8.928   1.466 -1.8604 -0.0998  0.5719
  184MOL0     H24282   7.630   8.776   1.276  0.5387 -1.4023 -0.8054
  184MOL0     H24283   7.770   8.835   1.366 -1.1368 -0.1520  0.0336
  184MOL0     H24284   7.811   8.815   1.124 -0.5585  1.0759 -0.7614
  184MOL0     H24285   7.663   8.898   1.086  0.4775  0.4739  0.4785
  184MOL0     H24286   7.921   9.211   1.092 -0.9965  0.8816  1.5292
  184MOL0     H24287   7.179   8.929   1.378 -3.7462 -0.5369 -0.1373
  184MOL0     H24288   6.957   8.963   1.318 -2.0947  0.7225 -1.0018
  185MOL0     O24289   7.991   1.176   7.712 -0.3949 -0.4059 -0.9074
  185MOL0     C24290   8.027   1.196   7.823  0.0359 -0.4479 -1.1257
  185MOL0     O24291   7.949   1.231   7.931  0.8230  0.6734  0.3346
  185MOL0     C24292   7.814   1.257   7.903  0.0651 -0.3595 -0.6010
  185MOL0     C24293   7.724   1.200   7.992  0.4566  0.2968 -0.4597
  185MOL0     C24294   7.587   1.224   7.984 -0.6320 -0.1902 -0.2438
  185MOL0     C24295   7.536   1.311   7.884 -0.3171  0.0507 -0.3160
  185MOL0     O24296   7.406   1.353   7.899  0.5148 -0.1716 -0.2185
  185MOL0     C24297   7.326   1.363   7.781  0.1342  0.0594 -0.7727
  185MOL0     C24298   7.204   1.268   7.787  0.5927 -0.0597 -0.0863
  185MOL0     C24299   7.114   1.275   7.667 -0.0283 -0.2429 -0.6764
  185MOL0     C24300   6.999   1.185   7.652  0.0995  0.3303  0.5016
  185MOL0     C24301   6.910   1.204   7.528 -0.5735 -0.6877 -0.0230
  185MOL0     C24302   6.784   1.126   7.556  0.3467 -0.7017  0.7630
  185MOL0     C24303   6.685   1.139   7.442  0.8514  0.6481 -0.2328
  185MOL0     C24304   6.625   1.282   7.424  0.2987  0.0932 -0.3836
  185MOL0     N24305   6.583   1.347   7.550 -0.0425  0.1847  0.6190
  185MOL0     C24306   6.637   1.453   7.611 -0.2459 -0.0603  0.3043
  185MOL0     C24307   6.641   1.423   7.742 -0.8614 -0.1106  0.8887
  185MOL0     C24308   6.698   1.512   7.850 -0.7388  0.4746 -0.0075
  185MOL0     C24309   6.618   1.629   7.896  0.2074  0.0298  0.0779
  185MOL0     C24310   6.647   1.680   8.041  0.3788 -0.0685  0.1699
  185MOL0     C24311   6.565   1.806   8.072 -0.3964 -0.3528  0.1893
  185MOL0     O24312   6.625   1.905   8.158  0.0766 -0.0933 -0.3829
  185MOL0     C24313   6.552   1.987   8.239 -0.0258 -0.2095  0.0650
  185MOL0     C24314   6.423   2.020   8.226  1.0976 -1.2542 -0.1012
  185MOL0     C24315   6.354   2.112   8.319 -0.0021  0.0029  0.0318
  185MOL0     C24316   6.424   2.164   8.429  0.3754  0.0319  0.9701
  185MOL0     C24317   6.359   2.263   8.529  1.1164  0.7341  0.5920
  185MOL0     O24318   6.215   2.267   8.525 -0.5032 -0.1973  0.2784
  185MOL0     C24319   6.139   2.363   8.591  0.1054  0.0034 -1.1639
  185MOL0     C24320   6.018   2.386   8.525  0.2920 -0.5288  0.0806
  185MOL0     C24321   5.921   2.463   8.588  0.1492  0.1324 -0.9681
  185MOL0     C24322   5.947   2.513   8.714  0.4240  0.3599  0.4392
  185MOL0     O24323   5.848   2.602   8.765  0.1552  0.4652  0.1512
  185MOL0     C24324   5.899   2.732   8.789  0.0941  0.3096 -0.1725
  185MOL0     C24325   5.780   2.816   8.834 -0.0548 -1.4948 -0.2736
  185MOL0     C24326   5.821   2.959   8.853 -0.2550 -0.1250 -0.3576
  185MOL0     C24327   5.702   3.049   8.887  0.4031 -0.1498  0.9434
  185MOL0     C24328   5.598   2.997   8.983  0.6305 -0.4519 -0.1701
  185MOL0     C24329   5.535   3.106   9.065 -0.4472 -0.2501  0.2740
  185MOL0     C24330   5.394   3.063   9.107  0.6589 -0.2213 -0.1451
  185MOL0     C24331   5.340   3.161   9.203 -1.4003 -0.5789 -0.0320
  185MOL0    Cl24332   5.182   3.121   9.281  0.6105 -0.4636 -0.2253
  185MOL0     C24333   6.071   2.495   8.781 -0.2879 -0.6815  0.4156
  185MOL0     C24334   6.170   2.433   8.716 -0.3690  0.8952  0.3696
  185MOL0     O24335   6.431   2.327   8.601 -0.4589 -0.4336 -0.1416
  185MOL0     C24336   6.563   2.139   8.427 -1.3182  0.1909 -0.2801
  185MOL0     C24337   6.628   2.057   8.326  0.2997 -1.3892 -0.3086
  185MOL0     N24338   6.563   1.312   7.758 -0.2869 -0.6259 -0.0275
  185MOL0     N24339   6.520   1.277   7.650 -0.0618  0.3168 -0.2080
  185MOL0     C24340   7.628   1.373   7.798  0.5948 -0.7568 -0.2037
  185MOL0     C24341   7.761   1.340   7.804  0.2454 -0.1966  0.0878
  185MOL0     C24342   8.174   1.161   7.849 -0.1956 -0.4198  0.2744
  185MOL0     C24343   8.260   1.152   7.742  0.0880  0.4067  0.0425
  185MOL0     C24344   8.394   1.117   7.769 -0.0261  0.0686 -0.4863
  185MOL0     C24345   8.446   1.094   7.897 -0.4327  0.4979 -1.3611
  185MOL0     O24346   8.576   1.061   7.900 -0.0303 -0.2318  0.9815
  185MOL0     C24347   8.641   1.078   8.029 -0.7826 -0.5133 -0.2832
  185MOL0     C24348   8.795   1.102   8.007  0.7115 -0.1503 -0.2038
  185MOL0     C24349   8.860   1.087   8.145 -0.3335 -0.7751  0.1709
  185MOL0     C24350   8.843   0.945   8.215 -0.3429  0.3910  0.1716
  185MOL0     C24351   8.861   0.837   8.118 -0.5623 -0.3270 -0.4624
  185MOL0     C24352   8.893   0.744   8.047 -0.5173  0.0059  0.0554
  185MOL0     C24353   8.361   1.102   8.005  0.6766  1.0944 -0.4226
  185MOL0     C24354   8.227   1.125   7.981  0.2188 -0.3464  0.5880
  185MOL0     H24355   7.761   1.142   8.076  0.4087  1.4341  0.3720
  185MOL0     H24356   7.516   1.190   8.059 -0.5691  1.9819  0.8934
  185MOL0     H24357   7.379   1.356   7.685  0.7011 -0.3478 -0.4330
  185MOL0     H24358   7.295   1.468   7.768 -0.4407 -0.0271 -0.1222
  185MOL0     H24359   7.144   1.293   7.874 -1.2450 -1.3262 -0.9306
  185MOL0     H24360   7.253   1.170   7.792  1.7628  0.3853 -1.8641
  185MOL0     H24361   7.180   1.252   7.582 -0.6992 -0.7266 -1.0749
  185MOL0     H24362   7.084   1.379   7.657  3.3009  1.0501  1.1528
  185MOL0     H24363   7.020   1.077   7.662  0.9601  0.5805  1.6774
  185MOL0     H24364   6.948   1.202   7.747 -0.9480  0.1086 -0.0111
  185MOL0     H24365   6.960   1.173   7.435 -1.6801 -3.0113  0.0805
  185MOL0     H24366   6.886   1.309   7.506 -1.1311 -0.6735  0.6524
  185MOL0     H24367   6.742   1.155   7.652 -1.5787 -1.3239  0.1443
  185MOL0     H24368   6.814   1.021   7.561  1.2976 -0.4828  0.0943
  185MOL0     H24369   6.743   1.124   7.351  0.9765 -1.1314  0.1022
  185MOL0     H24370   6.616   1.056   7.458  2.1362 -0.9261 -2.4880
  185MOL0     H24371   6.538   1.272   7.358  0.2143 -3.3193  0.0400
  185MOL0     H24372   6.707   1.345   7.388 -0.8064  2.3572  0.8830
  185MOL0     H24373   6.680   1.539   7.561  0.7830 -0.2339  0.8472
  185MOL0     H24374   6.800   1.543   7.824 -1.2933 -0.2189 -3.4686
  185MOL0     H24375   6.718   1.455   7.941  2.1855  1.5687  0.1574
  185MOL0     H24376   6.516   1.589   7.892  0.6108 -0.9704 -2.1271
  185MOL0     H24377   6.625   1.711   7.823 -0.3831  0.0923  0.0798
  185MOL0     H24378   6.607   1.602   8.106 -0.2487 -0.0562 -0.1911
  185MOL0     H24379   6.753   1.702   8.055 -0.0263  0.7320  2.3321
  185MOL0     H24380   6.467   1.769   8.104 -1.1378 -0.4036 -1.9365
  185MOL0     H24381   6.534   1.857   7.980 -0.8431  3.0059  2.0668
  185MOL0     H24382   6.359   1.984   8.145 -0.0383  0.3401  0.0407
  185MOL0     H24383   6.249   2.140   8.312  0.5213  2.6941  1.4796
  185MOL0     H24384   6.000   2.342   8.428  1.3586  0.7678 -0.7326
  185MOL0     H24385   5.824   2.482   8.542  1.6226  1.3250 -3.8255
  185MOL0     H24386   5.931   2.763   8.689  1.1012 -1.9508 -0.6156
  185MOL0     H24387   5.990   2.733   8.851  0.0370  0.3983 -0.0903
  185MOL0     H24388   5.744   2.782   8.932 -0.4173 -2.3546 -0.6959
  185MOL0     H24389   5.694   2.811   8.766  0.5339  0.1044 -1.1898
  185MOL0     H24390   5.879   2.999   8.769  2.4551  1.1992  1.9760
  185MOL0     H24391   5.895   2.957   8.934 -1.2570 -2.2744  0.5936
  185MOL0     H24392   5.738   3.147   8.919 -1.6525  1.4202 -1.1923
  185MOL0     H24393   5.645   3.079   8.798  1.1543  0.4289  0.6476
  185MOL0     H24394   5.632   2.922   9.055 -0.5867  0.0829  1.0084
  185MOL0     H24395   5.515   2.948   8.931 -1.1246  2.1241  0.0475
  185MOL0     H24396   5.517   3.192   9.001 -1.6793  0.7031  1.8309
  185MOL0     H24397   5.599   3.132   9.149 -0.8194  2.2319 -0.1428
  185MOL0     H24398   5.324   3.051   9.023  0.9121 -0.3665 -0.3386
  185MOL0     H24399   5.396   2.971   9.165  1.6141 -0.3371 -0.3389
  185MOL0     H24400   5.324   3.252   9.146  2.4776  0.1239 -0.2357
  185MOL0     H24401   5.411   3.190   9.281  1.0606  2.5513 -3.1310
  185MOL0     H24402   6.091   2.536   8.880  2.4194  0.6807 -0.5718
  185MOL0     H24403   6.268   2.415   8.760 -0.0967 -2.4552 -1.2420
  185MOL0     H24404   6.638   2.179   8.494 -0.7903  3.0067 -2.3832
  185MOL0     H24405   6.737   2.049   8.331  0.6847  2.2590 -0.3040
  185MOL0     H24406   7.588   1.453   7.736 -0.5391 -0.1321  1.2644
  185MOL0     H24407   7.834   1.382   7.736  0.2273 -1.4067 -0.7188
  185MOL0     H24408   8.224   1.164   7.640  4.2687 -1.3171 -1.9201
  185MOL0     H24409   8.457   1.112   7.680  0.0712  1.1081 -0.4909
  185MOL0     H24410   8.609   0.990   8.086 -1.9003  0.0748  0.0336
  185MOL0     H24411   8.608   1.170   8.077  0.0061 -0.2452 -0.2364
  185MOL0     H24412   8.840   1.035   7.933  3.0595 -1.0105  1.8592
  185MOL0     H24413   8.820   1.203   7.973  0.6449  0.4619  1.4521
  185MOL0     H24414   8.835   1.164   8.219  0.9076 -2.0317  2.0029
  185MOL0     H24415   8.964   1.106   8.118  0.4244  1.8113  4.0481
  185MOL0     H24416   8.918   0.924   8.291 -0.6260 -2.6562 -0.2874
  185MOL0     H24417   8.741   0.937   8.254 -1.0087 -0.5262 -1.6319
  185MOL0     H24418   8.929   0.671   7.978 -0.1460 -1.6358  1.8823
  185MOL0     H24419   8.393   1.080   8.107 -2.0257  2.7918  0.9225
  185MOL0     H24420   8.154   1.124   8.061 -0.1246 -1.0990  0.2769
  186MOL0     O24421   8.472   1.730  10.584  0.3642  0.3816  0.1454
  186MOL0     C24422   8.497   1.618  10.546 -0.1380  1.0624 -0.2313
  186MOL0     O24423   8.434   1.507  10.583  0.6839  0.2197  0.1928
  186MOL0     C24424   8.324   1.514  10.672 -0.8077 -0.6331 -0.0029
  186MOL0     C24425   8.331   1.584  10.792  0.1435  0.3619  0.0764
  186MOL0     C24426   8.223   1.604  10.876 -0.1750  0.3823 -0.0239
  186MOL0     C24427   8.097   1.549  10.845 -0.4967  1.2025 -0.0059
  186MOL0     O24428   7.994   1.561  10.935 -0.4146  0.2665 -0.2455
  186MOL0     C24429   7.865   1.516  10.916  0.9386 -0.0888 -0.2820
  186MOL0     C24430   7.788   1.598  10.807 -0.1806 -1.3536 -0.1014
  186MOL0     C24431   7.647   1.548  10.773  0.4141  0.9538  0.5892
  186MOL0     C24432   7.533   1.608  10.853  0.1813 -0.5810 -0.2513
  186MOL0     C24433   7.401   1.533  10.799  1.0858 -0.2410  0.0310
  186MOL0     C24434   7.281   1.602  10.872  0.5061  0.3923 -0.9072
  186MOL0     C24435   7.146   1.533  10.826  0.4953 -1.0742 -0.4839
  186MOL0     C24436   7.031   1.619  10.871  0.6471 -0.1525 -0.1290
  186MOL0     N24437   6.917   1.533  10.833  0.2091 -0.1748 -0.0664
  186MOL0     C24438   6.871   1.416  10.887  0.6625 -0.6497 -0.8045
  186MOL0     C24439   6.759   1.384  10.820  0.0170  0.0088 -0.2902
  186MOL0     C24440   6.676   1.254  10.853 -0.8805 -1.1286  0.7690
  186MOL0     C24441   6.529   1.285  10.839  0.2029 -0.0544 -0.1252
  186MOL0     C24442   6.441   1.161  10.851  0.3543 -0.8279  0.0952
  186MOL0     C24443   6.289   1.202  10.854 -0.1187  0.3837  0.3987
  186MOL0     O24444   6.217   1.094  10.795  0.1056 -0.1186  0.5039
  186MOL0     C24445   6.079   1.090  10.793 -1.2327  0.0063 -0.3524
  186MOL0     C24446   6.024   0.962  10.819  0.3020  0.3351 -0.2424
  186MOL0     C24447   5.884   0.960  10.842 -0.2251  0.0467 -0.7461
  186MOL0     C24448   5.805   1.075  10.818 -0.1859 -0.0709  0.8109
  186MOL0     C24449   5.652   1.068  10.837 -0.2180  1.0386  1.0535
  186MOL0     O24450   5.579   1.176  10.791  0.4803  0.0393 -0.9813
  186MOL0     C24451   5.441   1.185  10.820  0.8339  0.3334  1.0721
  186MOL0     C24452   5.337   1.108  10.757 -0.7392 -0.1930 -0.2475
  186MOL0     C24453   5.202   1.123  10.805 -0.0748 -0.1842  0.9940
  186MOL0     C24454   5.176   1.205  10.916  0.1953  0.2805  0.1290
  186MOL0     O24455   5.044   1.209  10.960 -0.2488  0.5051  0.7199
  186MOL0     C24456   4.997   1.280  11.077 -0.6295 -0.1602 -0.0751
  186MOL0     C24457   4.848   1.294  11.079 -1.1822  0.0664  0.1459
  186MOL0     C24458   4.784   1.178  11.165 -1.0086  0.2250 -0.1229
  186MOL0     C24459   4.632   1.206  11.198  0.4964 -0.3318  0.3213
  186MOL0     C24460   4.620   1.334  11.285  0.7771 -0.2832 -0.4028
  186MOL0     C24461   4.500   1.341  11.383 -1.1241 -0.1320  0.3705
  186MOL0     C24462   4.363   1.344  11.317 -0.3132 -0.5582 -0.3718
  186MOL0     C24463   4.259   1.354  11.420 -0.3368 -0.3034 -0.8315
  186MOL0    Cl24464   4.288   1.513  11.504  0.0996  0.2713 -0.1244
  186MOL0     C24465   5.276   1.280  10.982  0.3896 -0.3247  0.6699
  186MOL0     C24466   5.404   1.261  10.936  0.1629  0.9143 -0.7623
  186MOL0     O24467   5.606   0.975  10.895  0.6408  0.0422  0.8989
  186MOL0     C24468   5.870   1.197  10.795 -0.0616 -0.1720 -0.2138
  186MOL0     C24469   6.002   1.206  10.777 -0.2641  0.4226 -0.0899
  186MOL0     N24470   6.738   1.472  10.714 -0.5368  0.0366 -1.0495
  186MOL0     N24471   6.826   1.567  10.732 -0.1091  0.1316  0.9063
  186MOL0     C24472   8.085   1.485  10.722 -0.5214 -0.0330  0.0581
  186MOL0     C24473   8.196   1.473  10.635 -0.1940  0.6157 -0.0547
  186MOL0     C24474   8.618   1.598  10.461 -0.2707 -1.4845 -0.1807
  186MOL0     C24475   8.720   1.698  10.439  0.3237  0.5550 -0.6223
  186MOL0     C24476   8.823   1.673  10.351  0.0903  0.2280 -0.0690
  186MOL0     C24477   8.844   1.552  10.280  0.0424 -0.2810 -0.5415
  186MOL0     O24478   8.951   1.540  10.190  0.4045 -0.1486  0.3430
  186MOL0     C24479   8.987   1.663  10.119 -0.9827  0.9277 -0.8978
  186MOL0     C24480   9.072   1.623   9.998  0.1533 -0.4793  0.6951
  186MOL0     C24481   9.083   1.749   9.894 -0.0538  0.5439 -0.9374
  186MOL0     C24482   9.185   1.862   9.940 -0.0121 -0.2693 -0.4059
  186MOL0     C24483   9.186   1.974   9.842  0.5370 -0.1010 -0.0817
  186MOL0     C24484   9.181   2.067   9.762 -0.8231 -0.1117  0.3916
  186MOL0     C24485   8.740   1.458  10.297 -0.0126  0.7686  0.8546
  186MOL0     C24486   8.625   1.487  10.370 -0.7493  0.3344 -0.0867
  186MOL0     H24487   8.430   1.609  10.831  0.3798 -2.0376  1.1789
  186MOL0     H24488   8.232   1.650  10.974  3.0470 -0.0114 -0.0174
  186MOL0     H24489   7.801   1.514  11.005  0.8441 -0.0624 -0.3488
  186MOL0     H24490   7.882   1.414  10.881  3.2413 -0.1230  0.8021
  186MOL0     H24491   7.844   1.623  10.716  0.0620  2.4734  0.9079
  186MOL0     H24492   7.782   1.698  10.852  1.7101 -1.1407 -0.2437
  186MOL0     H24493   7.648   1.440  10.789  1.3612  0.4506 -2.2089
  186MOL0     H24494   7.630   1.556  10.665 -1.6466 -0.5908  0.7333
  186MOL0     H24495   7.548   1.596  10.960 -0.4811 -0.2575 -0.1216
  186MOL0     H24496   7.544   1.716  10.840 -2.9064  0.3352  3.2648
  186MOL0     H24497   7.412   1.425  10.809  2.4892 -0.3676 -2.1986
  186MOL0     H24498   7.380   1.555  10.694  0.7568 -1.1095 -0.0926
  186MOL0     H24499   7.280   1.710  10.854 -2.8092  1.2717  3.0755
  186MOL0     H24500   7.300   1.583  10.978  0.0168 -0.6891 -1.0041
  186MOL0     H24501   7.150   1.523  10.717  0.7639  0.0272 -0.5788
  186MOL0     H24502   7.140   1.430  10.864 -2.7340 -1.1417 -0.9308
  186MOL0     H24503   7.043   1.716  10.823  4.2393 -0.2103  0.3605
  186MOL0     H24504   7.028   1.647  10.977 -1.8879  1.5107 -0.5523
  186MOL0     H24505   6.913   1.358  10.969 -1.0965 -0.3193  0.3901
  186MOL0     H24506   6.702   1.222  10.954  1.7689 -3.0953 -0.4331
  186MOL0     H24507   6.704   1.166  10.794  1.6114 -1.0866  1.7907
  186MOL0     H24508   6.505   1.335  10.745  0.4723  1.6091  0.6594
  186MOL0     H24509   6.512   1.360  10.917  3.3366 -0.0355  0.6903
  186MOL0     H24510   6.462   1.107  10.758 -0.2833 -1.5758  0.3725
  186MOL0     H24511   6.469   1.103  10.940  1.3021  3.1150  2.6051
  186MOL0     H24512   6.280   1.295  10.796  0.9788  0.4130  0.2391
  186MOL0     H24513   6.252   1.222  10.955 -1.6251  1.4507 -0.3193
  186MOL0     H24514   6.080   0.870  10.830 -1.3053 -1.3461 -4.2010
  186MOL0     H24515   5.833   0.868  10.867  0.7788 -1.0261 -2.4041
  186MOL0     H24516   5.355   1.036  10.678  1.3115 -1.9096  1.6546
  186MOL0     H24517   5.132   1.055  10.758  2.9876 -1.2987 -2.4225
  186MOL0     H24518   5.042   1.379  11.075  0.3918 -0.5968  0.5524
  186MOL0     H24519   5.037   1.227  11.164 -0.5994 -4.3832 -2.3865
  186MOL0     H24520   4.804   1.290  10.979  0.2289 -3.4035 -0.4628
  186MOL0     H24521   4.814   1.386  11.128 -1.4925  1.0110 -1.7434
  186MOL0     H24522   4.830   1.186  11.264 -2.0309  2.7774  0.2262
  186MOL0     H24523   4.801   1.077  11.124 -0.0273 -0.4075  1.7553
  186MOL0     H24524   4.560   1.215  11.116  0.4212  1.0332  0.5067
  186MOL0     H24525   4.606   1.124  11.265  1.7067  0.3987  1.7379
  186MOL0     H24526   4.618   1.416  11.212  3.1101  0.6904  0.5556
  186MOL0     H24527   4.714   1.351  11.336  1.5718 -0.7279 -1.6584
  186MOL0     H24528   4.512   1.426  11.452  0.4113  0.5456 -0.6905
  186MOL0     H24529   4.501   1.258  11.454 -0.2428  1.4235  2.2812
  186MOL0     H24530   4.353   1.428  11.248 -3.6525  1.1478  1.8665
  186MOL0     H24531   4.336   1.252  11.264 -0.2295  0.3273 -1.9969
  186MOL0     H24532   4.262   1.274  11.495 -0.3594  1.5432  1.2757
  186MOL0     H24533   4.158   1.340  11.382 -0.7508  1.1135 -0.3538
  186MOL0     H24534   5.269   1.330  11.078 -1.7002  2.5559 -0.8337
  186MOL0     H24535   5.490   1.301  10.988  0.4401 -1.2572  0.5587
  186MOL0     H24536   5.812   1.289  10.795  0.1073  0.0150  2.3667
  186MOL0     H24537   6.060   1.295  10.752  0.1256 -0.1048 -1.0859
  186MOL0     H24538   7.990   1.439  10.698 -2.8345  3.1935  2.2593
  186MOL0     H24539   8.190   1.424  10.538  0.5168  0.8576 -0.2307
  186MOL0     H24540   8.724   1.785  10.503  2.6751 -0.5792  0.9210
  186MOL0     H24541   8.901   1.749  10.354 -0.9170  1.2723  0.2722
  186MOL0     H24542   9.044   1.721  10.192  0.7113 -0.3312 -1.1524
  186MOL0     H24543   8.897   1.716  10.086 -2.5824 -0.6072  0.7388
  186MOL0     H24544   9.169   1.589  10.034  1.4753 -0.6383 -2.6673
  186MOL0     H24545   9.044   1.541   9.932  0.8960  1.9179 -2.8938
  186MOL0     H24546   8.982   1.791   9.891 -0.7276 -0.7631  1.1107
  186MOL0     H24547   9.111   1.714   9.795  1.9923  1.4497 -0.7323
  186MOL0     H24548   9.163   1.896  10.041 -0.6112 -1.8040  0.0100
  186MOL0     H24549   9.284   1.818   9.955  0.4880  1.2907  1.1218
  186MOL0     H24550   9.177   2.138   9.682  1.5281  0.4332  0.6793
  186MOL0     H24551   8.755   1.369  10.236 -1.1311  0.2470  1.3113
  186MOL0     H24552   8.545   1.414  10.366 -0.6406  0.2258 -0.3158
  187MOL0     O24553   6.983   6.597  10.468 -0.4269 -0.1626  0.8343
  187MOL0     C24554   6.948   6.499  10.529 -0.0862 -0.2683  0.3924
  187MOL0     O24555   7.031   6.402  10.570  0.0155  0.1756 -0.0159
  187MOL0     C24556   7.161   6.388  10.544 -0.4496  0.3580 -0.7712
  187MOL0     C24557   7.226   6.313  10.650  0.2219 -0.2101 -0.0499
  187MOL0     C24558   7.366   6.314  10.661 -0.1862  0.6475  0.3227
  187MOL0     C24559   7.438   6.380  10.557 -0.4561  0.1573  0.2932
  187MOL0     O24560   7.574   6.359  10.576 -0.0249  0.4374 -0.7582
  187MOL0     C24561   7.661   6.385  10.466 -0.1479  0.6548  0.1030
  187MOL0     C24562   7.793   6.371  10.544 -0.2226 -0.2446 -0.2779
  187MOL0     C24563   7.928   6.371  10.466 -0.1374  0.8125 -0.2063
  187MOL0     C24564   8.055   6.343  10.542 -1.0118  0.0042  0.0782
  187MOL0     C24565   8.180   6.338  10.447 -0.1918  0.7147  0.2866
  187MOL0     C24566   8.308   6.310  10.526 -0.4643  1.2550 -0.3433
  187MOL0     C24567   8.429   6.283  10.442 -0.6098 -0.8736  0.1026
  187MOL0     C24568   8.562   6.274  10.508 -0.8362 -0.1313  0.0099
  187MOL0     N24569   8.676   6.236  10.416  0.3147 -0.1165 -0.4465
  187MOL0     C24570   8.808   6.211  10.461 -0.3188 -0.3892  0.9347
  187MOL0     C24571   8.883   6.215  10.350  0.1684  0.6371 -0.2849
  187MOL0     C24572   9.037   6.202  10.326 -0.3158  0.3692 -0.6350
  187MOL0     C24573   9.099   6.076  10.398 -0.4091 -0.3352 -0.5291
  187MOL0     C24574   9.061   5.944  10.338  0.4621 -0.3242 -0.7384
  187MOL0     C24575   8.910   5.900  10.335 -0.3333 -0.2431 -0.7740
  187MOL0     O24576   8.861   5.888  10.468 -0.3718  0.1968  0.2244
  187MOL0     C24577   8.736   5.889  10.497  0.5202  0.3330  0.3526
  187MOL0     C24578   8.705   5.888  10.630  0.1813  0.1286  0.0557
  187MOL0     C24579   8.573   5.872  10.684  0.0185 -0.3626  0.2653
  187MOL0     C24580   8.467   5.856  10.587 -0.2521  1.0405  0.1100
  187MOL0     C24581   8.323   5.821  10.621  0.2396 -0.1871 -0.2272
  187MOL0     O24582   8.230   5.864  10.527  0.6754  0.3675 -0.5325
  187MOL0     C24583   8.093   5.847  10.542 -0.2393  0.0514 -0.2742
  187MOL0     C24584   8.008   5.953  10.494  1.1082 -0.1324 -0.7238
  187MOL0     C24585   7.872   5.957  10.534 -0.3923 -0.2989  0.1149
  187MOL0     C24586   7.815   5.851  10.605  0.3387  0.4550 -1.3441
  187MOL0     O24587   7.691   5.847  10.666  0.0883  0.7945 -0.8457
  187MOL0     C24588   7.634   5.974  10.708  0.0116  0.0091  0.1501
  187MOL0     C24589   7.505   5.932  10.774  0.7583  0.1446 -0.1153
  187MOL0     C24590   7.407   5.855  10.685  0.0688  0.6908 -0.5182
  187MOL0     C24591   7.280   5.819  10.758 -1.2788 -0.2458  0.2832
  187MOL0     C24592   7.181   5.754  10.674  1.1252  0.4708  1.0340
  187MOL0     C24593   7.120   5.849  10.571  0.9613  0.3043  0.1179
  187MOL0     C24594   6.975   5.788  10.536  0.0213 -0.1893 -1.1325
  187MOL0     C24595   6.901   5.890  10.455  0.2051 -0.2897 -0.0330
  187MOL0    Cl24596   6.857   6.041  10.537  0.1622  0.1829 -0.3345
  187MOL0     C24597   7.892   5.743  10.633 -0.4422 -0.4157 -0.2136
  187MOL0     C24598   8.030   5.738  10.599  0.9703 -0.0488 -0.2650
  187MOL0     O24599   8.289   5.764  10.723 -0.3464 -0.1215  1.0361
  187MOL0     C24600   8.500   5.870  10.453 -0.3179  0.0312  0.0928
  187MOL0     C24601   8.623   5.885  10.409 -0.6788 -0.8073  0.0362
  187MOL0     N24602   8.803   6.245  10.242 -0.2523  0.1578  0.1709
  187MOL0     N24603   8.685   6.241  10.282  0.6843 -1.1527 -0.0902
  187MOL0     C24604   7.379   6.453  10.458  0.7895 -0.1856 -0.0909
  187MOL0     C24605   7.232   6.463  10.451  0.4335  0.2591  0.1301
  187MOL0     C24606   6.807   6.475  10.530  0.4146  0.0811 -0.5143
  187MOL0     C24607   6.718   6.561  10.465  0.2977 -0.3884  0.3439
  187MOL0     C24608   6.580   6.527  10.459 -0.4794  0.6055 -0.7001
  187MOL0     C24609   6.528   6.416  10.540 -0.6672 -0.4628  0.0325
  187MOL0     O24610   6.393   6.391  10.546  0.3006 -0.1247 -0.5085
  187MOL0     C24611   6.300   6.471  10.461  0.7223  0.3635  0.4534
  187MOL0     C24612   6.155   6.406  10.473 -0.4822 -0.4684 -0.0554
  187MOL0     C24613   6.059   6.442  10.361  0.3237  0.8512  0.0683
  187MOL0     C24614   5.901   6.419  10.392 -0.2182  0.1413  1.3154
  187MOL0     C24615   5.835   6.475  10.275 -0.9501  0.3957  0.2699
  187MOL0     C24616   5.772   6.535  10.185 -1.0683  0.0308 -0.3243
  187MOL0     C24617   6.616   6.338  10.613 -0.7364  0.4164  0.3039
  187MOL0     C24618   6.760   6.363  10.600  0.6386  0.9813  1.2031
  187MOL0     H24619   7.176   6.244  10.717  0.8789  0.1664  0.8464
  187MOL0     H24620   7.411   6.264  10.746 -2.0787 -1.0917  0.4012
  187MOL0     H24621   7.663   6.478  10.408  4.3585  0.5462 -0.2356
  187MOL0     H24622   7.659   6.304  10.393  0.9864 -0.2213  1.0109
  187MOL0     H24623   7.788   6.277  10.600 -3.9660 -0.0347 -0.0019
  187MOL0     H24624   7.795   6.450  10.620 -0.8063 -1.2480  0.8134
  187MOL0     H24625   7.930   6.466  10.412 -1.9043  1.8951  1.4779
  187MOL0     H24626   7.922   6.293  10.389 -2.4058 -0.1626  0.8645
  187MOL0     H24627   8.072   6.407  10.629  0.0365  1.0040 -0.8229
  187MOL0     H24628   8.063   6.238  10.574 -1.9859 -0.7107 -1.8553
  187MOL0     H24629   8.190   6.424  10.380 -0.0199  0.7289  0.3281
  187MOL0     H24630   8.167   6.261  10.370  3.7075  1.0632 -0.9531
  187MOL0     H24631   8.300   6.232  10.602 -0.9161  2.4198  0.8512
  187MOL0     H24632   8.321   6.400  10.587  2.0923  2.2455 -2.1545
  187MOL0     H24633   8.408   6.203  10.371  1.6543  1.3689 -3.3816
  187MOL0     H24634   8.439   6.369  10.375 -0.9189 -1.2015 -0.3744
  187MOL0     H24635   8.560   6.202  10.590 -1.8928 -0.6107 -0.4204
  187MOL0     H24636   8.585   6.368  10.559  0.8077  0.1207 -1.1183
  187MOL0     H24637   8.838   6.195  10.564  1.9303  3.6905  1.1069
  187MOL0     H24638   9.102   6.283  10.360 -0.4618 -0.1642  0.9990
  187MOL0     H24639   9.048   6.198  10.217  1.2336 -0.3635 -0.4761
  187MOL0     H24640   9.074   6.073  10.504  2.0799 -3.0177  0.1233
  187MOL0     H24641   9.208   6.084  10.384 -0.5568  0.5713 -1.2446
  187MOL0     H24642   9.083   5.946  10.231 -1.1826 -0.8348 -1.1111
  187MOL0     H24643   9.125   5.869  10.384  0.4789 -0.8807 -1.6394
  187MOL0     H24644   8.900   5.808  10.277 -1.7886 -1.3484  1.1079
  187MOL0     H24645   8.858   5.970  10.269 -0.2310 -0.0863 -0.6887
  187MOL0     H24646   8.796   5.880  10.688  0.4265 -1.9132 -0.5065
  187MOL0     H24647   8.551   5.861  10.790 -4.0744 -0.7425 -0.4766
  187MOL0     H24648   8.039   6.037  10.434  0.9229  0.3178 -0.1978
  187MOL0     H24649   7.816   6.040  10.494  2.4221  1.0803 -1.2607
  187MOL0     H24650   7.622   6.048  10.628  2.2135 -0.5082 -0.7602
  187MOL0     H24651   7.693   6.027  10.783  1.5040 -0.1882 -0.8227
  187MOL0     H24652   7.446   6.018  10.807 -0.3627 -0.5875 -0.1582
  187MOL0     H24653   7.534   5.882  10.867  0.1325  2.8897  1.6850
  187MOL0     H24654   7.441   5.763  10.637 -1.4176  1.0294 -2.3373
  187MOL0     H24655   7.389   5.926  10.603 -0.3873 -2.0923 -2.9691
  187MOL0     H24656   7.306   5.753  10.841 -1.0638 -1.1548 -0.4808
  187MOL0     H24657   7.242   5.907  10.810 -0.9473 -0.1213  0.3153
  187MOL0     H24658   7.098   5.723  10.738 -1.4715 -0.3001 -2.4227
  187MOL0     H24659   7.231   5.670  10.625 -0.0410  0.9622 -1.1154
  187MOL0     H24660   7.178   5.855  10.479 -1.4572  0.3883 -1.5083
  187MOL0     H24661   7.113   5.951  10.610 -2.3639 -0.3966  1.7290
  187MOL0     H24662   6.985   5.691  10.487 -1.1799 -1.9735  1.8729
  187MOL0     H24663   6.916   5.765  10.626  2.4477  2.6974  1.4042
  187MOL0     H24664   6.801   5.852  10.433 -0.4840  1.5380 -0.2443
  187MOL0     H24665   6.946   5.904  10.356 -2.7327 -1.4674 -1.6707
  187MOL0     H24666   7.859   5.656  10.690 -0.0180 -0.6444 -0.3089
  187MOL0     H24667   8.087   5.655  10.640 -1.1603 -1.4882 -0.0367
  187MOL0     H24668   8.422   5.876  10.378  1.9381 -1.8657 -2.6223
  187MOL0     H24669   8.628   5.912  10.304 -1.6991  0.9911  0.4001
  187MOL0     H24670   7.427   6.501  10.373 -1.2692 -0.8538 -1.7038
  187MOL0     H24671   7.194   6.520  10.367  1.1658 -0.4421 -0.7049
  187MOL0     H24672   6.744   6.650  10.408 -2.2092  0.3533  0.2467
  187MOL0     H24673   6.515   6.589  10.397 -1.3497 -0.5346 -0.9506
  187MOL0     H24674   6.313   6.455  10.353  1.1226 -1.7859  0.7763
  187MOL0     H24675   6.307   6.578  10.482 -0.1772  0.8430 -1.4182
  187MOL0     H24676   6.172   6.299  10.460  0.9587 -0.4111  1.0320
  187MOL0     H24677   6.120   6.415  10.577 -3.7549 -2.5985 -0.8272
  187MOL0     H24678   6.091   6.384  10.274  0.7173  1.3682 -0.1302
  187MOL0     H24679   6.067   6.548  10.338 -0.9222  2.0298  4.2695
  187MOL0     H24680   5.869   6.315  10.401 -2.6144  0.5725 -0.8890
  187MOL0     H24681   5.873   6.474  10.482  0.4921  1.3789  0.8056
  187MOL0     H24682   5.704   6.580  10.116  0.3927  1.2270 -1.0288
  187MOL0     H24683   6.583   6.261  10.682 -1.2478  1.6710  1.4960
  187MOL0     H24684   6.834   6.299  10.648 -0.5466 -0.5142  1.1363
  188MOL0     O24685   3.313   3.477   5.594  0.2552  0.3649 -0.0198
  188MOL0     C24686   3.371   3.366   5.585  0.6874 -0.5487 -0.2875
  188MOL0     O24687   3.297   3.247   5.594  0.2844  0.0150  0.8860
  188MOL0     C24688   3.162   3.253   5.611  0.2581 -0.4535 -0.1789
  188MOL0     C24689   3.116   3.165   5.702 -0.4629 -0.3973  0.1606
  188MOL0     C24690   2.979   3.151   5.726 -0.4091 -0.2998  0.0372
  188MOL0     C24691   2.884   3.225   5.663  1.1509  0.1261  0.2042
  188MOL0     O24692   2.748   3.209   5.685  0.3313  0.0533 -0.0401
  188MOL0     C24693   2.644   3.274   5.609  0.2952 -0.3863  0.0757
  188MOL0     C24694   2.500   3.260   5.671 -0.4539 -0.7438  0.5955
  188MOL0     C24695   2.471   3.372   5.775 -0.0928  0.5260 -0.4024
  188MOL0     C24696   2.543   3.342   5.918 -0.0615  0.0599  0.5152
  188MOL0     C24697   2.580   3.460   6.007 -0.3584  0.4199  0.7880
  188MOL0     C24698   2.470   3.539   6.058 -0.3218  0.4353  0.4704
  188MOL0     C24699   2.508   3.623   6.187  0.4944  0.7946  0.3884
  188MOL0     C24700   2.449   3.761   6.198  0.3694 -0.0995  0.0317
  188MOL0     N24701   2.304   3.772   6.191  0.0398 -0.4462 -0.4143
  188MOL0     C24702   2.235   3.846   6.096 -0.2396  0.1914  0.7649
  188MOL0     C24703   2.108   3.845   6.131  0.3023  0.4224 -0.0052
  188MOL0     C24704   1.986   3.896   6.049  0.1792  0.1191  0.0730
  188MOL0     C24705   1.930   3.765   5.981  0.0225 -0.5724 -0.8213
  188MOL0     C24706   2.019   3.695   5.883  0.2717  0.0138  0.5642
  188MOL0     C24707   1.930   3.609   5.801 -0.3196 -0.6022  0.3366
  188MOL0     O24708   1.884   3.500   5.890 -0.2523 -0.1228  0.0403
  188MOL0     C24709   1.945   3.372   5.883 -0.9232 -0.0235  0.0703
  188MOL0     C24710   1.897   3.263   5.957  0.4645  0.5086  0.1742
  188MOL0     C24711   1.954   3.132   5.962  0.0437 -0.2708  0.7699
  188MOL0     C24712   2.070   3.102   5.893 -1.1734  0.8019 -0.0427
  188MOL0     C24713   2.130   2.966   5.891 -1.5465 -0.1738 -0.3084
  188MOL0     O24714   2.257   2.958   5.839  0.5612 -0.4189  0.4371
  188MOL0     C24715   2.330   2.844   5.806  0.2074  0.5705  0.1171
  188MOL0     C24716   2.327   2.727   5.888 -0.4303  0.1580 -0.0603
  188MOL0     C24717   2.419   2.623   5.868  0.0323 -0.8288 -0.0766
  188MOL0     C24718   2.501   2.615   5.758 -0.5251  0.3803 -0.0614
  188MOL0     O24719   2.580   2.502   5.745  0.5499 -0.0320  0.5206
  188MOL0     C24720   2.601   2.453   5.617  0.0314  1.2287 -0.1691
  188MOL0     C24721   2.751   2.446   5.570 -1.1818 -0.5666 -0.7248
  188MOL0     C24722   2.816   2.583   5.551  0.5387 -0.4533  0.1410
  188MOL0     C24723   2.968   2.580   5.553 -0.9168  0.1520  0.1228
  188MOL0     C24724   3.037   2.710   5.535 -0.6461 -0.9112 -0.1020
  188MOL0     C24725   3.195   2.710   5.552  0.7038 -1.1898 -0.2184
  188MOL0     C24726   3.243   2.849   5.560 -0.3332  0.4899  0.8136
  188MOL0     C24727   3.388   2.852   5.608  0.3106  0.1857  0.1951
  188MOL0    Cl24728   3.504   2.849   5.472 -0.3270 -0.1887  0.1502
  188MOL0     C24729   2.485   2.724   5.663  0.4665  0.4354 -0.6451
  188MOL0     C24730   2.409   2.842   5.692 -0.2867  0.6989 -0.6007
  188MOL0     O24731   2.069   2.869   5.931  0.3363  0.5069  0.1188
  188MOL0     C24732   2.129   3.210   5.828 -0.0297  0.7784  0.0190
  188MOL0     C24733   2.066   3.338   5.823 -0.0539 -0.4219 -0.0837
  188MOL0     N24734   2.085   3.763   6.242 -0.4625 -0.2328 -0.0904
  188MOL0     N24735   2.209   3.721   6.276  0.7874 -0.3084  0.3137
  188MOL0     C24736   2.926   3.322   5.573 -0.8286  0.7148 -0.9352
  188MOL0     C24737   3.067   3.339   5.540  0.3594  0.5252  0.4587
  188MOL0     C24738   3.521   3.365   5.590  1.0826  0.5762  0.2343
  188MOL0     C24739   3.591   3.246   5.574 -0.4955 -0.2941 -0.8158
  188MOL0     C24740   3.736   3.242   5.575  0.1069 -0.5262  1.0327
  188MOL0     C24741   3.800   3.355   5.610 -0.4006  0.0749 -0.0807
  188MOL0     O24742   3.930   3.339   5.651 -0.2855 -0.2194 -0.0271
  188MOL0     C24743   4.010   3.438   5.709 -0.5183 -0.2813  0.1390
  188MOL0     C24744   4.134   3.362   5.772 -0.3348  0.9585 -0.2108
  188MOL0     C24745   4.263   3.444   5.745  0.0919  0.5531  0.5927
  188MOL0     C24746   4.368   3.445   5.857 -0.8422 -0.8447 -1.2923
  188MOL0     C24747   4.480   3.543   5.837  0.9704 -0.0092 -0.4705
  188MOL0     C24748   4.581   3.614   5.826  0.0359 -0.0625  0.0110
  188MOL0     C24749   3.735   3.475   5.620  0.6248  0.2700 -0.6289
  188MOL0     C24750   3.599   3.477   5.610 -0.4500 -0.8338  0.2276
  188MOL0     H24751   3.188   3.102   5.754  0.2221  0.9589  0.9140
  188MOL0     H24752   2.938   3.076   5.793 -1.3244  0.4425  0.3144
  188MOL0     H24753   2.643   3.230   5.509 -0.2913 -0.5621  0.1595
  188MOL0     H24754   2.658   3.381   5.591  0.6107 -0.1021  1.8279
  188MOL0     H24755   2.480   3.162   5.714 -0.3639 -2.0154 -2.0747
  188MOL0     H24756   2.432   3.277   5.587 -0.1246  2.7853  0.8879
  188MOL0     H24757   2.363   3.378   5.794 -0.1617 -1.0811 -0.1345
  188MOL0     H24758   2.498   3.471   5.739  0.7984 -0.8869 -4.1295
  188MOL0     H24759   2.480   3.273   5.974  1.8010 -0.6265  1.8754
  188MOL0     H24760   2.634   3.282   5.909  0.5476  0.9895  0.3379
  188MOL0     H24761   2.664   3.520   5.970  0.4620  0.9360  3.2785
  188MOL0     H24762   2.628   3.405   6.089  1.4398  2.8048  1.4450
  188MOL0     H24763   2.393   3.466   6.086 -1.6166  0.7272 -2.0719
  188MOL0     H24764   2.436   3.604   5.977  0.4775 -0.6021 -0.7286
  188MOL0     H24765   2.479   3.566   6.276 -0.1282  1.5017  0.6489
  188MOL0     H24766   2.617   3.620   6.188  0.5480 -3.1129 -0.3884
  188MOL0     H24767   2.488   3.814   6.111  1.5076 -2.9961 -1.3416
  188MOL0     H24768   2.488   3.816   6.284 -1.0588  0.7553  0.1634
  188MOL0     H24769   2.283   3.892   6.010  2.5098 -1.9663  1.0002
  188MOL0     H24770   2.015   3.967   5.972  2.5496 -1.8103 -0.9678
  188MOL0     H24771   1.913   3.952   6.108 -0.8937  1.0643 -2.0548
  188MOL0     H24772   1.832   3.793   5.942 -0.0215  1.5712  0.6687
  188MOL0     H24773   1.910   3.692   6.060 -0.2032 -0.3689 -0.6906
  188MOL0     H24774   2.078   3.767   5.826  0.2018 -0.3586  0.0129
  188MOL0     H24775   2.093   3.625   5.925  1.5628  0.7088 -0.4624
  188MOL0     H24776   1.991   3.575   5.717  0.6205  2.8713 -0.5414
  188MOL0     H24777   1.845   3.660   5.754  0.7491  1.5467  0.6151
  188MOL0     H24778   1.800   3.268   6.006  0.9161  2.3271  0.9290
  188MOL0     H24779   1.905   3.057   6.022  1.0764 -0.2890  1.6082
  188MOL0     H24780   2.265   2.727   5.977 -0.9158  0.1823 -0.3992
  188MOL0     H24781   2.425   2.547   5.945 -0.0844  0.4949  1.2912
  188MOL0     H24782   2.548   2.520   5.548 -0.8453  0.9056  0.1868
  188MOL0     H24783   2.566   2.351   5.600 -0.2299  1.5019 -1.4566
  188MOL0     H24784   2.756   2.401   5.470 -0.0595 -0.4865 -0.7172
  188MOL0     H24785   2.807   2.378   5.634  1.8319 -0.0637 -2.6173
  188MOL0     H24786   2.788   2.643   5.638 -1.2447 -0.7502 -0.1819
  188MOL0     H24787   2.776   2.618   5.455  0.8171 -4.0513 -1.4752
  188MOL0     H24788   2.994   2.533   5.649 -4.8306 -0.3220  1.1401
  188MOL0     H24789   3.001   2.512   5.474  3.3793  2.0790 -0.0168
  188MOL0     H24790   2.993   2.769   5.616 -1.5991 -2.6186  0.6824
  188MOL0     H24791   3.019   2.751   5.436  0.4669  0.4776  0.2454
  188MOL0     H24792   3.238   2.654   5.468  0.4787 -0.0440 -1.1147
  188MOL0     H24793   3.219   2.655   5.644 -0.2606  0.9983  1.4265
  188MOL0     H24794   3.230   2.898   5.463  0.9743 -1.5510 -0.4696
  188MOL0     H24795   3.187   2.909   5.633  0.4125  1.2930  0.7450
  188MOL0     H24796   3.407   2.771   5.679 -0.8014 -0.2206  0.0348
  188MOL0     H24797   3.403   2.946   5.663 -0.7518 -1.0220  2.7283
  188MOL0     H24798   2.544   2.719   5.572  1.0111  0.7933 -0.3166
  188MOL0     H24799   2.413   2.927   5.625 -1.2787  0.8199 -0.5223
  188MOL0     H24800   2.223   3.197   5.775 -0.3111  0.8113 -0.5030
  188MOL0     H24801   2.123   3.418   5.778 -0.3102 -1.9362 -3.3372
  188MOL0     H24802   2.858   3.373   5.506 -0.4588  1.3266 -0.8547
  188MOL0     H24803   3.108   3.413   5.472  0.4345 -0.9560 -1.1627
  188MOL0     H24804   3.541   3.152   5.556  3.3943 -2.6511 -0.2420
  188MOL0     H24805   3.792   3.149   5.567 -0.8626 -1.1156  1.0281
  188MOL0     H24806   3.956   3.492   5.787 -1.3842 -0.3674 -0.3836
  188MOL0     H24807   4.027   3.507   5.626 -1.2408  0.1177  0.3156
  188MOL0     H24808   4.109   3.358   5.879 -0.2481 -0.2714 -0.2282
  188MOL0     H24809   4.140   3.262   5.729 -0.3695  1.2505 -0.9039
  188MOL0     H24810   4.237   3.549   5.728  2.5347  1.0611 -0.6260
  188MOL0     H24811   4.314   3.414   5.653  2.3673  3.3568  0.7730
  188MOL0     H24812   4.323   3.469   5.954 -1.4467  3.7092 -2.4857
  188MOL0     H24813   4.418   3.348   5.859  0.8797 -0.0279 -1.9445
  188MOL0     H24814   4.674   3.666   5.815  0.8195 -1.4200  0.0352
  188MOL0     H24815   3.785   3.567   5.650 -0.5415  0.1166  2.0538
  188MOL0     H24816   3.549   3.572   5.621 -0.9767 -1.1694  0.8351
  189MOL0     O24817   3.728  10.434   8.099 -0.7525 -0.0509 -0.2981
  189MOL0     C24818   3.743  10.520   8.011 -0.5614  0.0892  0.0341
  189MOL0     O24819   3.653  10.552   7.916  0.1219 -0.1362  0.1929
  189MOL0     C24820   3.523  10.500   7.916  0.2995 -0.1307 -0.4495
  189MOL0     C24821   3.413  10.585   7.911 -0.7404  0.1561 -0.9514
  189MOL0     C24822   3.285  10.527   7.920  0.7776  0.3589 -0.2530
  189MOL0     C24823   3.262  10.388   7.927 -0.3265  0.1242  0.1511
  189MOL0     O24824   3.135  10.339   7.939  0.5968 -0.2294 -0.6041
  189MOL0     C24825   3.115  10.195   7.935 -0.5751 -0.4791 -0.2268
  189MOL0     C24826   2.966  10.176   7.931 -0.6039 -0.2602 -0.0046
  189MOL0     C24827   2.919  10.155   7.787  0.7614  0.1372  0.4684
  189MOL0     C24828   2.787  10.085   7.786 -0.5215 -0.3196 -0.3698
  189MOL0     C24829   2.729  10.068   7.638 -0.6302  0.3595  0.0093
  189MOL0     C24830   2.592  10.003   7.656  1.1366 -0.3201 -1.0709
  189MOL0     C24831   2.517  10.000   7.521  0.4756 -0.2347 -0.2903
  189MOL0     C24832   2.365  10.024   7.534  0.3436  0.3398 -0.8891
  189MOL0     N24833   2.301   9.897   7.572 -0.0295  0.2913  0.1657
  189MOL0     C24834   2.242   9.812   7.480  0.6219  0.2513  0.6869
  189MOL0     C24835   2.204   9.701   7.541  0.2784 -0.0497 -0.8349
  189MOL0     C24836   2.119   9.599   7.483 -1.2294 -0.3557  0.4412
  189MOL0     C24837   2.193   9.472   7.430  0.2803 -0.0515 -1.0288
  189MOL0     C24838   2.259   9.386   7.535  0.5586 -0.4070 -0.0682
  189MOL0     C24839   2.375   9.451   7.595 -0.3903 -0.8724 -0.3360
  189MOL0     O24840   2.498   9.375   7.604 -0.9654  0.4304 -0.4874
  189MOL0     C24841   2.601   9.412   7.691 -0.1668 -0.0042  0.5825
  189MOL0     C24842   2.639   9.546   7.725  0.7923 -0.3805  0.0909
  189MOL0     C24843   2.739   9.568   7.817  0.7339 -0.3935  0.6044
  189MOL0     C24844   2.821   9.461   7.855 -0.3433 -0.0459 -0.7268
  189MOL0     C24845   2.947   9.492   7.921  0.1463  0.7691 -0.0608
  189MOL0     O24846   3.035   9.395   7.927  0.1330  0.2409  0.8153
  189MOL0     C24847   3.162   9.430   7.968  0.0447 -0.7368 -1.0413
  189MOL0     C24848   3.219   9.362   8.080  0.1091  0.3706  1.0201
  189MOL0     C24849   3.343   9.399   8.134 -0.2379 -0.1215 -0.1350
  189MOL0     C24850   3.421   9.496   8.069  0.2345  0.3923 -0.2430
  189MOL0     O24851   3.555   9.518   8.105 -0.2663  0.4518  0.0503
  189MOL0     C24852   3.618   9.476   8.225 -0.0861  0.9013 -0.7210
  189MOL0     C24853   3.730   9.563   8.282  0.4100 -0.0908  0.0527
  189MOL0     C24854   3.855   9.559   8.212 -0.6573  0.2312 -0.9271
  189MOL0     C24855   3.970   9.646   8.273  0.2905 -0.0517 -0.0876
  189MOL0     C24856   4.107   9.646   8.197 -0.1483 -0.1289 -0.7619
  189MOL0     C24857   4.221   9.735   8.259  0.5004  0.3785  0.9805
  189MOL0     C24858   4.342   9.729   8.173 -0.3956 -0.4713  0.4499
  189MOL0     C24859   4.462   9.812   8.223  0.2923  0.0847  0.0191
  189MOL0    Cl24860   4.598   9.822   8.102  0.1752 -0.0083 -0.0015
  189MOL0     C24861   3.367   9.566   7.957  0.3504 -0.9462  0.3879
  189MOL0     C24862   3.242   9.529   7.905 -0.3669 -0.0326 -0.5805
  189MOL0     O24863   2.962   9.601   7.967  0.2344 -0.7369 -0.0757
  189MOL0     C24864   2.780   9.332   7.827  0.0261 -0.2626  0.5654
  189MOL0     C24865   2.673   9.311   7.741  0.0668  0.9618 -0.0099
  189MOL0     N24866   2.258   9.708   7.669 -0.3050  0.2535  0.1352
  189MOL0     N24867   2.310   9.829   7.689 -0.9765 -0.3527  0.7180
  189MOL0     C24868   3.374  10.304   7.925 -0.4007 -0.3043  0.0754
  189MOL0     C24869   3.504  10.360   7.923 -0.0701 -0.6446  0.2187
  189MOL0     C24870   3.875  10.574   8.005 -0.9141  0.1404 -0.5543
  189MOL0     C24871   3.973  10.540   8.098 -0.1337 -0.2364  0.1741
  189MOL0     C24872   4.091  10.607   8.113 -0.1244  0.0206  1.1524
  189MOL0     C24873   4.131  10.700   8.013  1.3458 -0.0609 -0.7968
  189MOL0     O24874   4.259  10.748   8.018 -0.4076 -0.4605  0.3605
  189MOL0     C24875   4.272  10.892   8.006 -0.2758 -0.6604  0.1445
  189MOL0     C24876   4.392  10.946   8.084  1.1129  0.7179  0.5132
  189MOL0     C24877   4.520  10.876   8.050 -0.7395 -0.3170  0.4974
  189MOL0     C24878   4.652  10.960   8.073  0.7452 -0.1697  0.1553
  189MOL0     C24879   4.641  11.086   8.002 -0.2303 -0.1592 -0.5591
  189MOL0     C24880   4.641  11.198   7.958 -0.1530  0.3973  0.0466
  189MOL0     C24881   4.035  10.738   7.912  0.5861 -0.0803 -0.9752
  189MOL0     C24882   3.908  10.675   7.913 -0.1072  0.3096  0.0932
  189MOL0     H24883   3.441  10.689   7.929  0.4593 -0.2517 -0.3512
  189MOL0     H24884   3.196  10.588   7.920 -0.0046 -0.7478 -1.0460
  189MOL0     H24885   3.169  10.141   8.014  0.5528 -0.4313 -0.9413
  189MOL0     H24886   3.152  10.162   7.838  0.6035 -0.2454  0.1316
  189MOL0     H24887   2.913  10.264   7.969  0.6797 -0.1214  1.5981
  189MOL0     H24888   2.935  10.095   7.997  0.1145  0.6983  1.5705
  189MOL0     H24889   2.999  10.099   7.738  0.7777  0.5131  0.0620
  189MOL0     H24890   2.899  10.245   7.729  2.1682  0.7361  0.8700
  189MOL0     H24891   2.792   9.987   7.833 -0.3060 -0.1760 -0.0927
  189MOL0     H24892   2.714  10.151   7.834  2.4699  3.0503 -0.0208
  189MOL0     H24893   2.802  10.006   7.585 -0.6822 -1.5106  2.0190
  189MOL0     H24894   2.722  10.171   7.602  0.3995  0.9267  1.3143
  189MOL0     H24895   2.537  10.065   7.727  3.0363 -0.4153  0.5449
  189MOL0     H24896   2.600   9.901   7.694 -0.3450  0.1468  0.6399
  189MOL0     H24897   2.555  10.086   7.466 -3.4374  1.0862 -1.2624
  189MOL0     H24898   2.543   9.915   7.457  2.2868  1.9674 -2.6849
  189MOL0     H24899   2.316  10.070   7.447  1.1965  0.8465 -1.1116
  189MOL0     H24900   2.347  10.092   7.618 -1.3644 -0.1751 -0.7915
  189MOL0     H24901   2.226   9.840   7.376 -0.8654  3.9125  1.7463
  189MOL0     H24902   2.070   9.650   7.400  2.8746  2.3021 -0.6163
  189MOL0     H24903   2.043   9.570   7.558 -1.4590  3.3355  1.8235
  189MOL0     H24904   2.266   9.503   7.354  1.4255 -0.4987 -0.1509
  189MOL0     H24905   2.118   9.407   7.386 -2.2309  2.0305 -0.0450
  189MOL0     H24906   2.190   9.365   7.618  0.2338 -2.5473 -0.7924
  189MOL0     H24907   2.290   9.293   7.486 -0.3045 -0.5715 -0.3226
  189MOL0     H24908   2.354   9.471   7.700  3.1174  0.9898  0.1708
  189MOL0     H24909   2.406   9.545   7.548  0.5314  1.9779  5.1322
  189MOL0     H24910   2.575   9.616   7.673 -1.8390 -1.5082  1.6038
  189MOL0     H24911   2.751   9.674   7.835 -3.3161  0.7144 -1.8637
  189MOL0     H24912   3.159   9.287   8.130  3.2015 -1.8510  1.6467
  189MOL0     H24913   3.390   9.353   8.221  0.2036 -0.0093 -0.3114
  189MOL0     H24914   3.660   9.375   8.215 -0.8547  0.6352 -1.3313
  189MOL0     H24915   3.543   9.484   8.305  1.4706  1.0036  0.7941
  189MOL0     H24916   3.756   9.523   8.380  3.6463 -0.2828 -0.7465
  189MOL0     H24917   3.685   9.661   8.294 -1.4897 -0.9737  0.5054
  189MOL0     H24918   3.825   9.602   8.116  0.1141  1.0350 -0.8328
  189MOL0     H24919   3.891   9.458   8.190 -0.3573  0.7359 -2.9862
  189MOL0     H24920   3.938   9.750   8.277  3.7529  1.1658 -0.8773
  189MOL0     H24921   3.985   9.613   8.376 -3.3685  1.0051  0.9501
  189MOL0     H24922   4.090   9.677   8.094 -0.9041 -3.5314 -1.7764
  189MOL0     H24923   4.132   9.540   8.190  0.2969 -0.0354 -0.6355
  189MOL0     H24924   4.236   9.700   8.361  1.7543  1.4535  1.1842
  189MOL0     H24925   4.184   9.837   8.271 -1.1812  0.0471 -0.8659
  189MOL0     H24926   4.370   9.626   8.150 -0.9325 -0.5733  0.2253
  189MOL0     H24927   4.311   9.785   8.083 -0.4972 -1.1295  0.0701
  189MOL0     H24928   4.490   9.755   8.312 -0.2371 -0.2702 -0.0342
  189MOL0     H24929   4.429   9.914   8.249  0.0253  0.1996 -0.7497
  189MOL0     H24930   3.432   9.640   7.912  0.3483 -1.6263 -0.7820
  189MOL0     H24931   3.184   9.572   7.824 -2.7945 -0.8786  0.5947
  189MOL0     H24932   2.846   9.255   7.864 -1.4712 -1.0751  1.6553
  189MOL0     H24933   2.643   9.211   7.712 -0.8927  1.3883 -0.5229
  189MOL0     H24934   3.364  10.196   7.923 -1.6069 -0.2621  1.6386
  189MOL0     H24935   3.591  10.297   7.933 -0.6151 -1.1839  2.0873
  189MOL0     H24936   3.959  10.467   8.176  0.2965  1.3617  1.8182
  189MOL0     H24937   4.157  10.588   8.197  0.2225  4.7875  2.2439
  189MOL0     H24938   4.186  10.943   8.050 -2.1056 -1.9398 -1.7836
  189MOL0     H24939   4.285  10.921   7.901 -0.5475 -2.7471 -0.5094
  189MOL0     H24940   4.394  11.054   8.067  0.9641  0.7092  0.4329
  189MOL0     H24941   4.373  10.910   8.185  0.5739 -0.9042 -0.1248
  189MOL0     H24942   4.522  10.832   7.950  1.9520 -4.1639  2.0100
  189MOL0     H24943   4.527  10.791   8.118  2.7239  0.4168  1.2109
  189MOL0     H24944   4.667  10.967   8.181  1.6308 -2.5591  0.2646
  189MOL0     H24945   4.738  10.902   8.037  0.5648 -1.1098  1.1545
  189MOL0     H24946   4.636  11.303   7.938  2.2355  0.6047  0.2768
  189MOL0     H24947   4.063  10.812   7.837  2.2520  1.1210  0.7347
  189MOL0     H24948   3.843  10.695   7.829 -2.8027 -0.5596  1.8165
  190MOL0     O24949   6.429   6.275   4.112  0.0141 -0.0005  0.0036
  190MOL0     C24950   6.474   6.316   4.007 -0.4185  0.0049  0.6129
  190MOL0     O24951   6.398   6.327   3.892  0.3195  0.0634 -0.3981
  190MOL0     C24952   6.265   6.322   3.905 -0.3776  0.3114  0.0692
  190MOL0     C24953   6.181   6.420   3.953  0.7787 -0.3495  0.1030
  190MOL0     C24954   6.037   6.414   3.957 -0.4389 -0.2134  0.4939
  190MOL0     C24955   5.983   6.295   3.918  1.1962  0.9789  0.3560
  190MOL0     O24956   5.849   6.268   3.917  0.3114 -0.1956 -0.3825
  190MOL0     C24957   5.770   6.332   4.021 -0.1440 -0.0585  0.6921
  190MOL0     C24958   5.645   6.258   4.059  1.0083  0.4069  0.7276
  190MOL0     C24959   5.553   6.221   3.938 -0.2199  0.6983  0.0522
  190MOL0     C24960   5.456   6.121   3.989  0.1364 -0.0366  0.4317
  190MOL0     C24961   5.332   6.107   3.914 -0.0616 -0.2827  0.4839
  190MOL0     C24962   5.224   6.021   3.977 -0.8271  0.6250 -0.0366
  190MOL0     C24963   5.106   6.019   3.887  0.3016 -0.5213 -0.4124
  190MOL0     C24964   5.023   6.147   3.897  0.0302  0.7952 -0.2893
  190MOL0     N24965   5.010   6.201   4.035 -0.3525  0.9712 -0.2300
  190MOL0     C24966   5.047   6.326   4.077 -0.2022 -0.0463  0.1838
  190MOL0     C24967   5.009   6.334   4.208 -0.3665  0.7056  0.9495
  190MOL0     C24968   5.010   6.447   4.299  0.3957  0.2093  0.7361
  190MOL0     C24969   4.955   6.575   4.239  0.7547 -0.0774 -0.0076
  190MOL0     C24970   4.823   6.564   4.163 -0.1983 -0.1070 -0.3818
  190MOL0     C24971   4.746   6.698   4.144  0.1280 -0.1052 -0.3133
  190MOL0     O24972   4.655   6.690   4.248  0.3808 -0.2189 -0.0215
  190MOL0     C24973   4.533   6.752   4.237 -0.7703  0.5436  0.3126
  190MOL0     C24974   4.436   6.712   4.339 -0.2440  0.2465  0.4738
  190MOL0     C24975   4.312   6.777   4.327  0.4775 -0.4378 -0.6333
  190MOL0     C24976   4.274   6.873   4.239  0.6205  0.3812 -0.3721
  190MOL0     C24977   4.145   6.941   4.253 -0.0978 -0.3766 -0.0569
  190MOL0     O24978   4.060   6.902   4.344  0.3618 -0.1600 -0.1567
  190MOL0     C24979   3.934   6.961   4.361 -0.6958  0.0241 -0.9831
  190MOL0     C24980   3.927   7.100   4.369 -0.0663 -0.2356 -0.3521
  190MOL0     C24981   3.808   7.169   4.382 -0.0207  0.0338 -0.5979
  190MOL0     C24982   3.693   7.095   4.398  0.4163  0.7082  0.2477
  190MOL0     O24983   3.557   7.148   4.389  0.3146  0.1731 -0.5474
  190MOL0     C24984   3.541   7.290   4.400 -0.0704 -0.1442  0.2557
  190MOL0     C24985   3.398   7.320   4.356  0.6353 -0.5322 -0.9171
  190MOL0     C24986   3.366   7.462   4.370 -0.4289 -0.2831  0.4556
  190MOL0     C24987   3.215   7.477   4.330  0.1470  0.3178  0.2751
  190MOL0     C24988   3.174   7.624   4.348  0.3287 -0.4638 -0.1937
  190MOL0     C24989   3.026   7.645   4.337  0.0755 -0.2878  0.1689
  190MOL0     C24990   2.962   7.609   4.201  0.3853 -0.3273  0.1026
  190MOL0     C24991   2.823   7.542   4.241  0.0613 -0.6606 -1.1849
  190MOL0    Cl24992   2.729   7.500   4.095 -0.1980 -0.2039  0.1114
  190MOL0     C24993   3.698   6.955   4.388 -0.4464 -0.0759  0.3775
  190MOL0     C24994   3.822   6.889   4.366  0.4018  0.1606  0.4431
  190MOL0     O24995   4.123   7.019   4.161  0.1262 -0.0869 -0.1074
  190MOL0     C24996   4.369   6.902   4.138 -0.2520  0.5273 -0.5303
  190MOL0     C24997   4.493   6.846   4.140  0.6247  0.4220 -0.2533
  190MOL0     N24998   4.939   6.212   4.237  0.1746 -0.6597 -0.9346
  190MOL0     N24999   4.955   6.133   4.137 -0.2445 -0.5579  0.3780
  190MOL0     C25000   6.064   6.193   3.874 -0.0606 -0.1088  0.4309
  190MOL0     C25001   6.201   6.208   3.862 -0.7617  0.5142 -1.0946
  190MOL0     C25002   6.608   6.350   3.999  0.2494 -0.4711  0.2083
  190MOL0     C25003   6.697   6.332   4.108  0.4486  0.2251 -0.5295
  190MOL0     C25004   6.829   6.351   4.100  0.1078  0.2500 -0.1312
  190MOL0     C25005   6.881   6.396   3.980  0.5577 -0.3639 -0.0939
  190MOL0     O25006   7.020   6.413   3.987 -0.0664 -0.1809  0.0636
  190MOL0     C25007   7.082   6.489   3.879  0.3269  0.5322  0.5319
  190MOL0     C25008   7.119   6.414   3.741 -0.7924 -0.7653 -0.0400
  190MOL0     C25009   7.216   6.293   3.749 -0.2246  0.4523  0.0409
  190MOL0     C25010   7.332   6.320   3.847 -0.3376 -0.3295  0.7314
  190MOL0     C25011   7.428   6.417   3.779  1.8075  0.9470 -0.5768
  190MOL0     C25012   7.479   6.497   3.708  0.7581 -0.4469 -0.8488
  190MOL0     C25013   6.798   6.409   3.871 -0.2569  0.3714  0.0617
  190MOL0     C25014   6.661   6.389   3.878  0.0585  0.2236  0.0201
  190MOL0     H25015   6.232   6.514   3.973 -0.5784  0.8374 -1.6739
  190MOL0     H25016   5.978   6.503   3.976  1.9045  2.5204 -3.5705
  190MOL0     H25017   5.735   6.432   3.995 -1.6837 -0.5561  0.6882
  190MOL0     H25018   5.836   6.348   4.107  1.2610 -1.7427 -0.0223
  190MOL0     H25019   5.588   6.297   4.143  0.4043  1.0065  0.0500
  190MOL0     H25020   5.676   6.161   4.099 -1.9596 -0.5068  1.0010
  190MOL0     H25021   5.616   6.180   3.859 -0.3892  0.5260  0.0063
  190MOL0     H25022   5.506   6.304   3.885 -0.4551  0.9744  0.6854
  190MOL0     H25023   5.501   6.022   3.978 -1.6989 -0.7354 -1.3893
  190MOL0     H25024   5.430   6.150   4.091 -0.8083  1.5221 -0.2160
  190MOL0     H25025   5.359   6.069   3.814 -1.5408 -2.0454  0.6803
  190MOL0     H25026   5.280   6.202   3.901  2.0489  1.0437  1.4238
  190MOL0     H25027   5.210   6.050   4.081  1.3113  0.5468  0.3285
  190MOL0     H25028   5.266   5.921   3.993 -1.1191  0.8552  2.5858
  190MOL0     H25029   5.147   6.031   3.786  0.3467  3.5136 -0.0805
  190MOL0     H25030   5.045   5.929   3.899 -1.0161  0.3622 -0.2198
  190MOL0     H25031   4.921   6.123   3.864 -0.2629  1.7188 -0.0998
  190MOL0     H25032   5.048   6.234   3.835 -1.1271  0.9677 -0.5458
  190MOL0     H25033   5.097   6.398   4.012  1.2416  0.6413  1.9659
  190MOL0     H25034   5.114   6.468   4.323  0.3321  0.9617  0.3715
  190MOL0     H25035   4.959   6.418   4.392 -0.7836  0.3353  0.1465
  190MOL0     H25036   5.030   6.625   4.177 -0.3219  1.2167 -0.3142
  190MOL0     H25037   4.939   6.651   4.316  2.3038  1.6624 -1.3007
  190MOL0     H25038   4.844   6.525   4.063 -0.2515 -2.0484  0.3276
  190MOL0     H25039   4.757   6.489   4.207 -0.6926 -0.7005 -2.0401
  190MOL0     H25040   4.693   6.694   4.048 -0.4112 -0.5130 -0.0081
  190MOL0     H25041   4.817   6.780   4.159 -0.1496 -0.3045  2.5666
  190MOL0     H25042   4.449   6.640   4.418  3.4272  2.6798  2.3634
  190MOL0     H25043   4.233   6.738   4.391 -1.3396  3.0443 -0.5373
  190MOL0     H25044   4.007   7.167   4.338 -0.3233  0.7627  1.0210
  190MOL0     H25045   3.813   7.278   4.380  2.0421 -0.0107 -2.9664
  190MOL0     H25046   3.610   7.347   4.337 -0.0315  1.1093  1.3730
  190MOL0     H25047   3.567   7.327   4.500  1.1266  1.8179 -0.7020
  190MOL0     H25048   3.333   7.257   4.417 -0.4386  1.3910  0.0038
  190MOL0     H25049   3.377   7.298   4.251 -0.3052 -2.3170 -0.3997
  190MOL0     H25050   3.427   7.517   4.298 -0.3058  0.2447  0.9565
  190MOL0     H25051   3.382   7.497   4.472  1.2367 -3.6161  1.4690
  190MOL0     H25052   3.181   7.441   4.232 -2.5368  1.7625  0.5558
  190MOL0     H25053   3.165   7.415   4.405  1.1244  0.3191  0.9392
  190MOL0     H25054   3.222   7.679   4.267 -0.6415 -3.5007 -3.0815
  190MOL0     H25055   3.210   7.660   4.445 -1.9129  1.4693  0.0253
  190MOL0     H25056   2.997   7.744   4.373 -0.8496  0.4580 -2.4167
  190MOL0     H25057   2.988   7.579   4.416  0.8610  0.0405  0.8374
  190MOL0     H25058   2.937   7.700   4.147 -0.9543 -1.9770 -2.2126
  190MOL0     H25059   3.017   7.538   4.139 -0.3485 -0.7361 -0.0957
  190MOL0     H25060   2.756   7.611   4.294 -0.0614 -1.4951 -0.2442
  190MOL0     H25061   2.840   7.456   4.305 -1.1587  0.5377  0.8553
  190MOL0     H25062   3.609   6.894   4.404  2.8407 -4.2524  6.9196
  190MOL0     H25063   3.820   6.781   4.354 -0.7420  0.2344 -0.1728
  190MOL0     H25064   4.348   6.971   4.057 -0.1178 -1.6055 -2.5024
  190MOL0     H25065   4.562   6.888   4.067 -0.2668 -0.4147 -1.6183
  190MOL0     H25066   6.020   6.094   3.868 -1.7553  0.2822  3.7295
  190MOL0     H25067   6.259   6.119   3.838 -0.7691  0.4236 -0.7878
  190MOL0     H25068   6.667   6.304   4.209  2.1451  0.1576 -0.0057
  190MOL0     H25069   6.898   6.342   4.183 -0.7303  1.1255  0.6797
  190MOL0     H25070   7.165   6.546   3.922  0.5879  0.1544  0.5357
  190MOL0     H25071   7.013   6.566   3.844  3.1512  1.6246 -3.3791
  190MOL0     H25072   7.033   6.382   3.682  0.2396 -1.7014 -1.0724
  190MOL0     H25073   7.159   6.491   3.674 -2.1308 -0.8091 -0.9419
  190MOL0     H25074   7.254   6.267   3.650 -1.1348 -1.4513  0.1555
  190MOL0     H25075   7.157   6.209   3.785  1.1515 -0.2459  0.7381
  190MOL0     H25076   7.305   6.353   3.948 -1.8042  2.2600 -0.4059
  190MOL0     H25077   7.384   6.224   3.856 -1.3863 -0.8900  1.0708
  190MOL0     H25078   7.528   6.564   3.640 -0.0876 -0.3113 -1.3373
  190MOL0     H25079   6.835   6.445   3.775 -1.7125  0.2124 -0.5956
  190MOL0     H25080   6.611   6.401   3.783  2.6621 -0.1476 -1.4615
  191MOL0     O25081   0.962  10.734   0.199 -0.4007  0.6809 -0.3951
  191MOL0     C25082   1.041  10.795   0.130 -0.5957  0.0681 -0.3786
  191MOL0     O25083   1.006  10.903   0.062 -0.1358 -0.2453 -0.2965
  191MOL0     C25084   0.882  10.895  -0.002 -0.2878  0.2451  0.4309
  191MOL0     C25085   0.769  10.913   0.079  0.2325  0.8758 -0.4932
  191MOL0     C25086   0.646  10.889   0.016  0.2822  1.0160 -0.0632
  191MOL0     C25087   0.638  10.864  -0.124  1.1189 -0.2990 -0.5432
  191MOL0     O25088   0.505  10.855  -0.172  0.4561  0.3909  0.5495
  191MOL0     C25089   0.481  10.763  -0.279  0.1749 -1.0886  0.0022
  191MOL0     C25090   0.333  10.756  -0.301  0.1809 -0.5143  0.1767
  191MOL0     C25091   0.255  10.696  -0.181  0.5415 -0.0886  0.0855
  191MOL0     C25092   0.098  10.724  -0.209  0.0282 -0.0193  0.3142
  191MOL0     C25093  -0.004  10.707  -0.095 -0.0408  0.4378 -0.0739
  191MOL0     C25094  -0.114  10.812  -0.092  0.3778 -0.1473  0.7678
  191MOL0     C25095  -0.238  10.770  -0.175 -0.1217  0.1122 -0.2517
  191MOL0     C25096  -0.363  10.842  -0.113  0.4309  0.0134  0.0167
  191MOL0     N25097  -0.484  10.818  -0.183  0.6729  0.6939 -0.0286
  191MOL0     C25098  -0.514  10.855  -0.309 -0.2856  0.3566 -0.4639
  191MOL0     C25099  -0.648  10.820  -0.327  0.3133 -0.0098 -0.3300
  191MOL0     C25100  -0.711  10.837  -0.463 -0.0199  0.0202  0.2152
  191MOL0     C25101  -0.825  10.932  -0.478 -0.4350 -0.2253  0.0524
  191MOL0     C25102  -0.952  10.885  -0.398  0.6070 -0.1121 -0.4341
  191MOL0     C25103  -1.021  10.998  -0.320 -0.4622 -0.1431  1.1243
  191MOL0     O25104  -1.089  11.073  -0.420  0.7676 -0.0716  0.6555
  191MOL0     C25105  -1.137  11.192  -0.376  0.4046 -0.4140 -0.7852
  191MOL0     C25106  -1.175  11.222  -0.247 -0.0885 -0.2469 -0.3316
  191MOL0     C25107  -1.220  11.348  -0.212  0.6275  0.4624  0.5108
  191MOL0     C25108  -1.229  11.445  -0.306 -0.0369 -0.3032 -0.8533
  191MOL0     C25109  -1.294  11.572  -0.273 -0.5675 -0.5301  0.4574
  191MOL0     O25110  -1.286  11.673  -0.361  0.7795 -0.2262  0.4457
  191MOL0     C25111  -1.328  11.802  -0.328  1.1568 -0.7021  0.6019
  191MOL0     C25112  -1.256  11.887  -0.251 -0.2266 -0.2021 -0.7124
  191MOL0     C25113  -1.312  12.009  -0.224 -0.0418 -0.8749 -0.5399
  191MOL0     C25114  -1.436  12.051  -0.284 -0.7386 -0.6236  0.1768
  191MOL0     O25115  -1.484  12.179  -0.264 -0.6190  0.2657  0.0553
  191MOL0     C25116  -1.481  12.214  -0.125 -0.3382  0.1046  0.8291
  191MOL0     C25117  -1.550  12.355  -0.119 -1.0920  0.1873  0.0110
  191MOL0     C25118  -1.701  12.358  -0.116  0.5875 -0.6424  0.3236
  191MOL0     C25119  -1.760  12.501  -0.084  0.3418 -0.0247 -0.0303
  191MOL0     C25120  -1.924  12.506  -0.066 -0.9328  0.5455  0.4450
  191MOL0     C25121  -1.968  12.477   0.083 -0.4075  0.0846  0.5022
  191MOL0     C25122  -2.117  12.512   0.086 -0.4841 -0.3313 -0.1677
  191MOL0     C25123  -2.188  12.450   0.211 -0.1004 -0.8928 -0.6692
  191MOL0    Cl25124  -2.210  12.273   0.191 -0.0900 -0.0654 -0.1734
  191MOL0     C25125  -1.498  11.967  -0.374  0.3735 -0.6383  0.1395
  191MOL0     C25126  -1.446  11.845  -0.401  1.1706 -0.5793 -1.0055
  191MOL0     O25127  -1.328  11.587  -0.159  0.2104  0.3859 -0.6686
  191MOL0     C25128  -1.191  11.425  -0.439 -0.6335 -0.7945  0.0183
  191MOL0     C25129  -1.133  11.300  -0.470 -0.5285  0.1682  0.0992
  191MOL0     N25130  -0.696  10.766  -0.206  0.4930  0.3454 -0.5483
  191MOL0     N25131  -0.598  10.771  -0.118  0.2959  1.0770 -0.5993
  191MOL0     C25132   0.753  10.854  -0.200  0.0963  0.0605  0.1077
  191MOL0     C25133   0.872  10.857  -0.137 -0.1700 -0.4904 -0.5027
  191MOL0     C25134   1.183  10.765   0.143 -0.1506 -0.0861  0.2345
  191MOL0     C25135   1.268  10.802   0.044  0.0362  0.9691  0.2394
  191MOL0     C25136   1.408  10.778   0.059 -1.0415  0.7886 -0.1552
  191MOL0     C25137   1.459  10.707   0.164  1.0225  0.7095  0.3237
  191MOL0     O25138   1.583  10.652   0.175 -0.3439  0.1873 -0.2861
  191MOL0     C25139   1.683  10.715   0.094  0.1721 -0.0695 -0.6750
  191MOL0     C25140   1.816  10.645   0.105 -0.4204  0.1350  0.0659
  191MOL0     C25141   1.925  10.684   0.006 -0.3192 -0.7702  0.2769
  191MOL0     C25142   2.074  10.682   0.066  0.9451  0.4963 -0.0415
  191MOL0     C25143   2.106  10.551   0.110  0.0347 -0.0888 -0.3497
  191MOL0     C25144   2.131  10.440   0.152  0.2828 -0.5064 -0.0089
  191MOL0     C25145   1.369  10.678   0.269 -0.2409  0.6694  0.2316
  191MOL0     C25146   1.235  10.708   0.258 -0.0138  0.4375  0.1355
  191MOL0     H25147   0.751  10.937   0.184 -0.3181  1.2856 -0.6810
  191MOL0     H25148   0.555  10.891   0.075  2.4325 -1.4888  3.7789
  191MOL0     H25149   0.521  10.663  -0.261  2.5579 -0.5934 -2.0300
  191MOL0     H25150   0.533  10.785  -0.372  0.1060 -0.5664  0.0809
  191MOL0     H25151   0.311  10.704  -0.395  2.4882 -1.1369 -0.0964
  191MOL0     H25152   0.305  10.860  -0.286  0.0798 -0.6858  1.3418
  191MOL0     H25153   0.284  10.746  -0.088 -1.1871 -1.2405  1.3167
  191MOL0     H25154   0.268  10.588  -0.168 -3.7284 -0.6284  1.6293
  191MOL0     H25155   0.083  10.825  -0.248 -1.0542 -1.7905 -4.4695
  191MOL0     H25156   0.063  10.665  -0.293 -1.6022  1.5554 -0.1734
  191MOL0     H25157   0.053  10.708  -0.001  2.1827  0.0381 -1.3381
  191MOL0     H25158  -0.049  10.607  -0.093 -2.5112  1.4034 -2.3414
  191MOL0     H25159  -0.074  10.910  -0.118 -1.3764  1.0224  2.2679
  191MOL0     H25160  -0.146  10.819   0.012  1.5334 -1.4152  1.2455
  191MOL0     H25161  -0.221  10.806  -0.277 -1.1000  0.1490 -0.4062
  191MOL0     H25162  -0.253  10.662  -0.179  0.6768 -0.0197  0.1476
  191MOL0     H25163  -0.344  10.950  -0.110  0.2139  0.0849 -0.9315
  191MOL0     H25164  -0.385  10.806  -0.012 -1.9805 -0.0129 -0.4564
  191MOL0     H25165  -0.455  10.891  -0.392 -0.7539 -3.1937 -2.5348
  191MOL0     H25166  -0.762  10.746  -0.496  2.4352 -0.3721 -3.0747
  191MOL0     H25167  -0.630  10.846  -0.536  0.5031  3.1917  1.0204
  191MOL0     H25168  -0.853  10.935  -0.583 -0.2544 -2.1135 -0.0800
  191MOL0     H25169  -0.803  11.033  -0.441 -4.6808  0.4723  1.2826
  191MOL0     H25170  -1.023  10.843  -0.470  0.1997  0.5886 -0.4477
  191MOL0     H25171  -0.924  10.806  -0.328  1.3852 -1.3761 -2.0944
  191MOL0     H25172  -0.946  11.059  -0.270  1.3519 -1.6651  0.3841
  191MOL0     H25173  -1.087  10.956  -0.243 -0.1443  0.4413  1.7297
  191MOL0     H25174  -1.185  11.140  -0.177  0.1911  0.2105  0.2487
  191MOL0     H25175  -1.247  11.353  -0.108 -0.6246  1.9437  0.1572
  191MOL0     H25176  -1.161  11.847  -0.216 -0.7367 -1.0793 -0.3022
  191MOL0     H25177  -1.253  12.084  -0.172  0.7289 -0.0556 -2.5177
  191MOL0     H25178  -1.379  12.232  -0.089 -0.1600  3.0166 -0.7656
  191MOL0     H25179  -1.544  12.147  -0.066 -1.5356 -0.2671 -0.8034
  191MOL0     H25180  -1.511  12.422  -0.197 -1.5621  2.5306  1.6685
  191MOL0     H25181  -1.522  12.406  -0.026  1.6308 -2.9660  1.1341
  191MOL0     H25182  -1.743  12.298  -0.035  0.8894  0.5775  1.4215
  191MOL0     H25183  -1.737  12.324  -0.214  0.1856 -1.8835  0.8766
  191MOL0     H25184  -1.721  12.545   0.008 -0.0432  0.7913 -0.2453
  191MOL0     H25185  -1.723  12.565  -0.164 -0.9726  3.0752  1.6682
  191MOL0     H25186  -1.969  12.437  -0.138 -2.0872  1.9346 -0.2017
  191MOL0     H25187  -1.966  12.602  -0.098  0.2957  0.4871 -1.5353
  191MOL0     H25188  -1.919  12.541   0.157  1.5951  0.4865 -1.0804
  191MOL0     H25189  -1.947  12.373   0.109 -0.7247 -0.3299 -0.8006
  191MOL0     H25190  -2.133  12.618   0.104  0.0507 -0.5835  2.1277
  191MOL0     H25191  -2.164  12.485  -0.009  1.5395 -1.3534 -0.9497
  191MOL0     H25192  -2.279  12.506   0.229  0.2712  0.2216 -2.0246
  191MOL0     H25193  -2.118  12.463   0.294  2.6454 -1.5777 -2.7381
  191MOL0     H25194  -1.585  12.006  -0.427  1.9455 -1.0929 -2.9906
  191MOL0     H25195  -1.501  11.776  -0.465 -0.0240  1.6982 -2.5985
  191MOL0     H25196  -1.211  11.501  -0.514 -0.2755  0.7896  1.4818
  191MOL0     H25197  -1.093  11.278  -0.569  0.8704 -0.1002  0.7146
  191MOL0     H25198   0.744  10.821  -0.303 -0.5155  1.7978 -0.4288
  191MOL0     H25199   0.966  10.826  -0.183  0.5826  2.2628 -1.0119
  191MOL0     H25200   1.235  10.841  -0.051  1.9455 -1.8476 -1.7230
  191MOL0     H25201   1.477  10.819  -0.015 -2.1734  1.6347 -0.7724
  191MOL0     H25202   1.685  10.822   0.120 -2.0412 -0.5780  2.0604
  191MOL0     H25203   1.646  10.706  -0.008 -1.4190  1.2432 -0.2541
  191MOL0     H25204   1.865  10.652   0.202 -0.8378 -3.6394  0.6971
  191MOL0     H25205   1.797  10.537   0.096 -2.0821  0.2068  2.1724
  191MOL0     H25206   1.909  10.786  -0.031  2.6270 -1.0007 -1.9704
  191MOL0     H25207   1.921  10.618  -0.081 -0.5415  0.4812 -0.7009
  191MOL0     H25208   2.154  10.723   0.004  2.4244  0.3426  1.6886
  191MOL0     H25209   2.081  10.741   0.158  3.3935  1.5888 -0.8507
  191MOL0     H25210   2.151  10.336   0.166  0.5618 -0.3685  0.6851
  191MOL0     H25211   1.411  10.621   0.351  2.3386  1.1336 -0.6465
  191MOL0     H25212   1.170  10.678   0.339 -0.0947  1.9468  0.6664
  192MOL0     O25213   8.778  11.114   4.251 -0.3901 -0.8345  0.5775
  192MOL0     C25214   8.735  11.227   4.238  0.5236  0.2001 -0.3199
  192MOL0     O25215   8.793  11.335   4.171 -0.0018  0.1455  0.1655
  192MOL0     C25216   8.915  11.311   4.113  0.5305  0.2896  0.0217
  192MOL0     C25217   8.931  11.229   4.002  0.8641 -0.3782 -0.6007
  192MOL0     C25218   9.058  11.218   3.951  0.5240 -0.9543  0.7598
  192MOL0     C25219   9.159  11.295   3.991 -0.6552  0.7986 -0.2768
  192MOL0     O25220   9.278  11.286   3.923 -0.8311 -0.1395 -0.0085
  192MOL0     C25221   9.324  11.416   3.873 -0.3346 -0.6753  0.1995
  192MOL0     C25222   9.350  11.399   3.725 -0.5100  0.1397  0.3305
  192MOL0     C25223   9.442  11.511   3.665  0.3403 -0.8173 -0.7297
  192MOL0     C25224   9.576  11.520   3.748 -0.3788 -0.3723 -0.5587
  192MOL0     C25225   9.701  11.594   3.681 -0.3940 -0.1476 -0.5158
  192MOL0     C25226   9.675  11.750   3.659 -0.6795  1.1022 -0.4988
  192MOL0     C25227   9.786  11.813   3.579 -0.3394  0.8114 -0.7544
  192MOL0     C25228   9.777  11.965   3.579 -0.1452 -0.4805  0.0864
  192MOL0     N25229   9.664  12.011   3.496  0.1002  0.4698 -0.0436
  192MOL0     C25230   9.539  12.016   3.532  0.0716 -0.5201 -0.0242
  192MOL0     C25231   9.481  12.079   3.428 -0.2122 -0.0731  0.2378
  192MOL0     C25232   9.339  12.119   3.439 -0.2394  0.6481 -0.1173
  192MOL0     C25233   9.343  12.266   3.466 -0.5012  0.7617  0.2036
  192MOL0     C25234   9.208  12.327   3.479 -0.4956 -0.0444  0.0884
  192MOL0     C25235   9.202  12.436   3.585  0.0676  0.0653  0.3693
  192MOL0     O25236   9.218  12.367   3.712 -0.2146  0.4689  0.0583
  192MOL0     C25237   9.114  12.387   3.800  0.0343 -0.7072 -0.2600
  192MOL0     C25238   9.029  12.286   3.827 -0.4032  0.5837 -0.2376
  192MOL0     C25239   8.926  12.302   3.916 -0.1923 -0.5733 -0.2857
  192MOL0     C25240   8.886  12.427   3.967  0.1827 -0.3895  0.2667
  192MOL0     C25241   8.750  12.452   4.038 -0.3285  0.1803 -0.2917
  192MOL0     O25242   8.653  12.359   4.013 -0.6691 -1.2362  0.0087
  192MOL0     C25243   8.520  12.379   4.037 -0.5214 -0.2022 -0.1710
  192MOL0     C25244   8.430  12.273   4.057 -0.6105  0.1543 -0.4037
  192MOL0     C25245   8.295  12.282   4.087  0.5570  0.3923  0.4561
  192MOL0     C25246   8.237  12.413   4.090  0.0306  0.1806  0.9909
  192MOL0     O25247   8.106  12.445   4.106  0.3731 -0.0811  0.3955
  192MOL0     C25248   8.011  12.347   4.140  0.3610 -0.2481 -0.1047
  192MOL0     C25249   7.873  12.411   4.147  0.2699 -0.2787  1.0072
  192MOL0     C25250   7.773  12.314   4.208  0.6753  1.0345 -0.3789
  192MOL0     C25251   7.625  12.361   4.193  0.3023  0.3198 -0.2777
  192MOL0     C25252   7.535  12.245   4.247 -0.4203  0.3462  0.2104
  192MOL0     C25253   7.384  12.264   4.221  0.2786 -0.5692  0.7382
  192MOL0     C25254   7.324  12.375   4.318 -0.1105  0.8162 -0.0556
  192MOL0     C25255   7.173  12.385   4.307 -0.6913 -0.1502 -0.1460
  192MOL0    Cl25256   7.085  12.483   4.424  0.3950  0.1078 -0.0101
  192MOL0     C25257   8.322  12.520   4.054  0.4167 -0.7490 -0.4072
  192MOL0     C25258   8.462  12.506   4.033 -0.3118 -0.1198 -0.4443
  192MOL0     O25259   8.740  12.550   4.107 -0.7502 -0.3622  0.1445
  192MOL0     C25260   8.980  12.535   3.955 -0.3060  0.5584  0.2792
  192MOL0     C25261   9.095  12.512   3.871  0.0652  0.8549 -0.1296
  192MOL0     N25262   9.570  12.089   3.322 -0.4432  0.4429  0.1773
  192MOL0     N25263   9.683  12.038   3.361 -0.4206 -0.0325 -0.6027
  192MOL0     C25264   9.147  11.377   4.098  0.5031 -0.3588 -0.1693
  192MOL0     C25265   9.026  11.378   4.162  0.6128  0.6306 -0.0352
  192MOL0     C25266   8.614  11.262   4.317 -0.4004 -0.0574 -0.4947
  192MOL0     C25267   8.577  11.189   4.430 -0.0774 -0.2622 -0.3417
  192MOL0     C25268   8.451  11.216   4.496  0.0008  0.5792 -0.7167
  192MOL0     C25269   8.374  11.326   4.448  0.2727  0.3340 -0.2483
  192MOL0     O25270   8.258  11.356   4.500  0.4175  0.0501  0.3993
  192MOL0     C25271   8.142  11.342   4.417  0.1751  0.9058 -0.2878
  192MOL0     C25272   8.121  11.197   4.377 -0.3918 -0.3833 -0.7027
  192MOL0     C25273   7.985  11.166   4.314  1.2140  1.2718 -0.5552
  192MOL0     C25274   7.872  11.162   4.427 -1.2901 -0.8751  0.4774
  192MOL0     C25275   7.809  11.289   4.424 -0.3746 -1.4562 -0.4288
  192MOL0     C25276   7.761  11.397   4.419  0.7954 -0.4239 -0.0807
  192MOL0     C25277   8.426  11.412   4.346  0.0166  0.6638 -1.2827
  192MOL0     C25278   8.543  11.374   4.278 -0.5788 -0.3706 -0.6533
  192MOL0     H25279   8.849  11.173   3.960 -1.1816  2.2423 -0.3496
  192MOL0     H25280   9.087  11.167   3.860  0.0410 -0.6597  0.4387
  192MOL0     H25281   9.416  11.444   3.925 -1.2397  0.3860  1.2692
  192MOL0     H25282   9.255  11.500   3.888 -0.3570 -1.0689  2.6074
  192MOL0     H25283   9.254  11.401   3.672 -0.1974  1.7301 -0.2167
  192MOL0     H25284   9.393  11.299   3.718 -1.9776 -0.7011  2.2253
  192MOL0     H25285   9.395  11.610   3.666  0.4043 -0.7875  0.7444
  192MOL0     H25286   9.456  11.488   3.559  0.1783  4.9867 -2.3677
  192MOL0     H25287   9.563  11.575   3.842 -0.3172 -0.1619 -0.6720
  192MOL0     H25288   9.609  11.417   3.763  2.9270  0.6991  0.6047
  192MOL0     H25289   9.722  11.545   3.586  1.6928  0.7607 -0.5824
  192MOL0     H25290   9.789  11.587   3.746 -0.3689  1.7226 -0.2895
  192MOL0     H25291   9.680  11.794   3.759  1.4011 -0.8279  0.3395
  192MOL0     H25292   9.585  11.776   3.603  0.3156  3.9469 -0.9532
  192MOL0     H25293   9.878  11.782   3.628 -0.4245 -2.5513 -2.4299
  192MOL0     H25294   9.788  11.771   3.477  1.2286 -0.3591 -0.2805
  192MOL0     H25295   9.875  12.007   3.556 -1.9542  3.4594 -1.2484
  192MOL0     H25296   9.768  11.994   3.685  0.2996 -0.5038  0.1331
  192MOL0     H25297   9.494  12.010   3.631  0.1142  1.6790  0.1761
  192MOL0     H25298   9.281  12.063   3.513 -0.2088  1.5744  0.6183
  192MOL0     H25299   9.297  12.087   3.343  3.0366 -0.8662 -1.1979
  192MOL0     H25300   9.396  12.317   3.384  1.1624  1.1519  1.4634
  192MOL0     H25301   9.401  12.288   3.555  1.7909 -0.7665 -0.8071
  192MOL0     H25302   9.172  12.367   3.383  2.3319  1.4116 -0.4638
  192MOL0     H25303   9.138  12.251   3.516 -0.2463  0.1528  0.9771
  192MOL0     H25304   9.103  12.482   3.575  0.0222  0.0290  0.6356
  192MOL0     H25305   9.286  12.505   3.571 -0.8665  0.9029 -1.3949
  192MOL0     H25306   9.031  12.195   3.766  0.9722  1.7628 -2.0817
  192MOL0     H25307   8.861  12.215   3.927 -0.6301 -0.0050  2.2507
  192MOL0     H25308   8.475  12.175   4.056  0.8612  0.8127 -1.4431
  192MOL0     H25309   8.235  12.192   4.098  0.2914  0.0774 -2.6407
  192MOL0     H25310   8.043  12.300   4.233 -0.4683 -3.5100 -1.3270
  192MOL0     H25311   8.020  12.262   4.071  0.9820  0.2930 -0.7083
  192MOL0     H25312   7.833  12.446   4.052  1.3835 -1.1639  0.1930
  192MOL0     H25313   7.873  12.500   4.211 -2.2350  0.0424  0.6929
  192MOL0     H25314   7.790  12.300   4.316  0.0787  0.1495 -0.3929
  192MOL0     H25315   7.778  12.212   4.171 -0.3821  0.2522  1.4853
  192MOL0     H25316   7.616  12.460   4.238  3.0619  2.0898 -3.1690
  192MOL0     H25317   7.610  12.382   4.087 -1.3632 -0.1031 -0.1427
  192MOL0     H25318   7.552  12.210   4.349 -1.3544 -1.5952 -0.2414
  192MOL0     H25319   7.567  12.156   4.191  1.3227  2.1178 -1.7579
  192MOL0     H25320   7.339  12.168   4.247 -1.2799  0.0808  0.5355
  192MOL0     H25321   7.363  12.292   4.117  0.1017 -2.3369  0.2662
  192MOL0     H25322   7.343  12.359   4.425 -2.7646 -0.7632  0.2825
  192MOL0     H25323   7.364  12.471   4.283 -1.4154  0.8670 -1.5392
  192MOL0     H25324   7.141  12.285   4.336 -0.9632  0.1893  0.7539
  192MOL0     H25325   7.146  12.415   4.205 -1.2627  2.0811  0.5951
  192MOL0     H25326   8.287  12.621   4.032  2.1303 -0.1556 -0.5851
  192MOL0     H25327   8.523  12.594   4.016  2.9880 -1.1224  4.2664
  192MOL0     H25328   8.948  12.634   3.988 -3.3280 -0.0395 -0.5330
  192MOL0     H25329   9.166  12.592   3.852 -0.5359  1.1395 -1.2404
  192MOL0     H25330   9.223  11.442   4.141  0.0491  1.3758 -1.8463
  192MOL0     H25331   9.012  11.430   4.256 -1.6216 -1.9295  1.1828
  192MOL0     H25332   8.638  11.102   4.451 -0.1667 -0.5845 -1.3469
  192MOL0     H25333   8.421  11.163   4.586 -1.2714  1.2754 -0.6984
  192MOL0     H25334   8.147  11.414   4.334  1.6747 -0.8403 -1.7861
  192MOL0     H25335   8.061  11.373   4.484 -1.1760 -0.8100 -1.0488
  192MOL0     H25336   8.194  11.172   4.300  1.1335  2.1081 -0.1638
  192MOL0     H25337   8.151  11.135   4.462 -0.7499 -1.7303 -1.5212
  192MOL0     H25338   7.964  11.067   4.273 -1.8744  2.4184 -2.0255
  192MOL0     H25339   7.972  11.238   4.233 -3.3676 -1.0180 -2.1937
  192MOL0     H25340   7.793  11.088   4.410  0.0688 -2.0213 -1.2180
  192MOL0     H25341   7.922  11.131   4.519 -0.3691 -2.5900 -0.5309
  192MOL0     H25342   7.705  11.488   4.412 -2.7780 -2.0013  4.0105
  192MOL0     H25343   8.361  11.493   4.317 -0.7383  0.2825 -0.6807
  192MOL0     H25344   8.577  11.430   4.192 -0.8340  2.1139  0.7853
  193MOL0     O25345   5.779   4.832   5.926 -0.0067  0.3986 -0.0299
  193MOL0     C25346   5.696   4.798   6.003  0.0621  0.0846 -0.7155
  193MOL0     O25347   5.713   4.785   6.138 -0.6980 -0.6576 -0.3818
  193MOL0     C25348   5.828   4.804   6.214 -0.2276  0.4033 -0.3269
  193MOL0     C25349   5.949   4.842   6.172 -0.9059  0.2415  0.0545
  193MOL0     C25350   6.060   4.848   6.252  0.0307  0.1265  0.0970
  193MOL0     C25351   6.054   4.813   6.386 -0.0722  1.0086 -0.3843
  193MOL0     O25352   6.151   4.824   6.474 -0.2464 -0.5960 -0.6179
  193MOL0     C25353   6.235   4.947   6.464  0.6946  1.0912  0.1910
  193MOL0     C25354   6.185   5.072   6.550 -0.6019  0.1877 -0.4420
  193MOL0     C25355   6.138   5.027   6.693  1.3266  0.4186  0.0405
  193MOL0     C25356   6.052   5.139   6.758 -0.1410 -0.4322 -0.0480
  193MOL0     C25357   6.047   5.123   6.916 -0.4058  0.3675  0.0266
  193MOL0     C25358   5.956   5.230   6.979  0.0793 -0.3724  0.1612
  193MOL0     C25359   5.959   5.238   7.136 -0.0423  0.3640 -0.3187
  193MOL0     C25360   5.954   5.098   7.210  0.3345 -0.2302 -0.8511
  193MOL0     N25361   5.819   5.037   7.191 -0.1547 -0.1959  0.1920
  193MOL0     C25362   5.790   4.937   7.101  0.1553 -0.0706 -0.1688
  193MOL0     C25363   5.655   4.917   7.112  0.3043  0.4667  0.0485
  193MOL0     C25364   5.572   4.814   7.046  0.9419  0.4406  0.4330
  193MOL0     C25365   5.564   4.828   6.888  0.4695  0.4813  0.0769
  193MOL0     C25366   5.498   4.705   6.807 -0.0746  0.0788  0.3176
  193MOL0     C25367   5.379   4.647   6.877  0.1453 -0.4090  0.2196
  193MOL0     O25368   5.319   4.562   6.782  0.0469  0.4513  0.0205
  193MOL0     C25369   5.179   4.564   6.787 -0.1244  0.4571  0.0904
  193MOL0     C25370   5.107   4.572   6.905  0.0824  0.0787 -0.9856
  193MOL0     C25371   4.968   4.577   6.902  0.2060  1.1412  0.0486
  193MOL0     C25372   4.907   4.567   6.782  0.3770  0.4953  0.0649
  193MOL0     C25373   4.761   4.555   6.776 -0.6952 -0.6253 -0.4463
  193MOL0     O25374   4.706   4.588   6.657 -0.1603 -0.3612  0.2476
  193MOL0     C25375   4.570   4.582   6.635 -0.7997  0.3751  0.1522
  193MOL0     C25376   4.487   4.470   6.679 -0.5904 -0.5876 -0.1202
  193MOL0     C25377   4.346   4.480   6.660 -0.4536  0.4210  0.2359
  193MOL0     C25378   4.294   4.593   6.586  0.2861  0.4980  0.5888
  193MOL0     O25379   4.159   4.610   6.546 -0.2983  0.0768 -0.2392
  193MOL0     C25380   4.073   4.494   6.573 -0.4771 -0.9266  0.2161
  193MOL0     C25381   3.930   4.533   6.528 -0.6456  0.1387 -0.1778
  193MOL0     C25382   3.823   4.493   6.638 -0.3660 -0.1780  0.9741
  193MOL0     C25383   3.688   4.510   6.568  0.7753 -0.8969 -0.4848
  193MOL0     C25384   3.571   4.507   6.663  0.4058 -0.5422  0.1871
  193MOL0     C25385   3.444   4.439   6.596  0.0998 -0.0749  0.2311
  193MOL0     C25386   3.374   4.533   6.488 -0.0835  0.2939  0.2312
  193MOL0     C25387   3.401   4.489   6.343  0.2046 -0.1770  1.4385
  193MOL0    Cl25388   3.541   4.580   6.276 -0.2945  0.6437 -0.2111
  193MOL0     C25389   4.383   4.698   6.543  0.9547  0.0784 -0.0320
  193MOL0     C25390   4.516   4.694   6.570  0.6463  0.6664  0.4025
  193MOL0     O25391   4.699   4.542   6.880  0.2760 -0.2228  0.2682
  193MOL0     C25392   4.974   4.570   6.660 -0.1451  0.0939  0.2199
  193MOL0     C25393   5.118   4.575   6.663  0.0986 -0.3122 -0.3183
  193MOL0     N25394   5.600   5.009   7.202 -0.0312 -0.3552 -0.0862
  193MOL0     N25395   5.700   5.080   7.245  0.3337  0.1006  0.3237
  193MOL0     C25396   5.941   4.767   6.440  0.2255  0.2554 -0.2577
  193MOL0     C25397   5.827   4.757   6.352  0.6420 -0.0555 -0.5873
  193MOL0     C25398   5.555   4.796   5.951 -0.2688 -0.6514  0.0046
  193MOL0     C25399   5.519   4.816   5.816 -0.3996 -0.8339  0.2571
  193MOL0     C25400   5.391   4.835   5.777 -0.3812  0.3216  0.4446
  193MOL0     C25401   5.284   4.826   5.861 -0.1062  0.3563  0.1813
  193MOL0     O25402   5.154   4.846   5.826 -0.1803  0.0176  0.2159
  193MOL0     C25403   5.127   4.872   5.684  0.7397 -0.4212 -1.0566
  193MOL0     C25404   4.974   4.881   5.682  0.4641 -0.1254 -0.4789
  193MOL0     C25405   4.907   5.007   5.747  0.0159  0.8985 -0.0152
  193MOL0     C25406   4.756   4.984   5.777  0.2204 -0.0164  0.0256
  193MOL0     C25407   4.684   4.981   5.657  0.1735  0.3003  0.4790
  193MOL0     C25408   4.615   4.961   5.558  0.8247 -0.1029 -0.0793
  193MOL0     C25409   5.313   4.801   5.990 -0.7061  0.3499  0.0104
  193MOL0     C25410   5.444   4.792   6.041  0.2649 -0.4143 -0.0298
  193MOL0     H25411   5.954   4.871   6.067  0.9145  0.0596  0.0622
  193MOL0     H25412   6.150   4.877   6.200 -1.1137  0.7794 -1.6161
  193MOL0     H25413   6.242   4.983   6.361  1.6747 -0.7891 -0.4364
  193MOL0     H25414   6.334   4.919   6.501 -0.4455 -0.9298  1.9226
  193MOL0     H25415   6.096   5.106   6.495 -1.0018  0.2654  0.2439
  193MOL0     H25416   6.265   5.145   6.560  0.8107 -1.4965  1.2973
  193MOL0     H25417   6.220   4.996   6.759  0.0743 -3.1470  0.1407
  193MOL0     H25418   6.075   4.938   6.685 -0.3342  1.1156  3.3780
  193MOL0     H25419   6.098   5.237   6.741 -1.5077  0.2817  0.1858
  193MOL0     H25420   5.951   5.144   6.716 -0.6393 -1.0806  1.0330
  193MOL0     H25421   6.151   5.122   6.952 -0.9641 -0.4250  1.7667
  193MOL0     H25422   6.011   5.024   6.942  2.5693 -0.6266  0.7388
  193MOL0     H25423   5.855   5.207   6.943  1.2319 -6.8472 -0.2084
  193MOL0     H25424   5.991   5.325   6.938  2.3373 -0.7264  1.1192
  193MOL0     H25425   6.040   5.300   7.175 -1.9489  2.9988 -0.2577
  193MOL0     H25426   5.874   5.288   7.183  0.9359 -0.0808  2.0352
  193MOL0     H25427   5.966   5.120   7.317  0.5681  0.2059 -0.9606
  193MOL0     H25428   6.038   5.038   7.173  2.4489  1.6298  0.6383
  193MOL0     H25429   5.868   4.883   7.047 -0.6334  0.2519 -1.6726
  193MOL0     H25430   5.469   4.828   7.081  0.7260 -0.6449  0.2701
  193MOL0     H25431   5.625   4.725   7.080  2.0122  0.8089 -0.2355
  193MOL0     H25432   5.671   4.835   6.866  0.5604 -3.0300 -1.2752
  193MOL0     H25433   5.515   4.922   6.862 -0.9586  0.5645  2.7156
  193MOL0     H25434   5.488   4.728   6.701  1.7015 -1.5699 -0.2752
  193MOL0     H25435   5.574   4.626   6.809 -0.1216 -0.0302  3.4302
  193MOL0     H25436   5.315   4.724   6.921  1.7094  1.2157 -0.2458
  193MOL0     H25437   5.415   4.592   6.965  1.3294 -0.7175 -0.4370
  193MOL0     H25438   5.165   4.564   6.996  0.0420  0.2150 -0.9479
  193MOL0     H25439   4.922   4.581   7.000 -1.0183  0.0956 -0.4607
  193MOL0     H25440   4.529   4.382   6.727 -0.1360 -0.1766  0.2497
  193MOL0     H25441   4.286   4.394   6.691  1.6339 -0.9472  0.7037
  193MOL0     H25442   4.067   4.478   6.681  1.8765 -2.5078  0.1957
  193MOL0     H25443   4.105   4.404   6.519  2.7852  0.6524 -0.7668
  193MOL0     H25444   3.905   4.490   6.431 -0.2562  0.6903 -0.5260
  193MOL0     H25445   3.932   4.640   6.504 -0.5696 -0.5243 -3.7000
  193MOL0     H25446   3.828   4.547   6.733  0.0619 -0.9618  1.4039
  193MOL0     H25447   3.833   4.386   6.660  0.0312 -0.0137  1.6053
  193MOL0     H25448   3.693   4.610   6.522  1.2432 -0.6866  0.0097
  193MOL0     H25449   3.672   4.443   6.484 -1.6977 -0.1936 -0.6442
  193MOL0     H25450   3.556   4.604   6.711 -0.7348  1.0500 -3.1347
  193MOL0     H25451   3.603   4.435   6.739  1.7368 -0.9092 -0.6942
  193MOL0     H25452   3.369   4.412   6.671 -2.3928  1.8534 -1.3932
  193MOL0     H25453   3.483   4.351   6.545  1.0239  2.1743 -3.2641
  193MOL0     H25454   3.269   4.536   6.518 -0.1497  2.7787 -0.0634
  193MOL0     H25455   3.412   4.636   6.482  0.9614 -0.1499 -4.0463
  193MOL0     H25456   3.312   4.513   6.285  1.7170 -1.1916 -1.5706
  193MOL0     H25457   3.420   4.382   6.330 -0.4115  0.1049 -4.3609
  193MOL0     H25458   4.337   4.770   6.476 -1.6305  1.2486  2.7539
  193MOL0     H25459   4.581   4.776   6.541  0.5078  0.7964  0.4545
  193MOL0     H25460   4.927   4.563   6.562  0.5829  0.2670 -0.1483
  193MOL0     H25461   5.180   4.568   6.574 -1.0943 -1.0222 -1.1309
  193MOL0     H25462   5.932   4.721   6.537  0.2413 -1.5694 -1.0886
  193MOL0     H25463   5.740   4.707   6.394 -0.4292  2.6665  0.7400
  193MOL0     H25464   5.596   4.832   5.741 -1.5611 -0.4300 -0.8882
  193MOL0     H25465   5.381   4.838   5.669 -0.2653 -1.3315  0.3740
  193MOL0     H25466   5.164   4.789   5.624 -2.1457 -0.3761 -3.1126
  193MOL0     H25467   5.163   4.967   5.643 -2.3215 -0.2009 -3.5624
  193MOL0     H25468   4.941   4.886   5.578 -1.4971 -1.8863 -0.0114
  193MOL0     H25469   4.915   4.793   5.706 -1.3870  0.5498 -2.2640
  193MOL0     H25470   4.930   5.095   5.687 -2.9372  0.7842 -1.4821
  193MOL0     H25471   4.948   5.030   5.846 -0.0364  0.7374  0.0437
  193MOL0     H25472   4.756   4.884   5.822 -0.9489  0.8335  2.0017
  193MOL0     H25473   4.719   5.064   5.841  0.5254 -1.0105  1.4969
  193MOL0     H25474   4.548   4.962   5.475  1.7920  0.0497 -0.8896
  193MOL0     H25475   5.229   4.805   6.058  1.0578  2.5110  2.2664
  193MOL0     H25476   5.462   4.777   6.147  1.0742 -1.6586 -0.3257
  194MOL0     O25477   9.036  10.093   2.910 -0.4605  0.7266  0.0359
  194MOL0     C25478   9.101   9.993   2.880  0.2845  0.2667 -0.1631
  194MOL0     O25479   9.048   9.870   2.838 -0.3467  0.4076 -0.3169
  194MOL0     C25480   8.923   9.869   2.791  0.4181 -0.4150  0.0014
  194MOL0     C25481   8.822   9.878   2.885  0.2433  0.2287 -0.5302
  194MOL0     C25482   8.693   9.847   2.855  0.3693 -0.5111 -0.4975
  194MOL0     C25483   8.649   9.828   2.721 -0.2107 -0.0095 -0.4694
  194MOL0     O25484   8.514   9.804   2.694  1.0885 -0.0996  0.5602
  194MOL0     C25485   8.479   9.754   2.570 -0.2990  0.1147 -0.6299
  194MOL0     C25486   8.328   9.770   2.565  0.7039 -0.1973 -0.1912
  194MOL0     C25487   8.254   9.665   2.644  0.6409 -0.2909  0.0195
  194MOL0     C25488   8.109   9.649   2.595 -0.4286  1.1370 -0.3141
  194MOL0     C25489   8.025   9.542   2.669 -0.2387  0.8449 -0.9239
  194MOL0     C25490   7.890   9.529   2.602 -0.5809  0.8028 -0.4946
  194MOL0     C25491   7.784   9.456   2.684  0.4314 -0.1067 -1.2040
  194MOL0     C25492   7.655   9.437   2.603 -0.4167 -0.0846  0.4502
  194MOL0     N25493   7.550   9.377   2.689 -0.3287  0.6475 -0.3156
  194MOL0     C25494   7.429   9.441   2.726 -0.5597 -0.0702 -0.4279
  194MOL0     C25495   7.387   9.374   2.841  0.1912  0.6573 -0.2924
  194MOL0     C25496   7.266   9.410   2.920  0.6647  0.2484 -0.3766
  194MOL0     C25497   7.148   9.319   2.875 -0.6183  0.0179  0.2277
  194MOL0     C25498   7.064   9.272   2.986  0.7124 -0.7487  0.2549
  194MOL0     C25499   6.970   9.380   3.044  0.4074 -0.1808 -0.2359
  194MOL0     O25500   6.905   9.338   3.162 -0.3339  0.3813 -0.3017
  194MOL0     C25501   6.767   9.362   3.153  0.3356 -0.0599 -0.1358
  194MOL0     C25502   6.680   9.253   3.144  0.2416 -0.5114 -0.6444
  194MOL0     C25503   6.535   9.276   3.134 -0.4594 -0.4972 -0.8825
  194MOL0     C25504   6.489   9.411   3.137  0.1478 -0.4804  0.5644
  194MOL0     C25505   6.340   9.438   3.149 -1.2895  0.7445  0.6899
  194MOL0     O25506   6.258   9.334   3.116 -0.0314  0.2075 -0.1649
  194MOL0     C25507   6.124   9.326   3.147 -0.5148 -0.2901  0.2867
  194MOL0     C25508   6.054   9.376   3.257 -0.8114 -0.3135 -0.2551
  194MOL0     C25509   5.922   9.361   3.284  0.1921 -0.3764  0.5001
  194MOL0     C25510   5.841   9.274   3.206  0.2725  0.2915 -0.1232
  194MOL0     O25511   5.710   9.239   3.248  0.8889 -0.7857  0.4391
  194MOL0     C25512   5.607   9.174   3.166 -0.0587  0.1194  0.4627
  194MOL0     C25513   5.530   9.285   3.103 -0.2842 -0.6248 -0.1176
  194MOL0     C25514   5.400   9.232   3.041 -0.3112 -0.4593  0.7822
  194MOL0     C25515   5.306   9.354   2.997 -1.2175  0.5650  0.2258
  194MOL0     C25516   5.181   9.294   2.926 -0.3232 -1.5551 -0.2690
  194MOL0     C25517   5.098   9.212   3.025 -0.3469 -1.0498  0.3021
  194MOL0     C25518   4.959   9.194   2.963  0.0945 -0.4404 -0.3964
  194MOL0     C25519   4.892   9.054   2.989 -0.4775 -0.2414 -0.1178
  194MOL0    Cl25520   4.997   8.912   2.935 -0.1695  0.0209 -0.9310
  194MOL0     C25521   5.900   9.218   3.095 -0.2384 -0.3596  0.5422
  194MOL0     C25522   6.033   9.245   3.067 -0.3682  0.3363  1.1806
  194MOL0     O25523   6.304   9.551   3.177  0.2582 -0.5850  0.0175
  194MOL0     C25524   6.587   9.514   3.140  0.7955  0.1503 -0.7902
  194MOL0     C25525   6.720   9.489   3.147  1.0734  0.3497 -0.1312
  194MOL0     N25526   7.465   9.264   2.855 -0.5227 -0.2381  0.3745
  194MOL0     N25527   7.558   9.263   2.762  0.4868 -0.4790  0.3051
  194MOL0     C25528   8.750   9.828   2.616  0.0017  0.0822 -0.9459
  194MOL0     C25529   8.886   9.847   2.659  0.5200  0.1917  0.7573
  194MOL0     C25530   9.243   9.993   2.898  0.6579 -0.2013  0.8006
  194MOL0     C25531   9.320  10.101   2.941 -1.2320 -0.6112  1.0026
  194MOL0     C25532   9.461  10.099   2.954  0.6558  0.0570 -0.3705
  194MOL0     C25533   9.529   9.979   2.930  0.1319 -0.4077  0.2934
  194MOL0     O25534   9.668   9.985   2.937 -0.0109 -0.4486  0.3978
  194MOL0     C25535   9.720   9.900   3.044  0.0578  0.1600  0.5817
  194MOL0     C25536   9.863   9.842   3.029  0.6701  0.0711 -0.1721
  194MOL0     C25537   9.966   9.932   2.953  0.9360 -0.0876 -0.7939
  194MOL0     C25538  10.097   9.863   2.945 -0.0377 -0.1135  0.0250
  194MOL0     C25539  10.204   9.950   2.917 -0.0407 -0.0798  0.1261
  194MOL0     C25540  10.302  10.016   2.898 -0.2033  0.1695  0.0161
  194MOL0     C25541   9.453   9.866   2.894 -0.9989 -0.4093 -0.5552
  194MOL0     C25542   9.317   9.871   2.884  0.1355 -0.5548 -0.5193
  194MOL0     H25543   8.850   9.888   2.990 -2.8319  0.0644  0.4077
  194MOL0     H25544   8.613   9.831   2.927  1.7332  3.2613  2.2463
  194MOL0     H25545   8.509   9.649   2.562 -1.3595 -0.2392 -0.0924
  194MOL0     H25546   8.523   9.818   2.493  2.6260  1.6126  2.0543
  194MOL0     H25547   8.301   9.765   2.459 -0.7251  0.0301  0.1444
  194MOL0     H25548   8.281   9.866   2.588 -0.4590 -0.2481 -2.1192
  194MOL0     H25549   8.254   9.676   2.752 -0.6412  2.9372 -0.1824
  194MOL0     H25550   8.301   9.568   2.626  2.8951  1.0983 -2.2058
  194MOL0     H25551   8.056   9.744   2.582 -2.2494  0.2476  0.3723
  194MOL0     H25552   8.110   9.600   2.497  0.9273 -0.4744  0.4573
  194MOL0     H25553   8.005   9.585   2.768 -4.0626  2.6697 -2.2897
  194MOL0     H25554   8.086   9.452   2.684 -1.9498  0.0966  2.7670
  194MOL0     H25555   7.901   9.460   2.518 -0.9307 -1.2699  1.0837
  194MOL0     H25556   7.857   9.627   2.566 -0.1552  0.9496 -0.4937
  194MOL0     H25557   7.820   9.357   2.715 -0.5175 -0.6725 -1.8460
  194MOL0     H25558   7.750   9.520   2.767  0.1870  0.4012 -1.6912
  194MOL0     H25559   7.671   9.387   2.507 -2.8072 -0.9318  0.4189
  194MOL0     H25560   7.620   9.535   2.568 -1.2466  0.2763  2.1739
  194MOL0     H25561   7.385   9.531   2.682  0.1909  2.1427  2.9782
  194MOL0     H25562   7.240   9.514   2.899  0.5918  0.3381  0.1446
  194MOL0     H25563   7.283   9.404   3.028  0.2400  0.9741 -0.2581
  194MOL0     H25564   7.189   9.231   2.825 -1.7255 -0.7788  0.6825
  194MOL0     H25565   7.095   9.372   2.796 -0.6058  0.5528  0.5701
  194MOL0     H25566   7.009   9.184   2.953  1.4149 -1.0625 -0.0829
  194MOL0     H25567   7.130   9.235   3.065 -1.1468  2.4560  3.6577
  194MOL0     H25568   6.894   9.407   2.969 -0.8537 -0.5052  0.8934
  194MOL0     H25569   7.038   9.462   3.067  1.0863 -0.0946 -2.2822
  194MOL0     H25570   6.727   9.157   3.161 -0.1437 -0.7709 -1.0087
  194MOL0     H25571   6.475   9.192   3.168 -1.9549  0.8392 -0.0957
  194MOL0     H25572   6.115   9.438   3.322 -1.0370  0.4329 -0.7420
  194MOL0     H25573   5.876   9.417   3.365  1.9269  0.8295  0.7172
  194MOL0     H25574   5.540   9.127   3.238  2.7216 -2.0293  1.8352
  194MOL0     H25575   5.656   9.094   3.110 -3.1345 -1.6558  0.0741
  194MOL0     H25576   5.603   9.331   3.035  1.1586  2.0766  2.9468
  194MOL0     H25577   5.509   9.359   3.181  0.5132  1.4182 -1.7418
  194MOL0     H25578   5.348   9.188   3.127  1.2693  0.6133  2.3608
  194MOL0     H25579   5.419   9.171   2.953 -0.2364  1.4218 -0.5538
  194MOL0     H25580   5.276   9.408   3.087 -0.8432 -2.1680  2.1413
  194MOL0     H25581   5.365   9.423   2.937 -1.1205 -0.1322 -0.5014
  194MOL0     H25582   5.215   9.233   2.843 -0.9373 -0.1688 -1.5999
  194MOL0     H25583   5.123   9.376   2.883  0.4352 -1.3153 -0.8493
  194MOL0     H25584   5.080   9.279   3.109 -3.4816  0.8476 -1.6830
  194MOL0     H25585   5.144   9.114   3.043 -0.7771 -1.3316 -0.1069
  194MOL0     H25586   4.893   9.274   2.998  2.5524  2.1547 -1.2916
  194MOL0     H25587   4.965   9.211   2.855 -0.0840 -0.3096 -0.3856
  194MOL0     H25588   4.800   9.052   2.931  0.0795 -1.3801 -0.9976
  194MOL0     H25589   4.863   9.054   3.094 -0.8619  1.6359 -0.1868
  194MOL0     H25590   5.837   9.162   3.026 -3.5859 -0.8745  3.6979
  194MOL0     H25591   6.079   9.210   2.976 -2.7997  4.9194 -2.2602
  194MOL0     H25592   6.551   9.617   3.141 -0.5009 -0.2768 -1.7726
  194MOL0     H25593   6.787   9.574   3.145  0.8500  0.5800  1.2355
  194MOL0     H25594   8.724   9.808   2.512 -1.4612 -0.3687 -0.5270
  194MOL0     H25595   8.961   9.823   2.584 -2.1221 -3.3146 -1.0649
  194MOL0     H25596   9.268  10.196   2.955 -3.3203 -1.1461 -2.0845
  194MOL0     H25597   9.519  10.189   2.972 -0.0985  0.8106 -1.6003
  194MOL0     H25598   9.665   9.807   3.060  0.3727  0.0588  1.1007
  194MOL0     H25599   9.717   9.967   3.130 -1.6906  0.7370  0.1130
  194MOL0     H25600   9.904   9.817   3.127  2.9878 -1.8385 -1.5241
  194MOL0     H25601   9.858   9.744   2.980  3.1887  0.2759 -0.9938
  194MOL0     H25602   9.979  10.024   3.011 -1.5592  2.3548 -3.8081
  194MOL0     H25603   9.920   9.958   2.858  0.5978  3.3610  0.1583
  194MOL0     H25604  10.122   9.805   3.035  1.4604  0.2799 -0.1078
  194MOL0     H25605  10.098   9.793   2.861 -2.3077  2.6680 -2.5345
  194MOL0     H25606  10.394  10.069   2.882  0.9195 -2.5513 -4.0687
  194MOL0     H25607   9.514   9.781   2.864  0.8025  0.7573 -0.3739
  194MOL0     H25608   9.265   9.776   2.871 -1.5402  0.0529  1.2650
  195MOL0     O25609   9.724   7.402  11.047 -0.3820  1.1272  0.0229
  195MOL0     C25610   9.629   7.328  11.034  0.5163 -0.1854  0.5608
  195MOL0     O25611   9.612   7.228  10.945  0.2518  0.1159  0.8630
  195MOL0     C25612   9.699   7.187  10.848 -1.3694  0.1260  0.8277
  195MOL0     C25613   9.834   7.226  10.835 -0.7881  0.9802 -0.2867
  195MOL0     C25614   9.914   7.180  10.732 -0.2402  0.1273 -0.4152
  195MOL0     C25615   9.869   7.084  10.641 -0.7815  1.0790  0.7870
  195MOL0     O25616   9.966   7.034  10.554  0.4265 -0.5499 -0.2057
  195MOL0     C25617   9.923   6.926  10.474 -0.3912 -0.1163  0.4259
  195MOL0     C25618  10.036   6.907  10.373  0.7423  0.1807  0.6241
  195MOL0     C25619   9.978   6.822  10.259  0.5708 -1.0950  0.4134
  195MOL0     C25620  10.083   6.803  10.145  0.6858 -0.4550 -1.0098
  195MOL0     C25621  10.038   6.708  10.032  0.7489  0.2454 -0.1911
  195MOL0     C25622  10.037   6.561  10.071 -0.0448 -0.5996  0.3239
  195MOL0     C25623   9.996   6.489   9.950 -0.1270  0.4171  0.3607
  195MOL0     C25624   9.956   6.350   9.978  0.2113  1.5191 -0.5690
  195MOL0     N25625   9.817   6.344  10.014  0.2881 -0.6154 -1.3990
  195MOL0     C25626   9.707   6.323   9.932  0.4505  0.1949 -0.0484
  195MOL0     C25627   9.602   6.329  10.018  1.0219 -0.3051 -0.1608
  195MOL0     C25628   9.457   6.287   9.982  0.2981  0.1177 -0.5355
  195MOL0     C25629   9.431   6.139   9.977  0.4821  0.5402  0.1926
  195MOL0     C25630   9.288   6.096   9.928 -0.0185  0.2180 -0.1887
  195MOL0     C25631   9.257   5.944   9.928  0.1566 -0.6280 -0.4456
  195MOL0     O25632   9.152   5.920   9.830 -0.7194  0.0153 -0.2276
  195MOL0     C25633   9.032   5.905   9.875  0.4346 -0.4381 -0.6372
  195MOL0     C25634   8.957   6.005   9.939  1.4315 -0.2574 -0.3462
  195MOL0     C25635   8.820   5.974   9.976  0.0168  0.4460  0.0276
  195MOL0     C25636   8.767   5.847   9.966 -0.1381 -0.4908 -0.3948
  195MOL0     C25637   8.638   5.825  10.022 -0.1401 -0.4191  0.3726
  195MOL0     O25638   8.565   5.931  10.036 -0.1441 -0.4589  0.3427
  195MOL0     C25639   8.438   5.922  10.059  0.8546  0.7031 -0.2853
  195MOL0     C25640   8.351   5.838   9.979 -0.1421 -0.4588  0.2879
  195MOL0     C25641   8.218   5.840  10.002 -0.5361  1.1765 -0.4770
  195MOL0     C25642   8.151   5.917  10.099  0.7438 -0.3620  0.2161
  195MOL0     O25643   8.023   5.910  10.126  0.6998  0.5089 -0.4074
  195MOL0     C25644   7.930   5.831  10.049 -0.6975 -0.4400  0.7300
  195MOL0     C25645   7.817   5.790  10.138  0.3744  0.1401 -0.3013
  195MOL0     C25646   7.715   5.890  10.175 -0.1644  0.9317  0.0863
  195MOL0     C25647   7.610   5.843  10.267 -0.2070 -0.6669 -0.0951
  195MOL0     C25648   7.488   5.944  10.288  0.4173  0.2394  0.3273
  195MOL0     C25649   7.392   5.949  10.171  0.3209  0.0074  0.4383
  195MOL0     C25650   7.300   6.062  10.213  0.2857 -0.7649 -0.1065
  195MOL0     C25651   7.212   6.092  10.090  0.5381  0.5471  0.1343
  195MOL0    Cl25652   7.102   5.953  10.074 -0.3463 -0.5557 -0.1309
  195MOL0     C25653   8.239   6.013  10.160  1.7854 -0.0058 -0.5753
  195MOL0     C25654   8.376   6.012  10.151  0.6527  0.6216  0.5031
  195MOL0     O25655   8.603   5.711  10.049  0.5972  0.0388 -0.1670
  195MOL0     C25656   8.839   5.751   9.897 -1.6597  0.3569 -0.2982
  195MOL0     C25657   8.969   5.785   9.852 -1.0011  0.9385 -1.0963
  195MOL0     N25658   9.650   6.342  10.145 -0.2736  1.2715 -0.8330
  195MOL0     N25659   9.782   6.345  10.147  0.1149  0.6185 -0.2852
  195MOL0     C25660   9.733   7.044  10.653 -0.5881  0.5095 -1.0149
  195MOL0     C25661   9.657   7.093  10.761 -0.3696  0.5711 -0.9055
  195MOL0     C25662   9.512   7.355  11.122 -0.0869  0.5154  0.0408
  195MOL0     C25663   9.420   7.260  11.144 -0.6133 -0.1700 -0.2378
  195MOL0     C25664   9.305   7.284  11.228  0.3304  0.5484  0.1792
  195MOL0     C25665   9.279   7.414  11.271  0.7431  0.5694  0.1855
  195MOL0     O25666   9.166   7.444  11.352 -0.5288 -0.0738  0.1457
  195MOL0     C25667   9.046   7.370  11.365  0.4642  0.2217  0.1375
  195MOL0     C25668   8.955   7.399  11.249 -0.9574  0.3727 -0.2935
  195MOL0     C25669   8.920   7.551  11.242  1.4811  0.2104  0.0714
  195MOL0     C25670   8.807   7.576  11.148 -0.1768  0.0527  0.2788
  195MOL0     C25671   8.762   7.712  11.144 -0.8324  0.0015  0.3067
  195MOL0     C25672   8.732   7.835  11.141 -0.0821 -0.1114  1.1188
  195MOL0     C25673   9.377   7.511  11.248  0.3377  0.7679 -0.2622
  195MOL0     C25674   9.486   7.483  11.170  0.0837 -0.5198 -0.1885
  195MOL0     H25675   9.880   7.295  10.906 -1.0059  3.0607 -2.0908
  195MOL0     H25676  10.019   7.204  10.743 -0.4373  0.2753  1.5662
  195MOL0     H25677   9.824   6.934  10.429 -0.9214 -6.2450 -0.4721
  195MOL0     H25678   9.929   6.835  10.536  2.7916 -1.3063 -1.3495
  195MOL0     H25679  10.114   6.849  10.424  0.8500 -1.5167 -1.3417
  195MOL0     H25680  10.076   7.002  10.335  2.1494  0.1519  1.9244
  195MOL0     H25681   9.888   6.868  10.219 -0.6362 -2.0959  1.8817
  195MOL0     H25682   9.938   6.726  10.292 -0.4222 -0.5074  0.9533
  195MOL0     H25683  10.113   6.900  10.103 -0.9838  1.3269  1.6057
  195MOL0     H25684  10.163   6.756  10.201  1.4487  1.1446 -0.7150
  195MOL0     H25685  10.110   6.717   9.950  1.6825 -4.4045 -0.1011
  195MOL0     H25686   9.944   6.744   9.989  1.6194 -0.4505 -2.9047
  195MOL0     H25687   9.954   6.537  10.137  1.0216 -3.6422  0.7032
  195MOL0     H25688  10.133   6.520  10.106  0.6738  0.5744 -0.2104
  195MOL0     H25689   9.910   6.533   9.900 -2.0854 -0.4464  2.7953
  195MOL0     H25690  10.078   6.490   9.877 -1.1659  0.9233 -0.8410
  195MOL0     H25691  10.024   6.302  10.049  0.0096 -0.0540 -1.3971
  195MOL0     H25692   9.963   6.285   9.891 -0.2604 -0.4484  0.7857
  195MOL0     H25693   9.701   6.292   9.828 -2.0788 -2.3049  0.7000
  195MOL0     H25694   9.434   6.327   9.883 -1.1077 -1.0072 -0.6879
  195MOL0     H25695   9.377   6.331  10.043  1.0153  0.8076 -0.0630
  195MOL0     H25696   9.443   6.094  10.076  0.0415 -2.4855 -1.0275
  195MOL0     H25697   9.507   6.097   9.909  0.5440 -0.6942  0.9900
  195MOL0     H25698   9.219   6.139  10.000  0.2864 -1.3338  1.0808
  195MOL0     H25699   9.268   6.140   9.829  0.8106 -0.6297 -0.7535
  195MOL0     H25700   9.234   5.914  10.030 -1.0633  1.7679  0.0316
  195MOL0     H25701   9.352   5.899   9.897 -0.0313  0.0174 -2.0656
  195MOL0     H25702   9.001   6.101   9.963  1.4096 -0.5226  0.8251
  195MOL0     H25703   8.759   6.054  10.016 -0.4590  0.2060 -0.2150
  195MOL0     H25704   8.397   5.786   9.896  1.3306  3.2079 -1.4072
  195MOL0     H25705   8.171   5.767   9.937 -0.7550 -0.9261  1.8817
  195MOL0     H25706   7.980   5.741  10.013  1.4693  1.9119 -2.8063
  195MOL0     H25707   7.897   5.895   9.967 -2.4270  0.3827  2.0003
  195MOL0     H25708   7.870   5.754  10.227  1.5715  0.8999 -0.6815
  195MOL0     H25709   7.767   5.706  10.089  3.5264 -0.8064 -2.1557
  195MOL0     H25710   7.672   5.929  10.082 -0.0750  1.5597  0.3042
  195MOL0     H25711   7.776   5.967  10.222  1.5000 -0.9192  1.1306
  195MOL0     H25712   7.570   5.747  10.236 -0.3261 -1.8437  3.2347
  195MOL0     H25713   7.658   5.826  10.365  2.4519  0.3159 -1.1302
  195MOL0     H25714   7.542   6.037  10.306  1.1975 -0.4563  1.7739
  195MOL0     H25715   7.437   5.922  10.382 -0.0102 -0.7766 -0.1256
  195MOL0     H25716   7.339   5.854  10.169 -0.3557  0.1616  4.1812
  195MOL0     H25717   7.449   5.979  10.082 -1.6092 -1.5052 -1.4063
  195MOL0     H25718   7.230   6.024  10.288 -0.1439 -1.8912 -1.0600
  195MOL0     H25719   7.357   6.147  10.251 -3.5844  0.4225  3.8848
  195MOL0     H25720   7.267   6.106   9.996 -3.1978 -0.1509 -2.3846
  195MOL0     H25721   7.155   6.185  10.100 -0.7460 -0.2823  0.8154
  195MOL0     H25722   8.189   6.073  10.236  1.4185  0.4536 -1.1691
  195MOL0     H25723   8.435   6.092  10.195 -0.2389  1.1085  0.8309
  195MOL0     H25724   8.786   5.656   9.890 -2.4902  0.7347  0.6731
  195MOL0     H25725   9.027   5.703   9.810  1.4543  0.5978  2.4842
  195MOL0     H25726   9.683   6.981  10.580 -0.4453 -0.8670  0.0209
  195MOL0     H25727   9.555   7.057  10.770  0.5873 -1.8065  3.0620
  195MOL0     H25728   9.430   7.158  11.107  2.0068 -0.9111  2.0866
  195MOL0     H25729   9.235   7.205  11.255  1.5046 -1.0569 -1.2685
  195MOL0     H25730   9.003   7.407  11.459 -3.8269 -0.4538 -1.3303
  195MOL0     H25731   9.067   7.263  11.363 -0.4498  0.0408 -1.8085
  195MOL0     H25732   9.005   7.368  11.157 -0.4518  1.7960 -0.5138
  195MOL0     H25733   8.868   7.334  11.268  0.5578 -2.0305 -1.1225
  195MOL0     H25734   9.009   7.609  11.218  2.4381 -1.7493 -1.4526
  195MOL0     H25735   8.895   7.586  11.342 -1.5485  0.3256 -0.6150
  195MOL0     H25736   8.845   7.546  11.050  0.4640 -1.2176  0.8756
  195MOL0     H25737   8.712   7.524  11.164  0.2538 -1.2586 -1.1689
  195MOL0     H25738   8.711   7.939  11.130 -0.7273 -0.3902 -0.4748
  195MOL0     H25739   9.370   7.612  11.287 -0.9280 -0.1326  2.0504
  195MOL0     H25740   9.545   7.570  11.142 -2.4360  0.7592 -1.9833
  196MOL0     O25741   0.745   1.977   7.124  0.2300 -0.5270  0.5020
  196MOL0     C25742   0.683   2.040   7.207  0.4842  0.1130  0.2210
  196MOL0     O25743   0.729   2.153   7.265  0.3179  0.2661  0.3229
  196MOL0     C25744   0.853   2.212   7.254 -0.5285 -0.5138 -0.4107
  196MOL0     C25745   0.961   2.124   7.271 -0.1162  0.5004 -0.2850
  196MOL0     C25746   1.091   2.164   7.235  0.6011  0.0516 -0.3065
  196MOL0     C25747   1.115   2.299   7.196  0.4788  0.5785  0.0753
  196MOL0     O25748   1.239   2.329   7.153  0.7877 -0.0624  0.1411
  196MOL0     C25749   1.305   2.422   7.233  0.0778 -1.1704 -0.0231
  196MOL0     C25750   1.422   2.472   7.148 -0.5459 -0.8429  0.0664
  196MOL0     C25751   1.515   2.540   7.231 -0.2859 -1.0482 -0.5772
  196MOL0     C25752   1.652   2.525   7.164  0.6074  0.6169  0.3068
  196MOL0     C25753   1.758   2.606   7.229 -0.7609  0.1941 -0.2445
  196MOL0     C25754   1.899   2.611   7.172  0.4270 -0.4146  0.6339
  196MOL0     C25755   1.997   2.684   7.263 -0.1754  0.0831 -0.3793
  196MOL0     C25756   1.985   2.841   7.253  0.6292  0.0918 -0.3447
  196MOL0     N25757   1.877   2.898   7.328 -0.4365 -0.3539 -0.3052
  196MOL0     C25758   1.839   2.879   7.465 -0.2206  0.4000  0.1207
  196MOL0     C25759   1.740   2.966   7.485 -0.1683  0.1616 -0.4896
  196MOL0     C25760   1.673   2.970   7.622  0.0758  0.9242  0.4925
  196MOL0     C25761   1.522   2.973   7.620 -0.5382 -1.0653 -0.0992
  196MOL0     C25762   1.470   2.833   7.624 -0.0360 -0.5566 -0.3191
  196MOL0     C25763   1.321   2.834   7.608 -0.2187  0.2906 -0.5734
  196MOL0     O25764   1.272   2.699   7.608 -0.1974  0.0139 -0.4098
  196MOL0     C25765   1.131   2.686   7.592  0.2807 -0.1785 -0.8538
  196MOL0     C25766   1.087   2.560   7.545 -0.0361  0.4116 -0.5120
  196MOL0     C25767   0.953   2.522   7.535  0.3326  0.2692 -0.1726
  196MOL0     C25768   0.852   2.621   7.574  0.6122  0.5786  0.2182
  196MOL0     C25769   0.709   2.604   7.556  0.6455  1.1090  0.1831
  196MOL0     O25770   0.623   2.692   7.615 -0.8038 -0.0429 -0.7632
  196MOL0     C25771   0.513   2.650   7.682 -0.0918  0.5929 -0.7432
  196MOL0     C25772   0.494   2.709   7.818 -0.0707  0.3961  0.7856
  196MOL0     C25773   0.367   2.694   7.874  0.4387  0.0638 -0.6545
  196MOL0     C25774   0.270   2.620   7.812  0.3502  0.0638 -0.7340
  196MOL0     O25775   0.150   2.608   7.859  0.8368  0.5878 -0.2239
  196MOL0     C25776   0.057   2.714   7.838 -0.9697 -0.6361 -0.3417
  196MOL0     C25777  -0.076   2.689   7.911 -0.1050  1.3398 -0.1309
  196MOL0     C25778  -0.156   2.576   7.837 -0.4212  0.5403  0.9989
  196MOL0     C25779  -0.269   2.527   7.927  0.0203  0.2680  1.4718
  196MOL0     C25780  -0.267   2.381   7.953 -0.1660 -0.0686  0.2654
  196MOL0     C25781  -0.406   2.331   7.983 -0.2557 -0.2785 -0.0125
  196MOL0     C25782  -0.462   2.380   8.118 -0.1836  0.2343  0.8733
  196MOL0     C25783  -0.601   2.307   8.140 -0.2156 -0.5728  0.7200
  196MOL0    Cl25784  -0.572   2.128   8.161 -0.3457 -0.4492  0.2611
  196MOL0     C25785   0.293   2.562   7.687 -0.4400  0.8859 -0.6663
  196MOL0     C25786   0.414   2.572   7.623 -0.5671  0.3105  0.6703
  196MOL0     O25787   0.677   2.503   7.488 -1.3584  0.1155  0.5819
  196MOL0     C25788   0.891   2.748   7.615 -0.3799 -0.4190  0.0666
  196MOL0     C25789   1.029   2.773   7.624 -1.0784  0.2001 -0.0365
  196MOL0     N25790   1.716   3.040   7.375  0.4957  0.2832  0.5142
  196MOL0     N25791   1.803   3.004   7.281  0.7110  0.4352 -0.3198
  196MOL0     C25792   1.006   2.385   7.217  0.6740 -1.4001  0.1443
  196MOL0     C25793   0.873   2.350   7.240 -0.2583  0.3038  1.0563
  196MOL0     C25794   0.547   1.998   7.245 -0.1721  0.1823 -0.4471
  196MOL0     C25795   0.478   1.901   7.172  0.2084 -0.8517 -0.2804
  196MOL0     C25796   0.346   1.865   7.214 -0.7914  0.0555 -0.8633
  196MOL0     C25797   0.284   1.920   7.335  0.4044  0.1507  0.0616
  196MOL0     O25798   0.152   1.905   7.355 -0.1665  0.5865  0.2727
  196MOL0     C25799   0.105   1.895   7.492 -1.8166 -0.1449 -0.1877
  196MOL0     C25800  -0.014   1.801   7.508 -0.0731 -0.5062 -0.3796
  196MOL0     C25801   0.013   1.652   7.479  0.5454 -0.1770  0.7847
  196MOL0     C25802   0.104   1.572   7.573  0.5548  0.5396  0.4916
  196MOL0     C25803   0.092   1.430   7.537  0.1403 -0.0180  0.3937
  196MOL0     C25804   0.079   1.313   7.522 -0.4678 -0.2036 -0.2274
  196MOL0     C25805   0.358   2.015   7.404  0.4222 -0.7058 -0.0956
  196MOL0     C25806   0.482   2.045   7.363  0.4533  0.5907  0.4845
  196MOL0     H25807   0.941   2.020   7.297 -0.9015  1.2650  2.4073
  196MOL0     H25808   1.178   2.101   7.247  1.3690  0.3893 -3.3767
  196MOL0     H25809   1.345   2.381   7.326  0.2759 -1.7055 -0.3435
  196MOL0     H25810   1.242   2.508   7.260 -2.2108 -3.0226  0.8310
  196MOL0     H25811   1.392   2.535   7.064  0.4075 -2.6063 -1.6804
  196MOL0     H25812   1.472   2.386   7.104 -2.8347 -1.3386 -1.7598
  196MOL0     H25813   1.523   2.499   7.332 -0.2680  0.5530  0.0943
  196MOL0     H25814   1.489   2.646   7.234 -2.7772 -1.5906  2.4893
  196MOL0     H25815   1.690   2.422   7.172  1.4794  1.0321  1.9056
  196MOL0     H25816   1.637   2.549   7.058 -0.1546  0.1047  0.2943
  196MOL0     H25817   1.764   2.582   7.335  1.8150 -2.6024 -0.8556
  196MOL0     H25818   1.734   2.711   7.215  1.9073  1.0875  1.1847
  196MOL0     H25819   1.891   2.645   7.068  1.1222 -1.5330  0.2021
  196MOL0     H25820   1.926   2.507   7.153 -0.3996 -0.4957 -0.1182
  196MOL0     H25821   1.979   2.654   7.367 -0.5107 -0.8936 -0.7122
  196MOL0     H25822   2.101   2.665   7.235 -0.9534 -0.9571 -2.7844
  196MOL0     H25823   1.977   2.877   7.150 -1.4537 -2.9974 -1.4215
  196MOL0     H25824   2.080   2.875   7.294 -0.9901  2.4891  1.6827
  196MOL0     H25825   1.887   2.821   7.543 -0.6917 -1.4270 -0.8748
  196MOL0     H25826   1.716   3.052   7.680  0.5117 -0.6410  2.4605
  196MOL0     H25827   1.693   2.878   7.677 -4.2653 -0.6572 -0.2316
  196MOL0     H25828   1.488   3.013   7.524 -0.8534 -0.1010  0.4044
  196MOL0     H25829   1.485   3.039   7.699  0.0655  0.6892 -1.2237
  196MOL0     H25830   1.515   2.774   7.544 -1.1975  0.5460 -1.8320
  196MOL0     H25831   1.510   2.784   7.713  1.4709  0.4894 -0.3947
  196MOL0     H25832   1.304   2.880   7.510  0.3274  2.2527  0.1952
  196MOL0     H25833   1.280   2.895   7.690 -0.5312 -0.0798 -0.4495
  196MOL0     H25834   1.162   2.485   7.522 -0.5831 -1.1472  2.2916
  196MOL0     H25835   0.921   2.430   7.487  0.3029  1.0560 -1.7422
  196MOL0     H25836   0.569   2.769   7.868  1.7717 -1.2068  0.0965
  196MOL0     H25837   0.338   2.751   7.961  0.5448  1.5069 -1.5368
  196MOL0     H25838   0.054   2.722   7.729  0.1509  0.9374 -0.2880
  196MOL0     H25839   0.099   2.812   7.865 -0.0799 -1.5238  1.7465
  196MOL0     H25840  -0.133   2.782   7.924  0.5132  1.7970 -0.6422
  196MOL0     H25841  -0.047   2.656   8.011  2.4048  1.8831 -0.6114
  196MOL0     H25842  -0.103   2.494   7.787 -1.6483  0.1120  0.3395
  196MOL0     H25843  -0.194   2.628   7.749  0.4235  1.8166  1.3668
  196MOL0     H25844  -0.258   2.583   8.020  3.3209  4.3176 -0.9906
  196MOL0     H25845  -0.367   2.555   7.888  1.4275  3.3534 -0.2045
  196MOL0     H25846  -0.190   2.357   8.028 -1.5889 -2.3921  1.0983
  196MOL0     H25847  -0.236   2.331   7.861 -0.7472  0.0862 -0.0139
  196MOL0     H25848  -0.409   2.223   7.966 -0.3696  0.0882 -2.7645
  196MOL0     H25849  -0.469   2.370   7.903  0.0006  0.8579  0.3340
  196MOL0     H25850  -0.381   2.363   8.190  0.0235  1.6938  1.0007
  196MOL0     H25851  -0.500   2.482   8.121  0.4032  0.5084 -0.4514
  196MOL0     H25852  -0.669   2.326   8.057  1.5476 -0.3119 -0.7196
  196MOL0     H25853  -0.647   2.354   8.228  2.2674 -0.7116  2.2146
  196MOL0     H25854   0.217   2.511   7.628  1.8713 -1.9984 -1.3805
  196MOL0     H25855   0.429   2.538   7.522 -2.4212 -3.1436  1.3979
  196MOL0     H25856   0.838   2.834   7.654 -0.7722 -0.3017 -0.7005
  196MOL0     H25857   1.066   2.869   7.657  1.5146  0.3193 -2.8282
  196MOL0     H25858   1.025   2.489   7.190 -0.5243 -1.8366 -2.7857
  196MOL0     H25859   0.784   2.410   7.228 -0.9389 -0.8461  0.2292
  196MOL0     H25860   0.532   1.863   7.086  1.1554  0.3904 -0.2724
  196MOL0     H25861   0.284   1.804   7.149 -1.5721  1.5426 -1.5644
  196MOL0     H25862   0.076   1.994   7.528 -2.4760 -1.4267  3.2567
  196MOL0     H25863   0.192   1.859   7.548 -1.8985 -1.4515 -0.8673
  196MOL0     H25864  -0.054   1.803   7.609  1.9413 -3.1165  0.5698
  196MOL0     H25865  -0.088   1.830   7.433  0.8947  1.5298 -0.6369
  196MOL0     H25866   0.045   1.632   7.376 -1.1420 -2.9866  0.6951
  196MOL0     H25867  -0.085   1.603   7.479  0.0207  0.7304 -1.4534
  196MOL0     H25868   0.208   1.606   7.570  1.1320 -0.6858  3.4342
  196MOL0     H25869   0.069   1.580   7.676  2.2300  1.6086  1.0195
  196MOL0     H25870   0.066   1.207   7.538  1.4776 -0.4472 -0.1132
  196MOL0     H25871   0.311   2.074   7.482  1.7786 -0.0818  0.2824
  196MOL0     H25872   0.529   2.125   7.419 -0.9507  4.1779 -2.9302
  197MOL0     O25873   1.479   9.459   5.032 -0.0610  0.1846  0.3020
  197MOL0     C25874   1.480   9.344   5.075 -0.3502 -0.2880  1.4061
  197MOL0     O25875   1.587   9.289   5.151 -0.0331 -0.2271  0.3099
  197MOL0     C25876   1.677   9.380   5.206 -0.4818 -0.2130  0.4686
  197MOL0     C25877   1.647   9.448   5.319 -1.0569  0.1002  0.8456
  197MOL0     C25878   1.751   9.525   5.380  0.6913 -0.2185 -0.4945
  197MOL0     C25879   1.873   9.530   5.325 -0.2769 -0.5778  0.0354
  197MOL0     O25880   1.968   9.615   5.385  0.0900  0.4702 -0.2040
  197MOL0     C25881   2.081   9.658   5.305 -0.9010 -0.3672 -0.3785
  197MOL0     C25882   2.172   9.713   5.411  0.4314 -0.1853  0.2170
  197MOL0     C25883   2.314   9.724   5.350 -0.8014  0.3623  0.0765
  197MOL0     C25884   2.422   9.749   5.450  0.3322 -0.2217 -0.2516
  197MOL0     C25885   2.552   9.795   5.385  0.5666  0.4365  0.0337
  197MOL0     C25886   2.675   9.804   5.475  0.0492 -0.1185  0.2994
  197MOL0     C25887   2.808   9.864   5.409  0.0135  0.2295 -0.4985
  197MOL0     C25888   2.902   9.866   5.526  0.5642  0.8755  0.3887
  197MOL0     N25889   3.036   9.908   5.483 -0.3162  0.7142  0.2560
  197MOL0     C25890   3.106  10.020   5.510  0.1408 -0.2006 -0.7319
  197MOL0     C25891   3.233   9.999   5.464  1.0032 -0.7484  0.3072
  197MOL0     C25892   3.352  10.095   5.469  0.4496 -0.6778 -0.3529
  197MOL0     C25893   3.487  10.015   5.485  0.8095  0.1445 -0.0140
  197MOL0     C25894   3.493   9.920   5.593  0.5068 -0.8509 -0.4355
  197MOL0     C25895   3.567   9.984   5.715  0.1246 -0.0531 -1.1780
  197MOL0     O25896   3.523  10.120   5.745  0.7238 -0.8601  0.0570
  197MOL0     C25897   3.403  10.130   5.811 -0.8577  0.2615 -0.2589
  197MOL0     C25898   3.344  10.027   5.886  0.0655  0.3155  0.5390
  197MOL0     C25899   3.218  10.055   5.945  0.3102  0.2666  1.0103
  197MOL0     C25900   3.167  10.187   5.946  0.4911 -0.3890 -0.1644
  197MOL0     C25901   3.038  10.201   6.006 -0.5147 -0.1450  0.2104
  197MOL0     O25902   2.942  10.260   5.931  0.5224  0.6447  0.5067
  197MOL0     C25903   2.816  10.257   5.978  0.1201 -0.3252  0.1282
  197MOL0     C25904   2.747  10.376   5.971 -0.2520  0.7733  1.0418
  197MOL0     C25905   2.612  10.375   6.005 -0.6199 -0.4300 -0.8511
  197MOL0     C25906   2.549  10.255   6.048 -0.2735 -0.1373 -0.0691
  197MOL0     O25907   2.416  10.247   6.063 -0.3582 -0.3279 -0.1471
  197MOL0     C25908   2.333  10.357   6.032 -0.0199 -0.9870 -0.3098
  197MOL0     C25909   2.183  10.318   6.061 -0.2313  0.1388  0.2407
  197MOL0     C25910   2.162  10.329   6.207  0.5111 -0.3751 -0.7167
  197MOL0     C25911   2.021  10.281   6.230 -0.2004  0.3224 -0.7462
  197MOL0     C25912   1.984  10.313   6.373 -0.1755  0.5078 -0.3812
  197MOL0     C25913   1.852  10.247   6.413 -0.1173  0.2633 -0.9844
  197MOL0     C25914   1.726  10.266   6.322 -0.4688  0.4938  0.2085
  197MOL0     C25915   1.619  10.171   6.371  0.3123  0.1549 -0.2433
  197MOL0    Cl25916   1.663  10.008   6.342 -0.3227  0.0296 -0.3897
  197MOL0     C25917   2.614  10.136   6.058 -0.1202  0.3286  0.2943
  197MOL0     C25918   2.754  10.139   6.030  1.4829  0.0260 -0.3598
  197MOL0     O25919   3.018  10.161   6.119 -0.9584 -0.2509 -0.2351
  197MOL0     C25920   3.223  10.283   5.857 -0.0128 -1.1918 -0.2855
  197MOL0     C25921   3.339  10.251   5.791  0.1031  0.1724  0.8588
  197MOL0     N25922   3.231   9.881   5.390  0.5396  0.0966  0.5291
  197MOL0     N25923   3.111   9.831   5.410 -0.6533  0.5753  0.4289
  197MOL0     C25924   1.894   9.472   5.198 -0.9209  0.3452 -0.0029
  197MOL0     C25925   1.801   9.389   5.143 -0.2962 -0.4957  0.4823
  197MOL0     C25926   1.378   9.259   5.023  0.5043  0.6622 -0.1921
  197MOL0     C25927   1.264   9.312   4.963  0.3043  0.9080  1.1078
  197MOL0     C25928   1.173   9.229   4.901  0.6564 -0.1617 -0.3315
  197MOL0     C25929   1.200   9.093   4.881 -0.4224 -0.1973 -0.0705
  197MOL0     O25930   1.120   9.007   4.814 -0.3152  0.3315  0.4420
  197MOL0     C25931   1.003   9.046   4.745  0.3654 -0.1716  0.5018
  197MOL0     C25932   1.046   9.086   4.604 -0.0065  0.3730 -0.5483
  197MOL0     C25933   1.080   8.962   4.516  0.0866  0.4369  0.6774
  197MOL0     C25934   1.114   8.994   4.372 -0.0481 -0.8672  0.0985
  197MOL0     C25935   1.132   8.875   4.286  0.1501  1.3742 -0.0784
  197MOL0     C25936   1.151   8.770   4.219 -0.3847  0.1777 -0.0704
  197MOL0     C25937   1.311   9.046   4.939  0.1142  0.7437  0.1157
  197MOL0     C25938   1.400   9.122   5.017 -0.5365 -0.2953  0.3151
  197MOL0     H25939   1.550   9.430   5.363 -1.5476 -0.0436 -0.2505
  197MOL0     H25940   1.735   9.583   5.470 -1.8549 -0.3571 -0.7686
  197MOL0     H25941   2.041   9.722   5.226  0.1591 -1.8947 -2.2685
  197MOL0     H25942   2.131   9.575   5.254 -0.6131 -0.2562 -0.2758
  197MOL0     H25943   2.173   9.641   5.493  0.4175 -0.9381 -0.4286
  197MOL0     H25944   2.135   9.807   5.451  3.0719  2.3559 -2.7561
  197MOL0     H25945   2.327   9.805   5.278 -2.3654  1.8423  1.3857
  197MOL0     H25946   2.347   9.626   5.313 -0.3268  0.8329 -0.7916
  197MOL0     H25947   2.397   9.826   5.524 -0.3412  0.3937 -1.0955
  197MOL0     H25948   2.433   9.653   5.502 -0.9810 -1.0882 -1.4748
  197MOL0     H25949   2.546   9.889   5.329 -1.0415  0.2851 -0.0812
  197MOL0     H25950   2.569   9.714   5.313 -1.3434 -0.1385  0.1894
  197MOL0     H25951   2.694   9.703   5.512 -0.0378  0.5574  2.3472
  197MOL0     H25952   2.643   9.873   5.553 -3.0009  0.2157 -1.1124
  197MOL0     H25953   2.856   9.806   5.329 -0.0895 -0.1791 -0.2648
  197MOL0     H25954   2.785   9.963   5.368 -0.4737  1.1128  1.7997
  197MOL0     H25955   2.912   9.765   5.567  1.7112  2.1299  3.4835
  197MOL0     H25956   2.864   9.926   5.609 -1.6310  0.9416 -0.5932
  197MOL0     H25957   3.079  10.101   5.577 -0.4289 -1.2441  0.3503
  197MOL0     H25958   3.326  10.175   5.539 -1.7068 -2.7581  1.4231
  197MOL0     H25959   3.354  10.135   5.367 -0.4762  0.8896  0.2161
  197MOL0     H25960   3.574  10.081   5.491  0.7998  0.0669  1.6189
  197MOL0     H25961   3.492   9.964   5.389 -0.2004 -0.7504  0.3852
  197MOL0     H25962   3.389   9.891   5.613  0.1601  1.2599  1.2456
  197MOL0     H25963   3.554   9.835   5.564  1.8472 -0.3572  0.8355
  197MOL0     H25964   3.672   9.991   5.684  0.7522 -3.1374 -0.0406
  197MOL0     H25965   3.574   9.917   5.801  2.0266  0.9323 -0.4991
  197MOL0     H25966   3.381   9.925   5.889 -3.2307 -1.0094  0.9847
  197MOL0     H25967   3.174   9.970   5.995  1.0713 -0.6682  0.1480
  197MOL0     H25968   2.789  10.461   5.918 -0.7997 -0.1856 -1.0381
  197MOL0     H25969   2.563  10.468   5.976 -1.0716 -0.7909 -1.2602
  197MOL0     H25970   2.356  10.376   5.926  2.8598 -0.1322  0.3640
  197MOL0     H25971   2.361  10.451   6.081  1.2954 -1.9969  0.9427
  197MOL0     H25972   2.176  10.212   6.035  1.0408 -0.3683  1.7817
  197MOL0     H25973   2.117  10.382   6.002 -1.0037 -0.1713  0.7446
  197MOL0     H25974   2.174  10.435   6.230 -1.9994 -0.2779  0.4746
  197MOL0     H25975   2.232  10.272   6.268  0.4890  0.9955  0.6392
  197MOL0     H25976   1.951  10.340   6.171  1.2088  0.6500 -2.1586
  197MOL0     H25977   2.004  10.177   6.202  1.0542  0.8254 -3.6658
  197MOL0     H25978   1.970  10.421   6.380 -1.8235  0.2245  4.0017
  197MOL0     H25979   2.063  10.284   6.442  1.4100 -1.2514 -2.7808
  197MOL0     H25980   1.837  10.305   6.505  0.8681  1.8114 -1.7559
  197MOL0     H25981   1.867  10.141   6.436  0.7878  0.2183 -1.7225
  197MOL0     H25982   1.701  10.371   6.307  1.2723  0.8518 -0.4390
  197MOL0     H25983   1.762  10.235   6.223  2.0343  0.3558  1.0810
  197MOL0     H25984   1.525  10.198   6.321  3.1277  4.4623 -4.0991
  197MOL0     H25985   1.592  10.191   6.475 -1.0154  0.0860 -0.5556
  197MOL0     H25986   2.560  10.043   6.071  0.7864 -0.7374 -2.7729
  197MOL0     H25987   2.808  10.045   6.035 -1.7765 -2.0003  0.1892
  197MOL0     H25988   3.176  10.380   5.839 -0.2220 -1.2854 -0.2433
  197MOL0     H25989   3.376  10.331   5.726 -4.0798  2.0843  0.5181
  197MOL0     H25990   1.980   9.493   5.135  0.7156 -2.9290  0.9221
  197MOL0     H25991   1.819   9.348   5.045 -0.6030 -0.9750  0.6234
  197MOL0     H25992   1.239   9.418   4.960  0.1025  0.8608 -2.2098
  197MOL0     H25993   1.080   9.276   4.869 -0.1834 -0.1703  1.9081
  197MOL0     H25994   0.946   9.125   4.794  1.7860 -0.3344  2.5478
  197MOL0     H25995   0.938   8.959   4.731 -0.0929  0.2255  0.1138
  197MOL0     H25996   0.963   9.144   4.564 -0.1057  0.7217  0.1361
  197MOL0     H25997   1.131   9.155   4.616 -0.7518  2.0428 -3.7873
  197MOL0     H25998   0.994   8.894   4.515  1.8364 -1.9239  0.9406
  197MOL0     H25999   1.157   8.905   4.569 -1.0310 -0.6097  1.2251
  197MOL0     H26000   1.025   9.044   4.333 -0.2923 -0.3898  1.2171
  197MOL0     H26001   1.201   9.060   4.366 -1.4368  0.9215 -1.8307
  197MOL0     H26002   1.170   8.685   4.157  0.7125 -0.5837  1.2507
  197MOL0     H26003   1.325   8.939   4.925  4.6923  1.1679  0.0674
  197MOL0     H26004   1.492   9.077   5.051 -1.1652 -0.1606  2.3271
  198MOL0     O26005   4.822   5.316   9.598  0.2932 -0.4232  0.4330
  198MOL0     C26006   4.915   5.241   9.606 -0.6985 -0.7778 -0.1916
  198MOL0     O26007   4.909   5.109   9.584  0.3368  0.2564  0.3819
  198MOL0     C26008   4.784   5.053   9.580 -1.0124  0.8297  0.3757
  198MOL0     C26009   4.693   5.081   9.686 -0.0398  0.1725  0.0424
  198MOL0     C26010   4.562   5.034   9.680  0.6081  0.4182 -0.4193
  198MOL0     C26011   4.522   4.935   9.585  0.1024  0.3472 -0.0826
  198MOL0     O26012   4.401   4.867   9.592 -0.4742 -0.1392 -0.0986
  198MOL0     C26013   4.294   4.948   9.632 -0.3749 -0.5294  0.1361
  198MOL0     C26014   4.162   4.868   9.632  0.6096 -0.3061 -0.8745
  198MOL0     C26015   4.123   4.846   9.488 -0.5509  0.2773  0.2119
  198MOL0     C26016   4.088   4.697   9.470  0.5685 -0.7592  0.4051
  198MOL0     C26017   3.959   4.660   9.550 -0.1834  0.0309 -0.1207
  198MOL0     C26018   3.902   4.532   9.486  0.1084 -0.7343 -0.2280
  198MOL0     C26019   3.777   4.495   9.564  0.1628  0.1989  0.4118
  198MOL0     C26020   3.703   4.374   9.494  0.1822 -0.6133 -0.3942
  198MOL0     N26021   3.586   4.318   9.566  0.5359  0.5027  0.1967
  198MOL0     C26022   3.582   4.267   9.690  0.8531 -0.0720 -0.6486
  198MOL0     C26023   3.454   4.249   9.722 -0.0282 -0.2354  1.1058
  198MOL0     C26024   3.410   4.175   9.847  0.2369  0.3609  0.5387
  198MOL0     C26025   3.361   4.269   9.965  0.1201  0.0553  0.6737
  198MOL0     C26026   3.437   4.404   9.967 -0.1211 -0.0205  0.1808
  198MOL0     C26027   3.347   4.519   9.907  0.2200  0.1017 -0.0122
  198MOL0     O26028   3.281   4.589  10.016 -0.5266  0.2780 -0.1076
  198MOL0     C26029   3.151   4.636   9.994  0.4454 -0.2998 -0.5560
  198MOL0     C26030   3.088   4.697  10.103 -0.9048  0.6427  0.1228
  198MOL0     C26031   2.954   4.745  10.089 -0.5446 -0.6010 -0.4293
  198MOL0     C26032   2.889   4.741   9.967 -0.5695 -0.1741  1.0152
  198MOL0     C26033   2.762   4.804   9.950  0.4745  0.3427 -0.0876
  198MOL0     O26034   2.711   4.780   9.825  1.3064 -0.3835  0.3370
  198MOL0     C26035   2.593   4.858   9.798 -0.0716  0.6544 -0.3914
  198MOL0     C26036   2.598   4.988   9.740 -0.5131 -0.0749 -0.5940
  198MOL0     C26037   2.486   5.066   9.731 -0.1417 -0.0073 -0.0419
  198MOL0     C26038   2.365   5.013   9.768 -0.7848  0.1479  0.1930
  198MOL0     O26039   2.244   5.064   9.749 -0.5327  0.1691 -0.1737
  198MOL0     C26040   2.233   5.175   9.667 -0.1846 -0.3696  0.6696
  198MOL0     C26041   2.084   5.201   9.645  0.8342  0.4062  0.1514
  198MOL0     C26042   2.050   5.314   9.552 -1.1975 -0.1947 -0.3810
  198MOL0     C26043   1.899   5.334   9.532 -0.0079  0.6028 -0.2729
  198MOL0     C26044   1.826   5.211   9.472  0.6407  0.2190 -0.6199
  198MOL0     C26045   1.696   5.251   9.411 -0.2330  0.5928 -0.2039
  198MOL0     C26046   1.630   5.134   9.343 -0.8730 -0.0732 -0.8558
  198MOL0     C26047   1.501   5.185   9.271  0.2857  0.2012  1.1483
  198MOL0    Cl26048   1.398   5.050   9.222 -0.0651 -0.2992 -0.0763
  198MOL0     C26049   2.350   4.890   9.819  0.2422 -0.1232  0.1033
  198MOL0     C26050   2.467   4.815   9.844 -0.2854  0.9484  0.4534
  198MOL0     O26051   2.699   4.848  10.045  0.1761 -0.2516  0.3341
  198MOL0     C26052   2.951   4.668   9.859 -0.0205  0.4325 -0.6101
  198MOL0     C26053   3.085   4.626   9.867  0.5996 -0.6257 -0.3210
  198MOL0     N26054   3.373   4.299   9.620  0.0962 -0.3405 -0.2079
  198MOL0     N26055   3.453   4.345   9.527 -0.6834 -0.0641 -0.2627
  198MOL0     C26056   4.618   4.900   9.493 -0.0135  0.0379 -0.1510
  198MOL0     C26057   4.737   4.967   9.480 -0.1871 -1.2171 -0.3089
  198MOL0     C26058   5.050   5.300   9.624 -0.0799  0.7062 -1.1027
  198MOL0     C26059   5.164   5.219   9.619  0.0506  0.1521 -0.2494
  198MOL0     C26060   5.296   5.277   9.618  0.7342 -0.0889  0.6331
  198MOL0     C26061   5.310   5.421   9.626  0.4430 -0.1618  0.5541
  198MOL0     O26062   5.431   5.491   9.644  0.7149  0.3014 -0.0436
  198MOL0     C26063   5.517   5.451   9.754 -0.5050  0.3879  0.8617
  198MOL0     C26064   5.469   5.515   9.885 -0.6810  0.0083 -0.3814
  198MOL0     C26065   5.577   5.511   9.993  0.0951  0.4076  0.5453
  198MOL0     C26066   5.547   5.590  10.115 -0.3708 -0.0307 -0.6293
  198MOL0     C26067   5.658   5.574  10.216  0.2982  0.7424 -0.0197
  198MOL0     C26068   5.754   5.538  10.286 -0.7277 -0.7558 -0.5529
  198MOL0     C26069   5.193   5.499   9.630  1.0585  0.5539  0.4793
  198MOL0     C26070   5.068   5.440   9.630  0.6241  0.4018  0.5324
  198MOL0     H26071   4.724   5.155   9.759  0.7429 -0.2967  0.1945
  198MOL0     H26072   4.497   5.076   9.756 -0.3850  0.9238 -1.5190
  198MOL0     H26073   4.297   5.040   9.574 -0.6865  0.3610  1.4930
  198MOL0     H26074   4.294   4.971   9.739 -1.9285  0.6217 -0.0808
  198MOL0     H26075   4.084   4.922   9.688  1.2575  2.9374 -2.8683
  198MOL0     H26076   4.185   4.776   9.686 -0.7261 -1.1678 -1.7195
  198MOL0     H26077   4.209   4.866   9.424  0.2036 -2.5840  0.1964
  198MOL0     H26078   4.035   4.910   9.475  0.6313  1.8840 -0.0768
  198MOL0     H26079   4.083   4.688   9.361 -1.4025  2.3022  0.1169
  198MOL0     H26080   4.174   4.640   9.504  0.9776 -0.5854 -0.3080
  198MOL0     H26081   3.884   4.740   9.544 -0.4671 -0.3290 -1.7192
  198MOL0     H26082   3.980   4.636   9.655  1.1019  0.9153 -0.1496
  198MOL0     H26083   3.968   4.446   9.496  2.0608  0.8682  1.6635
  198MOL0     H26084   3.882   4.540   9.379  2.6419 -2.8185 -0.9739
  198MOL0     H26085   3.791   4.461   9.667 -1.9191  0.7522  0.9248
  198MOL0     H26086   3.709   4.580   9.558 -1.4916 -1.1213 -1.0219
  198MOL0     H26087   3.773   4.291   9.481  1.0497  0.1091 -0.3829
  198MOL0     H26088   3.678   4.397   9.390  1.2258 -2.2104 -1.0443
  198MOL0     H26089   3.669   4.242   9.751  1.2587  0.1334 -1.1296
  198MOL0     H26090   3.498   4.130   9.894 -0.9737 -1.1090  1.4959
  198MOL0     H26091   3.338   4.096   9.825  2.5908 -0.9011 -3.9371
  198MOL0     H26092   3.383   4.219  10.060  1.5651 -2.0997 -0.7114
  198MOL0     H26093   3.255   4.287   9.949  0.6602  0.9591 -2.8114
  198MOL0     H26094   3.457   4.423  10.073  0.7466  2.2543 -0.3334
  198MOL0     H26095   3.533   4.388   9.916  0.0788 -2.3525  1.1507
  198MOL0     H26096   3.280   4.489   9.826  0.1175  0.6401 -0.1316
  198MOL0     H26097   3.421   4.582   9.856  0.3747 -2.4681 -3.2621
  198MOL0     H26098   3.143   4.706  10.196  4.0841 -0.2436 -2.4027
  198MOL0     H26099   2.903   4.802  10.166 -1.1791  0.8175 -1.8336
  198MOL0     H26100   2.694   5.025   9.706  0.1308  0.2203  1.4041
  198MOL0     H26101   2.495   5.168   9.697  1.5218  0.5304  1.8613
  198MOL0     H26102   2.287   5.165   9.573  1.3901  3.8146  0.9160
  198MOL0     H26103   2.275   5.263   9.717  0.5222  0.0289 -0.5755
  198MOL0     H26104   2.040   5.212   9.744 -1.8034  0.0800 -0.8982
  198MOL0     H26105   2.042   5.111   9.598 -1.5405  2.6184 -2.2702
  198MOL0     H26106   2.103   5.300   9.457  0.5535  2.6270  0.0270
  198MOL0     H26107   2.093   5.406   9.595 -0.1180 -1.3866  1.2175
  198MOL0     H26108   1.857   5.370   9.627  0.3437  1.1281 -0.3131
  198MOL0     H26109   1.880   5.407   9.453  0.3734 -1.6142 -2.5132
  198MOL0     H26110   1.812   5.142   9.556  3.2411  2.0486  1.4725
  198MOL0     H26111   1.886   5.157   9.398  2.0139 -0.3812  0.8600
  198MOL0     H26112   1.719   5.330   9.338 -1.0602 -1.2150 -2.5857
  198MOL0     H26113   1.633   5.293   9.489 -1.6517  0.1490 -1.0797
  198MOL0     H26114   1.703   5.093   9.272  1.3543 -1.1672  1.8638
  198MOL0     H26115   1.607   5.062   9.422  0.0552 -0.6113 -1.0575
  198MOL0     H26116   1.520   5.238   9.178 -0.3947 -2.1650 -0.4400
  198MOL0     H26117   1.454   5.254   9.342 -0.0391 -1.5228  2.7030
  198MOL0     H26118   2.249   4.860   9.848  0.0462  2.2571  2.1060
  198MOL0     H26119   2.470   4.710   9.871  0.0304  1.4167  2.3686
  198MOL0     H26120   2.891   4.648   9.771 -1.9722  1.7895  0.3283
  198MOL0     H26121   3.124   4.581   9.776  0.5472 -0.7941 -0.2601
  198MOL0     H26122   4.587   4.820   9.426  2.1590  0.5387 -1.8694
  198MOL0     H26123   4.805   4.946   9.399 -0.0207 -3.4165  0.3367
  198MOL0     H26124   5.136   5.115   9.604 -2.7755  1.0433 -1.9672
  198MOL0     H26125   5.381   5.209   9.621  1.4441  0.7779  0.4698
  198MOL0     H26126   5.613   5.499   9.733 -1.0031 -0.3831 -4.3780
  198MOL0     H26127   5.526   5.343   9.765 -0.4062  0.3455  0.3612
  198MOL0     H26128   5.432   5.618   9.875 -0.5356  0.0338 -0.7045
  198MOL0     H26129   5.391   5.443   9.910  1.1442 -2.6565 -1.8229
  198MOL0     H26130   5.663   5.557   9.944 -0.1451  2.6828  2.1168
  198MOL0     H26131   5.602   5.409  10.023  0.7830  0.0514 -1.1409
  198MOL0     H26132   5.533   5.691  10.076 -0.5149  0.2075  0.0211
  198MOL0     H26133   5.453   5.561  10.163 -0.9816 -0.5394 -2.0986
  198MOL0     H26134   5.843   5.537  10.346 -1.3238 -0.8778  0.3330
  198MOL0     H26135   5.216   5.605   9.628 -1.8715  1.3218  2.1241
  198MOL0     H26136   4.979   5.501   9.638  0.4341  0.3920 -1.1818
  199MOL0     O26137   0.305  10.406   8.769  0.0930  0.1991 -0.0164
  199MOL0     C26138   0.331  10.371   8.653 -0.5178  0.7455  0.1009
  199MOL0     O26139   0.269  10.272   8.579 -0.0870 -0.5356 -0.5624
  199MOL0     C26140   0.164  10.212   8.629  0.8346  0.3063 -0.2865
  199MOL0     C26141   0.133  10.174   8.764 -0.5584  0.6033 -0.5962
  199MOL0     C26142   0.015  10.102   8.794 -0.0199  0.4192  0.1229
  199MOL0     C26143  -0.076  10.067   8.694 -0.1922 -0.5844  0.0233
  199MOL0     O26144  -0.188   9.998   8.713 -0.1317 -0.5434  0.4230
  199MOL0     C26145  -0.315  10.066   8.695  0.0206 -0.6630  0.0838
  199MOL0     C26146  -0.418   9.975   8.618  0.1236  0.5167  0.2625
  199MOL0     C26147  -0.365   9.933   8.480  0.3076  1.2298  0.0523
  199MOL0     C26148  -0.465   9.832   8.405  0.7701  0.4188 -0.1542
  199MOL0     C26149  -0.484   9.687   8.464 -0.3150  0.3142 -0.2494
  199MOL0     C26150  -0.556   9.600   8.365 -0.2650  0.0080 -0.5710
  199MOL0     C26151  -0.592   9.461   8.405  0.0203 -0.0523 -0.5953
  199MOL0     C26152  -0.467   9.374   8.385  1.3026 -0.0476  0.3318
  199MOL0     N26153  -0.494   9.228   8.382 -0.8187  0.5941  0.3172
  199MOL0     C26154  -0.541   9.159   8.485 -0.8057  0.2509 -0.5475
  199MOL0     C26155  -0.553   9.031   8.444  0.4424  0.0898 -0.5373
  199MOL0     C26156  -0.622   8.915   8.514 -0.5002 -0.5370  1.1593
  199MOL0     C26157  -0.757   8.901   8.455 -0.8290 -0.2384 -0.5830
  199MOL0     C26158  -0.847   9.025   8.449  0.0330  0.9413  0.0397
  199MOL0     C26159  -0.998   8.989   8.442  1.0539  0.1047  0.4040
  199MOL0     O26160  -1.053   8.958   8.575 -0.7739  0.9734 -0.1282
  199MOL0     C26161  -1.193   8.966   8.600 -0.6273 -0.3396  0.4548
  199MOL0     C26162  -1.281   9.040   8.519 -0.8498  0.2879 -0.2803
  199MOL0     C26163  -1.414   9.039   8.547  0.2284  0.1758  1.3767
  199MOL0     C26164  -1.476   8.963   8.646  0.1848  0.4667 -0.1595
  199MOL0     C26165  -1.627   8.966   8.673 -0.5874 -0.6308 -0.2116
  199MOL0     O26166  -1.677   8.902   8.789 -0.1277  1.2324  0.4347
  199MOL0     C26167  -1.814   8.908   8.814 -0.1778  0.7744 -0.1687
  199MOL0     C26168  -1.899   8.800   8.817  0.5342 -0.4195  0.8003
  199MOL0     C26169  -2.038   8.822   8.854 -0.6890  0.0672  0.1074
  199MOL0     C26170  -2.084   8.947   8.892  0.6770 -0.3658  0.7607
  199MOL0     O26171  -2.215   8.963   8.941  0.4743  0.8160  0.2293
  199MOL0     C26172  -2.316   8.866   8.956 -0.6873  0.5630  0.4417
  199MOL0     C26173  -2.433   8.936   9.028 -0.2469  0.0874  0.3326
  199MOL0     C26174  -2.549   8.857   9.085 -0.2294  0.1545  0.0617
  199MOL0     C26175  -2.519   8.743   9.184  0.6595  0.6599 -0.6440
  199MOL0     C26176  -2.631   8.637   9.183  0.1961  0.7377 -0.8541
  199MOL0     C26177  -2.759   8.697   9.242  0.4901  0.3349 -0.2325
  199MOL0     C26178  -2.750   8.732   9.395  0.5257 -0.2561  0.4098
  199MOL0     C26179  -2.884   8.770   9.442  0.2056 -0.3638  0.2382
  199MOL0    Cl26180  -2.995   8.637   9.442 -0.2796  0.2612 -0.3240
  199MOL0     C26181  -2.000   9.055   8.891 -0.0038 -0.1743 -0.9687
  199MOL0     C26182  -1.867   9.033   8.855 -0.0141 -0.5812  0.0496
  199MOL0     O26183  -1.693   9.036   8.603  0.5328 -0.7088 -0.6558
  199MOL0     C26184  -1.387   8.892   8.728 -0.1993  0.1861  0.2218
  199MOL0     C26185  -1.247   8.896   8.703  0.1625 -1.0745 -0.7557
  199MOL0     N26186  -0.519   9.027   8.309  0.5533  0.4477  0.3134
  199MOL0     N26187  -0.485   9.143   8.274  0.1220 -0.4165 -0.1176
  199MOL0     C26188  -0.049  10.113   8.565 -0.1190  0.1308  0.0725
  199MOL0     C26189   0.069  10.179   8.533  0.6964  0.1297 -1.3098
  199MOL0     C26190   0.444  10.435   8.576 -1.1573  0.1970 -0.6521
  199MOL0     C26191   0.553  10.501   8.643 -0.3191 -0.1262  0.1233
  199MOL0     C26192   0.656  10.563   8.579  0.1065 -0.6195  0.0826
  199MOL0     C26193   0.659  10.556   8.439 -0.2793  0.2512  0.3021
  199MOL0     O26194   0.749  10.613   8.353 -0.2167 -0.1430  0.0970
  199MOL0     C26195   0.882  10.649   8.410  0.4194  0.2845  0.8669
  199MOL0     C26196   0.982  10.540   8.378 -0.3593  0.4576 -0.4467
  199MOL0     C26197   1.120  10.591   8.429  0.3874 -0.3758 -0.0723
  199MOL0     C26198   1.228  10.506   8.361  0.1379  0.2356  0.0802
  199MOL0     C26199   1.357  10.570   8.384 -0.4120 -0.1159 -0.0966
  199MOL0     C26200   1.468  10.622   8.401  0.6698 -0.0262 -0.4584
  199MOL0     C26201   0.564  10.483   8.373 -0.3405 -0.1047 -0.0696
  199MOL0     C26202   0.449  10.429   8.439  0.4468 -0.1281  0.0454
  199MOL0     H26203   0.196  10.197   8.850  1.0336 -2.0761 -0.9291
  199MOL0     H26204  -0.001  10.066   8.896 -0.8077  1.8283  0.5179
  199MOL0     H26205  -0.303  10.160   8.640 -0.6754 -0.3754  0.3979
  199MOL0     H26206  -0.347  10.096   8.796 -1.2529 -1.6813  0.0225
  199MOL0     H26207  -0.518  10.019   8.608  1.3566  3.1188 -2.0868
  199MOL0     H26208  -0.422   9.885   8.680  0.0025  1.0981  1.1220
  199MOL0     H26209  -0.268   9.882   8.482 -0.2422  0.0380 -1.4269
  199MOL0     H26210  -0.355  10.015   8.408  3.8451 -0.0671 -1.1566
  199MOL0     H26211  -0.557   9.890   8.401  1.7986  2.1230 -0.3456
  199MOL0     H26212  -0.432   9.818   8.302  0.4825  2.2871 -0.5363
  199MOL0     H26213  -0.548   9.689   8.553  0.7647 -1.1868  0.6189
  199MOL0     H26214  -0.386   9.649   8.495 -0.3247 -0.1316 -0.7456
  199MOL0     H26215  -0.508   9.600   8.266 -1.5127 -2.9102 -1.2565
  199MOL0     H26216  -0.655   9.646   8.357 -1.3005 -2.2218 -1.2706
  199MOL0     H26217  -0.628   9.455   8.509  2.0343  0.6561  0.1787
  199MOL0     H26218  -0.678   9.436   8.342  0.5585 -1.9637 -0.6363
  199MOL0     H26219  -0.394   9.398   8.462  1.1773  3.0942 -0.4102
  199MOL0     H26220  -0.408   9.403   8.297  4.2882  2.4757  2.9374
  199MOL0     H26221  -0.562   9.186   8.588  0.6998 -2.7748  0.7051
  199MOL0     H26222  -0.623   8.953   8.617  0.0209  1.8475  0.3334
  199MOL0     H26223  -0.558   8.827   8.507  3.1027  1.9858 -0.3800
  199MOL0     H26224  -0.793   8.823   8.523  3.6542  0.9333  3.6330
  199MOL0     H26225  -0.735   8.854   8.359  3.5449  3.1136 -1.5331
  199MOL0     H26226  -0.835   9.086   8.539  0.2646  1.2841 -0.2184
  199MOL0     H26227  -0.820   9.092   8.366  1.1053  0.7636  0.2338
  199MOL0     H26228  -1.014   8.905   8.373 -0.7877  2.3234 -2.0565
  199MOL0     H26229  -1.055   9.076   8.408  2.0649  0.3355 -0.7314
  199MOL0     H26230  -1.231   9.111   8.454  2.4232 -1.7146 -0.1800
  199MOL0     H26231  -1.479   9.103   8.488 -0.1001 -0.9586  0.4861
  199MOL0     H26232  -1.871   8.698   8.793  3.5795  0.5288 -0.0375
  199MOL0     H26233  -2.106   8.737   8.858 -1.5813  0.5768 -2.1927
  199MOL0     H26234  -2.274   8.781   9.012  0.1184  1.0489  0.5831
  199MOL0     H26235  -2.357   8.820   8.866 -0.9461 -1.1846  1.3926
  199MOL0     H26236  -2.471   9.007   8.954 -1.1905 -0.1648  0.5621
  199MOL0     H26237  -2.393   8.990   9.114 -1.5214  1.6364 -0.0089
  199MOL0     H26238  -2.609   8.819   9.002  2.3243  0.0726 -1.8823
  199MOL0     H26239  -2.613   8.929   9.136 -0.1312  1.5213 -1.6675
  199MOL0     H26240  -2.425   8.698   9.150  0.0988 -1.2100  0.1443
  199MOL0     H26241  -2.505   8.788   9.282 -0.2059 -3.2292  1.4822
  199MOL0     H26242  -2.597   8.555   9.248 -3.1589  1.3941  2.0046
  199MOL0     H26243  -2.647   8.589   9.086 -2.5144 -2.0496  0.7769
  199MOL0     H26244  -2.840   8.625   9.227  1.0559 -0.6808  1.3975
  199MOL0     H26245  -2.781   8.783   9.178  2.5996  0.4397 -0.8940
  199MOL0     H26246  -2.703   8.654   9.456  1.1752  1.0495  1.6249
  199MOL0     H26247  -2.677   8.813   9.397  1.6780 -1.2231 -0.7942
  199MOL0     H26248  -2.924   8.852   9.383  0.0794 -1.4013 -1.1604
  199MOL0     H26249  -2.867   8.787   9.549  1.2956 -0.7522  0.1376
  199MOL0     H26250  -2.042   9.147   8.930  3.5286  1.5029 -0.6708
  199MOL0     H26251  -1.804   9.121   8.852  1.5611 -1.6899 -0.4431
  199MOL0     H26252  -1.427   8.835   8.811 -0.2008 -0.9389 -0.5393
  199MOL0     H26253  -1.188   8.846   8.779 -0.1198 -0.1454  0.1020
  199MOL0     H26254  -0.115  10.102   8.479 -1.6219  2.3567  0.8556
  199MOL0     H26255   0.101  10.217   8.437  0.5528 -2.3765 -2.4207
  199MOL0     H26256   0.556  10.504   8.752 -0.1525 -0.0410  0.1168
  199MOL0     H26257   0.719  10.626   8.640  1.0388 -1.4665  0.0177
  199MOL0     H26258   0.875  10.668   8.517 -1.9680  2.0498  0.4884
  199MOL0     H26259   0.916  10.743   8.366  1.0333 -0.9283 -1.4229
  199MOL0     H26260   0.955  10.451   8.435  0.4556  0.7282  0.3929
  199MOL0     H26261   0.979  10.519   8.271 -1.2150 -2.5791  0.0785
  199MOL0     H26262   1.126  10.598   8.538  2.2394 -0.9597 -0.1001
  199MOL0     H26263   1.139  10.693   8.397 -2.3698  0.4135  0.5255
  199MOL0     H26264   1.233  10.407   8.407  0.8923  0.0359 -0.4154
  199MOL0     H26265   1.211  10.496   8.254 -0.7038 -4.5377  0.4696
  199MOL0     H26266   1.565  10.655   8.433  0.3107  2.0152 -1.3451
  199MOL0     H26267   0.587  10.487   8.267  0.9606  1.8334  0.2360
  199MOL0     H26268   0.366  10.384   8.384 -1.1921  1.9281  0.7192
  200MOL0     O26269   3.935   7.026   6.032  0.6116 -0.1323  0.4105
  200MOL0     C26270   3.963   7.130   5.981 -0.6265 -0.0621 -0.5638
  200MOL0     O26271   3.882   7.207   5.904  0.1427 -0.3058 -0.2305
  200MOL0     C26272   3.754   7.164   5.908  0.1702 -0.3340 -0.2050
  200MOL0     C26273   3.654   7.232   5.975  0.3125 -0.5760 -1.3424
  200MOL0     C26274   3.521   7.192   5.949  0.2615  0.3430  0.6151
  200MOL0     C26275   3.487   7.092   5.862  0.0230 -0.5883  0.9931
  200MOL0     O26276   3.350   7.075   5.830 -0.9857  0.1731 -0.7887
  200MOL0     C26277   3.304   7.004   5.712 -0.4560  0.5123  0.4970
  200MOL0     C26278   3.156   7.000   5.715  0.3417  0.8740 -0.5252
  200MOL0     C26279   3.092   7.144   5.698  0.4307 -0.3658 -0.0112
  200MOL0     C26280   2.938   7.143   5.702  0.1967 -0.6926 -0.5958
  200MOL0     C26281   2.889   7.279   5.652  0.2558 -0.3197  0.1018
  200MOL0     C26282   2.734   7.291   5.658  0.2769  0.0225  0.1388
  200MOL0     C26283   2.684   7.421   5.618  0.0063 -0.7958  0.4764
  200MOL0     C26284   2.721   7.446   5.465  0.2743  0.3503  0.2701
  200MOL0     N26285   2.611   7.532   5.411 -0.5312 -0.1596  0.4977
  200MOL0     C26286   2.585   7.658   5.450 -0.2938 -0.4412  0.1447
  200MOL0     C26287   2.487   7.704   5.369  0.4228  0.3411 -0.1346
  200MOL0     C26288   2.431   7.846   5.372  0.2364  0.1481 -0.1300
  200MOL0     C26289   2.283   7.851   5.410  0.4156  0.2954 -0.5409
  200MOL0     C26290   2.240   7.992   5.460  0.0443 -0.0004 -0.1382
  200MOL0     C26291   2.091   8.019   5.440  1.0906  0.6244  0.5207
  200MOL0     O26292   2.014   7.915   5.500  0.2561 -0.2455  0.2121
  200MOL0     C26293   1.881   7.926   5.496 -0.6987  0.2712 -0.5484
  200MOL0     C26294   1.818   7.839   5.582 -0.1513  0.8570  0.2871
  200MOL0     C26295   1.677   7.833   5.593 -0.9060 -0.5731  0.2260
  200MOL0     C26296   1.596   7.923   5.517 -0.3836 -0.4681  0.0657
  200MOL0     C26297   1.455   7.913   5.506  0.8016 -0.5317  0.4470
  200MOL0     O26298   1.377   7.996   5.421 -0.3955  0.0182 -0.0270
  200MOL0     C26299   1.248   7.976   5.424 -0.5260 -0.3214  0.2737
  200MOL0     C26300   1.160   8.093   5.453  0.8837 -0.1738  0.2816
  200MOL0     C26301   1.023   8.075   5.442 -0.1486  0.8134 -0.1905
  200MOL0     C26302   0.968   7.956   5.389 -0.0776  0.8388  0.3901
  200MOL0     O26303   0.837   7.936   5.355 -0.1223  0.4218  0.4674
  200MOL0     C26304   0.741   8.034   5.389  0.0378 -0.7476  0.8771
  200MOL0     C26305   0.605   7.991   5.347  0.2394  0.3932 -0.7291
  200MOL0     C26306   0.509   8.107   5.333  0.7098 -0.4575 -0.2674
  200MOL0     C26307   0.375   8.058   5.282  0.2047  0.4771  0.3326
  200MOL0     C26308   0.269   8.171   5.276 -0.3161 -0.0937 -1.0207
  200MOL0     C26309   0.145   8.125   5.205  0.5079 -0.7873  0.2590
  200MOL0     C26310   0.036   8.228   5.173  0.4902  0.1575 -0.4378
  200MOL0     C26311   0.071   8.323   5.061 -0.2612 -0.9068  0.3370
  200MOL0    Cl26312   0.186   8.444   5.095  0.2599  0.3773  0.6002
  200MOL0     C26313   1.051   7.853   5.359  0.6798 -0.7300  0.0260
  200MOL0     C26314   1.192   7.862   5.370  0.7979 -0.3658 -0.1360
  200MOL0     O26315   1.414   7.821   5.577 -0.6723  0.3806 -0.6671
  200MOL0     C26316   1.658   8.013   5.428  0.8004  0.7879 -0.0477
  200MOL0     C26317   1.800   8.017   5.429 -0.7018  1.0405 -0.6575
  200MOL0     N26318   2.457   7.602   5.274  1.0426  0.4336 -0.3742
  200MOL0     N26319   2.531   7.502   5.308 -0.8483  0.0337  0.1221
  200MOL0     C26320   3.595   7.036   5.786 -0.0001  0.5045 -0.0156
  200MOL0     C26321   3.723   7.067   5.804  0.0360  0.8937  0.9251
  200MOL0     C26322   4.110   7.184   6.002 -0.5644  0.1826 -0.2738
  200MOL0     C26323   4.205   7.122   6.087 -0.2203  0.3580  1.0996
  200MOL0     C26324   4.337   7.156   6.089  0.4145 -0.1243 -0.0439
  200MOL0     C26325   4.385   7.265   6.013 -0.6799  0.3589  0.1565
  200MOL0     O26326   4.517   7.309   6.027 -0.7942  0.3059 -0.5643
  200MOL0     C26327   4.557   7.442   5.986 -0.3807  0.9571 -0.1373
  200MOL0     C26328   4.704   7.475   6.012 -0.6243 -0.2437 -0.7256
  200MOL0     C26329   4.798   7.370   5.956 -0.5567  0.0655  1.2028
  200MOL0     C26330   4.940   7.427   5.941 -0.3402  0.8189  0.7756
  200MOL0     C26331   5.012   7.379   5.828 -0.6289  0.3349  1.0207
  200MOL0     C26332   5.087   7.360   5.731 -0.4609 -0.6092  0.0844
  200MOL0     C26333   4.294   7.331   5.933  0.4966 -0.9240 -1.5430
  200MOL0     C26334   4.157   7.296   5.930 -0.1945  0.1651  0.8135
  200MOL0     H26335   3.670   7.318   6.038  0.5667 -2.3246  1.1205
  200MOL0     H26336   3.439   7.247   5.996 -0.7042 -0.9505  0.4927
  200MOL0     H26337   3.340   6.901   5.708  1.4990  1.2088 -1.4826
  200MOL0     H26338   3.339   7.048   5.619  0.1171 -0.2398  0.3504
  200MOL0     H26339   3.113   6.961   5.808  0.7965  2.0424  0.1990
  200MOL0     H26340   3.126   6.945   5.625  1.0769  1.2789 -1.0298
  200MOL0     H26341   3.117   7.182   5.598  2.6446  1.8897  1.3138
  200MOL0     H26342   3.146   7.205   5.770 -1.3960  0.5649  0.6246
  200MOL0     H26343   2.888   7.069   5.638 -2.8874 -2.1683  3.1170
  200MOL0     H26344   2.909   7.121   5.805 -0.2605 -1.0548 -0.7922
  200MOL0     H26345   2.921   7.277   5.547 -0.2665 -1.2380 -0.0471
  200MOL0     H26346   2.941   7.365   5.696  3.1297 -1.9019  0.0709
  200MOL0     H26347   2.705   7.275   5.762 -2.8686  1.3283 -0.4029
  200MOL0     H26348   2.690   7.210   5.599  2.1837 -1.1663  0.2633
  200MOL0     H26349   2.577   7.433   5.632  0.0336 -1.5052  1.3480
  200MOL0     H26350   2.731   7.496   5.683 -0.1254 -1.4108  1.2898
  200MOL0     H26351   2.719   7.357   5.401 -0.2629  0.0517  0.6989
  200MOL0     H26352   2.822   7.484   5.447  0.3402  2.0354  3.5635
  200MOL0     H26353   2.637   7.721   5.522 -0.6750  2.8516 -2.2221
  200MOL0     H26354   2.444   7.877   5.268 -2.5191  2.5069  0.0656
  200MOL0     H26355   2.485   7.909   5.443 -0.2155 -0.0505  0.3962
  200MOL0     H26356   2.262   7.777   5.487  1.8530  0.2916 -0.1286
  200MOL0     H26357   2.227   7.819   5.321  0.0700  1.1743 -0.6583
  200MOL0     H26358   2.266   8.007   5.565  0.2465 -3.0990  0.3431
  200MOL0     H26359   2.289   8.075   5.409  0.3690  1.1187  1.8909
  200MOL0     H26360   2.057   8.031   5.337  2.4834 -0.8922 -0.1500
  200MOL0     H26361   2.063   8.113   5.490 -2.1553  0.7207 -1.2350
  200MOL0     H26362   1.881   7.768   5.635 -1.4345 -1.8282 -1.5422
  200MOL0     H26363   1.630   7.762   5.660 -0.5172  1.3092  2.6664
  200MOL0     H26364   1.194   8.193   5.479 -2.2118  0.3500  2.9267
  200MOL0     H26365   0.958   8.155   5.474  0.8358  2.5920 -2.3705
  200MOL0     H26366   0.772   8.127   5.342 -0.0982 -1.4981 -0.7731
  200MOL0     H26367   0.743   8.044   5.498  0.7746 -2.9068  1.1124
  200MOL0     H26368   0.573   7.920   5.424  0.7667 -0.6547 -1.4524
  200MOL0     H26369   0.606   7.934   5.254  1.0092 -0.8757  0.0268
  200MOL0     H26370   0.546   8.173   5.255 -0.8047 -2.8726 -3.2339
  200MOL0     H26371   0.503   8.153   5.432 -0.5903 -0.5794 -0.2698
  200MOL0     H26372   0.383   8.030   5.177 -0.9234  1.2169  0.0395
  200MOL0     H26373   0.336   7.975   5.341  0.9496  0.0964  0.3039
  200MOL0     H26374   0.313   8.258   5.226  1.7861 -0.2250  0.4740
  200MOL0     H26375   0.241   8.215   5.372  1.9138  2.4910 -1.4106
  200MOL0     H26376   0.107   8.039   5.261  0.2903 -2.0415 -1.7316
  200MOL0     H26377   0.173   8.082   5.108  2.6112 -1.2366  1.0098
  200MOL0     H26378  -0.039   8.155   5.142  2.8088 -1.4264 -2.6636
  200MOL0     H26379  -0.007   8.285   5.257 -0.3563  3.1076 -2.6969
  200MOL0     H26380  -0.022   8.372   5.030 -0.0155 -0.6540 -0.0099
  200MOL0     H26381   0.104   8.266   4.974  0.4804  0.2207 -0.1407
  200MOL0     H26382   1.004   7.770   5.306 -1.8338  0.8428 -0.3514
  200MOL0     H26383   1.255   7.781   5.336  2.6833  1.4665 -1.2997
  200MOL0     H26384   1.605   8.083   5.365  0.9720  1.5813  0.6692
  200MOL0     H26385   1.849   8.088   5.363 -2.9294  0.8606 -2.6610
  200MOL0     H26386   3.570   6.956   5.717 -3.2251  0.7439  0.7042
  200MOL0     H26387   3.794   7.005   5.750 -0.5977 -2.7751  3.9031
  200MOL0     H26388   4.177   7.033   6.142  3.0678 -1.3973  0.1737
  200MOL0     H26389   4.405   7.102   6.155 -1.5772 -2.7332  0.0541
  200MOL0     H26390   4.500   7.517   6.043 -0.7357  0.5362  0.0779
  200MOL0     H26391   4.526   7.467   5.884  2.2970  2.5684 -0.6448
  200MOL0     H26392   4.717   7.564   5.950  0.5526 -0.4610 -0.8159
  200MOL0     H26393   4.720   7.492   6.119  1.5759  0.7422 -1.1579
  200MOL0     H26394   4.769   7.348   5.853  0.8311 -0.5058  0.9078
  200MOL0     H26395   4.804   7.278   6.015  2.1565 -0.9865 -0.4794
  200MOL0     H26396   4.939   7.535   5.924 -1.0946  0.8316  0.8619
  200MOL0     H26397   4.996   7.411   6.034 -1.6904 -0.4719  1.3963
  200MOL0     H26398   5.163   7.367   5.657 -0.5304  0.3425  0.0838
  200MOL0     H26399   4.319   7.423   5.881 -0.2656  2.0848  2.8489
  200MOL0     H26400   4.087   7.338   5.858  1.2097 -0.0568 -0.7218
  201MOL0     O26401   4.214   7.603   4.804  0.1362  0.2942  0.3229
  201MOL0     C26402   4.266   7.518   4.879  0.6816 -0.9944  0.9970
  201MOL0     O26403   4.203   7.468   4.999 -0.8427  0.2530  0.4793
  201MOL0     C26404   4.071   7.473   5.007 -0.3856 -0.8329 -0.0295
  201MOL0     C26405   4.006   7.350   5.032 -0.5038 -0.7984  0.6601
  201MOL0     C26406   3.871   7.354   5.064 -0.8640 -0.3463  0.3886
  201MOL0     C26407   3.795   7.468   5.078  0.0001  0.4998 -0.2267
  201MOL0     O26408   3.663   7.460   5.107 -0.4309  0.1881 -1.4113
  201MOL0     C26409   3.587   7.569   5.132 -0.3144  0.0157  0.0069
  201MOL0     C26410   3.441   7.519   5.128 -0.0739 -0.7290  0.2017
  201MOL0     C26411   3.330   7.627   5.104  0.3693  0.8592 -0.4377
  201MOL0     C26412   3.197   7.566   5.144 -0.7377 -0.0547 -0.5694
  201MOL0     C26413   3.077   7.650   5.091 -0.5426  0.2286  0.7503
  201MOL0     C26414   2.950   7.568   5.114  0.8328  0.7616  0.6734
  201MOL0     C26415   2.822   7.643   5.088  0.2631 -0.2958 -0.0218
  201MOL0     C26416   2.798   7.675   4.934  0.5674  0.2421  0.2321
  201MOL0     N26417   2.666   7.735   4.920  0.1711  0.4263  0.3756
  201MOL0     C26418   2.547   7.704   4.980 -0.3405  0.0667 -0.0839
  201MOL0     C26419   2.454   7.787   4.941  0.6858  0.2923 -0.4655
  201MOL0     C26420   2.305   7.780   4.962  0.0402 -0.6590 -0.5523
  201MOL0     C26421   2.265   7.635   4.970 -0.1772 -0.1235  0.0350
  201MOL0     C26422   2.286   7.571   4.841  0.1839  0.5238  0.4917
  201MOL0     C26423   2.232   7.643   4.718 -0.4979  0.0474 -0.4541
  201MOL0     O26424   2.088   7.656   4.737  0.1960  0.0432  0.1606
  201MOL0     C26425   2.009   7.551   4.689 -0.3936  0.0082 -0.6908
  201MOL0     C26426   1.871   7.552   4.743 -0.8787 -0.1248 -0.0330
  201MOL0     C26427   1.777   7.470   4.692 -0.8307 -0.2339  0.4320
  201MOL0     C26428   1.813   7.378   4.597 -0.4301 -0.4798 -0.0024
  201MOL0     C26429   1.714   7.285   4.549 -0.4680 -0.1459  0.5635
  201MOL0     O26430   1.767   7.164   4.505 -0.2532 -0.5905  0.3361
  201MOL0     C26431   1.693   7.047   4.493 -0.0397 -1.1780 -0.6947
  201MOL0     C26432   1.766   6.939   4.446  0.0220  0.7467 -0.6678
  201MOL0     C26433   1.703   6.812   4.430  0.4890  1.4735 -0.1258
  201MOL0     C26434   1.569   6.790   4.455 -0.3054  0.7697 -0.2272
  201MOL0     O26435   1.512   6.665   4.457 -0.0216 -0.0127  0.4080
  201MOL0     C26436   1.587   6.557   4.400 -0.5742  0.9564  0.2306
  201MOL0     C26437   1.503   6.442   4.350 -0.0968 -0.3453  0.7139
  201MOL0     C26438   1.418   6.493   4.228  0.6409 -0.6670 -0.1062
  201MOL0     C26439   1.331   6.372   4.184  0.7676 -0.4208  0.1209
  201MOL0     C26440   1.251   6.407   4.058  0.5128 -0.3510  0.2830
  201MOL0     C26441   1.166   6.290   4.012 -0.3976  0.2338 -0.1153
  201MOL0     C26442   1.077   6.338   3.904  0.2599  0.0086 -0.7076
  201MOL0     C26443   1.016   6.226   3.818 -0.3659  0.3812  0.4700
  201MOL0    Cl26444   1.139   6.148   3.730 -0.3374  0.2015 -0.5940
  201MOL0     C26445   1.489   6.895   4.507  0.1071 -0.0594  0.9432
  201MOL0     C26446   1.553   7.019   4.513 -0.4987 -0.0589  0.6981
  201MOL0     O26447   1.595   7.316   4.552 -0.1429  0.2401 -0.4909
  201MOL0     C26448   1.939   7.362   4.551 -0.2291  0.6958 -1.0247
  201MOL0     C26449   2.039   7.447   4.604 -0.1677 -0.1424  0.1825
  201MOL0     N26450   2.511   7.874   4.849 -0.0912 -0.0730 -0.2237
  201MOL0     N26451   2.637   7.840   4.842  0.1393  0.0356  0.6672
  201MOL0     C26452   3.862   7.589   5.054  0.0227  0.2430  0.9701
  201MOL0     C26453   3.999   7.591   5.026 -0.7942  0.7442 -0.3491
  201MOL0     C26454   4.401   7.478   4.841 -0.4103  0.5015 -0.0903
  201MOL0     C26455   4.455   7.514   4.714 -0.4006  0.4034 -0.4558
  201MOL0     C26456   4.593   7.486   4.677  1.2420 -0.3290 -0.3215
  201MOL0     C26457   4.667   7.404   4.758  0.3180  0.4791 -0.7508
  201MOL0     O26458   4.804   7.373   4.736 -0.2442  0.6695 -0.2653
  201MOL0     C26459   4.868   7.439   4.624 -0.3302 -0.1938  0.4291
  201MOL0     C26460   5.016   7.421   4.637 -0.3272 -0.2493 -0.4787
  201MOL0     C26461   5.078   7.401   4.491 -0.3180  0.5119 -0.7029
  201MOL0     C26462   5.227   7.378   4.495 -0.1214  0.3393  0.5458
  201MOL0     C26463   5.277   7.333   4.365 -0.5228  0.1658 -0.0152
  201MOL0     C26464   5.323   7.301   4.254 -0.5678 -1.1566 -0.2401
  201MOL0     C26465   4.613   7.357   4.879  0.3378  0.1745 -0.4333
  201MOL0     C26466   4.482   7.387   4.916  0.5403 -1.0033  0.5162
  201MOL0     H26467   4.062   7.258   5.042 -0.9881 -1.1573  0.1737
  201MOL0     H26468   3.807   7.266   5.069 -1.9020  0.3738  0.0621
  201MOL0     H26469   3.610   7.647   5.059 -3.0182 -0.1413 -1.1404
  201MOL0     H26470   3.614   7.614   5.228 -0.9775  1.6560 -0.5426
  201MOL0     H26471   3.418   7.453   5.212  0.4005 -0.1386  0.8095
  201MOL0     H26472   3.424   7.454   5.042  3.0660 -1.1866 -0.2138
  201MOL0     H26473   3.325   7.653   4.998 -2.5605  0.7479 -0.4032
  201MOL0     H26474   3.354   7.718   5.160  1.2218 -0.2994  1.1743
  201MOL0     H26475   3.180   7.460   5.122  0.0268 -0.5413  1.0673
  201MOL0     H26476   3.196   7.570   5.253  1.0946  1.3984 -0.5430
  201MOL0     H26477   3.101   7.661   4.985 -1.2900  2.0320  0.7238
  201MOL0     H26478   3.073   7.748   5.140  0.9970 -0.7962  3.1204
  201MOL0     H26479   2.950   7.546   5.221  1.4643 -2.7264  0.0741
  201MOL0     H26480   2.945   7.473   5.061 -1.7124  0.8538  0.6298
  201MOL0     H26481   2.741   7.581   5.127  1.6601 -0.8870  2.0571
  201MOL0     H26482   2.833   7.734   5.147  0.3386  0.1781 -0.7413
  201MOL0     H26483   2.804   7.588   4.868 -2.4037 -0.0685  0.2595
  201MOL0     H26484   2.874   7.740   4.889  1.0032  0.0168  0.6359
  201MOL0     H26485   2.532   7.637   5.064  2.8211  0.2352  0.7514
  201MOL0     H26486   2.248   7.838   4.889 -1.6434 -2.1875 -0.5158
  201MOL0     H26487   2.276   7.829   5.056  1.1696  2.1896 -1.5640
  201MOL0     H26488   2.157   7.641   4.991  0.0290 -0.0788  1.1415
  201MOL0     H26489   2.311   7.584   5.054  1.5722 -1.7168 -1.7986
  201MOL0     H26490   2.392   7.549   4.825  0.2482  1.2505 -0.1531
  201MOL0     H26491   2.242   7.472   4.854  1.5840 -0.3470 -1.0885
  201MOL0     H26492   2.262   7.583   4.632  0.6158  0.4099 -0.3328
  201MOL0     H26493   2.271   7.744   4.703 -2.3513  0.6731 -1.3441
  201MOL0     H26494   1.838   7.622   4.819 -2.6506 -1.8679  0.8758
  201MOL0     H26495   1.684   7.461   4.749 -1.4392 -1.6428 -0.7338
  201MOL0     H26496   1.867   6.962   4.415 -0.2136  3.5191  0.3478
  201MOL0     H26497   1.778   6.740   4.398 -1.5043 -0.2774 -1.1491
  201MOL0     H26498   1.641   6.520   4.488  0.2889  2.4788  0.3772
  201MOL0     H26499   1.661   6.578   4.322  2.2559 -0.5812  2.3288
  201MOL0     H26500   1.434   6.410   4.429  0.1481 -0.0879  1.0349
  201MOL0     H26501   1.556   6.352   4.316  1.1786 -0.0327  1.7827
  201MOL0     H26502   1.486   6.535   4.153 -1.6271  2.3216 -0.6849
  201MOL0     H26503   1.361   6.581   4.260  0.8187 -0.3619 -0.6175
  201MOL0     H26504   1.393   6.285   4.162 -0.7285 -1.8246  1.2075
  201MOL0     H26505   1.255   6.347   4.259 -1.1407  0.2189 -1.5138
  201MOL0     H26506   1.317   6.432   3.974 -0.8749 -0.1050 -0.7887
  201MOL0     H26507   1.188   6.496   4.074  0.3338 -0.8281  2.5311
  201MOL0     H26508   1.092   6.257   4.085  0.6423 -3.3406 -0.4699
  201MOL0     H26509   1.236   6.210   3.985  3.1624  3.3496 -0.9848
  201MOL0     H26510   0.997   6.398   3.949  0.3773  1.6369 -2.5375
  201MOL0     H26511   1.139   6.406   3.845  0.7310  0.1245 -0.0907
  201MOL0     H26512   0.935   6.262   3.754 -0.8073 -1.5664 -0.1222
  201MOL0     H26513   0.971   6.154   3.886  1.8446 -1.3447  0.2151
  201MOL0     H26514   1.387   6.870   4.535 -0.3477  2.1104  1.4268
  201MOL0     H26515   1.490   7.098   4.554 -0.4947  0.1374  0.3301
  201MOL0     H26516   1.963   7.279   4.486  0.1089 -1.4098  1.6194
  201MOL0     H26517   2.136   7.437   4.556  0.0003  0.5053  0.3813
  201MOL0     H26518   3.813   7.686   5.052  1.5453  1.0386  0.1894
  201MOL0     H26519   4.050   7.685   5.008  3.0116 -1.4064 -1.8975
  201MOL0     H26520   4.403   7.584   4.649 -0.1262  0.7480 -0.3095
  201MOL0     H26521   4.627   7.538   4.588 -2.4695  3.0590 -0.0405
  201MOL0     H26522   4.851   7.547   4.624 -0.6011 -0.2031  2.2946
  201MOL0     H26523   4.818   7.404   4.533  2.2071 -1.8174 -0.4515
  201MOL0     H26524   5.063   7.513   4.674 -2.5280  1.1564 -1.0012
  201MOL0     H26525   5.025   7.342   4.711 -1.8695 -0.3589 -0.3887
  201MOL0     H26526   5.048   7.471   4.412 -0.6561 -0.7850 -1.7637
  201MOL0     H26527   5.032   7.309   4.455 -0.5554 -0.3919  1.7175
  201MOL0     H26528   5.273   7.474   4.519 -0.7467  0.4906  1.1749
  201MOL0     H26529   5.260   7.309   4.573  0.4349  0.1126  0.1187
  201MOL0     H26530   5.348   7.284   4.152 -2.5753  0.8864 -1.1769
  201MOL0     H26531   4.684   7.307   4.943 -0.0778 -0.1052 -0.1820
  201MOL0     H26532   4.436   7.341   5.003 -0.7738 -1.1475 -0.2273
  202MOL0     O26533  10.431  10.233   4.487 -0.0778 -0.0679  0.0422
  202MOL0     C26534  10.515  10.300   4.541  0.8047 -0.3068 -0.3170
  202MOL0     O26535  10.494  10.426   4.596  0.4482  0.4708  0.7635
  202MOL0     C26536  10.369  10.481   4.564  0.6793 -0.2272 -0.2701
  202MOL0     C26537  10.351  10.582   4.468 -0.9378  0.1302  0.5068
  202MOL0     C26538  10.222  10.643   4.457 -0.2166  0.0781 -0.3364
  202MOL0     C26539  10.117  10.616   4.554  0.3928  0.4348  0.1564
  202MOL0     O26540   9.992  10.669   4.520  0.0065  0.3649 -0.6085
  202MOL0     C26541   9.941  10.648   4.385 -0.4237 -0.5674  0.5676
  202MOL0     C26542   9.792  10.673   4.372 -0.2602 -0.2173  0.2506
  202MOL0     C26543   9.731  10.547   4.429 -1.3669 -0.6236 -0.1285
  202MOL0     C26544   9.585  10.571   4.463 -0.4505  0.7621 -1.1957
  202MOL0     C26545   9.491  10.585   4.335  0.1894 -0.5283 -0.2036
  202MOL0     C26546   9.351  10.617   4.381  0.2800 -0.4941  0.0330
  202MOL0     C26547   9.263  10.491   4.411 -0.9304 -0.2774  0.3165
  202MOL0     C26548   9.159  10.519   4.520  0.1784 -0.1328 -0.6499
  202MOL0     N26549   9.068  10.622   4.477  0.4577  0.1713  0.1782
  202MOL0     C26550   8.991  10.627   4.363  0.2121  0.1254 -0.0420
  202MOL0     C26551   8.902  10.725   4.380  0.7044  0.2658  0.2434
  202MOL0     C26552   8.798  10.772   4.283  0.3381  0.3164 -0.0297
  202MOL0     C26553   8.655  10.709   4.303 -0.1113  0.4369 -0.3100
  202MOL0     C26554   8.563  10.728   4.188  0.7565  0.6864 -0.3146
  202MOL0     C26555   8.420  10.681   4.208  1.1574  0.0119  0.5303
  202MOL0     O26556   8.362  10.750   4.324 -0.8182  1.0397 -0.0000
  202MOL0     C26557   8.227  10.729   4.353 -0.3358 -1.1350  0.0895
  202MOL0     C26558   8.168  10.824   4.440 -0.6510  1.0710  0.6934
  202MOL0     C26559   8.034  10.815   4.478 -0.4141 -0.0283 -0.0989
  202MOL0     C26560   7.957  10.716   4.425  0.5483 -0.2168  0.5827
  202MOL0     C26561   7.808  10.719   4.447 -1.1826 -0.4003 -0.7880
  202MOL0     O26562   7.757  10.804   4.531 -0.0320  0.6475  0.2130
  202MOL0     C26563   7.621  10.787   4.542  0.3822  0.0731  1.4805
  202MOL0     C26564   7.537  10.870   4.465  0.1181 -0.3285 -0.0394
  202MOL0     C26565   7.397  10.869   4.492 -0.0649  0.4236 -0.2271
  202MOL0     C26566   7.342  10.775   4.585 -0.6069 -0.2606  0.3039
  202MOL0     O26567   7.209  10.784   4.612  0.3089 -0.7703 -0.6667
  202MOL0     C26568   7.181  10.890   4.700 -0.3804 -0.2572 -0.3888
  202MOL0     C26569   7.053  10.854   4.782 -1.0973 -0.0858  0.3984
  202MOL0     C26570   6.912  10.868   4.696 -1.0313  0.6760 -0.8929
  202MOL0     C26571   6.893  10.982   4.600  0.3410  0.8600  0.4541
  202MOL0     C26572   6.741  10.986   4.558 -0.3503  0.6748  0.5264
  202MOL0     C26573   6.723  11.094   4.445 -0.6893  0.7577  0.4006
  202MOL0     C26574   6.585  11.106   4.393  0.0346  0.5011  0.2985
  202MOL0     C26575   6.584  11.201   4.269  0.1208  0.9341 -0.2303
  202MOL0    Cl26576   6.474  11.128   4.152  0.5521  0.1696  0.2264
  202MOL0     C26577   7.426  10.687   4.651 -0.7242 -0.0373  0.7746
  202MOL0     C26578   7.567  10.695   4.628 -0.6484 -0.3203 -0.2323
  202MOL0     O26579   7.746  10.632   4.382  0.9527 -0.0200 -0.6042
  202MOL0     C26580   8.013  10.618   4.335 -0.4099  0.5301 -0.3428
  202MOL0     C26581   8.151  10.620   4.310  0.1158  0.8474 -0.3523
  202MOL0     N26582   8.920  10.772   4.513  0.1818  0.0800  0.6456
  202MOL0     N26583   9.009  10.704   4.575 -0.0882  0.4325 -0.0445
  202MOL0     C26584  10.145  10.519   4.649 -0.0239 -0.5629  0.9242
  202MOL0     C26585  10.267  10.456   4.654  1.2572  0.1291  0.9879
  202MOL0     C26586  10.650  10.243   4.556  0.0336 -0.5497 -0.4143
  202MOL0     C26587  10.687  10.124   4.496 -0.6238  0.9318  0.9219
  202MOL0     C26588  10.830  10.084   4.494  0.7624  0.3665  0.6564
  202MOL0     C26589  10.927  10.147   4.560  0.0999 -0.3879 -1.4306
  202MOL0     O26590  11.054  10.095   4.553  1.1235  0.1490 -0.7620
  202MOL0     C26591  11.165  10.173   4.567 -0.1572  0.1635  0.0023
  202MOL0     C26592  11.281  10.115   4.495  0.4505  0.3293  0.6341
  202MOL0     C26593  11.402  10.211   4.491 -0.7282  0.1856 -0.3037
  202MOL0     C26594  11.535  10.138   4.462 -0.0827 -0.7678 -0.5121
  202MOL0     C26595  11.647  10.229   4.490  0.8961  0.6996  0.5386
  202MOL0     C26596  11.724  10.314   4.529 -0.4438  0.6331  0.0915
  202MOL0     C26597  10.882  10.258   4.631  0.3407 -0.1065 -0.3410
  202MOL0     C26598  10.745  10.303   4.637  0.7842 -0.8205  0.2228
  202MOL0     H26599  10.434  10.610   4.404  0.3322 -0.9506  1.6298
  202MOL0     H26600  10.210  10.707   4.370  3.4329 -3.2578 -3.7550
  202MOL0     H26601   9.979  10.548   4.362  2.5859  0.6932 -0.4810
  202MOL0     H26602   9.984  10.711   4.307 -1.9972 -1.5266 -1.1534
  202MOL0     H26603   9.765  10.690   4.267 -0.7994 -0.7024  0.3094
  202MOL0     H26604   9.748  10.754   4.431 -1.1909 -2.1840  2.4029
  202MOL0     H26605   9.795  10.513   4.511  1.7249  0.8539 -1.7314
  202MOL0     H26606   9.734  10.467   4.353  1.8605  1.2866 -2.2797
  202MOL0     H26607   9.547  10.490   4.525 -0.2023  1.3757 -0.2256
  202MOL0     H26608   9.578  10.653   4.535 -3.7426 -1.5735  1.4725
  202MOL0     H26609   9.494  10.503   4.263 -2.5703  0.1303 -1.1816
  202MOL0     H26610   9.537  10.670   4.283  0.2476 -0.7344 -0.4890
  202MOL0     H26611   9.307  10.679   4.303 -1.0438  0.1422  1.2426
  202MOL0     H26612   9.346  10.684   4.468 -2.5809  2.0202 -1.8767
  202MOL0     H26613   9.210  10.462   4.319 -0.4446 -0.9973  0.2563
  202MOL0     H26614   9.328  10.410   4.443  0.5927  1.1208  0.8812
  202MOL0     H26615   9.208  10.546   4.614  0.7573 -2.4217 -0.2234
  202MOL0     H26616   9.110  10.423   4.537  3.2129 -2.0426 -1.8431
  202MOL0     H26617   8.976  10.568   4.273 -5.5772  0.5327  0.2797
  202MOL0     H26618   8.828  10.735   4.185 -1.3763 -0.2923 -0.3571
  202MOL0     H26619   8.792  10.880   4.300  1.3246  0.7044 -1.8658
  202MOL0     H26620   8.612  10.755   4.393 -0.8958  4.2438 -2.4075
  202MOL0     H26621   8.672  10.601   4.312  2.0673  0.2744 -4.1837
  202MOL0     H26622   8.575  10.835   4.166  0.4480  1.3127  2.2309
  202MOL0     H26623   8.607  10.676   4.102  1.1270 -0.0572  0.3130
  202MOL0     H26624   8.418  10.575   4.234  1.5818  0.3284  1.9417
  202MOL0     H26625   8.358  10.708   4.122 -0.8540  2.2012  2.5268
  202MOL0     H26626   8.234  10.901   4.478  2.7250  0.9014 -3.9625
  202MOL0     H26627   7.986  10.895   4.534  0.7972  0.4138  0.3522
  202MOL0     H26628   7.583  10.954   4.414  0.4546 -1.1089 -1.0670
  202MOL0     H26629   7.333  10.943   4.444 -1.1808 -0.3652  0.0168
  202MOL0     H26630   7.162  10.976   4.636  0.0121 -0.4068 -0.7092
  202MOL0     H26631   7.261  10.903   4.774  0.9583  0.1267 -1.8443
  202MOL0     H26632   7.063  10.931   4.860  2.1735  0.9903 -0.9101
  202MOL0     H26633   7.061  10.757   4.831  0.0514  0.6992  1.8433
  202MOL0     H26634   6.835  10.858   4.773  0.1676 -1.5387  0.1120
  202MOL0     H26635   6.902  10.776   4.638  0.0445  1.3317 -2.1832
  202MOL0     H26636   6.916  11.074   4.655 -1.3602  1.2394  0.5815
  202MOL0     H26637   6.955  10.966   4.511 -0.4586 -1.2448  0.2101
  202MOL0     H26638   6.694  11.015   4.653  0.2661 -0.2676  1.1390
  202MOL0     H26639   6.705  10.886   4.531  1.8889 -0.6007  1.9235
  202MOL0     H26640   6.795  11.072   4.366 -1.9813  1.5358 -1.0386
  202MOL0     H26641   6.760  11.190   4.482 -0.3027  1.4159 -1.5884
  202MOL0     H26642   6.550  11.010   4.355  0.7959  0.1748  0.4134
  202MOL0     H26643   6.511  11.138   4.467 -1.1826 -3.0391  0.8049
  202MOL0     H26644   6.681  11.203   4.219  0.5892  2.0742  0.6614
  202MOL0     H26645   6.555  11.301   4.304 -0.5232  0.1630  1.5932
  202MOL0     H26646   7.393  10.621   4.730 -0.0850 -0.5369  0.6290
  202MOL0     H26647   7.625  10.625   4.688 -0.9372  0.3857  0.8997
  202MOL0     H26648   7.950  10.540   4.294 -0.1491 -0.4011  0.9814
  202MOL0     H26649   8.187  10.544   4.242  1.3985  0.6235  0.5416
  202MOL0     H26650  10.065  10.496   4.719 -0.1865  0.6978  1.1728
  202MOL0     H26651  10.290  10.381   4.729  0.5879  1.3449  2.4428
  202MOL0     H26652  10.616  10.065   4.439 -0.9670 -0.1046  2.3525
  202MOL0     H26653  10.863  10.004   4.428 -0.3228 -1.7955  2.6149
  202MOL0     H26654  11.176  10.211   4.669  1.3693  1.2934 -0.5546
  202MOL0     H26655  11.139  10.268   4.520 -1.4546 -0.0950  0.1517
  202MOL0     H26656  11.307  10.017   4.536 -1.1397  0.1002  1.1723
  202MOL0     H26657  11.241  10.099   4.395 -0.7294 -1.5499  1.3372
  202MOL0     H26658  11.418  10.240   4.596 -1.4935 -1.5521  0.3310
  202MOL0     H26659  11.382  10.302   4.434 -0.2910  1.0273  0.8413
  202MOL0     H26660  11.540  10.053   4.531 -0.6667 -0.9174 -0.6501
  202MOL0     H26661  11.525  10.110   4.357  0.0269 -1.1866 -0.4126
  202MOL0     H26662  11.785  10.401   4.539 -0.4325  0.4589  1.9325
  202MOL0     H26663  10.945  10.300   4.708 -2.6697  0.0518  2.2440
  202MOL0     H26664  10.732  10.397   4.690 -1.0208 -2.0436  2.1220
  203MOL0     O26665   4.972  10.733   3.419 -0.0851 -0.9036 -0.5313
  203MOL0     C26666   5.059  10.805   3.472 -0.6498  0.4109 -0.1654
  203MOL0     O26667   5.038  10.893   3.572  0.6594 -0.2928  0.5971
  203MOL0     C26668   4.910  10.907   3.633  0.4360  0.6216  1.2556
  203MOL0     C26669   4.874  10.807   3.724  0.3417  0.3955 -0.1695
  203MOL0     C26670   4.761  10.838   3.815 -0.1759 -0.3027  0.5488
  203MOL0     C26671   4.689  10.958   3.806  0.2057  1.3856 -0.3489
  203MOL0     O26672   4.578  10.981   3.879  0.8135  0.7832  0.2126
  203MOL0     C26673   4.461  10.953   3.805 -0.1969 -0.4312  0.1744
  203MOL0     C26674   4.448  10.801   3.794  0.3979 -0.6452  0.3520
  203MOL0     C26675   4.305  10.760   3.759 -0.4250 -1.2322  0.7694
  203MOL0     C26676   4.196  10.758   3.869  1.0072 -0.3302  0.1205
  203MOL0     C26677   4.057  10.709   3.813 -1.0595 -0.3597 -0.4688
  203MOL0     C26678   4.061  10.570   3.743 -0.9368  0.7553 -0.2090
  203MOL0     C26679   3.922  10.504   3.710 -0.1258 -0.0523  0.8220
  203MOL0     C26680   3.934  10.348   3.711  0.2111  0.3601 -0.5130
  203MOL0     N26681   4.034  10.302   3.617 -0.5927  0.2459  0.2986
  203MOL0     C26682   4.146  10.219   3.643  0.3275 -0.1737 -0.6682
  203MOL0     C26683   4.200  10.186   3.529  1.2478 -0.4279  0.4823
  203MOL0     C26684   4.308  10.086   3.507  1.1703  0.1203  0.3810
  203MOL0     C26685   4.456  10.124   3.544  0.7230 -0.1069 -0.5998
  203MOL0     C26686   4.509  10.236   3.455  0.8467 -0.3632 -1.1279
  203MOL0     C26687   4.651  10.217   3.406  0.2259  0.1020  0.0903
  203MOL0     O26688   4.688  10.337   3.329  0.4051  0.5752 -0.7585
  203MOL0     C26689   4.819  10.326   3.273  0.2082 -0.5095  0.9900
  203MOL0     C26690   4.866  10.445   3.213 -1.4711 -0.5990  0.1336
  203MOL0     C26691   4.994  10.443   3.154  0.9143 -0.5115 -0.0903
  203MOL0     C26692   5.073  10.329   3.162  0.2819  0.4891 -0.4650
  203MOL0     C26693   5.201  10.328   3.085  0.0617 -0.2870  0.1677
  203MOL0     O26694   5.241  10.204   3.037 -0.3223 -0.0773 -0.5387
  203MOL0     C26695   5.323  10.216   2.922  0.1981  0.1486  0.4062
  203MOL0     C26696   5.462  10.177   2.925 -0.3078 -0.1543 -0.2755
  203MOL0     C26697   5.559  10.197   2.824 -0.2943 -0.3582 -0.4827
  203MOL0     C26698   5.505  10.248   2.699 -0.3506  0.9140 -0.2739
  203MOL0     O26699   5.580  10.262   2.592  0.4214 -0.4510 -0.4370
  203MOL0     C26700   5.706  10.190   2.585 -0.0917  0.0805  0.4785
  203MOL0     C26701   5.747  10.161   2.443 -0.6921  0.0691  0.0344
  203MOL0     C26702   5.898  10.112   2.458 -0.3592  0.3138 -0.9126
  203MOL0     C26703   5.974  10.064   2.334 -0.3083 -0.0305  0.2554
  203MOL0     C26704   6.115  10.015   2.371  0.3119  0.1398  0.8454
  203MOL0     C26705   6.113   9.874   2.435  0.0984  0.6138  0.3846
  203MOL0     C26706   6.102   9.770   2.323  0.3937 -0.2903  0.5532
  203MOL0     C26707   6.169   9.636   2.362  0.4539  0.4300 -0.1222
  203MOL0    Cl26708   6.348   9.672   2.399 -0.3331  0.1544 -0.4365
  203MOL0     C26709   5.374  10.292   2.696  0.0500  0.2777 -0.6553
  203MOL0     C26710   5.275  10.271   2.798 -0.7218  0.6850 -0.5607
  203MOL0     O26711   5.267  10.435   3.064 -0.1679 -0.1236 -0.3114
  203MOL0     C26712   5.032  10.215   3.233  0.2226  0.3807 -0.5479
  203MOL0     C26713   4.910  10.219   3.293  0.1141 -0.0284  0.7100
  203MOL0     N26714   4.115  10.237   3.429  0.2807  0.6500  0.1345
  203MOL0     N26715   4.020  10.312   3.484 -0.1323  0.1999  0.3882
  203MOL0     C26716   4.734  11.057   3.720  0.0221  0.2948  0.1462
  203MOL0     C26717   4.840  11.030   3.631 -0.1888  0.5258 -0.0742
  203MOL0     C26718   5.198  10.800   3.423 -0.1010  0.0002 -0.1350
  203MOL0     C26719   5.300  10.869   3.481 -0.1281 -0.7117  0.3194
  203MOL0     C26720   5.424  10.887   3.417 -0.3200  0.4323  0.0859
  203MOL0     C26721   5.448  10.827   3.293 -0.9183  0.2311  0.5430
  203MOL0     O26722   5.576  10.844   3.240  0.4053 -0.9826 -0.8708
  203MOL0     C26723   5.627  10.792   3.116  0.2829 -1.0199 -0.7424
  203MOL0     C26724   5.684  10.650   3.154  0.7745 -0.6642 -0.1125
  203MOL0     C26725   5.737  10.589   3.034 -0.1889  0.4867 -0.2824
  203MOL0     C26726   5.745  10.444   3.052  0.1598  0.6267  0.6946
  203MOL0     C26727   5.835  10.396   2.948 -0.4967  0.0466 -0.4091
  203MOL0     C26728   5.925  10.382   2.860 -0.5179 -0.6355 -0.0294
  203MOL0     C26729   5.352  10.736   3.240  0.8171  0.1232  0.3057
  203MOL0     C26730   5.231  10.730   3.309  0.6868  0.4623 -1.5533
  203MOL0     H26731   4.923  10.710   3.735  1.6713  1.0205 -0.3815
  203MOL0     H26732   4.723  10.765   3.886  2.8387 -1.9737  0.6272
  203MOL0     H26733   4.446  11.005   3.710 -0.9273 -1.5819 -0.3545
  203MOL0     H26734   4.374  10.986   3.862  0.6266  0.2840  1.0610
  203MOL0     H26735   4.468  10.761   3.893  0.9475  0.3372  0.6478
  203MOL0     H26736   4.516  10.759   3.720  1.3691  0.2334  0.7290
  203MOL0     H26737   4.319  10.660   3.716  0.4419 -0.3780 -1.0259
  203MOL0     H26738   4.266  10.820   3.676 -1.7919 -2.0320  0.8000
  203MOL0     H26739   4.228  10.678   3.936  3.7591  0.0111 -0.6693
  203MOL0     H26740   4.195  10.851   3.926  0.1612  0.3813 -1.0060
  203MOL0     H26741   4.025  10.775   3.732  2.1789 -1.0757 -2.5703
  203MOL0     H26742   3.989  10.704   3.898 -1.8767  0.3363 -1.0697
  203MOL0     H26743   4.119  10.507   3.811 -2.4889 -0.2763  0.2202
  203MOL0     H26744   4.117  10.573   3.650  0.5281  1.2033  0.6516
  203MOL0     H26745   3.852  10.530   3.790 -1.7546  1.7398 -1.0685
  203MOL0     H26746   3.886  10.553   3.619 -2.8789  2.3419  2.9895
  203MOL0     H26747   3.840  10.303   3.678 -1.0994  1.0152  2.0626
  203MOL0     H26748   3.945  10.308   3.813  0.6761 -2.6596 -1.6411
  203MOL0     H26749   4.187  10.184   3.737  3.0891 -0.6223 -1.9213
  203MOL0     H26750   4.309  10.059   3.401  0.5832 -2.2869  0.9269
  203MOL0     H26751   4.277  10.001   3.569 -2.3650  2.3400  1.9871
  203MOL0     H26752   4.527  10.042   3.530 -0.7754 -1.1967 -2.1669
  203MOL0     H26753   4.447  10.161   3.647  0.5479  0.5069 -0.8340
  203MOL0     H26754   4.436  10.244   3.374 -1.0802  1.4629  0.6162
  203MOL0     H26755   4.503  10.325   3.519 -1.7887 -1.7355  0.7655
  203MOL0     H26756   4.644  10.128   3.343  0.6563 -1.1062  1.6876
  203MOL0     H26757   4.715  10.195   3.492 -1.6354  3.4212  2.5517
  203MOL0     H26758   4.801  10.531   3.210 -2.6603 -1.4829 -0.1821
  203MOL0     H26759   5.041  10.530   3.109  1.2264 -0.2837  0.6742
  203MOL0     H26760   5.510  10.124   3.007 -1.6708  0.3693  0.8982
  203MOL0     H26761   5.663  10.174   2.843 -0.5599  0.6437  2.6539
  203MOL0     H26762   5.708  10.092   2.633 -2.5368 -1.7863 -2.7790
  203MOL0     H26763   5.787  10.245   2.633  2.2625 -2.2099 -0.5672
  203MOL0     H26764   5.754  10.252   2.382  1.2934  0.1347  0.2705
  203MOL0     H26765   5.678  10.087   2.403 -2.0520 -0.2042  2.6646
  203MOL0     H26766   5.898  10.039   2.538  1.2038 -0.4794 -1.5952
  203MOL0     H26767   5.959  10.191   2.501 -2.7907  1.1592  1.2054
  203MOL0     H26768   5.912   9.989   2.284 -2.7564  3.1109 -1.7684
  203MOL0     H26769   5.977  10.151   2.268 -2.7482  2.6255  3.2850
  203MOL0     H26770   6.160  10.089   2.438  1.3250  0.4152 -0.1026
  203MOL0     H26771   6.173  10.018   2.278 -1.1074 -0.0558 -0.0690
  203MOL0     H26772   6.025   9.855   2.497 -0.8706  1.3019 -0.7307
  203MOL0     H26773   6.196   9.856   2.504 -1.5145 -1.0074  2.0175
  203MOL0     H26774   5.997   9.742   2.310  1.1072 -2.2152 -1.7931
  203MOL0     H26775   6.139   9.804   2.226  1.0001 -2.1813  0.0799
  203MOL0     H26776   6.152   9.565   2.281  0.4398  0.0333  0.2213
  203MOL0     H26777   6.122   9.592   2.450 -0.3482  0.5408 -0.4912
  203MOL0     H26778   5.356  10.344   2.602  1.2211  1.3751 -0.2995
  203MOL0     H26779   5.174  10.311   2.796 -0.6512  1.0904  1.6290
  203MOL0     H26780   5.091  10.126   3.252  0.9619  1.4730  2.8905
  203MOL0     H26781   4.871  10.132   3.344  1.4376 -1.2219 -0.2251
  203MOL0     H26782   4.689  11.155   3.717  0.6842  0.5835 -1.7628
  203MOL0     H26783   4.863  11.105   3.556 -2.3913 -0.8516 -2.2792
  203MOL0     H26784   5.280  10.918   3.576 -0.5640 -0.2425 -0.0087
  203MOL0     H26785   5.508  10.942   3.458 -1.4438  2.1892  0.1142
  203MOL0     H26786   5.712  10.854   3.087  2.6422 -3.2822  0.8728
  203MOL0     H26787   5.549  10.796   3.039 -0.2816  1.7387 -0.0988
  203MOL0     H26788   5.770  10.648   3.222 -0.7583  0.5889  1.9775
  203MOL0     H26789   5.602  10.596   3.201 -1.0141  1.3286 -0.7963
  203MOL0     H26790   5.836  10.636   3.026 -0.0869  0.0460 -2.0111
  203MOL0     H26791   5.687  10.604   2.938  1.7636 -2.9231 -2.0023
  203MOL0     H26792   5.777  10.415   3.152  0.1967  1.0776  0.8165
  203MOL0     H26793   5.643  10.406   3.041  0.3412  0.1929  0.4708
  203MOL0     H26794   5.995  10.363   2.781  1.0407 -1.7310  1.5290
  203MOL0     H26795   5.374  10.679   3.151  2.2637  0.1286  0.6374
  203MOL0     H26796   5.153  10.666   3.269 -0.3495  0.8240 -0.1985
  204MOL0     O26797   5.473   3.048   3.512  1.0702 -0.6490  0.1189
  204MOL0     C26798   5.519   2.936   3.531 -0.1647 -0.7757  0.8723
  204MOL0     O26799   5.450   2.826   3.541 -0.5953  0.6553  0.6252
  204MOL0     C26800   5.320   2.813   3.503  0.2873  0.6102 -0.3721
  204MOL0     C26801   5.261   2.871   3.391 -0.3357  1.0492  0.6966
  204MOL0     C26802   5.125   2.862   3.366  1.0925 -1.0488  0.4206
  204MOL0     C26803   5.042   2.812   3.466 -0.7711  0.5508  0.3213
  204MOL0     O26804   4.909   2.802   3.448 -0.2078 -0.3117  0.0196
  204MOL0     C26805   4.886   2.670   3.394  0.0037  0.5961 -0.4706
  204MOL0     C26806   4.746   2.661   3.344 -0.0317 -1.1622 -0.4620
  204MOL0     C26807   4.647   2.693   3.461  0.1993  0.2681  0.3399
  204MOL0     C26808   4.500   2.680   3.418 -0.0298 -0.4758  0.9339
  204MOL0     C26809   4.427   2.549   3.408 -1.5329  0.0470 -0.5853
  204MOL0     C26810   4.357   2.520   3.546 -0.2246  0.6824  1.3616
  204MOL0     C26811   4.247   2.405   3.523 -1.1521 -1.0435  0.5922
  204MOL0     C26812   4.322   2.267   3.491 -0.1265 -0.6424 -0.1543
  204MOL0     N26813   4.431   2.222   3.583 -0.3952  0.3662  0.0017
  204MOL0     C26814   4.411   2.161   3.707  0.5544  0.0115 -0.0116
  204MOL0     C26815   4.538   2.115   3.734  0.1854  0.5071  0.2405
  204MOL0     C26816   4.567   2.029   3.843 -0.0886  0.7994 -0.5910
  204MOL0     C26817   4.713   2.016   3.889  0.2625  0.0985 -1.3348
  204MOL0     C26818   4.733   1.907   3.996 -0.5581  0.0240 -0.1487
  204MOL0     C26819   4.877   1.875   4.025  0.3628  0.0907 -0.1376
  204MOL0     O26820   4.929   1.751   3.971 -0.7334 -0.3164 -1.0668
  204MOL0     C26821   4.996   1.781   3.860 -0.9023 -0.0580 -0.0157
  204MOL0     C26822   4.945   1.699   3.758  0.6912 -1.3315 -1.0908
  204MOL0     C26823   5.007   1.697   3.636 -0.2620  0.3957 -0.0083
  204MOL0     C26824   5.112   1.786   3.605 -1.0961  0.2100 -0.0299
  204MOL0     C26825   5.172   1.788   3.469 -0.3547  0.9983 -0.4352
  204MOL0     O26826   5.232   1.904   3.430 -0.7773  0.2978  0.4312
  204MOL0     C26827   5.298   1.917   3.307  0.5429 -0.3793  0.9852
  204MOL0     C26828   5.227   1.918   3.180 -0.4083 -0.0676  0.1397
  204MOL0     C26829   5.297   1.936   3.060  0.6423 -0.3564  0.3925
  204MOL0     C26830   5.433   1.960   3.060  0.0844 -0.7624  0.4430
  204MOL0     O26831   5.483   1.995   2.940  0.3873  0.5297  0.2244
  204MOL0     C26832   5.634   1.995   2.929  0.6708  1.2370  0.2857
  204MOL0     C26833   5.660   2.039   2.783 -0.6428 -0.8707 -0.7506
  204MOL0     C26834   5.809   2.064   2.766 -0.0962 -0.2164  0.9275
  204MOL0     C26835   5.841   2.212   2.809 -0.3000 -1.1147 -0.0442
  204MOL0     C26836   5.834   2.305   2.685 -0.2914  0.2525 -0.0326
  204MOL0     C26837   5.850   2.453   2.729  1.0121  0.2163  0.1822
  204MOL0     C26838   5.852   2.547   2.608 -0.5864  0.1375 -0.4650
  204MOL0     C26839   5.982   2.545   2.529 -0.3801  1.0319 -0.4681
  204MOL0    Cl26840   6.114   2.615   2.629  0.2988  0.0339 -0.4124
  204MOL0     C26841   5.501   1.974   3.179 -0.3342  0.1678 -0.3946
  204MOL0     C26842   5.433   1.952   3.297 -0.2328  0.3275 -1.0158
  204MOL0     O26843   5.174   1.679   3.407 -0.3116 -0.1627  1.1948
  204MOL0     C26844   5.171   1.857   3.707 -0.8192 -0.4495 -1.5283
  204MOL0     C26845   5.115   1.853   3.839  0.3530 -0.2187  0.4903
  204MOL0     N26846   4.634   2.172   3.653 -0.0371  0.5382  0.1255
  204MOL0     N26847   4.564   2.230   3.565  0.1768  0.1113 -0.2567
  204MOL0     C26848   5.099   2.774   3.586  0.4786  0.2299 -0.2978
  204MOL0     C26849   5.234   2.770   3.602 -0.1889  0.0023  0.1436
  204MOL0     C26850   5.668   2.925   3.519 -0.7206  0.7008  0.5399
  204MOL0     C26851   5.760   3.032   3.548 -0.8368  0.6778 -0.3409
  204MOL0     C26852   5.895   3.018   3.524  1.0942 -0.1052 -0.6486
  204MOL0     C26853   5.944   2.903   3.470 -0.6682  0.3516 -0.2587
  204MOL0     O26854   6.071   2.920   3.419  0.3310  0.1545 -1.0001
  204MOL0     C26855   6.131   2.813   3.345 -0.5439  0.3848  0.2843
  204MOL0     C26856   6.062   2.823   3.205  0.6835 -0.0811 -1.0667
  204MOL0     C26857   6.119   2.714   3.104  0.0440 -0.5661  0.3580
  204MOL0     C26858   6.154   2.766   2.963  1.2027  0.3934  0.1664
  204MOL0     C26859   6.041   2.816   2.888  0.5287  0.0118 -0.7564
  204MOL0     C26860   5.949   2.854   2.816  0.0791  0.7269  0.0219
  204MOL0     C26861   5.855   2.796   3.452 -0.8824  0.2092 -0.2471
  204MOL0     C26862   5.722   2.805   3.471 -1.0915  0.0415  0.0526
  204MOL0     H26863   5.318   2.920   3.313 -0.1917  0.1210  0.2050
  204MOL0     H26864   5.078   2.908   3.279 -1.1728 -0.5915  1.8007
  204MOL0     H26865   4.901   2.590   3.468  2.0999 -0.2963 -1.7670
  204MOL0     H26866   4.956   2.649   3.312  0.0299 -0.7245 -0.1422
  204MOL0     H26867   4.715   2.566   3.299 -1.2270 -0.9254 -0.1867
  204MOL0     H26868   4.744   2.731   3.259  2.8797 -2.2371 -1.5107
  204MOL0     H26869   4.654   2.796   3.497  1.8115  0.1710  0.3649
  204MOL0     H26870   4.671   2.637   3.551  0.7125 -1.5635 -0.8760
  204MOL0     H26871   4.441   2.745   3.484 -1.7766 -2.0466  1.0025
  204MOL0     H26872   4.490   2.716   3.316  2.3268 -1.4842  0.2761
  204MOL0     H26873   4.502   2.471   3.393  0.4284  1.6298  0.5067
  204MOL0     H26874   4.362   2.548   3.320 -1.5194  0.6499 -0.6079
  204MOL0     H26875   4.303   2.610   3.577 -1.1762  0.1873  1.1812
  204MOL0     H26876   4.434   2.490   3.618  0.1625 -1.5909  0.0865
  204MOL0     H26877   4.183   2.404   3.611 -0.9782 -1.6942  0.7171
  204MOL0     H26878   4.177   2.428   3.442 -0.3395  3.3171  0.8974
  204MOL0     H26879   4.358   2.270   3.388 -0.4314 -0.2499 -0.2524
  204MOL0     H26880   4.252   2.183   3.492  1.3965 -2.0622 -2.8475
  204MOL0     H26881   4.317   2.138   3.756  0.5320 -0.8243 -0.4321
  204MOL0     H26882   4.533   1.928   3.819  0.5340  0.9054 -2.0493
  204MOL0     H26883   4.491   2.054   3.918 -0.3593 -5.0133  1.5432
  204MOL0     H26884   4.745   2.115   3.924 -1.0163  0.8687 -2.2910
  204MOL0     H26885   4.779   1.992   3.805  0.9392 -0.6096 -0.6238
  204MOL0     H26886   4.676   1.943   4.082 -0.8591  0.2816 -0.4530
  204MOL0     H26887   4.683   1.811   3.976  1.5928 -1.3251  0.5635
  204MOL0     H26888   4.882   1.870   4.134 -0.9225 -0.7552 -0.0914
  204MOL0     H26889   4.945   1.959   4.007  2.5166 -1.3583  0.8316
  204MOL0     H26890   4.867   1.627   3.779  1.3691 -2.0229 -0.8859
  204MOL0     H26891   4.974   1.629   3.558  2.5510 -0.6098 -0.4726
  204MOL0     H26892   5.119   1.907   3.188 -0.2024 -0.8799  2.7901
  204MOL0     H26893   5.251   1.934   2.962  1.6368 -1.9771 -0.0886
  204MOL0     H26894   5.673   1.895   2.950  0.0296  1.2149  1.4551
  204MOL0     H26895   5.690   2.048   3.006 -0.8675 -0.0608  2.4278
  204MOL0     H26896   5.606   2.131   2.760 -1.3116 -0.9142  0.5565
  204MOL0     H26897   5.630   1.952   2.724  0.5248 -0.7871 -1.4926
  204MOL0     H26898   5.843   2.047   2.664  0.0011  0.4866  0.8369
  204MOL0     H26899   5.867   1.997   2.831 -0.4997  1.6202  3.3358
  204MOL0     H26900   5.770   2.257   2.880  1.6098  1.2451  0.5093
  204MOL0     H26901   5.939   2.215   2.856 -1.7622  1.0377  3.2555
  204MOL0     H26902   5.730   2.310   2.652  0.1096  1.8986 -1.1873
  204MOL0     H26903   5.910   2.276   2.613 -1.0274 -0.7264 -0.4278
  204MOL0     H26904   5.946   2.465   2.780 -0.5135  0.3185  3.3266
  204MOL0     H26905   5.771   2.487   2.797  1.9250  0.8533  0.9607
  204MOL0     H26906   5.766   2.519   2.547  1.1361 -2.7015 -1.8023
  204MOL0     H26907   5.840   2.651   2.639  0.3049  0.8901 -2.5090
  204MOL0     H26908   5.961   2.608   2.443 -1.8494  2.1828  0.6798
  204MOL0     H26909   6.000   2.446   2.487 -1.4265 -0.6382  2.6507
  204MOL0     H26910   5.604   2.002   3.196 -0.6864  0.1319  2.2135
  204MOL0     H26911   5.493   1.966   3.387  0.6617 -0.0454 -1.5428
  204MOL0     H26912   5.255   1.921   3.682 -1.5110  0.7555 -0.8911
  204MOL0     H26913   5.146   1.915   3.923 -2.9742  1.9473  0.3020
  204MOL0     H26914   5.032   2.742   3.665 -1.9179  0.2840 -2.1882
  204MOL0     H26915   5.273   2.731   3.695  1.0752 -5.4140 -2.2880
  204MOL0     H26916   5.723   3.128   3.583 -2.8155  0.0279 -0.5558
  204MOL0     H26917   5.966   3.100   3.530 -0.5276  1.3593 -0.6381
  204MOL0     H26918   6.109   2.714   3.386  0.0725  0.1332  0.0150
  204MOL0     H26919   6.236   2.836   3.326 -0.1789 -1.3038  0.0882
  204MOL0     H26920   5.953   2.819   3.213  0.8439 -1.7425  0.8527
  204MOL0     H26921   6.099   2.922   3.174  3.2011 -0.5258  0.2077
  204MOL0     H26922   6.048   2.631   3.092  0.3236 -0.8106  0.3978
  204MOL0     H26923   6.200   2.668   3.161  0.8600  2.1260  1.5429
  204MOL0     H26924   6.230   2.844   2.977  0.7366  1.4995 -2.7182
  204MOL0     H26925   6.200   2.683   2.908 -1.7193 -0.1927 -1.6145
  204MOL0     H26926   5.859   2.887   2.767  1.0126  0.8165 -1.7374
  204MOL0     H26927   5.875   2.703   3.399  0.9920 -1.2858  2.8083
  204MOL0     H26928   5.657   2.720   3.453  0.8994 -1.5962  0.1508
  205MOL0     O26929   0.140   3.318   8.996 -0.6033 -0.3061 -0.0707
  205MOL0     C26930   0.145   3.255   8.895  0.1751  0.0361 -0.4303
  205MOL0     O26931   0.040   3.192   8.841  0.0044  0.1755  0.5858
  205MOL0     C26932  -0.070   3.165   8.920  0.2994  0.5768 -0.3589
  205MOL0     C26933  -0.149   3.265   8.959  0.6591  0.2506 -0.2031
  205MOL0     C26934  -0.254   3.237   9.045 -0.8501  0.0717  0.1839
  205MOL0     C26935  -0.285   3.109   9.085 -1.2767 -0.4549  0.6485
  205MOL0     O26936  -0.379   3.079   9.177  0.6141 -0.3274  0.2152
  205MOL0     C26937  -0.510   3.130   9.170 -0.7228 -0.0956  0.9726
  205MOL0     C26938  -0.600   3.064   9.270  0.1189 -0.2121 -0.3603
  205MOL0     C26939  -0.604   2.906   9.264 -0.0518  0.4237 -0.5856
  205MOL0     C26940  -0.654   2.864   9.128  0.4963 -0.0307  0.2574
  205MOL0     C26941  -0.683   2.711   9.126 -0.0534  0.5984  0.2883
  205MOL0     C26942  -0.771   2.680   9.007 -0.3162  0.3841 -0.9251
  205MOL0     C26943  -0.705   2.690   8.874  0.8660 -0.1269  0.4440
  205MOL0     C26944  -0.805   2.626   8.769 -0.6455  0.8270 -0.4893
  205MOL0     N26945  -0.951   2.659   8.781  0.4922  0.2016 -0.4077
  205MOL0     C26946  -1.043   2.588   8.859  0.1756 -0.9660 -0.2751
  205MOL0     C26947  -1.161   2.655   8.842  0.3101  0.8560  0.3427
  205MOL0     C26948  -1.299   2.618   8.900  0.2198  0.3329  0.8950
  205MOL0     C26949  -1.362   2.719   8.986 -0.0110  1.1751  0.5974
  205MOL0     C26950  -1.514   2.676   9.003 -0.1892 -0.4895 -0.2868
  205MOL0     C26951  -1.592   2.760   9.107 -0.4509 -0.0031 -0.5871
  205MOL0     O26952  -1.629   2.887   9.061  0.0547  0.2865  0.4480
  205MOL0     C26953  -1.761   2.931   9.078  0.1890 -0.5589  0.0653
  205MOL0     C26954  -1.798   3.027   8.985  0.8619  0.4041 -0.5360
  205MOL0     C26955  -1.913   3.101   9.012 -0.6629 -0.0652  0.5435
  205MOL0     C26956  -2.000   3.074   9.116 -0.2334 -0.1180 -0.3903
  205MOL0     C26957  -2.128   3.143   9.122  0.6418 -0.6829 -0.5230
  205MOL0     O26958  -2.150   3.255   9.046 -0.7668 -0.7454  0.5211
  205MOL0     C26959  -2.270   3.322   9.061 -0.2221  0.0799  0.3782
  205MOL0     C26960  -2.302   3.403   9.171  0.0421 -0.2790 -0.1395
  205MOL0     C26961  -2.434   3.448   9.191 -0.4968  1.0007 -0.3275
  205MOL0     C26962  -2.525   3.426   9.087  0.1704 -0.0064  0.1219
  205MOL0     O26963  -2.659   3.445   9.090 -0.3078 -0.7040  0.0242
  205MOL0     C26964  -2.703   3.548   9.189 -1.0130 -0.2254  0.1202
  205MOL0     C26965  -2.848   3.577   9.160  0.5032 -1.0834  0.8584
  205MOL0     C26966  -2.916   3.668   9.257 -0.6405 -0.4681  0.1905
  205MOL0     C26967  -3.064   3.694   9.246  0.3120  0.0869 -1.2946
  205MOL0     C26968  -3.150   3.568   9.277  0.2807  0.8972 -0.4924
  205MOL0     C26969  -3.152   3.504   9.417  0.3756 -0.1563  0.5102
  205MOL0     C26970  -3.264   3.404   9.425 -0.0064  0.0443  0.4098
  205MOL0     C26971  -3.250   3.324   9.556 -0.5471 -0.4201  0.0063
  205MOL0    Cl26972  -3.263   3.442   9.684 -0.2659 -0.6545 -0.4502
  205MOL0     C26973  -2.490   3.362   8.967 -0.0702 -0.2116 -0.8743
  205MOL0     C26974  -2.369   3.299   8.963 -0.3191  0.2840 -0.3599
  205MOL0     O26975  -2.198   3.115   9.218  0.1625 -0.4199  0.3424
  205MOL0     C26976  -1.965   2.976   9.210  0.3019 -0.6000  0.4883
  205MOL0     C26977  -1.841   2.911   9.198 -0.1285 -0.0828 -0.0511
  205MOL0     N26978  -1.143   2.748   8.747  0.6298  0.0142  0.5427
  205MOL0     N26979  -1.020   2.746   8.705  0.9679 -0.1473  0.3871
  205MOL0     C26980  -0.197   3.011   9.049  0.3799 -0.5262  0.0446
  205MOL0     C26981  -0.091   3.034   8.956  0.5331  0.4493  1.1997
  205MOL0     C26982   0.271   3.246   8.829 -0.9266 -0.3442 -0.9619
  205MOL0     C26983   0.397   3.292   8.893  0.0006  0.5608 -0.7940
  205MOL0     C26984   0.514   3.276   8.817  0.3756 -0.2273 -0.7576
  205MOL0     C26985   0.525   3.210   8.699  0.3185  0.5508 -0.1992
  205MOL0     O26986   0.642   3.224   8.638 -0.4063 -0.6852  0.4107
  205MOL0     C26987   0.671   3.123   8.539 -0.9636  1.3106  0.3068
  205MOL0     C26988   0.823   3.089   8.524  0.7551 -0.0319  0.0975
  205MOL0     C26989   0.909   3.211   8.501  1.2762 -0.2457 -1.0197
  205MOL0     C26990   0.999   3.257   8.614 -0.0570  0.3866  0.3282
  205MOL0     C26991   1.101   3.151   8.647  0.6571 -0.6511 -0.4021
  205MOL0     C26992   1.198   3.095   8.692 -0.4706  0.0559  1.1454
  205MOL0     C26993   0.405   3.160   8.643  0.3703  0.4745 -1.0211
  205MOL0     C26994   0.283   3.180   8.703 -0.1696 -0.3083 -0.2829
  205MOL0     H26995  -0.127   3.369   8.940 -0.6158  1.3971  3.7080
  205MOL0     H26996  -0.314   3.314   9.094  3.2650  1.8933  2.9179
  205MOL0     H26997  -0.539   3.113   9.065  2.1102  1.2042 -0.1138
  205MOL0     H26998  -0.510   3.238   9.185 -0.0403  0.3901 -1.9260
  205MOL0     H26999  -0.701   3.104   9.269 -0.2994 -0.6242  4.2300
  205MOL0     H27000  -0.568   3.093   9.371  0.8132 -1.1385 -0.2979
  205MOL0     H27001  -0.672   2.872   9.342  0.9680 -0.8002 -0.1891
  205MOL0     H27002  -0.506   2.864   9.288 -1.0225 -1.9511 -0.4834
  205MOL0     H27003  -0.745   2.913   9.093 -1.0507 -1.7657  1.6491
  205MOL0     H27004  -0.569   2.886   9.062  5.5157 -2.7732  5.0261
  205MOL0     H27005  -0.734   2.676   9.216 -0.3585  0.4722  0.0667
  205MOL0     H27006  -0.586   2.658   9.129 -0.3538  0.0527  2.7571
  205MOL0     H27007  -0.857   2.747   9.010 -1.6594 -1.2527  1.7260
  205MOL0     H27008  -0.816   2.582   9.025 -1.4970  1.0558 -0.0220
  205MOL0     H27009  -0.698   2.796   8.845  0.8444  0.1796  1.5171
  205MOL0     H27010  -0.608   2.640   8.874 -0.6724 -3.3871 -0.9532
  205MOL0     H27011  -0.793   2.517   8.776  1.6628  0.7577 -3.4377
  205MOL0     H27012  -0.760   2.653   8.673  2.6674  3.8457  1.7024
  205MOL0     H27013  -1.027   2.510   8.933  2.6745  0.2697  0.6036
  205MOL0     H27014  -1.271   2.526   8.951 -0.7806  0.4954  1.7654
  205MOL0     H27015  -1.362   2.599   8.812  3.4903  1.2731 -1.8805
  205MOL0     H27016  -1.349   2.814   8.933 -0.1660  2.2674  2.4594
  205MOL0     H27017  -1.306   2.739   9.077 -0.1316  0.0863  0.9293
  205MOL0     H27018  -1.559   2.692   8.905 -0.1731  1.8804  0.0138
  205MOL0     H27019  -1.521   2.570   9.028 -1.0189 -0.9784 -2.4310
  205MOL0     H27020  -1.533   2.784   9.196  1.0912  2.6993 -2.1917
  205MOL0     H27021  -1.683   2.705   9.133 -1.5784  1.5693 -1.0566
  205MOL0     H27022  -1.736   3.058   8.902  0.6592 -0.8272 -1.1627
  205MOL0     H27023  -1.943   3.182   8.946 -1.5572  1.9937  3.2721
  205MOL0     H27024  -2.223   3.424   9.243 -0.4427  1.4325 -0.0643
  205MOL0     H27025  -2.466   3.478   9.291  0.3372 -4.1371  1.8325
  205MOL0     H27026  -2.630   3.626   9.166  0.8660 -2.2695 -1.1344
  205MOL0     H27027  -2.695   3.507   9.290  0.4231  0.0920  0.1448
  205MOL0     H27028  -2.901   3.481   9.157 -1.7564  0.1049  0.2493
  205MOL0     H27029  -2.846   3.625   9.062 -3.0522 -2.2294  0.0630
  205MOL0     H27030  -2.858   3.761   9.252 -2.8079  0.9146 -0.7369
  205MOL0     H27031  -2.891   3.628   9.356 -0.7008 -0.3642  0.2481
  205MOL0     H27032  -3.087   3.770   9.321 -0.9275  1.2879 -2.8129
  205MOL0     H27033  -3.098   3.742   9.154 -1.1152 -1.1787 -1.4635
  205MOL0     H27034  -3.132   3.487   9.205  2.7914  2.0317 -1.2646
  205MOL0     H27035  -3.243   3.610   9.238  2.5139  3.7419 -3.3895
  205MOL0     H27036  -3.168   3.577   9.496 -2.2143  0.1794 -0.2370
  205MOL0     H27037  -3.053   3.461   9.431  0.4720 -0.2495 -0.3582
  205MOL0     H27038  -3.357   3.461   9.414  0.6583  0.7997 -1.7562
  205MOL0     H27039  -3.268   3.334   9.342 -0.2749  1.7087 -1.0390
  205MOL0     H27040  -3.149   3.281   9.564 -0.0581  1.0181  3.3159
  205MOL0     H27041  -3.318   3.240   9.574 -0.6126 -1.1558 -3.0890
  205MOL0     H27042  -2.559   3.348   8.884 -1.3343  3.0252 -0.5022
  205MOL0     H27043  -2.348   3.235   8.878  0.5102 -2.8184  1.9873
  205MOL0     H27044  -2.040   2.941   9.281 -0.8320 -0.5937 -0.6760
  205MOL0     H27045  -1.808   2.830   9.262 -0.2202 -0.9417 -1.0556
  205MOL0     H27046  -0.207   2.909   9.086 -3.7940 -0.7633 -1.2142
  205MOL0     H27047  -0.027   2.952   8.925 -3.0768 -2.1186  0.0232
  205MOL0     H27048   0.395   3.338   8.991 -1.5173  1.7825 -1.3459
  205MOL0     H27049   0.604   3.315   8.863 -0.7911  0.0921  1.4077
  205MOL0     H27050   0.622   3.138   8.443  1.5532  0.4275 -1.2245
  205MOL0     H27051   0.629   3.037   8.592  2.2924  1.3818  3.4223
  205MOL0     H27052   0.860   3.041   8.616 -1.8528 -3.0475 -0.2537
  205MOL0     H27053   0.837   3.023   8.438  3.2741 -0.4131  0.6953
  205MOL0     H27054   0.834   3.288   8.482  0.3042 -1.1766 -1.1098
  205MOL0     H27055   0.968   3.181   8.414  3.6412  0.0140  0.4240
  205MOL0     H27056   1.056   3.345   8.584 -2.4013  1.7164 -0.5114
  205MOL0     H27057   0.952   3.302   8.702  1.7383  0.5396  1.2600
  205MOL0     H27058   1.282   3.042   8.731 -1.8439 -3.8866 -0.6370
  205MOL0     H27059   0.412   3.099   8.553  0.8796 -1.5636  0.3359
  205MOL0     H27060   0.194   3.156   8.646  2.2772 -0.6636 -4.3489
  206MOL0     O27061   6.643   3.710   1.981 -0.1129  0.5777  0.0047
  206MOL0     C27062   6.765   3.684   1.976 -0.3305  0.9157 -0.0064
  206MOL0     O27063   6.821   3.556   1.994 -0.0170  0.0154  0.3011
  206MOL0     C27064   6.754   3.437   2.015 -0.5622  0.1715 -0.0819
  206MOL0     C27065   6.621   3.407   1.996 -0.4473  0.1427  0.4242
  206MOL0     C27066   6.565   3.280   2.026 -0.9579  0.1417 -0.2624
  206MOL0     C27067   6.659   3.176   2.068 -0.0714  0.5581 -0.5513
  206MOL0     O27068   6.615   3.044   2.081  0.0625 -0.4586  0.3305
  206MOL0     C27069   6.704   2.942   2.046  0.7105  1.0473  0.1405
  206MOL0     C27070   6.647   2.806   2.088 -0.5363  0.8659 -0.2004
  206MOL0     C27071   6.515   2.773   2.013 -0.8364  1.1905 -0.1876
  206MOL0     C27072   6.484   2.623   2.016 -0.0828 -0.6639  0.1134
  206MOL0     C27073   6.353   2.595   1.949  0.5416 -0.2631  0.0118
  206MOL0     C27074   6.346   2.453   1.928 -0.3922 -0.1642  0.1235
  206MOL0     C27075   6.236   2.410   1.832 -0.1162  0.4140  0.0762
  206MOL0     C27076   6.099   2.459   1.882  0.5141  0.5876  0.4429
  206MOL0     N27077   6.065   2.423   2.018  0.9167 -0.1757 -0.1962
  206MOL0     C27078   6.046   2.293   2.056 -0.5084 -0.7563 -0.1171
  206MOL0     C27079   6.006   2.305   2.179  0.6652 -0.0626  0.1836
  206MOL0     C27080   5.959   2.196   2.281  0.5787 -0.0598 -0.2607
  206MOL0     C27081   5.809   2.195   2.263 -0.0105  0.3850 -0.0170
  206MOL0     C27082   5.759   2.087   2.359 -0.8560 -0.6112 -0.0063
  206MOL0     C27083   5.608   2.080   2.376  0.0418  0.2011  0.3294
  206MOL0     O27084   5.567   1.957   2.437  0.1709  0.6263 -0.2855
  206MOL0     C27085   5.447   1.948   2.503 -0.2967  0.8277  0.4674
  206MOL0     C27086   5.430   1.843   2.598 -0.3564 -0.8577 -0.3397
  206MOL0     C27087   5.313   1.827   2.669 -0.5500 -0.1028  0.3113
  206MOL0     C27088   5.213   1.917   2.657 -0.5346 -0.0162  0.5070
  206MOL0     C27089   5.095   1.904   2.740  0.2002  0.0955  0.0102
  206MOL0     O27090   5.078   1.791   2.825 -0.0612  0.4725 -0.0394
  206MOL0     C27091   4.984   1.783   2.928  0.6466  0.5372  0.0558
  206MOL0     C27092   5.027   1.702   3.026  0.2350  0.6574 -0.3503
  206MOL0     C27093   4.949   1.686   3.135 -0.0513  0.4987  0.7108
  206MOL0     C27094   4.820   1.743   3.139  0.0990 -0.2512 -0.8506
  206MOL0     O27095   4.735   1.726   3.241  0.3000 -0.0073  0.0573
  206MOL0     C27096   4.770   1.800   3.363  0.2128  0.2197 -0.0712
  206MOL0     C27097   4.655   1.772   3.466  0.8006  0.3370 -0.1768
  206MOL0     C27098   4.534   1.861   3.428  0.3379  0.5657 -0.0654
  206MOL0     C27099   4.397   1.803   3.482 -0.3270  0.3071 -0.8159
  206MOL0     C27100   4.272   1.886   3.442 -1.1202 -0.9995 -0.1514
  206MOL0     C27101   4.148   1.835   3.505  0.0361 -0.5104 -0.8127
  206MOL0     C27102   4.024   1.931   3.483  0.3244 -0.2020 -0.3522
  206MOL0     C27103   3.887   1.866   3.509 -0.2969  0.6120 -0.0145
  206MOL0    Cl27104   3.861   1.722   3.404  0.3590 -0.2966  0.6311
  206MOL0     C27105   4.774   1.827   3.041  0.1025 -0.7833 -0.1788
  206MOL0     C27106   4.862   1.851   2.932  0.3539 -0.8268 -0.1866
  206MOL0     O27107   5.022   2.000   2.740 -0.0229 -1.0374 -0.3195
  206MOL0     C27108   5.229   2.013   2.564 -0.8832 -0.2639 -0.0103
  206MOL0     C27109   5.341   2.028   2.480 -0.8132  0.6156 -0.1827
  206MOL0     N27110   6.016   2.436   2.217 -0.3235 -0.3751  0.1488
  206MOL0     N27111   6.051   2.511   2.121  0.7153 -0.0887 -0.5137
  206MOL0     C27112   6.797   3.212   2.099  0.4621  0.6098  0.6480
  206MOL0     C27113   6.838   3.342   2.067 -0.1223 -0.3725  0.0417
  206MOL0     C27114   6.852   3.809   1.987  0.7980  0.5731 -1.1345
  206MOL0     C27115   6.799   3.937   1.972  0.3653  0.1483 -0.3558
  206MOL0     C27116   6.878   4.048   1.988  0.5266  0.1119 -0.9870
  206MOL0     C27117   7.016   4.036   2.008 -0.1534 -0.0903 -0.0081
  206MOL0     O27118   7.101   4.142   2.014  0.3272 -0.0772  0.1188
  206MOL0     C27119   7.152   4.171   1.887  0.7750 -0.9331  0.3447
  206MOL0     C27120   7.173   4.323   1.890 -0.2148 -0.9246 -0.1300
  206MOL0     C27121   7.046   4.400   1.891 -0.0473  0.7093 -0.3365
  206MOL0     C27122   6.977   4.404   2.033  1.0034 -0.2465 -0.7339
  206MOL0     C27123   6.856   4.494   2.034  0.1545  0.5856  0.4763
  206MOL0     C27124   6.753   4.559   2.032  0.7744  0.2358  0.1309
  206MOL0     C27125   7.074   3.909   2.012 -0.1490  0.7712 -0.3488
  206MOL0     C27126   6.989   3.791   2.004 -0.2559 -0.7496 -0.3771
  206MOL0     H27127   6.555   3.476   1.944 -0.0650  0.5505  0.4729
  206MOL0     H27128   6.460   3.272   2.002 -0.8581 -2.7665 -0.0908
  206MOL0     H27129   6.806   2.950   2.084  1.0102  1.1089 -0.6502
  206MOL0     H27130   6.700   2.950   1.937 -2.1034 -0.0772  0.0801
  206MOL0     H27131   6.632   2.799   2.197  0.5161  0.0542 -0.0944
  206MOL0     H27132   6.719   2.727   2.065 -1.5491  0.1939 -1.1559
  206MOL0     H27133   6.534   2.798   1.908  1.1300  0.4068 -0.0428
  206MOL0     H27134   6.426   2.826   2.050 -0.7241 -0.4218  2.6483
  206MOL0     H27135   6.568   2.563   1.978 -0.1781 -2.6163  2.7315
  206MOL0     H27136   6.475   2.595   2.121  0.7747 -2.0235 -0.1482
  206MOL0     H27137   6.331   2.641   1.852 -1.4433 -1.3786 -0.1023
  206MOL0     H27138   6.280   2.635   2.019 -1.8381  0.8576 -2.9165
  206MOL0     H27139   6.342   2.417   2.031  1.0121  2.6646  1.3068
  206MOL0     H27140   6.445   2.421   1.892  1.1215  0.4236  3.4095
  206MOL0     H27141   6.243   2.460   1.735 -0.8019  3.3182  1.3955
  206MOL0     H27142   6.252   2.303   1.824 -0.2705  0.5198 -2.0053
  206MOL0     H27143   6.026   2.421   1.810 -1.4798 -1.4325  3.3330
  206MOL0     H27144   6.089   2.568   1.879 -1.8517  0.4680  1.5970
  206MOL0     H27145   6.044   2.201   1.999  2.9303 -1.4539  0.6705
  206MOL0     H27146   5.984   2.230   2.382  1.0397 -1.2003  0.0212
  206MOL0     H27147   6.000   2.095   2.283  2.4567  0.6655  1.3732
  206MOL0     H27148   5.783   2.169   2.160 -1.0528 -0.0184  0.3280
  206MOL0     H27149   5.755   2.289   2.282 -3.2041 -0.7261 -2.6595
  206MOL0     H27150   5.793   1.990   2.320  4.5653  0.5978  0.8337
  206MOL0     H27151   5.808   2.085   2.457  2.0531 -2.3937 -1.3465
  206MOL0     H27152   5.581   2.080   2.270 -0.2488 -0.0735  0.4023
  206MOL0     H27153   5.569   2.170   2.424 -2.5310 -0.0815 -1.0308
  206MOL0     H27154   5.515   1.777   2.611  0.8949 -0.0426 -3.4986
  206MOL0     H27155   5.305   1.750   2.745 -0.6017  1.3969  1.8838
  206MOL0     H27156   5.116   1.639   3.026 -1.0202 -1.2100 -1.2819
  206MOL0     H27157   4.973   1.617   3.216 -3.0605 -1.2323  0.2839
  206MOL0     H27158   4.779   1.909   3.351  3.5428  0.5037  3.1437
  206MOL0     H27159   4.862   1.752   3.399  0.7427 -0.7674 -2.5364
  206MOL0     H27160   4.689   1.774   3.570  2.4187  1.7357 -0.6855
  206MOL0     H27161   4.621   1.668   3.455  2.3723 -0.3911  1.4008
  206MOL0     H27162   4.523   1.869   3.320  1.1463  1.6122 -0.0906
  206MOL0     H27163   4.555   1.962   3.465  2.7265  0.0414  0.1615
  206MOL0     H27164   4.369   1.704   3.444 -1.3599  0.1602  0.2560
  206MOL0     H27165   4.398   1.810   3.591  1.8986 -1.7649 -0.6126
  206MOL0     H27166   4.259   1.879   3.333 -2.3995  2.7004 -0.3883
  206MOL0     H27167   4.294   1.990   3.467 -1.0215 -1.0628  0.0269
  206MOL0     H27168   4.162   1.831   3.613 -0.3399  1.8427 -0.6277
  206MOL0     H27169   4.119   1.733   3.478 -3.2433  0.3539 -1.0636
  206MOL0     H27170   4.033   2.016   3.551 -2.3614  0.3260 -0.5667
  206MOL0     H27171   4.023   1.965   3.379  2.2890  2.8321  0.5101
  206MOL0     H27172   3.815   1.946   3.493  2.6484  3.1766 -1.5764
  206MOL0     H27173   3.869   1.833   3.612 -1.2146  0.9263 -0.0729
  206MOL0     H27174   4.676   1.873   3.036  0.7196  1.4040  3.6900
  206MOL0     H27175   4.839   1.919   2.850  0.5241  1.1571  1.3464
  206MOL0     H27176   5.140   2.075   2.555 -1.0079 -0.4075  0.2078
  206MOL0     H27177   5.344   2.100   2.399  3.5809 -0.7992 -1.5688
  206MOL0     H27178   6.874   3.145   2.135  1.5155  0.9000 -0.9398
  206MOL0     H27179   6.944   3.343   2.091 -0.6744 -0.7998  2.7938
  206MOL0     H27180   6.692   3.948   1.961  0.4181 -0.4578 -1.6919
  206MOL0     H27181   6.831   4.146   1.984 -1.6202 -0.7247  1.1067
  206MOL0     H27182   7.070   4.144   1.820 -3.0074  1.3324  3.5648
  206MOL0     H27183   7.247   4.120   1.870  1.0982 -0.1481 -0.2848
  206MOL0     H27184   7.233   4.352   1.977  0.4254 -0.0601 -0.8463
  206MOL0     H27185   7.231   4.360   1.805 -2.1719  0.6063 -0.8530
  206MOL0     H27186   6.974   4.371   1.814  0.2310 -0.5225 -0.1538
  206MOL0     H27187   7.066   4.504   1.860 -0.3082  0.5156 -1.1784
  206MOL0     H27188   6.945   4.310   2.078 -1.8743  0.6268 -0.8112
  206MOL0     H27189   7.043   4.455   2.103 -1.5229 -0.0646  1.6694
  206MOL0     H27190   6.662   4.616   2.036  1.1740  0.8341  0.9401
  206MOL0     H27191   7.179   3.911   2.041  0.0737 -1.6895 -0.7795
  206MOL0     H27192   7.024   3.688   2.013 -0.2141 -0.5534  2.8970
  207MOL0     O27193   0.614   9.324   2.017  0.8571 -0.1686  0.9695
  207MOL0     C27194   0.674   9.277   2.110 -0.6186 -0.1388  0.6293
  207MOL0     O27195   0.625   9.216   2.221 -0.0418  0.9859 -0.5403
  207MOL0     C27196   0.494   9.225   2.252 -0.5639  0.4528 -0.4141
  207MOL0     C27197   0.426   9.352   2.245 -0.1632 -0.1912  0.0714
  207MOL0     C27198   0.287   9.350   2.268  0.2020 -0.2839  0.8099
  207MOL0     C27199   0.217   9.237   2.288  0.5059 -0.1999  0.4579
  207MOL0     O27200   0.080   9.245   2.315 -0.4117  0.2292  0.3615
  207MOL0     C27201   0.002   9.156   2.232  0.1720 -0.3147  0.1191
  207MOL0     C27202  -0.040   9.242   2.114 -0.5244  0.1532  0.9730
  207MOL0     C27203  -0.165   9.320   2.132  0.8874 -0.6733 -0.1417
  207MOL0     C27204  -0.134   9.446   2.224 -0.7200 -0.4127 -0.3071
  207MOL0     C27205  -0.250   9.548   2.231  2.0484  0.1837  0.1133
  207MOL0     C27206  -0.377   9.477   2.287  0.1649  0.0002 -0.5326
  207MOL0     C27207  -0.487   9.586   2.296 -0.6233 -0.1654  0.1594
  207MOL0     C27208  -0.614   9.528   2.347 -0.1620  1.5304  0.1869
  207MOL0     N27209  -0.676   9.440   2.248  0.4746  0.4901  0.1683
  207MOL0     C27210  -0.750   9.475   2.135 -0.5683  0.0465 -0.3654
  207MOL0     C27211  -0.791   9.364   2.071 -0.0304 -0.2995 -0.4880
  207MOL0     C27212  -0.886   9.372   1.957 -0.1923 -0.4136  0.3321
  207MOL0     C27213  -1.024   9.291   1.981  0.0735 -0.1951  0.3724
  207MOL0     C27214  -1.147   9.370   2.022  0.2339 -0.3466  0.5569
  207MOL0     C27215  -1.274   9.293   1.997  0.6221 -0.2353 -0.4017
  207MOL0     O27216  -1.359   9.336   2.104  0.1924  0.2776  1.1570
  207MOL0     C27217  -1.476   9.264   2.131  0.7295 -0.1596 -0.2195
  207MOL0     C27218  -1.543   9.286   2.248 -0.2469  1.2912 -0.3389
  207MOL0     C27219  -1.660   9.219   2.279 -0.0723  0.2058 -1.0745
  207MOL0     C27220  -1.716   9.126   2.187  0.9772  0.7259  0.6534
  207MOL0     C27221  -1.843   9.059   2.218  1.0243 -0.5458  0.4943
  207MOL0     O27222  -1.895   9.091   2.342  0.3448  0.1833 -0.0154
  207MOL0     C27223  -2.030   9.075   2.372  0.6123 -0.3352 -0.8558
  207MOL0     C27224  -2.058   9.042   2.507 -0.3836  0.3485 -0.8823
  207MOL0     C27225  -2.187   8.998   2.545 -0.6244 -0.7113  0.2844
  207MOL0     C27226  -2.292   9.005   2.448 -1.0180 -0.3903 -0.8802
  207MOL0     O27227  -2.429   8.999   2.478  0.1553  0.1264 -0.1035
  207MOL0     C27228  -2.472   8.946   2.608 -0.5596  0.2471 -0.0911
  207MOL0     C27229  -2.620   8.914   2.614  0.4196  0.5244  0.3807
  207MOL0     C27230  -2.672   8.875   2.754 -0.2549  0.0837 -0.0509
  207MOL0     C27231  -2.688   9.002   2.844  1.2576  0.2880  1.0818
  207MOL0     C27232  -2.676   8.963   2.989 -0.3219 -0.0378  0.8816
  207MOL0     C27233  -2.714   9.073   3.089 -0.0799  0.1396  0.0237
  207MOL0     C27234  -2.613   9.198   3.090 -1.0641 -0.0489 -0.4804
  207MOL0     C27235  -2.503   9.173   3.195  0.4481  0.8384 -0.0793
  207MOL0    Cl27236  -2.351   9.105   3.112  0.1146 -0.1517  0.0863
  207MOL0     C27237  -2.268   9.055   2.327 -0.1455 -0.9118 -0.3331
  207MOL0     C27238  -2.138   9.085   2.284 -0.5200 -0.1256 -0.6051
  207MOL0     O27239  -1.895   8.998   2.121 -0.9143  0.2794 -0.9105
  207MOL0     C27240  -1.643   9.102   2.064 -0.2003  0.7646  0.4635
  207MOL0     C27241  -1.527   9.176   2.035  0.4025  0.3130 -0.5764
  207MOL0     N27242  -0.757   9.253   2.153 -0.4933  0.8500  0.3495
  207MOL0     N27243  -0.679   9.304   2.249  0.8693  0.2611 -0.1068
  207MOL0     C27244   0.282   9.111   2.302  0.3525 -0.7736  0.0484
  207MOL0     C27245   0.424   9.103   2.292 -0.0259  0.0255  0.2495
  207MOL0     C27246   0.824   9.273   2.101 -0.0402  0.0126 -0.0138
  207MOL0     C27247   0.914   9.221   2.199 -0.1624 -1.2758 -0.2481
  207MOL0     C27248   1.054   9.216   2.190 -0.3265 -1.1182  0.0421
  207MOL0     C27249   1.117   9.273   2.078 -0.4656  0.6838 -0.2354
  207MOL0     O27250   1.260   9.282   2.064  0.9616  0.0512  0.6625
  207MOL0     C27251   1.342   9.242   2.178  0.0680  0.1019  0.4529
  207MOL0     C27252   1.489   9.249   2.123  0.5833 -0.6962 -0.3149
  207MOL0     C27253   1.540   9.398   2.085 -0.4722 -0.3274  0.5910
  207MOL0     C27254   1.692   9.416   2.046  0.0874  0.1263  0.2590
  207MOL0     C27255   1.730   9.327   1.933 -0.0387  0.0766 -0.0148
  207MOL0     C27256   1.755   9.278   1.822  0.0571 -0.2085 -0.3406
  207MOL0     C27257   1.044   9.330   1.982  0.1264  0.4717  0.4387
  207MOL0     C27258   0.902   9.334   1.994  0.2308  0.2732  0.8787
  207MOL0     H27259   0.480   9.443   2.220 -3.3448  1.7417 -0.2421
  207MOL0     H27260   0.230   9.442   2.260 -2.8567 -2.1598 -1.4600
  207MOL0     H27261  -0.089   9.124   2.283 -0.3103  0.2801 -0.3390
  207MOL0     H27262   0.056   9.069   2.192  1.5232  1.0746 -1.2153
  207MOL0     H27263  -0.055   9.174   2.030  0.4408  0.0692  0.8572
  207MOL0     H27264   0.036   9.310   2.074  0.7467 -1.5470  0.3989
  207MOL0     H27265  -0.249   9.255   2.157 -1.1118  1.3281 -1.2356
  207MOL0     H27266  -0.192   9.362   2.034  1.5110  0.4377  0.1425
  207MOL0     H27267  -0.102   9.428   2.327 -0.0102  0.5844 -0.3421
  207MOL0     H27268  -0.055   9.500   2.172 -2.5992  1.7752 -1.0827
  207MOL0     H27269  -0.281   9.595   2.138 -2.6161  0.7111  1.6847
  207MOL0     H27270  -0.223   9.633   2.293 -0.9957  1.6224 -0.3712
  207MOL0     H27271  -0.351   9.434   2.384 -3.4943  1.6991  1.4080
  207MOL0     H27272  -0.398   9.388   2.226  1.4509 -1.1531  0.6322
  207MOL0     H27273  -0.443   9.666   2.356 -0.5478  1.2361 -1.6412
  207MOL0     H27274  -0.508   9.625   2.195 -0.6215 -1.8487 -0.5220
  207MOL0     H27275  -0.675   9.614   2.376 -1.0866  1.0259 -0.2159
  207MOL0     H27276  -0.600   9.475   2.442 -2.5072  2.5860  1.2083
  207MOL0     H27277  -0.783   9.573   2.101 -1.8734 -0.3970 -0.4186
  207MOL0     H27278  -0.822   9.323   1.882  1.8025  2.2364  0.1692
  207MOL0     H27279  -0.915   9.475   1.938 -0.8847 -0.3669  1.5407
  207MOL0     H27280  -1.012   9.214   2.058 -0.2565  0.5341  1.1634
  207MOL0     H27281  -1.046   9.233   1.890  0.9294  0.2665 -0.1483
  207MOL0     H27282  -1.137   9.382   2.130  3.1027  3.1819  0.1171
  207MOL0     H27283  -1.160   9.470   1.979 -1.5088 -0.4533  0.7713
  207MOL0     H27284  -1.263   9.184   2.003  1.4240 -0.1802 -0.7484
  207MOL0     H27285  -1.317   9.321   1.900 -0.8247  0.9060  0.5209
  207MOL0     H27286  -1.514   9.377   2.301  2.1465  1.0593 -1.1472
  207MOL0     H27287  -1.711   9.235   2.373 -0.4775 -0.2269 -1.2173
  207MOL0     H27288  -1.981   9.054   2.583 -0.6347  0.4474 -0.6429
  207MOL0     H27289  -2.211   8.958   2.643 -1.3384  0.5837  0.6546
  207MOL0     H27290  -2.430   9.014   2.682  5.3605 -1.8617 -0.9455
  207MOL0     H27291  -2.416   8.854   2.626 -0.4893 -0.4049 -3.1058
  207MOL0     H27292  -2.629   8.829   2.545 -0.4814  0.2432  0.8209
  207MOL0     H27293  -2.679   8.997   2.572 -0.5651 -0.0552  0.5753
  207MOL0     H27294  -2.597   8.816   2.808 -1.4145  0.8728  2.5861
  207MOL0     H27295  -2.765   8.818   2.745  0.3899 -0.8113 -1.5114
  207MOL0     H27296  -2.613   9.078   2.819 -1.0104  2.7003  1.2126
  207MOL0     H27297  -2.785   9.045   2.818  1.2050  0.1936  1.1256
  207MOL0     H27298  -2.577   8.924   3.014  0.1744  1.2018  0.8985
  207MOL0     H27299  -2.739   8.875   3.005 -1.8238  1.4651  4.0058
  207MOL0     H27300  -2.705   9.033   3.191  1.7084  2.3154  0.7899
  207MOL0     H27301  -2.815   9.113   3.073 -0.0720 -0.4760 -1.7914
  207MOL0     H27302  -2.566   9.213   2.993  6.2567  1.5829  2.6788
  207MOL0     H27303  -2.670   9.283   3.128 -0.4831 -0.5129  1.6079
  207MOL0     H27304  -2.529   9.105   3.277  2.6483  2.3057  1.9906
  207MOL0     H27305  -2.479   9.270   3.241  0.0540  0.1625  1.6222
  207MOL0     H27306  -2.358   9.056   2.266 -0.2002 -1.8623 -0.2887
  207MOL0     H27307  -2.131   9.119   2.182 -1.3225  1.4239 -0.1653
  207MOL0     H27308  -1.674   9.013   2.009  1.6895 -0.8350  1.8570
  207MOL0     H27309  -1.475   9.153   1.943 -1.6528  0.5111 -1.8321
  207MOL0     H27310   0.219   9.027   2.327  0.6648 -1.1233 -0.3332
  207MOL0     H27311   0.473   9.008   2.310  0.7752  0.9132  3.3734
  207MOL0     H27312   0.860   9.168   2.277 -1.8741  1.5203  0.6100
  207MOL0     H27313   1.117   9.173   2.267  3.1436  1.2966 -1.1698
  207MOL0     H27314   1.314   9.139   2.205  1.1489 -0.2579  0.2722
  207MOL0     H27315   1.331   9.305   2.267 -1.7711 -0.6748  0.8133
  207MOL0     H27316   1.555   9.221   2.206 -0.6976 -2.2450  0.2280
  207MOL0     H27317   1.489   9.176   2.042 -1.0349 -2.1793  0.9575
  207MOL0     H27318   1.520   9.468   2.167  1.7022  1.3340 -0.1807
  207MOL0     H27319   1.500   9.431   1.989 -0.0152 -0.2090  0.4393
  207MOL0     H27320   1.692   9.524   2.027 -0.7654  0.3880  1.5859
  207MOL0     H27321   1.758   9.385   2.127  0.6927 -1.5561 -0.8291
  207MOL0     H27322   1.773   9.236   1.725  3.1265 -2.7185  1.1299
  207MOL0     H27323   1.083   9.362   1.886 -1.5726 -2.4046 -1.3710
  207MOL0     H27324   0.845   9.383   1.917  2.7065  0.7928 -0.7355
  208MOL0     O27325   3.079   5.652   0.263 -0.7165  0.0237 -0.0690
  208MOL0     C27326   3.152   5.668   0.361  0.0614  0.1149  0.3955
  208MOL0     O27327   3.116   5.703   0.487  0.1993 -0.3139 -0.1932
  208MOL0     C27328   2.984   5.698   0.519  0.2901  1.3131 -1.1952
  208MOL0     C27329   2.881   5.779   0.475  1.0260  0.2470  0.1269
  208MOL0     C27330   2.745   5.766   0.521 -0.2472 -1.5075 -0.3432
  208MOL0     C27331   2.717   5.666   0.610  1.1650 -0.2361  0.5646
  208MOL0     O27332   2.602   5.649   0.678  0.0302  0.3059  0.5393
  208MOL0     C27333   2.479   5.689   0.631  0.0710  0.1702  0.6497
  208MOL0     C27334   2.365   5.613   0.688 -0.4569  0.0266 -0.3270
  208MOL0     C27335   2.232   5.693   0.673 -0.2035 -0.4295  0.2269
  208MOL0     C27336   2.118   5.593   0.672 -0.3463 -0.5765  0.2785
  208MOL0     C27337   1.993   5.653   0.623 -0.1085  0.6817  0.0833
  208MOL0     C27338   1.874   5.566   0.653 -0.0418  0.2843  0.2636
  208MOL0     C27339   1.736   5.622   0.607 -1.7189  0.5126  0.1029
  208MOL0     C27340   1.622   5.549   0.663 -0.3805  0.9360  0.0409
  208MOL0     N27341   1.591   5.590   0.795  0.1094  0.1056 -0.6818
  208MOL0     C27342   1.519   5.701   0.818 -0.9569  0.6330  0.5531
  208MOL0     C27343   1.537   5.721   0.954 -0.4358 -0.5916 -0.1093
  208MOL0     C27344   1.489   5.846   1.024 -0.3939 -0.1183  0.4791
  208MOL0     C27345   1.341   5.839   1.064 -0.4934 -0.2061 -0.0546
  208MOL0     C27346   1.306   5.910   1.192 -1.3135  0.4288 -0.0590
  208MOL0     C27347   1.158   5.896   1.227  0.5041 -0.3672  0.4387
  208MOL0     O27348   1.123   6.027   1.272 -0.0243  0.1993 -0.2054
  208MOL0     C27349   0.986   6.057   1.283  0.0889  0.9030 -0.8664
  208MOL0     C27350   0.884   5.964   1.301 -0.1419  0.4745 -0.7130
  208MOL0     C27351   0.747   6.002   1.310 -0.8770 -0.6798  0.5531
  208MOL0     C27352   0.718   6.140   1.292  0.5017  0.6655  0.0189
  208MOL0     C27353   0.581   6.184   1.315  0.0109 -0.5215 -0.5111
  208MOL0     O27354   0.559   6.322   1.342 -0.5864  0.5826  0.6083
  208MOL0     C27355   0.431   6.354   1.379 -0.2116 -0.1998  0.7594
  208MOL0     C27356   0.386   6.482   1.348  0.3533 -0.6668  0.1812
  208MOL0     C27357   0.262   6.524   1.398  0.5179  0.6397 -0.0816
  208MOL0     C27358   0.183   6.452   1.481 -0.4517 -0.5081 -0.6169
  208MOL0     O27359   0.061   6.500   1.516 -0.1510 -0.4306  0.2425
  208MOL0     C27360  -0.004   6.465   1.636 -0.0910 -0.2419 -0.2621
  208MOL0     C27361  -0.114   6.565   1.679 -0.6073  0.1310 -0.2516
  208MOL0     C27362  -0.192   6.514   1.797 -0.1707  0.2250 -0.0571
  208MOL0     C27363  -0.316   6.431   1.745 -0.1544  0.4694  0.5462
  208MOL0     C27364  -0.410   6.367   1.846  0.3683  1.0412 -0.4588
  208MOL0     C27365  -0.443   6.453   1.965 -0.5984 -0.2086  0.9992
  208MOL0     C27366  -0.569   6.407   2.036 -0.0307 -0.1306 -0.2625
  208MOL0     C27367  -0.603   6.513   2.153  0.0537 -0.1998 -0.4144
  208MOL0    Cl27368  -0.760   6.450   2.217  0.1061  0.1788 -0.6035
  208MOL0     C27369   0.228   6.319   1.511 -0.4444  0.3672  0.7919
  208MOL0     C27370   0.359   6.277   1.472 -0.4854  0.2558  0.3806
  208MOL0     O27371   0.495   6.111   1.280  0.0332 -0.1988  0.6319
  208MOL0     C27372   0.812   6.230   1.260 -0.2831  0.4461 -0.0365
  208MOL0     C27373   0.946   6.189   1.265  0.8011 -0.3106 -0.1471
  208MOL0     N27374   1.604   5.619   1.012 -0.1981 -0.1392  0.4542
  208MOL0     N27375   1.631   5.538   0.915 -0.2644 -0.2157 -0.2166
  208MOL0     C27376   2.823   5.579   0.649  0.4423 -0.1701  0.8331
  208MOL0     C27377   2.955   5.595   0.608  0.0797  0.6937 -0.1018
  208MOL0     C27378   3.301   5.653   0.334  0.0867 -0.4487  0.4885
  208MOL0     C27379   3.343   5.605   0.216  0.6200  0.1403  0.5373
  208MOL0     C27380   3.481   5.596   0.185  0.0792 -0.9982  0.0520
  208MOL0     C27381   3.575   5.637   0.285 -0.3736 -0.1270 -0.0526
  208MOL0     O27382   3.710   5.614   0.252 -0.0210  0.8352  0.3180
  208MOL0     C27383   3.786   5.727   0.265 -0.6975 -0.8444 -0.4921
  208MOL0     C27384   3.758   5.817   0.149  0.3781 -0.3542  0.0768
  208MOL0     C27385   3.815   5.761   0.017  0.6815  0.8794 -0.4031
  208MOL0     C27386   3.783   5.830  -0.112  0.4765  1.0979  0.4270
  208MOL0     C27387   3.640   5.828  -0.135  0.1871  0.5215 -0.2584
  208MOL0     C27388   3.519   5.831  -0.148  0.0212 -0.7261 -0.8548
  208MOL0     C27389   3.531   5.687   0.413  1.6436 -0.4036 -0.1737
  208MOL0     C27390   3.391   5.689   0.435  0.2325  0.3415 -0.4106
  208MOL0     H27391   2.900   5.859   0.404 -1.6897  2.9094  2.1643
  208MOL0     H27392   2.674   5.840   0.485  1.1205 -0.2909 -0.5934
  208MOL0     H27393   2.465   5.688   0.523 -1.6902 -2.1919  0.8245
  208MOL0     H27394   2.482   5.797   0.652 -0.4335  0.5835 -1.2598
  208MOL0     H27395   2.372   5.598   0.796  0.9819  0.3719 -0.3592
  208MOL0     H27396   2.364   5.511   0.650 -2.2871  0.7947 -2.5692
  208MOL0     H27397   2.221   5.748   0.579 -2.1354 -1.0098  0.0672
  208MOL0     H27398   2.228   5.764   0.757  0.5051  2.2337 -1.8707
  208MOL0     H27399   2.153   5.500   0.625  1.3131 -0.5586  1.3692
  208MOL0     H27400   2.098   5.574   0.778  0.1098  0.2810  0.5275
  208MOL0     H27401   2.006   5.645   0.514 -0.4904  0.7500  0.0332
  208MOL0     H27402   1.982   5.753   0.664 -2.4744 -0.2760  2.0112
  208MOL0     H27403   1.866   5.547   0.761  2.4253  0.1349  0.4617
  208MOL0     H27404   1.898   5.472   0.601  0.0714  0.9943 -1.0039
  208MOL0     H27405   1.737   5.727   0.638 -0.2836 -0.1012  2.4036
  208MOL0     H27406   1.733   5.628   0.497  3.9145  1.2364 -0.3088
  208MOL0     H27407   1.641   5.441   0.668 -3.1449  0.3036 -1.3096
  208MOL0     H27408   1.541   5.566   0.591  0.0752  1.4553 -0.3623
  208MOL0     H27409   1.469   5.765   0.746  0.2895 -1.0904 -2.0000
  208MOL0     H27410   1.506   5.929   0.954 -2.0816 -0.4050 -0.3143
  208MOL0     H27411   1.561   5.861   1.105 -0.1045 -1.0526  0.4042
  208MOL0     H27412   1.313   5.734   1.076 -1.6108  0.3370  3.0670
  208MOL0     H27413   1.278   5.885   0.987  0.0300  1.6938  0.5877
  208MOL0     H27414   1.373   5.876   1.271 -0.0054  0.3651 -1.1680
  208MOL0     H27415   1.321   6.015   1.163 -1.6305  0.1173 -1.4200
  208MOL0     H27416   1.139   5.822   1.305  2.5960 -1.2323  0.1814
  208MOL0     H27417   1.108   5.880   1.131 -0.4911  0.3563  0.8174
  208MOL0     H27418   0.912   5.859   1.310  0.5267  0.6440 -0.8031
  208MOL0     H27419   0.674   5.932   1.349 -0.4764  0.1450  2.9545
  208MOL0     H27420   0.437   6.545   1.275 -1.7932  0.6796 -0.2671
  208MOL0     H27421   0.234   6.626   1.373  2.3287  1.5980  1.5685
  208MOL0     H27422   0.068   6.448   1.717  1.4621  1.3277 -1.2457
  208MOL0     H27423  -0.056   6.370   1.620 -1.6677  0.6967 -0.9325
  208MOL0     H27424  -0.180   6.593   1.597 -0.8983 -1.9349 -0.7832
  208MOL0     H27425  -0.057   6.654   1.708  2.5401 -0.3297 -4.1251
  208MOL0     H27426  -0.229   6.601   1.853 -0.9868 -1.2444  1.7892
  208MOL0     H27427  -0.135   6.454   1.868 -1.7440 -0.5972  0.5443
  208MOL0     H27428  -0.381   6.506   1.700 -0.4899  0.8051  1.5451
  208MOL0     H27429  -0.287   6.368   1.661  0.7407 -0.0376  1.2108
  208MOL0     H27430  -0.376   6.268   1.881 -1.1343  1.7899  3.6526
  208MOL0     H27431  -0.505   6.343   1.797  0.9541 -1.3091 -0.5633
  208MOL0     H27432  -0.464   6.550   1.920 -0.3319 -0.1876  0.9230
  208MOL0     H27433  -0.362   6.457   2.038  1.4897 -0.2828 -1.2256
  208MOL0     H27434  -0.653   6.399   1.966  1.7437 -2.1693 -2.3480
  208MOL0     H27435  -0.560   6.308   2.082 -0.2067  0.4451  1.0516
  208MOL0     H27436  -0.594   6.610   2.103 -2.1469 -0.5119 -1.5647
  208MOL0     H27437  -0.534   6.515   2.237 -0.8094 -0.3518  0.3158
  208MOL0     H27438   0.156   6.265   1.571 -1.1431 -0.2776 -0.5888
  208MOL0     H27439   0.391   6.178   1.503 -0.3263 -0.3832 -1.6811
  208MOL0     H27440   0.787   6.335   1.250 -0.1363  0.3430 -1.6476
  208MOL0     H27441   1.018   6.269   1.254  1.4603 -0.8592  0.0950
  208MOL0     H27442   2.792   5.492   0.705  0.7178 -0.8734 -0.0746
  208MOL0     H27443   3.029   5.528   0.650 -0.6909 -0.0528  0.0939
  208MOL0     H27444   3.271   5.563   0.146  0.4997 -0.2371  0.8800
  208MOL0     H27445   3.511   5.565   0.085 -0.2392  3.0744 -1.4876
  208MOL0     H27446   3.889   5.691   0.263  0.0315  1.1841 -1.6244
  208MOL0     H27447   3.771   5.787   0.355  0.5274 -1.7139  0.3207
  208MOL0     H27448   3.657   5.857   0.138  0.9336  0.4745 -3.1410
  208MOL0     H27449   3.816   5.908   0.169  0.3297 -0.3333  0.1235
  208MOL0     H27450   3.800   5.654  -0.002 -1.2768  1.2660 -1.2437
  208MOL0     H27451   3.922   5.775   0.034  0.4979  1.1893  0.5075
  208MOL0     H27452   3.816   5.934  -0.106  0.7695  1.2273 -2.3624
  208MOL0     H27453   3.826   5.790  -0.204  1.2391  3.0018 -0.0857
  208MOL0     H27454   3.416   5.801  -0.146  0.4159 -2.1979 -1.7008
  208MOL0     H27455   3.600   5.707   0.495  0.2090 -1.3548  1.3276
  208MOL0     H27456   3.356   5.725   0.531 -0.8353 -2.6716  0.4170
  209MOL0     O27457   5.235   5.065   3.967 -0.6191 -0.0104  0.3387
  209MOL0     C27458   5.331   5.056   4.047  0.1315  0.7255 -0.5875
  209MOL0     O27459   5.364   5.158   4.140  0.3445  0.0963 -0.1577
  209MOL0     C27460   5.318   5.289   4.138 -0.4286 -0.0059 -0.2111
  209MOL0     C27461   5.221   5.338   4.046 -0.9575 -0.1324 -0.4198
  209MOL0     C27462   5.177   5.470   4.060  0.5287 -0.1912 -0.0179
  209MOL0     C27463   5.237   5.564   4.144  0.6586 -0.7185  0.5467
  209MOL0     O27464   5.204   5.700   4.143 -0.2618 -0.1561 -0.5154
  209MOL0     C27465   5.149   5.759   4.259  0.4340  0.0857 -0.6627
  209MOL0     C27466   5.247   5.846   4.327 -0.4238 -0.6091  0.3402
  209MOL0     C27467   5.173   5.941   4.419  0.6218  0.8306  0.4770
  209MOL0     C27468   5.269   5.990   4.527 -0.9446  0.1395 -0.8635
  209MOL0     C27469   5.196   6.079   4.623  0.0304  0.4614 -1.1122
  209MOL0     C27470   5.301   6.142   4.726  0.0025  0.0313  0.9845
  209MOL0     C27471   5.250   6.201   4.849  0.2768  0.5409 -0.1434
  209MOL0     C27472   5.236   6.099   4.965  0.3054 -0.1996  0.6654
  209MOL0     N27473   5.203   6.165   5.090 -0.1973  0.1726  0.6652
  209MOL0     C27474   5.153   6.285   5.113 -0.2086 -0.7330 -0.1659
  209MOL0     C27475   5.138   6.288   5.251 -0.0052 -0.3036  0.3976
  209MOL0     C27476   5.061   6.380   5.347  0.0334 -0.5044  1.2153
  209MOL0     C27477   4.920   6.424   5.288 -0.0171 -0.2465  0.0187
  209MOL0     C27478   4.803   6.326   5.268  0.3782 -0.2170 -0.1895
  209MOL0     C27479   4.691   6.400   5.193 -0.7798 -0.1696  0.2959
  209MOL0     O27480   4.569   6.330   5.196 -0.9458 -0.3578 -0.4488
  209MOL0     C27481   4.457   6.410   5.165 -0.8437  0.5591 -0.1051
  209MOL0     C27482   4.464   6.535   5.100  0.3511  0.5037 -0.4561
  209MOL0     C27483   4.346   6.608   5.068  0.4933  0.4310 -0.1003
  209MOL0     C27484   4.218   6.554   5.104  0.1905 -0.2713 -0.5177
  209MOL0     C27485   4.089   6.636   5.092  0.7785  0.4538 -0.6892
  209MOL0     O27486   3.980   6.606   5.178 -0.2634  0.6514 -0.0962
  209MOL0     C27487   3.847   6.633   5.148 -0.3397 -0.3272 -0.5781
  209MOL0     C27488   3.749   6.658   5.253 -1.3396  0.6631 -0.3154
  209MOL0     C27489   3.616   6.681   5.220 -0.9588 -0.5324 -0.4089
  209MOL0     C27490   3.579   6.684   5.081 -0.0390  0.1323 -0.4416
  209MOL0     O27491   3.454   6.712   5.037  0.0119  0.2941 -0.8155
  209MOL0     C27492   3.350   6.632   5.091 -0.5251  0.8225  0.0508
  209MOL0     C27493   3.216   6.692   5.069 -0.6394  0.1333 -0.1899
  209MOL0     C27494   3.184   6.700   4.913  0.2479  0.4499  0.7695
  209MOL0     C27495   3.034   6.711   4.881 -0.3546  0.8483  0.2565
  209MOL0     C27496   2.978   6.839   4.932  0.4773  0.3664 -0.3884
  209MOL0     C27497   2.822   6.849   4.932 -0.5940  0.3474 -1.5553
  209MOL0     C27498   2.753   6.804   4.813  0.2842 -0.0873 -0.1688
  209MOL0     C27499   2.600   6.822   4.823  0.1592 -0.2533 -0.8315
  209MOL0    Cl27500   2.555   6.990   4.850  0.0715 -0.1876  0.1391
  209MOL0     C27501   3.671   6.658   4.983  0.2367  0.3964 -0.2079
  209MOL0     C27502   3.804   6.631   5.015 -0.0833 -0.4172 -0.0769
  209MOL0     O27503   4.089   6.717   5.004  0.0361  0.3046 -0.2437
  209MOL0     C27504   4.215   6.430   5.163  0.0547  0.5653  0.0555
  209MOL0     C27505   4.330   6.354   5.191  0.5654  0.9532 -0.0846
  209MOL0     N27506   5.192   6.175   5.296  0.0142 -0.4574  1.9565
  209MOL0     N27507   5.207   6.084   5.195 -0.0826  0.0274 -0.1789
  209MOL0     C27508   5.336   5.515   4.226  0.3792  0.3596 -0.2591
  209MOL0     C27509   5.382   5.380   4.226 -0.2489 -0.5006 -0.3031
  209MOL0     C27510   5.400   4.929   4.053 -0.3560  0.3664 -0.3558
  209MOL0     C27511   5.512   4.913   4.134  0.4859 -0.3353 -1.4262
  209MOL0     C27512   5.581   4.794   4.155 -0.4489  0.0724  0.1314
  209MOL0     C27513   5.531   4.681   4.090  0.2298  0.6477 -0.3708
  209MOL0     O27514   5.595   4.558   4.107  0.5025  0.3224 -0.6608
  209MOL0     C27515   5.504   4.448   4.135  0.8263 -0.2050  0.6856
  209MOL0     C27516   5.515   4.347   4.021 -0.2669 -0.4106 -0.1419
  209MOL0     C27517   5.462   4.207   4.056 -0.5715  0.6818 -0.2586
  209MOL0     C27518   5.522   4.118   3.946  0.0156  0.5251  1.4221
  209MOL0     C27519   5.459   3.984   3.951 -0.3186  0.4664  0.2639
  209MOL0     C27520   5.404   3.877   3.966 -0.4292  0.0103 -0.8792
  209MOL0     C27521   5.411   4.692   4.013  0.1311 -0.2567  0.2309
  209MOL0     C27522   5.346   4.813   3.994 -0.5270  0.1449  1.0562
  209MOL0     H27523   5.188   5.294   3.952 -2.0950  1.7559 -0.9634
  209MOL0     H27524   5.096   5.503   3.996  0.1663 -1.7289 -0.3688
  209MOL0     H27525   5.117   5.684   4.332 -0.4713  2.2033  1.2203
  209MOL0     H27526   5.066   5.824   4.229 -0.9313  0.2687  2.9579
  209MOL0     H27527   5.302   5.900   4.250  1.1111 -2.2087  0.2634
  209MOL0     H27528   5.324   5.792   4.383  1.4059  3.3604  2.0655
  209MOL0     H27529   5.093   5.884   4.468 -1.9788  0.6915 -3.4928
  209MOL0     H27530   5.130   6.029   4.371  0.4540  1.6880  2.1095
  209MOL0     H27531   5.311   5.913   4.592 -0.1188  2.2431  1.2417
  209MOL0     H27532   5.352   6.038   4.474 -1.3887  1.5742 -0.3129
  209MOL0     H27533   5.115   6.026   4.676 -1.6174  0.8898 -3.0961
  209MOL0     H27534   5.144   6.157   4.567 -2.9521  0.6586  1.6347
  209MOL0     H27535   5.349   6.223   4.671 -2.1315  0.4206 -0.4164
  209MOL0     H27536   5.377   6.067   4.751  1.2447  0.8925 -0.0580
  209MOL0     H27537   5.324   6.274   4.883  0.3184 -0.0901  1.1981
  209MOL0     H27538   5.157   6.257   4.840 -1.1209 -1.3618  1.5129
  209MOL0     H27539   5.329   6.042   4.964 -0.7089 -1.9240 -1.0176
  209MOL0     H27540   5.162   6.024   4.935  2.4799 -1.9842 -0.5116
  209MOL0     H27541   5.131   6.363   5.041 -0.6243 -0.9298 -0.2602
  209MOL0     H27542   5.122   6.468   5.370  1.7833 -1.3102 -0.1072
  209MOL0     H27543   5.035   6.323   5.436  0.8630 -1.4661  0.8575
  209MOL0     H27544   4.947   6.465   5.190 -0.2384  0.8580  0.4012
  209MOL0     H27545   4.891   6.498   5.363  1.9089  1.5897 -0.9286
  209MOL0     H27546   4.832   6.245   5.201 -0.6501 -2.5276  2.0036
  209MOL0     H27547   4.763   6.275   5.356 -2.1833 -1.3884 -1.9018
  209MOL0     H27548   4.732   6.417   5.093  0.6826  3.5103  1.3554
  209MOL0     H27549   4.676   6.495   5.247  2.0857  1.0278 -0.7799
  209MOL0     H27550   4.559   6.582   5.077  1.6583 -0.8128  1.8256
  209MOL0     H27551   4.360   6.703   5.016  0.1697  1.5932  1.8254
  209MOL0     H27552   3.779   6.662   5.357 -0.1497 -2.5216 -0.4408
  209MOL0     H27553   3.548   6.714   5.298  0.8548  0.6606  0.7413
  209MOL0     H27554   3.351   6.621   5.200  0.3225 -0.7868 -0.0926
  209MOL0     H27555   3.352   6.530   5.051 -3.2537 -0.4843  2.7939
  209MOL0     H27556   3.209   6.792   5.113 -0.8510 -0.4586  1.1738
  209MOL0     H27557   3.141   6.631   5.121  0.9328  1.6903  4.4550
  209MOL0     H27558   3.231   6.615   4.862  1.3706  0.4444  1.7837
  209MOL0     H27559   3.246   6.781   4.875  0.9652 -0.5409 -0.2486
  209MOL0     H27560   3.029   6.713   4.771  1.0328 -1.5176  0.0730
  209MOL0     H27561   2.971   6.624   4.900 -0.5415  1.0671  0.6538
  209MOL0     H27562   3.015   6.924   4.875 -3.8549  1.2056 -2.2788
  209MOL0     H27563   3.008   6.852   5.037 -1.5408 -1.6790  0.5507
  209MOL0     H27564   2.803   6.955   4.949 -0.9604  0.0850 -0.1265
  209MOL0     H27565   2.773   6.797   5.015 -1.6540  1.9955 -1.1071
  209MOL0     H27566   2.781   6.858   4.723 -0.7422  0.1217 -0.3798
  209MOL0     H27567   2.776   6.698   4.795 -1.6435 -0.7646  0.9993
  209MOL0     H27568   2.558   6.758   4.901 -0.5772 -0.9427 -1.7723
  209MOL0     H27569   2.556   6.792   4.728 -1.6911  2.8994 -1.1262
  209MOL0     H27570   3.651   6.666   4.877  1.0700  0.2355 -0.3861
  209MOL0     H27571   3.869   6.606   4.932 -1.8639 -0.8932 -1.4065
  209MOL0     H27572   4.116   6.392   5.185  0.0263  0.3472 -0.4528
  209MOL0     H27573   4.325   6.260   5.245 -2.3584  2.4849  2.6263
  209MOL0     H27574   5.392   5.589   4.283  0.4218 -0.8852  1.3837
  209MOL0     H27575   5.466   5.348   4.286  0.0747 -2.2801 -1.6357
  209MOL0     H27576   5.549   5.002   4.184  0.6685 -1.7020  1.0265
  209MOL0     H27577   5.676   4.786   4.207  0.5201 -2.8667 -1.7938
  209MOL0     H27578   5.401   4.481   4.154  0.7448 -0.3109  0.4261
  209MOL0     H27579   5.530   4.405   4.233  1.5422 -2.4508 -0.4396
  209MOL0     H27580   5.461   4.390   3.936  0.8303  1.0319 -0.1579
  209MOL0     H27581   5.619   4.349   3.987 -0.6916  0.7518 -1.4770
  209MOL0     H27582   5.353   4.198   4.059 -0.6656  1.1950 -1.7541
  209MOL0     H27583   5.506   4.182   4.153  1.1358 -0.4797 -1.2816
  209MOL0     H27584   5.505   4.159   3.846  0.5849  4.3225  2.6889
  209MOL0     H27585   5.629   4.105   3.962 -0.1635 -1.0977  1.4463
  209MOL0     H27586   5.366   3.778   3.979  2.5611 -1.2160 -0.6449
  209MOL0     H27587   5.373   4.603   3.963  3.2500 -1.9599  0.6240
  209MOL0     H27588   5.265   4.821   3.922 -0.7427  2.8300  1.4984
  210MOL0     O27589   8.137  10.458   1.099  0.3587  0.4029 -0.1568
  210MOL0     C27590   8.206  10.353   1.100 -0.3052 -0.4412  0.2819
  210MOL0     O27591   8.161  10.229   1.083  0.9150 -0.3215  0.2676
  210MOL0     C27592   8.027  10.216   1.052  0.0466  0.0296 -0.2623
  210MOL0     C27593   7.926  10.265   1.123  0.4434 -0.0191  0.0300
  210MOL0     C27594   7.796  10.223   1.096 -0.2954 -0.3803  0.5017
  210MOL0     C27595   7.767  10.136   0.995  0.2851 -0.2674  0.0121
  210MOL0     O27596   7.635  10.107   0.980 -0.3411 -0.4134  0.2189
  210MOL0     C27597   7.597   9.992   0.912  0.2778 -0.4231 -0.4835
  210MOL0     C27598   7.443   9.960   0.924 -0.4246  0.1751 -0.1079
  210MOL0     C27599   7.396   9.825   0.879 -0.2543  0.1372  1.1934
  210MOL0     C27600   7.246   9.816   0.891 -0.9807 -0.3111 -0.0286
  210MOL0     C27601   7.187   9.789   1.030 -0.2961  0.4254  0.1306
  210MOL0     C27602   7.161   9.641   1.049 -0.5779 -0.3646 -1.1544
  210MOL0     C27603   7.079   9.570   0.946 -0.0028 -0.0849  0.0084
  210MOL0     C27604   6.941   9.658   0.913 -0.8265  0.4292 -0.5410
  210MOL0     N27605   6.837   9.589   0.851  0.0858 -0.2966  0.7903
  210MOL0     C27606   6.784   9.466   0.881 -0.5122  0.3145  0.2364
  210MOL0     C27607   6.658   9.464   0.841 -1.5267 -0.5638  0.2514
  210MOL0     C27608   6.565   9.342   0.847  0.2732  0.3329 -0.2425
  210MOL0     C27609   6.454   9.332   0.745 -0.0057 -0.5853 -0.6154
  210MOL0     C27610   6.339   9.429   0.763  0.2215 -0.7821  0.3913
  210MOL0     C27611   6.247   9.441   0.644  0.6971 -0.4143  0.2759
  210MOL0     O27612   6.159   9.335   0.653  0.2493 -0.0231 -0.2858
  210MOL0     C27613   6.037   9.336   0.588 -0.6362 -0.5567  0.0977
  210MOL0     C27614   6.024   9.234   0.494 -0.6985  0.0499 -0.5082
  210MOL0     C27615   5.911   9.221   0.420  0.3901 -0.2253  0.4003
  210MOL0     C27616   5.800   9.298   0.453  1.1353 -1.7917 -0.3247
  210MOL0     C27617   5.672   9.298   0.378 -1.4641 -0.2073 -0.3635
  210MOL0     O27618   5.687   9.244   0.251  0.1783  0.1485 -0.9271
  210MOL0     C27619   5.591   9.240   0.156 -0.1544 -0.5285 -0.2768
  210MOL0     C27620   5.470   9.319   0.160 -0.2478 -0.6054 -0.9653
  210MOL0     C27621   5.379   9.302   0.063  0.2087  0.3718  0.4026
  210MOL0     C27622   5.406   9.214  -0.046 -0.2349 -0.2462  0.0432
  210MOL0     O27623   5.319   9.198  -0.152  1.4435 -0.0754  0.6122
  210MOL0     C27624   5.342   9.307  -0.250 -0.3047  0.1100  0.1548
  210MOL0     C27625   5.215   9.390  -0.255  0.1845 -0.4062 -0.7912
  210MOL0     C27626   5.213   9.472  -0.382 -0.1206 -0.8257  0.3244
  210MOL0     C27627   5.332   9.566  -0.400  0.2850 -0.8659 -0.6423
  210MOL0     C27628   5.320   9.685  -0.294 -0.5085  0.5648  0.8495
  210MOL0     C27629   5.273   9.816  -0.365 -0.4944  0.2349  0.0922
  210MOL0     C27630   5.124   9.812  -0.404 -0.6180 -0.6739 -0.1175
  210MOL0     C27631   5.073   9.953  -0.462 -0.0489  0.2243  0.2296
  210MOL0    Cl27632   4.905   9.920  -0.521  0.5278  0.4531  0.2690
  210MOL0     C27633   5.523   9.142  -0.052 -0.0444  0.2626 -0.6346
  210MOL0     C27634   5.610   9.146   0.053  0.2118  0.3674 -1.1599
  210MOL0     O27635   5.566   9.323   0.436  0.6681  0.4175 -0.0371
  210MOL0     C27636   5.814   9.396   0.555 -0.0067 -0.1463  0.0870
  210MOL0     C27637   5.931   9.421   0.620  0.0888  0.7370  1.0507
  210MOL0     N27638   6.637   9.583   0.782 -0.2207 -0.2156  0.0617
  210MOL0     N27639   6.739   9.653   0.784  0.1381 -0.0742  0.1332
  210MOL0     C27640   7.871  10.101   0.900 -0.0894 -0.3044 -0.6711
  210MOL0     C27641   8.004  10.142   0.935 -0.0372 -0.3219 -0.6067
  210MOL0     C27642   8.353  10.363   1.103 -1.2558  0.3626 -0.4965
  210MOL0     C27643   8.446  10.252   1.103 -0.1507 -0.1059 -0.5507
  210MOL0     C27644   8.587  10.271   1.098  0.1876 -0.4543  0.8184
  210MOL0     C27645   8.641  10.394   1.110  0.3679 -0.4844  0.2406
  210MOL0     O27646   8.779  10.391   1.124  0.8306  0.2059  0.0797
  210MOL0     C27647   8.847  10.506   1.078 -0.0621  0.0219 -0.0983
  210MOL0     C27648   9.000  10.477   1.086  0.1072 -0.3600 -0.0328
  210MOL0     C27649   9.082  10.588   1.152  0.2998 -0.6059 -0.0225
  210MOL0     C27650   9.239  10.568   1.126 -0.7085  0.7312 -0.4346
  210MOL0     C27651   9.293  10.432   1.167  0.1124 -1.0463  0.5260
  210MOL0     C27652   9.310  10.327   1.209 -0.0210  0.6270 -0.3674
  210MOL0     C27653   8.557  10.506   1.123 -0.1517  0.4753 -0.3147
  210MOL0     C27654   8.420  10.488   1.113 -0.7332 -0.4030  0.0004
  210MOL0     H27655   7.945  10.331   1.208 -0.5116  2.2762 -1.4536
  210MOL0     H27656   7.714  10.273   1.146  0.2920  0.5617  0.5578
  210MOL0     H27657   7.661   9.907   0.939 -0.6789 -1.9432 -2.6739
  210MOL0     H27658   7.627  10.002   0.807  0.9554 -1.4435 -0.4125
  210MOL0     H27659   7.394  10.037   0.864 -2.7007  1.0167  2.5966
  210MOL0     H27660   7.417   9.976   1.029  2.2058  0.9878  0.4858
  210MOL0     H27661   7.448   9.743   0.930 -2.8435 -2.0478  0.5237
  210MOL0     H27662   7.409   9.817   0.771  0.1383 -4.1477  1.3694
  210MOL0     H27663   7.219   9.919   0.865  0.8695  0.1742 -0.2043
  210MOL0     H27664   7.207   9.746   0.817 -0.1527  0.5158 -1.2808
  210MOL0     H27665   7.090   9.836   1.046 -1.2878 -1.3835 -0.2629
  210MOL0     H27666   7.258   9.832   1.101  0.2107  0.8474 -0.6211
  210MOL0     H27667   7.124   9.618   1.150 -0.0849  2.5679 -0.1881
  210MOL0     H27668   7.261   9.598   1.048  1.0946  3.0966  0.0842
  210MOL0     H27669   7.132   9.549   0.852  0.2946  2.8195 -0.5617
  210MOL0     H27670   7.052   9.472   0.986  0.8483 -0.0801  0.6070
  210MOL0     H27671   6.971   9.739   0.846 -0.2452 -0.3982 -1.3052
  210MOL0     H27672   6.899   9.695   1.008 -0.3141 -0.7330  0.1554
  210MOL0     H27673   6.841   9.382   0.919  1.9501  1.1164 -1.4009
  210MOL0     H27674   6.527   9.334   0.950  3.2758 -0.6325  0.8919
  210MOL0     H27675   6.630   9.258   0.822  1.7033  0.8542  1.5516
  210MOL0     H27676   6.413   9.231   0.741  1.2591 -1.0815 -1.5557
  210MOL0     H27677   6.501   9.345   0.647  0.4800 -1.1806 -0.4664
  210MOL0     H27678   6.279   9.399   0.850  0.3707 -0.6461  0.5434
  210MOL0     H27679   6.376   9.527   0.795 -1.8898  0.3938 -0.5574
  210MOL0     H27680   6.309   9.433   0.554  1.2440  1.5088  0.4335
  210MOL0     H27681   6.190   9.534   0.635 -2.2366 -1.9139  1.8240
  210MOL0     H27682   6.107   9.173   0.460 -0.2339 -0.1978  0.9889
  210MOL0     H27683   5.913   9.150   0.338 -3.8080  0.0216 -0.1064
  210MOL0     H27684   5.457   9.393   0.238 -2.0898 -1.4416 -0.4254
  210MOL0     H27685   5.296   9.372   0.070  1.1008  1.4773  0.4148
  210MOL0     H27686   5.373   9.268  -0.347  1.1907  1.1169  0.1752
  210MOL0     H27687   5.430   9.368  -0.226  1.4622 -1.5681 -1.7038
  210MOL0     H27688   5.204   9.447  -0.163  1.9969  0.2106 -0.9218
  210MOL0     H27689   5.129   9.321  -0.260 -0.3694  0.3422 -2.3800
  210MOL0     H27690   5.118   9.525  -0.388  0.8947  1.1734  1.1573
  210MOL0     H27691   5.214   9.409  -0.472  1.3236  1.0004 -1.0245
  210MOL0     H27692   5.428   9.513  -0.393 -0.1276 -1.4428  1.4352
  210MOL0     H27693   5.323   9.603  -0.502 -0.3359  0.6609 -0.0690
  210MOL0     H27694   5.424   9.695  -0.264  0.4421 -2.6261 -0.8449
  210MOL0     H27695   5.246   9.665  -0.216 -2.8265  0.0739 -1.3266
  210MOL0     H27696   5.321   9.821  -0.463  3.1045 -2.4757  1.5014
  210MOL0     H27697   5.300   9.895  -0.293  1.3802  0.5501 -0.8740
  210MOL0     H27698   5.108   9.745  -0.489 -0.5301 -0.0564 -0.6376
  210MOL0     H27699   5.053   9.799  -0.322  0.7399  1.3435  1.4870
  210MOL0     H27700   5.144   9.985  -0.538  0.1073  0.7501  0.5900
  210MOL0     H27701   5.060  10.035  -0.391 -3.0572  1.4090 -1.4627
  210MOL0     H27702   5.545   9.090  -0.144  0.3691 -1.4013  0.3821
  210MOL0     H27703   5.705   9.094   0.038  2.0168  3.1632 -0.2176
  210MOL0     H27704   5.726   9.450   0.587 -1.9409 -1.7595 -2.2097
  210MOL0     H27705   5.940   9.492   0.701  1.6604  1.3780  0.3545
  210MOL0     H27706   7.861  10.051   0.804  0.8673 -1.7225 -0.0563
  210MOL0     H27707   8.074  10.093   0.868 -1.2079 -1.9125 -0.7170
  210MOL0     H27708   8.413  10.148   1.105 -0.9013  0.1411 -0.0148
  210MOL0     H27709   8.648  10.183   1.088  0.8526 -0.0236  0.9880
  210MOL0     H27710   8.826  10.596   1.138  0.7937  1.3432 -1.6856
  210MOL0     H27711   8.821  10.528   0.975  0.5375  0.9528 -0.0715
  210MOL0     H27712   9.022  10.384   1.140 -0.5058 -0.4719  0.0394
  210MOL0     H27713   9.033  10.469   0.982  1.1029 -1.7550  0.3559
  210MOL0     H27714   9.069  10.594   1.261  1.4571  5.0118  0.1084
  210MOL0     H27715   9.041  10.680   1.109 -4.0629 -2.6730 -0.8656
  210MOL0     H27716   9.250  10.577   1.018 -0.0109 -1.9011 -0.6489
  210MOL0     H27717   9.303  10.645   1.171  0.1650  0.0764 -0.5361
  210MOL0     H27718   9.322  10.235   1.263 -1.4621  1.4075  1.3972
  210MOL0     H27719   8.593  10.608   1.122  0.2909  0.3257 -0.0382
  210MOL0     H27720   8.360  10.579   1.110  0.6099  0.4869 -2.6186
  211MOL0     O27721   8.963   8.835   4.907  0.9710 -0.3595  0.3344
  211MOL0     C27722   9.012   8.946   4.934  0.2458  0.2126 -0.2653
  211MOL0     O27723   8.938   9.057   4.957  0.0726  0.8668 -0.3614
  211MOL0     C27724   8.799   9.065   4.916 -0.4048 -0.6667  0.1794
  211MOL0     C27725   8.756   9.176   4.851  0.2261  0.5391 -0.3145
  211MOL0     C27726   8.626   9.184   4.794  0.1684 -0.0816 -0.4230
  211MOL0     C27727   8.532   9.086   4.821  0.1150 -0.6277  0.4819
  211MOL0     O27728   8.399   9.103   4.780 -0.5787  0.0826  0.0219
  211MOL0     C27729   8.299   9.016   4.821  0.8780 -0.1801 -0.2763
  211MOL0     C27730   8.172   9.095   4.770  0.8100  0.1630 -0.6413
  211MOL0     C27731   8.044   9.011   4.797 -0.0016 -0.1219  0.8729
  211MOL0     C27732   7.909   9.079   4.761  0.3312  0.7684  0.1053
  211MOL0     C27733   7.842   9.151   4.878  0.3407 -0.5005 -0.4075
  211MOL0     C27734   7.708   9.224   4.840  0.3775  0.9886  0.0265
  211MOL0     C27735   7.638   9.298   4.956  0.6851 -0.1852 -0.8427
  211MOL0     C27736   7.546   9.407   4.891  0.9437 -0.2513 -0.1669
  211MOL0     N27737   7.447   9.460   4.978  0.3808 -0.2151 -0.3103
  211MOL0     C27738   7.471   9.554   5.075  0.2632 -0.8353  0.0444
  211MOL0     C27739   7.349   9.588   5.127 -0.3696  0.0740 -0.3746
  211MOL0     C27740   7.328   9.667   5.249  0.1987 -0.9420 -0.1855
  211MOL0     C27741   7.266   9.806   5.220  0.1294  0.3638  0.3551
  211MOL0     C27742   7.230   9.897   5.346 -0.0762  0.0136  0.6347
  211MOL0     C27743   7.219  10.041   5.305 -0.1132 -0.4826  0.2204
  211MOL0     O27744   7.110  10.053   5.206 -0.4873 -0.0509 -0.4301
  211MOL0     C27745   7.035  10.165   5.209 -0.3891  0.2891 -0.0100
  211MOL0     C27746   6.907  10.157   5.151  0.9315  0.0483  0.2123
  211MOL0     C27747   6.834  10.266   5.120  0.2838 -0.0904  0.7075
  211MOL0     C27748   6.877  10.395   5.140  0.7247 -0.8599 -0.5294
  211MOL0     C27749   6.794  10.514   5.111  0.7098 -0.4969 -0.0533
  211MOL0     O27750   6.681  10.501   5.032 -0.0071  0.0899  0.3700
  211MOL0     C27751   6.617  10.611   4.989  0.3875  0.3692  0.6015
  211MOL0     C27752   6.644  10.678   4.872 -0.3714  0.4702  1.1005
  211MOL0     C27753   6.584  10.796   4.842  0.7259  0.3825 -0.4115
  211MOL0     C27754   6.492  10.855   4.927  0.8953  0.1879  0.1376
  211MOL0     O27755   6.442  10.981   4.899 -0.2069 -0.2007  0.1689
  211MOL0     C27756   6.333  11.038   4.963 -0.3677 -0.0918  0.8272
  211MOL0     C27757   6.300  11.169   4.897  0.1245  0.2102 -0.6919
  211MOL0     C27758   6.235  11.136   4.764  0.3430  0.6675 -0.8134
  211MOL0     C27759   6.175  11.265   4.708 -0.0649  0.0160  0.7656
  211MOL0     C27760   6.119  11.245   4.571  0.0163  0.4554 -0.6371
  211MOL0     C27761   6.077  11.373   4.504 -0.9413  0.5122 -0.0316
  211MOL0     C27762   6.007  11.337   4.372 -0.0512  0.1264 -0.7696
  211MOL0     C27763   6.100  11.286   4.259 -0.5432 -0.0386 -0.9014
  211MOL0    Cl27764   6.252  11.369   4.246  0.3063 -0.2384 -0.0715
  211MOL0     C27765   6.462  10.791   5.052  0.4668  0.1029 -0.1229
  211MOL0     C27766   6.517  10.668   5.073 -0.0274  0.4377 -0.5910
  211MOL0     O27767   6.828  10.620   5.152  0.3729  0.0642  0.3960
  211MOL0     C27768   7.008  10.410   5.191  0.0240  0.1348  0.2800
  211MOL0     C27769   7.087  10.299   5.225  0.1913 -0.2032  0.2491
  211MOL0     N27770   7.256   9.512   5.065  1.2634  0.2510  0.7615
  211MOL0     N27771   7.308   9.447   4.963 -0.3679 -0.0589  0.3136
  211MOL0     C27772   8.573   8.975   4.899  0.9770 -0.0627 -0.2798
  211MOL0     C27773   8.708   8.961   4.943 -0.1969 -1.1701  0.8624
  211MOL0     C27774   9.156   8.959   4.952  0.0107 -0.4827  0.0763
  211MOL0     C27775   9.209   9.071   5.020  0.4934  0.2291  0.6589
  211MOL0     C27776   9.344   9.081   5.048 -0.8170 -0.1287  0.6338
  211MOL0     C27777   9.435   8.981   5.024 -0.7532 -0.3674  0.9397
  211MOL0     O27778   9.557   8.990   5.085 -0.1832 -0.1823 -0.1713
  211MOL0     C27779   9.629   8.861   5.105 -0.9462 -1.2268 -0.1320
  211MOL0     C27780   9.736   8.873   5.221 -0.1758  0.1243 -0.6809
  211MOL0     C27781   9.671   8.906   5.357 -0.1215  0.0347  0.2941
  211MOL0     C27782   9.784   8.938   5.455  0.0405  0.3225 -0.0535
  211MOL0     C27783   9.814   9.081   5.440  0.0412 -0.3055 -0.0349
  211MOL0     C27784   9.803   9.198   5.438  0.5104  0.1521 -0.5529
  211MOL0     C27785   9.384   8.870   4.954 -0.4838 -0.0433  0.8956
  211MOL0     C27786   9.254   8.856   4.916  0.2782 -0.6683  0.5571
  211MOL0     H27787   8.824   9.257   4.828 -0.6888  1.0041 -1.4639
  211MOL0     H27788   8.592   9.270   4.736  2.9016  0.7421 -0.9624
  211MOL0     H27789   8.295   9.010   4.930 -1.4097 -0.5758 -0.3330
  211MOL0     H27790   8.306   8.918   4.773 -0.7084  0.3371 -1.6420
  211MOL0     H27791   8.176   9.121   4.664 -1.2578 -1.0115 -1.0449
  211MOL0     H27792   8.152   9.193   4.813 -1.5890  0.0757 -1.4191
  211MOL0     H27793   8.039   8.964   4.897 -2.4442  0.6897  1.1935
  211MOL0     H27794   8.043   8.931   4.723 -1.9454  1.5881 -1.0659
  211MOL0     H27795   7.925   9.153   4.682  0.0204  0.4742 -0.2395
  211MOL0     H27796   7.845   9.001   4.720  0.1831 -0.9577  3.3349
  211MOL0     H27797   7.907   9.229   4.918  0.8021 -0.1331 -1.8359
  211MOL0     H27798   7.813   9.095   4.967  0.3222  1.1330  0.6667
  211MOL0     H27799   7.646   9.146   4.795  1.3220  1.0854 -1.5115
  211MOL0     H27800   7.719   9.300   4.763 -2.5681 -0.0655 -1.5909
  211MOL0     H27801   7.583   9.226   5.018  2.3723 -1.1203 -0.3693
  211MOL0     H27802   7.704   9.333   5.036  1.1265 -2.9005  0.1033
  211MOL0     H27803   7.497   9.365   4.802  2.1576 -0.1492 -0.9138
  211MOL0     H27804   7.618   9.482   4.856 -0.1234 -0.2808 -2.6951
  211MOL0     H27805   7.566   9.599   5.100 -0.2364  0.2556  0.0334
  211MOL0     H27806   7.413   9.691   5.313 -1.0050  1.9770  0.5032
  211MOL0     H27807   7.272   9.601   5.316  1.4905 -0.3850  1.5353
  211MOL0     H27808   7.175   9.787   5.162 -1.4204  1.0628  2.3969
  211MOL0     H27809   7.337   9.868   5.165  1.3697 -0.8268  0.5730
  211MOL0     H27810   7.141   9.859   5.396  0.1294 -0.3861  0.7044
  211MOL0     H27811   7.314   9.884   5.416  0.3978 -2.6894 -0.3102
  211MOL0     H27812   7.312  10.078   5.261 -0.6516 -0.7443 -1.1905
  211MOL0     H27813   7.206  10.100   5.396 -0.8726  0.3460 -0.4137
  211MOL0     H27814   6.878  10.053   5.134  2.6944 -0.2205 -1.5088
  211MOL0     H27815   6.735  10.247   5.082 -0.2261  0.5041  1.6789
  211MOL0     H27816   6.726  10.648   4.808  0.2990  2.7203  0.8164
  211MOL0     H27817   6.613  10.840   4.747  2.8464 -1.3478 -0.6254
  211MOL0     H27818   6.370  11.052   5.065 -0.3810 -0.2530  0.8532
  211MOL0     H27819   6.247  10.972   4.955 -0.9577  0.8016 -0.9096
  211MOL0     H27820   6.394  11.223   4.886  2.0404 -3.1575 -2.7713
  211MOL0     H27821   6.228  11.227   4.954  0.2158  0.6535 -1.0307
  211MOL0     H27822   6.146  11.075   4.787  1.0921  0.5396  2.1280
  211MOL0     H27823   6.306  11.089   4.696  0.2240  1.5214 -1.5419
  211MOL0     H27824   6.101  11.305   4.778 -0.6222 -1.1284  0.8644
  211MOL0     H27825   6.248  11.346   4.703  0.2057 -0.2792 -0.4832
  211MOL0     H27826   6.030  11.181   4.574  0.2162 -0.0974 -3.7206
  211MOL0     H27827   6.196  11.198   4.509 -1.8320 -0.4272 -2.3811
  211MOL0     H27828   6.154  11.445   4.475 -0.5901 -0.7997 -2.6064
  211MOL0     H27829   6.002  11.428   4.561 -1.7855 -1.1538  0.5518
  211MOL0     H27830   5.926  11.269   4.401 -2.3280  3.3082  1.0649
  211MOL0     H27831   5.957  11.431   4.344 -0.6012 -0.1024 -0.5643
  211MOL0     H27832   6.049  11.299   4.163 -1.5222  0.6850 -0.3010
  211MOL0     H27833   6.125  11.180   4.270 -1.4417 -0.2432 -0.7812
  211MOL0     H27834   6.406  10.843   5.129  1.1738  0.7287 -0.0237
  211MOL0     H27835   6.509  10.616   5.168 -2.5340  0.8474 -0.5186
  211MOL0     H27836   7.065  10.502   5.199  1.4175 -0.8306  2.1866
  211MOL0     H27837   7.190  10.314   5.256  0.1511  1.7506 -0.4041
  211MOL0     H27838   8.502   8.896   4.924 -0.2286  1.6708  2.1474
  211MOL0     H27839   8.734   8.871   4.998  0.7793 -1.0453  0.6305
  211MOL0     H27840   9.151   9.156   5.056  2.0793  1.5645  0.1879
  211MOL0     H27841   9.387   9.174   5.085  3.2929 -2.8077  3.5251
  211MOL0     H27842   9.669   8.826   5.010  0.5502  0.3480 -0.1461
  211MOL0     H27843   9.554   8.789   5.139 -0.4224 -2.4415 -1.4466
  211MOL0     H27844   9.797   8.782   5.228  1.4255  1.2602  0.9492
  211MOL0     H27845   9.807   8.953   5.200  0.3597 -0.2316 -0.2499
  211MOL0     H27846   9.604   8.827   5.393 -0.4755  0.3599  0.3529
  211MOL0     H27847   9.611   8.997   5.350  1.0511  0.6919 -2.1599
  211MOL0     H27848   9.756   8.913   5.558  0.2736 -5.1189 -0.9828
  211MOL0     H27849   9.867   8.870   5.433 -0.9256 -0.6399 -0.8466
  211MOL0     H27850   9.782   9.301   5.420 -1.3649  0.3551  2.1315
  211MOL0     H27851   9.450   8.787   4.929 -0.7117 -0.4332  1.5595
  211MOL0     H27852   9.214   8.778   4.851 -1.4526 -0.3983  1.2698
  212MOL0     O27853   9.707   6.525   3.595 -0.3121 -0.0437 -0.1731
  212MOL0     C27854   9.733   6.486   3.479 -0.4142 -0.0876  0.7596
  212MOL0     O27855   9.636   6.447   3.382  0.0034 -0.2604 -0.4124
  212MOL0     C27856   9.503   6.465   3.400 -0.7554 -0.3676  1.4722
  212MOL0     C27857   9.411   6.365   3.364  0.7630  0.6487  0.6634
  212MOL0     C27858   9.279   6.395   3.325  0.1582 -0.2895 -0.3198
  212MOL0     C27859   9.229   6.524   3.358 -0.0847  0.0577 -0.9424
  212MOL0     O27860   9.095   6.556   3.346 -0.0770  0.3143 -0.4396
  212MOL0     C27861   9.017   6.554   3.468 -0.7483 -1.1469  0.4225
  212MOL0     C27862   8.874   6.571   3.429  0.1863 -0.4872  0.2215
  212MOL0     C27863   8.788   6.551   3.554 -0.0897  0.4294 -0.5732
  212MOL0     C27864   8.638   6.603   3.532 -0.3061 -0.0303 -0.0329
  212MOL0     C27865   8.564   6.602   3.660  0.7709 -0.1440 -0.0762
  212MOL0     C27866   8.421   6.639   3.635  0.6585 -0.0985  0.5811
  212MOL0     C27867   8.341   6.536   3.553 -0.1206  0.4245  0.0234
  212MOL0     C27868   8.284   6.603   3.437 -0.4178 -0.3292 -0.4844
  212MOL0     N27869   8.196   6.507   3.360 -0.1783  0.0432 -0.6395
  212MOL0     C27870   8.088   6.439   3.401  0.1447  0.2667  0.5271
  212MOL0     C27871   8.033   6.374   3.294  0.1834 -0.3808 -0.0376
  212MOL0     C27872   7.917   6.279   3.285  0.0948  0.1432 -1.0047
  212MOL0     C27873   7.784   6.355   3.273 -0.1369 -0.4090 -1.0223
  212MOL0     C27874   7.658   6.265   3.287 -0.9019 -0.2276 -0.2786
  212MOL0     C27875   7.547   6.354   3.329  0.1627 -0.1587  0.1566
  212MOL0     O27876   7.424   6.288   3.304 -0.2195  0.5302 -0.5645
  212MOL0     C27877   7.307   6.364   3.330  0.6121 -0.3040  0.1569
  212MOL0     C27878   7.304   6.504   3.359 -0.1473 -0.1238  0.2733
  212MOL0     C27879   7.185   6.567   3.387 -0.3277 -0.2949 -0.2353
  212MOL0     C27880   7.066   6.495   3.396  0.1854 -0.0746 -0.1099
  212MOL0     C27881   6.946   6.566   3.435  0.5827 -0.7503 -0.4765
  212MOL0     O27882   6.835   6.494   3.449  0.2212  0.2363  1.3123
  212MOL0     C27883   6.726   6.538   3.511  0.4198 -0.3276  0.3332
  212MOL0     C27884   6.602   6.498   3.456  0.3979  0.6796 -0.3727
  212MOL0     C27885   6.481   6.535   3.504 -0.4454 -1.7932  0.0580
  212MOL0     C27886   6.474   6.630   3.616 -0.2192 -0.6830  0.3558
  212MOL0     O27887   6.360   6.681   3.672 -0.3164  0.0768  0.0253
  212MOL0     C27888   6.239   6.606   3.644 -0.3817  0.2120  0.7458
  212MOL0     C27889   6.114   6.665   3.712  0.3743 -0.5740 -0.4728
  212MOL0     C27890   5.986   6.576   3.683  0.2102 -0.3339  0.3129
  212MOL0     C27891   5.946   6.594   3.537  0.3131 -1.1522  0.5024
  212MOL0     C27892   5.830   6.499   3.514  0.4231  0.9647  0.4633
  212MOL0     C27893   5.704   6.575   3.456  0.0112 -0.1586 -0.5992
  212MOL0     C27894   5.627   6.662   3.565  1.0807 -0.2709  0.1305
  212MOL0     C27895   5.504   6.726   3.498 -0.0001 -0.0758 -0.2695
  212MOL0    Cl27896   5.412   6.606   3.395 -0.0600  0.0932  0.1979
  212MOL0     C27897   6.602   6.676   3.671  0.2082  0.5197 -0.8656
  212MOL0     C27898   6.725   6.632   3.619  0.6165  0.3878 -0.2828
  212MOL0     O27899   6.959   6.685   3.474 -0.0780 -0.6183  0.3450
  212MOL0     C27900   7.069   6.357   3.384  1.1596  0.1042  0.0071
  212MOL0     C27901   7.190   6.298   3.350  0.4240 -0.1758 -0.6382
  212MOL0     N27902   8.128   6.401   3.196  0.9398  0.0057  1.1916
  212MOL0     N27903   8.209   6.494   3.230  0.5751  0.2897  1.0460
  212MOL0     C27904   9.315   6.620   3.412  0.2226 -0.2007 -0.1051
  212MOL0     C27905   9.457   6.592   3.424 -0.3379  0.7413  0.7527
  212MOL0     C27906   9.881   6.494   3.435 -0.0305  0.7141 -0.2485
  212MOL0     C27907   9.987   6.541   3.519 -0.0463  0.6385 -0.3189
  212MOL0     C27908  10.119   6.508   3.485  0.2143  0.0499  0.0879
  212MOL0     C27909  10.153   6.439   3.371  0.8253  0.5589 -1.1302
  212MOL0     O27910  10.281   6.405   3.341 -0.2263 -0.2288  0.3245
  212MOL0     C27911  10.344   6.314   3.426  0.5536 -0.1250 -0.4550
  212MOL0     C27912  10.472   6.376   3.475  0.5500  0.0865  0.4468
  212MOL0     C27913  10.570   6.388   3.352  0.0213 -0.6598 -0.6706
  212MOL0     C27914  10.704   6.429   3.412 -0.3900 -0.1513 -0.0612
  212MOL0     C27915  10.808   6.427   3.305  0.7905  0.5092 -0.1831
  212MOL0     C27916  10.878   6.427   3.212  0.0694  0.3566  0.9820
  212MOL0     C27917  10.052   6.385   3.296 -0.2773 -0.2107  0.4513
  212MOL0     C27918   9.916   6.415   3.326 -0.4104 -0.5096 -0.1918
  212MOL0     H27919   9.449   6.264   3.350  0.0035  0.1218  2.1638
  212MOL0     H27920   9.211   6.322   3.283 -2.0491  0.7456  1.2530
  212MOL0     H27921   9.043   6.625   3.547  4.4022 -0.8919 -1.1383
  212MOL0     H27922   9.023   6.452   3.507 -1.1959 -1.8776 -1.3406
  212MOL0     H27923   8.837   6.504   3.351 -0.4522  0.7122 -0.5433
  212MOL0     H27924   8.857   6.674   3.396 -2.1926 -0.2424  1.9681
  212MOL0     H27925   8.825   6.603   3.643  1.2019 -0.0200 -0.8287
  212MOL0     H27926   8.788   6.445   3.579  0.1301  0.4051 -0.6755
  212MOL0     H27927   8.644   6.706   3.497  1.5973 -0.0347  0.2119
  212MOL0     H27928   8.590   6.539   3.457 -2.6488  1.0537  0.4334
  212MOL0     H27929   8.614   6.672   3.728  2.2566 -1.4365  0.2348
  212MOL0     H27930   8.565   6.504   3.710  2.8635 -0.7958 -1.2598
  212MOL0     H27931   8.420   6.740   3.592  1.8642  0.3647  1.5852
  212MOL0     H27932   8.373   6.644   3.733 -0.4311 -1.7211  0.1690
  212MOL0     H27933   8.399   6.447   3.526 -0.4869 -0.2420  1.3603
  212MOL0     H27934   8.255   6.497   3.608 -0.6242 -2.6068 -2.5984
  212MOL0     H27935   8.364   6.647   3.378  2.2714  2.3115  4.5435
  212MOL0     H27936   8.217   6.686   3.461 -2.5474 -2.1922  0.4036
  212MOL0     H27937   8.045   6.445   3.501 -0.7488  0.5744  0.1345
  212MOL0     H27938   7.921   6.214   3.373  1.4893 -0.6997 -1.6534
  212MOL0     H27939   7.926   6.211   3.200  1.4037 -0.1569 -0.6563
  212MOL0     H27940   7.787   6.394   3.171  0.7636 -3.3366 -2.2220
  212MOL0     H27941   7.786   6.443   3.337 -1.7540 -0.5592 -0.7252
  212MOL0     H27942   7.632   6.215   3.194  1.4010  0.6664 -1.4661
  212MOL0     H27943   7.671   6.196   3.371 -0.8144 -0.3182 -0.3684
  212MOL0     H27944   7.553   6.445   3.268 -1.1704 -1.1983 -1.6505
  212MOL0     H27945   7.548   6.370   3.437 -1.1436 -1.6325  0.4270
  212MOL0     H27946   7.384   6.575   3.339 -3.3011  3.4153 -1.0247
  212MOL0     H27947   7.185   6.675   3.403 -0.2281 -0.2463 -0.5569
  212MOL0     H27948   6.614   6.447   3.362  2.3101  0.7426 -0.2101
  212MOL0     H27949   6.386   6.504   3.463 -1.2034 -1.8870  1.7977
  212MOL0     H27950   6.254   6.499   3.664  2.1871 -0.0057 -1.7342
  212MOL0     H27951   6.238   6.622   3.536  0.0966  1.3990  0.9062
  212MOL0     H27952   6.095   6.770   3.691 -2.2136 -0.8123  0.3285
  212MOL0     H27953   6.135   6.664   3.819  0.5603 -2.7986 -0.4877
  212MOL0     H27954   5.910   6.609   3.754 -0.5203 -1.9892  0.3427
  212MOL0     H27955   6.014   6.473   3.703 -4.2944 -1.4846  1.8058
  212MOL0     H27956   5.917   6.697   3.513  0.8830 -1.3551 -1.1429
  212MOL0     H27957   6.025   6.574   3.464  1.3530 -0.9185  1.5254
  212MOL0     H27958   5.801   6.447   3.606  2.7199  0.2604  0.8402
  212MOL0     H27959   5.865   6.423   3.444 -0.7111  0.7055  0.1629
  212MOL0     H27960   5.637   6.501   3.412  1.6435 -1.7916 -0.4647
  212MOL0     H27961   5.740   6.637   3.374 -0.7811  0.7755 -0.2613
  212MOL0     H27962   5.600   6.596   3.648  2.5012  0.3387  1.1371
  212MOL0     H27963   5.694   6.743   3.596 -1.3176  2.8969 -2.3520
  212MOL0     H27964   5.544   6.807   3.436  1.0926 -0.5891 -0.2652
  212MOL0     H27965   5.440   6.768   3.576 -0.3808 -1.5237  0.2321
  212MOL0     H27966   6.601   6.739   3.760 -2.0191 -2.8190  1.7703
  212MOL0     H27967   6.819   6.656   3.666  1.4728  1.0553 -2.2293
  212MOL0     H27968   6.979   6.301   3.407 -0.0880  2.1902  0.4340
  212MOL0     H27969   7.190   6.189   3.351 -1.0453 -0.1984  0.0135
  212MOL0     H27970   9.263   6.715   3.424  3.7063  1.5575  3.3426
  212MOL0     H27971   9.530   6.672   3.426 -0.4810  1.0745 -2.7573
  212MOL0     H27972   9.971   6.589   3.615 -1.0168 -0.7371  0.2453
  212MOL0     H27973  10.201   6.537   3.550  0.0833  1.2874 -0.2713
  212MOL0     H27974  10.358   6.222   3.368  0.0390 -2.7813  3.1872
  212MOL0     H27975  10.288   6.280   3.514  0.1874  1.5844 -0.0024
  212MOL0     H27976  10.444   6.473   3.517  1.5391  0.9578 -0.8115
  212MOL0     H27977  10.504   6.307   3.554 -1.4168 -3.0358 -1.2808
  212MOL0     H27978  10.537   6.471   3.289  0.0355 -1.4427 -1.7366
  212MOL0     H27979  10.569   6.295   3.296  0.7906 -1.3938  0.4797
  212MOL0     H27980  10.703   6.534   3.443 -0.4810 -0.6628  1.7298
  212MOL0     H27981  10.733   6.354   3.486 -0.3889 -2.6580 -2.4226
  212MOL0     H27982  10.951   6.449   3.137  0.3840 -0.6853  0.9633
  212MOL0     H27983  10.081   6.318   3.215 -2.0112 -0.0636 -0.3377
  212MOL0     H27984   9.840   6.364   3.267 -0.3437  0.5116 -1.2063
  213MOL0     O27985   3.112   8.921   6.566 -0.6620 -0.1306 -0.1059
  213MOL0     C27986   3.218   8.861   6.587 -0.2555  0.1726  0.2376
  213MOL0     O27987   3.243   8.749   6.669  0.3649  0.2347 -0.1199
  213MOL0     C27988   3.144   8.687   6.733  0.0678  0.4296 -0.3390
  213MOL0     C27989   3.189   8.597   6.832 -0.9867  0.5794  0.1981
  213MOL0     C27990   3.099   8.515   6.903  1.2597 -0.9085  0.2015
  213MOL0     C27991   2.960   8.524   6.878 -0.5765  0.6062 -0.0973
  213MOL0     O27992   2.870   8.450   6.948  0.3782 -0.1439  0.5776
  213MOL0     C27993   2.898   8.397   7.080 -0.3188 -0.1022  0.1522
  213MOL0     C27994   2.773   8.356   7.161 -0.6403  0.3254  0.2580
  213MOL0     C27995   2.673   8.262   7.089  0.0286 -0.2848  0.3814
  213MOL0     C27996   2.540   8.255   7.167 -0.3579 -0.3613  0.4959
  213MOL0     C27997   2.427   8.171   7.102  0.2753  0.3366 -0.0538
  213MOL0     C27998   2.388   8.180   6.950  0.7299  0.4209 -0.4965
  213MOL0     C27999   2.335   8.324   6.934 -0.5281 -0.1479 -0.7673
  213MOL0     C28000   2.302   8.353   6.795  0.4999 -0.1828 -0.1131
  213MOL0     N28001   2.184   8.289   6.730 -0.1364 -0.6721 -0.2630
  213MOL0     C28002   2.162   8.277   6.592 -0.2668  1.0540  0.0578
  213MOL0     C28003   2.037   8.228   6.582 -0.0018 -0.4729 -0.1809
  213MOL0     C28004   1.970   8.197   6.450 -0.0185  0.3370 -0.3637
  213MOL0     C28005   1.819   8.202   6.464 -0.0930  0.9089 -0.4363
  213MOL0     C28006   1.765   8.170   6.326 -0.0857 -0.6444  0.3741
  213MOL0     C28007   1.614   8.178   6.323  0.0478 -0.0463  0.7272
  213MOL0     O28008   1.560   8.303   6.350  0.4178 -0.1855 -0.3439
  213MOL0     C28009   1.432   8.321   6.320 -0.6437 -0.2190  0.7095
  213MOL0     C28010   1.378   8.294   6.196 -0.0925 -1.0871  0.7212
  213MOL0     C28011   1.231   8.294   6.191 -0.1926  0.2447 -0.5211
  213MOL0     C28012   1.150   8.335   6.301  0.2917 -0.5555  0.0807
  213MOL0     C28013   1.006   8.341   6.286 -0.1839 -0.3170  0.6331
  213MOL0     O28014   0.967   8.321   6.158  0.1600 -0.7022 -0.3575
  213MOL0     C28015   0.832   8.329   6.135  0.4214  0.2029  0.9618
  213MOL0     C28016   0.786   8.425   6.042  0.0123 -0.0925  0.2248
  213MOL0     C28017   0.650   8.435   6.010 -0.1190 -0.3175 -0.9452
  213MOL0     C28018   0.556   8.353   6.065  1.2789 -0.7091  0.2013
  213MOL0     O28019   0.430   8.360   6.011 -0.0428 -0.5803  0.7841
  213MOL0     C28020   0.324   8.319   6.096 -1.6135 -0.1019 -0.0186
  213MOL0     C28021   0.195   8.377   6.051 -0.0989 -0.3063 -0.1529
  213MOL0     C28022   0.188   8.533   6.071 -0.3214 -0.1449 -1.0794
  213MOL0     C28023   0.080   8.606   5.989 -0.2652  0.0853 -0.0572
  213MOL0     C28024  -0.055   8.567   6.039 -0.2395  0.1164 -0.0479
  213MOL0     C28025  -0.174   8.628   5.958 -0.8995 -0.0664 -0.1017
  213MOL0     C28026  -0.199   8.764   6.013  1.0461 -0.5331 -0.9695
  213MOL0     C28027  -0.321   8.822   5.948  0.4636  0.2298  0.2665
  213MOL0    Cl28028  -0.310   8.834   5.774  0.0555 -0.0870  0.1950
  213MOL0     C28029   0.599   8.256   6.155  0.6405  0.1028 -0.6583
  213MOL0     C28030   0.733   8.249   6.194  1.2391  0.1835  0.1671
  213MOL0     O28031   0.929   8.350   6.386  0.3517 -0.1799  0.0669
  213MOL0     C28032   1.211   8.377   6.421  0.2155 -0.2688  0.3549
  213MOL0     C28033   1.350   8.381   6.420 -0.2894 -0.1329  0.9134
  213MOL0     N28034   1.975   8.216   6.712 -0.4936  0.3207 -0.0200
  213MOL0     N28035   2.070   8.268   6.795  0.8845  0.0319 -0.4831
  213MOL0     C28036   2.915   8.616   6.782  0.1253  0.6494 -0.4408
  213MOL0     C28037   3.000   8.698   6.715 -0.9103 -0.1626  0.2086
  213MOL0     C28038   3.335   8.916   6.520  0.2199  0.3770  0.0699
  213MOL0     C28039   3.466   8.856   6.528 -0.4508 -0.7763  0.9340
  213MOL0     C28040   3.577   8.908   6.467  0.1265 -0.3236 -0.4937
  213MOL0     C28041   3.577   9.036   6.409 -0.4823  0.6043  0.6444
  213MOL0     O28042   3.693   9.085   6.365 -0.5311 -0.5281  0.6603
  213MOL0     C28043   3.719   9.219   6.328  0.8011  0.0885  1.4792
  213MOL0     C28044   3.687   9.243   6.180  0.4027 -0.8849  0.1208
  213MOL0     C28045   3.707   9.380   6.121 -0.3027  0.1809  0.3778
  213MOL0     C28046   3.596   9.464   6.161  1.1928  0.0131  1.2862
  213MOL0     C28047   3.596   9.507   6.300 -0.2061 -0.2296 -0.0651
  213MOL0     C28048   3.598   9.545   6.414  0.2469  0.0255 -0.2051
  213MOL0     C28049   3.446   9.096   6.388 -0.2569 -0.1200 -0.6653
  213MOL0     C28050   3.329   9.036   6.442  0.8564  0.8043  0.0903
  213MOL0     H28051   3.293   8.578   6.858 -1.3750 -0.4797  1.0820
  213MOL0     H28052   3.136   8.471   6.995  0.2237  1.1711  1.6824
  213MOL0     H28053   2.960   8.470   7.133 -1.2932  1.1419 -0.3464
  213MOL0     H28054   2.968   8.314   7.067  0.9033  0.7232  1.2637
  213MOL0     H28055   2.712   8.441   7.195 -0.9911  0.5070 -0.7925
  213MOL0     H28056   2.808   8.303   7.250  3.2165  1.4202 -0.4501
  213MOL0     H28057   2.706   8.158   7.081  2.1658  0.4828 -2.4370
  213MOL0     H28058   2.652   8.295   6.986 -0.9694 -1.5336  0.1622
  213MOL0     H28059   2.561   8.221   7.269  0.7312  1.8637  1.0661
  213MOL0     H28060   2.499   8.354   7.188 -0.6027 -0.6363  1.3621
  213MOL0     H28061   2.339   8.164   7.167  0.4564  0.8461  0.2551
  213MOL0     H28062   2.474   8.072   7.104 -0.4777 -0.1421 -2.3755
  213MOL0     H28063   2.303   8.117   6.921  1.6892 -1.3829  0.4483
  213MOL0     H28064   2.473   8.156   6.885  0.2750  0.0778 -0.9750
  213MOL0     H28065   2.241   8.335   6.990  0.0552  0.5822  0.0993
  213MOL0     H28066   2.412   8.393   6.969 -0.3694 -1.7475  2.3829
  213MOL0     H28067   2.394   8.326   6.743  2.1822  0.4872  2.3429
  213MOL0     H28068   2.296   8.462   6.793 -0.5077 -0.1909 -2.8585
  213MOL0     H28069   2.242   8.276   6.520 -0.4965 -0.0876 -0.2041
  213MOL0     H28070   2.001   8.096   6.421 -0.1290  0.4300 -0.8201
  213MOL0     H28071   1.996   8.263   6.366 -1.2908 -0.2930 -1.2913
  213MOL0     H28072   1.790   8.305   6.485 -3.5280  0.2852 -1.5017
  213MOL0     H28073   1.783   8.117   6.523  2.2039 -1.0980 -1.7254
  213MOL0     H28074   1.816   8.239   6.258 -1.7640  0.5886  0.3173
  213MOL0     H28075   1.791   8.067   6.300 -1.6952 -1.1437  0.6559
  213MOL0     H28076   1.573   8.103   6.391  0.0424 -1.7943 -1.1112
  213MOL0     H28077   1.580   8.147   6.224  2.0961 -0.7688  0.2030
  213MOL0     H28078   1.432   8.251   6.112 -1.6905 -0.5152 -0.6569
  213MOL0     H28079   1.197   8.265   6.093 -0.2075  0.1701 -0.4937
  213MOL0     H28080   0.857   8.487   5.988 -0.0715 -1.5171 -1.6331
  213MOL0     H28081   0.614   8.518   5.949  0.6687  0.3847 -0.4871
  213MOL0     H28082   0.343   8.361   6.196  0.2864 -0.0038 -0.3881
  213MOL0     H28083   0.321   8.210   6.104 -2.3549 -0.1113 -0.3678
  213MOL0     H28084   0.119   8.333   6.115 -0.9776  2.3811  0.7592
  213MOL0     H28085   0.175   8.332   5.953 -0.5640  1.0987 -0.7295
  213MOL0     H28086   0.284   8.575   6.039  0.3621 -2.7842 -2.8292
  213MOL0     H28087   0.167   8.553   6.176  1.0716 -0.7018 -0.6758
  213MOL0     H28088   0.084   8.714   6.009  1.5475  0.4496 -2.0053
  213MOL0     H28089   0.097   8.585   5.883  1.6627 -0.2464  0.2756
  213MOL0     H28090  -0.059   8.568   6.148  1.6002 -2.5705  0.1458
  213MOL0     H28091  -0.062   8.458   6.023  1.0614 -0.2640  1.7078
  213MOL0     H28092  -0.261   8.562   5.963 -0.5352 -0.5243  0.4316
  213MOL0     H28093  -0.153   8.639   5.852  0.4573 -0.3088  0.1191
  213MOL0     H28094  -0.213   8.755   6.121  0.3743 -1.7272 -1.1394
  213MOL0     H28095  -0.114   8.829   5.989 -0.7339  1.1993 -2.9927
  213MOL0     H28096  -0.334   8.926   5.981  1.6461  0.0250  1.4706
  213MOL0     H28097  -0.414   8.777   5.983  0.1168 -0.4579 -1.4508
  213MOL0     H28098   0.535   8.191   6.215  1.7987 -0.8203 -0.3770
  213MOL0     H28099   0.781   8.180   6.263 -0.3419 -1.1512 -0.0197
  213MOL0     H28100   1.157   8.391   6.514  1.1457 -0.6119  0.9663
  213MOL0     H28101   1.405   8.419   6.505  0.3027  0.0126  0.4723
  213MOL0     H28102   2.808   8.629   6.769  0.4191  1.8303 -2.1678
  213MOL0     H28103   2.954   8.769   6.648 -1.1658  1.8683  2.4320
  213MOL0     H28104   3.487   8.766   6.586  2.3343 -0.5208  0.4320
  213MOL0     H28105   3.672   8.854   6.474  0.4041  0.2598  0.3595
  213MOL0     H28106   3.825   9.231   6.352  1.1045 -3.3089  2.2216
  213MOL0     H28107   3.660   9.281   6.396  0.6103  0.4259  1.0191
  213MOL0     H28108   3.753   9.176   6.125 -1.1691 -0.9661 -1.7423
  213MOL0     H28109   3.580   9.222   6.174 -0.2068  1.1132  2.2468
  213MOL0     H28110   3.709   9.380   6.012 -0.9839  4.3246  0.2280
  213MOL0     H28111   3.806   9.415   6.152  1.2515 -1.1079 -2.7080
  213MOL0     H28112   3.586   9.557   6.104 -2.9038 -0.3948  1.0336
  213MOL0     H28113   3.506   9.414   6.125  1.3456  1.6015 -1.6361
  213MOL0     H28114   3.607   9.555   6.520  1.4794  1.0275 -0.3809
  213MOL0     H28115   3.437   9.195   6.344 -0.0239  1.1106  1.9090
  213MOL0     H28116   3.231   9.076   6.418 -0.3848 -2.8758 -1.6931
  214MOL0     O28117   2.935   1.005   1.002  0.7333 -0.3168 -0.8845
  214MOL0     C28118   2.894   1.115   0.976 -0.5651  0.2170  0.5959
  214MOL0     O28119   2.779   1.178   1.013  0.0797 -0.5027 -0.3546
  214MOL0     C28120   2.694   1.098   1.078  0.5241  0.0135 -0.4773
  214MOL0     C28121   2.703   1.080   1.216  0.8590 -0.4214  0.2405
  214MOL0     C28122   2.613   0.995   1.288 -0.9527  0.0490  0.6310
  214MOL0     C28123   2.505   0.941   1.213 -0.6241 -0.5248 -0.7404
  214MOL0     O28124   2.424   0.860   1.287  0.3733 -0.0472  0.0324
  214MOL0     C28125   2.371   0.733   1.231  0.2531 -0.5203  0.9301
  214MOL0     C28126   2.341   0.620   1.339  1.1020  0.0098 -0.1348
  214MOL0     C28127   2.237   0.672   1.446 -0.6407  0.0647  0.3296
  214MOL0     C28128   2.219   0.571   1.549 -0.0436 -0.6129 -0.5342
  214MOL0     C28129   2.091   0.604   1.627 -0.0543  0.3926 -0.1294
  214MOL0     C28130   2.104   0.714   1.732  0.2387 -0.2751 -0.0042
  214MOL0     C28131   1.969   0.758   1.795  0.0880 -0.5550 -0.4238
  214MOL0     C28132   1.892   0.646   1.859 -1.1876  0.1576  0.0196
  214MOL0     N28133   1.798   0.689   1.964  0.0090 -0.4265 -0.4772
  214MOL0     C28134   1.705   0.786   1.948  0.5731 -0.0321  0.5735
  214MOL0     C28135   1.631   0.796   2.067  0.6099 -0.7072  0.0309
  214MOL0     C28136   1.511   0.874   2.092  0.8231  0.4081 -0.1984
  214MOL0     C28137   1.371   0.813   2.062  0.2983 -0.5053 -1.0263
  214MOL0     C28138   1.319   0.720   2.177 -0.7446 -0.1305 -0.5966
  214MOL0     C28139   1.173   0.714   2.202 -0.1910  0.2239  0.6666
  214MOL0     O28140   1.108   0.642   2.093  0.4775 -0.3132 -0.4074
  214MOL0     C28141   0.978   0.598   2.124 -0.1381  0.1400 -0.1078
  214MOL0     C28142   0.895   0.566   2.015  0.1794 -0.5703  0.6982
  214MOL0     C28143   0.764   0.509   2.029 -0.0066  0.6519 -0.6971
  214MOL0     C28144   0.717   0.487   2.157  0.8524  0.4939 -0.4484
  214MOL0     C28145   0.592   0.413   2.179 -0.8945 -0.5957  0.7873
  214MOL0     O28146   0.494   0.442   2.088  0.0661  0.4012  0.1811
  214MOL0     C28147   0.369   0.372   2.106  0.2029 -0.6047 -1.0998
  214MOL0     C28148   0.247   0.438   2.129 -0.0420  0.1056  0.1090
  214MOL0     C28149   0.119   0.370   2.161 -0.2644 -0.9886  0.1242
  214MOL0     C28150   0.119   0.231   2.147  0.3581  0.3499  0.6089
  214MOL0     O28151   0.002   0.171   2.170 -0.0347 -0.2116  0.2723
  214MOL0     C28152  -0.028   0.078   2.067 -0.8067 -0.2550 -0.1547
  214MOL0     C28153  -0.176   0.071   2.055 -0.3633  0.4015 -0.4906
  214MOL0     C28154  -0.232   0.210   2.012  0.1978  0.1835  0.2852
  214MOL0     C28155  -0.361   0.199   1.922 -1.1779  0.0141 -0.0210
  214MOL0     C28156  -0.421   0.338   1.925 -0.6904  0.3510 -0.9264
  214MOL0     C28157  -0.555   0.351   1.852 -0.0975 -0.8820 -0.1878
  214MOL0     C28158  -0.596   0.493   1.885 -0.2398 -0.1531 -0.0073
  214MOL0     C28159  -0.680   0.558   1.784  0.1293  0.5149  0.5215
  214MOL0    Cl28160  -0.819   0.455   1.770  0.2318 -0.3825  0.1997
  214MOL0     C28161   0.238   0.164   2.127 -0.0322  0.2161  0.3113
  214MOL0     C28162   0.361   0.232   2.104  0.3255 -0.0401 -0.2576
  214MOL0     O28163   0.587   0.341   2.279  0.7211  1.2112 -0.0971
  214MOL0     C28164   0.794   0.520   2.268 -0.1253  0.4458 -0.7537
  214MOL0     C28165   0.924   0.580   2.249  0.3134  0.1676  0.2026
  214MOL0     N28166   1.705   0.707   2.154  0.7763 -0.1175 -0.1555
  214MOL0     N28167   1.797   0.641   2.094  0.5244  0.0014  0.2112
  214MOL0     C28168   2.483   0.975   1.081 -0.0526 -0.4463 -0.7714
  214MOL0     C28169   2.578   1.049   1.012  0.1078  1.5035  0.3313
  214MOL0     C28170   3.006   1.183   0.904 -0.4868  0.9642  0.9035
  214MOL0     C28171   3.126   1.124   0.856  0.4414  0.0469 -0.2529
  214MOL0     C28172   3.220   1.196   0.779 -1.0250 -0.4951  0.7999
  214MOL0     C28173   3.205   1.330   0.757 -0.2838 -0.3182 -0.4328
  214MOL0     O28174   3.296   1.409   0.682  0.0807 -0.8517  0.3777
  214MOL0     C28175   3.413   1.346   0.634 -0.2438  0.0540  0.7560
  214MOL0     C28176   3.476   1.453   0.548 -0.2136 -0.2059  0.6254
  214MOL0     C28177   3.616   1.401   0.501  0.3904 -0.0411 -0.2294
  214MOL0     C28178   3.710   1.499   0.432 -0.1968 -0.1028  0.9230
  214MOL0     C28179   3.847   1.438   0.401  0.3314  0.1141  1.0614
  214MOL0     C28180   3.960   1.389   0.386 -0.2344  0.2062 -0.4630
  214MOL0     C28181   3.086   1.383   0.800 -0.3563 -0.0786  0.4252
  214MOL0     C28182   2.995   1.320   0.873 -0.1899 -0.1810  0.0408
  214MOL0     H28183   2.787   1.135   1.257  1.7671  1.5288 -3.6917
  214MOL0     H28184   2.624   0.975   1.394  0.5024  5.7412  1.8992
  214MOL0     H28185   2.433   0.696   1.148 -3.2480 -3.0580 -0.8172
  214MOL0     H28186   2.279   0.752   1.176  1.1140 -1.4678 -0.9374
  214MOL0     H28187   2.431   0.576   1.383  2.5187 -2.4487 -4.8177
  214MOL0     H28188   2.309   0.534   1.280  2.2877  0.4959 -1.5622
  214MOL0     H28189   2.143   0.700   1.396 -1.1310 -1.6306  0.2293
  214MOL0     H28190   2.276   0.767   1.481 -0.3480  0.0679 -0.0085
  214MOL0     H28191   2.230   0.471   1.505  2.5966  0.0814 -1.6775
  214MOL0     H28192   2.310   0.579   1.609  1.4312  2.3923 -2.8772
  214MOL0     H28193   2.056   0.513   1.676  2.5561  0.0058  1.1884
  214MOL0     H28194   2.017   0.632   1.551 -0.5310 -0.7518 -0.1014
  214MOL0     H28195   2.137   0.805   1.679 -0.7508 -0.7474 -1.5059
  214MOL0     H28196   2.172   0.683   1.812 -1.6044 -2.0317  0.9656
  214MOL0     H28197   1.986   0.835   1.872  3.5440  0.0204 -1.5973
  214MOL0     H28198   1.906   0.800   1.717 -0.0086 -1.5568 -0.8962
  214MOL0     H28199   1.962   0.584   1.916 -0.9650  0.2747 -0.1271
  214MOL0     H28200   1.842   0.579   1.788  0.5733 -2.3081  0.9678
  214MOL0     H28201   1.678   0.830   1.853  0.5363  0.3105  0.7428
  214MOL0     H28202   1.511   0.963   2.028  2.0331  0.8364  0.3550
  214MOL0     H28203   1.511   0.914   2.194 -0.1111  0.2616 -0.1367
  214MOL0     H28204   1.358   0.760   1.967 -2.7591 -1.6272 -0.1183
  214MOL0     H28205   1.303   0.896   2.042 -2.4217 -2.5651 -0.9112
  214MOL0     H28206   1.356   0.618   2.160  0.2380 -0.0240  0.7406
  214MOL0     H28207   1.361   0.755   2.272 -3.0913 -0.3346  0.5850
  214MOL0     H28208   1.133   0.815   2.211 -0.3986  0.3260 -1.0391
  214MOL0     H28209   1.170   0.677   2.304  2.6374 -1.8132  0.1367
  214MOL0     H28210   0.947   0.566   1.920 -0.9459  1.7161  0.0107
  214MOL0     H28211   0.711   0.459   1.949 -1.8773  0.7724  0.4232
  214MOL0     H28212   0.235   0.545   2.123 -1.2597 -0.0447 -0.3362
  214MOL0     H28213   0.028   0.429   2.161  0.2888 -0.0182 -2.2687
  214MOL0     H28214   0.013  -0.018   2.100  1.5685  1.4843  2.4388
  214MOL0     H28215   0.012   0.103   1.969  1.8018  0.9891  1.1075
  214MOL0     H28216  -0.221   0.038   2.149  0.7636 -0.6602 -0.3021
  214MOL0     H28217  -0.202   0.001   1.975  2.8463  0.9865 -2.2277
  214MOL0     H28218  -0.164   0.279   1.963  2.5304  1.8544  5.1836
  214MOL0     H28219  -0.244   0.259   2.110 -1.6269  3.3885 -1.3820
  214MOL0     H28220  -0.328   0.176   1.820 -0.7609 -0.1553  0.1493
  214MOL0     H28221  -0.425   0.119   1.962 -0.6985 -1.8037 -2.6300
  214MOL0     H28222  -0.346   0.398   1.872  0.3722 -0.6196 -0.5569
  214MOL0     H28223  -0.424   0.391   2.021 -0.0690  0.1355 -0.7821
  214MOL0     H28224  -0.641   0.292   1.885 -0.6327  0.8240  1.6418
  214MOL0     H28225  -0.539   0.330   1.746  1.9840 -0.8010  0.0688
  214MOL0     H28226  -0.640   0.486   1.984 -1.6319 -0.6763 -0.6366
  214MOL0     H28227  -0.508   0.558   1.895  1.1987 -1.5487 -2.3281
  214MOL0     H28228  -0.640   0.555   1.683 -0.4862 -0.3328  0.2925
  214MOL0     H28229  -0.699   0.663   1.807 -4.0242  0.5010 -1.8981
  214MOL0     H28230   0.241   0.057   2.145  3.6221  0.3883  1.5937
  214MOL0     H28231   0.441   0.162   2.082 -1.4320 -2.1236 -0.4318
  214MOL0     H28232   0.771   0.502   2.373 -0.4521 -0.5338 -0.9908
  214MOL0     H28233   0.971   0.597   2.346  1.2254 -1.3758  0.0591
  214MOL0     H28234   2.395   0.939   1.029  0.4015 -0.0592 -1.8217
  214MOL0     H28235   2.555   1.081   0.911  0.3607  0.9694  0.1027
  214MOL0     H28236   3.141   1.017   0.873  2.7209  0.0570 -1.6620
  214MOL0     H28237   3.311   1.153   0.737 -1.2436  1.0453 -1.4600
  214MOL0     H28238   3.398   1.255   0.574  0.2926  1.0643 -0.9921
  214MOL0     H28239   3.485   1.306   0.705  1.3857 -1.4305 -1.5783
  214MOL0     H28240   3.401   1.476   0.472 -3.0702 -0.7229  3.1134
  214MOL0     H28241   3.494   1.549   0.598 -0.5584  0.3178 -0.2345
  214MOL0     H28242   3.590   1.312   0.443  2.1513 -1.2370  0.7114
  214MOL0     H28243   3.679   1.375   0.586  0.6156  1.0940 -0.0276
  214MOL0     H28244   3.674   1.537   0.337  1.4327  0.6605  0.5773
  214MOL0     H28245   3.738   1.588   0.490  0.7588  0.6587 -0.6512
  214MOL0     H28246   4.051   1.334   0.373 -0.6666 -0.0685 -2.6745
  214MOL0     H28247   3.071   1.488   0.778  1.9358  0.1177 -0.4560
  214MOL0     H28248   2.911   1.376   0.911 -1.5184 -2.1742  0.1796
  215MOL0     O28249   5.653   2.916   6.534  0.1118 -0.2839 -0.4949
  215MOL0     C28250   5.745   2.988   6.564 -0.5171  0.0832  0.0298
  215MOL0     O28251   5.733   3.118   6.601  0.2446  0.2845 -0.7125
  215MOL0     C28252   5.613   3.180   6.616  0.1858  0.4625 -0.0733
  215MOL0     C28253   5.561   3.194   6.745  0.3372  0.1047  0.6902
  215MOL0     C28254   5.438   3.255   6.768  0.4999  0.0754  0.2500
  215MOL0     C28255   5.359   3.293   6.661  0.0147 -1.1161  0.7985
  215MOL0     O28256   5.224   3.339   6.670  0.0000  0.3202 -0.5878
  215MOL0     C28257   5.192   3.394   6.802  0.0092 -0.0265 -0.7224
  215MOL0     C28258   5.249   3.535   6.819 -0.0699  0.4028 -0.5344
  215MOL0     C28259   5.227   3.576   6.966 -0.3287 -0.2200  0.2366
  215MOL0     C28260   5.252   3.730   6.999  0.3570  0.6324  0.0484
  215MOL0     C28261   5.164   3.825   6.914 -0.0902 -0.0620  0.2092
  215MOL0     C28262   5.186   3.973   6.960  0.6412 -0.0622  0.4499
  215MOL0     C28263   5.065   4.057   6.903 -0.2481 -0.1853 -0.7985
  215MOL0     C28264   5.100   4.204   6.932 -0.4010 -0.4047 -0.0864
  215MOL0     N28265   5.121   4.256   7.062  0.3343 -0.3472  0.7693
  215MOL0     C28266   5.031   4.281   7.150  0.2916  0.0495  0.0832
  215MOL0     C28267   5.098   4.333   7.255  0.5864  0.4512  0.5671
  215MOL0     C28268   5.024   4.365   7.389 -0.5087 -0.0464  0.1454
  215MOL0     C28269   5.062   4.267   7.495 -0.2598 -0.5176 -0.0334
  215MOL0     C28270   4.984   4.291   7.614  0.3429 -0.0635 -0.4824
  215MOL0     C28271   4.993   4.423   7.693  0.2666  0.4485 -0.4449
  215MOL0     O28272   5.130   4.472   7.683 -0.0769  0.0722 -0.4382
  215MOL0     C28273   5.227   4.406   7.757  0.3875  0.0883 -0.0315
  215MOL0     C28274   5.360   4.413   7.702  0.0828 -0.2607  0.2883
  215MOL0     C28275   5.470   4.352   7.763  0.0414  0.1358 -0.4380
  215MOL0     C28276   5.462   4.304   7.900 -0.4651  0.7412 -0.0109
  215MOL0     C28277   5.576   4.239   7.978  0.5482 -0.1217 -0.8302
  215MOL0     O28278   5.565   4.225   8.116  0.5353  0.1355 -0.5683
  215MOL0     C28279   5.665   4.182   8.188 -0.8572 -0.1213  0.3097
  215MOL0     C28280   5.686   4.044   8.204 -0.1351 -0.3499  1.0711
  215MOL0     C28281   5.798   4.012   8.273 -0.0525  0.3229  0.3004
  215MOL0     C28282   5.879   4.116   8.330  0.4583 -0.3051 -0.1888
  215MOL0     O28283   5.986   4.086   8.409  0.2633  0.6113  0.1162
  215MOL0     C28284   5.973   3.995   8.521  0.7598  0.0560  0.3622
  215MOL0     C28285   6.070   4.044   8.624 -0.5218 -0.1252 -1.3010
  215MOL0     C28286   6.081   3.938   8.734  0.8455 -0.5595  0.6439
  215MOL0     C28287   6.170   3.992   8.842 -0.0296 -0.2819 -1.0302
  215MOL0     C28288   6.211   3.890   8.938 -0.2834  0.6117  0.0671
  215MOL0     C28289   6.105   3.859   9.044  0.2448  0.0271 -0.8387
  215MOL0     C28290   6.124   3.722   9.103  0.1345  0.1204 -0.4043
  215MOL0     C28291   6.019   3.679   9.201 -0.9813 -0.1255  0.0955
  215MOL0    Cl28292   5.869   3.617   9.131  0.2354  0.2447  0.0905
  215MOL0     C28293   5.844   4.246   8.323  0.5004 -0.4150 -0.4748
  215MOL0     C28294   5.734   4.281   8.253  0.0980  0.2427 -0.1458
  215MOL0     O28295   5.677   4.226   7.918 -0.1680  0.0701 -0.3976
  215MOL0     C28296   5.336   4.305   7.957 -0.5408  0.4784 -0.1214
  215MOL0     C28297   5.219   4.350   7.884  0.2202 -0.3033  0.8482
  215MOL0     N28298   5.231   4.342   7.226 -0.2054  0.5251  0.3021
  215MOL0     N28299   5.244   4.290   7.106  0.9385  0.1132  0.5165
  215MOL0     C28300   5.414   3.277   6.532  0.5703 -0.3360 -0.0456
  215MOL0     C28301   5.545   3.225   6.510  0.9808  0.0499  0.0753
  215MOL0     C28302   5.879   2.921   6.579  0.8061  0.0093  0.3513
  215MOL0     C28303   5.894   2.787   6.545 -0.4827 -0.9205  0.3146
  215MOL0     C28304   6.013   2.730   6.564  0.2398  0.4161  0.0161
  215MOL0     C28305   6.129   2.798   6.611 -0.0142  0.7122  0.7029
  215MOL0     O28306   6.252   2.730   6.634  0.5709  0.4286  0.0433
  215MOL0     C28307   6.361   2.810   6.694  0.6553  0.3583  0.3592
  215MOL0     C28308   6.493   2.733   6.722 -0.1003  0.1595  0.6472
  215MOL0     C28309   6.566   2.687   6.594  0.9163  0.2177 -0.6964
  215MOL0     C28310   6.604   2.546   6.601  0.6876 -0.3404  0.5256
  215MOL0     C28311   6.712   2.515   6.690 -0.0274  0.1608  0.5573
  215MOL0     C28312   6.797   2.466   6.765 -0.3462  0.5761  0.3167
  215MOL0     C28313   6.099   2.934   6.643 -1.0466  0.5118 -0.5587
  215MOL0     C28314   5.975   2.996   6.634 -0.2804  0.3709 -0.2117
  215MOL0     H28315   5.615   3.153   6.830 -1.3408 -1.4644  1.0734
  215MOL0     H28316   5.409   3.274   6.871 -1.8836  0.0737 -0.3592
  215MOL0     H28317   5.201   3.326   6.888 -1.1274 -0.9611 -1.3050
  215MOL0     H28318   5.082   3.397   6.796 -0.0077 -1.1588 -1.2579
  215MOL0     H28319   5.206   3.606   6.747  0.2583  0.0964 -1.0399
  215MOL0     H28320   5.357   3.526   6.804 -0.2814  0.9096 -2.7562
  215MOL0     H28321   5.300   3.532   7.035  1.9512  2.2322 -0.4354
  215MOL0     H28322   5.120   3.558   6.981 -0.2312 -1.3293 -0.3249
  215MOL0     H28323   5.222   3.743   7.103 -0.3408  1.0472 -0.1937
  215MOL0     H28324   5.359   3.751   6.986  1.1059  0.0873  4.0016
  215MOL0     H28325   5.057   3.802   6.917 -0.5343  1.6371 -1.1317
  215MOL0     H28326   5.207   3.811   6.814 -0.5253  0.6803 -0.0905
  215MOL0     H28327   5.282   3.997   6.912 -0.0262 -1.1050 -1.5006
  215MOL0     H28328   5.197   3.988   7.068 -0.2827  0.8746  0.4271
  215MOL0     H28329   5.053   4.041   6.795 -1.4348  0.3044 -0.7563
  215MOL0     H28330   4.967   4.036   6.947  0.7470 -2.8974  0.3133
  215MOL0     H28331   5.023   4.266   6.885  1.1353  1.2163 -0.5923
  215MOL0     H28332   5.188   4.221   6.870 -0.2178  1.8575  0.6932
  215MOL0     H28333   4.925   4.264   7.141  0.1232 -1.1856  3.0780
  215MOL0     H28334   4.921   4.397   7.376 -0.5416  0.0225  0.5696
  215MOL0     H28335   5.073   4.455   7.427  1.3662 -0.0283 -2.0694
  215MOL0     H28336   5.170   4.273   7.515  0.3161 -3.7047 -1.5796
  215MOL0     H28337   5.051   4.162   7.468 -1.1705 -1.5063  3.6904
  215MOL0     H28338   4.876   4.281   7.602  0.3455 -1.5211  0.4513
  215MOL0     H28339   5.009   4.207   7.679  0.5155 -1.7527 -2.5836
  215MOL0     H28340   4.965   4.403   7.796  0.1214  0.0180 -0.5667
  215MOL0     H28341   4.932   4.507   7.659  0.5795  0.4867 -0.9370
  215MOL0     H28342   5.377   4.456   7.604  0.2446 -1.0991 -0.0593
  215MOL0     H28343   5.566   4.355   7.712  0.9243 -1.7037  0.9820
  215MOL0     H28344   5.626   3.962   8.166  0.4003 -0.2795  0.0268
  215MOL0     H28345   5.825   3.910   8.299 -0.6756 -0.3021 -1.4100
  215MOL0     H28346   5.991   3.888   8.504  1.8487  0.3951 -0.7655
  215MOL0     H28347   5.869   4.007   8.554  0.4721  0.6159 -0.7091
  215MOL0     H28348   6.034   4.141   8.658 -0.6154  0.2338 -2.3902
  215MOL0     H28349   6.172   4.049   8.586  0.8768 -0.7788  2.0368
  215MOL0     H28350   6.121   3.845   8.693  1.2782 -0.4532  0.8249
  215MOL0     H28351   5.977   3.916   8.762  1.1768 -3.3022 -0.0569
  215MOL0     H28352   6.268   4.029   8.811 -0.9264  1.7230 -1.6111
  215MOL0     H28353   6.122   4.073   8.899  1.6186  0.9137 -1.2631
  215MOL0     H28354   6.308   3.912   8.983  1.1747 -2.4590 -1.2156
  215MOL0     H28355   6.224   3.795   8.885 -1.1347 -1.3147  3.0559
  215MOL0     H28356   6.009   3.862   8.991 -0.6413  1.3504  0.7275
  215MOL0     H28357   6.107   3.927   9.130  1.5218 -0.5387 -0.3982
  215MOL0     H28358   6.120   3.650   9.021  2.8321 -0.9604  0.3066
  215MOL0     H28359   6.227   3.715   9.139  0.1589  0.1105 -0.4744
  215MOL0     H28360   6.000   3.764   9.267 -1.9947  1.4555 -2.1036
  215MOL0     H28361   6.053   3.598   9.266  0.2612 -0.3978 -0.8539
  215MOL0     H28362   5.901   4.331   8.357 -0.7890  0.8037 -1.2759
  215MOL0     H28363   5.701   4.384   8.256  1.7538  0.7719  1.7950
  215MOL0     H28364   5.320   4.257   8.053  0.3852 -1.7139 -0.9930
  215MOL0     H28365   5.121   4.341   7.931  0.1063 -1.4910  0.4014
  215MOL0     H28366   5.359   3.306   6.443  1.1911 -0.5814 -0.5162
  215MOL0     H28367   5.586   3.218   6.409  0.2202  1.2703 -0.3440
  215MOL0     H28368   5.803   2.730   6.531 -1.6947  0.2250  2.8624
  215MOL0     H28369   6.016   2.627   6.532  0.0181  1.1060 -2.4264
  215MOL0     H28370   6.338   2.852   6.793  1.6095 -1.4251  1.4058
  215MOL0     H28371   6.392   2.892   6.629  1.5319 -0.0858  0.2013
  215MOL0     H28372   6.564   2.802   6.769  2.0876 -0.5759 -1.4003
  215MOL0     H28373   6.469   2.652   6.793 -1.3249 -0.8923 -0.9061
  215MOL0     H28374   6.651   2.755   6.582 -0.0231  2.0904  2.0045
  215MOL0     H28375   6.504   2.699   6.505  0.6745 -3.8814 -1.2707
  215MOL0     H28376   6.514   2.494   6.637  0.8452 -0.4776  0.7243
  215MOL0     H28377   6.651   2.522   6.505  2.1510  0.6406  0.9724
  215MOL0     H28378   6.875   2.426   6.827 -0.2508 -1.3386 -0.9734
  215MOL0     H28379   6.181   2.990   6.686  0.3246  0.0790 -2.5014
  215MOL0     H28380   5.970   3.101   6.659 -2.2618 -0.2923  2.7229
  216MOL0     O28381   6.792   2.283   4.247  0.3527 -0.7676 -0.7661
  216MOL0     C28382   6.843   2.193   4.183  0.4211 -0.4596  0.2362
  216MOL0     O28383   6.777   2.103   4.106  0.5387 -0.7671 -0.1727
  216MOL0     C28384   6.645   2.119   4.094  0.3479 -0.3734 -0.3250
  216MOL0     C28385   6.588   2.224   4.017 -0.8183 -0.5136 -0.5504
  216MOL0     C28386   6.453   2.235   3.995 -0.3841 -0.7962  1.0135
  216MOL0     C28387   6.367   2.138   4.045  0.4139 -0.5424 -0.7491
  216MOL0     O28388   6.230   2.149   4.017 -0.2501 -0.0504  0.2354
  216MOL0     C28389   6.126   2.085   4.089 -0.2697 -0.0722 -0.3353
  216MOL0     C28390   6.109   1.945   4.035  0.1854  0.4049  0.2333
  216MOL0     C28391   5.975   1.896   4.087 -0.1001  0.8630  0.4040
  216MOL0     C28392   5.927   1.772   4.025  0.6748 -0.8937 -1.0966
  216MOL0     C28393   5.810   1.708   4.110  0.5104 -0.8011  0.1629
  216MOL0     C28394   5.852   1.633   4.231  0.2618  0.4986  1.0029
  216MOL0     C28395   5.742   1.568   4.311 -0.0159  0.8799 -0.0515
  216MOL0     C28396   5.657   1.464   4.233  0.8921  0.9086 -0.6895
  216MOL0     N28397   5.537   1.401   4.289  0.7054 -0.8680 -0.1772
  216MOL0     C28398   5.452   1.472   4.371 -0.1464 -0.7730  0.4235
  216MOL0     C28399   5.359   1.381   4.406  0.0568  0.4281 -0.3812
  216MOL0     C28400   5.249   1.404   4.508 -0.5100 -0.3910  0.5370
  216MOL0     C28401   5.186   1.278   4.569 -0.8466  0.1946 -0.3285
  216MOL0     C28402   5.095   1.199   4.476 -0.0331 -0.1274 -0.1041
  216MOL0     C28403   4.960   1.252   4.464  0.5714 -0.3128  0.2658
  216MOL0     O28404   4.896   1.253   4.593  0.5527  0.6306  0.3860
  216MOL0     C28405   4.764   1.289   4.602  0.1122  0.3245 -0.0542
  216MOL0     C28406   4.713   1.317   4.727  0.4437 -0.9055 -0.7040
  216MOL0     C28407   4.570   1.346   4.743 -1.3736 -0.3082  0.3727
  216MOL0     C28408   4.492   1.341   4.633  0.6002 -0.9982 -0.0301
  216MOL0     C28409   4.337   1.358   4.639 -1.0258 -0.7398 -0.2112
  216MOL0     O28410   4.279   1.402   4.522 -0.5185  0.2490 -0.0905
  216MOL0     C28411   4.149   1.426   4.505  0.3092 -0.1896  0.5326
  216MOL0     C28412   4.105   1.545   4.450  0.2807 -0.5395 -0.6033
  216MOL0     C28413   3.968   1.562   4.430 -0.4533 -0.7807  0.2345
  216MOL0     C28414   3.867   1.465   4.470 -0.5619 -1.0557 -0.4864
  216MOL0     O28415   3.735   1.480   4.463 -0.5075 -1.0289 -0.1022
  216MOL0     C28416   3.690   1.610   4.427  0.4520  0.5190 -0.2851
  216MOL0     C28417   3.539   1.617   4.448  0.0614 -0.1331 -0.2377
  216MOL0     C28418   3.460   1.527   4.355  0.9464  0.5108  0.9220
  216MOL0     C28419   3.300   1.533   4.368  0.2333  0.0227 -0.4674
  216MOL0     C28420   3.228   1.414   4.311 -0.5277  0.0339  0.3409
  216MOL0     C28421   3.076   1.405   4.348  0.3419 -0.1893 -0.1956
  216MOL0     C28422   2.991   1.539   4.304 -0.0397  1.0630  0.3155
  216MOL0     C28423   2.848   1.519   4.327  0.1220  0.5011 -0.6249
  216MOL0    Cl28424   2.798   1.408   4.202 -0.0400 -0.0249  0.2827
  216MOL0     C28425   3.917   1.351   4.527 -0.2228 -0.3190  0.5601
  216MOL0     C28426   4.054   1.334   4.544  0.1822 -0.1555  0.6554
  216MOL0     O28427   4.286   1.328   4.745  0.2283  0.1288  0.1086
  216MOL0     C28428   4.543   1.317   4.507  0.2033 -1.1362 -0.0447
  216MOL0     C28429   4.682   1.298   4.490  0.0254 -0.0037  0.1358
  216MOL0     N28430   5.385   1.271   4.342  0.2020 -0.4271  0.5798
  216MOL0     N28431   5.493   1.273   4.274 -0.5114 -0.6978 -0.5392
  216MOL0     C28432   6.420   2.038   4.120 -0.5277 -0.1877  0.2788
  216MOL0     C28433   6.556   2.029   4.138 -0.3743 -0.4585  0.0956
  216MOL0     C28434   6.988   2.160   4.203  0.6036  0.1000  0.1625
  216MOL0     C28435   7.031   2.028   4.176  1.0302 -0.1583 -0.7318
  216MOL0     C28436   7.161   1.994   4.210  0.2310  0.4173  0.0555
  216MOL0     C28437   7.247   2.083   4.281  1.1770  0.0372  0.0787
  216MOL0     O28438   7.367   2.038   4.326  0.1414  0.3194  0.1419
  216MOL0     C28439   7.411   1.900   4.299 -0.1999 -0.1138  0.3782
  216MOL0     C28440   7.551   1.869   4.333  0.5977 -0.0011  0.0373
  216MOL0     C28441   7.566   1.869   4.486 -0.6289 -0.3564  0.1124
  216MOL0     C28442   7.714   1.850   4.521 -0.6133 -0.0835 -0.1249
  216MOL0     C28443   7.751   1.837   4.661  0.6240 -0.8997  0.5787
  216MOL0     C28444   7.782   1.827   4.777  0.5256  0.4776 -0.0395
  216MOL0     C28445   7.196   2.209   4.310 -0.9115  0.5476 -0.5554
  216MOL0     C28446   7.070   2.247   4.279 -0.3460  0.0252 -0.8777
  216MOL0     H28447   6.657   2.301   3.983  1.5047 -1.1450  2.3349
  216MOL0     H28448   6.419   2.303   3.917 -0.1570  0.8233  2.2724
  216MOL0     H28449   6.038   2.149   4.082 -0.3768 -0.3425 -1.8464
  216MOL0     H28450   6.147   2.076   4.196  1.3575  0.3287 -0.5905
  216MOL0     H28451   6.192   1.878   4.061  1.9043  2.5017  0.4588
  216MOL0     H28452   6.104   1.938   3.926  0.7965 -0.5330  0.2532
  216MOL0     H28453   5.888   1.961   4.074 -2.4516 -1.5232  2.8941
  216MOL0     H28454   5.978   1.886   4.195  2.1870 -2.9901  0.1692
  216MOL0     H28455   5.870   1.796   3.935  0.6563  1.6247 -0.4658
  216MOL0     H28456   6.011   1.709   3.995  1.1929 -0.2862 -0.9407
  216MOL0     H28457   5.772   1.634   4.039  1.4734  0.3734 -1.6684
  216MOL0     H28458   5.731   1.782   4.121  1.4939 -0.0187  2.8453
  216MOL0     H28459   5.900   1.708   4.294 -1.5141  1.6349  1.0851
  216MOL0     H28460   5.925   1.553   4.216 -1.4115 -1.0126  0.6561
  216MOL0     H28461   5.788   1.501   4.384  2.7018  0.7576 -1.7310
  216MOL0     H28462   5.685   1.634   4.378 -2.0991 -3.9078  3.4984
  216MOL0     H28463   5.731   1.395   4.192  2.6946  1.2705  1.6908
  216MOL0     H28464   5.615   1.504   4.141  1.3974 -1.9374 -2.2789
  216MOL0     H28465   5.467   1.570   4.416  3.6605 -1.3032  0.6836
  216MOL0     H28466   5.175   1.468   4.459  0.7192 -1.6204 -3.2224
  216MOL0     H28467   5.306   1.455   4.586  1.5280 -1.3645 -0.2469
  216MOL0     H28468   5.134   1.306   4.661 -1.5295 -1.3466 -0.2280
  216MOL0     H28469   5.261   1.208   4.604 -1.1195 -0.5447 -1.1876
  216MOL0     H28470   5.152   1.203   4.383  0.4455  1.9491  0.2257
  216MOL0     H28471   5.093   1.096   4.513 -2.2478  0.8038  2.7157
  216MOL0     H28472   4.905   1.203   4.383 -0.0823 -1.0997  1.1691
  216MOL0     H28473   4.966   1.356   4.432 -0.5789 -0.3224 -0.0259
  216MOL0     H28474   4.777   1.325   4.814  0.3183  2.1231 -0.7948
  216MOL0     H28475   4.543   1.365   4.847  0.7253 -0.3036  0.9659
  216MOL0     H28476   4.178   1.619   4.420 -1.7587  2.4049  1.1333
  216MOL0     H28477   3.946   1.652   4.373  0.7751 -2.1294 -2.5663
  216MOL0     H28478   3.717   1.636   4.325  1.8909  0.9874  0.1846
  216MOL0     H28479   3.734   1.685   4.494  4.4841 -1.8842  0.1363
  216MOL0     H28480   3.509   1.722   4.438 -2.3320 -0.5795  1.4779
  216MOL0     H28481   3.519   1.577   4.548  0.0468 -0.6416 -0.4421
  216MOL0     H28482   3.481   1.423   4.382 -0.5591  0.4216  1.8752
  216MOL0     H28483   3.482   1.540   4.249 -2.3828  0.4277  0.1082
  216MOL0     H28484   3.277   1.540   4.475 -1.3332  0.7600 -0.8384
  216MOL0     H28485   3.266   1.618   4.310  0.4954  0.1481 -0.4407
  216MOL0     H28486   3.269   1.315   4.334 -1.0615 -0.9828 -2.6122
  216MOL0     H28487   3.232   1.420   4.202  0.0901  0.7477  0.3955
  216MOL0     H28488   3.058   1.387   4.454  2.2875  0.6679  0.3247
  216MOL0     H28489   3.034   1.320   4.292 -2.3791  1.0344 -0.1852
  216MOL0     H28490   3.009   1.629   4.364  1.2418  1.2821 -0.3735
  216MOL0     H28491   3.018   1.572   4.204  2.3146  0.9155  0.8573
  216MOL0     H28492   2.798   1.616   4.324 -0.4062  0.2901  0.7666
  216MOL0     H28493   2.833   1.483   4.429  0.7026 -1.5523 -1.2144
  216MOL0     H28494   3.851   1.267   4.549  0.4621 -0.4063  2.4832
  216MOL0     H28495   4.097   1.243   4.585 -0.2298 -0.8169 -0.3331
  216MOL0     H28496   4.486   1.297   4.416  2.1448 -0.1182 -1.5640
  216MOL0     H28497   4.706   1.290   4.385 -1.1175  0.7748 -0.1987
  216MOL0     H28498   6.364   1.967   4.181 -1.7056  1.2936  1.0028
  216MOL0     H28499   6.589   1.954   4.210 -1.3299 -2.6188 -1.6038
  216MOL0     H28500   6.973   1.957   4.118 -0.1708  0.3111 -0.1443
  216MOL0     H28501   7.187   1.890   4.194 -0.8926  0.0658  0.4319
  216MOL0     H28502   7.397   1.889   4.191  1.6157  1.3490 -0.0567
  216MOL0     H28503   7.346   1.828   4.350 -0.8972 -0.9826 -1.6600
  216MOL0     H28504   7.586   1.774   4.292 -0.6045 -0.4694  0.0502
  216MOL0     H28505   7.613   1.940   4.278  0.8212  0.5428  0.9748
  216MOL0     H28506   7.507   1.792   4.538  1.6154 -1.0417  1.7965
  216MOL0     H28507   7.537   1.963   4.535  2.4087  0.5842  0.3108
  216MOL0     H28508   7.751   1.760   4.471 -0.7514 -1.3533  1.9523
  216MOL0     H28509   7.771   1.940   4.496 -1.4597  0.0240 -1.8505
  216MOL0     H28510   7.811   1.806   4.878  1.1427 -1.8127 -0.6266
  216MOL0     H28511   7.254   2.288   4.358 -3.4860  1.4867  1.1922
  216MOL0     H28512   7.037   2.344   4.315 -1.0726 -0.7434  0.6366
  217MOL0     O28513   4.866  10.625   4.658 -0.1629  0.3080  0.1338
  217MOL0     C28514   4.803  10.550   4.584  0.2590  0.1666  0.2020
  217MOL0     O28515   4.664  10.560   4.559  0.3305 -0.5028  0.0083
  217MOL0     C28516   4.591  10.653   4.625  0.2740  0.3892 -0.1264
  217MOL0     C28517   4.595  10.790   4.594  0.2632  0.3892  0.4619
  217MOL0     C28518   4.499  10.874   4.656  0.8248 -0.8109  1.0439
  217MOL0     C28519   4.405  10.820   4.747 -0.4624  0.7833  0.0136
  217MOL0     O28520   4.320  10.906   4.815  0.1103 -0.0293 -0.1350
  217MOL0     C28521   4.183  10.872   4.825 -0.3700  0.4308 -0.7956
  217MOL0     C28522   4.147  10.847   4.970 -0.7809 -0.2992  0.8523
  217MOL0     C28523   3.994  10.845   4.995  0.2084 -0.1488 -0.3475
  217MOL0     C28524   3.959  10.813   5.141  0.6860  0.0405 -0.0541
  217MOL0     C28525   3.810  10.798   5.146 -0.1966  0.1905  0.4860
  217MOL0     C28526   3.725  10.921   5.095 -1.1479 -0.6127  0.7491
  217MOL0     C28527   3.576  10.910   5.142  0.6484  0.5067 -0.3082
  217MOL0     C28528   3.509  10.798   5.074 -0.1789 -0.8626  0.2857
  217MOL0     N28529   3.360  10.815   5.104  0.1855  0.6672 -0.2058
  217MOL0     C28530   3.297  10.768   5.226 -0.3557  0.1824  0.5556
  217MOL0     C28531   3.186  10.840   5.231  0.4257 -0.1123 -0.7106
  217MOL0     C28532   3.091  10.846   5.348  0.4000 -0.6264  0.4639
  217MOL0     C28533   2.954  10.914   5.318  0.5828  0.1204  0.1757
  217MOL0     C28534   2.865  10.905   5.437  0.5438  0.7477  0.1548
  217MOL0     C28535   2.719  10.930   5.395  0.3076  0.3464  0.2624
  217MOL0     O28536   2.648  10.985   5.506  0.3270  0.3898 -0.3340
  217MOL0     C28537   2.515  10.954   5.532 -0.0870  0.5238 -0.0376
  217MOL0     C28538   2.458  10.992   5.652  0.1607 -0.1227 -0.0277
  217MOL0     C28539   2.330  10.966   5.690 -0.7472  0.5577  0.1354
  217MOL0     C28540   2.240  10.921   5.588 -0.4951 -0.3054  0.7339
  217MOL0     C28541   2.097  10.896   5.611 -0.0191  0.9476 -0.4470
  217MOL0     O28542   2.016  10.891   5.498 -0.1885  0.2156 -0.8481
  217MOL0     C28543   1.887  10.853   5.506 -0.1787  0.3072  0.7364
  217MOL0     C28544   1.786  10.909   5.583  0.3525 -0.5018 -0.6435
  217MOL0     C28545   1.654  10.870   5.583 -0.0272 -0.2128  0.1781
  217MOL0     C28546   1.621  10.774   5.493  0.2036 -0.7405  1.3679
  217MOL0     O28547   1.487  10.732   5.488 -0.2026  0.0786  0.0009
  217MOL0     C28548   1.443  10.685   5.364  0.1034 -0.5220 -0.4239
  217MOL0     C28549   1.287  10.683   5.381  0.3023  0.1649 -0.1639
  217MOL0     C28550   1.215  10.614   5.270  0.5696  0.1904 -0.0643
  217MOL0     C28551   1.063  10.616   5.291  0.6115  0.6769  0.6627
  217MOL0     C28552   0.995  10.514   5.186  0.9784  0.4702  0.5648
  217MOL0     C28553   0.980  10.575   5.045  0.0384 -0.2729  0.4274
  217MOL0     C28554   0.957  10.477   4.933 -0.3712  0.2561  0.0793
  217MOL0     C28555   1.090  10.409   4.867  0.1529 -0.1479 -0.8414
  217MOL0    Cl28556   1.147  10.274   4.963 -0.5088  0.0035  0.2216
  217MOL0     C28557   1.712  10.724   5.398 -0.8763 -0.8927  0.0428
  217MOL0     C28558   1.841  10.764   5.404 -0.9610 -0.0285 -0.8183
  217MOL0     O28559   2.065  10.879   5.729 -0.8646  0.1237  0.6017
  217MOL0     C28560   2.296  10.889   5.463 -1.1685 -0.2179 -0.5290
  217MOL0     C28561   2.430  10.903   5.436  0.3617  0.0850 -0.0367
  217MOL0     N28562   3.172  10.916   5.118  0.2426  0.3507  0.3708
  217MOL0     N28563   3.277  10.898   5.040 -0.3106  0.6415  0.3298
  217MOL0     C28564   4.406  10.682   4.775  0.1412  0.1801 -0.7699
  217MOL0     C28565   4.501  10.609   4.719 -0.1885 -0.0714 -0.1722
  217MOL0     C28566   4.875  10.454   4.500 -0.0301  0.1087  0.2976
  217MOL0     C28567   5.008  10.423   4.516  0.4766  0.1969 -0.1382
  217MOL0     C28568   5.077  10.321   4.449  0.6127  0.5040  0.1510
  217MOL0     C28569   5.008  10.254   4.349  0.3832 -0.4275 -0.7128
  217MOL0     O28570   5.061  10.142   4.286 -0.3272  0.4892 -0.0511
  217MOL0     C28571   5.009  10.107   4.161 -0.0154  0.2839  0.5049
  217MOL0     C28572   5.116  10.021   4.087 -0.4857  0.5728 -0.8780
  217MOL0     C28573   5.224  10.110   4.023 -0.4984  0.1701 -0.1075
  217MOL0     C28574   5.308  10.206   4.112 -0.0398  0.0974 -0.2514
  217MOL0     C28575   5.385  10.125   4.215  0.5096 -0.6039 -0.1475
  217MOL0     C28576   5.435  10.063   4.306  0.5524  0.5548  0.0472
  217MOL0     C28577   4.874  10.301   4.320  0.3648 -0.2303 -0.4250
  217MOL0     C28578   4.810  10.398   4.393  0.2465  0.6921 -0.3316
  217MOL0     H28579   4.678  10.824   4.533  0.1952  1.5934  1.0229
  217MOL0     H28580   4.504  10.980   4.631  0.4655 -0.6926  1.4545
  217MOL0     H28581   4.148  10.789   4.763 -2.2898 -0.4274  1.2599
  217MOL0     H28582   4.121  10.957   4.795 -1.0097  0.5628  0.7740
  217MOL0     H28583   4.197  10.918   5.036 -3.0842 -0.0667  2.4715
  217MOL0     H28584   4.186  10.748   4.993  0.3119 -0.8617 -2.7623
  217MOL0     H28585   3.948  10.778   4.922  0.8593  0.6281 -1.5015
  217MOL0     H28586   3.959  10.946   4.971 -1.6631 -0.3537  1.2866
  217MOL0     H28587   4.007  10.717   5.158 -1.9075 -1.6263 -1.4190
  217MOL0     H28588   3.994  10.888   5.212 -0.6517  1.8184 -1.1750
  217MOL0     H28589   3.779  10.769   5.246 -1.8457  1.9262  0.5157
  217MOL0     H28590   3.787  10.719   5.073  0.4945  0.2777  0.1548
  217MOL0     H28591   3.719  10.942   4.988 -1.8418 -0.0666  0.8864
  217MOL0     H28592   3.773  11.004   5.148 -0.7021 -0.3222 -0.0896
  217MOL0     H28593   3.586  10.900   5.251  3.7330  0.9672 -0.4489
  217MOL0     H28594   3.514  10.994   5.110  0.1692  0.3183  0.1155
  217MOL0     H28595   3.549  10.701   5.104  0.2103 -0.2968  1.6836
  217MOL0     H28596   3.534  10.818   4.970  1.2142  3.3547  1.2609
  217MOL0     H28597   3.324  10.689   5.295 -1.2661 -3.1625 -2.6329
  217MOL0     H28598   3.131  10.913   5.424  3.0764 -1.4742 -0.1136
  217MOL0     H28599   3.063  10.745   5.380 -2.8579 -0.2179 -0.6444
  217MOL0     H28600   2.901  10.865   5.235  1.9726 -4.1107  1.4875
  217MOL0     H28601   2.975  11.020   5.304  0.8472  0.3794  2.2298
  217MOL0     H28602   2.860  10.811   5.492 -0.5342  0.0389 -1.0955
  217MOL0     H28603   2.892  10.983   5.509 -2.6735 -0.3209  2.7535
  217MOL0     H28604   2.682  10.834   5.359 -0.1913  0.2297  1.0892
  217MOL0     H28605   2.714  11.005   5.315 -1.1548 -1.5317 -1.5288
  217MOL0     H28606   2.529  11.050   5.710  1.0486  0.5107 -1.6904
  217MOL0     H28607   2.308  10.986   5.794 -0.3906 -1.1641  0.5834
  217MOL0     H28608   1.802  10.976   5.666  0.3536 -1.2395 -0.0301
  217MOL0     H28609   1.588  10.901   5.664  1.7523 -1.1545  2.0787
  217MOL0     H28610   1.479  10.582   5.362  3.3782  0.2952  3.3753
  217MOL0     H28611   1.467  10.742   5.274 -0.3884 -1.1356 -0.9525
  217MOL0     H28612   1.269  10.791   5.387 -0.9725 -0.0281 -0.1692
  217MOL0     H28613   1.255  10.636   5.474  0.7481  1.7174  0.8070
  217MOL0     H28614   1.253  10.511   5.270 -1.0694 -0.5494 -2.8844
  217MOL0     H28615   1.241  10.663   5.176  2.2188  0.5995  0.5696
  217MOL0     H28616   1.037  10.591   5.394 -0.9911  0.3878  0.2147
  217MOL0     H28617   1.035  10.722   5.282  0.7580  0.6844  0.2578
  217MOL0     H28618   0.897  10.483   5.226  1.5874  1.1006  2.6654
  217MOL0     H28619   1.046  10.417   5.180 -0.2061 -0.0800 -2.0867
  217MOL0     H28620   1.074  10.625   5.022 -0.5468  1.0980  0.9271
  217MOL0     H28621   0.903  10.653   5.048  1.9370  1.7006  0.0618
  217MOL0     H28622   0.893  10.402   4.980 -0.6776  0.9012  0.7076
  217MOL0     H28623   0.895  10.517   4.852  1.4719 -0.6506 -1.8431
  217MOL0     H28624   1.166  10.487   4.868 -0.7582  0.8849  2.9257
  217MOL0     H28625   1.071  10.379   4.763  1.0016 -1.3100 -0.6839
  217MOL0     H28626   1.667  10.656   5.326 -2.1354  2.0429 -2.1840
  217MOL0     H28627   1.909  10.726   5.329  0.9950 -1.2271  1.4399
  217MOL0     H28628   2.252  10.849   5.372 -0.9186 -0.6176 -0.4742
  217MOL0     H28629   2.462  10.886   5.334 -0.4207  0.7254 -0.4000
  217MOL0     H28630   4.337  10.641   4.848 -0.9160 -0.5590 -2.1325
  217MOL0     H28631   4.503  10.500   4.724 -2.1070 -0.3334 -3.0594
  217MOL0     H28632   5.064  10.479   4.590  0.2536  1.1223 -0.6540
  217MOL0     H28633   5.179  10.294   4.476  0.8223  0.0473 -1.0471
  217MOL0     H28634   4.981  10.197   4.106 -2.3263 -1.3278 -1.1756
  217MOL0     H28635   4.916  10.051   4.178 -0.6483  1.1648  0.0355
  217MOL0     H28636   5.165   9.948   4.152 -1.0422  3.0446  2.5803
  217MOL0     H28637   5.064   9.961   4.012  0.9976 -1.5308 -0.2949
  217MOL0     H28638   5.187  10.169   3.938  0.1836  2.5842  1.1704
  217MOL0     H28639   5.299  10.042   3.983 -0.3331  0.0834  0.3433
  217MOL0     H28640   5.379  10.240   4.037 -0.9942 -1.4773 -1.9356
  217MOL0     H28641   5.244  10.281   4.160 -1.7111  0.2153 -2.5269
  217MOL0     H28642   5.462  10.018   4.399  0.6122 -2.6978 -1.4258
  217MOL0     H28643   4.810  10.245   4.253 -3.9512  3.0515  0.5609
  217MOL0     H28644   4.710  10.423   4.359  0.2890  1.2404 -0.0726
  218MOL0     O28645   7.930   2.895   1.311  0.5836  0.5059  0.1659
  218MOL0     C28646   7.883   2.931   1.419 -0.0957  0.6525 -0.4519
  218MOL0     O28647   7.951   2.995   1.526  0.3664 -0.3613  0.8029
  218MOL0     C28648   8.088   3.023   1.515  0.2639  0.3241 -0.1664
  218MOL0     C28649   8.185   2.937   1.570  0.4906 -0.5941 -0.0197
  218MOL0     C28650   8.317   2.956   1.540 -0.5323 -0.4544  0.0493
  218MOL0     C28651   8.360   3.064   1.453 -0.2398 -0.4293  0.5297
  218MOL0     O28652   8.493   3.074   1.423  0.0630 -0.6929  0.7157
  218MOL0     C28653   8.556   3.206   1.388  0.4482  0.7302  0.1879
  218MOL0     C28654   8.657   3.167   1.272 -0.4613 -0.0903  0.0846
  218MOL0     C28655   8.804   3.194   1.318  0.7104 -0.1362  0.1156
  218MOL0     C28656   8.910   3.162   1.209 -1.1517  0.2617 -0.0079
  218MOL0     C28657   9.037   3.205   1.270  0.4069 -0.2615  0.7121
  218MOL0     C28658   9.139   3.206   1.150  0.5822 -0.1749  0.7080
  218MOL0     C28659   9.284   3.209   1.201 -0.9505  0.5763  0.2865
  218MOL0     C28660   9.384   3.218   1.084 -0.7535 -0.0095  0.9277
  218MOL0     N28661   9.523   3.200   1.137 -0.0052 -0.2212 -0.4739
  218MOL0     C28662   9.573   3.086   1.207 -0.2145  0.5008  1.4862
  218MOL0     C28663   9.706   3.123   1.220  0.2897  0.0393 -0.3454
  218MOL0     C28664   9.813   3.034   1.266 -0.6943  0.5901 -0.0966
  218MOL0     C28665   9.893   2.979   1.147 -0.1093 -0.3676  0.6685
  218MOL0     C28666   9.804   2.893   1.048 -0.7544  0.8477 -0.5628
  218MOL0     C28667   9.869   2.903   0.917 -0.3256 -1.1017 -0.6087
  218MOL0     O28668   9.837   3.030   0.851 -0.7749 -0.2600  0.1833
  218MOL0     C28669   9.708   3.067   0.819 -0.2844  0.7308  0.1007
  218MOL0     C28670   9.609   2.982   0.777  0.2310  0.7317  0.5308
  218MOL0     C28671   9.485   3.034   0.738  0.5926  0.3089 -0.5018
  218MOL0     C28672   9.457   3.170   0.752 -0.7310 -0.0015  0.8729
  218MOL0     C28673   9.318   3.213   0.749  0.3691 -0.0407  0.6880
  218MOL0     O28674   9.213   3.128   0.736  0.5543  0.6009  0.0071
  218MOL0     C28675   9.083   3.162   0.718  0.1159  0.0211  0.5865
  218MOL0     C28676   9.026   3.251   0.615  0.8335  0.2154 -0.8499
  218MOL0     C28677   8.889   3.248   0.592 -1.0850  0.1367  0.7325
  218MOL0     C28678   8.803   3.176   0.667  0.0846 -0.3989 -0.2719
  218MOL0     O28679   8.666   3.183   0.643 -0.2702 -0.7010 -0.9142
  218MOL0     C28680   8.601   3.253   0.754  0.7290 -0.7002  0.5449
  218MOL0     C28681   8.541   3.383   0.700  0.0129 -0.1624 -0.7964
  218MOL0     C28682   8.651   3.489   0.664  0.0211  0.2299 -0.5010
  218MOL0     C28683   8.586   3.630   0.678  0.2099  0.6610 -0.4608
  218MOL0     C28684   8.668   3.749   0.617  0.3537 -0.2895  0.4873
  218MOL0     C28685   8.822   3.756   0.644 -0.0862  0.6450  0.8740
  218MOL0     C28686   8.873   3.889   0.578  0.4161  0.4413  0.1023
  218MOL0     C28687   9.005   3.943   0.629  0.4828  0.5608 -0.2654
  218MOL0    Cl28688   9.005   4.011   0.803  0.1567 -0.1611  0.4154
  218MOL0     C28689   8.851   3.089   0.763 -0.0741  0.2849 -0.4644
  218MOL0     C28690   8.988   3.081   0.792 -0.4242 -0.0300 -0.1061
  218MOL0     O28691   9.305   3.337   0.757 -0.2610  0.3743  0.0702
  218MOL0     C28692   9.563   3.255   0.780  0.5271  0.4903  1.6280
  218MOL0     C28693   9.688   3.202   0.807 -1.1089  0.6098 -0.0428
  218MOL0     N28694   9.722   3.256   1.181  0.1808  0.1771  0.9654
  218MOL0     N28695   9.614   3.298   1.135  0.1064  0.4371 -0.0780
  218MOL0     C28696   8.255   3.145   1.396 -0.1873  0.6583 -0.2148
  218MOL0     C28697   8.124   3.124   1.428 -0.4362  0.1713 -1.4312
  218MOL0     C28698   7.751   2.874   1.459 -0.6101  0.1227  0.4508
  218MOL0     C28699   7.673   2.806   1.367 -0.2004  0.4764  0.3594
  218MOL0     C28700   7.544   2.754   1.409  0.0043 -0.4704 -0.4513
  218MOL0     C28701   7.487   2.774   1.536 -0.4112 -0.5604  0.2079
  218MOL0     O28702   7.360   2.721   1.543 -0.5304 -0.8174 -0.5678
  218MOL0     C28703   7.298   2.725   1.675 -0.2496  0.2919  0.6470
  218MOL0     C28704   7.230   2.861   1.708  0.2076 -0.7087 -0.2340
  218MOL0     C28705   7.091   2.841   1.765 -0.1484 -0.7538 -0.0069
  218MOL0     C28706   7.003   2.969   1.768  0.1521  0.4284 -0.1535
  218MOL0     C28707   7.063   3.059   1.858 -1.0315  0.0741 -1.7891
  218MOL0     C28708   7.115   3.137   1.929  0.4037 -0.3304  0.0702
  218MOL0     C28709   7.561   2.848   1.626  0.1935 -0.2715  0.8164
  218MOL0     C28710   7.692   2.896   1.591 -0.2081  0.8470 -0.6652
  218MOL0     H28711   8.137   2.854   1.623 -2.7867  0.4489 -1.0901
  218MOL0     H28712   8.395   2.887   1.570 -0.0889  0.6263  1.4956
  218MOL0     H28713   8.599   3.244   1.481  3.2792 -0.8123 -0.3880
  218MOL0     H28714   8.478   3.269   1.343 -0.2576  0.1873  0.6382
  218MOL0     H28715   8.641   3.236   1.188 -1.0312  3.7726  3.0789
  218MOL0     H28716   8.640   3.063   1.243  1.3703 -0.4193  0.0409
  218MOL0     H28717   8.824   3.141   1.411  0.4439  0.2907  0.4181
  218MOL0     H28718   8.806   3.302   1.335  1.1189  0.1651 -1.6482
  218MOL0     H28719   8.920   3.054   1.194  1.8903  0.7370 -2.3712
  218MOL0     H28720   8.882   3.207   1.113 -1.5904  0.5058  0.2254
  218MOL0     H28721   9.063   3.132   1.348 -1.2929 -0.3721  1.2295
  218MOL0     H28722   9.030   3.299   1.325 -0.2398 -0.5379  1.1198
  218MOL0     H28723   9.113   3.283   1.077 -2.2210 -2.2390 -0.6594
  218MOL0     H28724   9.127   3.115   1.091 -1.2594  1.5002 -1.7127
  218MOL0     H28725   9.307   3.281   1.280  1.1205  0.0385  0.2337
  218MOL0     H28726   9.303   3.115   1.252 -2.2047  0.2790  0.2425
  218MOL0     H28727   9.370   3.312   1.030 -1.8905 -0.4678  0.3886
  218MOL0     H28728   9.359   3.144   1.007 -2.4080  0.6385  0.7962
  218MOL0     H28729   9.534   2.985   1.211 -1.0523  0.6269 -1.1618
  218MOL0     H28730   9.784   2.945   1.323 -2.6115  2.0530  1.3467
  218MOL0     H28731   9.884   3.084   1.331  0.4665 -0.7730 -0.2507
  218MOL0     H28732   9.984   2.926   1.176  0.9528  0.1130 -1.6075
  218MOL0     H28733   9.940   3.061   1.093  0.2324 -1.8459 -1.4319
  218MOL0     H28734   9.821   2.793   1.090  2.1188  1.5267  0.1141
  218MOL0     H28735   9.698   2.919   1.045 -0.4041  2.2745 -1.2533
  218MOL0     H28736   9.823   2.824   0.856 -1.1479 -0.1633 -1.2367
  218MOL0     H28737   9.977   2.893   0.931 -0.4869 -0.9333  0.9588
  218MOL0     H28738   9.618   2.874   0.790  2.1288  0.7226 -0.5665
  218MOL0     H28739   9.407   2.963   0.713 -1.3515  1.5000  1.7208
  218MOL0     H28740   9.087   3.313   0.550  1.5182  0.8292  0.3619
  218MOL0     H28741   8.849   3.315   0.516  1.2375 -0.3047 -0.9669
  218MOL0     H28742   8.676   3.281   0.828  0.8987  0.3885 -0.0165
  218MOL0     H28743   8.528   3.184   0.798 -0.8708  1.7203  1.9280
  218MOL0     H28744   8.481   3.424   0.782 -1.8270  0.2276 -2.2437
  218MOL0     H28745   8.469   3.368   0.618 -2.1802 -0.5185  1.0816
  218MOL0     H28746   8.693   3.479   0.564  0.6816 -0.5610 -0.1593
  218MOL0     H28747   8.727   3.483   0.743 -0.5073  1.2820  0.1115
  218MOL0     H28748   8.485   3.638   0.637  0.7961  0.9600 -1.9129
  218MOL0     H28749   8.578   3.647   0.786  1.6403 -0.7614 -0.0953
  218MOL0     H28750   8.620   3.842   0.649  0.6417  0.3935 -0.9807
  218MOL0     H28751   8.667   3.759   0.508 -0.8333  0.7644  0.5729
  218MOL0     H28752   8.861   3.666   0.594 -0.1904  0.9541  0.2210
  218MOL0     H28753   8.849   3.767   0.749  1.7611  2.0597  0.3269
  218MOL0     H28754   8.870   3.870   0.470  0.0761 -1.3920  0.4012
  218MOL0     H28755   8.806   3.973   0.598 -2.0824 -1.6048  0.7995
  218MOL0     H28756   9.037   4.026   0.566 -1.5971  0.8473 -1.0303
  218MOL0     H28757   9.083   3.867   0.617 -0.1952  0.2290 -3.5145
  218MOL0     H28758   8.783   3.029   0.823  0.8104 -0.0610  0.2151
  218MOL0     H28759   9.020   3.002   0.860 -0.8310  1.5822  2.0661
  218MOL0     H28760   9.547   3.362   0.775 -0.9519  0.2464 -2.0119
  218MOL0     H28761   9.774   3.263   0.833 -0.5718  0.4752 -1.4450
  218MOL0     H28762   8.285   3.214   1.319  1.1122  2.6456  1.9306
  218MOL0     H28763   8.039   3.178   1.388 -1.7150  0.2907  1.1995
  218MOL0     H28764   7.709   2.796   1.265 -0.4823  2.3169  0.0425
  218MOL0     H28765   7.489   2.700   1.332  1.5842  0.1717 -2.1183
  218MOL0     H28766   7.380   2.704   1.745 -0.4543 -3.9943 -0.1278
  218MOL0     H28767   7.226   2.643   1.677 -1.8929  1.5170 -2.2561
  218MOL0     H28768   7.295   2.915   1.777  2.3410 -1.3981 -1.6043
  218MOL0     H28769   7.235   2.924   1.619  1.7511 -2.5382 -1.5250
  218MOL0     H28770   7.097   2.799   1.866  2.1718 -0.8857 -0.1476
  218MOL0     H28771   7.047   2.764   1.701 -0.0339 -1.4558  0.7480
  218MOL0     H28772   6.992   3.020   1.672 -1.5028  0.9029  0.2531
  218MOL0     H28773   6.904   2.946   1.810  2.0530 -1.8959  3.6368
  218MOL0     H28774   7.151   3.214   1.995  0.2510 -1.6144  1.7134
  218MOL0     H28775   7.528   2.873   1.726  2.6064  0.9708  1.3821
  218MOL0     H28776   7.753   2.952   1.662 -0.3567  2.9323 -2.0885
  219MOL0     O28777   3.198   8.274   7.298  0.2873  0.1527  1.1047
  219MOL0     C28778   3.259   8.259   7.192 -0.7395  0.5619 -0.3145
  219MOL0     O28779   3.218   8.179   7.092  0.2413 -0.2054 -0.1947
  219MOL0     C28780   3.097   8.097   7.103 -0.0457 -0.6531 -0.7778
  219MOL0     C28781   3.002   8.077   7.212 -0.3029  0.5274 -0.7663
  219MOL0     C28782   2.888   7.990   7.189  0.0687 -0.1752 -0.1635
  219MOL0     C28783   2.867   7.929   7.069 -0.2667  0.7879 -0.6057
  219MOL0     O28784   2.752   7.862   7.053  0.8662  0.1334 -0.0029
  219MOL0     C28785   2.703   7.829   6.924  0.3925  0.3344 -0.1089
  219MOL0     C28786   2.563   7.776   6.933 -0.5121 -0.0951 -0.5475
  219MOL0     C28787   2.565   7.656   7.027 -1.0378 -0.4599 -0.2960
  219MOL0     C28788   2.433   7.578   7.043  0.1409 -0.9597  0.0734
  219MOL0     C28789   2.429   7.500   7.174  0.1667  0.5070  0.1959
  219MOL0     C28790   2.304   7.408   7.173 -0.2927  0.3252  0.0801
  219MOL0     C28791   2.269   7.351   7.308  0.0305  0.8741 -0.0600
  219MOL0     C28792   2.222   7.203   7.301  0.5688 -0.2280 -0.0076
  219MOL0     N28793   2.219   7.142   7.439  0.5534  0.2466  0.2611
  219MOL0     C28794   2.314   7.138   7.537  0.0419 -0.4359 -0.1208
  219MOL0     C28795   2.261   7.057   7.633 -0.4344 -0.4447  0.2997
  219MOL0     C28796   2.323   7.052   7.765 -1.0292  0.0504 -0.5986
  219MOL0     C28797   2.442   6.960   7.746 -1.0763  0.1342 -0.6101
  219MOL0     C28798   2.491   6.902   7.884  0.0922  0.6862  0.0692
  219MOL0     C28799   2.386   6.804   7.968  0.6242  0.3266 -0.0194
  219MOL0     O28800   2.335   6.695   7.885 -0.5283 -0.4124  0.9336
  219MOL0     C28801   2.427   6.598   7.860  0.2954 -0.3588  0.7804
  219MOL0     C28802   2.501   6.529   7.955  0.0531  0.2301 -0.7296
  219MOL0     C28803   2.590   6.427   7.919 -0.8469  0.4275 -0.3790
  219MOL0     C28804   2.626   6.413   7.781  0.3878  0.3195  0.4501
  219MOL0     C28805   2.732   6.313   7.744 -0.6225  0.1236  0.2352
  219MOL0     O28806   2.782   6.250   7.858  0.1995 -0.0769  0.5789
  219MOL0     C28807   2.871   6.142   7.842 -0.4561  0.7568 -0.2169
  219MOL0     C28808   2.845   6.016   7.883  0.1683  0.4152 -0.3635
  219MOL0     C28809   2.922   5.910   7.856  0.0872  1.1868 -0.4897
  219MOL0     C28810   3.034   5.920   7.766  0.6121  0.5420  0.8133
  219MOL0     O28811   3.115   5.812   7.718 -0.1515 -0.1783 -0.4459
  219MOL0     C28812   3.242   5.849   7.651  0.4335  0.0402  0.2790
  219MOL0     C28813   3.301   5.720   7.602 -0.1283  0.3422  0.3252
  219MOL0     C28814   3.337   5.613   7.703  0.1256  0.4195  0.3443
  219MOL0     C28815   3.435   5.514   7.639  0.2875 -0.4101 -0.6104
  219MOL0     C28816   3.470   5.397   7.739  0.0445 -0.6777  0.3682
  219MOL0     C28817   3.580   5.309   7.693  0.1626 -0.1085  0.7052
  219MOL0     C28818   3.715   5.377   7.672  0.2063 -0.6783  0.8919
  219MOL0     C28819   3.824   5.271   7.644  0.0414 -0.0175  0.0306
  219MOL0    Cl28820   3.983   5.357   7.613 -0.3654  0.2644  0.0321
  219MOL0     C28821   3.063   6.048   7.730  0.4900  0.1530  0.3390
  219MOL0     C28822   2.989   6.156   7.759 -0.3286  0.2011 -0.0946
  219MOL0     O28823   2.761   6.285   7.626 -0.1235  0.4311 -0.2328
  219MOL0     C28824   2.563   6.493   7.684  0.3383  0.2198  0.0654
  219MOL0     C28825   2.461   6.575   7.724  0.3856  0.0063  0.6575
  219MOL0     N28826   2.142   7.001   7.588  0.0277 -0.1083 -0.5061
  219MOL0     N28827   2.117   7.065   7.479 -0.6014 -0.4241  0.4213
  219MOL0     C28828   2.957   7.952   6.964 -0.3266 -1.0223  0.9939
  219MOL0     C28829   3.066   8.041   6.977  0.4751 -0.1127 -0.0606
  219MOL0     C28830   3.381   8.333   7.163 -0.1508 -0.8441 -0.0485
  219MOL0     C28831   3.443   8.414   7.260  0.2430 -0.3496 -0.6576
  219MOL0     C28832   3.552   8.492   7.224  0.1088  0.0059  1.0392
  219MOL0     C28833   3.600   8.501   7.094  0.8198  0.3620 -0.2027
  219MOL0     O28834   3.718   8.566   7.063 -0.3504  0.2364 -0.2750
  219MOL0     C28835   3.801   8.616   7.170 -0.0562 -0.1368  0.2310
  219MOL0     C28836   3.780   8.765   7.189 -0.0809  0.0895 -0.7432
  219MOL0     C28837   3.878   8.859   7.123  0.4291 -0.6956 -0.7430
  219MOL0     C28838   3.892   8.997   7.191  0.2347 -0.6885  0.3939
  219MOL0     C28839   3.773   9.083   7.156 -0.5146  0.2509  0.4550
  219MOL0     C28840   3.691   9.175   7.131 -0.2015 -1.2996 -0.0244
  219MOL0     C28841   3.545   8.413   7.001  0.0801 -0.3291  0.7574
  219MOL0     C28842   3.445   8.332   7.034 -0.3934  0.6473  0.9998
  219MOL0     H28843   3.027   8.130   7.303  1.1016  1.0471 -1.4063
  219MOL0     H28844   2.814   7.989   7.269 -0.6045  0.4213 -0.7619
  219MOL0     H28845   2.771   7.765   6.868  2.0439  3.3671 -1.8953
  219MOL0     H28846   2.702   7.922   6.866  0.3523  0.6611  0.4086
  219MOL0     H28847   2.526   7.761   6.831 -1.1188  0.5282 -0.4195
  219MOL0     H28848   2.502   7.847   6.989  2.2650  0.4159  2.0941
  219MOL0     H28849   2.592   7.687   7.128  0.2981 -0.4295 -0.6416
  219MOL0     H28850   2.648   7.590   7.000  0.5925  1.9365 -1.5635
  219MOL0     H28851   2.355   7.655   7.037  0.6835 -0.5395 -2.0999
  219MOL0     H28852   2.423   7.502   6.965  0.1185  1.2588 -2.1962
  219MOL0     H28853   2.429   7.569   7.259  1.9177 -0.2977  0.9066
  219MOL0     H28854   2.515   7.433   7.188 -0.0070  0.8082  3.3305
  219MOL0     H28855   2.326   7.322   7.110  0.3665 -0.2357  1.0409
  219MOL0     H28856   2.218   7.460   7.131  1.1634  0.8147 -2.5415
  219MOL0     H28857   2.352   7.358   7.380  0.0739  0.6293 -0.0862
  219MOL0     H28858   2.184   7.407   7.349  0.1512  0.3616  0.9357
  219MOL0     H28859   2.292   7.142   7.242  2.6277  0.6095  1.4311
  219MOL0     H28860   2.120   7.198   7.262 -0.2297  1.1765  1.7247
  219MOL0     H28861   2.404   7.197   7.525 -1.3056  1.7528 -0.0639
  219MOL0     H28862   2.257   7.011   7.842  2.3272 -1.8625  1.5507
  219MOL0     H28863   2.364   7.150   7.789 -0.9516 -0.4978  1.8044
  219MOL0     H28864   2.523   7.013   7.695 -1.5499  5.0931  3.1257
  219MOL0     H28865   2.422   6.874   7.680  3.8152 -2.1829  0.4852
  219MOL0     H28866   2.587   6.851   7.873  0.1741  1.3040 -3.1975
  219MOL0     H28867   2.518   6.989   7.945  3.2150  0.6515 -1.0757
  219MOL0     H28868   2.307   6.871   8.004  0.5342  0.3393 -0.2338
  219MOL0     H28869   2.435   6.757   8.054  3.3726 -1.3696 -2.3081
  219MOL0     H28870   2.494   6.550   8.061 -0.5907  0.3654 -0.7929
  219MOL0     H28871   2.634   6.358   7.992  0.4506 -0.3691 -1.8462
  219MOL0     H28872   2.750   5.997   7.933  0.7665 -0.5956  0.4123
  219MOL0     H28873   2.899   5.815   7.902 -2.2160  2.3179  0.8627
  219MOL0     H28874   3.316   5.895   7.716  3.9158 -2.6486 -1.4637
  219MOL0     H28875   3.234   5.908   7.559 -0.6115 -0.2687  0.1590
  219MOL0     H28876   3.395   5.729   7.548 -0.5461 -1.6452 -0.8678
  219MOL0     H28877   3.235   5.677   7.526  0.0492  0.4289  0.1220
  219MOL0     H28878   3.252   5.554   7.739  0.7318 -0.0004  1.1345
  219MOL0     H28879   3.383   5.667   7.786 -1.4548  1.2883  0.6898
  219MOL0     H28880   3.392   5.475   7.546  3.5478 -2.0072 -1.6240
  219MOL0     H28881   3.523   5.575   7.617  0.4866 -0.1362  0.8895
  219MOL0     H28882   3.380   5.338   7.757 -1.5794  1.9659  1.3932
  219MOL0     H28883   3.490   5.447   7.834  1.1694 -0.2412 -0.0759
  219MOL0     H28884   3.551   5.258   7.601  2.3926  0.4762 -0.4015
  219MOL0     H28885   3.592   5.225   7.762  1.2321 -0.8787 -0.3625
  219MOL0     H28886   3.712   5.449   7.589 -3.9388  1.8517  2.8789
  219MOL0     H28887   3.736   5.447   7.753 -0.3734  0.4861  0.0667
  219MOL0     H28888   3.792   5.207   7.562 -0.5564  0.0742  0.1834
  219MOL0     H28889   3.843   5.205   7.729  4.1822  1.1861  0.2251
  219MOL0     H28890   3.156   6.066   7.677  1.9537 -1.9076  2.0208
  219MOL0     H28891   3.021   6.247   7.709  0.8770  0.6929  1.5064
  219MOL0     H28892   2.607   6.478   7.585  1.7421 -3.9585  1.1476
  219MOL0     H28893   2.401   6.628   7.651  1.8371  0.4818 -0.2373
  219MOL0     H28894   2.944   7.903   6.867  1.6299 -2.7623  1.5172
  219MOL0     H28895   3.137   8.061   6.897  1.9892 -2.3218  0.6361
  219MOL0     H28896   3.419   8.420   7.366 -1.2302  3.0274 -1.0629
  219MOL0     H28897   3.594   8.553   7.303  3.2097 -0.1026 -0.4039
  219MOL0     H28898   3.907   8.595   7.152  0.0623 -0.1008  0.8438
  219MOL0     H28899   3.790   8.570   7.269  1.1822 -1.4406 -0.2016
  219MOL0     H28900   3.684   8.801   7.153 -0.5946 -0.7466 -0.2443
  219MOL0     H28901   3.790   8.787   7.296 -1.7575 -3.0374  0.1617
  219MOL0     H28902   3.840   8.872   7.021 -0.4846 -2.7060 -0.7129
  219MOL0     H28903   3.975   8.812   7.106  0.4853 -1.2071  0.8514
  219MOL0     H28904   3.903   8.989   7.299 -0.6835  1.2873  0.6706
  219MOL0     H28905   3.978   9.037   7.137 -1.7293  1.1552 -1.5416
  219MOL0     H28906   3.624   9.259   7.127  1.9937  0.5921  0.7491
  219MOL0     H28907   3.589   8.420   6.902  0.7811 -4.2529  0.6309
  219MOL0     H28908   3.415   8.272   6.950  3.7209 -0.3032 -0.0156
  220MOL0     O28909   6.538  10.696   2.213 -0.7960  0.1318 -0.3628
  220MOL0     C28910   6.604  10.619   2.286  0.0594  0.9061  0.2041
  220MOL0     O28911   6.558  10.543   2.390  0.1168 -0.2621  0.5733
  220MOL0     C28912   6.427  10.547   2.428 -0.1223  0.1238 -0.4908
  220MOL0     C28913   6.396  10.450   2.529 -0.3635 -0.6860 -0.1391
  220MOL0     C28914   6.264  10.448   2.584  0.9994  1.0634  0.5789
  220MOL0     C28915   6.165  10.523   2.515  0.0775 -0.1235  0.0689
  220MOL0     O28916   6.033  10.504   2.561  0.4258 -0.6136 -0.1561
  220MOL0     C28917   5.927  10.583   2.501  0.0910 -0.7309  0.1864
  220MOL0     C28918   5.799  10.571   2.575  0.3770 -0.4183  0.8087
  220MOL0     C28919   5.695  10.647   2.509 -0.0859  0.5451  0.2299
  220MOL0     C28920   5.554  10.616   2.541 -0.6077 -0.2242  0.0513
  220MOL0     C28921   5.458  10.725   2.459 -0.4729  0.2834 -0.6287
  220MOL0     C28922   5.337  10.656   2.400  0.3308 -0.4859 -0.6787
  220MOL0     C28923   5.192  10.712   2.426 -0.4052 -0.8344  0.7084
  220MOL0     C28924   5.171  10.725   2.575 -0.0640  0.3376 -0.6365
  220MOL0     N28925   5.036  10.756   2.612  0.4104 -0.1894  0.6382
  220MOL0     C28926   4.938  10.661   2.598  0.3280 -0.2975 -0.3541
  220MOL0     C28927   4.828  10.722   2.642  0.0663 -1.1689  1.0282
  220MOL0     C28928   4.687  10.663   2.652  0.3756  0.2608  0.3372
  220MOL0     C28929   4.668  10.551   2.758  0.4670  0.0776  1.0854
  220MOL0     C28930   4.669  10.597   2.897  0.0906  0.0694 -0.2351
  220MOL0     C28931   4.554  10.688   2.931  0.1105  0.6172 -0.3775
  220MOL0     O28932   4.425  10.644   2.866 -0.4683  0.1760  0.3852
  220MOL0     C28933   4.316  10.723   2.883  0.3385 -0.4241  0.3435
  220MOL0     C28934   4.314  10.840   2.955 -0.2042 -0.2650 -0.3105
  220MOL0     C28935   4.194  10.914   2.962  0.5009 -0.7291  0.4910
  220MOL0     C28936   4.073  10.874   2.907  0.2342 -0.1644 -0.3023
  220MOL0     C28937   3.946  10.943   2.912 -0.0510 -0.2718 -1.0337
  220MOL0     O28938   3.841  10.889   2.851 -0.1352  0.3202 -0.5050
  220MOL0     C28939   3.712  10.946   2.870  0.1524  0.0678 -0.0109
  220MOL0     C28940   3.658  11.013   2.765 -1.0058 -0.7109 -0.4827
  220MOL0     C28941   3.535  11.065   2.777  0.7110 -0.6831 -0.0600
  220MOL0     C28942   3.457  11.061   2.891  0.3960 -0.5634 -0.0264
  220MOL0     O28943   3.339  11.131   2.885  0.0736 -0.7406 -0.5612
  220MOL0     C28944   3.261  11.125   3.006  0.2080  0.4639  0.2049
  220MOL0     C28945   3.145  11.214   2.993  0.0556 -0.9000  0.1268
  220MOL0     C28946   3.041  11.168   2.892  0.3747 -0.4279 -0.8366
  220MOL0     C28947   2.913  11.244   2.915 -0.1735  0.3855  0.5179
  220MOL0     C28948   2.814  11.208   2.800  0.1031  0.1665  0.3602
  220MOL0     C28949   2.662  11.234   2.840 -0.5069  0.7626  0.0031
  220MOL0     C28950   2.592  11.140   2.934  0.5429 -0.4128 -1.0981
  220MOL0     C28951   2.451  11.184   2.969  0.1588  0.4358 -0.4237
  220MOL0    Cl28952   2.320  11.122   2.852 -0.2788 -0.1329  0.2093
  220MOL0     C28953   3.518  10.995   3.000 -0.1466 -0.2462 -0.7184
  220MOL0     C28954   3.647  10.947   2.993  0.0043  0.7477  0.3043
  220MOL0     O28955   3.946  11.052   2.974 -0.2109  0.1212  0.0356
  220MOL0     C28956   4.080  10.753   2.833 -0.8906 -0.3719  0.2152
  220MOL0     C28957   4.196  10.681   2.822 -0.8345 -0.1982 -0.3664
  220MOL0     N28958   4.864  10.845   2.691  0.3133 -0.9475 -1.1146
  220MOL0     N28959   4.994  10.873   2.676  0.4280  0.5971  0.0291
  220MOL0     C28960   6.199  10.620   2.428 -0.1339  0.7386 -0.0088
  220MOL0     C28961   6.326  10.633   2.389  0.6432 -0.0414 -0.3895
  220MOL0     C28962   6.748  10.615   2.254 -0.6583  0.0028  0.6008
  220MOL0     C28963   6.804  10.689   2.147 -0.1635  0.7383 -0.9473
  220MOL0     C28964   6.932  10.659   2.101  0.3535 -0.6742  0.4432
  220MOL0     C28965   7.022  10.573   2.164  0.0571 -0.1406  0.3740
  220MOL0     O28966   7.152  10.573   2.115  0.3123 -0.0504 -0.2388
  220MOL0     C28967   7.217  10.445   2.114 -0.2465  0.5689  0.5976
  220MOL0     C28968   7.179  10.345   2.003 -0.6182 -0.5648  0.6669
  220MOL0     C28969   7.191  10.404   1.863 -0.5499 -0.5623 -0.7709
  220MOL0     C28970   7.150  10.302   1.757 -0.8790 -0.5178 -0.1055
  220MOL0     C28971   7.111  10.350   1.631  0.5094 -0.4132  0.1567
  220MOL0     C28972   7.083  10.400   1.522  0.1249  1.0818 -0.1579
  220MOL0     C28973   6.962  10.491   2.260 -0.3847 -0.5767 -0.2121
  220MOL0     C28974   6.831  10.511   2.309  0.2766 -0.8298  0.5412
  220MOL0     H28975   6.475  10.387   2.567 -2.6097 -2.7296  1.4536
  220MOL0     H28976   6.217  10.381   2.655  1.8946 -0.6683 -0.4024
  220MOL0     H28977   5.923  10.545   2.398 -0.9508 -1.1011  0.3455
  220MOL0     H28978   5.948  10.690   2.505 -0.8556 -0.5488  0.6604
  220MOL0     H28979   5.805  10.625   2.670 -0.9064  0.7037  0.2892
  220MOL0     H28980   5.757  10.470   2.577 -1.9023  0.3448 -2.2269
  220MOL0     H28981   5.706  10.635   2.401 -3.3958 -1.4552 -0.0276
  220MOL0     H28982   5.713  10.751   2.539  0.6265  0.6710 -0.6017
  220MOL0     H28983   5.532  10.517   2.500  0.4932 -0.1226 -0.8686
  220MOL0     H28984   5.542  10.619   2.649 -1.2159 -0.6368 -0.0006
  220MOL0     H28985   5.519  10.767   2.379  1.6764 -1.0357  0.2225
  220MOL0     H28986   5.427  10.800   2.532 -1.3446 -0.8142  0.1667
  220MOL0     H28987   5.331  10.554   2.440  2.4020 -0.3563  0.0940
  220MOL0     H28988   5.342  10.654   2.291 -1.0948 -2.6791 -0.7530
  220MOL0     H28989   5.176  10.812   2.387 -0.0406 -0.8663  0.4651
  220MOL0     H28990   5.123  10.645   2.374  2.2162 -1.0437 -2.8587
  220MOL0     H28991   5.245  10.801   2.605  0.5284 -0.6865  0.5784
  220MOL0     H28992   5.206  10.641   2.634  2.0088  1.8801  0.4942
  220MOL0     H28993   4.942  10.560   2.560 -1.7149 -0.4979 -0.1667
  220MOL0     H28994   4.643  10.629   2.558 -3.2035 -3.1430  2.9421
  220MOL0     H28995   4.619  10.747   2.670 -1.5688 -0.4445 -2.8670
  220MOL0     H28996   4.756  10.490   2.740  0.5370  0.7735 -1.3799
  220MOL0     H28997   4.581  10.486   2.747 -0.5057  0.8134  3.7675
  220MOL0     H28998   4.666  10.522   2.975 -0.2040  0.4433  0.1193
  220MOL0     H28999   4.755  10.659   2.922  0.1410  0.5860 -1.5638
  220MOL0     H29000   4.574  10.784   2.882  0.5476  2.1232  2.5342
  220MOL0     H29001   4.538  10.692   3.039 -0.2837 -0.7090 -0.3716
  220MOL0     H29002   4.396  10.883   3.011 -1.1796  1.6065 -0.2132
  220MOL0     H29003   4.195  11.015   3.002  0.0545 -0.4752 -0.1106
  220MOL0     H29004   3.715  11.020   2.672  1.1193  0.8432  0.8248
  220MOL0     H29005   3.502  11.115   2.687  3.1622 -2.8273 -2.3462
  220MOL0     H29006   3.317  11.165   3.091 -5.2407  3.0433  3.1346
  220MOL0     H29007   3.226  11.021   3.012  2.1896 -0.3533 -1.3043
  220MOL0     H29008   3.174  11.318   2.973  1.0272 -1.4041 -1.1613
  220MOL0     H29009   3.090  11.213   3.088  0.1704  0.3290  0.2210
  220MOL0     H29010   3.018  11.064   2.913 -0.0675 -0.7636 -2.8232
  220MOL0     H29011   3.069  11.185   2.787  1.5374  2.8565 -0.1344
  220MOL0     H29012   2.883  11.202   3.011  1.5663 -0.5045  0.7081
  220MOL0     H29013   2.932  11.351   2.927 -1.6007  1.0785 -2.3552
  220MOL0     H29014   2.820  11.102   2.774 -2.0104 -0.1077  0.8591
  220MOL0     H29015   2.828  11.263   2.707  0.1796  0.0836  0.3217
  220MOL0     H29016   2.606  11.244   2.746 -1.9724  1.6628  0.9305
  220MOL0     H29017   2.658  11.333   2.885 -2.7561 -0.3271  2.5002
  220MOL0     H29018   2.590  11.036   2.901 -1.5396 -0.6384 -0.4466
  220MOL0     H29019   2.653  11.131   3.024  0.1691  1.6143 -0.5804
  220MOL0     H29020   2.433  11.291   2.982 -0.9589  0.0896  1.2186
  220MOL0     H29021   2.430  11.147   3.070 -0.4237  4.1240  0.9797
  220MOL0     H29022   3.480  10.987   3.102  3.0375 -1.5938  0.4944
  220MOL0     H29023   3.694  10.904   3.080  0.8008  2.9534  1.0382
  220MOL0     H29024   3.989  10.710   2.790  1.5165 -0.8904 -5.1495
  220MOL0     H29025   4.179  10.593   2.762  1.2030 -1.1383  0.3769
  220MOL0     H29026   6.124  10.687   2.387 -1.0244  0.2218  0.7181
  220MOL0     H29027   6.338  10.713   2.317  1.0180  1.0513  0.8611
  220MOL0     H29028   6.761  10.777   2.100  1.1381  1.6522 -0.4893
  220MOL0     H29029   6.975  10.718   2.022 -0.1993  1.9110  1.9594
  220MOL0     H29030   7.206  10.395   2.211  3.2874  2.2636  2.0743
  220MOL0     H29031   7.320  10.483   2.107 -0.4405  1.0042  0.0713
  220MOL0     H29032   7.246  10.259   2.003 -0.4980 -0.6585 -3.1947
  220MOL0     H29033   7.077  10.312   2.026 -0.8933 -0.5931 -0.5135
  220MOL0     H29034   7.288  10.453   1.848  0.0807 -0.0531  3.6984
  220MOL0     H29035   7.120  10.487   1.852  1.0018  0.5370 -3.8719
  220MOL0     H29036   7.235  10.236   1.742  1.7505  2.4884  0.3928
  220MOL0     H29037   7.079  10.237   1.809 -0.9387  3.0645  5.0937
  220MOL0     H29038   7.049  10.449   1.433 -0.5219  0.6990 -0.1239
  220MOL0     H29039   7.025  10.411   2.296 -0.0703 -0.6035 -0.8176
  220MOL0     H29040   6.789  10.443   2.383 -0.3626 -2.3578 -1.1487
  221MOL0     O29041   7.478   9.737   2.465 -0.0430  0.1955 -0.5373
  221MOL0     C29042   7.457   9.689   2.352 -0.5159  0.0575 -0.7403
  221MOL0     O29043   7.344   9.624   2.312 -0.5806  0.4937 -0.5985
  221MOL0     C29044   7.252   9.596   2.410  0.6242 -0.4475  0.7357
  221MOL0     C29045   7.190   9.695   2.484  0.1205  0.6168 -1.1129
  221MOL0     C29046   7.072   9.668   2.546  0.2701 -0.1008 -0.8148
  221MOL0     C29047   7.018   9.541   2.550  0.5114  0.1937  0.0556
  221MOL0     O29048   6.905   9.511   2.618 -1.0336 -0.2690 -1.0492
  221MOL0     C29049   6.832   9.612   2.694  0.0398  0.2158 -0.7454
  221MOL0     C29050   6.718   9.548   2.770  0.0722  0.0288  0.1123
  221MOL0     C29051   6.584   9.604   2.731 -0.8298  0.1849 -0.2715
  221MOL0     C29052   6.468   9.536   2.788  0.8987 -0.1394 -1.1445
  221MOL0     C29053   6.331   9.594   2.745 -0.7079  0.1004 -0.8108
  221MOL0     C29054   6.227   9.536   2.836  0.5180 -0.6231  0.0830
  221MOL0     C29055   6.095   9.578   2.779  0.1172  0.4732 -0.0474
  221MOL0     C29056   5.985   9.525   2.864  0.6553 -0.1675  0.1833
  221MOL0     N29057   5.853   9.538   2.802 -0.7133 -0.1403 -0.3193
  221MOL0     C29058   5.810   9.657   2.752  0.9829 -0.4815 -0.0711
  221MOL0     C29059   5.678   9.655   2.729  0.4387  0.7822  0.0292
  221MOL0     C29060   5.595   9.760   2.655 -0.6365  0.1962  0.4124
  221MOL0     C29061   5.488   9.844   2.739 -0.1626  0.3512 -0.3709
  221MOL0     C29062   5.390   9.750   2.802 -0.2467  0.2919  0.4932
  221MOL0     C29063   5.272   9.836   2.848 -1.0477 -0.6106 -0.4100
  221MOL0     O29064   5.144   9.773   2.838  0.0779 -0.0703  0.1856
  221MOL0     C29065   5.049   9.786   2.942 -0.4738 -0.1084 -1.0475
  221MOL0     C29066   4.930   9.729   2.917 -0.1297 -0.2231  1.1985
  221MOL0     C29067   4.819   9.745   2.996  0.2164 -0.9822  0.5440
  221MOL0     C29068   4.832   9.804   3.123  0.5093 -0.0521  0.6054
  221MOL0     C29069   4.720   9.804   3.219 -0.2806  0.3126 -0.5658
  221MOL0     O29070   4.597   9.747   3.173 -0.3026  0.3311 -0.3599
  221MOL0     C29071   4.487   9.737   3.262 -0.6827 -0.5240 -0.6011
  221MOL0     C29072   4.499   9.717   3.402 -0.7439  0.2259  0.6437
  221MOL0     C29073   4.389   9.709   3.489  0.4839 -0.1317  0.5239
  221MOL0     C29074   4.260   9.711   3.437 -0.1622  0.3794 -0.0371
  221MOL0     O29075   4.150   9.694   3.518  0.1059  0.5224  0.5204
  221MOL0     C29076   4.013   9.693   3.473 -0.6897  0.6242  0.2359
  221MOL0     C29077   3.967   9.554   3.410 -0.0559  0.1602 -0.5179
  221MOL0     C29078   3.832   9.543   3.339 -0.4432 -0.2874 -0.2096
  221MOL0     C29079   3.732   9.525   3.451  0.5680 -0.1555  0.3036
  221MOL0     C29080   3.595   9.484   3.388 -0.1004  0.4354  0.1100
  221MOL0     C29081   3.476   9.538   3.477  0.3819 -0.5324  0.4658
  221MOL0     C29082   3.340   9.485   3.428 -0.2019  0.6291 -0.4824
  221MOL0     C29083   3.224   9.512   3.520 -1.0117 -0.1535  0.2016
  221MOL0    Cl29084   3.070   9.455   3.457 -0.0297  0.1588 -0.1828
  221MOL0     C29085   4.251   9.735   3.303  0.0926  0.3937  0.1576
  221MOL0     C29086   4.364   9.747   3.216  0.4856 -0.0641 -0.5429
  221MOL0     O29087   4.735   9.870   3.324 -0.2007 -0.4903  0.4218
  221MOL0     C29088   4.956   9.859   3.157  0.0003 -0.9643  0.5206
  221MOL0     C29089   5.064   9.850   3.068 -0.6787  0.3821 -0.2743
  221MOL0     N29090   5.634   9.528   2.775  0.3650  0.2271 -0.6734
  221MOL0     N29091   5.737   9.473   2.829 -0.4798 -0.0398  0.3450
  221MOL0     C29092   7.087   9.440   2.500  0.1427 -0.3018  0.2325
  221MOL0     C29093   7.208   9.462   2.422 -0.6539  0.7166 -0.5774
  221MOL0     C29094   7.571   9.691   2.257  0.4356  0.3771 -0.9903
  221MOL0     C29095   7.701   9.722   2.287  0.0910  0.1337 -1.6249
  221MOL0     C29096   7.802   9.731   2.197 -0.6381  0.7825  0.3964
  221MOL0     C29097   7.778   9.686   2.066 -1.1385  0.2753 -0.1979
  221MOL0     O29098   7.889   9.688   1.984 -0.2013  0.2368 -0.3451
  221MOL0     C29099   7.869   9.640   1.850 -0.2490 -0.0968 -0.1100
  221MOL0     C29100   7.999   9.684   1.783  0.0202 -1.3155  0.8469
  221MOL0     C29101   8.132   9.633   1.842  0.4049  0.4005 -0.3402
  221MOL0     C29102   8.261   9.654   1.757  0.4194 -0.7586  0.4470
  221MOL0     C29103   8.380   9.642   1.834 -0.6404 -0.1947  0.1713
  221MOL0     C29104   8.479   9.603   1.899  0.4558 -0.2222 -0.7129
  221MOL0     C29105   7.651   9.645   2.026  0.3779 -0.4378 -0.2825
  221MOL0     C29106   7.540   9.653   2.124 -0.4112 -1.2739  0.1365
  221MOL0     H29107   7.226   9.797   2.489  0.2772  0.4993  1.6494
  221MOL0     H29108   7.033   9.750   2.605  1.6308 -0.5199  0.7613
  221MOL0     H29109   6.805   9.688   2.620  0.9027 -1.9994 -3.4753
  221MOL0     H29110   6.901   9.655   2.768 -0.8139  1.2811 -0.5388
  221MOL0     H29111   6.745   9.545   2.876  0.4482  0.5039  0.0331
  221MOL0     H29112   6.721   9.444   2.735  0.7128  0.2031 -0.3709
  221MOL0     H29113   6.579   9.604   2.622 -0.2756  1.6146 -0.3338
  221MOL0     H29114   6.586   9.712   2.751  0.3176 -0.2194  2.0803
  221MOL0     H29115   6.477   9.428   2.777  2.1894 -0.6146  2.7777
  221MOL0     H29116   6.477   9.554   2.896  1.7048 -1.4010 -0.9853
  221MOL0     H29117   6.317   9.570   2.639  2.3082 -2.1993 -0.8298
  221MOL0     H29118   6.333   9.703   2.754 -0.8417  0.0883 -0.6330
  221MOL0     H29119   6.232   9.575   2.938 -0.6274  1.3966 -0.5763
  221MOL0     H29120   6.234   9.427   2.844  0.5371 -0.6332 -0.0627
  221MOL0     H29121   6.086   9.687   2.772 -1.6064  0.2654 -1.7424
  221MOL0     H29122   6.076   9.546   2.677 -3.4734  3.9253 -0.6865
  221MOL0     H29123   5.972   9.576   2.960  2.4740  0.8539 -0.0746
  221MOL0     H29124   6.000   9.419   2.885  0.2241 -0.3394 -0.3515
  221MOL0     H29125   5.880   9.739   2.739  2.0880 -0.8141  3.0173
  221MOL0     H29126   5.535   9.702   2.585 -0.0685 -2.4359  1.9793
  221MOL0     H29127   5.668   9.822   2.603 -1.5638  0.2486 -0.8594
  221MOL0     H29128   5.439   9.912   2.669  1.0886 -0.9971 -2.6820
  221MOL0     H29129   5.542   9.899   2.817 -0.6057  0.3574 -0.0612
  221MOL0     H29130   5.354   9.666   2.742 -1.6528 -0.0233  1.7118
  221MOL0     H29131   5.447   9.699   2.880  0.0227 -1.9326 -1.0707
  221MOL0     H29132   5.259   9.922   2.782 -1.4921 -0.2653  0.1227
  221MOL0     H29133   5.287   9.877   2.948 -2.0216 -0.0505 -0.4858
  221MOL0     H29134   4.927   9.667   2.829  0.7029  2.7564 -1.1069
  221MOL0     H29135   4.730   9.693   2.961  0.2228 -1.1318  0.7462
  221MOL0     H29136   4.593   9.717   3.456  0.6373  1.8093 -1.5777
  221MOL0     H29137   4.396   9.675   3.592 -1.4196 -1.0397  0.4002
  221MOL0     H29138   3.996   9.768   3.395 -1.2204 -1.5703 -1.8955
  221MOL0     H29139   3.942   9.716   3.552 -1.5711  1.1260 -0.6755
  221MOL0     H29140   3.969   9.481   3.491  0.6246  1.0485  0.3000
  221MOL0     H29141   4.051   9.528   3.344  0.4118  1.9173 -0.6764
  221MOL0     H29142   3.831   9.455   3.273  1.5817 -0.6229  0.1233
  221MOL0     H29143   3.810   9.634   3.283 -3.1742 -0.9215 -0.3127
  221MOL0     H29144   3.766   9.443   3.516 -2.1483  0.2007  2.3559
  221MOL0     H29145   3.727   9.617   3.510  0.3627 -1.3916  2.3269
  221MOL0     H29146   3.596   9.377   3.367  2.4105  0.8109 -2.3170
  221MOL0     H29147   3.581   9.521   3.286 -0.1552 -0.4609 -0.2185
  221MOL0     H29148   3.471   9.645   3.458 -2.7649 -0.5349  0.8441
  221MOL0     H29149   3.490   9.512   3.582 -0.1025 -0.5194  0.5342
  221MOL0     H29150   3.318   9.517   3.326  0.9949 -2.9597 -2.0385
  221MOL0     H29151   3.353   9.377   3.420  1.3609  0.6979  0.5050
  221MOL0     H29152   3.215   9.621   3.529 -0.1386  0.7375 -5.5901
  221MOL0     H29153   3.233   9.455   3.613  0.5047  0.4458  0.4475
  221MOL0     H29154   4.160   9.767   3.253  1.7733  1.2926 -2.5190
  221MOL0     H29155   4.352   9.753   3.109 -0.8626  0.2433 -0.3985
  221MOL0     H29156   4.972   9.921   3.244 -0.3192 -1.0118  0.6152
  221MOL0     H29157   5.165   9.879   3.094 -1.1409  1.7400  0.1013
  221MOL0     H29158   7.060   9.335   2.500  1.4748 -0.6774 -1.1784
  221MOL0     H29159   7.262   9.376   2.386 -2.5503 -0.5294 -0.5958
  221MOL0     H29160   7.722   9.723   2.394  0.6466 -2.9808 -1.6001
  221MOL0     H29161   7.900   9.751   2.238  0.1683 -0.2044 -0.9512
  221MOL0     H29162   7.787   9.679   1.789 -0.9868 -1.4004  0.0267
  221MOL0     H29163   7.855   9.532   1.850  0.9111 -0.2613  0.3481
  221MOL0     H29164   7.989   9.660   1.677  1.3858  0.1339  0.3269
  221MOL0     H29165   7.997   9.794   1.787 -1.1092 -1.2580 -0.6286
  221MOL0     H29166   8.126   9.528   1.872 -2.1858  0.2677 -1.0666
  221MOL0     H29167   8.139   9.690   1.935 -3.3272  0.9628 -0.2678
  221MOL0     H29168   8.277   9.579   1.680 -0.4558 -0.7678  0.2611
  221MOL0     H29169   8.261   9.755   1.715  0.7765 -0.1171  1.9026
  221MOL0     H29170   8.540   9.573   1.982 -0.6996  2.2211  1.1581
  221MOL0     H29171   7.620   9.614   1.927 -1.7898  1.2322 -0.1935
  221MOL0     H29172   7.437   9.629   2.100 -0.4168 -0.1924 -1.0594
  222MOL0     O29173  10.405   5.610   3.701 -0.4602  0.8813  0.2947
  222MOL0     C29174  10.488   5.647   3.793  0.4594 -0.0910  0.1902
  222MOL0     O29175  10.461   5.680   3.919 -0.1335 -0.2151 -0.7427
  222MOL0     C29176  10.335   5.679   3.971 -0.4963  0.0171 -0.1274
  222MOL0     C29177  10.324   5.612   4.095  0.2908  1.1156 -0.3152
  222MOL0     C29178  10.202   5.620   4.160 -0.4860 -0.0247 -0.1052
  222MOL0     C29179  10.095   5.692   4.108 -0.0634  0.4465  0.0636
  222MOL0     O29180   9.982   5.701   4.189  0.4766  0.2036 -0.5998
  222MOL0     C29181   9.876   5.619   4.132 -0.6478 -0.0048  0.2174
  222MOL0     C29182   9.898   5.475   4.178 -0.0025  0.6440  0.1711
  222MOL0     C29183   9.854   5.453   4.322 -0.2794 -1.0940 -1.3477
  222MOL0     C29184   9.871   5.309   4.376 -0.3464 -0.3166 -0.2995
  222MOL0     C29185   9.830   5.193   4.269  0.7647  0.2377 -0.4776
  222MOL0     C29186   9.684   5.199   4.220 -0.3962  0.5347 -0.3022
  222MOL0     C29187   9.571   5.145   4.307  1.1323 -0.2876 -0.1452
  222MOL0     C29188   9.600   5.176   4.459  0.1995  0.6810 -0.1721
  222MOL0     N29189   9.482   5.137   4.545  0.4878  0.2628 -0.0437
  222MOL0     C29190   9.480   5.065   4.661 -1.4027 -0.1470 -0.3327
  222MOL0     C29191   9.357   5.040   4.696  0.1938  0.3726  0.9866
  222MOL0     C29192   9.317   4.945   4.805  0.6229  0.8284  0.6038
  222MOL0     C29193   9.178   4.976   4.861 -0.2992 -0.3388 -0.6250
  222MOL0     C29194   9.157   4.885   4.991  0.1267  0.6468  0.3537
  222MOL0     C29195   9.068   4.923   5.110  0.0972 -0.4905 -0.2466
  222MOL0     O29196   8.930   4.930   5.080  0.3841 -0.0682  0.0326
  222MOL0     C29197   8.853   4.993   5.170  1.0914 -0.1546 -0.7289
  222MOL0     C29198   8.743   4.921   5.211  0.1889 -0.1314  0.5760
  222MOL0     C29199   8.641   4.982   5.288  0.0919 -0.0513  0.1528
  222MOL0     C29200   8.655   5.115   5.326  0.4543 -0.7580 -0.0364
  222MOL0     C29201   8.549   5.189   5.406  0.4519 -0.3683 -0.0918
  222MOL0     O29202   8.419   5.161   5.382  0.2157 -0.9104 -0.2035
  222MOL0     C29203   8.329   5.252   5.430  0.4409 -0.5429  0.1730
  222MOL0     C29204   8.292   5.256   5.567 -0.3874 -0.1741 -0.3816
  222MOL0     C29205   8.195   5.346   5.616 -0.2572 -0.1803 -0.9690
  222MOL0     C29206   8.131   5.435   5.527  0.6173 -0.1691 -0.0030
  222MOL0     O29207   8.035   5.519   5.567 -0.5182  1.1156  0.5159
  222MOL0     C29208   7.944   5.485   5.670  0.2206 -0.1268  0.4708
  222MOL0     C29209   7.838   5.590   5.656 -0.0933 -0.9884  0.5635
  222MOL0     C29210   7.775   5.583   5.523  0.7705  0.1011 -0.0855
  222MOL0     C29211   7.670   5.695   5.513  0.1735 -0.0581 -0.3702
  222MOL0     C29212   7.583   5.677   5.378 -0.9543 -0.5075 -0.3098
  222MOL0     C29213   7.469   5.768   5.348 -0.2086 -1.0203 -0.5751
  222MOL0     C29214   7.511   5.904   5.289  0.8832  0.8451 -0.5612
  222MOL0     C29215   7.396   5.977   5.216  0.0846 -0.3358 -0.2790
  222MOL0    Cl29216   7.249   5.989   5.320  0.7889  0.1946  0.5291
  222MOL0     C29217   8.169   5.432   5.389 -0.7293  1.2663  0.0573
  222MOL0     C29218   8.270   5.340   5.344 -0.2337 -0.3950 -0.5191
  222MOL0     O29219   8.590   5.286   5.474 -0.1966 -0.0700 -0.3032
  222MOL0     C29220   8.771   5.189   5.277 -0.4697 -0.6370 -0.2648
  222MOL0     C29221   8.869   5.127   5.203 -0.0306 -0.1884 -0.0860
  222MOL0     N29222   9.275   5.104   4.610 -0.1798 -0.4391  0.3757
  222MOL0     N29223   9.351   5.155   4.514 -0.5119 -0.4231  0.1039
  222MOL0     C29224  10.107   5.756   3.989 -0.5135 -0.8760 -0.4470
  222MOL0     C29225  10.231   5.754   3.924  0.0369 -0.3393 -0.2514
  222MOL0     C29226  10.627   5.629   3.751  0.1709  0.1326 -1.1024
  222MOL0     C29227  10.728   5.727   3.796 -0.7475  0.3802  1.3982
  222MOL0     C29228  10.856   5.724   3.735  0.3315  0.3808  0.0726
  222MOL0     C29229  10.880   5.644   3.621  0.1078  0.1502 -0.2076
  222MOL0     O29230  10.994   5.663   3.546 -0.1081 -0.3544 -0.4120
  222MOL0     C29231  11.110   5.644   3.630 -0.3339 -0.0865 -0.3475
  222MOL0     C29232  11.228   5.580   3.552 -0.4608  0.2012  0.2868
  222MOL0     C29233  11.187   5.447   3.492 -0.6349 -0.0369 -0.0234
  222MOL0     C29234  11.290   5.386   3.400  0.1184  0.4706  0.8137
  222MOL0     C29235  11.405   5.325   3.468  1.0419  0.3659 -0.0512
  222MOL0     C29236  11.499   5.271   3.525  0.3408  0.0627  0.2905
  222MOL0     C29237  10.783   5.557   3.571  0.5886  0.0695  0.4920
  222MOL0     C29238  10.657   5.553   3.628 -1.1659 -0.2970 -0.3478
  222MOL0     H29239  10.408   5.553   4.131 -0.9254 -0.7711 -0.4139
  222MOL0     H29240  10.194   5.598   4.266 -1.4561 -0.1820 -0.1970
  222MOL0     H29241   9.865   5.620   4.024  1.6108 -0.7306 -0.0749
  222MOL0     H29242   9.785   5.649   4.184 -0.2360  0.4462  0.6984
  222MOL0     H29243  10.003   5.444   4.177  0.1327  0.9358  2.2084
  222MOL0     H29244   9.829   5.411   4.123  1.2411  0.7933 -1.6545
  222MOL0     H29245   9.750   5.486   4.328  0.6507  1.6919  2.1125
  222MOL0     H29246   9.914   5.522   4.381 -1.5657  1.3264 -2.6997
  222MOL0     H29247   9.978   5.308   4.397  1.1370 -2.2381 -6.0936
  222MOL0     H29248   9.822   5.298   4.473  0.6478 -0.1456  0.2277
  222MOL0     H29249   9.860   5.093   4.301 -0.5911 -0.3627 -0.9919
  222MOL0     H29250   9.907   5.201   4.191  1.9049  0.2165  0.6091
  222MOL0     H29251   9.682   5.158   4.119  0.9076  0.9844 -0.5356
  222MOL0     H29252   9.662   5.305   4.202  2.7122  1.4222  0.4389
  222MOL0     H29253   9.482   5.196   4.269  1.0275 -1.3799 -1.4825
  222MOL0     H29254   9.559   5.037   4.298 -1.6480  0.1285 -3.0698
  222MOL0     H29255   9.612   5.283   4.478  1.7779  0.4719  0.2535
  222MOL0     H29256   9.689   5.120   4.492 -1.2872 -1.7437 -0.0916
  222MOL0     H29257   9.570   5.020   4.702 -1.7716  0.1384  0.8330
  222MOL0     H29258   9.387   4.959   4.888 -0.0975  1.3445  1.1419
  222MOL0     H29259   9.317   4.842   4.770  0.6165  0.6874  1.0119
  222MOL0     H29260   9.106   4.959   4.780 -1.0923  0.5486 -0.1207
  222MOL0     H29261   9.169   5.080   4.894 -2.5449 -1.7939  4.1626
  222MOL0     H29262   9.114   4.792   4.955  0.2478  1.8327 -3.2540
  222MOL0     H29263   9.256   4.867   5.033  0.7841 -0.0104 -1.3948
  222MOL0     H29264   9.104   5.011   5.165  0.4094  0.2487 -1.5917
  222MOL0     H29265   9.080   4.835   5.175  1.4178 -0.4601 -0.4103
  222MOL0     H29266   8.725   4.815   5.194  2.0989 -0.3997  0.0600
  222MOL0     H29267   8.545   4.940   5.315 -0.0538  2.1670  3.6300
  222MOL0     H29268   8.344   5.180   5.624 -2.0973 -0.9707  0.1669
  222MOL0     H29269   8.183   5.335   5.724 -0.5719 -1.2522 -1.1057
  222MOL0     H29270   7.995   5.498   5.766  0.5227 -1.3244  0.4960
  222MOL0     H29271   7.905   5.383   5.670  0.3968 -0.2278  2.0724
  222MOL0     H29272   7.877   5.690   5.674  0.7456 -1.0138 -0.9797
  222MOL0     H29273   7.759   5.563   5.727 -2.1509  2.3025 -0.2492
  222MOL0     H29274   7.727   5.487   5.503  0.5643  0.3475 -0.8144
  222MOL0     H29275   7.844   5.606   5.441  0.5051  0.7355 -0.1413
  222MOL0     H29276   7.594   5.681   5.590 -0.8150 -2.2026 -1.6476
  222MOL0     H29277   7.709   5.797   5.518  0.0632 -0.0445  0.2208
  222MOL0     H29278   7.543   5.576   5.387  3.4615 -2.7739 -2.5609
  222MOL0     H29279   7.658   5.681   5.298  0.0837 -0.5436  0.6289
  222MOL0     H29280   7.415   5.778   5.442  1.3228 -2.6226  0.5248
  222MOL0     H29281   7.407   5.716   5.274 -3.1998 -0.6872  1.4915
  222MOL0     H29282   7.542   5.973   5.368 -1.0907  2.2842 -0.9676
  222MOL0     H29283   7.590   5.895   5.213 -0.3996  0.5776 -1.9180
  222MOL0     H29284   7.380   5.922   5.123 -0.6397  3.5415 -2.6643
  222MOL0     H29285   7.423   6.078   5.181  0.1168 -0.0769  0.4811
  222MOL0     H29286   8.126   5.497   5.313 -1.6962  0.1583 -0.3686
  222MOL0     H29287   8.306   5.354   5.243 -3.8106 -0.4644 -1.9608
  222MOL0     H29288   8.789   5.294   5.299  0.9192 -0.9327  0.1014
  222MOL0     H29289   8.940   5.201   5.165 -1.0273  0.5896 -0.4872
  222MOL0     H29290  10.020   5.813   3.956  0.1003  0.3937  0.0692
  222MOL0     H29291  10.243   5.806   3.830 -1.9970 -0.2385 -0.5040
  222MOL0     H29292  10.710   5.797   3.877 -1.1796  1.2873  0.5239
  222MOL0     H29293  10.939   5.783   3.770 -0.6076  0.2125  2.8031
  222MOL0     H29294  11.087   5.585   3.719 -0.3907 -0.4414 -0.5956
  222MOL0     H29295  11.144   5.738   3.674 -0.2547 -0.5027  0.5061
  222MOL0     H29296  11.251   5.644   3.467  2.7711 -3.7269 -2.1539
  222MOL0     H29297  11.309   5.546   3.617 -2.7826 -3.3416  1.6683
  222MOL0     H29298  11.107   5.484   3.428  1.1746  1.3726 -1.6008
  222MOL0     H29299  11.148   5.375   3.565 -3.0567  0.1236 -1.0663
  222MOL0     H29300  11.223   5.325   3.340 -2.3895  3.3844  0.4290
  222MOL0     H29301  11.328   5.463   3.333 -2.5648  2.1490  1.0867
  222MOL0     H29302  11.566   5.210   3.583 -0.8272 -1.0852  0.4771
  222MOL0     H29303  10.802   5.506   3.477 -0.3210 -0.0883  0.3839
  222MOL0     H29304  10.598   5.482   3.571  1.3683 -2.9258  0.0917
  223MOL0     O29305   2.484   7.158  11.179 -0.2642 -0.8818 -0.4408
  223MOL0     C29306   2.565   7.251  11.166  0.4976  0.3163 -0.2115
  223MOL0     O29307   2.576   7.360  11.247  0.2691 -0.1973 -0.2955
  223MOL0     C29308   2.515   7.345  11.370  0.1634 -0.1445  0.6298
  223MOL0     C29309   2.374   7.337  11.384 -0.7618  0.6996  0.2018
  223MOL0     C29310   2.324   7.295  11.504 -0.0492  0.2588  0.6825
  223MOL0     C29311   2.402   7.294  11.621  0.0043 -0.6194 -0.5934
  223MOL0     O29312   2.338   7.261  11.742  0.0323  0.3015  0.1941
  223MOL0     C29313   2.284   7.381  11.798 -0.3169  0.3071  0.0031
  223MOL0     C29314   2.265   7.372  11.959 -1.0356  0.5936 -0.4574
  223MOL0     C29315   2.175   7.264  11.999 -0.1267  0.3777 -0.3324
  223MOL0     C29316   2.029   7.291  11.951 -0.1073  0.2508 -0.3386
  223MOL0     C29317   1.941   7.180  12.019  0.6184 -0.4116 -0.1473
  223MOL0     C29318   1.793   7.199  11.970  0.3126  0.2234  0.0392
  223MOL0     C29319   1.711   7.073  12.009  0.2683 -0.2918 -0.2700
  223MOL0     C29320   1.573   7.077  11.952  0.5074  0.1302 -0.6918
  223MOL0     N29321   1.482   7.145  12.051  0.4102  0.1734  0.8928
  223MOL0     C29322   1.358   7.102  12.090 -0.1771 -0.4849 -0.5055
  223MOL0     C29323   1.304   7.198  12.168  0.6941 -0.4147  0.8464
  223MOL0     C29324   1.174   7.207  12.241  0.0034 -0.0053 -0.1997
  223MOL0     C29325   1.050   7.169  12.158 -1.0763  0.6144 -0.1072
  223MOL0     C29326   0.917   7.166  12.232  0.3886  0.5885 -0.4815
  223MOL0     C29327   0.785   7.152  12.144 -0.4562  0.3580 -0.6237
  223MOL0     O29328   0.678   7.164  12.241 -0.2535  0.2511  0.3314
  223MOL0     C29329   0.557   7.184  12.188 -0.4814 -0.7331  0.3987
  223MOL0     C29330   0.499   7.311  12.199  0.8924  0.2729 -0.6121
  223MOL0     C29331   0.376   7.334  12.142 -0.2082 -0.3161 -0.3025
  223MOL0     C29332   0.303   7.236  12.078  0.1442 -0.3885 -0.1814
  223MOL0     C29333   0.159   7.257  12.037 -0.3662 -0.3307  0.2622
  223MOL0     O29334   0.099   7.158  11.974 -0.2667  0.8793  0.3629
  223MOL0     C29335  -0.018   7.192  11.909  0.4229 -0.0287  0.1084
  223MOL0     C29336  -0.135   7.211  11.986  0.1435  0.4732  0.0480
  223MOL0     C29337  -0.255   7.241  11.923  0.5868  1.2211  0.0420
  223MOL0     C29338  -0.250   7.254  11.784  0.3434 -0.7978  0.6401
  223MOL0     O29339  -0.368   7.275  11.709  0.6682  0.1847  0.4179
  223MOL0     C29340  -0.493   7.320  11.768 -0.7167  0.9226 -0.3932
  223MOL0     C29341  -0.593   7.396  11.675  0.0061  0.0734  0.9864
  223MOL0     C29342  -0.605   7.335  11.537 -0.4098  0.0912  0.8596
  223MOL0     C29343  -0.732   7.375  11.452 -0.1878  0.5511 -0.8009
  223MOL0     C29344  -0.740   7.309  11.319  0.3365 -1.4369 -1.0572
  223MOL0     C29345  -0.835   7.392  11.231  0.1431 -0.3146  0.7688
  223MOL0     C29346  -0.805   7.350  11.087 -0.6190  0.1480 -0.6973
  223MOL0     C29347  -0.902   7.421  10.992  0.8557  0.7097 -1.0244
  223MOL0    Cl29348  -0.900   7.339  10.842  0.3373 -0.1880  0.5911
  223MOL0     C29349  -0.134   7.245  11.711  0.5209 -0.5359 -1.0378
  223MOL0     C29350  -0.016   7.208  11.773  0.7470 -0.7038 -0.4590
  223MOL0     O29351   0.102   7.360  12.077 -0.0555 -0.3411  0.8297
  223MOL0     C29352   0.362   7.105  12.068 -0.4302 -0.6546  0.5381
  223MOL0     C29353   0.487   7.078  12.130  0.1326  0.0195 -0.0575
  223MOL0     N29354   1.389   7.307  12.168 -0.4753  0.3626 -0.4874
  223MOL0     N29355   1.494   7.271  12.102 -0.5928 -0.4771 -0.2069
  223MOL0     C29356   2.541   7.317  11.615  1.1802  0.9098  0.0014
  223MOL0     C29357   2.598   7.342  11.485  0.4325 -0.3545 -0.1320
  223MOL0     C29358   2.655   7.241  11.045 -0.2905  0.5407 -0.7903
  223MOL0     C29359   2.640   7.133  10.959  0.0973  0.1858  1.0261
  223MOL0     C29360   2.729   7.132  10.852 -0.2507 -0.3272 -0.5996
  223MOL0     C29361   2.832   7.232  10.831 -1.6355 -0.5906 -0.6390
  223MOL0     O29362   2.915   7.230  10.724 -0.0558 -0.3656  0.1213
  223MOL0     C29363   2.889   7.139  10.619  0.4771  0.8061  0.1612
  223MOL0     C29364   2.989   7.148  10.503 -0.2398 -0.5987  0.0582
  223MOL0     C29365   2.964   7.038  10.403 -0.2744  0.7569 -0.1338
  223MOL0     C29366   3.082   7.037  10.303  0.2015  0.6353  0.1035
  223MOL0     C29367   3.044   6.943  10.193 -0.4986 -0.7806 -0.3542
  223MOL0     C29368   3.010   6.866  10.104 -0.5781 -0.8543 -0.4034
  223MOL0     C29369   2.860   7.321  10.926 -0.9429 -0.8939  0.1806
  223MOL0     C29370   2.766   7.332  11.030  0.3379 -0.5989  0.7093
  223MOL0     H29371   2.308   7.356  11.300 -0.4507  1.4991  0.1239
  223MOL0     H29372   2.219   7.274  11.518  0.0453 -0.2882  0.6109
  223MOL0     H29373   2.196   7.415  11.742 -0.7792 -1.5752 -0.4989
  223MOL0     H29374   2.353   7.463  11.777  0.0426  1.2033  3.8140
  223MOL0     H29375   2.238   7.473  11.989 -0.2006  1.9101 -3.7305
  223MOL0     H29376   2.360   7.346  12.008 -2.4776  0.6232  2.5449
  223MOL0     H29377   2.175   7.261  12.108  0.1530  4.0135 -0.1066
  223MOL0     H29378   2.213   7.171  11.956 -2.6411 -0.3801 -1.0337
  223MOL0     H29379   1.997   7.393  11.974 -0.4659  0.1786 -0.5093
  223MOL0     H29380   2.021   7.284  11.842 -0.6675  0.2139 -0.2989
  223MOL0     H29381   1.943   7.195  12.128  1.0923 -0.9748 -0.0736
  223MOL0     H29382   1.977   7.078  11.998  0.2607 -0.9306  1.5697
  223MOL0     H29383   1.787   7.215  11.862 -4.3650  1.9754  0.3451
  223MOL0     H29384   1.745   7.287  12.014  1.3573  0.1606  1.3820
  223MOL0     H29385   1.756   6.980  11.972 -1.1507 -0.5205 -1.5032
  223MOL0     H29386   1.716   7.077  12.118 -0.6671 -0.5485 -0.2144
  223MOL0     H29387   1.536   6.976  11.933 -1.4005  1.2385 -3.5235
  223MOL0     H29388   1.562   7.134  11.859 -0.2828  2.6054  0.8277
  223MOL0     H29389   1.312   7.006  12.070 -2.8690  0.4361  0.6476
  223MOL0     H29390   1.163   7.311  12.274  2.1044 -1.3156  5.9627
  223MOL0     H29391   1.176   7.140  12.327 -0.3603 -2.0674 -1.7364
  223MOL0     H29392   1.068   7.070  12.116  0.3601  0.2200  1.3679
  223MOL0     H29393   1.046   7.242  12.076 -0.0795 -0.4165 -1.1057
  223MOL0     H29394   0.915   7.090  12.309  2.5347  3.1773  2.3861
  223MOL0     H29395   0.909   7.257  12.293  0.4247 -2.1629  4.0490
  223MOL0     H29396   0.787   7.052  12.100  0.5301 -1.3963  2.9549
  223MOL0     H29397   0.770   7.233  12.072 -2.3276 -0.4018 -1.1402
  223MOL0     H29398   0.557   7.388  12.248  2.6667 -0.6555 -1.1523
  223MOL0     H29399   0.344   7.436  12.155  1.9521  0.1904  1.6451
  223MOL0     H29400  -0.135   7.176  12.089 -1.1934  3.9404  1.3825
  223MOL0     H29401  -0.355   7.227  11.960  0.1651  0.6064 -1.2471
  223MOL0     H29402  -0.481   7.382  11.857 -3.4028  2.2549 -0.8599
  223MOL0     H29403  -0.529   7.223  11.805 -0.3140 -0.1280 -2.5428
  223MOL0     H29404  -0.577   7.504  11.672 -2.5798  0.5035 -0.7951
  223MOL0     H29405  -0.687   7.379  11.727  1.1202 -2.4168  2.3932
  223MOL0     H29406  -0.590   7.227  11.535  0.3172  0.1232 -3.0155
  223MOL0     H29407  -0.515   7.370  11.485 -0.4764  1.0472  1.3456
  223MOL0     H29408  -0.819   7.344  11.511  1.4327 -0.2750  1.3106
  223MOL0     H29409  -0.735   7.484  11.457 -0.8377  0.6012 -1.9235
  223MOL0     H29410  -0.776   7.206  11.331 -0.1548 -1.0754  0.9699
  223MOL0     H29411  -0.636   7.304  11.285  1.1837  1.4700  0.7338
  223MOL0     H29412  -0.830   7.501  11.238  1.3613 -0.2164 -0.9946
  223MOL0     H29413  -0.938   7.366  11.258 -0.2566  2.5278  2.2760
  223MOL0     H29414  -0.707   7.386  11.055 -0.6044  2.1331  1.3009
  223MOL0     H29415  -0.807   7.242  11.071 -0.9248  0.3717 -2.3707
  223MOL0     H29416  -0.884   7.526  10.969  1.0977  0.1377 -3.6844
  223MOL0     H29417  -1.000   7.418  11.041  1.2696 -0.9231 -0.2121
  223MOL0     H29418  -0.130   7.257  11.603  1.0381  1.2272 -0.8590
  223MOL0     H29419   0.077   7.193  11.718  1.3098  1.3587 -0.1365
  223MOL0     H29420   0.306   7.024  12.022 -0.5647 -1.3587  1.8854
  223MOL0     H29421   0.523   6.976  12.130 -2.0352 -0.7910  0.6484
  223MOL0     H29422   2.584   7.315  11.715 -1.8532 -2.5292  1.4708
  223MOL0     H29423   2.705   7.356  11.474  0.5712 -0.6533  0.7274
  223MOL0     H29424   2.564   7.056  10.967 -1.2381  0.9750 -2.1216
  223MOL0     H29425   2.708   7.051  10.783 -1.1322  0.4058 -1.2238
  223MOL0     H29426   2.789   7.163  10.583  1.3377  2.0089 -1.6039
  223MOL0     H29427   2.897   7.041  10.666  1.0813  1.4240  1.4056
  223MOL0     H29428   2.988   7.247  10.456  0.9741 -1.3808 -1.7469
  223MOL0     H29429   3.091   7.136  10.540  0.1241  1.5056 -0.1457
  223MOL0     H29430   2.870   7.058  10.351 -0.0005 -1.0797 -1.4363
  223MOL0     H29431   2.952   6.942  10.455 -0.4616  1.4649  1.1639
  223MOL0     H29432   3.089   7.133  10.252  1.5033  0.0194 -0.9506
  223MOL0     H29433   3.179   7.021  10.353  0.1859 -0.1230 -0.0954
  223MOL0     H29434   2.995   6.797  10.023 -1.0452  1.0587 -2.0012
  223MOL0     H29435   2.948   7.382  10.909 -0.7565 -1.6848 -1.9332
  223MOL0     H29436   2.786   7.410  11.102  0.9686  2.0272 -2.0838
  224MOL0     O29437   2.675   5.063   9.338 -0.1983  0.5366  0.1059
  224MOL0     C29438   2.687   4.948   9.375 -0.2533  0.3855  0.0417
  224MOL0     O29439   2.591   4.855   9.388  0.2985 -0.5605 -0.7178
  224MOL0     C29440   2.458   4.875   9.354 -0.0165  0.7953  0.8656
  224MOL0     C29441   2.389   4.773   9.312  0.3872  0.2575  0.2025
  224MOL0     C29442   2.257   4.781   9.273  0.7459 -0.3309 -0.6712
  224MOL0     C29443   2.193   4.906   9.273  0.8782  0.0102  0.2152
  224MOL0     O29444   2.067   4.936   9.223 -0.2374  0.1163  0.5138
  224MOL0     C29445   1.985   4.839   9.173 -0.6772 -0.6391  0.7026
  224MOL0     C29446   1.864   4.894   9.121  0.0469 -1.0824  0.1797
  224MOL0     C29447   1.783   4.794   9.039 -0.0747 -0.7590 -0.3679
  224MOL0     C29448   1.643   4.856   9.022  0.6433  0.4815  1.0767
  224MOL0     C29449   1.563   4.767   8.928  1.1868  0.1319  0.4108
  224MOL0     C29450   1.423   4.813   8.900 -0.2011  0.5179 -0.8452
  224MOL0     C29451   1.345   4.706   8.827 -0.0132 -0.0940 -0.1525
  224MOL0     C29452   1.204   4.691   8.861 -0.1479 -0.5470 -0.3387
  224MOL0     N29453   1.130   4.811   8.814  0.0580 -0.4621  0.8752
  224MOL0     C29454   1.048   4.887   8.887 -1.1356  0.4934  0.7923
  224MOL0     C29455   0.989   4.971   8.798 -0.4490 -0.5514 -0.4333
  224MOL0     C29456   0.905   5.084   8.833  0.0150 -0.0918 -0.8598
  224MOL0     C29457   0.769   5.069   8.758  0.4127 -0.4364  0.0099
  224MOL0     C29458   0.678   5.193   8.774 -0.9501  0.0265  0.0128
  224MOL0     C29459   0.573   5.181   8.662  0.6494 -1.0807 -0.1345
  224MOL0     O29460   0.469   5.284   8.685 -0.4085 -0.1617 -0.6720
  224MOL0     C29461   0.354   5.254   8.749 -0.1444 -0.8650 -0.1782
  224MOL0     C29462   0.243   5.339   8.735  0.2047 -0.2353 -0.1213
  224MOL0     C29463   0.118   5.316   8.790  0.0611 -0.0067  0.1372
  224MOL0     C29464   0.086   5.202   8.867 -0.6157 -0.5084  0.1085
  224MOL0     C29465  -0.051   5.184   8.920  0.6042  1.3394  0.0030
  224MOL0     O29466  -0.151   5.273   8.879  0.3072  0.0654 -0.0223
  224MOL0     C29467  -0.289   5.267   8.893 -0.6989  1.0078  0.5122
  224MOL0     C29468  -0.364   5.172   8.962 -0.0422  0.0822  0.5303
  224MOL0     C29469  -0.504   5.178   8.955  0.0232  0.2207 -0.5428
  224MOL0     C29470  -0.562   5.287   8.898 -0.1134 -0.5456 -0.6758
  224MOL0     O29471  -0.696   5.302   8.920 -0.5197 -0.1266 -0.1413
  224MOL0     C29472  -0.778   5.389   8.835 -0.2334 -0.3382 -0.2170
  224MOL0     C29473  -0.924   5.376   8.890  0.3850 -0.2112  0.0641
  224MOL0     C29474  -1.027   5.357   8.774 -0.8729 -1.2728  0.3332
  224MOL0     C29475  -1.177   5.351   8.824  0.0303  0.2415 -0.1129
  224MOL0     C29476  -1.260   5.373   8.700  0.3357 -0.4889 -0.4481
  224MOL0     C29477  -1.414   5.356   8.734  0.4781  0.2657  0.2190
  224MOL0     C29478  -1.454   5.203   8.738  0.5442 -0.1171 -0.7469
  224MOL0     C29479  -1.588   5.175   8.814  0.4621  0.0890  0.3812
  224MOL0    Cl29480  -1.583   5.224   8.983 -0.6379 -0.1811  0.2585
  224MOL0     C29481  -0.489   5.388   8.838 -0.5644 -0.1555  0.2580
  224MOL0     C29482  -0.349   5.373   8.836 -1.8003 -0.4351  0.3429
  224MOL0     O29483  -0.074   5.083   8.991 -1.4351  0.4691 -0.4481
  224MOL0     C29484   0.196   5.118   8.890 -0.4833  1.2104  0.1157
  224MOL0     C29485   0.324   5.139   8.825 -0.6679 -0.0168  1.1067
  224MOL0     N29486   1.032   4.943   8.668 -0.3967 -0.5872  0.0969
  224MOL0     N29487   1.117   4.850   8.680  0.7524 -0.5767 -0.4028
  224MOL0     C29488   2.264   5.014   9.329 -0.1069  0.2503  0.2022
  224MOL0     C29489   2.393   4.998   9.370  0.2257 -0.1052  0.5437
  224MOL0     C29490   2.823   4.915   9.421 -0.0196  0.0126  0.1525
  224MOL0     C29491   2.884   4.794   9.406  0.0985 -0.0155 -0.3440
  224MOL0     C29492   3.010   4.764   9.454  1.0561 -0.0971  0.3947
  224MOL0     C29493   3.084   4.872   9.507 -0.4919  0.2317 -0.9783
  224MOL0     O29494   3.202   4.832   9.567 -0.7681 -0.8965  0.7388
  224MOL0     C29495   3.277   4.924   9.650 -0.2237  0.0855  0.8024
  224MOL0     C29496   3.383   4.848   9.717  0.2515  0.4703 -0.3985
  224MOL0     C29497   3.493   4.775   9.635 -0.2909 -0.2689  0.1960
  224MOL0     C29498   3.575   4.858   9.534 -0.1706 -0.1631 -0.1126
  224MOL0     C29499   3.685   4.921   9.601  0.7636 -0.3343  0.5766
  224MOL0     C29500   3.778   4.980   9.644 -0.6519 -1.1833  0.3873
  224MOL0     C29501   3.037   5.005   9.514  0.0234 -0.1104 -0.8845
  224MOL0     C29502   2.907   5.026   9.471 -0.0430  0.2145 -0.8359
  224MOL0     H29503   2.426   4.672   9.306 -0.0361  0.1684 -1.4180
  224MOL0     H29504   2.195   4.698   9.240 -0.8319  1.2040 -1.7558
  224MOL0     H29505   1.974   4.757   9.245 -1.2768 -1.5611 -0.4104
  224MOL0     H29506   2.040   4.799   9.087  2.3944  0.7177  1.8778
  224MOL0     H29507   1.892   4.979   9.057  5.5875 -1.1116  2.0713
  224MOL0     H29508   1.816   4.941   9.207  1.8182  2.7149 -0.6911
  224MOL0     H29509   1.777   4.700   9.095 -0.4277  0.2921  1.4502
  224MOL0     H29510   1.830   4.761   8.946  0.8166 -2.3667  0.6148
  224MOL0     H29511   1.602   4.863   9.123  0.7805 -0.3795  1.2013
  224MOL0     H29512   1.656   4.956   8.979  3.6433 -0.5638 -0.7483
  224MOL0     H29513   1.560   4.661   8.956 -3.2057 -0.4019 -1.3060
  224MOL0     H29514   1.615   4.781   8.832  0.0459  2.9326  0.1091
  224MOL0     H29515   1.424   4.906   8.843 -1.2356  1.5454  0.7196
  224MOL0     H29516   1.385   4.838   9.000  3.5204 -4.0138  2.1648
  224MOL0     H29517   1.360   4.726   8.721 -2.4392  1.1018 -0.3364
  224MOL0     H29518   1.385   4.608   8.856  0.4778  0.3669  0.7559
  224MOL0     H29519   1.202   4.687   8.970  3.1323  0.1513 -0.1615
  224MOL0     H29520   1.157   4.601   8.821  0.5172 -0.4068 -1.4656
  224MOL0     H29521   1.035   4.883   8.995 -2.7574 -1.5685  0.5935
  224MOL0     H29522   0.952   5.181   8.814  0.4208  0.3281  1.8976
  224MOL0     H29523   0.872   5.083   8.937  1.2446 -0.8518 -0.4577
  224MOL0     H29524   0.714   4.986   8.804 -2.2104  2.1310  1.8582
  224MOL0     H29525   0.797   5.047   8.655 -1.5104  0.0986 -0.6619
  224MOL0     H29526   0.630   5.204   8.871  1.0934  0.3147  1.0579
  224MOL0     H29527   0.737   5.283   8.755 -0.3395  0.0319  1.7452
  224MOL0     H29528   0.538   5.077   8.662 -2.7606 -0.0562  1.0710
  224MOL0     H29529   0.622   5.196   8.566  3.1509 -0.9623  1.0753
  224MOL0     H29530   0.272   5.423   8.673  1.9375  1.1327  2.3378
  224MOL0     H29531   0.031   5.371   8.756 -0.4655 -2.1695 -2.4100
  224MOL0     H29532  -0.312   5.086   9.002  2.1350  1.3904  0.6854
  224MOL0     H29533  -0.560   5.101   9.007  1.3545 -1.1190 -1.0251
  224MOL0     H29534  -0.773   5.365   8.728 -2.3854 -1.2703 -0.1455
  224MOL0     H29535  -0.749   5.493   8.854 -0.6486 -0.0572 -1.0954
  224MOL0     H29536  -0.947   5.469   8.943 -4.2683 -1.2335  0.2142
  224MOL0     H29537  -0.940   5.288   8.952 -0.2797 -1.5926 -1.9740
  224MOL0     H29538  -1.003   5.266   8.719 -0.8379 -1.0380 -0.0510
  224MOL0     H29539  -1.023   5.449   8.715 -4.3990 -1.5728 -0.5915
  224MOL0     H29540  -1.206   5.257   8.873 -1.1595 -0.0758 -1.3484
  224MOL0     H29541  -1.197   5.433   8.894  0.9427  1.1307 -0.8623
  224MOL0     H29542  -1.240   5.296   8.625  0.0403  0.0621 -1.0991
  224MOL0     H29543  -1.236   5.465   8.647 -2.5768 -0.8262 -2.6282
  224MOL0     H29544  -1.466   5.412   8.656  1.1312  2.4932  1.2790
  224MOL0     H29545  -1.429   5.395   8.835  0.3530  1.8334 -0.3783
  224MOL0     H29546  -1.454   5.160   8.637  5.0885  0.2612 -1.1048
  224MOL0     H29547  -1.380   5.140   8.787  0.2978 -0.2999 -0.6032
  224MOL0     H29548  -1.607   5.068   8.805  1.0135  0.0983 -1.0365
  224MOL0     H29549  -1.670   5.233   8.770 -0.6380 -1.7256 -0.0803
  224MOL0     H29550  -0.540   5.482   8.820  1.7121  0.9744 -0.8088
  224MOL0     H29551  -0.306   5.458   8.785 -2.3140 -0.1391  0.4002
  224MOL0     H29552   0.186   5.026   8.947 -1.5193  1.5625  0.5265
  224MOL0     H29553   0.404   5.067   8.835  0.1549  0.5829 -0.8355
  224MOL0     H29554   2.213   5.110   9.328 -1.3488 -0.2540  3.5794
  224MOL0     H29555   2.451   5.085   9.400 -1.0087  0.3280  1.7294
  224MOL0     H29556   2.824   4.715   9.363 -0.5055  1.5326 -2.5299
  224MOL0     H29557   3.056   4.666   9.448 -1.1949 -1.1621 -0.7162
  224MOL0     H29558   3.216   4.985   9.716 -0.8474  3.1263 -2.3150
  224MOL0     H29559   3.329   4.999   9.590 -3.4960  0.3793 -1.9376
  224MOL0     H29560   3.429   4.913   9.792  1.5112 -1.6943  0.8501
  224MOL0     H29561   3.325   4.774   9.774  4.3953 -2.2974  0.6944
  224MOL0     H29562   3.454   4.694   9.573  0.0189 -1.6346  1.7426
  224MOL0     H29563   3.557   4.732   9.712 -1.5103  0.1466  1.4757
  224MOL0     H29564   3.623   4.788   9.466  3.3781  0.9488  1.0229
  224MOL0     H29565   3.508   4.920   9.474 -2.1713  0.0510  2.1891
  224MOL0     H29566   3.858   5.026   9.698 -1.5490  1.6076 -0.4905
  224MOL0     H29567   3.088   5.092   9.554 -0.9618 -0.0719  0.3492
  224MOL0     H29568   2.864   5.125   9.480 -2.9363 -1.1601  3.5078
  225MOL0     O29569   3.923   7.770   1.479 -0.3237 -0.6596 -0.8306
  225MOL0     C29570   4.016   7.841   1.505 -0.5962 -0.2195  0.0781
  225MOL0     O29571   4.005   7.959   1.577  0.5119 -0.0369 -1.2506
  225MOL0     C29572   3.883   8.001   1.621  0.2565  0.2852 -0.8170
  225MOL0     C29573   3.865   8.024   1.759 -0.0608  0.5844  0.0932
  225MOL0     C29574   3.756   8.090   1.809 -0.9482 -0.4630  0.0667
  225MOL0     C29575   3.655   8.129   1.726  0.2535  0.7157  0.4638
  225MOL0     O29576   3.540   8.185   1.781 -0.3022 -0.5327  0.1737
  225MOL0     C29577   3.408   8.158   1.721 -0.3091  0.3219  0.3502
  225MOL0     C29578   3.300   8.172   1.834 -0.6568 -0.2734 -0.0104
  225MOL0     C29579   3.274   8.319   1.857 -0.3745  0.4270  0.0256
  225MOL0     C29580   3.179   8.398   1.763 -0.1105  0.0462  0.1755
  225MOL0     C29581   3.042   8.341   1.775  0.3492 -0.3623 -0.1439
  225MOL0     C29582   2.929   8.451   1.767  0.1926 -0.8152 -0.1459
  225MOL0     C29583   2.930   8.497   1.620  1.0870  0.7742  0.3722
  225MOL0     C29584   2.884   8.641   1.607  0.0094 -0.5508  0.9252
  225MOL0     N29585   2.768   8.670   1.682  0.0795  1.1070 -0.4548
  225MOL0     C29586   2.752   8.719   1.806 -0.0105  0.1754 -0.1725
  225MOL0     C29587   2.621   8.730   1.831 -0.1835 -0.2579 -0.0692
  225MOL0     C29588   2.569   8.802   1.955 -0.0963 -0.3906 -0.0209
  225MOL0     C29589   2.446   8.739   2.016  0.4967  0.1699  0.6957
  225MOL0     C29590   2.389   8.833   2.119 -0.2787  0.8933  0.3425
  225MOL0     C29591   2.254   8.793   2.174  0.3170  0.2224 -0.0871
  225MOL0     O29592   2.265   8.844   2.311  0.6794  0.1492  0.3761
  225MOL0     C29593   2.168   8.800   2.399  0.0220  0.4697  0.2090
  225MOL0     C29594   2.166   8.860   2.521  0.4489  0.5270 -0.9907
  225MOL0     C29595   2.083   8.810   2.622 -0.8832  0.1983 -0.2648
  225MOL0     C29596   1.991   8.707   2.603  0.6856  0.3193 -0.3724
  225MOL0     C29597   1.890   8.681   2.707 -0.3010  0.2079  0.4783
  225MOL0     O29598   1.780   8.621   2.662 -0.8253 -0.2633  0.4996
  225MOL0     C29599   1.673   8.597   2.736  0.1640  0.1416  0.0829
  225MOL0     C29600   1.553   8.611   2.673  0.0620  0.6920 -0.2574
  225MOL0     C29601   1.435   8.559   2.729  0.0636  0.2778  0.7665
  225MOL0     C29602   1.431   8.502   2.853 -0.0969  0.6898  0.0689
  225MOL0     O29603   1.305   8.480   2.904  1.0550  0.4292  0.0259
  225MOL0     C29604   1.276   8.373   2.992 -0.0888 -0.4075 -0.6380
  225MOL0     C29605   1.169   8.419   3.101  0.4684 -0.3497  0.0094
  225MOL0     C29606   1.222   8.524   3.195  0.1905 -0.5705 -0.2520
  225MOL0     C29607   1.122   8.557   3.315 -0.2396  0.4945 -0.0274
  225MOL0     C29608   1.147   8.700   3.373  0.4984 -0.5746  0.5072
  225MOL0     C29609   1.264   8.688   3.474  0.1220 -0.4254  0.3932
  225MOL0     C29610   1.371   8.802   3.455 -0.3763  1.0995  0.6162
  225MOL0     C29611   1.445   8.790   3.320  1.0408  0.1249 -0.1070
  225MOL0    Cl29612   1.588   8.894   3.303  0.0509  0.1908 -0.3438
  225MOL0     C29613   1.554   8.487   2.925  0.0309 -0.6370  0.0408
  225MOL0     C29614   1.668   8.522   2.863  0.2431 -0.2152 -0.4948
  225MOL0     O29615   1.916   8.721   2.816  0.0969 -0.2536  0.2814
  225MOL0     C29616   1.985   8.654   2.479 -0.1590 -0.0973  0.3400
  225MOL0     C29617   2.072   8.693   2.376 -0.9472 -0.1539  0.0623
  225MOL0     N29618   2.549   8.689   1.722  0.6975  0.0398 -0.4990
  225MOL0     N29619   2.641   8.662   1.632  0.2557 -0.4531 -0.2083
  225MOL0     C29620   3.658   8.094   1.595 -0.5279  0.2019 -0.5299
  225MOL0     C29621   3.772   8.034   1.540 -0.5098  0.3828  0.1164
  225MOL0     C29622   4.140   7.811   1.442 -0.5104 -0.7638  0.6586
  225MOL0     C29623   4.167   7.698   1.363 -0.4122  0.0137 -0.3778
  225MOL0     C29624   4.284   7.675   1.297 -1.1626  0.4518 -0.9377
  225MOL0     C29625   4.385   7.770   1.299  0.4309 -0.9060 -0.3224
  225MOL0     O29626   4.495   7.749   1.214  0.6007  0.2492  0.1766
  225MOL0     C29627   4.611   7.832   1.237  0.0633 -0.8072 -0.1256
  225MOL0     C29628   4.721   7.734   1.199  0.5555  0.4574 -0.3627
  225MOL0     C29629   4.865   7.792   1.204  0.5793  0.3332  0.4682
  225MOL0     C29630   4.966   7.678   1.161  0.0130  0.5929  0.0831
  225MOL0     C29631   5.098   7.728   1.139 -0.0742  0.0895  0.4327
  225MOL0     C29632   5.211   7.782   1.120  0.4334  0.3682  0.1768
  225MOL0     C29633   4.366   7.886   1.378 -0.5348  0.2379 -0.8211
  225MOL0     C29634   4.252   7.897   1.455 -0.4361  0.1578  0.6759
  225MOL0     H29635   3.939   7.981   1.826 -0.1731  0.4176  0.1104
  225MOL0     H29636   3.749   8.099   1.917 -0.1054  1.0762  0.0159
  225MOL0     H29637   3.388   8.057   1.684 -0.9241 -0.0410  1.6037
  225MOL0     H29638   3.395   8.237   1.647  3.3698  0.6943 -0.1041
  225MOL0     H29639   3.324   8.117   1.925 -2.3740 -0.0836  0.6123
  225MOL0     H29640   3.205   8.132   1.797  0.6993 -0.7645 -3.2182
  225MOL0     H29641   3.368   8.373   1.870  0.6180 -0.9391 -1.1648
  225MOL0     H29642   3.230   8.330   1.957  0.6616  0.0522  0.5380
  225MOL0     H29643   3.177   8.500   1.802 -2.2178 -0.5413  1.8043
  225MOL0     H29644   3.223   8.408   1.663  1.0488  3.6363  0.8904
  225MOL0     H29645   3.024   8.296   1.874  3.7455 -1.8995 -0.0956
  225MOL0     H29646   3.027   8.266   1.697  1.8095  1.4782 -2.3145
  225MOL0     H29647   2.946   8.527   1.844  1.8422 -2.5879  1.3562
  225MOL0     H29648   2.831   8.409   1.790 -1.3060  0.4051 -3.6367
  225MOL0     H29649   3.029   8.487   1.574  1.5310 -1.8630  1.6665
  225MOL0     H29650   2.868   8.432   1.557  2.3934  2.1970 -2.5713
  225MOL0     H29651   2.870   8.671   1.502 -1.9185  0.7800  1.5050
  225MOL0     H29652   2.959   8.712   1.643 -1.4244  2.3225 -1.2977
  225MOL0     H29653   2.832   8.749   1.872 -0.4130  2.0710 -0.4803
  225MOL0     H29654   2.543   8.906   1.932  2.6131  0.3790  0.0478
  225MOL0     H29655   2.652   8.808   2.025  1.4553  0.6881 -1.8789
  225MOL0     H29656   2.480   8.642   2.052  2.5416  0.0478 -1.3651
  225MOL0     H29657   2.377   8.716   1.934  1.3679 -4.2041  0.9854
  225MOL0     H29658   2.459   8.839   2.203 -0.5325  0.5970  0.5773
  225MOL0     H29659   2.374   8.931   2.072 -1.1286 -0.1142 -1.5830
  225MOL0     H29660   2.254   8.684   2.171  2.4311  0.1897 -0.2508
  225MOL0     H29661   2.175   8.844   2.118  0.2262 -0.9755 -1.1109
  225MOL0     H29662   2.232   8.943   2.543 -1.5556  1.4603  2.2299
  225MOL0     H29663   2.087   8.863   2.716  1.8749 -0.5289  0.1199
  225MOL0     H29664   1.554   8.639   2.569 -1.5040  1.8408  0.0065
  225MOL0     H29665   1.348   8.545   2.666  0.7918 -0.9986 -0.0084
  225MOL0     H29666   1.362   8.340   3.050 -1.9843 -1.5202  1.7294
  225MOL0     H29667   1.240   8.288   2.933 -0.3496  0.0168 -1.1012
  225MOL0     H29668   1.152   8.329   3.160  2.9796 -0.8779  0.0135
  225MOL0     H29669   1.072   8.446   3.058 -0.8319 -1.3419  2.1878
  225MOL0     H29670   1.240   8.608   3.127  1.0694 -0.3978  0.1837
  225MOL0     H29671   1.323   8.497   3.226  0.2050  0.2329  0.4094
  225MOL0     H29672   1.018   8.567   3.282 -0.5348  1.7241  1.1679
  225MOL0     H29673   1.122   8.479   3.392 -0.9518 -1.7426 -2.1694
  225MOL0     H29674   1.058   8.734   3.428  1.3474  0.9237  1.0142
  225MOL0     H29675   1.169   8.764   3.287 -3.1791  0.2883  0.0325
  225MOL0     H29676   1.305   8.588   3.460 -0.2194 -0.5158 -0.0090
  225MOL0     H29677   1.228   8.687   3.577  0.8364 -0.0508  0.6546
  225MOL0     H29678   1.320   8.898   3.458 -2.5104  0.0276  0.6812
  225MOL0     H29679   1.440   8.790   3.538  0.6900  2.6161 -0.0181
  225MOL0     H29680   1.373   8.829   3.247 -0.7387  0.8018  1.9103
  225MOL0     H29681   1.470   8.685   3.304  2.0666 -0.1448  2.6794
  225MOL0     H29682   1.551   8.449   3.027  0.7324  1.6088  0.9768
  225MOL0     H29683   1.764   8.504   2.910  0.0338  1.1528  0.4913
  225MOL0     H29684   1.924   8.568   2.456 -1.3977 -0.3021  3.7852
  225MOL0     H29685   2.062   8.640   2.282  2.8191 -0.2977 -0.4164
  225MOL0     H29686   3.576   8.135   1.537  0.7140  0.9080 -1.8354
  225MOL0     H29687   3.776   8.028   1.431  2.8870  1.9914  0.0433
  225MOL0     H29688   4.091   7.620   1.365 -1.3414  0.8622 -1.7234
  225MOL0     H29689   4.307   7.576   1.258  0.6200 -1.0398  3.2335
  225MOL0     H29690   4.618   7.865   1.341 -2.2136 -1.1193  0.1812
  225MOL0     H29691   4.610   7.924   1.178 -0.1958  0.3627  1.6191
  225MOL0     H29692   4.716   7.652   1.271 -4.3207 -0.1748 -1.0573
  225MOL0     H29693   4.681   7.702   1.102  0.9652  1.0474 -0.7350
  225MOL0     H29694   4.900   7.841   1.295  0.2217 -2.4482  2.2079
  225MOL0     H29695   4.864   7.864   1.122  0.6685 -1.3967 -1.1188
  225MOL0     H29696   4.981   7.601   1.238  0.1745 -0.0461 -0.5739
  225MOL0     H29697   4.932   7.625   1.072 -2.7977  0.6863  0.9984
  225MOL0     H29698   5.305   7.831   1.104  1.0626 -0.5503  0.9575
  225MOL0     H29699   4.443   7.962   1.379  1.4454 -1.6503  0.6038
  225MOL0     H29700   4.245   7.985   1.518 -2.2140  0.0675  0.6594
  226MOL0     O29701   0.452   0.317   6.994 -0.6451  0.3286 -0.0676
  226MOL0     C29702   0.495   0.257   7.096  0.6894  0.1165 -0.7779
  226MOL0     O29703   0.428   0.167   7.171 -0.2230 -0.1035  0.4795
  226MOL0     C29704   0.322   0.096   7.116  0.8364  0.1719  0.4788
  226MOL0     C29705   0.260   0.004   7.202 -0.0545 -0.1986 -0.1617
  226MOL0     C29706   0.168  -0.089   7.158  0.1301  0.1922 -0.2828
  226MOL0     C29707   0.111  -0.073   7.026 -0.0671 -0.1622  0.0191
  226MOL0     O29708  -0.000  -0.139   6.979  0.1239 -0.8270  0.8148
  226MOL0     C29709  -0.060  -0.246   7.052 -0.0001 -0.3197 -0.4659
  226MOL0     C29710  -0.176  -0.195   7.139  0.4938 -0.7419 -0.7973
  226MOL0     C29711  -0.303  -0.212   7.045  0.0574 -0.2664 -0.4650
  226MOL0     C29712  -0.435  -0.172   7.104  0.5280  0.2647  0.1872
  226MOL0     C29713  -0.555  -0.175   7.001  0.4933  0.0939  0.8854
  226MOL0     C29714  -0.543  -0.072   6.885 -0.3849 -0.4820 -0.7004
  226MOL0     C29715  -0.686  -0.033   6.837 -0.1085  0.6344  0.3804
  226MOL0     C29716  -0.687   0.095   6.749  0.3947  0.0907 -0.8707
  226MOL0     N29717  -0.825   0.140   6.714  0.9868 -0.5660 -0.9638
  226MOL0     C29718  -0.871   0.150   6.585  0.3561 -0.9877 -0.0071
  226MOL0     C29719  -1.004   0.151   6.586 -0.0341  0.0572 -0.1808
  226MOL0     C29720  -1.092   0.174   6.465  0.3712  0.1228  0.0402
  226MOL0     C29721  -1.213   0.257   6.481 -0.4727  0.8723 -0.8901
  226MOL0     C29722  -1.336   0.211   6.392  0.2391 -0.0583  0.4265
  226MOL0     C29723  -1.384   0.065   6.414 -0.7335 -0.1999  1.0730
  226MOL0     O29724  -1.454   0.056   6.536 -0.0209  0.1412  0.0901
  226MOL0     C29725  -1.546  -0.053   6.525  0.9568 -0.5720 -0.2021
  226MOL0     C29726  -1.676  -0.021   6.563  0.1318 -0.4865  0.3039
  226MOL0     C29727  -1.772  -0.129   6.567 -0.4069  0.9180  0.4294
  226MOL0     C29728  -1.737  -0.269   6.541  1.1948 -0.4567 -0.1388
  226MOL0     C29729  -1.832  -0.377   6.556  0.5062 -0.6592 -0.0845
  226MOL0     O29730  -1.783  -0.499   6.538  0.4422  0.3764  0.8088
  226MOL0     C29731  -1.836  -0.607   6.606 -0.0399 -1.1393 -0.0152
  226MOL0     C29732  -1.824  -0.732   6.538  1.0286  0.4146 -0.4150
  226MOL0     C29733  -1.865  -0.844   6.608 -0.0502  0.9119  0.5754
  226MOL0     C29734  -1.916  -0.846   6.733  0.4884 -0.5106 -0.1481
  226MOL0     O29735  -1.933  -0.955   6.811 -0.0885 -0.8557  0.2177
  226MOL0     C29736  -2.040  -1.036   6.755  0.2590 -0.1719 -1.0599
  226MOL0     C29737  -2.105  -1.125   6.858 -0.5553  0.2004  0.5732
  226MOL0     C29738  -2.200  -1.228   6.790  0.3089  0.0963  0.6863
  226MOL0     C29739  -2.259  -1.317   6.899  0.2988  0.0646 -0.6683
  226MOL0     C29740  -2.163  -1.402   6.991  0.5143 -0.3327  0.1208
  226MOL0     C29741  -2.045  -1.471   6.923  0.2355  0.0258  0.7648
  226MOL0     C29742  -2.089  -1.583   6.826 -0.0052 -0.0735 -0.7930
  226MOL0     C29743  -1.967  -1.680   6.799  0.7160  0.4220  0.3435
  226MOL0    Cl29744  -1.854  -1.722   6.929 -0.2033 -0.0464 -0.6592
  226MOL0     C29745  -1.919  -0.720   6.802 -0.1601  1.0089  0.5720
  226MOL0     C29746  -1.885  -0.602   6.743 -0.1436  0.3224  0.7288
  226MOL0     O29747  -1.944  -0.353   6.596  0.2657  0.4571 -0.0199
  226MOL0     C29748  -1.605  -0.295   6.501  0.2422  0.2954 -0.3964
  226MOL0     C29749  -1.516  -0.187   6.499  0.6519  0.5237 -0.4027
  226MOL0     N29750  -1.043   0.150   6.713 -0.2719  0.2694  0.2218
  226MOL0     N29751  -0.942   0.140   6.793 -0.4198 -0.2522 -0.2013
  226MOL0     C29752   0.161   0.020   6.948  0.0083 -1.0267 -0.4649
  226MOL0     C29753   0.276   0.096   6.989  0.5119  0.3439  0.9419
  226MOL0     C29754   0.635   0.293   7.144  0.5948  1.1574 -0.6222
  226MOL0     C29755   0.707   0.385   7.077 -0.1008 -0.4679  0.3151
  226MOL0     C29756   0.830   0.422   7.120  0.4970 -0.0721 -0.3428
  226MOL0     C29757   0.875   0.388   7.250  0.2433 -0.0896  0.5771
  226MOL0     O29758   0.996   0.434   7.307  1.0222  0.3862  0.1906
  226MOL0     C29759   1.095   0.334   7.323 -0.3259  0.2967 -0.4395
  226MOL0     C29760   1.217   0.373   7.232  0.2651 -0.2021  0.1522
  226MOL0     C29761   1.177   0.386   7.085 -0.0706 -0.6637  0.2321
  226MOL0     C29762   1.289   0.405   6.986  0.2481  0.2687  0.6751
  226MOL0     C29763   1.227   0.432   6.855 -0.2856 -0.8655 -0.1264
  226MOL0     C29764   1.192   0.464   6.741  0.1597 -0.4867  0.3311
  226MOL0     C29765   0.806   0.296   7.317  0.2705 -0.0889  0.6297
  226MOL0     C29766   0.684   0.247   7.273  0.5723  0.0946 -0.2518
  226MOL0     H29767   0.299  -0.014   7.302 -0.7893 -1.0058 -0.0117
  226MOL0     H29768   0.135  -0.149   7.242  1.0819 -0.2763 -0.2362
  226MOL0     H29769   0.018  -0.301   7.106  0.9724 -0.8870 -2.3554
  226MOL0     H29770  -0.079  -0.334   6.990  2.8622 -0.5357 -1.1920
  226MOL0     H29771  -0.162  -0.089   7.162 -0.6821 -0.3147 -1.8796
  226MOL0     H29772  -0.186  -0.258   7.228  0.5517 -1.1045 -1.0447
  226MOL0     H29773  -0.308  -0.320   7.031  1.1087 -0.6618  1.7084
  226MOL0     H29774  -0.297  -0.169   6.945  0.6904 -0.6322 -0.5912
  226MOL0     H29775  -0.457  -0.239   7.188  0.2762  1.4478  1.0884
  226MOL0     H29776  -0.425  -0.073   7.149 -0.1948  1.3015 -1.8175
  226MOL0     H29777  -0.647  -0.163   7.059 -0.2893  0.0484 -0.3137
  226MOL0     H29778  -0.563  -0.273   6.951  1.1173  0.6954 -0.4551
  226MOL0     H29779  -0.483  -0.103   6.799  1.3040  3.0526 -0.9909
  226MOL0     H29780  -0.490   0.016   6.923 -1.1091 -1.3157  2.5343
  226MOL0     H29781  -0.725  -0.106   6.766  2.2927 -0.1546 -0.2401
  226MOL0     H29782  -0.748  -0.026   6.926  1.2738 -0.1026  1.4417
  226MOL0     H29783  -0.626   0.074   6.661  1.7832 -1.1153  0.3426
  226MOL0     H29784  -0.638   0.186   6.786  1.6921 -0.5598 -0.9664
  226MOL0     H29785  -0.822   0.182   6.493 -1.7632  0.4887 -0.6940
  226MOL0     H29786  -1.118   0.071   6.441 -0.5639  0.2237  0.5688
  226MOL0     H29787  -1.035   0.222   6.384 -0.4983  2.1355  0.5551
  226MOL0     H29788  -1.189   0.358   6.449 -1.4309  0.8049 -1.8493
  226MOL0     H29789  -1.232   0.261   6.589 -1.7489  2.5659 -1.1406
  226MOL0     H29790  -1.423   0.271   6.421  0.2164  1.7360 -2.8603
  226MOL0     H29791  -1.312   0.222   6.286  4.2983  3.0405  1.4002
  226MOL0     H29792  -1.308  -0.012   6.399 -0.6639  0.0958 -0.2474
  226MOL0     H29793  -1.442   0.046   6.323  2.2954 -1.4284 -0.7646
  226MOL0     H29794  -1.713   0.077   6.588  0.8022  0.1532 -1.0827
  226MOL0     H29795  -1.874  -0.108   6.595  0.1335  0.1196  3.3702
  226MOL0     H29796  -1.776  -0.749   6.443  2.1217 -2.3854  0.5289
  226MOL0     H29797  -1.836  -0.942   6.570  0.0747  0.9986  0.4484
  226MOL0     H29798  -2.000  -1.099   6.675 -2.0694  0.9962 -3.2982
  226MOL0     H29799  -2.113  -0.968   6.710 -0.2825  0.9058  1.3173
  226MOL0     H29800  -2.164  -1.063   6.925 -0.3590 -2.0506  2.9788
  226MOL0     H29801  -2.024  -1.170   6.916  0.4255  0.8885 -0.2166
  226MOL0     H29802  -2.160  -1.289   6.708 -0.8961  0.1904  0.0134
  226MOL0     H29803  -2.269  -1.160   6.741  0.7234  0.3435  0.4363
  226MOL0     H29804  -2.323  -1.250   6.956 -0.0953  1.3801 -2.5856
  226MOL0     H29805  -2.319  -1.385   6.838  1.9964 -1.0448 -1.1629
  226MOL0     H29806  -2.226  -1.469   7.051 -3.4753  2.0588 -0.9836
  226MOL0     H29807  -2.119  -1.327   7.057 -0.0338  2.4110 -2.4112
  226MOL0     H29808  -1.980  -1.506   7.004 -0.9280  0.5900  1.9898
  226MOL0     H29809  -1.988  -1.402   6.862  0.9006  1.4373  2.8565
  226MOL0     H29810  -2.162  -1.644   6.879  0.7535 -0.1525  0.1981
  226MOL0     H29811  -2.124  -1.552   6.727  2.9333 -1.8961 -2.5445
  226MOL0     H29812  -1.901  -1.648   6.718 -1.2435  1.0743 -1.0743
  226MOL0     H29813  -2.014  -1.773   6.766  0.0498 -0.7569  4.0848
  226MOL0     H29814  -1.952  -0.724   6.905  0.9991 -1.7313  0.9215
  226MOL0     H29815  -1.891  -0.511   6.802 -0.7140  0.6078  0.2417
  226MOL0     H29816  -1.575  -0.395   6.473 -0.7057  0.2961 -1.5062
  226MOL0     H29817  -1.410  -0.204   6.480  0.9464  3.1742 -1.5261
  226MOL0     H29818   0.126   0.035   6.847 -1.3148 -3.1231 -0.3729
  226MOL0     H29819   0.322   0.154   6.909  0.3747 -0.2170  0.4467
  226MOL0     H29820   0.673   0.428   6.983 -0.0987  0.9549  0.9450
  226MOL0     H29821   0.896   0.497   7.078  2.4034 -1.3964  0.1686
  226MOL0     H29822   1.055   0.239   7.285  4.9454 -1.5065 -2.3801
  226MOL0     H29823   1.144   0.317   7.420  1.5417 -3.0693 -1.7944
  226MOL0     H29824   1.258   0.468   7.269  1.8560 -0.2894 -1.2707
  226MOL0     H29825   1.290   0.293   7.247  2.2436  1.2424 -1.1900
  226MOL0     H29826   1.107   0.467   7.062  0.2293 -1.1167 -2.6776
  226MOL0     H29827   1.121   0.295   7.064  0.2872 -0.8193 -0.0583
  226MOL0     H29828   1.349   0.491   7.015  0.9190  0.3247 -0.8006
  226MOL0     H29829   1.350   0.314   6.993 -0.1218 -0.2613 -1.9979
  226MOL0     H29830   1.161   0.481   6.640  1.1377  0.0947  0.1171
  226MOL0     H29831   0.839   0.258   7.414 -1.2354 -0.1029  1.1632
  226MOL0     H29832   0.639   0.173   7.339  0.8896 -1.0727 -1.2886
  227MOL0     O29833   8.083   2.135   7.011  0.1815  0.0613  0.0138
  227MOL0     C29834   8.103   2.115   6.892 -0.4772  0.1606 -0.0406
  227MOL0     O29835   8.019   2.149   6.793 -0.5759 -0.0552 -0.4950
  227MOL0     C29836   7.892   2.181   6.824 -0.3946  0.0722  0.9203
  227MOL0     C29837   7.803   2.094   6.885 -0.2713 -0.1323 -1.1182
  227MOL0     C29838   7.663   2.118   6.902  0.3497  0.4505 -0.2289
  227MOL0     C29839   7.611   2.236   6.857  0.3506  0.4597 -0.7434
  227MOL0     O29840   7.481   2.279   6.873 -0.7165 -0.1578 -0.6584
  227MOL0     C29841   7.396   2.203   6.956 -0.4154  0.0893  0.6611
  227MOL0     C29842   7.261   2.256   6.955 -0.1986  0.7797 -0.2701
  227MOL0     C29843   7.194   2.274   6.818 -0.0687  0.7190 -0.6089
  227MOL0     C29844   7.187   2.139   6.741 -0.8418  0.7492 -0.3716
  227MOL0     C29845   7.108   2.171   6.606 -0.0692  0.0093 -0.3756
  227MOL0     C29846   7.131   2.065   6.492 -0.7305  0.3635 -0.1637
  227MOL0     C29847   7.113   2.114   6.352  0.0989  0.4746  0.5192
  227MOL0     C29848   6.986   2.196   6.328  0.6857 -0.0249  0.3771
  227MOL0     N29849   6.871   2.137   6.393  0.3221  0.2551  0.8040
  227MOL0     C29850   6.787   2.212   6.468  0.2284  0.3103 -0.6493
  227MOL0     C29851   6.681   2.123   6.494  0.3570 -0.5722 -0.3885
  227MOL0     C29852   6.561   2.165   6.576  0.4086 -0.0782  0.0039
  227MOL0     C29853   6.467   2.248   6.479  1.2489  0.1896  0.1253
  227MOL0     C29854   6.329   2.287   6.550  0.5633 -0.2955 -1.0922
  227MOL0     C29855   6.214   2.327   6.456 -0.2983  1.8579  0.7413
  227MOL0     O29856   6.086   2.351   6.519  0.2569 -0.5808  0.0696
  227MOL0     C29857   5.974   2.377   6.439 -0.5864  0.4010 -0.2878
  227MOL0     C29858   5.852   2.395   6.495 -0.3918 -0.1962 -0.2180
  227MOL0     C29859   5.740   2.431   6.410 -0.1412 -0.4037 -0.1733
  227MOL0     C29860   5.749   2.438   6.277 -0.3367  0.3025  1.1449
  227MOL0     C29861   5.634   2.480   6.198 -0.3739  0.4194 -0.6667
  227MOL0     O29862   5.522   2.519   6.268 -0.4558  0.3366 -0.0683
  227MOL0     C29863   5.415   2.572   6.209 -0.2053 -0.6642 -0.2623
  227MOL0     C29864   5.419   2.638   6.082  0.4017  0.0353  0.2790
  227MOL0     C29865   5.308   2.700   6.032  0.0001 -1.0912  0.4755
  227MOL0     C29866   5.187   2.691   6.092  0.1103  0.4013  0.7223
  227MOL0     O29867   5.077   2.761   6.053  0.4462 -0.4074 -0.0326
  227MOL0     C29868   5.085   2.897   6.017 -0.5881 -0.5616  0.6346
  227MOL0     C29869   4.950   2.965   6.004  0.4454 -0.0444 -0.7851
  227MOL0     C29870   4.849   2.880   5.924  0.0846 -0.6580 -0.0188
  227MOL0     C29871   4.712   2.953   5.933 -0.4080  0.5992  0.4503
  227MOL0     C29872   4.609   2.862   5.859 -0.6707 -0.3609 -0.4626
  227MOL0     C29873   4.475   2.920   5.857  0.0850  0.3843 -0.1245
  227MOL0     C29874   4.403   2.918   5.997  0.3748 -0.4012 -0.0125
  227MOL0     C29875   4.258   2.949   5.996  0.2603  0.2110  0.8483
  227MOL0    Cl29876   4.165   2.821   5.905 -0.3860  0.3460  0.1849
  227MOL0     C29877   5.187   2.624   6.216  0.0982  0.0743  0.7601
  227MOL0     C29878   5.295   2.564   6.275 -0.2992  0.6999 -0.1055
  227MOL0     O29879   5.645   2.465   6.072  0.2864 -0.3706 -0.1589
  227MOL0     C29880   5.875   2.391   6.218  1.2485 -0.3369 -0.1154
  227MOL0     C29881   5.985   2.379   6.300  0.2803  0.0626 -1.2754
  227MOL0     N29882   6.696   2.011   6.422  0.8591  0.2537  0.4426
  227MOL0     N29883   6.804   2.023   6.349 -0.3409  0.4136  0.0381
  227MOL0     C29884   7.695   2.328   6.795 -1.1752  0.0776 -0.3240
  227MOL0     C29885   7.835   2.303   6.775  0.7610 -0.4122 -0.7737
  227MOL0     C29886   8.225   2.047   6.861  0.4305 -0.3876 -0.5448
  227MOL0     C29887   8.331   2.036   6.955 -0.5425  0.1109 -0.0560
  227MOL0     C29888   8.455   1.991   6.910  0.2414  0.1169 -0.2073
  227MOL0     C29889   8.483   1.970   6.779  0.3449 -0.2713  0.7447
  227MOL0     O29890   8.604   1.921   6.730 -0.1162  0.0923  0.1128
  227MOL0     C29891   8.718   1.915   6.816 -1.1127 -0.0285  0.0612
  227MOL0     C29892   8.837   1.872   6.738 -0.1754 -0.0817  0.3143
  227MOL0     C29893   8.957   1.872   6.829  0.1544  0.8989  0.1428
  227MOL0     C29894   9.031   2.006   6.830 -1.2125 -0.0483  0.4866
  227MOL0     C29895   9.141   2.008   6.730 -0.5841  0.0794 -0.2543
  227MOL0     C29896   9.231   2.006   6.644  0.6267  0.1585 -0.0495
  227MOL0     C29897   8.378   1.990   6.688  0.1743  0.0556  0.2671
  227MOL0     C29898   8.255   2.025   6.723 -0.2130 -0.3470  0.2698
  227MOL0     H29899   7.835   1.996   6.918  0.5857  0.6512  0.4529
  227MOL0     H29900   7.608   2.051   6.966  1.6023 -0.0156  0.3933
  227MOL0     H29901   7.440   2.188   7.054  0.8182  0.8568  0.2378
  227MOL0     H29902   7.386   2.103   6.911 -2.0517 -0.4224  2.0384
  227MOL0     H29903   7.265   2.357   6.995  2.4147  1.3986 -1.9004
  227MOL0     H29904   7.193   2.192   7.013  3.2310 -1.0082  2.0738
  227MOL0     H29905   7.239   2.356   6.762 -2.4286  3.0748  0.7423
  227MOL0     H29906   7.090   2.305   6.835  1.2215  4.4702  1.4220
  227MOL0     H29907   7.290   2.103   6.733  0.1415  2.7688  1.9480
  227MOL0     H29908   7.136   2.059   6.795 -0.8127  0.2222 -1.1097
  227MOL0     H29909   7.157   2.263   6.573  0.2030 -0.6691 -1.9489
  227MOL0     H29910   7.001   2.186   6.619  0.1350  0.5806  0.7558
  227MOL0     H29911   7.074   1.976   6.518 -0.9299  0.9393  1.5254
  227MOL0     H29912   7.236   2.035   6.486 -0.6200  0.7552 -0.2263
  227MOL0     H29913   7.200   2.170   6.316  0.4818 -1.3525 -1.6720
  227MOL0     H29914   7.102   2.033   6.279 -3.9487  1.5154 -0.2480
  227MOL0     H29915   6.977   2.199   6.219  0.9362 -0.0433  0.3537
  227MOL0     H29916   7.001   2.297   6.368  0.8972  0.8360 -1.7349
  227MOL0     H29917   6.794   2.313   6.507  1.9140  0.2378 -0.7074
  227MOL0     H29918   6.584   2.227   6.662 -0.3317  1.7442 -1.0448
  227MOL0     H29919   6.511   2.075   6.612 -0.1533  0.2228 -0.0095
  227MOL0     H29920   6.448   2.208   6.379  1.1722  0.2850  0.1014
  227MOL0     H29921   6.515   2.345   6.464  0.5177  0.6312  0.5190
  227MOL0     H29922   6.298   2.203   6.612  0.7154  1.7866  2.0541
  227MOL0     H29923   6.335   2.374   6.616 -1.4322 -1.3373  0.5792
  227MOL0     H29924   6.200   2.231   6.406  0.5283  2.3062 -0.3859
  227MOL0     H29925   6.246   2.410   6.391 -0.1596  0.4764 -1.0218
  227MOL0     H29926   5.841   2.410   6.602 -0.8653 -0.8680 -0.1658
  227MOL0     H29927   5.649   2.438   6.469  0.2540 -0.6656  0.4793
  227MOL0     H29928   5.507   2.637   6.018  0.0792  0.0314 -0.1638
  227MOL0     H29929   5.306   2.730   5.927  2.2162 -3.1311 -0.2498
  227MOL0     H29930   5.145   2.906   5.926 -1.5649  2.2684  0.1742
  227MOL0     H29931   5.147   2.960   6.082 -0.4020  0.3544 -0.3928
  227MOL0     H29932   4.973   3.064   5.962  1.0798  0.1848  0.0926
  227MOL0     H29933   4.902   2.981   6.101 -2.5475 -1.5089 -1.8856
  227MOL0     H29934   4.851   2.776   5.957  2.1721 -1.2158 -1.7045
  227MOL0     H29935   4.870   2.875   5.817 -2.6606 -1.7871 -0.5979
  227MOL0     H29936   4.683   2.959   6.038  0.2033 -0.4353  0.6875
  227MOL0     H29937   4.724   3.050   5.883  0.4365  0.0227 -0.5121
  227MOL0     H29938   4.610   2.763   5.905 -1.3416 -0.0175  0.3193
  227MOL0     H29939   4.641   2.871   5.755 -1.7501 -0.7212 -0.8343
  227MOL0     H29940   4.429   2.853   5.783  4.3190 -0.7107 -2.0607
  227MOL0     H29941   4.453   3.023   5.830 -0.4610  0.6792  1.3472
  227MOL0     H29942   4.416   2.822   6.048 -1.3175  0.1880  1.6528
  227MOL0     H29943   4.443   2.999   6.059 -0.9176 -0.7628  1.3340
  227MOL0     H29944   4.240   3.051   5.962  1.3612  1.6229  4.0859
  227MOL0     H29945   4.221   2.962   6.099 -3.0905  3.0081 -0.4887
  227MOL0     H29946   5.091   2.619   6.266 -0.2712 -0.2343  0.0414
  227MOL0     H29947   5.275   2.507   6.366  0.3855 -0.2710 -0.5457
  227MOL0     H29948   5.866   2.374   6.112  0.0267 -3.2012  0.3743
  227MOL0     H29949   6.082   2.373   6.252  1.1856  2.6510  0.0185
  227MOL0     H29950   7.646   2.419   6.764  1.3775  1.7868  0.3702
  227MOL0     H29951   7.901   2.378   6.733  0.1628  2.7028  3.2673
  227MOL0     H29952   8.310   2.057   7.059  0.5816 -2.3524  0.7663
  227MOL0     H29953   8.530   1.977   6.987  2.2583  0.8316 -1.9266
  227MOL0     H29954   8.696   1.847   6.899  2.5856 -0.1318  1.1291
  227MOL0     H29955   8.749   2.008   6.865  2.2355 -0.7298 -0.5328
  227MOL0     H29956   8.829   1.777   6.684  1.1385 -0.6228  1.0352
  227MOL0     H29957   8.849   1.939   6.651 -1.8343 -0.7000 -0.4245
  227MOL0     H29958   9.035   1.800   6.805 -0.0763  0.6462  0.1487
  227MOL0     H29959   8.929   1.856   6.933 -0.5721 -1.4457 -0.3438
  227MOL0     H29960   8.967   2.084   6.787 -1.6362 -2.9024 -4.8460
  227MOL0     H29961   9.071   2.031   6.929  1.3070  0.8955 -0.6857
  227MOL0     H29962   9.299   2.027   6.565 -0.5040 -1.4115 -1.5063
  227MOL0     H29963   8.402   1.991   6.582 -0.4306  0.9120  0.1268
  227MOL0     H29964   8.182   2.041   6.645 -1.4673 -4.4737  0.3551
  228MOL0     O29965  10.225   1.273   7.893 -0.6429 -0.0115 -0.1749
  228MOL0     C29966  10.148   1.231   7.979  0.6279 -0.0082  0.3770
  228MOL0     O29967  10.135   1.107   8.020 -0.3021  0.3030  0.2332
  228MOL0     C29968  10.222   1.018   7.962 -0.8452 -0.2759 -0.3224
  228MOL0     C29969  10.355   1.010   7.999 -0.8589 -0.5434  0.2397
  228MOL0     C29970  10.437   0.909   7.959 -0.4403 -0.3282  0.0796
  228MOL0     C29971  10.394   0.811   7.868  0.3408 -0.6644 -0.1125
  228MOL0     O29972  10.469   0.715   7.810  0.1717  0.3160 -0.5856
  228MOL0     C29973  10.585   0.671   7.881  0.4292  0.0539 -0.3605
  228MOL0     C29974  10.645   0.555   7.792  0.0842 -0.3888  0.0390
  228MOL0     C29975  10.781   0.496   7.842  0.2737  0.9335  0.3121
  228MOL0     C29976  10.826   0.384   7.755 -0.0965 -0.1922 -0.7503
  228MOL0     C29977  10.967   0.335   7.800 -0.0852 -0.4904 -0.2185
  228MOL0     C29978  11.012   0.217   7.720 -0.4249 -0.0812 -0.5427
  228MOL0     C29979  11.139   0.153   7.775  0.7983 -0.5285 -0.4953
  228MOL0     C29980  11.140   0.011   7.830  0.3627  0.3314 -0.6201
  228MOL0     N29981  11.019  -0.008   7.918  0.1412  0.5870  0.4119
  228MOL0     C29982  10.910  -0.070   7.866  0.2586  1.1263  0.0567
  228MOL0     C29983  10.822  -0.070   7.970 -0.1358 -0.0237  0.4989
  228MOL0     C29984  10.682  -0.128   7.976 -0.4802  0.1433  0.3234
  228MOL0     C29985  10.607  -0.116   7.846  1.1024  0.3540 -0.3262
  228MOL0     C29986  10.454  -0.139   7.862 -0.8173 -0.1721  0.0246
  228MOL0     C29987  10.381  -0.031   7.953 -0.9097 -0.1537 -0.1051
  228MOL0     O29988  10.424   0.100   7.905  0.9071  0.2541  0.1319
  228MOL0     C29989  10.317   0.178   7.857 -0.4662  0.4747 -0.3273
  228MOL0     C29990  10.341   0.317   7.856  0.5568  0.0799 -0.1648
  228MOL0     C29991  10.241   0.410   7.816 -0.2379  0.2891 -0.4132
  228MOL0     C29992  10.129   0.368   7.751 -0.7785  0.0853  0.0693
  228MOL0     C29993  10.033   0.463   7.698  0.8953 -0.6126  1.3622
  228MOL0     O29994   9.961   0.420   7.595 -0.1364  0.5254 -0.1471
  228MOL0     C29995   9.902   0.501   7.503  0.0189 -0.0519  0.1958
  228MOL0     C29996   9.923   0.475   7.366  0.3247 -0.0638  0.4448
  228MOL0     C29997   9.851   0.537   7.268  0.3743  0.5102 -0.9441
  228MOL0     C29998   9.740   0.616   7.309 -0.5924 -0.0874 -0.6957
  228MOL0     O29999   9.658   0.659   7.214 -0.3712 -0.3977 -0.1047
  228MOL0     C30000   9.706   0.741   7.103  0.1212  0.3189  0.1022
  228MOL0     C30001   9.598   0.802   7.016  0.0800  0.3710 -0.1218
  228MOL0     C30002   9.509   0.699   6.961 -0.0450  0.9696 -0.0217
  228MOL0     C30003   9.437   0.763   6.835 -0.6627  0.5613  0.3027
  228MOL0     C30004   9.328   0.678   6.791  0.2892  0.0159 -0.1945
  228MOL0     C30005   9.312   0.680   6.638  0.3000 -0.7035  0.2998
  228MOL0     C30006   9.172   0.626   6.604  0.0847 -0.0432 -0.1062
  228MOL0     C30007   9.194   0.518   6.507 -0.2060  0.1909  0.4046
  228MOL0    Cl30008   9.043   0.426   6.485 -0.2058  0.0591  0.0462
  228MOL0     C30009   9.710   0.635   7.443  0.2029  0.1316 -0.2632
  228MOL0     C30010   9.789   0.572   7.539  0.3424  0.3640 -0.2027
  228MOL0     O30011  10.025   0.578   7.735  0.4451  0.8730  0.7289
  228MOL0     C30012  10.106   0.233   7.742  0.0595 -0.3471 -0.4189
  228MOL0     C30013  10.198   0.138   7.798  0.2003 -0.8858 -0.4899
  228MOL0     N30014  10.881   0.003   8.080 -0.4138  0.9325 -0.0647
  228MOL0     N30015  10.999   0.040   8.045  0.2737 -1.0056 -0.3379
  228MOL0     C30016  10.257   0.817   7.822 -0.2412 -0.7683 -0.3449
  228MOL0     C30017  10.172   0.918   7.874 -0.0056 -0.5092 -0.1915
  228MOL0     C30018  10.051   1.325   8.039 -1.1014 -0.0347  0.8043
  228MOL0     C30019   9.998   1.430   7.970 -0.4008 -0.1074 -0.0624
  228MOL0     C30020   9.915   1.514   8.035  0.2034 -1.0113 -0.2469
  228MOL0     C30021   9.858   1.499   8.159  0.1839  1.0035 -0.1099
  228MOL0     O30022   9.766   1.578   8.200 -0.0935 -0.3463 -0.4444
  228MOL0     C30023   9.673   1.545   8.312  0.7182  0.5718 -0.5783
  228MOL0     C30024   9.584   1.667   8.325 -1.0515  0.0862 -0.5732
  228MOL0     C30025   9.468   1.671   8.222  0.5812  1.5344  1.0590
  228MOL0     C30026   9.355   1.774   8.260 -0.0897  0.4315 -0.4169
  228MOL0     C30027   9.248   1.786   8.161 -0.4276 -0.2965 -0.2213
  228MOL0     C30028   9.177   1.822   8.069 -0.3887 -0.0780 -0.7379
  228MOL0     C30029   9.902   1.383   8.227 -0.7177  1.2431 -0.5266
  228MOL0     C30030   9.990   1.294   8.165 -0.4835 -0.7278 -0.8520
  228MOL0     H30031  10.395   1.093   8.057 -2.6664 -0.3308  1.2548
  228MOL0     H30032  10.540   0.928   7.987 -0.5870  0.2536  0.2524
  228MOL0     H30033  10.557   0.637   7.981  0.5101  1.1493  0.0394
  228MOL0     H30034  10.666   0.744   7.879  1.1051 -0.6209  0.9974
  228MOL0     H30035  10.643   0.596   7.690  1.9619 -2.4258 -0.9091
  228MOL0     H30036  10.567   0.479   7.786  2.3788 -2.8109 -2.3478
  228MOL0     H30037  10.774   0.444   7.938 -0.2528 -1.0431 -0.7317
  228MOL0     H30038  10.855   0.575   7.851  1.2812  0.5912 -3.2423
  228MOL0     H30039  10.755   0.301   7.758 -1.4099  0.9318  1.1525
  228MOL0     H30040  10.831   0.416   7.650 -1.3172 -0.0409 -0.7737
  228MOL0     H30041  10.960   0.300   7.903 -0.5040 -4.0680 -1.3082
  228MOL0     H30042  11.046   0.410   7.791 -1.9804  1.5405 -0.8164
  228MOL0     H30043  11.044   0.260   7.624  1.1151  0.4300  0.1631
  228MOL0     H30044  10.926   0.149   7.718  0.3569 -1.1518  0.6500
  228MOL0     H30045  11.210   0.152   7.692  0.6696  2.3075 -0.7412
  228MOL0     H30046  11.171   0.222   7.854 -2.1416  0.3087  0.0847
  228MOL0     H30047  11.240  -0.006   7.872 -0.0465  2.2854  1.3238
  228MOL0     H30048  11.137  -0.063   7.749  0.4765  0.4023 -0.6902
  228MOL0     H30049  10.884  -0.108   7.768  0.3365  0.8295  0.1517
  228MOL0     H30050  10.628  -0.075   8.054 -4.2140 -2.2423 -0.3837
  228MOL0     H30051  10.685  -0.234   8.005 -1.3723  0.3349  1.1425
  228MOL0     H30052  10.648  -0.197   7.785 -0.0770 -1.9156  1.6837
  228MOL0     H30053  10.621  -0.021   7.793 -1.1369  0.3012 -1.1006
  228MOL0     H30054  10.407  -0.126   7.763 -0.7033  1.1281  0.1292
  228MOL0     H30055  10.438  -0.240   7.900 -4.4796  0.8891  1.8097
  228MOL0     H30056  10.404  -0.049   8.058 -3.2862  0.7048  0.6220
  228MOL0     H30057  10.274  -0.054   7.943 -0.2742 -3.6287 -0.0526
  228MOL0     H30058  10.426   0.342   7.920  1.4641 -0.7063 -1.0287
  228MOL0     H30059  10.263   0.516   7.829  1.0512  0.3404 -2.6256
  228MOL0     H30060   9.996   0.399   7.340  0.0129  0.0917 -0.9121
  228MOL0     H30061   9.876   0.506   7.167  1.8668 -2.8640  0.2956
  228MOL0     H30062   9.762   0.679   7.033  2.6235  1.8904  0.5934
  228MOL0     H30063   9.763   0.826   7.143  0.6312 -0.9723  2.2869
  228MOL0     H30064   9.644   0.855   6.932 -4.4771  5.0924 -0.1178
  228MOL0     H30065   9.564   0.889   7.073  1.4748  0.8712 -0.0100
  228MOL0     H30066   9.443   0.657   7.038 -0.0999  1.2060  0.0620
  228MOL0     H30067   9.565   0.609   6.935  0.3369 -0.5152  4.8313
  228MOL0     H30068   9.394   0.854   6.876 -2.0790 -0.5029  1.2711
  228MOL0     H30069   9.512   0.797   6.763 -0.8481  1.7950  0.6773
  228MOL0     H30070   9.242   0.723   6.842 -0.6631 -1.7670 -0.1492
  228MOL0     H30071   9.336   0.577   6.831 -0.5564 -0.3341 -0.8696
  228MOL0     H30072   9.391   0.616   6.598  2.8616  2.2432  0.2205
  228MOL0     H30073   9.317   0.784   6.604  3.6280 -1.3519 -1.5913
  228MOL0     H30074   9.124   0.598   6.699  2.1883 -1.0304  0.7317
  228MOL0     H30075   9.107   0.700   6.557 -0.5498 -1.3542 -1.3657
  228MOL0     H30076   9.275   0.456   6.548 -0.0557  0.2586  0.2131
  228MOL0     H30077   9.234   0.563   6.416  3.0312 -0.0266  1.5732
  228MOL0     H30078   9.620   0.681   7.484  0.4938  1.6484 -1.2739
  228MOL0     H30079   9.771   0.582   7.645  1.4957  0.6552 -0.0197
  228MOL0     H30080  10.008   0.211   7.701 -0.5491 -0.4155  1.0220
  228MOL0     H30081  10.173   0.035   7.774  0.0080 -0.2585 -3.2435
  228MOL0     H30082  10.212   0.756   7.744 -0.5735  1.1808 -1.7355
  228MOL0     H30083  10.067   0.922   7.848  0.7541  2.3686 -3.5007
  228MOL0     H30084  10.032   1.459   7.871 -0.4878 -2.6911 -0.9346
  228MOL0     H30085   9.869   1.601   7.989 -2.5689 -3.6807 -3.0322
  228MOL0     H30086   9.722   1.531   8.409  2.3208 -1.0353 -1.5702
  228MOL0     H30087   9.624   1.449   8.294  0.2191  0.1607  2.3860
  228MOL0     H30088   9.548   1.660   8.428  2.1377  0.6771  0.6800
  228MOL0     H30089   9.639   1.762   8.320 -1.6972  0.5849  1.0925
  228MOL0     H30090   9.423   1.571   8.218 -1.2605  2.3127  1.3029
  228MOL0     H30091   9.508   1.698   8.124  1.8135  0.1700  1.1690
  228MOL0     H30092   9.316   1.757   8.360  0.1326  1.9792 -0.0460
  228MOL0     H30093   9.403   1.872   8.261  0.0031  0.6170 -4.3861
  228MOL0     H30094   9.111   1.852   7.990 -0.3257  0.3250 -0.6427
  228MOL0     H30095   9.866   1.374   8.329  0.9726  0.0735  0.0141
  228MOL0     H30096  10.012   1.205   8.223 -1.1950 -0.0070  0.5598
  229MOL0     O30097   6.355   6.918   0.089  0.5547 -0.2064 -0.1945
  229MOL0     C30098   6.408   6.857   0.186  0.9081  0.0629 -0.1523
  229MOL0     O30099   6.336   6.782   0.277 -0.5733  0.3178 -0.0418
  229MOL0     C30100   6.203   6.783   0.254 -0.7320 -0.1352  0.4046
  229MOL0     C30101   6.141   6.691   0.165 -0.2128 -0.6294 -1.4334
  229MOL0     C30102   5.997   6.700   0.149  0.0430 -0.4450  0.0232
  229MOL0     C30103   5.921   6.794   0.220 -0.3914  0.2676 -0.0494
  229MOL0     O30104   5.788   6.788   0.187  0.2530  0.2747  0.2260
  229MOL0     C30105   5.703   6.869   0.263  0.0382 -0.1387 -0.1640
  229MOL0     C30106   5.694   6.841   0.415 -1.2577 -0.6967  0.0833
  229MOL0     C30107   5.572   6.767   0.440 -0.2714  0.0230  0.0350
  229MOL0     C30108   5.548   6.716   0.582  0.0047 -0.4747  0.8529
  229MOL0     C30109   5.404   6.665   0.600 -0.3376  0.3194 -0.3192
  229MOL0     C30110   5.390   6.555   0.709  0.3312 -0.5307 -1.4669
  229MOL0     C30111   5.247   6.524   0.725 -0.1749 -0.0232 -0.1274
  229MOL0     C30112   5.232   6.379   0.785  0.4904 -1.4777 -0.4228
  229MOL0     N30113   5.093   6.351   0.783  0.0789  0.0175 -0.1953
  229MOL0     C30114   5.024   6.339   0.666  0.2141  0.3295  0.1593
  229MOL0     C30115   4.901   6.291   0.705 -0.7159  0.1038 -0.9868
  229MOL0     C30116   4.800   6.265   0.597  0.5099  0.9415 -0.3522
  229MOL0     C30117   4.651   6.282   0.643 -0.1138  0.2073  0.4183
  229MOL0     C30118   4.612   6.208   0.769 -0.2587  0.1530 -0.3817
  229MOL0     C30119   4.463   6.237   0.808 -0.0570 -0.4312 -0.3782
  229MOL0     O30120   4.439   6.366   0.861  0.3768  0.2403  0.8121
  229MOL0     C30121   4.301   6.401   0.871 -0.7663 -0.0599  0.6772
  229MOL0     C30122   4.189   6.330   0.816 -0.0226  0.6969 -0.2954
  229MOL0     C30123   4.058   6.365   0.851  0.0782  1.0318  0.1395
  229MOL0     C30124   4.030   6.478   0.924 -0.0259  1.4180  0.7523
  229MOL0     C30125   3.893   6.512   0.961 -0.3777 -0.2468  0.4509
  229MOL0     O30126   3.791   6.462   0.881 -0.4886 -0.5866  0.5176
  229MOL0     C30127   3.659   6.458   0.892 -0.0411 -0.5970 -0.2593
  229MOL0     C30128   3.584   6.543   0.988  0.4562 -0.2167  0.2003
  229MOL0     C30129   3.447   6.560   0.973  0.8794  0.2840 -0.2096
  229MOL0     C30130   3.378   6.486   0.873 -0.2400 -0.2207 -0.4189
  229MOL0     O30131   3.245   6.491   0.859 -0.0140 -0.6139  0.4374
  229MOL0     C30132   3.154   6.510   0.970  0.5563 -0.2738 -0.9061
  229MOL0     C30133   3.015   6.443   0.943 -0.0335  0.3255 -0.4090
  229MOL0     C30134   2.925   6.444   1.074 -0.2937 -1.3737 -0.6609
  229MOL0     C30135   2.789   6.371   1.040 -0.1839  0.5134 -0.2332
  229MOL0     C30136   2.671   6.405   1.123 -0.7315  0.2020 -0.4942
  229MOL0     C30137   2.586   6.284   1.166 -1.0124  0.3400 -0.2312
  229MOL0     C30138   2.460   6.320   1.246 -0.5489  0.7432 -0.0352
  229MOL0     C30139   2.347   6.401   1.158  0.1649  0.8486  0.2197
  229MOL0    Cl30140   2.195   6.410   1.249 -0.1687 -0.0301  0.1422
  229MOL0     C30141   3.448   6.429   0.767 -0.3543  0.2663 -0.7953
  229MOL0     C30142   3.592   6.409   0.779  0.3168  0.2331 -0.1319
  229MOL0     O30143   3.884   6.567   1.069  0.3119  0.3855  0.4478
  229MOL0     C30144   4.146   6.549   0.974  0.2623 -0.4809 -0.2174
  229MOL0     C30145   4.277   6.514   0.943 -0.0027 -0.1836  0.6461
  229MOL0     N30146   4.908   6.260   0.848  0.4521 -0.1486  0.0275
  229MOL0     N30147   5.020   6.311   0.890 -0.5239  0.5324  0.3079
  229MOL0     C30148   5.989   6.884   0.303 -0.5291 -0.9255 -0.1097
  229MOL0     C30149   6.128   6.875   0.322  0.1721  0.2169  0.7260
  229MOL0     C30150   6.551   6.842   0.187  0.5178 -1.2456  0.4053
  229MOL0     C30151   6.633   6.949   0.136  0.0244 -0.0037 -0.2121
  229MOL0     C30152   6.760   6.929   0.115  0.1617  0.5486  0.3410
  229MOL0     C30153   6.818   6.802   0.153  0.3982 -0.1980  0.3966
  229MOL0     O30154   6.955   6.797   0.123  0.0749  0.0726 -0.2196
  229MOL0     C30155   7.019   6.667   0.127  0.5383  0.2310 -0.1856
  229MOL0     C30156   7.165   6.677   0.082 -1.3488  0.9972 -1.1395
  229MOL0     C30157   7.261   6.728   0.203  0.0735  0.0601 -0.2559
  229MOL0     C30158   7.407   6.750   0.159 -0.7640  0.3790  0.3853
  229MOL0     C30159   7.476   6.635   0.104  0.4910  0.9550  0.5829
  229MOL0     C30160   7.524   6.535   0.054  0.1390  0.2642 -0.1233
  229MOL0     C30161   6.743   6.698   0.205  1.1325 -0.2227 -1.4627
  229MOL0     C30162   6.607   6.719   0.216  0.0125  0.2666  1.0617
  229MOL0     H30163   6.206   6.629   0.104  2.4968 -0.3455  0.9428
  229MOL0     H30164   5.949   6.631   0.079 -0.7148 -0.7756  0.8443
  229MOL0     H30165   5.602   6.841   0.230  0.1237 -2.5551  1.3905
  229MOL0     H30166   5.714   6.975   0.236 -0.0908 -0.1578 -0.2912
  229MOL0     H30167   5.688   6.939   0.465 -3.3018 -0.3402 -0.7715
  229MOL0     H30168   5.780   6.783   0.450 -1.6148 -2.2090 -1.4629
  229MOL0     H30169   5.555   6.685   0.369  0.4497 -0.6237  0.5988
  229MOL0     H30170   5.490   6.837   0.417 -0.8655 -0.0150  1.8697
  229MOL0     H30171   5.618   6.632   0.587 -0.4522 -1.1227 -2.0706
  229MOL0     H30172   5.589   6.781   0.660  0.9959  1.5072 -1.2059
  229MOL0     H30173   5.366   6.641   0.501  1.2842  0.4542 -1.0016
  229MOL0     H30174   5.351   6.753   0.638 -0.9284  0.0752 -0.5856
  229MOL0     H30175   5.423   6.590   0.808 -3.7958  1.9040 -0.6828
  229MOL0     H30176   5.443   6.466   0.675  1.9572 -1.5138  2.8992
  229MOL0     H30177   5.216   6.597   0.800  1.0158 -0.0534  0.4246
  229MOL0     H30178   5.194   6.536   0.630 -1.0890  0.4375  0.4257
  229MOL0     H30179   5.278   6.365   0.883  1.1278  3.3342  0.2407
  229MOL0     H30180   5.284   6.308   0.720 -0.6122 -1.0021 -1.8929
  229MOL0     H30181   5.059   6.343   0.563 -1.1410 -2.9392 -0.5479
  229MOL0     H30182   4.814   6.162   0.561  0.6228  0.7119  0.3269
  229MOL0     H30183   4.818   6.335   0.515  0.3849  0.7182 -0.5703
  229MOL0     H30184   4.599   6.230   0.561  0.7879  1.2756 -0.8683
  229MOL0     H30185   4.618   6.386   0.650 -2.0506 -0.2490 -0.7939
  229MOL0     H30186   4.619   6.099   0.764  0.0717 -0.0528  2.8026
  229MOL0     H30187   4.667   6.241   0.858 -1.1347 -2.4812  1.2507
  229MOL0     H30188   4.425   6.160   0.876 -0.2566 -0.9977 -1.1137
  229MOL0     H30189   4.411   6.230   0.712 -0.0883 -3.1176 -0.2407
  229MOL0     H30190   4.195   6.249   0.744  0.1966  0.0663  0.4165
  229MOL0     H30191   3.980   6.311   0.799  2.2797 -1.0577 -1.2537
  229MOL0     H30192   3.640   6.604   1.058  0.5460 -1.4424  1.2413
  229MOL0     H30193   3.384   6.617   1.041 -0.8635 -3.3984  1.5715
  229MOL0     H30194   3.148   6.618   0.990  2.5427 -0.4888  1.4388
  229MOL0     H30195   3.195   6.458   1.057 -0.2397 -2.0092 -1.5353
  229MOL0     H30196   3.013   6.343   0.899  0.0427  0.3519 -0.4756
  229MOL0     H30197   2.973   6.501   0.860  2.7719  0.7154 -1.6891
  229MOL0     H30198   2.914   6.547   1.109  3.4014 -0.6810 -1.0792
  229MOL0     H30199   2.982   6.391   1.152  0.0234 -0.7956 -0.4941
  229MOL0     H30200   2.775   6.389   0.933  2.2259  1.1365 -0.4994
  229MOL0     H30201   2.809   6.265   1.053  0.1640  0.6926  0.8224
  229MOL0     H30202   2.622   6.487   1.069 -0.3471  0.2276 -0.8072
  229MOL0     H30203   2.715   6.443   1.215 -2.3234  0.2176  0.3076
  229MOL0     H30204   2.644   6.210   1.220 -0.0920  1.3499  0.1828
  229MOL0     H30205   2.544   6.239   1.075 -0.3327  2.0210 -1.4476
  229MOL0     H30206   2.411   6.239   1.300 -2.3785  1.4642 -0.5454
  229MOL0     H30207   2.498   6.382   1.327 -0.7778 -2.5811  2.8511
  229MOL0     H30208   2.329   6.344   1.066 -1.6733  2.1371 -0.2817
  229MOL0     H30209   2.378   6.502   1.130 -1.5566  1.8526  1.6779
  229MOL0     H30210   3.403   6.388   0.678  3.1196 -0.8568 -2.1946
  229MOL0     H30211   3.640   6.347   0.703  1.9972 -0.9029  1.7458
  229MOL0     H30212   4.125   6.631   1.043  1.5088  0.6899 -1.1642
  229MOL0     H30213   4.359   6.565   0.991 -0.3815  0.2749  0.8083
  229MOL0     H30214   5.944   6.968   0.354  1.9733 -1.2168  2.8849
  229MOL0     H30215   6.175   6.953   0.381  0.7589  1.9244 -1.8694
  229MOL0     H30216   6.585   7.045   0.116 -2.9541 -0.4523  3.6295
  229MOL0     H30217   6.830   7.003   0.078  1.5308 -1.8403 -2.3085
  229MOL0     H30218   6.968   6.593   0.064  2.5321 -0.7178 -0.7727
  229MOL0     H30219   7.019   6.626   0.228  1.9362  1.7022  0.4576
  229MOL0     H30220   7.190   6.572   0.068 -2.8628  0.6298 -1.2345
  229MOL0     H30221   7.182   6.731  -0.012  2.4518  3.0405  0.4923
  229MOL0     H30222   7.265   6.652   0.282  2.6694  1.0587  0.6812
  229MOL0     H30223   7.222   6.817   0.252 -1.3002 -1.9194  2.5538
  229MOL0     H30224   7.406   6.836   0.091  1.5176  1.3310  1.4683
  229MOL0     H30225   7.469   6.784   0.243 -0.3405 -0.0861  0.2615
  229MOL0     H30226   7.575   6.453   0.008  2.1128  2.0169 -1.1878
  229MOL0     H30227   6.795   6.609   0.239  1.3762  0.1742 -0.7851
  229MOL0     H30228   6.550   6.629   0.239 -0.8151 -0.3788 -2.8023
  230MOL0     O30229  10.318   6.150   7.610  0.1253 -0.0625  0.2636
  230MOL0     C30230  10.302   6.250   7.536  0.7239  0.9913 -0.0036
  230MOL0     O30231  10.395   6.319   7.461  0.0724  0.1658 -0.1331
  230MOL0     C30232  10.527   6.293   7.487  0.1966 -0.1024  0.4698
  230MOL0     C30233  10.567   6.307   7.620 -0.0715  0.0153 -0.0866
  230MOL0     C30234  10.701   6.277   7.649 -0.3669  0.7543 -0.9334
  230MOL0     C30235  10.795   6.241   7.558  1.1033 -0.3341 -0.0885
  230MOL0     O30236  10.927   6.243   7.601 -0.1923 -0.2163  0.0249
  230MOL0     C30237  11.016   6.329   7.528 -0.8579  0.3483  0.3935
  230MOL0     C30238  11.162   6.308   7.572  0.3147  0.0676  0.0904
  230MOL0     C30239  11.210   6.160   7.558  0.0086 -0.2371 -0.3329
  230MOL0     C30240  11.364   6.150   7.566  0.2856  0.8718 -0.6809
  230MOL0     C30241  11.413   6.007   7.573  0.0975  0.3597  0.4182
  230MOL0     C30242  11.535   5.975   7.658  0.5850 -0.3700  0.2176
  230MOL0     C30243  11.553   5.819   7.668 -0.7140 -1.0753  0.0399
  230MOL0     C30244  11.695   5.779   7.711 -0.0913  0.5919  0.3874
  230MOL0     N30245  11.711   5.812   7.850 -0.0934 -0.9569 -0.2717
  230MOL0     C30246  11.779   5.917   7.905  0.0345  0.1105 -0.1119
  230MOL0     C30247  11.771   5.896   8.041 -0.0807  0.5001 -0.1455
  230MOL0     C30248  11.828   5.985   8.148 -0.2576  0.0106  0.5472
  230MOL0     C30249  11.714   6.066   8.218 -0.9784 -1.3846 -0.3271
  230MOL0     C30250  11.643   5.963   8.312  0.9364  0.2473  0.2732
  230MOL0     C30251  11.514   6.026   8.379 -0.0966  0.1914  0.0611
  230MOL0     O30252  11.401   6.020   8.280 -0.6418 -0.3565 -0.0259
  230MOL0     C30253  11.286   6.078   8.337 -0.3858 -0.0305 -0.1261
  230MOL0     C30254  11.284   6.167   8.443 -0.1438 -0.4510 -1.3021
  230MOL0     C30255  11.166   6.208   8.498 -0.0876  0.3299 -0.0750
  230MOL0     C30256  11.042   6.181   8.439  0.6511  0.8025 -0.2400
  230MOL0     C30257  10.918   6.211   8.502  0.8500  0.1607  0.1700
  230MOL0     O30258  10.921   6.243   8.641 -0.6425 -0.0133 -0.1992
  230MOL0     C30259  10.804   6.230   8.702  0.5845  0.0893  0.1672
  230MOL0     C30260  10.701   6.321   8.694 -0.2567  0.2716  0.5020
  230MOL0     C30261  10.591   6.312   8.790 -0.3389 -0.6695  0.6598
  230MOL0     C30262  10.578   6.201   8.874 -0.1226 -0.0057  1.0762
  230MOL0     O30263  10.458   6.194   8.938 -0.2375 -0.9120 -0.3435
  230MOL0     C30264  10.444   6.094   9.040 -0.1386 -0.3928 -0.5586
  230MOL0     C30265  10.321   6.133   9.127  0.6074 -0.0493 -1.3619
  230MOL0     C30266  10.187   6.117   9.069  0.7435  0.2722 -0.3158
  230MOL0     C30267  10.074   6.180   9.164  0.0151  0.4153 -0.2755
  230MOL0     C30268   9.936   6.157   9.117  0.2124  0.6893 -0.4729
  230MOL0     C30269   9.830   6.175   9.230 -0.0788 -0.2129 -0.2013
  230MOL0     C30270   9.696   6.182   9.161  0.1608  0.3304 -0.8888
  230MOL0     C30271   9.597   6.238   9.249 -0.0039  0.1320 -0.5569
  230MOL0    Cl30272   9.608   6.417   9.254 -0.1774 -0.0547 -0.2537
  230MOL0     C30273  10.680   6.103   8.873  0.1153 -0.3998 -0.0631
  230MOL0     C30274  10.793   6.125   8.790 -0.1304  0.4573  0.3031
  230MOL0     O30275  10.812   6.187   8.438  0.1305  0.0490 -0.6111
  230MOL0     C30276  11.048   6.102   8.322  0.1731  0.7194 -0.3588
  230MOL0     C30277  11.164   6.043   8.275  0.6416  0.0441 -0.6609
  230MOL0     N30278  11.694   5.777   8.066  0.2175  0.0667 -0.2525
  230MOL0     N30279  11.664   5.724   7.951 -0.3691 -0.3888  0.0580
  230MOL0     C30280  10.750   6.221   7.429  0.0996  0.8126  0.5470
  230MOL0     C30281  10.612   6.246   7.390 -0.2740  0.1275  0.2569
  230MOL0     C30282  10.162   6.289   7.526  0.2032 -0.6400  0.1665
  230MOL0     C30283  10.059   6.201   7.534  0.2154  0.4346 -1.5513
  230MOL0     C30284   9.925   6.237   7.518 -0.4048 -0.9046 -0.3051
  230MOL0     C30285   9.890   6.375   7.489 -0.4473  0.1206 -0.0576
  230MOL0     O30286   9.763   6.425   7.485  0.7706  0.3231 -0.0473
  230MOL0     C30287   9.651   6.328   7.459 -0.1530  0.3211  0.2752
  230MOL0     C30288   9.524   6.392   7.407  1.1201 -0.3678 -0.1217
  230MOL0     C30289   9.441   6.468   7.516  0.5704 -0.4751 -1.0747
  230MOL0     C30290   9.397   6.390   7.646  0.0018  0.3933  0.6479
  230MOL0     C30291   9.313   6.267   7.614  1.0751 -0.3625 -0.5829
  230MOL0     C30292   9.238   6.175   7.590 -0.3698 -0.0956 -0.6829
  230MOL0     C30293   9.997   6.459   7.483 -0.4703 -0.6511 -0.5996
  230MOL0     C30294  10.131   6.427   7.505 -0.7061  0.5173  1.0562
  230MOL0     H30295  10.500   6.334   7.701 -0.0982 -1.3515  0.3751
  230MOL0     H30296  10.730   6.294   7.752 -1.1108  1.7726 -0.8837
  230MOL0     H30297  10.995   6.435   7.542 -2.9803  0.0313 -0.0457
  230MOL0     H30298  11.006   6.303   7.422 -1.8269  2.1593 -0.0023
  230MOL0     H30299  11.175   6.343   7.675 -2.6117  0.9906  0.2403
  230MOL0     H30300  11.227   6.377   7.518 -2.1154 -1.1787 -5.0463
  230MOL0     H30301  11.187   6.132   7.455  2.3129 -1.2104 -0.6485
  230MOL0     H30302  11.158   6.102   7.634  2.1078  0.6903  1.9427
  230MOL0     H30303  11.417   6.214   7.494 -1.0931 -0.8233 -3.3582
  230MOL0     H30304  11.383   6.183   7.669 -1.9874 -0.5818  0.2916
  230MOL0     H30305  11.417   5.972   7.469  0.3484 -0.4924  0.7051
  230MOL0     H30306  11.326   5.960   7.621 -1.3984  2.0135 -0.5317
  230MOL0     H30307  11.529   6.014   7.760 -1.3330  1.8501 -0.6642
  230MOL0     H30308  11.621   6.018   7.607  0.9393 -1.0567  0.2226
  230MOL0     H30309  11.481   5.776   7.738 -0.1123 -1.0460  0.6819
  230MOL0     H30310  11.536   5.780   7.567  0.2041  1.2433 -1.0828
  230MOL0     H30311  11.762   5.829   7.640  2.4511 -1.0063  1.4820
  230MOL0     H30312  11.703   5.671   7.696  4.0270  1.0718 -2.5689
  230MOL0     H30313  11.833   5.998   7.858 -0.4074 -0.8402 -2.4005
  230MOL0     H30314  11.892   6.051   8.088 -0.5025  0.0111  0.2818
  230MOL0     H30315  11.884   5.928   8.223 -2.6737 -0.7453  1.8553
  230MOL0     H30316  11.644   6.103   8.143  1.6077 -0.1246 -2.2590
  230MOL0     H30317  11.763   6.149   8.269  1.7508 -2.3387 -1.2364
  230MOL0     H30318  11.620   5.862   8.277 -2.0388  0.4409  1.3996
  230MOL0     H30319  11.721   5.949   8.388  3.7456 -0.8049 -2.5564
  230MOL0     H30320  11.546   6.130   8.395  2.6606 -0.5168 -0.3830
  230MOL0     H30321  11.479   5.972   8.468  2.4873  1.7403  2.1539
  230MOL0     H30322  11.368   6.202   8.502 -0.0142 -1.3348 -0.9437
  230MOL0     H30323  11.173   6.255   8.596 -0.2885  0.6249 -0.2036
  230MOL0     H30324  10.708   6.392   8.612  0.1519 -0.9796 -0.5809
  230MOL0     H30325  10.512   6.385   8.775  1.9894  2.1316  1.0599
  230MOL0     H30326  10.528   6.112   9.109 -1.3141 -0.7459  1.0317
  230MOL0     H30327  10.439   5.990   9.009  2.8335 -0.9345  0.4028
  230MOL0     H30328  10.340   6.236   9.157  0.0506  0.4043 -2.4866
  230MOL0     H30329  10.317   6.069   9.216 -0.8179  0.9561 -0.6492
  230MOL0     H30330  10.160   6.011   9.066  1.1181  0.1055  1.2177
  230MOL0     H30331  10.187   6.152   8.965 -0.1515 -0.7914 -0.6956
  230MOL0     H30332  10.094   6.124   9.255  0.2859 -3.2640 -2.3903
  230MOL0     H30333  10.088   6.287   9.180  1.0944  0.2682 -0.1923
  230MOL0     H30334   9.932   6.057   9.072  1.1490  0.6743 -0.5365
  230MOL0     H30335   9.918   6.227   9.034  3.1552 -0.7541 -2.5196
  230MOL0     H30336   9.846   6.267   9.287 -3.0316  0.3375 -0.0943
  230MOL0     H30337   9.830   6.090   9.299 -1.3208 -0.0727 -0.0102
  230MOL0     H30338   9.706   6.236   9.066 -1.2867  1.6042 -0.3601
  230MOL0     H30339   9.672   6.079   9.133  1.2714 -0.6874  1.5886
  230MOL0     H30340   9.611   6.200   9.350  0.5692 -0.3767 -0.8257
  230MOL0     H30341   9.496   6.215   9.213  0.3877 -0.3875 -1.3354
  230MOL0     H30342  10.680   6.019   8.942  0.2766 -0.7017 -0.4284
  230MOL0     H30343  10.879   6.059   8.793 -0.3045  0.2507  1.2156
  230MOL0     H30344  10.955   6.087   8.269 -0.3566 -1.1080  0.9892
  230MOL0     H30345  11.144   5.964   8.203 -3.3356 -0.5084  0.7950
  230MOL0     H30346  10.821   6.191   7.353  1.4101  1.8749  1.3054
  230MOL0     H30347  10.574   6.234   7.289  0.2832  1.4133 -0.1285
  230MOL0     H30348  10.083   6.096   7.524 -1.5021  0.0677 -2.1271
  230MOL0     H30349   9.852   6.158   7.519 -1.7925  0.3047 -1.5678
  230MOL0     H30350   9.634   6.265   7.547  1.3441 -0.3258  0.1364
  230MOL0     H30351   9.682   6.257   7.382 -1.8959 -0.0776 -0.1119
  230MOL0     H30352   9.561   6.463   7.333  3.6166  0.2415  1.6171
  230MOL0     H30353   9.460   6.317   7.359 -0.8261  0.4265  1.1306
  230MOL0     H30354   9.354   6.517   7.471 -0.1862 -0.5404  0.2801
  230MOL0     H30355   9.503   6.548   7.557 -2.5649  0.5369  2.1764
  230MOL0     H30356   9.479   6.363   7.714  1.9307  3.2819 -0.3481
  230MOL0     H30357   9.333   6.460   7.700 -1.2956 -0.7133  0.5961
  230MOL0     H30358   9.163   6.102   7.570  0.1951 -1.5964  2.1914
  230MOL0     H30359   9.968   6.562   7.465 -2.4937 -0.9955  0.4164
  230MOL0     H30360  10.212   6.499   7.501 -0.4258  0.1847  0.7082
  231MOL0     O30361   3.312   3.438   3.391 -0.3653  0.0950  0.9652
  231MOL0     C30362   3.298   3.525   3.309 -0.0472  0.3719 -0.8030
  231MOL0     O30363   3.386   3.620   3.264 -0.1609 -0.0768  0.0019
  231MOL0     C30364   3.518   3.620   3.307  0.1142  0.1313  1.2210
  231MOL0     C30365   3.603   3.681   3.217  0.2946 -0.8313 -0.2311
  231MOL0     C30366   3.744   3.702   3.247 -0.5096  0.0250 -0.7570
  231MOL0     C30367   3.796   3.633   3.354 -0.5840  0.0794 -0.2144
  231MOL0     O30368   3.934   3.621   3.367  0.0158  0.1220  0.3368
  231MOL0     C30369   4.023   3.726   3.345 -0.1277 -0.5077 -0.3404
  231MOL0     C30370   4.165   3.700   3.399  0.2984 -0.0689 -0.3822
  231MOL0     C30371   4.175   3.576   3.493 -0.1106  0.1621  0.4161
  231MOL0     C30372   4.319   3.545   3.549  0.3042 -1.0949  0.0175
  231MOL0     C30373   4.436   3.549   3.445  0.3923 -0.7225 -0.5486
  231MOL0     C30374   4.551   3.469   3.487 -0.3920  0.1282 -0.6566
  231MOL0     C30375   4.629   3.502   3.610 -0.2819 -0.4681 -0.2747
  231MOL0     C30376   4.751   3.413   3.646  0.2947 -0.1832  0.3555
  231MOL0     N30377   4.714   3.288   3.721 -0.3236 -0.1874 -0.6031
  231MOL0     C30378   4.659   3.171   3.668 -0.1929  0.1028  0.4971
  231MOL0     C30379   4.636   3.094   3.777 -0.6432 -0.4926 -0.2837
  231MOL0     C30380   4.558   2.969   3.791  0.3487 -0.5007  0.2069
  231MOL0     C30381   4.441   2.966   3.694 -0.1169 -0.6821 -0.6000
  231MOL0     C30382   4.329   3.060   3.724 -0.3315  0.5303 -0.7689
  231MOL0     C30383   4.194   3.038   3.654  0.2233  0.3016 -1.4516
  231MOL0     O30384   4.106   3.153   3.680 -0.0976 -0.1646  0.3112
  231MOL0     C30385   3.966   3.135   3.684 -0.2435  0.3109  0.0834
  231MOL0     C30386   3.899   3.246   3.738 -0.1754 -0.0854 -0.3199
  231MOL0     C30387   3.755   3.250   3.751 -0.0710  1.1051  0.7038
  231MOL0     C30388   3.680   3.140   3.706  0.9542  1.4298  0.3992
  231MOL0     C30389   3.527   3.142   3.728 -0.0728  0.1118 -0.2297
  231MOL0     O30390   3.477   3.235   3.812  0.2560 -0.5138  0.0167
  231MOL0     C30391   3.340   3.231   3.839 -0.2190  0.3204  0.3636
  231MOL0     C30392   3.245   3.281   3.752  0.3994 -0.2821  0.7640
  231MOL0     C30393   3.109   3.294   3.783 -0.5191  0.9946 -0.1883
  231MOL0     C30394   3.067   3.255   3.909  0.2473 -0.2948  0.2273
  231MOL0     O30395   2.936   3.255   3.926  0.1239  0.1266 -1.1058
  231MOL0     C30396   2.875   3.131   3.958  0.2710  0.1778 -0.3535
  231MOL0     C30397   2.801   3.147   4.085  0.5513  0.6598  0.0337
  231MOL0     C30398   2.702   3.268   4.083  0.6428 -0.0111  0.4456
  231MOL0     C30399   2.643   3.300   4.221 -0.0698  0.1359  0.1521
  231MOL0     C30400   2.574   3.189   4.290  0.2510  0.2760 -0.0853
  231MOL0     C30401   2.485   3.243   4.400  0.0802 -0.2002 -0.1629
  231MOL0     C30402   2.395   3.133   4.453  0.2472 -0.0465 -0.7767
  231MOL0     C30403   2.260   3.191   4.493  0.2467 -0.1650 -0.4537
  231MOL0    Cl30404   2.155   3.055   4.546  0.0136 -0.5633  0.3842
  231MOL0     C30405   3.161   3.203   3.999  0.2422 -0.7429  0.1756
  231MOL0     C30406   3.299   3.182   3.964 -0.2219  0.1607  0.5315
  231MOL0     O30407   3.457   3.051   3.682 -0.2201  0.0464 -0.1719
  231MOL0     C30408   3.747   3.034   3.644 -0.0256 -0.6429 -0.3231
  231MOL0     C30409   3.884   3.037   3.629  0.2969  1.3418 -0.0702
  231MOL0     N30410   4.691   3.153   3.887  0.0104  0.2881  0.5680
  231MOL0     N30411   4.737   3.267   3.855  0.7297  0.5103  0.4651
  231MOL0     C30412   3.705   3.567   3.445 -0.0174 -0.5107  0.0253
  231MOL0     C30413   3.570   3.558   3.422 -0.2765 -0.1734  0.3016
  231MOL0     C30414   3.158   3.549   3.254 -0.2696  0.7413 -0.0818
  231MOL0     C30415   3.137   3.651   3.162  0.0570  0.1489 -0.4859
  231MOL0     C30416   3.004   3.663   3.105 -0.5361 -0.3793  0.9728
  231MOL0     C30417   2.896   3.585   3.146  0.3265 -0.0604 -0.0170
  231MOL0     O30418   2.774   3.612   3.089  0.4827  0.3329  0.4794
  231MOL0     C30419   2.655   3.533   3.140 -0.3977 -0.7687  0.4703
  231MOL0     C30420   2.533   3.552   3.058 -0.3230  0.5220  0.0125
  231MOL0     C30421   2.416   3.485   3.125  0.5664  0.1821  0.7066
  231MOL0     C30422   2.282   3.521   3.064 -0.4424  0.2363  0.8392
  231MOL0     C30423   2.224   3.642   3.113 -0.2299  0.6088  0.1896
  231MOL0     C30424   2.172   3.750   3.153  0.1318  0.2386 -0.7270
  231MOL0     C30425   2.919   3.489   3.244  0.3719 -0.5894  0.3731
  231MOL0     C30426   3.043   3.474   3.299 -0.4946  1.1752  1.2241
  231MOL0     H30427   3.548   3.715   3.130 -0.0540 -0.7223  0.0296
  231MOL0     H30428   3.809   3.748   3.174 -1.3903  4.6818  1.0643
  231MOL0     H30429   3.984   3.803   3.411 -0.2888 -2.2494  1.6865
  231MOL0     H30430   4.019   3.770   3.245 -1.3189  0.6536  0.1929
  231MOL0     H30431   4.190   3.789   3.458  1.2409 -1.6489  1.7220
  231MOL0     H30432   4.223   3.688   3.307  0.4522  0.7775 -0.4054
  231MOL0     H30433   4.146   3.487   3.437  0.4381  0.3618 -0.1950
  231MOL0     H30434   4.112   3.581   3.582  0.6610 -1.5109  1.1017
  231MOL0     H30435   4.350   3.614   3.629  0.2365 -0.1232 -0.7806
  231MOL0     H30436   4.311   3.448   3.599  0.1651  0.1550  2.6302
  231MOL0     H30437   4.468   3.654   3.441  0.3533 -0.6241  1.0057
  231MOL0     H30438   4.400   3.519   3.347 -0.0653  0.0753 -0.6301
  231MOL0     H30439   4.631   3.470   3.414  0.2241 -0.7390 -0.0161
  231MOL0     H30440   4.501   3.372   3.495 -0.1890  0.0815  0.1869
  231MOL0     H30441   4.658   3.606   3.594  0.1059 -0.2529  1.6201
  231MOL0     H30442   4.558   3.508   3.693 -1.2185  2.4573 -1.1557
  231MOL0     H30443   4.820   3.476   3.703 -0.4795 -0.8476  2.0946
  231MOL0     H30444   4.799   3.379   3.554 -3.0072 -1.4575 -1.0272
  231MOL0     H30445   4.638   3.137   3.567  3.9820  2.0801 -1.2839
  231MOL0     H30446   4.529   2.959   3.896 -0.6602 -1.1268 -0.1247
  231MOL0     H30447   4.627   2.886   3.773  3.4155  1.5473  1.5191
  231MOL0     H30448   4.389   2.870   3.688 -0.4922 -0.4877 -0.4869
  231MOL0     H30449   4.478   2.980   3.592  0.0957  0.4553 -0.3891
  231MOL0     H30450   4.303   3.058   3.831  0.2768 -0.9564 -0.6220
  231MOL0     H30451   4.359   3.162   3.698  2.2616  0.2329  0.6543
  231MOL0     H30452   4.143   2.946   3.685  0.6003  0.3571 -0.6423
  231MOL0     H30453   4.211   3.036   3.546 -0.3094 -1.4592 -1.5362
  231MOL0     H30454   3.960   3.321   3.787  3.1621 -2.0571 -1.1247
  231MOL0     H30455   3.700   3.330   3.799 -0.9689  0.9679 -0.0734
  231MOL0     H30456   3.280   3.303   3.651 -2.0084 -0.5185 -0.1869
  231MOL0     H30457   3.050   3.313   3.694 -1.7486 -1.2414  0.0995
  231MOL0     H30458   2.945   3.049   3.972 -1.3013 -0.8241  2.4165
  231MOL0     H30459   2.803   3.115   3.878 -2.3478  2.7203  1.2569
  231MOL0     H30460   2.869   3.168   4.168 -0.2597  3.0111  0.1868
  231MOL0     H30461   2.738   3.062   4.110  0.0591  1.0133  0.0087
  231MOL0     H30462   2.621   3.252   4.012  1.3290 -1.6554 -0.0124
  231MOL0     H30463   2.740   3.365   4.048 -0.8496  0.0229 -1.1827
  231MOL0     H30464   2.717   3.342   4.289  0.1569 -0.2927  0.1698
  231MOL0     H30465   2.575   3.381   4.192  0.2207  1.0611  1.9256
  231MOL0     H30466   2.645   3.110   4.317  0.8044 -0.1272 -2.4673
  231MOL0     H30467   2.508   3.144   4.215 -2.0035 -0.1501  2.0432
  231MOL0     H30468   2.418   3.315   4.352 -0.5983 -0.7278 -0.0389
  231MOL0     H30469   2.542   3.294   4.477 -2.0084  0.7909  0.8024
  231MOL0     H30470   2.379   3.046   4.389  1.2373 -0.8976  0.0906
  231MOL0     H30471   2.442   3.086   4.540 -3.8449 -0.1783  1.6392
  231MOL0     H30472   2.212   3.239   4.407  1.3557  0.7478 -0.5878
  231MOL0     H30473   2.276   3.268   4.569  0.3068  0.2475 -0.8796
  231MOL0     H30474   3.123   3.169   4.095 -0.7661  1.6927  0.7217
  231MOL0     H30475   3.364   3.128   4.032 -0.4169  1.0096  1.4142
  231MOL0     H30476   3.684   2.954   3.606  0.9580 -0.7629 -1.7756
  231MOL0     H30477   3.935   2.957   3.577 -0.6216 -0.2503  1.3696
  231MOL0     H30478   3.752   3.522   3.532  1.3662 -0.1962 -0.5248
  231MOL0     H30479   3.497   3.518   3.492 -0.9906  4.4799  2.6326
  231MOL0     H30480   3.213   3.715   3.118  0.6904  0.8948  1.5508
  231MOL0     H30481   2.984   3.731   3.023 -1.2695  1.1707  2.3498
  231MOL0     H30482   2.628   3.560   3.243 -2.3839  0.1223 -0.2506
  231MOL0     H30483   2.683   3.427   3.136  0.4514 -0.6934  2.7403
  231MOL0     H30484   2.522   3.660   3.070  1.0593  0.6249  0.4536
  231MOL0     H30485   2.550   3.512   2.957  1.8386  2.8668 -0.6549
  231MOL0     H30486   2.413   3.496   3.234  1.5235 -0.0789  0.7724
  231MOL0     H30487   2.443   3.380   3.110  1.1196  0.4884 -0.5627
  231MOL0     H30488   2.291   3.530   2.955  2.3780 -1.2774  0.8705
  231MOL0     H30489   2.223   3.440   3.108  0.5467 -1.3463 -0.6051
  231MOL0     H30490   2.143   3.848   3.184 -1.7900 -0.6166  0.4143
  231MOL0     H30491   2.845   3.422   3.285  3.5646 -5.1557 -0.5921
  231MOL0     H30492   3.063   3.399   3.375 -0.1138 -0.3656 -0.3282
  232MOL0     O30493   9.929   2.259  10.386 -0.7810 -0.3860 -0.4199
  232MOL0     C30494  10.013   2.333  10.441  0.1395  0.3021 -0.3264
  232MOL0     O30495   9.980   2.457  10.487 -0.3621  0.0494  0.8779
  232MOL0     C30496   9.857   2.508  10.506 -0.8020 -0.8038  0.5735
  232MOL0     C30497   9.831   2.639  10.456 -0.1543  0.4517 -0.6065
  232MOL0     C30498   9.702   2.696  10.462  0.1467 -0.0975 -0.8452
  232MOL0     C30499   9.593   2.624  10.507  0.1897  0.8306  0.4888
  232MOL0     O30500   9.469   2.683  10.513 -0.1290 -0.1352  0.2462
  232MOL0     C30501   9.353   2.619  10.452 -0.2949  0.7867 -0.0197
  232MOL0     C30502   9.237   2.602  10.552 -0.1439 -0.0415  0.2807
  232MOL0     C30503   9.105   2.563  10.490 -0.0986 -0.2915  0.8503
  232MOL0     C30504   9.063   2.435  10.559 -0.1706 -0.8981 -0.6278
  232MOL0     C30505   8.928   2.407  10.506 -0.1427 -0.3441  0.8392
  232MOL0     C30506   8.867   2.289  10.566 -0.5110  0.1737 -1.3066
  232MOL0     C30507   8.718   2.285  10.523 -0.1978 -0.3607  0.6251
  232MOL0     C30508   8.633   2.206  10.616 -0.6651  0.2685 -0.9475
  232MOL0     N30509   8.495   2.205  10.578 -0.1932  0.7352 -0.1067
  232MOL0     C30510   8.443   2.115  10.493  0.4506  0.3156 -0.3157
  232MOL0     C30511   8.306   2.161  10.472 -0.7448  0.0049 -0.2646
  232MOL0     C30512   8.210   2.095  10.383 -0.1096  0.5534 -0.1682
  232MOL0     C30513   8.157   1.963  10.441 -0.1468 -0.3207 -1.4419
  232MOL0     C30514   8.043   1.989  10.539  0.0866  0.0255 -0.1027
  232MOL0     C30515   8.028   1.871  10.630 -1.0682  0.5442 -0.7033
  232MOL0     O30516   8.019   1.744  10.563 -0.4205 -0.1836  0.0741
  232MOL0     C30517   7.915   1.724  10.475  0.2201  0.2628  0.7777
  232MOL0     C30518   7.938   1.649  10.360  0.0841 -0.1213 -0.3750
  232MOL0     C30519   7.835   1.628  10.262  0.1275 -0.0118 -0.7316
  232MOL0     C30520   7.709   1.682  10.273  0.2865 -0.1521 -1.1635
  232MOL0     C30521   7.595   1.659  10.180 -0.0519  0.2924  0.7379
  232MOL0     O30522   7.612   1.563  10.088 -0.0123  0.1240 -0.0884
  232MOL0     C30523   7.511   1.534  10.000 -0.2985  0.1749 -0.1843
  232MOL0     C30524   7.538   1.525   9.861 -0.3580  0.9218  0.3930
  232MOL0     C30525   7.445   1.505   9.763  0.3598 -0.3464 -0.0719
  232MOL0     C30526   7.308   1.477   9.803 -0.4711 -0.4661 -0.0316
  232MOL0     O30527   7.216   1.464   9.702 -0.2238 -0.3121  0.0112
  232MOL0     C30528   7.096   1.401   9.740 -0.2950  0.2253 -1.4961
  232MOL0     C30529   7.004   1.392   9.620 -0.2306 -0.3577  0.7727
  232MOL0     C30530   6.948   1.527   9.562 -0.3811  0.4010  0.1983
  232MOL0     C30531   6.804   1.508   9.510 -0.2143 -0.3923  0.7358
  232MOL0     C30532   6.756   1.640   9.453  0.1916  0.3247 -0.1813
  232MOL0     C30533   6.608   1.609   9.418  0.2770 -0.0174  0.5866
  232MOL0     C30534   6.542   1.735   9.360  0.3571  0.1921 -0.5856
  232MOL0     C30535   6.405   1.723   9.294  0.4928  0.4430 -0.2766
  232MOL0    Cl30536   6.310   1.579   9.362  0.0894  0.0364 -0.3735
  232MOL0     C30537   7.281   1.467   9.941 -0.0856  0.2416 -0.1098
  232MOL0     C30538   7.378   1.493  10.038  0.5983 -0.7632 -0.6688
  232MOL0     O30539   7.492   1.721  10.196  0.1156 -0.1896  0.6328
  232MOL0     C30540   7.678   1.757  10.391  1.1035  1.0845  0.4346
  232MOL0     C30541   7.783   1.767  10.491 -0.4383 -0.6901 -0.8560
  232MOL0     N30542   8.282   2.250  10.570  0.3880  0.2722  0.0867
  232MOL0     N30543   8.393   2.276  10.635 -0.6217 -0.0754  0.1096
  232MOL0     C30544   9.614   2.495  10.555 -0.5447 -0.2670  0.0928
  232MOL0     C30545   9.740   2.438  10.556 -0.1679 -0.2821 -0.5182
  232MOL0     C30546  10.152   2.292  10.450  0.4350  0.5844  0.2051
  232MOL0     C30547  10.192   2.162  10.434  0.2353 -0.0959  0.7324
  232MOL0     C30548  10.323   2.122  10.437 -0.1494  0.0998  0.5649
  232MOL0     C30549  10.420   2.222  10.467  0.0453 -0.0317 -0.3992
  232MOL0     O30550  10.539   2.164  10.478 -0.6006 -0.3486  0.2642
  232MOL0     C30551  10.635   2.244  10.558  0.9930 -0.0011 -0.4105
  232MOL0     C30552  10.731   2.154  10.630  0.4167 -0.6526  0.1732
  232MOL0     C30553  10.662   2.049  10.717  0.1004  0.6411  0.5872
  232MOL0     C30554  10.761   1.991  10.825  0.6601 -0.9852  0.4054
  232MOL0     C30555  10.900   1.958  10.784  0.1472 -0.5612  0.5763
  232MOL0     C30556  11.018   1.946  10.756 -0.1231 -0.0486 -0.4928
  232MOL0     C30557  10.384   2.355  10.475  0.0708 -0.2201 -0.0702
  232MOL0     C30558  10.253   2.390  10.464  0.3854 -0.0367  0.0479
  232MOL0     H30559   9.911   2.697  10.409  0.1084 -1.5408 -2.8037
  232MOL0     H30560   9.698   2.796  10.419  3.4749  0.6017  0.2494
  232MOL0     H30561   9.380   2.524  10.404  2.4000  0.1099  2.5307
  232MOL0     H30562   9.332   2.676  10.361  0.7391 -0.3994 -1.0348
  232MOL0     H30563   9.207   2.702  10.584  0.2695 -0.1239  0.9467
  232MOL0     H30564   9.264   2.548  10.643 -1.2097 -1.6172 -0.2826
  232MOL0     H30565   9.102   2.556  10.381  1.0407 -2.6568  0.8983
  232MOL0     H30566   9.024   2.632  10.515 -1.2022 -1.1275 -0.2728
  232MOL0     H30567   9.128   2.351  10.534  0.1981 -0.6386 -0.5516
  232MOL0     H30568   9.056   2.451  10.667  1.3802 -1.4189 -0.4185
  232MOL0     H30569   8.937   2.396  10.397  1.3840 -1.7878  1.0869
  232MOL0     H30570   8.865   2.495  10.524  0.2792  0.0303  0.5229
  232MOL0     H30571   8.877   2.298  10.674  1.8802 -0.6627 -1.3893
  232MOL0     H30572   8.926   2.200  10.543 -0.5962 -0.0582 -0.6505
  232MOL0     H30573   8.669   2.382  10.513 -0.5498 -0.6423 -0.5858
  232MOL0     H30574   8.705   2.245  10.422 -0.0947  2.0442 -0.3963
  232MOL0     H30575   8.640   2.247  10.717 -0.9050  0.5555 -1.0443
  232MOL0     H30576   8.664   2.101  10.616 -0.9816  0.1644  0.0481
  232MOL0     H30577   8.497   2.041  10.434 -0.2964 -0.7188  0.2671
  232MOL0     H30578   8.257   2.070  10.287 -2.0375 -2.3525 -0.4626
  232MOL0     H30579   8.136   2.169  10.353  3.0548  3.5178 -1.4060
  232MOL0     H30580   8.233   1.910  10.498 -1.9379  1.6758  3.2791
  232MOL0     H30581   8.126   1.901  10.356 -0.0902 -1.0969 -0.9017
  232MOL0     H30582   8.073   2.078  10.597  1.6347 -0.3892 -0.2314
  232MOL0     H30583   7.949   1.997  10.483 -0.1718 -1.2335  0.1203
  232MOL0     H30584   7.941   1.896  10.691  0.7167  1.3145  1.6622
  232MOL0     H30585   8.113   1.869  10.698  1.2288 -2.4902 -3.3898
  232MOL0     H30586   8.033   1.598  10.352 -0.5372 -1.1721 -1.4112
  232MOL0     H30587   7.855   1.556  10.182 -0.0644 -2.4094  1.2628
  232MOL0     H30588   7.639   1.552   9.832 -0.7845  1.2278 -0.8539
  232MOL0     H30589   7.450   1.520   9.656 -1.4930  0.4105 -0.0961
  232MOL0     H30590   7.047   1.451   9.824  0.4301 -2.8325  0.8993
  232MOL0     H30591   7.124   1.301   9.774 -1.4449  0.2803 -0.3014
  232MOL0     H30592   6.920   1.324   9.640 -1.7189  0.7693 -1.2412
  232MOL0     H30593   7.057   1.352   9.533 -0.7745  0.6621 -0.0498
  232MOL0     H30594   7.014   1.564   9.483 -1.4907 -0.2821 -1.1116
  232MOL0     H30595   6.938   1.602   9.640 -3.6200 -0.2730  0.5930
  232MOL0     H30596   6.809   1.435   9.429 -1.0433  0.8199 -0.4393
  232MOL0     H30597   6.740   1.463   9.587  0.6765 -0.9339  1.1735
  232MOL0     H30598   6.818   1.671   9.368  1.3097 -0.0565  0.4717
  232MOL0     H30599   6.754   1.723   9.524  1.7649 -0.1335  0.4588
  232MOL0     H30600   6.553   1.575   9.505 -1.6370 -0.6417 -0.8017
  232MOL0     H30601   6.615   1.537   9.336  0.9372  0.2150  0.4292
  232MOL0     H30602   6.548   1.802   9.446  2.9576 -3.1134  2.1170
  232MOL0     H30603   6.597   1.777   9.275 -0.5001 -0.2310 -1.3692
  232MOL0     H30604   6.419   1.716   9.185  0.8626  0.8330 -0.2584
  232MOL0     H30605   6.347   1.813   9.314 -0.1004 -0.2600  1.2524
  232MOL0     H30606   7.184   1.459   9.987 -0.6887  2.3065 -0.9288
  232MOL0     H30607   7.355   1.490  10.144 -1.2373 -0.1998 -1.0169
  232MOL0     H30608   7.577   1.789  10.411  0.0820 -2.4629  1.8042
  232MOL0     H30609   7.764   1.816  10.586  0.5114 -3.3937  0.8246
  232MOL0     H30610   9.526   2.437  10.580 -1.3007  1.1435  0.8206
  232MOL0     H30611   9.759   2.340  10.600  1.9469  1.7013  3.6083
  232MOL0     H30612  10.122   2.080  10.423 -0.2414  0.5165 -1.2335
  232MOL0     H30613  10.356   2.019  10.431  0.1227  0.1551  1.0359
  232MOL0     H30614  10.591   2.315  10.629  1.3468 -1.2500  1.0994
  232MOL0     H30615  10.688   2.303  10.482 -0.7312  1.8972 -0.2190
  232MOL0     H30616  10.771   2.091  10.550 -1.9441 -0.2125 -1.4648
  232MOL0     H30617  10.800   2.214  10.690  1.3505 -1.1470 -0.3664
  232MOL0     H30618  10.630   1.966  10.653 -0.6173 -0.4216  2.2655
  232MOL0     H30619  10.563   2.078  10.753 -1.5686 -0.7754 -2.4547
  232MOL0     H30620  10.769   2.073  10.897  1.8409 -1.4677  0.8521
  232MOL0     H30621  10.722   1.904  10.877  0.1538 -2.4983 -2.2997
  232MOL0     H30622  11.118   1.938  10.718  0.5556  0.4393  1.1007
  232MOL0     H30623  10.467   2.423  10.486 -0.3104  0.1914  0.3323
  232MOL0     H30624  10.229   2.496  10.463  0.0843 -0.1033  0.3177
  233MOL0     O30625   8.020   1.926   3.259 -0.4427 -0.5337 -0.4262
  233MOL0     C30626   8.068   1.997   3.351  0.1532  0.3011  0.2838
  233MOL0     O30627   8.006   2.104   3.400  0.3357 -0.3846  0.3113
  233MOL0     C30628   7.880   2.131   3.342 -0.7778  0.6291 -0.4278
  233MOL0     C30629   7.764   2.059   3.353 -0.2916 -0.9714 -0.0933
  233MOL0     C30630   7.653   2.088   3.273  0.3889 -0.9761 -0.2536
  233MOL0     C30631   7.655   2.193   3.176  0.3355 -0.5315 -0.2169
  233MOL0     O30632   7.553   2.211   3.087 -0.1861  0.2576  0.2553
  233MOL0     C30633   7.580   2.280   2.965 -0.4475 -0.4878  0.6273
  233MOL0     C30634   7.455   2.290   2.880 -0.8632 -0.0213 -0.3050
  233MOL0     C30635   7.409   2.150   2.837 -0.4338 -0.4776 -0.4532
  233MOL0     C30636   7.260   2.152   2.816  1.0220 -0.5926 -0.4684
  233MOL0     C30637   7.203   2.015   2.804  0.8765 -0.2206 -0.3269
  233MOL0     C30638   7.060   2.010   2.751 -0.4611  0.6429 -0.8886
  233MOL0     C30639   6.970   2.016   2.880 -0.1763  0.4973  0.4785
  233MOL0     C30640   6.830   2.038   2.820 -0.0547 -0.3791 -0.2423
  233MOL0     N30641   6.779   1.935   2.740  0.1005  0.3688 -0.2517
  233MOL0     C30642   6.742   1.817   2.795 -0.5418  0.0536 -0.0599
  233MOL0     C30643   6.685   1.759   2.686  0.2833 -0.7005  0.7983
  233MOL0     C30644   6.620   1.619   2.686  0.4166 -0.8028  0.4429
  233MOL0     C30645   6.470   1.642   2.671 -0.0872  0.6794  0.4108
  233MOL0     C30646   6.397   1.520   2.627  0.5528 -0.0041  0.8513
  233MOL0     C30647   6.251   1.550   2.609 -0.6837  0.9084  0.4998
  233MOL0     O30648   6.183   1.604   2.721  0.2025 -0.0765  0.5285
  233MOL0     C30649   6.054   1.582   2.737 -0.3480 -0.0878 -0.2355
  233MOL0     C30650   5.962   1.663   2.681  0.2262 -0.0505  0.4755
  233MOL0     C30651   5.829   1.646   2.717 -0.5089  0.5028 -0.3954
  233MOL0     C30652   5.783   1.529   2.776 -0.7938 -0.2937 -0.3410
  233MOL0     C30653   5.640   1.518   2.821 -1.2617  0.1648  0.3951
  233MOL0     O30654   5.578   1.400   2.829  0.2117  0.9267  0.5136
  233MOL0     C30655   5.462   1.388   2.895  0.3836  0.2074  0.7740
  233MOL0     C30656   5.369   1.290   2.851  0.0480 -0.7652 -0.4417
  233MOL0     C30657   5.242   1.271   2.917 -0.8520 -0.0530  0.7354
  233MOL0     C30658   5.201   1.349   3.027  0.0804  0.3708  0.1135
  233MOL0     O30659   5.094   1.315   3.096 -0.6197 -0.7466 -0.0491
  233MOL0     C30660   4.973   1.312   3.025 -0.1751 -0.4534  0.5774
  233MOL0     C30661   4.853   1.342   3.118 -0.1870 -0.2885 -0.9430
  233MOL0     C30662   4.723   1.373   3.047 -0.9127  0.1757  0.0501
  233MOL0     C30663   4.604   1.398   3.136  0.5925 -0.7267 -0.1305
  233MOL0     C30664   4.502   1.487   3.065  0.6871  0.5024  0.0015
  233MOL0     C30665   4.385   1.507   3.162  0.5222  0.2233 -0.1455
  233MOL0     C30666   4.263   1.545   3.082 -0.0914 -0.1250 -0.5339
  233MOL0     C30667   4.158   1.607   3.179 -0.1587 -0.6399 -0.6937
  233MOL0    Cl30668   4.005   1.626   3.081 -0.0670  0.3871 -0.4612
  233MOL0     C30669   5.300   1.440   3.069 -0.2451 -0.0247  0.7868
  233MOL0     C30670   5.426   1.459   3.007  0.2705 -0.2189  0.1854
  233MOL0     O30671   5.589   1.627   2.853 -0.1987 -0.2847  0.0899
  233MOL0     C30672   5.875   1.431   2.817 -0.0340 -1.1020 -0.9063
  233MOL0     C30673   6.013   1.462   2.799 -0.0608  0.3611 -0.6303
  233MOL0     N30674   6.690   1.845   2.571 -0.2454 -0.2285 -0.0952
  233MOL0     N30675   6.760   1.947   2.609  0.4284 -0.0086 -0.8869
  233MOL0     C30676   7.779   2.266   3.174  0.2613 -0.2843  0.4330
  233MOL0     C30677   7.888   2.228   3.249  0.3379  0.2286 -0.0119
  233MOL0     C30678   8.199   1.965   3.409 -0.2517 -0.5078 -0.1287
  233MOL0     C30679   8.255   2.041   3.509 -0.8446  0.1238 -0.6561
  233MOL0     C30680   8.369   2.004   3.571 -0.2663  0.0080 -0.1820
  233MOL0     C30681   8.436   1.885   3.541 -0.9595  0.1443 -0.0740
  233MOL0     O30682   8.547   1.863   3.621 -0.5444 -0.3526 -0.4642
  233MOL0     C30683   8.603   1.734   3.622 -0.1796 -0.1424 -0.5235
  233MOL0     C30684   8.694   1.717   3.747 -0.0302  0.3486 -0.3639
  233MOL0     C30685   8.717   1.573   3.784  0.8757 -0.3606  0.9532
  233MOL0     C30686   8.759   1.474   3.670 -0.5695 -0.6595  0.2247
  233MOL0     C30687   8.906   1.506   3.642 -0.0954 -0.0933  0.0203
  233MOL0     C30688   9.023   1.532   3.627 -1.2969 -0.4019  0.6205
  233MOL0     C30689   8.389   1.807   3.442  0.8638 -0.7289  0.4516
  233MOL0     C30690   8.272   1.852   3.372 -0.4527 -0.2642 -0.0875
  233MOL0     H30691   7.762   1.977   3.424  2.2088 -1.6820 -0.7106
  233MOL0     H30692   7.565   2.027   3.286  0.6023 -1.1692  0.3369
  233MOL0     H30693   7.658   2.223   2.915 -0.5844 -1.9585  1.9962
  233MOL0     H30694   7.620   2.379   2.984 -0.4079 -0.5816  1.0514
  233MOL0     H30695   7.472   2.364   2.801  0.3853 -0.0215 -0.0455
  233MOL0     H30696   7.370   2.332   2.935  0.2841  0.6218  1.0325
  233MOL0     H30697   7.424   2.075   2.915 -0.3242  1.2288  1.2207
  233MOL0     H30698   7.471   2.116   2.754  0.5702  0.7223 -0.2273
  233MOL0     H30699   7.198   2.198   2.893  0.2801 -0.3460 -1.1948
  233MOL0     H30700   7.231   2.201   2.722  0.6560  1.2438  0.5502
  233MOL0     H30701   7.211   1.959   2.898  5.8469 -2.6804 -1.9168
  233MOL0     H30702   7.263   1.958   2.733  2.4467  1.5178 -0.4549
  233MOL0     H30703   7.038   1.911   2.709 -1.3299  0.3680  0.1701
  233MOL0     H30704   7.041   2.092   2.680  2.2340  0.4901 -1.8942
  233MOL0     H30705   6.976   1.919   2.931  0.2770 -1.3616 -2.8088
  233MOL0     H30706   7.000   2.100   2.942 -4.4796  2.0113  0.8417
  233MOL0     H30707   6.847   2.129   2.762  3.9191 -0.5238  0.4271
  233MOL0     H30708   6.767   2.070   2.904  0.1944 -1.1310  0.2356
  233MOL0     H30709   6.746   1.778   2.896 -3.0416  1.5932  0.7273
  233MOL0     H30710   6.643   1.553   2.770 -0.3789 -0.2009  1.1532
  233MOL0     H30711   6.672   1.566   2.606  2.1654 -3.4336  3.0812
  233MOL0     H30712   6.469   1.716   2.590  0.3959  2.8417  2.2804
  233MOL0     H30713   6.436   1.678   2.768 -0.6545 -0.4723  0.6548
  233MOL0     H30714   6.441   1.491   2.531 -1.2280  4.1714 -1.4922
  233MOL0     H30715   6.405   1.435   2.696 -0.4688 -1.3382 -0.5974
  233MOL0     H30716   6.195   1.459   2.586 -0.3657  1.5239 -3.3886
  233MOL0     H30717   6.242   1.620   2.525  1.2028 -0.8827 -1.3105
  233MOL0     H30718   5.986   1.750   2.621 -2.1813  0.3283 -0.0283
  233MOL0     H30719   5.760   1.726   2.694 -0.8169  1.0285  2.0790
  233MOL0     H30720   5.405   1.220   2.775 -2.7661 -0.5531 -2.1243
  233MOL0     H30721   5.181   1.192   2.874  0.5124 -0.1922 -1.0620
  233MOL0     H30722   4.953   1.214   2.980 -0.7716 -0.3547  0.6102
  233MOL0     H30723   4.972   1.386   2.945 -0.9751  0.6341  1.5468
  233MOL0     H30724   4.874   1.428   3.182 -2.2183 -0.6486  0.2758
  233MOL0     H30725   4.837   1.251   3.177  0.0124  0.9407  1.1067
  233MOL0     H30726   4.696   1.296   2.975 -3.4823 -1.1209  2.2568
  233MOL0     H30727   4.751   1.464   2.991  2.4049 -0.1986  0.8530
  233MOL0     H30728   4.558   1.304   3.168  1.6523 -0.7590  1.4129
  233MOL0     H30729   4.629   1.449   3.230 -1.0631  0.3508 -0.2320
  233MOL0     H30730   4.483   1.426   2.975 -0.9905  0.3040  0.4569
  233MOL0     H30731   4.549   1.581   3.035  0.6894  0.2461 -0.8379
  233MOL0     H30732   4.412   1.588   3.230 -0.7680  1.6333 -1.2656
  233MOL0     H30733   4.350   1.420   3.219 -2.5447 -0.2831 -2.5660
  233MOL0     H30734   4.278   1.609   2.995  1.2712 -0.8196 -0.8296
  233MOL0     H30735   4.217   1.459   3.032  0.5693  0.1398 -1.6251
  233MOL0     H30736   4.180   1.711   3.204  0.2051 -0.8898  0.0791
  233MOL0     H30737   4.135   1.539   3.262  1.8578 -2.3052 -1.3870
  233MOL0     H30738   5.271   1.499   3.155  0.5781 -1.4211  2.0713
  233MOL0     H30739   5.501   1.526   3.047  1.0788 -2.6384  3.1467
  233MOL0     H30740   5.857   1.342   2.877 -0.1170  0.1979  1.0856
  233MOL0     H30741   6.082   1.388   2.839 -3.6666 -3.2382 -0.4551
  233MOL0     H30742   7.795   2.340   3.096 -0.7571 -0.5126 -0.0109
  233MOL0     H30743   7.991   2.263   3.240  0.1728  0.3237 -1.8901
  233MOL0     H30744   8.207   2.134   3.541  1.3251  0.8965  0.5859
  233MOL0     H30745   8.409   2.071   3.646 -0.3353 -1.1781  0.9408
  233MOL0     H30746   8.667   1.728   3.534 -1.6408  0.9126 -1.6919
  233MOL0     H30747   8.530   1.654   3.609 -1.1361  0.9544 -2.1870
  233MOL0     H30748   8.793   1.760   3.730  1.5210 -2.6301  0.4277
  233MOL0     H30749   8.647   1.762   3.835 -0.0645  0.2922 -0.3542
  233MOL0     H30750   8.620   1.538   3.820  0.8123 -3.0958 -1.4969
  233MOL0     H30751   8.791   1.565   3.864  0.3661 -0.6196  1.4064
  233MOL0     H30752   8.747   1.373   3.710 -1.1895 -0.5775  0.2485
  233MOL0     H30753   8.688   1.479   3.587  0.6114  1.4528 -0.7511
  233MOL0     H30754   9.127   1.547   3.606 -1.3551 -0.1884  0.4758
  233MOL0     H30755   8.440   1.717   3.409  0.2744 -0.2405 -1.9891
  233MOL0     H30756   8.233   1.796   3.288 -0.3151 -0.9614  0.2978
  234MOL0     O30757   9.337   7.058   8.446  0.0792 -0.5543 -0.0818
  234MOL0     C30758   9.361   7.168   8.502  0.9965 -0.3109  0.3883
  234MOL0     O30759   9.283   7.229   8.588 -0.4094  0.0118 -0.0765
  234MOL0     C30760   9.182   7.161   8.645 -0.0480  0.2993  0.6013
  234MOL0     C30761   9.212   7.065   8.746 -0.0370  0.1368 -0.0102
  234MOL0     C30762   9.108   6.992   8.801  0.4022 -0.8757  0.4420
  234MOL0     C30763   8.974   7.020   8.761 -0.5479 -0.0576 -0.1864
  234MOL0     O30764   8.881   6.944   8.821  0.1634  0.0280 -0.2432
  234MOL0     C30765   8.750   6.991   8.825  1.9223  0.7874  0.1447
  234MOL0     C30766   8.670   6.891   8.914 -1.2124 -0.8623  0.2974
  234MOL0     C30767   8.645   6.941   9.062  0.2547  0.3227 -0.4710
  234MOL0     C30768   8.562   6.851   9.150 -0.1461 -0.8287  0.2367
  234MOL0     C30769   8.498   6.918   9.267 -0.1738  0.2394 -0.2266
  234MOL0     C30770   8.590   6.990   9.373  0.7534  1.2909 -0.2107
  234MOL0     C30771   8.516   7.012   9.504  0.0115 -0.3316  0.6607
  234MOL0     C30772   8.411   7.123   9.523 -0.2953 -0.1886 -0.2619
  234MOL0     N30773   8.360   7.131   9.656 -0.4750  0.0088 -0.0250
  234MOL0     C30774   8.414   7.084   9.772 -0.2755  0.0307 -0.3302
  234MOL0     C30775   8.313   7.098   9.864  0.6230 -0.6691  0.3242
  234MOL0     C30776   8.323   7.055  10.006 -0.2631  0.6497  0.5282
  234MOL0     C30777   8.411   7.150  10.100 -0.3332  1.3947 -0.2950
  234MOL0     C30778   8.444   7.068  10.228 -0.1595 -0.2041 -0.2700
  234MOL0     C30779   8.501   7.158  10.337  0.3393 -0.1053  0.1130
  234MOL0     O30780   8.419   7.274  10.361 -0.4434  0.0618 -0.3278
  234MOL0     C30781   8.290   7.257  10.413 -0.6637 -0.4899  0.0459
  234MOL0     C30782   8.210   7.372  10.408 -0.6973 -0.0734  0.1441
  234MOL0     C30783   8.076   7.365  10.455  0.7546 -0.1581 -0.8377
  234MOL0     C30784   8.021   7.256  10.524 -1.5159  1.2871 -0.3013
  234MOL0     C30785   7.881   7.252  10.576  0.0961 -0.0056  1.2986
  234MOL0     O30786   7.811   7.374  10.587  0.1981  0.2139 -0.0233
  234MOL0     C30787   7.688   7.388  10.631 -0.5401 -0.7318  0.8101
  234MOL0     C30788   7.580   7.300  10.670  0.2330 -0.3199  0.5064
  234MOL0     C30789   7.456   7.328  10.727  0.7540 -0.3633 -0.0574
  234MOL0     C30790   7.431   7.469  10.747  0.8792  0.3406  0.0239
  234MOL0     O30791   7.307   7.520  10.786  0.2774 -0.2773 -0.4077
  234MOL0     C30792   7.203   7.435  10.831 -1.0401 -0.0487 -0.7941
  234MOL0     C30793   7.084   7.515  10.875 -0.1170 -0.1720  0.2714
  234MOL0     C30794   7.110   7.607  11.000  0.3386 -1.3478  0.3342
  234MOL0     C30795   6.959   7.659  11.039 -0.5387  0.4439 -0.4390
  234MOL0     C30796   6.961   7.707  11.184 -0.0415  0.1212 -0.4066
  234MOL0     C30797   6.834   7.786  11.211 -0.5285 -0.0868 -0.4319
  234MOL0     C30798   6.846   7.869  11.340  1.2374 -0.1062  0.3528
  234MOL0     C30799   6.719   7.857  11.415  0.2215  0.6395  0.0908
  234MOL0    Cl30800   6.703   7.695  11.486  0.0604 -0.2337  0.5555
  234MOL0     C30801   7.529   7.562  10.714  0.0839 -0.2527 -0.8544
  234MOL0     C30802   7.649   7.518  10.659  0.1614  0.4096  0.6728
  234MOL0     O30803   7.842   7.152  10.629 -0.3280  0.4382 -0.5604
  234MOL0     C30804   8.107   7.143  10.535 -0.2960  0.0804 -0.1003
  234MOL0     C30805   8.244   7.143  10.481 -0.9316 -0.6808 -0.1386
  234MOL0     N30806   8.203   7.163   9.802 -0.1859 -0.1760  0.6496
  234MOL0     N30807   8.239   7.187   9.681 -0.2254 -0.1240  0.2961
  234MOL0     C30808   8.948   7.133   8.676  0.0321 -0.3047  0.4242
  234MOL0     C30809   9.054   7.204   8.623  0.3670  0.0254  0.3166
  234MOL0     C30810   9.483   7.238   8.464  0.6368  0.0792 -0.4757
  234MOL0     C30811   9.553   7.197   8.347  0.7339 -0.5321 -0.0387
  234MOL0     C30812   9.657   7.276   8.301 -0.5508 -0.6762  0.4202
  234MOL0     C30813   9.709   7.379   8.378 -0.3383  0.3976 -0.5947
  234MOL0     O30814   9.814   7.448   8.322  0.2103 -0.5939 -0.0013
  234MOL0     C30815   9.941   7.419   8.376 -0.6363 -0.3984 -0.5445
  234MOL0     C30816  10.014   7.555   8.412  0.7147  0.2049 -0.4504
  234MOL0     C30817   9.935   7.668   8.496 -0.1028  0.5277  0.5415
  234MOL0     C30818   9.843   7.769   8.413 -0.0094 -0.2689 -0.1347
  234MOL0     C30819   9.802   7.897   8.484 -0.8243  0.4067 -0.0336
  234MOL0     C30820   9.777   7.997   8.538 -0.7863 -0.4720 -0.7060
  234MOL0     C30821   9.649   7.404   8.499  0.0955  0.0550  0.5932
  234MOL0     C30822   9.540   7.335   8.555  0.6462 -0.1228  0.0788
  234MOL0     H30823   9.318   7.060   8.767 -0.1175 -1.5508  0.1251
  234MOL0     H30824   9.131   6.916   8.875  2.7607 -2.6181 -1.8940
  234MOL0     H30825   8.701   6.981   8.727  0.9751  1.3423  0.5547
  234MOL0     H30826   8.754   7.097   8.852  0.6110  1.0811 -0.7295
  234MOL0     H30827   8.725   6.796   8.912 -0.7944 -0.6636 -2.9303
  234MOL0     H30828   8.576   6.871   8.861 -1.5116  2.9444 -0.9219
  234MOL0     H30829   8.592   7.036   9.049 -2.0277 -0.8162 -0.0175
  234MOL0     H30830   8.734   6.957   9.123 -0.2361 -1.3672  0.7773
  234MOL0     H30831   8.488   6.793   9.093 -0.3335 -1.2618  0.9034
  234MOL0     H30832   8.631   6.774   9.185  4.0993  2.4323 -0.1773
  234MOL0     H30833   8.451   6.827   9.305  1.9248 -1.4208 -1.4145
  234MOL0     H30834   8.419   6.982   9.227  1.9212  1.3194 -2.9683
  234MOL0     H30835   8.624   7.079   9.318  0.6020  1.3238 -0.2542
  234MOL0     H30836   8.679   6.932   9.398  1.6584  1.7334 -2.1758
  234MOL0     H30837   8.472   6.916   9.528  0.6715 -0.3990  1.6748
  234MOL0     H30838   8.592   7.027   9.582 -0.6250 -0.4938  1.3171
  234MOL0     H30839   8.320   7.098   9.468 -2.4539 -0.6824  3.1786
  234MOL0     H30840   8.435   7.226   9.497  0.3878 -0.0312  0.9140
  234MOL0     H30841   8.517   7.055   9.795 -0.8188 -2.0885 -0.3849
  234MOL0     H30842   8.373   6.958  10.017 -0.3395  0.5568  0.0675
  234MOL0     H30843   8.221   7.043  10.043 -0.5620 -0.5456 -0.5947
  234MOL0     H30844   8.354   7.242  10.117 -2.1544  0.2896 -0.0882
  234MOL0     H30845   8.504   7.174  10.049 -0.0845  0.8827 -0.0949
  234MOL0     H30846   8.354   7.020  10.268  0.7287  0.0250  2.2297
  234MOL0     H30847   8.514   6.986  10.208 -1.0255 -1.5924  1.9393
  234MOL0     H30848   8.602   7.189  10.311 -0.6506  1.1318 -2.7081
  234MOL0     H30849   8.508   7.093  10.425  0.7085 -0.7343 -0.3737
  234MOL0     H30850   8.245   7.461  10.358  1.5529 -0.9514  0.0385
  234MOL0     H30851   8.006   7.447  10.446  0.3732 -0.0697  2.0030
  234MOL0     H30852   7.598   7.197  10.638  0.3967  0.5968 -2.7175
  234MOL0     H30853   7.387   7.247  10.748 -1.3294  1.9944  3.1083
  234MOL0     H30854   7.239   7.366  10.908  0.5671 -0.2803 -1.7008
  234MOL0     H30855   7.172   7.369  10.751 -0.6906 -3.0476  1.3644
  234MOL0     H30856   6.996   7.451  10.889 -2.0290  2.2428 -0.1999
  234MOL0     H30857   7.062   7.582  10.792  0.1243 -1.0781 -0.5496
  234MOL0     H30858   7.181   7.687  10.975 -2.1117  1.0758  0.6496
  234MOL0     H30859   7.136   7.549  11.089 -0.7604  0.9049  2.2451
  234MOL0     H30860   6.925   7.737  10.970  0.5190  1.0857 -0.2444
  234MOL0     H30861   6.890   7.573  11.037  2.0052 -1.7173 -1.4761
  234MOL0     H30862   7.050   7.768  11.201 -0.3514  0.6499 -0.6377
  234MOL0     H30863   6.966   7.630  11.261  2.5592 -0.2363 -0.8179
  234MOL0     H30864   6.747   7.720  11.214 -2.0915  1.7712 -1.7842
  234MOL0     H30865   6.826   7.854  11.125  0.4108 -0.7410 -1.0601
  234MOL0     H30866   6.926   7.827  11.403 -2.1006 -5.3399  1.7191
  234MOL0     H30867   6.872   7.973  11.317  2.9375 -0.8418 -1.3069
  234MOL0     H30868   6.648   7.882  11.336  2.9496  1.0353 -2.3843
  234MOL0     H30869   6.707   7.924  11.501 -2.2877 -0.4172  0.6917
  234MOL0     H30870   7.525   7.668  10.737 -0.4875 -0.1065 -1.5777
  234MOL0     H30871   7.716   7.604  10.653  0.5990  0.0418  0.2094
  234MOL0     H30872   8.084   7.055  10.596  0.4103  0.1957  0.3467
  234MOL0     H30873   8.306   7.059  10.509 -0.5186 -0.5747 -0.7179
  234MOL0     H30874   8.848   7.149   8.637  0.6630 -1.0989 -1.6829
  234MOL0     H30875   9.044   7.290   8.557  2.2052 -0.5977 -0.8514
  234MOL0     H30876   9.518   7.122   8.276 -1.3976 -1.7751  2.1813
  234MOL0     H30877   9.700   7.251   8.204 -2.6124  1.2094 -1.0626
  234MOL0     H30878  10.009   7.369   8.307  1.7201  1.6048  0.1788
  234MOL0     H30879   9.932   7.362   8.469 -1.3907 -0.8495 -0.8818
  234MOL0     H30880  10.107   7.537   8.467  1.8855 -2.1594 -2.9887
  234MOL0     H30881  10.040   7.609   8.321 -1.5530  0.0101 -1.2567
  234MOL0     H30882  10.016   7.717   8.551  0.5509 -0.0155  0.0749
  234MOL0     H30883   9.872   7.618   8.570 -1.3893  0.1074 -0.7988
  234MOL0     H30884   9.915   7.811   8.343  0.9835  2.4014  2.2905
  234MOL0     H30885   9.758   7.725   8.359  0.6529  0.2253 -1.6254
  234MOL0     H30886   9.751   8.093   8.579 -0.5067 -1.6390  2.5199
  234MOL0     H30887   9.689   7.492   8.548 -0.7389  1.5778 -1.3189
  234MOL0     H30888   9.508   7.356   8.656 -0.9410  0.9620 -0.5985
  235MOL0     O30889   6.314   4.806   9.536 -0.1995  0.1392 -0.2207
  235MOL0     C30890   6.393   4.895   9.548  0.5599  0.3128  0.5129
  235MOL0     O30891   6.390   5.016   9.470  0.6049 -0.0364  0.2101
  235MOL0     C30892   6.272   5.070   9.414  0.4577 -0.0218 -0.4807
  235MOL0     C30893   6.290   5.183   9.343 -0.7761  0.0117  0.7143
  235MOL0     C30894   6.177   5.259   9.297  0.0029 -0.5109 -0.6408
  235MOL0     C30895   6.043   5.207   9.312 -0.1919 -0.4588 -0.6154
  235MOL0     O30896   5.932   5.272   9.258 -0.2909 -0.4837 -0.6558
  235MOL0     C30897   5.816   5.289   9.349 -1.1003  0.0585  0.6962
  235MOL0     C30898   5.687   5.280   9.267  0.2062  0.1184  0.1948
  235MOL0     C30899   5.638   5.139   9.224 -1.2638 -0.1094 -1.0006
  235MOL0     C30900   5.507   5.142   9.138  0.1273 -1.3426 -0.7278
  235MOL0     C30901   5.384   5.188   9.226  0.0244 -0.2604 -0.5457
  235MOL0     C30902   5.296   5.282   9.150  0.7314  0.8810  0.4245
  235MOL0     C30903   5.192   5.370   9.228  0.1348 -0.0467 -0.9060
  235MOL0     C30904   5.086   5.289   9.289  1.3472 -0.0906  0.8178
  235MOL0     N30905   4.992   5.228   9.195  0.4813 -0.6847 -0.1171
  235MOL0     C30906   4.860   5.261   9.187  0.0372 -0.2756  0.3650
  235MOL0     C30907   4.804   5.155   9.126  1.3766  0.1723  0.6859
  235MOL0     C30908   4.655   5.150   9.100 -0.1972  0.2146 -1.6435
  235MOL0     C30909   4.592   5.009   9.113 -0.8591 -0.3828  0.2803
  235MOL0     C30910   4.438   5.007   9.158 -0.0046  0.3921  0.1699
  235MOL0     C30911   4.352   4.885   9.138 -0.7959  0.8460 -0.7740
  235MOL0     O30912   4.387   4.765   9.212  0.7375  0.9631 -0.6100
  235MOL0     C30913   4.312   4.654   9.181  1.5324 -0.5741  0.3149
  235MOL0     C30914   4.205   4.652   9.099 -0.3093  0.2119  0.3365
  235MOL0     C30915   4.115   4.552   9.093  0.0413 -0.4189 -0.5747
  235MOL0     C30916   4.145   4.434   9.156  0.1102  0.8106  0.4981
  235MOL0     C30917   4.058   4.310   9.150  0.6303  0.0275  0.1776
  235MOL0     O30918   3.941   4.331   9.086 -0.1846 -0.2465 -0.3584
  235MOL0     C30919   3.836   4.247   9.066  0.0616  0.4216  0.5708
  235MOL0     C30920   3.756   4.280   8.956  0.4918 -0.4600 -0.2176
  235MOL0     C30921   3.633   4.219   8.925  0.1390 -0.4027  0.4981
  235MOL0     C30922   3.598   4.106   8.997  0.4104  0.0266 -0.0232
  235MOL0     O30923   3.491   4.033   8.969  0.3473  0.3381  0.2428
  235MOL0     C30924   3.383   4.056   9.062  0.5331  0.1149  0.0695
  235MOL0     C30925   3.258   4.097   8.970 -0.4027 -0.4627 -1.3444
  235MOL0     C30926   3.149   3.991   8.978 -0.5072  0.6213  0.2087
  235MOL0     C30927   3.024   4.023   8.919  0.2025 -1.1151 -0.0360
  235MOL0     C30928   2.930   3.905   8.928 -0.3085 -0.1644 -0.1902
  235MOL0     C30929   2.788   3.962   8.898 -0.9984  0.2146 -0.2605
  235MOL0     C30930   2.689   3.841   8.907  0.0925 -0.7828  0.3414
  235MOL0     C30931   2.575   3.847   8.805  0.1797  0.1708  0.1213
  235MOL0    Cl30932   2.449   3.946   8.884  0.2637  0.0217 -0.0324
  235MOL0     C30933   3.685   4.061   9.095  0.0839 -1.1524  0.2053
  235MOL0     C30934   3.795   4.136   9.135  0.7780  0.6169  0.1008
  235MOL0     O30935   4.095   4.204   9.201 -0.5013 -0.3163 -0.9993
  235MOL0     C30936   4.251   4.431   9.244  0.1564  0.3356  0.1694
  235MOL0     C30937   4.336   4.537   9.262  0.8041 -0.7855  0.9428
  235MOL0     N30938   4.895   5.069   9.094 -0.5052  0.0742 -0.3080
  235MOL0     N30939   5.008   5.111   9.128 -0.8974 -0.3670  0.0827
  235MOL0     C30940   6.032   5.080   9.378  0.4884  0.0329 -0.8607
  235MOL0     C30941   6.139   5.010   9.429 -0.7965 -0.1426  0.3178
  235MOL0     C30942   6.528   4.860   9.597  0.2273  0.1183  0.4951
  235MOL0     C30943   6.644   4.927   9.555 -0.8464 -0.3971  0.1280
  235MOL0     C30944   6.768   4.899   9.607 -0.2340  0.5575  0.5132
  235MOL0     C30945   6.787   4.782   9.674 -0.0172 -0.6672 -0.4900
  235MOL0     O30946   6.907   4.730   9.712 -0.1529  0.4671  0.1474
  235MOL0     C30947   7.024   4.820   9.709  1.1748 -0.4681 -0.0095
  235MOL0     C30948   7.145   4.754   9.764  0.4060  0.0633  0.6674
  235MOL0     C30949   7.129   4.709   9.910  0.2057  0.2216  0.0592
  235MOL0     C30950   7.069   4.820  10.003 -0.2384 -0.3722  0.0844
  235MOL0     C30951   7.134   4.955   9.996  0.4689 -0.2943 -0.0065
  235MOL0     C30952   7.178   5.068   9.993  0.3275  0.6370  0.7289
  235MOL0     C30953   6.673   4.715   9.720 -0.4572 -0.2945  0.2692
  235MOL0     C30954   6.542   4.747   9.687 -0.5562 -0.6052  0.3299
  235MOL0     H30955   6.393   5.218   9.345  0.4066 -3.1070  1.7148
  235MOL0     H30956   6.196   5.356   9.251 -2.4763  0.6806  0.5954
  235MOL0     H30957   5.823   5.391   9.388  0.6882 -0.3478  1.5393
  235MOL0     H30958   5.806   5.226   9.438 -0.9113  1.3017  1.6278
  235MOL0     H30959   5.681   5.351   9.184 -4.2439  0.6046  0.6680
  235MOL0     H30960   5.612   5.332   9.328 -2.5982  1.7470 -4.1731
  235MOL0     H30961   5.602   5.081   9.309 -0.5063  0.2483 -0.4273
  235MOL0     H30962   5.725   5.097   9.172 -0.3854  0.1111  0.2429
  235MOL0     H30963   5.520   5.206   9.051  1.2457  1.3071  1.2424
  235MOL0     H30964   5.480   5.040   9.108 -0.5837 -1.8669  1.4761
  235MOL0     H30965   5.423   5.245   9.311 -0.7695  0.0065 -0.3532
  235MOL0     H30966   5.328   5.102   9.263 -1.6976 -0.1822 -2.7697
  235MOL0     H30967   5.236   5.213   9.090  1.7964  0.9805 -0.8066
  235MOL0     H30968   5.357   5.341   9.080 -1.2336 -1.4323 -3.6170
  235MOL0     H30969   5.245   5.434   9.300  1.5454 -3.0446  0.9070
  235MOL0     H30970   5.146   5.444   9.161  0.0866  2.5047  1.7300
  235MOL0     H30971   5.041   5.361   9.358  3.3686  2.0664  0.0041
  235MOL0     H30972   5.125   5.202   9.343 -0.4300 -1.6511 -0.2598
  235MOL0     H30973   4.825   5.352   9.235  0.2573  0.5026 -0.9031
  235MOL0     H30974   4.629   5.207   9.010 -0.2896  4.1266  0.6155
  235MOL0     H30975   4.613   5.208   9.182  1.5977  1.6416 -1.6739
  235MOL0     H30976   4.650   4.946   9.182 -0.5656  1.4131  1.7339
  235MOL0     H30977   4.595   4.952   9.020 -0.6774 -2.1314  1.2956
  235MOL0     H30978   4.444   5.022   9.266 -1.9660 -2.4710  0.7926
  235MOL0     H30979   4.384   5.095   9.122 -0.6572 -0.1840 -0.2884
  235MOL0     H30980   4.365   4.860   9.032 -1.1296 -0.0004 -0.6289
  235MOL0     H30981   4.247   4.908   9.156 -0.5013  0.6943  1.3052
  235MOL0     H30982   4.185   4.737   9.034 -1.4917  1.0386  1.7193
  235MOL0     H30983   4.025   4.562   9.033  0.1867  0.2245 -0.6841
  235MOL0     H30984   3.784   4.363   8.891 -1.2022 -0.0576 -0.4802
  235MOL0     H30985   3.584   4.259   8.837 -0.0928 -2.7734 -0.5144
  235MOL0     H30986   3.408   4.137   9.130  2.8474  0.3464 -0.9713
  235MOL0     H30987   3.368   3.971   9.129  0.8905 -0.6837 -0.8480
  235MOL0     H30988   3.286   4.120   8.867 -0.9114  0.0834 -1.3668
  235MOL0     H30989   3.223   4.190   9.016  2.7311  1.5958 -2.7713
  235MOL0     H30990   3.131   3.961   9.082  3.3073 -2.3047  0.2383
  235MOL0     H30991   3.184   3.905   8.920 -1.7036  0.7716 -0.7925
  235MOL0     H30992   2.977   4.108   8.969  2.2507  0.4361 -0.6065
  235MOL0     H30993   3.033   4.051   8.813  1.2468 -3.0846 -0.5269
  235MOL0     H30994   2.929   3.854   9.026 -1.1074 -2.3006 -1.2445
  235MOL0     H30995   2.965   3.822   8.866 -0.1925 -2.3190  2.5672
  235MOL0     H30996   2.773   4.018   8.805  1.2793  0.6420 -0.4146
  235MOL0     H30997   2.752   4.033   8.973 -0.6555  1.9165 -1.6260
  235MOL0     H30998   2.745   3.747   8.914 -0.9652 -1.3393  1.9825
  235MOL0     H30999   2.654   3.845   9.011  3.0190 -0.3596  1.4083
  235MOL0     H31000   2.539   3.749   8.775  1.3539 -0.7519  1.5883
  235MOL0     H31001   2.606   3.887   8.708 -1.7524  1.3254 -0.0749
  235MOL0     H31002   3.659   3.969   9.146  0.6790 -1.5508 -0.1943
  235MOL0     H31003   3.856   4.099   9.217  1.0462  1.0421  0.0960
  235MOL0     H31004   4.268   4.342   9.305  0.3236 -0.7798 -1.4529
  235MOL0     H31005   4.414   4.547   9.337  3.4587  2.2293 -1.8623
  235MOL0     H31006   5.931   5.043   9.391 -0.0457  0.9798 -2.1166
  235MOL0     H31007   6.123   4.908   9.462  1.1690 -0.0500  1.7712
  235MOL0     H31008   6.646   5.002   9.477  2.1270  0.2477  0.6741
  235MOL0     H31009   6.852   4.960   9.576 -0.6160  1.2344  0.8058
  235MOL0     H31010   6.997   4.917   9.753 -0.1833 -0.1324 -1.4916
  235MOL0     H31011   7.040   4.832   9.601 -0.0491  0.7662 -0.0769
  235MOL0     H31012   7.165   4.673   9.692  0.1923  0.7736 -0.2080
  235MOL0     H31013   7.237   4.813   9.766 -0.3400  1.2230  1.2651
  235MOL0     H31014   7.224   4.678   9.954 -0.6508 -0.4517  1.5276
  235MOL0     H31015   7.057   4.626   9.912  0.7716 -0.3201 -1.0381
  235MOL0     H31016   6.959   4.824   9.996 -0.2069  0.7070 -0.0595
  235MOL0     H31017   7.095   4.776  10.099 -0.5905 -0.1554  0.2826
  235MOL0     H31018   7.221   5.165   9.979 -0.8989  1.3624  1.8123
  235MOL0     H31019   6.687   4.627   9.782  2.1093 -0.3998 -0.3221
  235MOL0     H31020   6.464   4.679   9.717 -0.7345 -1.3743 -1.7462
  236MOL0     O31021   2.574   5.870   3.097  0.2927  0.4374 -0.3707
  236MOL0     C31022   2.540   5.843   2.977 -0.9961  0.5935 -1.0658
  236MOL0     O31023   2.421   5.854   2.916  0.0246 -0.3627 -0.7278
  236MOL0     C31024   2.325   5.897   2.999 -0.4150 -0.5018 -0.4296
  236MOL0     C31025   2.265   6.020   2.967 -0.7439  0.1979 -0.3866
  236MOL0     C31026   2.161   6.075   3.046 -0.5200 -0.3536  0.7936
  236MOL0     C31027   2.113   5.999   3.145 -0.1511  0.0913 -0.9490
  236MOL0     O31028   2.006   6.041   3.223 -1.5143  0.2880 -0.2097
  236MOL0     C31029   1.873   6.011   3.179 -1.4764  0.7445  0.0872
  236MOL0     C31030   1.800   5.955   3.304 -0.2356 -0.6683  0.1814
  236MOL0     C31031   1.646   5.959   3.304  0.6757 -0.2011  0.1730
  236MOL0     C31032   1.613   5.889   3.429  1.1015  0.2221 -0.2864
  236MOL0     C31033   1.456   5.865   3.431  0.1622 -0.7080  0.9859
  236MOL0     C31034   1.412   5.808   3.563 -0.0949  1.0945  0.7854
  236MOL0     C31035   1.256   5.800   3.577 -0.2405  0.8547  0.3805
  236MOL0     C31036   1.197   5.687   3.499 -0.0228  0.5846  0.2390
  236MOL0     N31037   1.060   5.648   3.545  0.0869 -0.2082 -0.1071
  236MOL0     C31038   1.021   5.578   3.656  0.8158  0.0681 -0.3230
  236MOL0     C31039   0.884   5.571   3.636  0.0950  0.8316 -0.1618
  236MOL0     C31040   0.783   5.510   3.729 -0.7206 -0.8697 -0.5466
  236MOL0     C31041   0.666   5.604   3.781 -1.2027 -0.2627 -0.9075
  236MOL0     C31042   0.551   5.616   3.678  0.0499 -0.2706  0.6861
  236MOL0     C31043   0.424   5.673   3.730 -0.0694  0.6324 -0.1909
  236MOL0     O31044   0.371   5.567   3.809  0.2719 -0.0557  0.8326
  236MOL0     C31045   0.251   5.575   3.867 -0.4892  0.8016 -0.3997
  236MOL0     C31046   0.194   5.454   3.919 -0.5676 -0.4800 -0.2250
  236MOL0     C31047   0.065   5.444   3.974  0.0651  0.5607 -0.7698
  236MOL0     C31048  -0.023   5.557   3.973 -1.0218  0.4293  0.3337
  236MOL0     C31049  -0.165   5.543   4.008 -0.1199 -0.7361  0.0667
  236MOL0     O31050  -0.213   5.415   4.003 -0.2794 -0.9748 -0.3698
  236MOL0     C31051  -0.345   5.405   4.042 -0.3245  0.2068  0.5677
  236MOL0     C31052  -0.375   5.349   4.168 -0.6152 -0.0520  0.5502
  236MOL0     C31053  -0.503   5.307   4.207 -0.4266  0.6476  0.6454
  236MOL0     C31054  -0.607   5.334   4.112 -0.6114 -0.6964  0.7073
  236MOL0     O31055  -0.739   5.311   4.140 -0.3225 -0.8356  0.0565
  236MOL0     C31056  -0.792   5.254   4.261  0.2973  0.9370  0.1246
  236MOL0     C31057  -0.938   5.243   4.228  0.0137  0.4384  0.0258
  236MOL0     C31058  -1.018   5.145   4.326 -0.8210 -0.2466 -0.8296
  236MOL0     C31059  -1.024   5.206   4.461  0.6287 -0.7163  0.4099
  236MOL0     C31060  -1.121   5.145   4.572  0.3115 -0.7326 -0.9008
  236MOL0     C31061  -1.064   5.010   4.632  0.3640  0.2297  0.2402
  236MOL0     C31062  -0.908   4.995   4.649 -0.8311  0.1192  0.2884
  236MOL0     C31063  -0.869   4.861   4.698  0.4464  0.3328 -1.1592
  236MOL0    Cl31064  -0.939   4.837   4.861  0.2469 -0.3981  0.4480
  236MOL0     C31065  -0.576   5.382   3.987 -0.2457  0.5845 -0.4388
  236MOL0     C31066  -0.447   5.414   3.947 -1.0758 -0.1143 -0.6664
  236MOL0     O31067  -0.217   5.647   4.043  0.5250 -0.3026  0.3154
  236MOL0     C31068   0.037   5.679   3.933 -0.4243 -0.4849  0.3390
  236MOL0     C31069   0.169   5.686   3.877 -0.0000  0.8228  0.0687
  236MOL0     N31070   0.843   5.640   3.531  0.8153  0.7742  0.6504
  236MOL0     N31071   0.948   5.684   3.474 -0.2256 -0.0538  0.1498
  236MOL0     C31072   2.167   5.868   3.176 -0.5339 -0.4015  0.5210
  236MOL0     C31073   2.267   5.812   3.100 -0.8765  0.6566  0.3404
  236MOL0     C31074   2.652   5.805   2.895 -0.7266  0.2261 -0.8063
  236MOL0     C31075   2.785   5.816   2.942  0.2646  0.3638  0.7168
  236MOL0     C31076   2.896   5.748   2.872  0.8356 -0.6061 -0.7530
  236MOL0     C31077   2.868   5.674   2.764 -0.1891  0.2123 -0.3064
  236MOL0     O31078   2.956   5.582   2.710 -0.0943  0.5346  0.1452
  236MOL0     C31079   3.096   5.591   2.733 -0.3753  0.2046  0.2474
  236MOL0     C31080   3.161   5.727   2.695 -0.2136 -0.2018  0.0701
  236MOL0     C31081   3.154   5.759   2.545 -0.9122 -0.6368 -0.3288
  236MOL0     C31082   3.190   5.655   2.444  0.5471 -0.4712 -0.1666
  236MOL0     C31083   3.335   5.629   2.457 -0.2742  0.3158  0.3192
  236MOL0     C31084   3.456   5.607   2.442  0.4315 -0.1258  0.1795
  236MOL0     C31085   2.742   5.682   2.702 -1.1391  0.1347 -0.4033
  236MOL0     C31086   2.633   5.747   2.768  0.3898  0.2415  0.1093
  236MOL0     H31087   2.311   6.088   2.896  2.2474 -1.2743 -0.0212
  236MOL0     H31088   2.111   6.169   3.029 -1.3228 -1.0213 -0.6737
  236MOL0     H31089   1.870   5.929   3.106 -0.2936  1.7263 -1.1097
  236MOL0     H31090   1.832   6.109   3.157 -0.6947  1.2664  0.8943
  236MOL0     H31091   1.831   6.009   3.394 -1.7155  3.4241 -1.5381
  236MOL0     H31092   1.818   5.847   3.303  0.1290 -0.6565  2.0086
  236MOL0     H31093   1.604   5.927   3.208 -0.5590  3.7347 -0.7890
  236MOL0     H31094   1.628   6.065   3.324  2.3289  0.1651 -0.1158
  236MOL0     H31095   1.668   5.795   3.438  1.1500  0.3223  0.4990
  236MOL0     H31096   1.643   5.941   3.520  2.8285 -0.8443 -0.2202
  236MOL0     H31097   1.422   5.799   3.351 -3.3394  0.3587  1.4064
  236MOL0     H31098   1.391   5.949   3.403 -0.4972 -0.8710  1.9521
  236MOL0     H31099   1.461   5.857   3.648  1.0506  1.3832 -0.0180
  236MOL0     H31100   1.463   5.711   3.568  0.7843  1.5229  0.3173
  236MOL0     H31101   1.239   5.785   3.684  3.0893 -1.5201  0.7344
  236MOL0     H31102   1.197   5.889   3.554 -1.3480  0.6223  2.1289
  236MOL0     H31103   1.248   5.590   3.509 -0.4366  0.5648  2.9456
  236MOL0     H31104   1.190   5.718   3.394  2.0096 -0.4086 -0.2515
  236MOL0     H31105   1.073   5.548   3.747  0.7479 -0.0876 -0.3350
  236MOL0     H31106   0.835   5.464   3.814 -2.7167  1.0710  1.8942
  236MOL0     H31107   0.743   5.422   3.677  1.7982 -1.3184 -1.8758
  236MOL0     H31108   0.702   5.705   3.805 -2.2065  0.0109 -0.5210
  236MOL0     H31109   0.626   5.563   3.874 -1.9711  0.6580 -0.8133
  236MOL0     H31110   0.584   5.691   3.606  1.2811  0.2570  1.7655
  236MOL0     H31111   0.545   5.521   3.625  1.4594  0.2603 -0.4736
  236MOL0     H31112   0.355   5.700   3.649 -0.7253  2.7033  0.9875
  236MOL0     H31113   0.445   5.756   3.798  0.1010  0.1505  0.3502
  236MOL0     H31114   0.258   5.366   3.918 -2.1237 -1.7194 -2.9926
  236MOL0     H31115   0.025   5.347   4.000 -1.6185  0.5119 -3.1589
  236MOL0     H31116  -0.295   5.350   4.240 -0.0245  2.0822 -0.0570
  236MOL0     H31117  -0.530   5.260   4.300 -0.1221 -2.1109 -0.5540
  236MOL0     H31118  -0.773   5.320   4.346 -3.8752  0.3095  1.7825
  236MOL0     H31119  -0.757   5.151   4.274 -1.7545 -0.1000 -1.7688
  236MOL0     H31120  -0.965   5.222   4.124  0.0079 -0.1419  0.1439
  236MOL0     H31121  -0.974   5.346   4.227  0.6022  0.6506  0.3658
  236MOL0     H31122  -0.963   5.050   4.335 -0.3444  0.2529  3.7895
  236MOL0     H31123  -1.120   5.117   4.300 -1.8309  1.2903  1.2640
  236MOL0     H31124  -0.927   5.209   4.511  0.8172 -2.2583  0.1857
  236MOL0     H31125  -1.050   5.309   4.437  3.0115  0.1582  1.2929
  236MOL0     H31126  -1.224   5.122   4.542  0.5066 -2.1199 -0.5400
  236MOL0     H31127  -1.118   5.222   4.649 -2.2836 -1.3624 -0.0724
  236MOL0     H31128  -1.084   4.933   4.558  3.4671  0.4057 -0.9349
  236MOL0     H31129  -1.121   4.994   4.725 -1.2077 -0.2097 -0.7622
  236MOL0     H31130  -0.855   4.999   4.554 -2.5015 -0.2962 -0.7003
  236MOL0     H31131  -0.880   5.080   4.713  0.5747 -0.7044  0.7997
  236MOL0     H31132  -0.762   4.838   4.706  0.0101 -1.2692  0.4620
  236MOL0     H31133  -0.906   4.785   4.629  1.7901 -0.7289 -0.7544
  236MOL0     H31134  -0.661   5.410   3.926  0.2661  0.4716 -1.2205
  236MOL0     H31135  -0.438   5.452   3.846 -3.5173  0.0164 -0.8797
  236MOL0     H31136  -0.017   5.773   3.934 -1.3234 -0.9796 -0.1671
  236MOL0     H31137   0.212   5.778   3.837 -0.0710  0.4576 -0.8542
  236MOL0     H31138   2.124   5.799   3.248 -0.0116  2.1350  3.4931
  236MOL0     H31139   2.306   5.712   3.115 -3.7445 -0.3848  1.5738
  236MOL0     H31140   2.791   5.867   3.038 -0.1595 -0.7089  1.3291
  236MOL0     H31141   2.994   5.745   2.919  1.3394  1.3563 -1.6172
  236MOL0     H31142   3.147   5.514   2.675  0.3764  1.0172 -0.1980
  236MOL0     H31143   3.118   5.572   2.838 -2.6395  0.2237  0.7623
  236MOL0     H31144   3.111   5.807   2.750  2.3639  1.6518 -0.0727
  236MOL0     H31145   3.265   5.735   2.728  0.0724 -2.0319 -0.2780
  236MOL0     H31146   3.216   5.848   2.535 -1.0575 -0.7707 -2.9059
  236MOL0     H31147   3.052   5.792   2.527 -0.5274  0.5049 -0.5052
  236MOL0     H31148   3.124   5.570   2.460 -0.3533  0.2141 -0.1945
  236MOL0     H31149   3.171   5.697   2.345 -0.9608  2.3093  1.1853
  236MOL0     H31150   3.561   5.589   2.430  0.6779  1.2879  0.1012
  236MOL0     H31151   2.737   5.637   2.604  1.3741 -1.2490  0.0336
  236MOL0     H31152   2.535   5.745   2.722  0.0042 -3.3920  0.8423
  237MOL0     O31153   8.902   5.222   6.171 -0.0993 -0.1038 -0.0272
  237MOL0     C31154   8.907   5.169   6.058  0.5659  0.5057 -0.1263
  237MOL0     O31155   8.815   5.195   5.955 -0.5579  0.2626 -0.2005
  237MOL0     C31156   8.689   5.244   5.974 -1.0191  0.2743 -0.2663
  237MOL0     C31157   8.623   5.253   6.104 -0.0793 -0.5284  0.1467
  237MOL0     C31158   8.510   5.334   6.112  0.1367  0.8913  0.0158
  237MOL0     C31159   8.449   5.409   6.011  0.1959 -0.3399  0.0965
  237MOL0     O31160   8.346   5.496   6.044  0.5919 -0.3099  0.9394
  237MOL0     C31161   8.258   5.527   5.934  0.3169  0.8365 -0.6292
  237MOL0     C31162   8.156   5.639   5.974  0.8959 -0.3171  0.2142
  237MOL0     C31163   8.225   5.770   6.005 -0.7114 -0.6418 -0.2562
  237MOL0     C31164   8.162   5.871   6.099  0.8434  0.6999 -0.3000
  237MOL0     C31165   8.091   5.987   6.025 -0.0739 -0.4028  0.0301
  237MOL0     C31166   7.981   5.944   5.936  0.3035 -0.0810 -0.1324
  237MOL0     C31167   7.881   6.052   5.896 -0.4313  0.1180 -0.1045
  237MOL0     C31168   7.797   6.013   5.778  0.4206  0.3082  0.2687
  237MOL0     N31169   7.717   6.123   5.717  0.0870  0.5719 -0.0931
  237MOL0     C31170   7.685   6.140   5.585 -0.2490  0.4098 -0.4662
  237MOL0     C31171   7.635   6.270   5.582  0.3951  0.3360  0.6897
  237MOL0     C31172   7.602   6.338   5.454 -0.7922  0.8596 -0.1288
  237MOL0     C31173   7.528   6.469   5.471 -0.8297 -0.0658  0.6811
  237MOL0     C31174   7.492   6.523   5.330 -0.7165  0.4052 -1.1927
  237MOL0     C31175   7.356   6.471   5.277  0.1895 -0.9042 -0.9948
  237MOL0     O31176   7.259   6.517   5.376 -1.4380 -0.3320  0.0177
  237MOL0     C31177   7.132   6.477   5.367  0.5805  0.8738 -0.5707
  237MOL0     C31178   7.047   6.548   5.291 -0.4802  0.9556 -0.4473
  237MOL0     C31179   6.909   6.519   5.298 -1.0920 -0.7396  0.1357
  237MOL0     C31180   6.859   6.411   5.363  0.7292  0.1724  0.0091
  237MOL0     C31181   6.715   6.371   5.357 -0.3795 -1.4339 -0.7404
  237MOL0     O31182   6.695   6.243   5.380 -0.0760 -0.1986 -0.2543
  237MOL0     C31183   6.567   6.186   5.405  0.0445 -0.0806  0.2854
  237MOL0     C31184   6.565   6.053   5.387 -0.8999  0.6728 -0.3526
  237MOL0     C31185   6.447   5.979   5.397 -0.4804 -0.6668  0.4049
  237MOL0     C31186   6.336   6.040   5.447  0.6649 -0.3272 -0.5358
  237MOL0     O31187   6.218   5.963   5.454 -0.0339  0.4874 -0.0696
  237MOL0     C31188   6.095   6.029   5.454  0.1210 -0.1328 -0.1815
  237MOL0     C31189   5.987   5.926   5.437  0.6424  0.4858  0.0383
  237MOL0     C31190   5.844   5.987   5.402 -0.3025  0.6241  0.5234
  237MOL0     C31191   5.747   5.887   5.345 -0.2059  1.1132 -0.1029
  237MOL0     C31192   5.608   5.943   5.334  0.0248  0.0560 -0.3257
  237MOL0     C31193   5.514   5.830   5.279 -0.8412 -0.7570  0.1024
  237MOL0     C31194   5.548   5.800   5.125 -0.4185  0.0182 -0.1692
  237MOL0     C31195   5.462   5.697   5.061 -0.6913 -0.3856  0.1009
  237MOL0    Cl31196   5.502   5.658   4.898 -0.5171 -0.4535  0.0395
  237MOL0     C31197   6.353   6.176   5.486  0.4000  0.0898  0.3885
  237MOL0     C31198   6.460   6.255   5.461 -0.2184 -0.7304  0.0812
  237MOL0     O31199   6.632   6.458   5.331  0.3991  0.3541 -0.4795
  237MOL0     C31200   6.948   6.339   5.446  0.5353  0.2502  0.0537
  237MOL0     C31201   7.083   6.372   5.447 -1.1021  0.4297 -0.6101
  237MOL0     N31202   7.623   6.320   5.708  0.9007 -0.7590 -0.3464
  237MOL0     N31203   7.668   6.223   5.794  0.1699  0.0202  0.4510
  237MOL0     C31204   8.509   5.384   5.886 -0.3724 -0.8380  0.3946
  237MOL0     C31205   8.629   5.310   5.868  0.3090 -1.1476  0.2013
  237MOL0     C31206   9.033   5.097   6.039 -0.3074  0.2410 -0.4155
  237MOL0     C31207   9.075   5.044   5.915 -0.8823  0.0413 -0.5599
  237MOL0     C31208   9.200   4.988   5.886  0.1656  0.3268  0.3932
  237MOL0     C31209   9.291   4.967   5.989  0.7689 -0.3515  0.4194
  237MOL0     O31210   9.406   4.905   5.960  0.5396  0.8221 -0.1748
  237MOL0     C31211   9.523   4.994   5.943 -0.3408 -0.2203 -0.0414
  237MOL0     C31212   9.629   4.928   5.851 -0.0455  0.1522 -0.0051
  237MOL0     C31213   9.570   4.874   5.711  0.0355 -0.6352 -0.1872
  237MOL0     C31214   9.672   4.787   5.636 -0.2035  0.5894  0.9296
  237MOL0     C31215   9.628   4.728   5.510  1.3048 -0.2888 -0.6002
  237MOL0     C31216   9.594   4.667   5.412  0.0722 -0.5377 -0.3715
  237MOL0     C31217   9.256   5.013   6.118  0.4784 -0.7618  0.2961
  237MOL0     C31218   9.126   5.079   6.136  0.1679 -0.0140  0.2976
  237MOL0     H31219   8.677   5.210   6.187 -0.6776  2.0537  1.9994
  237MOL0     H31220   8.467   5.349   6.210 -0.1185 -2.2316  0.4946
  237MOL0     H31221   8.208   5.435   5.900  1.0386 -0.9810  2.7238
  237MOL0     H31222   8.322   5.561   5.852  2.3030  0.3924  0.6568
  237MOL0     H31223   8.083   5.604   6.048  0.7073  0.0274  0.1947
  237MOL0     H31224   8.092   5.656   5.886  1.3595 -0.4537 -0.1502
  237MOL0     H31225   8.244   5.821   5.910 -2.5666 -3.3556 -2.2486
  237MOL0     H31226   8.316   5.746   6.061 -3.3165 -2.8971  3.4803
  237MOL0     H31227   8.086   5.816   6.155  1.6001  1.4659  1.6090
  237MOL0     H31228   8.214   5.915   6.185 -1.3550 -2.2194  2.7860
  237MOL0     H31229   8.171   6.041   5.975  2.0268 -1.9622  1.5408
  237MOL0     H31230   8.047   6.051   6.101 -0.6206  1.0289 -1.4362
  237MOL0     H31231   7.916   5.870   5.983  0.6142 -0.2768 -0.0130
  237MOL0     H31232   8.021   5.899   5.845 -2.0029  0.4046 -1.4687
  237MOL0     H31233   7.824   6.073   5.987 -0.9105  2.2382 -0.8305
  237MOL0     H31234   7.933   6.147   5.874 -1.8196  1.3873  1.8413
  237MOL0     H31235   7.728   5.934   5.807 -2.5267  1.7819 -2.1778
  237MOL0     H31236   7.868   5.988   5.698 -0.3122 -1.1004  0.0315
  237MOL0     H31237   7.711   6.074   5.503  1.2866  0.7541 -0.2887
  237MOL0     H31238   7.533   6.272   5.401 -0.2319  1.5684 -1.8219
  237MOL0     H31239   7.692   6.341   5.392 -1.4872 -0.0607 -1.2282
  237MOL0     H31240   7.588   6.539   5.528 -1.0930 -0.5892  1.6316
  237MOL0     H31241   7.436   6.446   5.526 -0.5637 -2.6181  0.2290
  237MOL0     H31242   7.491   6.632   5.333 -0.0347  0.4343 -1.6552
  237MOL0     H31243   7.568   6.494   5.257  0.1219  1.2049 -0.6621
  237MOL0     H31244   7.349   6.362   5.283 -2.2288 -0.7149  1.5278
  237MOL0     H31245   7.329   6.512   5.179 -0.8866 -2.5357 -1.4255
  237MOL0     H31246   7.083   6.641   5.250 -1.7074 -0.1404 -4.5281
  237MOL0     H31247   6.841   6.587   5.247 -0.3860  0.0410  0.2083
  237MOL0     H31248   6.647   5.996   5.346  1.0233  3.0445 -0.0894
  237MOL0     H31249   6.449   5.877   5.361  0.2837 -0.7949  0.8131
  237MOL0     H31250   6.087   6.113   5.385  3.1640  1.8638  1.6239
  237MOL0     H31251   6.071   6.077   5.549 -0.9782  0.7769 -0.8984
  237MOL0     H31252   5.973   5.879   5.534 -2.9552  0.2304 -0.4815
  237MOL0     H31253   6.020   5.856   5.360 -0.7806  0.6953 -0.8150
  237MOL0     H31254   5.854   6.072   5.334 -0.1286  0.9486  0.9472
  237MOL0     H31255   5.800   6.026   5.494  0.1472 -4.0478  3.0188
  237MOL0     H31256   5.778   5.849   5.247  0.1344 -1.0497  0.7797
  237MOL0     H31257   5.752   5.799   5.411  4.0260  0.5310 -0.9328
  237MOL0     H31258   5.606   6.036   5.276  0.3520 -0.3854 -1.0583
  237MOL0     H31259   5.575   5.975   5.433 -0.1486  1.8891 -0.9288
  237MOL0     H31260   5.408   5.853   5.291 -0.4712  1.7673 -0.8108
  237MOL0     H31261   5.537   5.743   5.341  1.1327  1.6184  3.0134
  237MOL0     H31262   5.532   5.884   5.057 -0.6329  0.8304  0.8673
  237MOL0     H31263   5.651   5.763   5.114 -0.2276 -0.6791  3.0027
  237MOL0     H31264   5.358   5.729   5.050 -1.1167 -2.4685 -3.9731
  237MOL0     H31265   5.453   5.610   5.126  1.2369  0.5035  1.6705
  237MOL0     H31266   6.260   6.213   5.529 -0.0789 -0.5066 -0.1115
  237MOL0     H31267   6.453   6.362   5.482  0.9215 -0.1176 -2.2682
  237MOL0     H31268   6.908   6.248   5.490 -0.5235  0.7157  0.0809
  237MOL0     H31269   7.156   6.318   5.506 -0.3274  1.0560 -0.9797
  237MOL0     H31270   8.459   5.429   5.800  2.5224  1.6701 -0.1689
  237MOL0     H31271   8.683   5.318   5.774 -0.4771 -1.6921 -0.3026
  237MOL0     H31272   8.999   5.055   5.838  0.4516  1.5752 -1.7289
  237MOL0     H31273   9.206   4.947   5.785  2.2068  0.6654  0.3303
  237MOL0     H31274   9.565   5.028   6.038  0.7125  2.3629 -1.3328
  237MOL0     H31275   9.498   5.080   5.880  0.4290 -2.1843 -3.3050
  237MOL0     H31276   9.705   5.002   5.824  1.0777 -0.8113  0.4282
  237MOL0     H31277   9.685   4.850   5.904  0.5844 -0.9208 -2.1031
  237MOL0     H31278   9.534   4.959   5.653 -0.9883 -0.7402  0.2741
  237MOL0     H31279   9.482   4.818   5.742 -1.7912  1.2666 -1.6730
  237MOL0     H31280   9.769   4.835   5.622  0.5690 -1.5861 -2.5678
  237MOL0     H31281   9.679   4.708   5.712 -1.1776  1.2337  1.7174
  237MOL0     H31282   9.580   4.626   5.314  0.9733  0.9674 -1.1600
  237MOL0     H31283   9.327   5.009   6.201 -2.4987  0.0230  3.1250
  237MOL0     H31284   9.104   5.128   6.230 -3.6781 -3.3871  1.4558
  238MOL0     O31285   4.492   5.840   9.659  0.2078 -0.1716 -0.3185
  238MOL0     C31286   4.579   5.924   9.632 -0.4895 -0.0806 -0.1121
  238MOL0     O31287   4.572   6.059   9.660 -0.1648 -0.7294  0.5655
  238MOL0     C31288   4.486   6.101   9.756 -0.9262  0.2764  1.0686
  238MOL0     C31289   4.500   6.065   9.891 -0.4876  0.0957  0.8022
  238MOL0     C31290   4.405   6.112   9.985  0.4428 -0.0091  0.3678
  238MOL0     C31291   4.300   6.199   9.950 -0.6283 -0.4778  0.3774
  238MOL0     O31292   4.216   6.269  10.038 -0.4449 -0.0339  0.2325
  238MOL0     C31293   4.191   6.207  10.168 -0.2409 -0.9522 -0.0411
  238MOL0     C31294   4.155   6.306  10.290 -0.0668  0.1532 -0.1408
  238MOL0     C31295   4.034   6.392  10.278  0.9914 -0.4270  0.3709
  238MOL0     C31296   4.016   6.497  10.392  0.4345  0.8213  0.1142
  238MOL0     C31297   3.889   6.574  10.362  0.8292  0.5406 -0.1833
  238MOL0     C31298   3.750   6.497  10.355  0.0696  0.6156  0.6501
  238MOL0     C31299   3.681   6.457  10.484 -0.3290  0.1086  0.3912
  238MOL0     C31300   3.559   6.368  10.470 -0.2266 -0.1182 -0.1377
  238MOL0     N31301   3.492   6.316  10.589 -0.3921  0.0654  0.7905
  238MOL0     C31302   3.468   6.182  10.603 -0.0626 -0.0828 -0.3902
  238MOL0     C31303   3.386   6.176  10.711 -0.4294  0.0965  0.4229
  238MOL0     C31304   3.335   6.044  10.773  0.6839 -0.0994  0.0783
  238MOL0     C31305   3.326   5.929  10.670 -0.3234 -0.3611 -0.7445
  238MOL0     C31306   3.254   5.816  10.710  0.2408  0.4615  0.1000
  238MOL0     C31307   3.097   5.834  10.702  0.2963 -0.4650 -0.2252
  238MOL0     O31308   3.044   5.719  10.761 -0.0472 -0.3130  0.7480
  238MOL0     C31309   2.917   5.684  10.734  1.2947 -0.5075 -0.2282
  238MOL0     C31310   2.872   5.560  10.754  0.8902  0.9494 -0.1381
  238MOL0     C31311   2.742   5.515  10.747 -0.0637  0.4002  0.4339
  238MOL0     C31312   2.639   5.613  10.731  0.0500  0.7388  0.2954
  238MOL0     C31313   2.491   5.578  10.718  0.8977  0.7561  0.4152
  238MOL0     O31314   2.479   5.445  10.685  0.0766  0.4871  0.0718
  238MOL0     C31315   2.347   5.397  10.680 -0.0503  0.1741 -0.6370
  238MOL0     C31316   2.254   5.444  10.588 -0.7419 -0.6160  0.8190
  238MOL0     C31317   2.133   5.386  10.581 -1.1837  0.0423  0.2555
  238MOL0     C31318   2.092   5.284  10.667  0.4589  0.2262 -0.3247
  238MOL0     O31319   1.978   5.209  10.655  0.3423  0.5462 -0.7813
  238MOL0     C31320   1.859   5.279  10.692 -0.0898  0.5423 -0.5002
  238MOL0     C31321   1.744   5.254  10.599 -0.0624  0.7934 -0.3209
  238MOL0     C31322   1.716   5.111  10.550  0.4483  0.2891 -0.8050
  238MOL0     C31323   1.601   5.133  10.452 -0.1541  0.0539  0.3504
  238MOL0     C31324   1.541   5.006  10.389  0.7800  0.4579 -0.6300
  238MOL0     C31325   1.460   4.924  10.502 -0.4518  0.3472  0.6041
  238MOL0     C31326   1.378   4.812  10.435 -0.3882 -0.4767 -0.5843
  238MOL0     C31327   1.307   4.727  10.544  0.2665 -0.4615  0.1099
  238MOL0    Cl31328   1.423   4.612  10.619 -0.0284  0.2586  0.2133
  238MOL0     C31329   2.181   5.248  10.758 -0.4208 -0.2412 -0.6174
  238MOL0     C31330   2.312   5.291  10.767 -1.1463  0.1578  0.3793
  238MOL0     O31331   2.396   5.660  10.718  0.0552  0.8261 -0.3659
  238MOL0     C31332   2.677   5.746  10.714 -0.4979  1.0036 -0.0608
  238MOL0     C31333   2.812   5.787  10.713 -0.3307  0.3028  0.0873
  238MOL0     N31334   3.365   6.301  10.760 -0.4763 -0.1691  0.1290
  238MOL0     N31335   3.433   6.387  10.691 -0.9513  0.6527 -0.3167
  238MOL0     C31336   4.279   6.231   9.811 -1.1117 -0.0360  0.5965
  238MOL0     C31337   4.373   6.180   9.713  0.2722  0.3714 -0.7805
  238MOL0     C31338   4.705   5.877   9.559  0.1601  0.0108 -0.5572
  238MOL0     C31339   4.817   5.949   9.541 -0.2248  0.3313 -0.8611
  238MOL0     C31340   4.923   5.912   9.460  0.4789  0.2020 -0.6460
  238MOL0     C31341   4.930   5.789   9.398  0.6855 -0.0891 -1.1055
  238MOL0     O31342   5.035   5.744   9.316  0.0917 -0.2543 -0.5916
  238MOL0     C31343   5.136   5.831   9.265 -0.1501  0.3481 -0.3707
  238MOL0     C31344   5.245   5.837   9.369  0.2244  0.1329 -0.0673
  238MOL0     C31345   5.358   5.925   9.312 -0.2706 -0.0489 -0.0998
  238MOL0     C31346   5.427   5.872   9.184  0.5936  0.8478  0.0411
  238MOL0     C31347   5.438   5.728   9.188  0.3366  0.2796  0.1868
  238MOL0     C31348   5.451   5.610   9.203 -0.2228  1.1678  0.2008
  238MOL0     C31349   4.817   5.702   9.417 -0.1363 -0.1503 -0.5057
  238MOL0     C31350   4.708   5.748   9.500 -0.3042 -0.0074 -0.9294
  238MOL0     H31351   4.583   6.002   9.921  0.1041  1.5494  2.4079
  238MOL0     H31352   4.441   6.102  10.087  1.1413  1.4520  0.2842
  238MOL0     H31353   4.284   6.164  10.206  1.7194  3.7421  1.1915
  238MOL0     H31354   4.118   6.127  10.152  0.8725 -2.4488  1.8602
  238MOL0     H31355   4.243   6.368  10.309 -0.3136  1.6757 -3.4404
  238MOL0     H31356   4.145   6.239  10.376 -1.7171 -0.0304 -0.4441
  238MOL0     H31357   3.951   6.321  10.276  0.8585 -0.3310 -3.3147
  238MOL0     H31358   4.030   6.457  10.191 -1.5267 -0.9996 -0.0137
  238MOL0     H31359   4.028   6.457  10.493  0.1191  0.1223 -0.1191
  238MOL0     H31360   4.102   6.563  10.390  2.8680 -2.1602 -0.4790
  238MOL0     H31361   3.904   6.640  10.276 -2.0516  0.2338 -1.0450
  238MOL0     H31362   3.877   6.647  10.443 -0.9282  0.4764 -0.3507
  238MOL0     H31363   3.754   6.416  10.282 -3.0167 -0.6636  1.7272
  238MOL0     H31364   3.692   6.564  10.292  0.0223 -0.9514 -1.0695
  238MOL0     H31365   3.744   6.389  10.542 -0.0615 -0.4491 -0.5354
  238MOL0     H31366   3.653   6.546  10.541  3.3616  2.8459 -1.6713
  238MOL0     H31367   3.580   6.287  10.399 -1.4253 -2.0790  1.6282
  238MOL0     H31368   3.482   6.429  10.423 -0.9983 -1.3883 -0.5602
  238MOL0     H31369   3.506   6.101  10.541 -1.2642 -2.5770  1.9317
  238MOL0     H31370   3.236   6.071  10.813 -2.4366 -2.5773 -4.8727
  238MOL0     H31371   3.402   6.004  10.849  2.0655  0.2063 -0.9400
  238MOL0     H31372   3.420   5.889  10.628 -0.5683 -2.6165  0.6887
  238MOL0     H31373   3.275   5.974  10.584 -2.4261 -1.1196  0.0398
  238MOL0     H31374   3.272   5.725  10.651 -1.8106  0.1506 -0.1186
  238MOL0     H31375   3.295   5.805  10.811  0.0358 -1.1555  0.0483
  238MOL0     H31376   3.055   5.834  10.602 -0.9976 -2.9042  0.2344
  238MOL0     H31377   3.065   5.932  10.740 -0.7472  1.0193 -4.4263
  238MOL0     H31378   2.957   5.497  10.777  1.0126  0.2106 -2.3813
  238MOL0     H31379   2.728   5.408  10.757 -1.6487  0.6383  1.1201
  238MOL0     H31380   2.281   5.530  10.528  0.3592  0.3304  2.5914
  238MOL0     H31381   2.062   5.417  10.504 -0.4331 -2.2854 -1.4794
  238MOL0     H31382   1.864   5.386  10.714 -2.9890  0.4486  1.1308
  238MOL0     H31383   1.837   5.245  10.794  0.1568  0.1515 -0.5729
  238MOL0     H31384   1.763   5.309  10.507  1.6130 -0.6252 -0.8822
  238MOL0     H31385   1.657   5.292  10.653  0.5673 -0.4983  1.7438
  238MOL0     H31386   1.693   5.046  10.635  0.7973  1.2323  0.0284
  238MOL0     H31387   1.803   5.060  10.507  1.0051  1.3409 -0.9496
  238MOL0     H31388   1.531   5.192  10.512 -2.4224  0.1392 -2.1467
  238MOL0     H31389   1.639   5.191  10.368  0.0835 -1.9123 -0.9574
  238MOL0     H31390   1.622   4.945  10.348 -0.5159 -0.0575 -2.5167
  238MOL0     H31391   1.470   5.047  10.317 -1.6717  0.0137  1.4012
  238MOL0     H31392   1.403   4.999  10.557 -1.0660 -1.1470  2.1177
  238MOL0     H31393   1.526   4.884  10.580 -0.5808 -0.7897  0.1421
  238MOL0     H31394   1.302   4.868  10.379 -0.1694 -0.6969 -1.0969
  238MOL0     H31395   1.438   4.753  10.366 -0.9995 -1.1549 -0.5525
  238MOL0     H31396   1.226   4.668  10.501 -1.1143 -0.4780  2.5565
  238MOL0     H31397   1.263   4.802  10.611  0.1463  0.7256 -1.2537
  238MOL0     H31398   2.141   5.172  10.824 -1.3981 -0.1228 -1.0507
  238MOL0     H31399   2.377   5.241  10.838 -3.0123  1.1535  2.9877
  238MOL0     H31400   2.595   5.810  10.681 -0.7434  0.5641 -0.3122
  238MOL0     H31401   2.825   5.894  10.703  1.2275  0.1125 -0.1155
  238MOL0     H31402   4.208   6.303   9.770 -0.4546 -0.7560 -2.0332
  238MOL0     H31403   4.361   6.195   9.606 -1.4983 -3.1408 -1.2152
  238MOL0     H31404   4.819   6.048   9.584 -4.4255 -0.8968  3.0029
  238MOL0     H31405   5.006   5.978   9.436  2.3348 -2.6069 -2.5332
  238MOL0     H31406   5.090   5.929   9.248 -0.4645  0.8294  2.6341
  238MOL0     H31407   5.162   5.791   9.167 -2.5336 -3.3089  0.3034
  238MOL0     H31408   5.210   5.891   9.457 -1.3897 -2.6778  1.1504
  238MOL0     H31409   5.275   5.735   9.393 -1.4733 -0.6896 -1.1992
  238MOL0     H31410   5.438   5.936   9.385  1.4399 -1.8345 -1.6128
  238MOL0     H31411   5.317   6.024   9.289  0.2662  1.5266  4.6482
  238MOL0     H31412   5.361   5.900   9.101 -2.9620  0.3018  2.4197
  238MOL0     H31413   5.524   5.921   9.174  4.2631 -5.0421  1.4987
  238MOL0     H31414   5.480   5.508   9.212  2.6904  1.2630 -4.5319
  238MOL0     H31415   4.811   5.611   9.359  0.0767 -0.6712  0.2783
  238MOL0     H31416   4.612   5.698   9.500 -1.2946  1.7924 -2.7625
  239MOL0     O31417   3.696   4.994   4.507  0.7195 -0.6429  0.2516
  239MOL0     C31418   3.762   4.917   4.571 -0.1985  0.3582  0.2493
  239MOL0     O31419   3.719   4.856   4.684  0.2082 -0.7420 -0.2472
  239MOL0     C31420   3.584   4.872   4.727 -0.8699  0.2827  0.1368
  239MOL0     C31421   3.515   4.994   4.755  0.0683  0.1374  0.5476
  239MOL0     C31422   3.386   4.989   4.813 -0.4745  0.3764  0.6036
  239MOL0     C31423   3.321   4.874   4.847 -0.3008 -0.1263  0.6359
  239MOL0     O31424   3.199   4.876   4.900 -0.1677 -0.5359  0.0445
  239MOL0     C31425   3.098   4.899   4.805  0.0917 -0.1905  0.2440
  239MOL0     C31426   2.963   4.891   4.875 -0.5308  0.4311 -1.1766
  239MOL0     C31427   2.846   4.912   4.781 -0.5198  0.3212 -0.1965
  239MOL0     C31428   2.711   4.912   4.856 -0.2475  0.5716  0.5396
  239MOL0     C31429   2.582   4.898   4.768 -0.1384 -0.3590 -0.3992
  239MOL0     C31430   2.558   4.755   4.701 -0.1649 -0.0880 -0.5031
  239MOL0     C31431   2.425   4.751   4.624  0.4677 -0.1411 -0.3916
  239MOL0     C31432   2.309   4.735   4.712 -0.9153 -0.0176  0.0186
  239MOL0     N31433   2.184   4.725   4.646 -0.7410 -0.4345 -0.2222
  239MOL0     C31434   2.120   4.828   4.584  0.9108 -0.4520 -0.3178
  239MOL0     C31435   2.008   4.772   4.532 -0.3985  1.0176  0.6722
  239MOL0     C31436   1.898   4.828   4.451 -0.2718  0.2136  0.5979
  239MOL0     C31437   1.940   4.857   4.306  0.0432 -0.2817  0.8216
  239MOL0     C31438   1.822   4.898   4.218  0.0923 -0.7685  0.8912
  239MOL0     C31439   1.736   5.015   4.255  0.0660 -0.8097 -0.3091
  239MOL0     O31440   1.646   5.009   4.362 -0.2819 -0.4134 -0.4108
  239MOL0     C31441   1.544   5.104   4.360 -0.0131 -0.3252 -0.1093
  239MOL0     C31442   1.457   5.095   4.464 -0.5425 -0.6212 -0.1760
  239MOL0     C31443   1.364   5.190   4.489 -0.0600 -0.4969  0.6805
  239MOL0     C31444   1.333   5.288   4.394  0.4123  1.0898 -1.0987
  239MOL0     C31445   1.216   5.375   4.421 -0.1565  0.3750  0.3576
  239MOL0     O31446   1.129   5.324   4.510  0.1443  0.1389 -0.1191
  239MOL0     C31447   1.027   5.394   4.555  0.9826 -0.9496  0.5242
  239MOL0     C31448   0.910   5.318   4.556  0.7077 -0.4085 -0.2845
  239MOL0     C31449   0.794   5.368   4.616  0.3125 -0.1824  0.0337
  239MOL0     C31450   0.800   5.494   4.683  0.3598  0.1834  0.7493
  239MOL0     O31451   0.700   5.548   4.760  0.5046 -0.6966 -0.2596
  239MOL0     C31452   0.604   5.455   4.813  0.1316 -0.6481  0.4227
  239MOL0     C31453   0.502   5.539   4.898 -1.0491  0.0705  0.5477
  239MOL0     C31454   0.379   5.470   4.946  0.4164 -0.2614  0.3475
  239MOL0     C31455   0.311   5.550   5.060  0.5952 -0.1158  0.4675
  239MOL0     C31456   0.167   5.507   5.083  0.0889 -0.3918 -0.2819
  239MOL0     C31457   0.094   5.589   5.187 -0.6395 -0.1391 -0.5320
  239MOL0     C31458  -0.051   5.617   5.160 -0.7059  0.3040 -0.6993
  239MOL0     C31459  -0.122   5.688   5.273  0.4611  0.0299  0.0222
  239MOL0    Cl31460  -0.297   5.721   5.219 -0.1299 -0.0648 -0.0703
  239MOL0     C31461   0.913   5.577   4.668 -0.5231  0.0766 -0.0970
  239MOL0     C31462   1.029   5.530   4.612 -0.3213  0.7322  0.1711
  239MOL0     O31463   1.199   5.474   4.357 -0.1601  0.2204  0.1486
  239MOL0     C31464   1.419   5.301   4.288  0.5400  0.3276  0.2215
  239MOL0     C31465   1.525   5.209   4.275  0.4412 -0.6698 -0.5780
  239MOL0     N31466   2.006   4.636   4.559  0.3093  0.1446  0.4206
  239MOL0     N31467   2.112   4.610   4.634  0.4251 -0.2872 -0.2843
  239MOL0     C31468   3.379   4.754   4.826  0.3656  0.3711  0.1119
  239MOL0     C31469   3.512   4.754   4.766  0.4043  0.1487  0.1717
  239MOL0     C31470   3.898   4.874   4.529 -0.3620  0.8325  0.1053
  239MOL0     C31471   3.967   4.771   4.595  0.8618 -0.0336 -0.1826
  239MOL0     C31472   4.094   4.729   4.561  0.5178  0.4138 -0.3678
  239MOL0     C31473   4.156   4.786   4.449  0.2858  0.7346  0.1338
  239MOL0     O31474   4.281   4.777   4.404 -0.8493  0.3590  0.4681
  239MOL0     C31475   4.364   4.667   4.465  0.1567  0.3940  0.5487
  239MOL0     C31476   4.506   4.665   4.409  0.1846  0.4199  0.0683
  239MOL0     C31477   4.573   4.806   4.416 -0.2776 -0.0350 -0.0601
  239MOL0     C31478   4.722   4.814   4.381 -0.0413  0.1474  0.2841
  239MOL0     C31479   4.814   4.760   4.485 -0.5332 -0.2812  0.1852
  239MOL0     C31480   4.884   4.704   4.568 -0.2655 -0.7761  1.3637
  239MOL0     C31481   4.089   4.883   4.380  0.2567 -0.2233 -0.1088
  239MOL0     C31482   3.961   4.927   4.418 -0.3921 -0.3189 -0.1261
  239MOL0     H31483   3.574   5.083   4.736 -0.1668  0.0808 -0.5173
  239MOL0     H31484   3.337   5.084   4.833 -0.5647  0.9256 -1.9397
  239MOL0     H31485   3.096   4.824   4.725 -0.9098  1.9092 -1.8305
  239MOL0     H31486   3.111   5.000   4.764  2.0208 -1.1652 -1.6988
  239MOL0     H31487   2.958   4.949   4.968 -0.5198  0.5469 -1.2482
  239MOL0     H31488   2.948   4.788   4.910 -1.3616  1.2295  1.0138
  239MOL0     H31489   2.838   4.838   4.701 -0.0937 -0.2754  0.3016
  239MOL0     H31490   2.862   5.008   4.731 -0.2609  0.8193  0.8271
  239MOL0     H31491   2.708   4.837   4.935  0.4155 -0.4229 -0.3442
  239MOL0     H31492   2.695   5.009   4.903 -3.3221 -0.4234  1.7316
  239MOL0     H31493   2.580   4.980   4.696  0.0687  0.8172  0.8819
  239MOL0     H31494   2.496   4.902   4.837 -2.6852 -1.8105 -3.2579
  239MOL0     H31495   2.554   4.682   4.782  1.0531  0.3320 -0.0399
  239MOL0     H31496   2.643   4.725   4.639  2.6884  1.8024  2.1743
  239MOL0     H31497   2.404   4.822   4.544 -0.6337 -1.9246 -1.7663
  239MOL0     H31498   2.444   4.660   4.567  0.0347  0.1431 -0.9985
  239MOL0     H31499   2.296   4.826   4.772  1.6587  2.6216 -3.0333
  239MOL0     H31500   2.312   4.641   4.768  0.7064  0.6190  1.0820
  239MOL0     H31501   2.155   4.931   4.577 -1.5194  0.5646  0.8450
  239MOL0     H31502   1.853   4.912   4.505  0.1260 -0.6606  2.3577
  239MOL0     H31503   1.808   4.766   4.445  0.6628 -1.0624 -1.2458
  239MOL0     H31504   1.979   4.766   4.261 -0.2972  0.0709 -0.2351
  239MOL0     H31505   2.007   4.943   4.316 -1.2431  0.6083  2.1237
  239MOL0     H31506   1.867   4.925   4.122 -0.8039 -1.0639  0.3734
  239MOL0     H31507   1.753   4.813   4.210 -1.1759  0.1107  2.0733
  239MOL0     H31508   1.677   5.031   4.164  2.2281  2.4906 -1.2701
  239MOL0     H31509   1.807   5.096   4.271  1.1504 -1.6761 -0.6519
  239MOL0     H31510   1.481   5.015   4.534 -1.2304 -0.5127  0.2027
  239MOL0     H31511   1.327   5.179   4.590 -0.9243 -0.0668  0.4194
  239MOL0     H31512   0.912   5.222   4.505 -4.1900  0.4103 -2.6348
  239MOL0     H31513   0.711   5.298   4.617 -0.9772  1.1230 -2.9608
  239MOL0     H31514   0.658   5.374   4.865  1.4507  0.0290  0.1526
  239MOL0     H31515   0.555   5.412   4.726 -0.8619  1.3832 -0.0728
  239MOL0     H31516   0.475   5.617   4.827  0.6788 -0.5386 -0.8445
  239MOL0     H31517   0.543   5.589   4.986 -1.1240  0.0927  0.5701
  239MOL0     H31518   0.420   5.371   4.968  1.2897  0.1810  0.7733
  239MOL0     H31519   0.321   5.463   4.853  0.4625  0.8832  0.2131
  239MOL0     H31520   0.359   5.535   5.157  1.1825 -0.1920  0.1669
  239MOL0     H31521   0.311   5.657   5.037 -4.4238  0.1054  0.3948
  239MOL0     H31522   0.165   5.401   5.110 -1.8778 -0.5554 -0.8784
  239MOL0     H31523   0.108   5.519   4.991  1.0514  0.4758 -0.8132
  239MOL0     H31524   0.147   5.683   5.205 -1.3945  0.4001 -1.0461
  239MOL0     H31525   0.106   5.546   5.287 -1.1451  1.8282  0.4258
  239MOL0     H31526  -0.067   5.669   5.065  0.2433  0.5738 -0.7258
  239MOL0     H31527  -0.098   5.520   5.144 -0.5924  0.2334 -0.6075
  239MOL0     H31528  -0.073   5.785   5.282  0.2542 -0.0130  1.8830
  239MOL0     H31529  -0.113   5.636   5.369  0.6163 -1.0318 -0.5464
  239MOL0     H31530   0.914   5.668   4.727  1.0774  0.5842 -0.8551
  239MOL0     H31531   1.118   5.586   4.638  1.6865 -2.0315 -0.2961
  239MOL0     H31532   1.400   5.373   4.209 -0.1886  2.9601  2.6266
  239MOL0     H31533   1.586   5.227   4.187  0.5429 -1.6125 -0.7107
  239MOL0     H31534   3.324   4.664   4.851  0.9961 -1.1573 -3.4840
  239MOL0     H31535   3.561   4.658   4.762  1.0825  0.3738  2.0608
  239MOL0     H31536   3.907   4.729   4.675 -2.5110  2.5163 -1.1339
  239MOL0     H31537   4.141   4.651   4.621  0.8754  1.6199  1.0103
  239MOL0     H31538   4.321   4.570   4.436 -0.6596  1.5397 -2.4819
  239MOL0     H31539   4.374   4.670   4.573 -0.3575  0.6693  0.5859
  239MOL0     H31540   4.564   4.589   4.461 -2.0486 -4.7041 -3.9527
  239MOL0     H31541   4.510   4.627   4.306  1.6680 -2.6017  1.1266
  239MOL0     H31542   4.563   4.858   4.512  1.1333 -1.9545  1.2280
  239MOL0     H31543   4.519   4.867   4.343 -0.4403  0.9434  0.8542
  239MOL0     H31544   4.724   4.754   4.289 -1.5510  0.1078  0.2445
  239MOL0     H31545   4.747   4.919   4.364 -0.8062  0.5472  1.5115
  239MOL0     H31546   4.947   4.659   4.642 -1.5275 -1.2562  2.1773
  239MOL0     H31547   4.132   4.935   4.294  0.4480 -1.4767 -0.7910
  239MOL0     H31548   3.913   5.000   4.354  1.7451  2.0865  0.8485
  240MOL0     O31549   0.796   6.577   4.077 -0.0765  0.6439 -0.2709
  240MOL0     C31550   0.835   6.620   4.185 -0.3756  0.4548  0.7738
  240MOL0     O31551   0.834   6.749   4.224 -0.5426 -0.2562 -0.3280
  240MOL0     C31552   0.818   6.853   4.139 -0.3991 -0.1447  0.0483
  240MOL0     C31553   0.689   6.871   4.087 -0.3011 -0.0487  0.2508
  240MOL0     C31554   0.663   6.978   3.999  0.8115 -0.9672  0.2818
  240MOL0     C31555   0.767   7.058   3.945  0.7971  0.2520  0.0677
  240MOL0     O31556   0.744   7.160   3.852 -0.4491 -0.5223  0.3747
  240MOL0     C31557   0.850   7.222   3.765 -0.2609 -0.8075 -0.2250
  240MOL0     C31558   0.916   7.116   3.673 -0.1763  0.2164 -0.0205
  240MOL0     C31559   0.990   7.174   3.557  0.5206 -0.2107  0.4300
  240MOL0     C31560   1.043   7.061   3.473 -0.6713 -0.1953 -0.1955
  240MOL0     C31561   1.149   7.121   3.380 -0.2307  0.2752  0.6145
  240MOL0     C31562   1.273   7.161   3.460 -0.4255 -0.2180  0.0036
  240MOL0     C31563   1.401   7.161   3.383  0.2578  0.1744  0.6003
  240MOL0     C31564   1.434   7.023   3.324 -0.6205  0.7194  0.1672
  240MOL0     N31565   1.556   7.025   3.243 -0.2085 -0.1146 -0.6721
  240MOL0     C31566   1.684   6.994   3.293  0.5403 -0.0137  0.0389
  240MOL0     C31567   1.761   7.022   3.181  0.6810  0.2870  0.0314
  240MOL0     C31568   1.912   7.008   3.175 -0.9757  0.2247 -0.0610
  240MOL0     C31569   2.002   7.128   3.217 -0.1032  0.2768  0.0039
  240MOL0     C31570   1.986   7.162   3.366 -0.0572 -0.5411 -0.8474
  240MOL0     C31571   2.073   7.285   3.385 -0.7312  0.5487 -0.0676
  240MOL0     O31572   2.217   7.248   3.363 -0.4342 -0.0832 -0.3852
  240MOL0     C31573   2.316   7.344   3.389 -0.2415  0.1833  0.6719
  240MOL0     C31574   2.286   7.477   3.422 -0.5210 -0.0952 -0.3813
  240MOL0     C31575   2.392   7.569   3.435 -0.4447  0.2838 -0.0149
  240MOL0     C31576   2.526   7.532   3.409  0.4047 -1.0046 -0.6460
  240MOL0     C31577   2.640   7.635   3.409  0.0763  0.1539 -0.9672
  240MOL0     O31578   2.763   7.591   3.375  0.1708 -1.3413 -0.6880
  240MOL0     C31579   2.877   7.659   3.385  0.6151 -0.9021 -0.1065
  240MOL0     C31580   2.896   7.765   3.477  1.2885 -0.3166 -0.7011
  240MOL0     C31581   3.021   7.827   3.495  0.1705  0.3211 -0.1110
  240MOL0     C31582   3.142   7.778   3.432 -0.4630  0.2872  0.4723
  240MOL0     O31583   3.261   7.832   3.478  0.3210  0.5341 -0.0290
  240MOL0     C31584   3.380   7.765   3.439 -0.8410  0.1401 -0.0604
  240MOL0     C31585   3.483   7.794   3.554 -0.1750 -0.1502 -1.2031
  240MOL0     C31586   3.627   7.761   3.519  0.1447 -0.4334  0.4764
  240MOL0     C31587   3.712   7.717   3.642 -0.3024  1.0478  0.3204
  240MOL0     C31588   3.851   7.658   3.601  1.1775 -0.1340  0.2747
  240MOL0     C31589   3.940   7.734   3.497  0.0943  0.0530 -0.2242
  240MOL0     C31590   4.072   7.644   3.479 -1.5564  0.3586 -1.3987
  240MOL0     C31591   4.145   7.668   3.344 -0.5230 -0.0865 -0.1481
  240MOL0    Cl31592   4.261   7.528   3.329 -0.0625  0.3516 -0.8357
  240MOL0     C31593   3.118   7.683   3.331 -0.1566  0.1660 -0.0404
  240MOL0     C31594   2.991   7.613   3.321  0.7377 -0.9132 -0.9862
  240MOL0     O31595   2.597   7.753   3.426  0.5222 -0.0504 -0.0759
  240MOL0     C31596   2.554   7.393   3.378 -0.4792 -0.7981 -0.1446
  240MOL0     C31597   2.448   7.304   3.368  0.5451  0.2856  0.1682
  240MOL0     N31598   1.682   7.072   3.079  0.1582 -0.1990 -0.4783
  240MOL0     N31599   1.557   7.076   3.121 -0.1531  0.9841 -0.1507
  240MOL0     C31600   0.896   7.022   3.988 -0.0060 -0.6587 -0.8017
  240MOL0     C31601   0.923   6.931   4.093  0.7373 -0.1553  0.3777
  240MOL0     C31602   0.902   6.524   4.267 -0.3002  0.5132  0.3345
  240MOL0     C31603   1.002   6.570   4.349  0.0581  0.4670  0.0699
  240MOL0     C31604   1.062   6.487   4.446 -0.1541 -0.1959 -0.4025
  240MOL0     C31605   1.022   6.357   4.451  0.0326  0.9959 -0.6930
  240MOL0     O31606   1.088   6.275   4.539 -0.1610  0.1205  0.4854
  240MOL0     C31607   1.189   6.312   4.632  0.2445 -0.8296 -0.1787
  240MOL0     C31608   1.262   6.181   4.660  0.2601  1.1817 -0.6370
  240MOL0     C31609   1.377   6.188   4.747 -0.0091  0.1339  0.2457
  240MOL0     C31610   1.434   6.049   4.776  0.5397  0.2086  0.4197
  240MOL0     C31611   1.368   5.985   4.897  0.5338  0.7592 -0.2326
  240MOL0     C31612   1.320   5.917   4.990  0.7833 -0.5629  0.8346
  240MOL0     C31613   0.914   6.312   4.380  0.2091  0.6986  0.9305
  240MOL0     C31614   0.853   6.399   4.288 -0.2144  0.3004 -0.0306
  240MOL0     H31615   0.612   6.806   4.128 -0.3705 -0.4077 -0.4200
  240MOL0     H31616   0.569   6.995   3.948  1.8209 -1.2937 -1.7759
  240MOL0     H31617   0.928   7.270   3.825  0.6198 -0.0842 -1.8912
  240MOL0     H31618   0.808   7.308   3.713 -2.3338 -0.4443  1.9235
  240MOL0     H31619   0.834   7.046   3.654 -4.2599  3.4430  3.4567
  240MOL0     H31620   0.989   7.071   3.740  0.0377  1.6455  0.7494
  240MOL0     H31621   1.071   7.237   3.594 -1.0808  1.6659  0.9313
  240MOL0     H31622   0.921   7.242   3.507  1.7768  1.0637  0.3603
  240MOL0     H31623   1.090   6.987   3.539 -1.5651  0.6475  1.4212
  240MOL0     H31624   0.960   7.019   3.415 -0.3278  0.6006 -1.2980
  240MOL0     H31625   1.115   7.214   3.334 -4.7510 -2.4103 -2.3523
  240MOL0     H31626   1.178   7.052   3.299 -0.5710  0.7495  0.0817
  240MOL0     H31627   1.286   7.094   3.546 -0.1458 -0.7504 -0.4435
  240MOL0     H31628   1.264   7.263   3.497  5.9706  0.2308  1.3793
  240MOL0     H31629   1.390   7.237   3.306  1.9336 -1.5255 -1.4587
  240MOL0     H31630   1.483   7.192   3.450 -0.2449  0.7555  0.9524
  240MOL0     H31631   1.362   6.990   3.249  0.8027  0.8948 -1.3270
  240MOL0     H31632   1.440   6.945   3.401  3.2656 -0.6285 -1.2447
  240MOL0     H31633   1.713   6.952   3.389  0.4935  0.5766  0.3126
  240MOL0     H31634   1.928   6.970   3.073 -2.1080  1.8542 -0.8972
  240MOL0     H31635   1.933   6.930   3.248 -0.8803 -0.6141 -0.9543
  240MOL0     H31636   1.971   7.215   3.159 -0.8327 -0.1893 -0.3235
  240MOL0     H31637   2.104   7.106   3.185 -0.3663  0.2566 -0.8343
  240MOL0     H31638   1.883   7.187   3.392  0.6597  1.6787  0.0581
  240MOL0     H31639   2.029   7.080   3.425  3.0326  1.0688 -0.6455
  240MOL0     H31640   2.076   7.331   3.484  3.5359  1.7826 -0.5503
  240MOL0     H31641   2.037   7.366   3.320 -3.1867 -1.7024 -1.7142
  240MOL0     H31642   2.184   7.507   3.445 -0.5982  0.5480 -1.4691
  240MOL0     H31643   2.369   7.669   3.470 -0.6134 -0.2717  1.5163
  240MOL0     H31644   2.812   7.789   3.541 -0.2453  0.0523 -2.7405
  240MOL0     H31645   3.036   7.903   3.571  1.8918 -0.2045  0.1155
  240MOL0     H31646   3.430   7.801   3.349 -2.8981  3.3146 -0.0785
  240MOL0     H31647   3.352   7.660   3.426 -1.3306  0.0839  1.2877
  240MOL0     H31648   3.465   7.729   3.640  3.1701 -0.0852 -0.3252
  240MOL0     H31649   3.470   7.899   3.579  1.1574 -0.4657  1.0796
  240MOL0     H31650   3.665   7.842   3.457 -0.2559 -0.3445  0.3413
  240MOL0     H31651   3.622   7.670   3.458  2.0750  0.0355 -0.4317
  240MOL0     H31652   3.727   7.803   3.707 -3.0540  1.2228  0.8630
  240MOL0     H31653   3.651   7.643   3.696 -1.7458 -0.3925 -2.9810
  240MOL0     H31654   3.818   7.562   3.561  0.3785  1.3167 -2.9156
  240MOL0     H31655   3.910   7.638   3.691  3.9104  1.1675 -1.1125
  240MOL0     H31656   3.972   7.833   3.529  2.0777 -0.3879 -0.6808
  240MOL0     H31657   3.891   7.732   3.399 -0.5065  2.0478  0.0093
  240MOL0     H31658   4.156   7.655   3.548 -2.5477 -2.2689  0.3758
  240MOL0     H31659   4.045   7.539   3.495 -1.8571  0.7475  1.0488
  240MOL0     H31660   4.204   7.759   3.360  0.6255 -0.9232  0.5796
  240MOL0     H31661   4.074   7.684   3.263 -2.2763 -1.4413  1.0341
  240MOL0     H31662   3.199   7.642   3.272 -2.0795 -0.1284 -2.6412
  240MOL0     H31663   2.979   7.534   3.247 -3.0389 -1.5066  0.0489
  240MOL0     H31664   2.656   7.369   3.349 -1.0551  0.4473 -3.6122
  240MOL0     H31665   2.467   7.198   3.359 -1.5262 -0.2034  1.0359
  240MOL0     H31666   0.986   7.066   3.948  1.5468 -0.0268  2.9002
  240MOL0     H31667   1.024   6.914   4.130  1.9432 -0.4234 -2.7947
  240MOL0     H31668   1.042   6.670   4.338  0.5058  0.2977  0.1054
  240MOL0     H31669   1.146   6.527   4.503  1.7344 -3.2591 -0.8024
  240MOL0     H31670   1.144   6.361   4.718  1.7898  1.3151 -0.5080
  240MOL0     H31671   1.258   6.388   4.594 -1.6146  1.3116  0.5269
  240MOL0     H31672   1.195   6.101   4.692  0.5838  1.0925 -0.1776
  240MOL0     H31673   1.305   6.158   4.562 -1.9142  0.4367 -1.4760
  240MOL0     H31674   1.349   6.232   4.844  0.9545  1.2135  0.0675
  240MOL0     H31675   1.456   6.253   4.708  1.8347 -1.1429  1.5990
  240MOL0     H31676   1.409   6.000   4.681 -1.1759  1.2343  0.2873
  240MOL0     H31677   1.543   6.048   4.778  0.6807  3.4136 -0.1922
  240MOL0     H31678   1.267   5.842   5.044 -1.1424  0.4963  0.4966
  240MOL0     H31679   0.874   6.211   4.389 -0.0396  0.5611 -1.3521
  240MOL0     H31680   0.766   6.356   4.239  0.8259  0.2160 -1.8978
  241MOL0     O31681   0.869   9.052   2.702 -0.5755 -0.0088 -0.3314
  241MOL0     C31682   0.959   9.124   2.667 -0.1049 -0.7055  0.0579
  241MOL0     O31683   0.947   9.260   2.644 -0.0185 -0.2100 -0.0883
  241MOL0     C31684   0.825   9.323   2.663 -0.8031 -0.5812 -0.4486
  241MOL0     C31685   0.704   9.282   2.624  0.5468  0.7369  0.0209
  241MOL0     C31686   0.586   9.346   2.655 -0.3341  0.2862 -0.5169
  241MOL0     C31687   0.591   9.466   2.723  0.7542  0.3834 -0.6315
  241MOL0     O31688   0.484   9.555   2.724 -0.3594 -0.4972  0.0444
  241MOL0     C31689   0.353   9.511   2.774  0.0682  0.3896  0.1968
  241MOL0     C31690   0.266   9.498   2.653  0.1707  0.8044  0.9811
  241MOL0     C31691   0.122   9.510   2.701  0.7708 -0.2974 -0.6408
  241MOL0     C31692   0.016   9.455   2.611 -0.1740 -0.6009  0.3398
  241MOL0     C31693  -0.133   9.449   2.657 -0.3973  0.0035  0.1699
  241MOL0     C31694  -0.211   9.576   2.694 -0.5426  0.6591  0.3835
  241MOL0     C31695  -0.361   9.574   2.700 -0.1002  0.3549 -1.4225
  241MOL0     C31696  -0.397   9.465   2.809 -0.1677 -0.1699 -0.5188
  241MOL0     N31697  -0.541   9.463   2.829  0.1676  0.5265 -0.2050
  241MOL0     C31698  -0.615   9.563   2.898 -0.4453  0.2043  0.2352
  241MOL0     C31699  -0.736   9.521   2.891  0.7991  0.5179  0.6005
  241MOL0     C31700  -0.852   9.599   2.946  0.8781 -0.5054  0.2254
  241MOL0     C31701  -0.901   9.530   3.074  0.3497  0.0837  0.2783
  241MOL0     C31702  -0.939   9.383   3.057 -0.1737  0.2455 -0.3156
  241MOL0     C31703  -1.055   9.351   2.962  0.0273  0.7906  0.5665
  241MOL0     O31704  -1.178   9.408   3.018 -0.3058  0.1692  0.5186
  241MOL0     C31705  -1.295   9.421   2.945  0.1829  0.3889  0.6111
  241MOL0     C31706  -1.400   9.481   3.018  0.0139  0.2346 -0.1249
  241MOL0     C31707  -1.524   9.500   2.950  0.0470 -0.5174  1.0297
  241MOL0     C31708  -1.539   9.463   2.813  0.2816  0.1371 -0.2235
  241MOL0     C31709  -1.662   9.479   2.739 -0.4681 -0.4509 -0.2992
  241MOL0     O31710  -1.663   9.426   2.603 -0.6997  0.0166 -0.4343
  241MOL0     C31711  -1.780   9.459   2.546 -0.5573  0.5469  0.5158
  241MOL0     C31712  -1.890   9.374   2.546 -0.7605  0.3760 -0.4140
  241MOL0     C31713  -1.999   9.405   2.464  0.2761  0.5557 -0.9293
  241MOL0     C31714  -1.997   9.509   2.370 -0.2058 -0.1811 -0.6791
  241MOL0     O31715  -2.115   9.534   2.298 -0.0459 -0.0793  0.3166
  241MOL0     C31716  -2.127   9.654   2.221  0.0122 -0.5373 -0.7073
  241MOL0     C31717  -2.155   9.772   2.313 -0.0299 -1.5513 -0.5206
  241MOL0     C31718  -2.281   9.859   2.271 -0.9332 -0.7327 -0.3277
  241MOL0     C31719  -2.286   9.905   2.119  0.0299 -0.1586 -0.0937
  241MOL0     C31720  -2.403   9.987   2.074  0.8656 -0.2469 -0.7568
  241MOL0     C31721  -2.539   9.922   2.101 -0.1153 -0.7803 -0.3662
  241MOL0     C31722  -2.651  10.007   2.046  0.5444  0.1449  0.1054
  241MOL0     C31723  -2.787   9.948   2.073  0.4468  0.3494 -0.4186
  241MOL0    Cl31724  -2.897  10.051   1.979  0.6043  0.1396  0.2626
  241MOL0     C31725  -1.885   9.591   2.373 -0.4345 -0.4455  0.2055
  241MOL0     C31726  -1.782   9.574   2.469 -0.8639 -0.0216 -0.1091
  241MOL0     O31727  -1.759   9.542   2.787 -0.7585 -0.5932 -0.0397
  241MOL0     C31728  -1.440   9.390   2.754 -0.5411 -0.4063  0.5775
  241MOL0     C31729  -1.316   9.367   2.816  0.2935 -0.5311 -0.2130
  241MOL0     N31730  -0.745   9.424   2.792 -0.2648  0.0527 -0.2405
  241MOL0     N31731  -0.627   9.391   2.754  0.1445  0.5998 -0.0305
  241MOL0     C31732   0.715   9.515   2.765  0.0826 -0.9414  0.8409
  241MOL0     C31733   0.833   9.446   2.740  0.1870  0.0936 -0.1126
  241MOL0     C31734   1.088   9.066   2.635 -0.0757  0.9234  0.3598
  241MOL0     C31735   1.123   8.931   2.671  1.1385 -0.5725 -0.1419
  241MOL0     C31736   1.253   8.887   2.637  0.3733 -0.0434 -0.0736
  241MOL0     C31737   1.345   8.961   2.565 -0.7264 -0.0770  0.2559
  241MOL0     O31738   1.467   8.892   2.536 -0.3128 -0.0072 -0.1248
  241MOL0     C31739   1.561   8.980   2.468 -0.4851  0.0515 -0.3176
  241MOL0     C31740   1.693   8.900   2.468 -0.1267 -0.4593  0.2910
  241MOL0     C31741   1.806   8.956   2.389 -0.3292  0.1654 -0.4947
  241MOL0     C31742   1.853   9.102   2.422 -1.1216  1.0751  0.0479
  241MOL0     C31743   1.909   9.111   2.558  1.1814  0.4543  0.2172
  241MOL0     C31744   1.960   9.121   2.662  0.0144  1.0247 -0.1983
  241MOL0     C31745   1.304   9.087   2.527 -0.0463 -0.7072 -0.3759
  241MOL0     C31746   1.181   9.135   2.561 -0.0640 -0.4183  0.6922
  241MOL0     H31747   0.700   9.203   2.551  0.0919  1.1077 -0.3546
  241MOL0     H31748   0.492   9.313   2.612 -1.7050  0.5100  2.0695
  241MOL0     H31749   0.318   9.592   2.837  1.1141  1.0782 -0.0877
  241MOL0     H31750   0.378   9.421   2.831 -0.2582 -1.9288 -2.9937
  241MOL0     H31751   0.290   9.398   2.616 -0.6171  0.9810 -0.0261
  241MOL0     H31752   0.282   9.573   2.576 -1.9091 -0.3948 -0.7107
  241MOL0     H31753   0.108   9.619   2.710 -0.5539 -0.3664 -1.5605
  241MOL0     H31754   0.126   9.470   2.803 -0.9124 -1.2659 -0.9178
  241MOL0     H31755   0.015   9.524   2.526 -1.7344 -0.6219  0.3148
  241MOL0     H31756   0.048   9.356   2.578  3.4156  0.4856  0.1118
  241MOL0     H31757  -0.137   9.388   2.748  3.4553  0.8285  1.0713
  241MOL0     H31758  -0.192   9.393   2.584  1.4329 -0.9686 -0.6395
  241MOL0     H31759  -0.190   9.647   2.613  1.3855 -1.0151 -0.6731
  241MOL0     H31760  -0.163   9.627   2.778  1.4206  0.7100 -0.6952
  241MOL0     H31761  -0.403   9.668   2.737 -0.1805 -0.4325  0.5987
  241MOL0     H31762  -0.393   9.560   2.596  2.3027  0.2772 -2.2098
  241MOL0     H31763  -0.349   9.493   2.903 -0.4101  0.6915 -0.6428
  241MOL0     H31764  -0.354   9.366   2.790  2.2359  0.2533  2.1060
  241MOL0     H31765  -0.564   9.637   2.958  1.2202 -3.2928  3.5283
  241MOL0     H31766  -0.937   9.602   2.877 -0.1580  0.0302  1.4977
  241MOL0     H31767  -0.818   9.701   2.968  1.4350  0.6275 -4.6920
  241MOL0     H31768  -0.986   9.581   3.121 -1.3956 -2.0855 -0.3866
  241MOL0     H31769  -0.811   9.525   3.137  0.4423 -2.5237  0.0328
  241MOL0     H31770  -0.851   9.332   3.017  1.0317  3.0242 -1.4781
  241MOL0     H31771  -0.962   9.346   3.158  0.8814  2.4874  0.8245
  241MOL0     H31772  -1.063   9.242   2.956 -0.0038  0.8354 -0.3219
  241MOL0     H31773  -1.033   9.389   2.862  1.3591 -0.1160  0.4853
  241MOL0     H31774  -1.384   9.526   3.115 -0.1304 -0.7246  0.3589
  241MOL0     H31775  -1.609   9.551   2.996  1.0776  0.7251  1.6455
  241MOL0     H31776  -1.892   9.279   2.599  0.1315  0.2529 -0.5774
  241MOL0     H31777  -2.085   9.338   2.464  0.4955  0.2345  0.6469
  241MOL0     H31778  -2.209   9.629   2.153 -0.9557 -2.1266  0.9583
  241MOL0     H31779  -2.032   9.661   2.166  1.5246 -0.7643  1.7221
  241MOL0     H31780  -2.071   9.842   2.302  0.3361 -1.6755  1.2718
  241MOL0     H31781  -2.156   9.747   2.419 -0.7698  0.4292 -0.0124
  241MOL0     H31782  -2.297   9.947   2.335 -5.6446 -1.0635 -0.7342
  241MOL0     H31783  -2.373   9.802   2.281 -0.2695 -1.9395 -0.8784
  241MOL0     H31784  -2.201   9.971   2.104  0.2997 -0.3235  0.6724
  241MOL0     H31785  -2.282   9.819   2.051  0.8684 -0.2183  0.0180
  241MOL0     H31786  -2.390  10.010   1.968 -0.3310 -2.7494 -1.5134
  241MOL0     H31787  -2.394  10.083   2.127 -1.3360 -1.9589  3.1561
  241MOL0     H31788  -2.550   9.903   2.208  1.7642 -4.2765 -0.6446
  241MOL0     H31789  -2.539   9.823   2.054 -0.8019 -0.8314 -0.2693
  241MOL0     H31790  -2.641  10.105   2.094  1.6946  1.4130 -2.5019
  241MOL0     H31791  -2.636  10.024   1.939 -0.2670 -0.5491 -0.1275
  241MOL0     H31792  -2.810   9.948   2.180 -1.1267  0.9114 -0.7276
  241MOL0     H31793  -2.790   9.850   2.024  0.5272  0.4138 -0.5528
  241MOL0     H31794  -1.876   9.679   2.310 -0.9584 -0.0672  0.6454
  241MOL0     H31795  -1.709   9.653   2.477 -1.7813  0.7106  5.2634
  241MOL0     H31796  -1.452   9.344   2.657 -3.4656 -0.5638  0.9251
  241MOL0     H31797  -1.240   9.322   2.753  1.6851  0.5810  0.6047
  241MOL0     H31798   0.721   9.614   2.809 -1.4239 -0.7335  0.6231
  241MOL0     H31799   0.927   9.497   2.757  0.1100  0.6413 -1.1958
  241MOL0     H31800   1.058   8.870   2.733 -1.6670 -0.7674 -3.0089
  241MOL0     H31801   1.296   8.793   2.670  1.3093 -0.5915 -2.5974
  241MOL0     H31802   1.566   9.079   2.514  0.1091  1.9523 -4.0935
  241MOL0     H31803   1.530   8.993   2.364  1.9564 -0.1111 -1.1270
  241MOL0     H31804   1.722   8.888   2.573 -1.2296  1.4817  0.8739
  241MOL0     H31805   1.681   8.800   2.426  0.3632 -0.5868  0.4521
  241MOL0     H31806   1.792   8.951   2.281  1.3661 -4.4105 -0.7353
  241MOL0     H31807   1.889   8.887   2.407 -0.3631 -0.1441 -1.4887
  241MOL0     H31808   1.935   9.129   2.355 -0.0082 -1.6545  0.1708
  241MOL0     H31809   1.770   9.170   2.402 -2.7843 -0.9315 -0.2164
  241MOL0     H31810   2.000   9.124   2.761  2.0239 -1.1160 -0.8561
  241MOL0     H31811   1.364   9.145   2.457  1.8444  1.5729  2.8583
  241MOL0     H31812   1.174   9.237   2.523  1.9914 -0.5773 -0.2268
  242MOL0     O31813   7.755   1.457   6.980 -0.1898 -0.0450  0.2767
  242MOL0     C31814   7.771   1.365   6.893  0.2684  0.4447 -0.2931
  242MOL0     O31815   7.677   1.291   6.840  0.0851 -0.1892  0.5006
  242MOL0     C31816   7.543   1.305   6.853  0.0208  0.0201  0.2888
  242MOL0     C31817   7.478   1.200   6.802  1.1902  0.9500  0.4114
  242MOL0     C31818   7.337   1.183   6.820 -0.5225  0.3075 -0.3130
  242MOL0     C31819   7.255   1.283   6.883 -0.3578  0.3755 -0.3471
  242MOL0     O31820   7.132   1.270   6.933  0.7759  1.1940 -0.0324
  242MOL0     C31821   7.069   1.136   6.924 -0.3986  0.6654  0.4751
  242MOL0     C31822   6.931   1.146   6.995  0.0283  0.4143  0.3746
  242MOL0     C31823   6.861   1.284   6.960 -0.0732  0.5502 -0.4773
  242MOL0     C31824   6.724   1.266   7.016  0.2644  0.6316 -0.2258
  242MOL0     C31825   6.626   1.377   6.974 -0.3864 -0.5844 -0.0678
  242MOL0     C31826   6.489   1.356   7.032  0.2361  0.2241 -0.2735
  242MOL0     C31827   6.397   1.479   7.043  0.4159 -0.2428  0.0669
  242MOL0     C31828   6.410   1.561   7.171 -0.8907  1.2064 -1.0240
  242MOL0     N31829   6.312   1.521   7.276 -0.9301 -0.4634 -0.1759
  242MOL0     C31830   6.312   1.564   7.410  0.7115  0.5758 -0.5922
  242MOL0     C31831   6.199   1.493   7.461 -0.3387 -0.0023  0.2082
  242MOL0     C31832   6.148   1.516   7.600 -0.0092  0.2797 -0.0344
  242MOL0     C31833   6.263   1.510   7.712  0.9962 -0.4322 -0.1808
  242MOL0     C31834   6.222   1.585   7.838  0.5392 -0.1344  0.3875
  242MOL0     C31835   6.241   1.735   7.822 -0.4772 -0.5764 -0.5738
  242MOL0     O31836   6.208   1.809   7.938  0.7716 -0.3118 -0.5242
  242MOL0     C31837   6.083   1.820   7.986 -0.2782  0.6360 -0.1458
  242MOL0     C31838   5.969   1.779   7.928  0.5700 -0.0718 -0.8378
  242MOL0     C31839   5.842   1.795   7.980 -0.0752 -0.8635  0.5853
  242MOL0     C31840   5.826   1.847   8.107 -0.2505 -0.3885 -0.3881
  242MOL0     C31841   5.692   1.865   8.172 -0.9209  0.8990 -0.0723
  242MOL0     O31842   5.590   1.815   8.117 -0.2719  0.1503  0.9064
  242MOL0     C31843   5.461   1.859   8.164 -0.6025  0.7436  0.3306
  242MOL0     C31844   5.374   1.928   8.070 -0.4225  0.6795  0.8858
  242MOL0     C31845   5.251   1.965   8.105 -0.4506  0.2060 -0.0807
  242MOL0     C31846   5.187   1.918   8.225  0.3186 -0.1501 -0.2498
  242MOL0     O31847   5.061   1.955   8.262 -0.0255 -0.0136 -0.3473
  242MOL0     C31848   4.960   1.983   8.161 -0.5563 -0.3972 -0.2508
  242MOL0     C31849   4.829   1.962   8.241 -0.1229  0.8069  0.0569
  242MOL0     C31850   4.707   2.039   8.188 -0.0079 -0.2167 -0.7891
  242MOL0     C31851   4.577   1.984   8.263  0.4770  1.2635 -0.0622
  242MOL0     C31852   4.444   2.060   8.238 -0.7921 -0.2979  0.4010
  242MOL0     C31853   4.453   2.202   8.299 -0.2211  0.4606  0.5686
  242MOL0     C31854   4.316   2.275   8.306  0.2072 -0.2356  0.8034
  242MOL0     C31855   4.224   2.254   8.431  0.2371 -0.5328  0.4206
  242MOL0    Cl31856   4.166   2.099   8.415 -0.1256  0.0933 -0.2000
  242MOL0     C31857   5.266   1.845   8.315 -0.1156 -0.4668  0.2645
  242MOL0     C31858   5.404   1.817   8.287  0.6703 -0.3371 -0.0658
  242MOL0     O31859   5.698   1.930   8.276 -0.2556  0.0092  0.2990
  242MOL0     C31860   5.939   1.884   8.172  0.1457 -0.2960 -0.9355
  242MOL0     C31861   6.069   1.875   8.112 -0.1086 -0.2672  0.6567
  242MOL0     N31862   6.138   1.424   7.363 -0.1473 -0.7778 -0.0046
  242MOL0     N31863   6.211   1.439   7.253 -0.2863 -0.1468 -0.7168
  242MOL0     C31864   7.326   1.396   6.936  0.3151 -0.1427  1.0119
  242MOL0     C31865   7.468   1.400   6.922  0.2988 -1.2199 -0.1339
  242MOL0     C31866   7.902   1.309   6.872  0.5551 -0.2996 -0.1346
  242MOL0     C31867   7.933   1.212   6.773 -0.6352 -0.1516 -1.0735
  242MOL0     C31868   8.057   1.147   6.770  0.5630  0.4589 -0.5086
  242MOL0     C31869   8.158   1.198   6.847  1.0269 -0.2092  0.5659
  242MOL0     O31870   8.269   1.123   6.859 -0.3653 -0.5814  0.1427
  242MOL0     C31871   8.386   1.165   6.779 -0.0065 -0.3815  0.1930
  242MOL0     C31872   8.513   1.081   6.801 -0.7643  0.2470 -0.1667
  242MOL0     C31873   8.570   1.106   6.942 -0.2967 -0.1414  0.2429
  242MOL0     C31874   8.641   1.244   6.952  0.4359  0.0193  0.2340
  242MOL0     C31875   8.761   1.230   7.026  0.0423  0.3700 -0.2062
  242MOL0     C31876   8.861   1.233   7.092 -0.5122  0.6611  0.5839
  242MOL0     C31877   8.141   1.308   6.926 -0.0677 -0.1930 -0.2441
  242MOL0     C31878   8.013   1.357   6.954  1.0029  0.1345  0.2656
  242MOL0     H31879   7.537   1.119   6.761 -0.6079 -0.5645  0.6562
  242MOL0     H31880   7.286   1.091   6.794  0.7582 -0.9399  1.3914
  242MOL0     H31881   7.119   1.053   6.975 -0.9432  0.8541  1.3345
  242MOL0     H31882   7.065   1.100   6.821  0.1576  1.9237 -0.0095
  242MOL0     H31883   6.954   1.136   7.101  0.9867  1.9031  0.3454
  242MOL0     H31884   6.866   1.062   6.969 -2.4259  1.3837  2.8853
  242MOL0     H31885   6.871   1.294   6.852  0.4348  0.1291 -0.4700
  242MOL0     H31886   6.913   1.360   7.018  0.8202 -0.2628 -0.1979
  242MOL0     H31887   6.675   1.176   6.978  0.8242  0.7797 -1.3486
  242MOL0     H31888   6.722   1.254   7.124  3.3317 -2.5068 -0.3327
  242MOL0     H31889   6.628   1.384   6.865 -1.3321  3.1142  0.0214
  242MOL0     H31890   6.668   1.469   7.016 -4.5182  1.7674 -0.6188
  242MOL0     H31891   6.487   1.311   7.132 -1.1771  0.1079 -0.3274
  242MOL0     H31892   6.440   1.287   6.963  0.1666  2.1504 -2.2545
  242MOL0     H31893   6.406   1.548   6.958  1.7795  0.0255  0.4015
  242MOL0     H31894   6.295   1.447   7.020  0.2614  0.5083 -0.3326
  242MOL0     H31895   6.379   1.664   7.154 -4.7747  0.3268 -0.3297
  242MOL0     H31896   6.510   1.550   7.213 -1.4917 -0.0504  0.1407
  242MOL0     H31897   6.381   1.631   7.461  0.9105 -1.0226  1.3502
  242MOL0     H31898   6.061   1.452   7.618  0.5125 -0.1255  1.1216
  242MOL0     H31899   6.106   1.616   7.618  1.1406  0.4451  1.9969
  242MOL0     H31900   6.356   1.553   7.673  0.7280  0.8665  0.5513
  242MOL0     H31901   6.289   1.406   7.735  6.2406  0.0836 -2.3019
  242MOL0     H31902   6.119   1.567   7.871  0.4356  1.2283  0.8878
  242MOL0     H31903   6.275   1.557   7.929  0.3186 -1.1462  0.2103
  242MOL0     H31904   6.179   1.769   7.738 -1.6426  0.4999  0.6845
  242MOL0     H31905   6.347   1.756   7.805 -0.1948 -0.2199  1.4533
  242MOL0     H31906   5.968   1.750   7.824 -2.9799 -0.6807 -0.7848
  242MOL0     H31907   5.757   1.753   7.928  1.0580 -3.8835  1.0121
  242MOL0     H31908   5.412   1.969   7.977 -0.1244  1.0307  1.1585
  242MOL0     H31909   5.194   2.024   8.034 -2.1530 -0.0191  1.0528
  242MOL0     H31910   4.959   1.904   8.086  0.2489 -1.3788  0.7507
  242MOL0     H31911   4.993   2.079   8.118  2.7259 -2.6472 -3.3430
  242MOL0     H31912   4.839   2.007   8.340 -3.0166  3.5393 -0.7211
  242MOL0     H31913   4.798   1.857   8.251 -1.5953  1.2250  0.1551
  242MOL0     H31914   4.691   2.026   8.080  0.3852 -2.0183 -0.6711
  242MOL0     H31915   4.720   2.146   8.207 -0.2693  0.0647 -2.0502
  242MOL0     H31916   4.555   1.889   8.212 -1.5072  0.9462  1.2832
  242MOL0     H31917   4.592   1.972   8.371 -1.4179  1.5971  0.2736
  242MOL0     H31918   4.360   2.018   8.295 -1.2938 -0.5666 -0.5168
  242MOL0     H31919   4.420   2.063   8.132  1.4532 -0.8386 -0.1851
  242MOL0     H31920   4.528   2.266   8.251 -1.9503  0.7466 -1.9280
  242MOL0     H31921   4.487   2.184   8.401 -0.6586  1.8184  0.9704
  242MOL0     H31922   4.336   2.382   8.303  0.1909 -0.2513 -1.2723
  242MOL0     H31923   4.253   2.260   8.217  1.1399  0.9564 -0.0786
  242MOL0     H31924   4.149   2.333   8.439  2.8143  2.0359  0.7980
  242MOL0     H31925   4.281   2.264   8.524 -1.3656  1.5584  1.2384
  242MOL0     H31926   5.209   1.795   8.392 -1.5124 -2.4173 -1.8861
  242MOL0     H31927   5.461   1.744   8.344 -0.6861 -1.3961 -0.0164
  242MOL0     H31928   5.933   1.926   8.272 -3.6103 -0.5878 -0.8978
  242MOL0     H31929   6.163   1.915   8.149  0.1722  0.1713 -0.5057
  242MOL0     H31930   7.263   1.469   6.985  0.1083 -2.2028  4.0815
  242MOL0     H31931   7.511   1.491   6.963  0.0004 -2.2031  2.5743
  242MOL0     H31932   7.862   1.174   6.699 -0.2735 -3.3006  0.0350
  242MOL0     H31933   8.080   1.061   6.708 -1.4213  0.9713 -2.0553
  242MOL0     H31934   8.410   1.271   6.792  0.8455 -0.4376 -0.7909
  242MOL0     H31935   8.350   1.158   6.676 -1.3751 -0.6629  0.6623
  242MOL0     H31936   8.489   0.977   6.776  0.7745 -0.2102  0.1573
  242MOL0     H31937   8.589   1.102   6.725  1.1201  0.7225  1.7728
  242MOL0     H31938   8.647   1.031   6.959  1.6705  1.5223 -0.9129
  242MOL0     H31939   8.497   1.102   7.024 -0.4167 -1.7620  0.0973
  242MOL0     H31940   8.659   1.286   6.852  1.4317  4.0813  1.8908
  242MOL0     H31941   8.574   1.320   6.994 -1.1016 -1.4447  0.5284
  242MOL0     H31942   8.949   1.220   7.151 -0.8491 -0.3123  0.8935
  242MOL0     H31943   8.233   1.341   6.973  0.0882 -0.7021 -0.1807
  242MOL0     H31944   8.003   1.436   7.028 -0.8740  0.7905 -0.6331
  243MOL0     O31945  10.740   1.324   1.546 -0.2598 -0.0010 -0.2643
  243MOL0     C31946  10.701   1.421   1.613 -0.0588 -1.0441  0.6477
  243MOL0     O31947  10.779   1.508   1.683 -0.1325  0.4637  0.1222
  243MOL0     C31948  10.914   1.513   1.691 -0.1974  0.5036 -0.2395
  243MOL0     C31949  11.007   1.447   1.619  0.5477  0.0057  0.3422
  243MOL0     C31950  11.144   1.465   1.636 -0.1721 -1.0394  1.4372
  243MOL0     C31951  11.200   1.560   1.727 -0.9460 -1.0311  0.5552
  243MOL0     O31952  11.329   1.583   1.769  0.5533 -0.0604  0.6012
  243MOL0     C31953  11.423   1.479   1.745  0.2604 -0.6906 -0.2415
  243MOL0     C31954  11.496   1.558   1.640  0.4121 -0.6088 -0.0704
  243MOL0     C31955  11.610   1.479   1.587  0.0223  0.1731  0.1510
  243MOL0     C31956  11.695   1.560   1.478  0.2228  0.3339 -0.1210
  243MOL0     C31957  11.754   1.475   1.367  0.2821 -0.6269  0.3621
  243MOL0     C31958  11.803   1.572   1.255 -0.3370 -0.1065  0.7737
  243MOL0     C31959  11.858   1.473   1.146  0.4695 -0.5152  0.2178
  243MOL0     C31960  11.855   1.544   1.008  0.5315  0.4611 -0.4168
  243MOL0     N31961  11.725   1.564   0.950  0.3026 -0.1495  0.2264
  243MOL0     C31962  11.679   1.689   0.920 -0.9036  0.4101  0.3797
  243MOL0     C31963  11.559   1.665   0.850  0.2012  0.1107  0.2418
  243MOL0     C31964  11.469   1.765   0.781 -0.4484 -1.2895 -0.6858
  243MOL0     C31965  11.351   1.786   0.879 -0.2239  0.4489 -0.1474
  243MOL0     C31966  11.253   1.890   0.825  0.1337 -0.2936  0.1666
  243MOL0     C31967  11.135   1.930   0.926  0.0587  0.1500 -0.2218
  243MOL0     O31968  11.176   2.029   1.020 -0.1960  0.1283  0.0057
  243MOL0     C31969  11.075   2.082   1.100 -0.5699 -0.3544 -0.2063
  243MOL0     C31970  11.116   2.168   1.208  0.3659  0.8511 -0.2655
  243MOL0     C31971  11.022   2.237   1.287 -0.0196  0.4220  0.3677
  243MOL0     C31972  10.883   2.211   1.275 -0.3906  1.0236  0.4448
  243MOL0     C31973  10.779   2.269   1.367 -0.2108 -0.5791  1.1991
  243MOL0     O31974  10.658   2.243   1.334 -0.0565  0.4561  0.5327
  243MOL0     C31975  10.556   2.269   1.427  0.1574 -0.8115 -1.1601
  243MOL0     C31976  10.553   2.233   1.561 -0.3926 -0.0400  0.5964
  243MOL0     C31977  10.448   2.245   1.635  0.2329  0.3848  0.2898
  243MOL0     C31978  10.327   2.290   1.578  0.8169  0.8118  0.2930
  243MOL0     O31979  10.201   2.289   1.641  0.0633  0.2802 -0.3824
  243MOL0     C31980  10.203   2.280   1.785  0.0869  0.1425 -0.6854
  243MOL0     C31981  10.066   2.299   1.846  0.5843  0.4170 -0.3020
  243MOL0     C31982  10.003   2.161   1.845  0.4782 -0.2632 -0.1464
  243MOL0     C31983   9.854   2.176   1.880  0.8552  0.3454  0.1512
  243MOL0     C31984   9.826   2.237   2.018 -0.1176 -0.2071  0.4921
  243MOL0     C31985   9.678   2.265   2.018 -0.2697  0.0516 -0.1647
  243MOL0     C31986   9.624   2.316   2.158 -0.2671 -0.4885  0.9944
  243MOL0     C31987   9.682   2.457   2.198  0.6081 -0.3245  0.0138
  243MOL0    Cl31988   9.658   2.496   2.361 -0.0507  0.1280  0.1608
  243MOL0     C31989  10.327   2.331   1.440  0.2755  0.0669 -0.1568
  243MOL0     C31990  10.442   2.322   1.368 -0.1763  0.1777  0.1676
  243MOL0     O31991  10.821   2.328   1.471 -1.0575 -0.3934 -0.2958
  243MOL0     C31992  10.843   2.116   1.166 -0.3421 -0.1550  0.1076
  243MOL0     C31993  10.938   2.063   1.080 -0.8458  0.2328  0.3437
  243MOL0     N31994  11.533   1.529   0.842 -0.5775  0.9344 -0.9168
  243MOL0     N31995  11.626   1.474   0.915  0.1145 -0.3960  0.9039
  243MOL0     C31996  11.100   1.624   1.801 -0.3080  0.1402 -0.9911
  243MOL0     C31997  10.963   1.605   1.788  0.1359  0.3926  0.4651
  243MOL0     C31998  10.555   1.459   1.599  0.0352  0.3948 -0.7265
  243MOL0     C31999  10.477   1.426   1.495 -0.1246  0.1232 -0.3017
  243MOL0     C32000  10.339   1.465   1.489 -0.2710 -0.0357  1.1227
  243MOL0     C32001  10.284   1.545   1.592 -0.2871  0.0991 -0.4336
  243MOL0     O32002  10.148   1.570   1.587  0.1142  0.0163  0.1032
  243MOL0     C32003  10.074   1.538   1.467  0.7445  0.5199 -0.0276
  243MOL0     C32004   9.930   1.587   1.489 -0.4850 -0.1104 -0.1988
  243MOL0     C32005   9.876   1.507   1.609  0.2635  0.1220 -0.2404
  243MOL0     C32006   9.722   1.524   1.639  0.1802  0.2208 -0.3353
  243MOL0     C32007   9.692   1.662   1.689  0.2020 -0.2190 -0.0337
  243MOL0     C32008   9.679   1.772   1.725  0.4093 -0.1760 -0.8507
  243MOL0     C32009  10.362   1.577   1.703 -0.0405  0.0253 -0.1440
  243MOL0     C32010  10.495   1.532   1.703  0.0452 -0.5889  0.2299
  243MOL0     H32011  10.968   1.378   1.545 -2.7293 -0.2930  2.1288
  243MOL0     H32012  11.217   1.415   1.573  0.6483 -0.1812  1.6822
  243MOL0     H32013  11.396   1.386   1.693 -2.9262 -0.5137  0.8778
  243MOL0     H32014  11.490   1.457   1.828 -0.6137 -3.0546 -0.0830
  243MOL0     H32015  11.530   1.653   1.683 -0.8341  0.6916 -1.8143
  243MOL0     H32016  11.426   1.591   1.563  1.1136  3.1369  0.7153
  243MOL0     H32017  11.580   1.387   1.536  2.4579 -2.0113  2.3525
  243MOL0     H32018  11.667   1.445   1.674 -0.6476  0.3656  0.6716
  243MOL0     H32019  11.632   1.634   1.428  0.3996  0.0685 -0.7500
  243MOL0     H32020  11.779   1.608   1.529 -1.0575  1.5126  0.9667
  243MOL0     H32021  11.696   1.393   1.323  0.4063 -0.3664 -0.2937
  243MOL0     H32022  11.842   1.429   1.414 -0.2016 -1.2548  0.6613
  243MOL0     H32023  11.890   1.626   1.293 -1.1683  2.6168 -0.9658
  243MOL0     H32024  11.731   1.645   1.219 -0.7898 -0.6852  0.4818
  243MOL0     H32025  11.963   1.461   1.177  0.0614  1.7133  2.8367
  243MOL0     H32026  11.794   1.384   1.142 -3.3142  1.8976  2.0898
  243MOL0     H32027  11.906   1.474   0.940  2.0472 -0.0668  1.1768
  243MOL0     H32028  11.921   1.631   1.009  0.3054  0.6287  0.6747
  243MOL0     H32029  11.730   1.784   0.934  3.6670 -1.9374  1.5886
  243MOL0     H32030  11.439   1.721   0.686 -0.3661 -2.8385 -0.0162
  243MOL0     H32031  11.526   1.857   0.761 -1.2616 -0.4859  0.5404
  243MOL0     H32032  11.395   1.813   0.975  3.3590  1.5230 -1.8966
  243MOL0     H32033  11.301   1.690   0.893  0.8562 -0.2484 -0.9085
  243MOL0     H32034  11.305   1.975   0.779 -0.8946  0.8523  1.0502
  243MOL0     H32035  11.187   1.846   0.750  1.1735 -1.5554 -0.0470
  243MOL0     H32036  11.106   1.837   0.975  0.8663 -1.8046 -3.2044
  243MOL0     H32037  11.054   1.973   0.867 -0.8656 -1.9707 -0.5819
  243MOL0     H32038  11.222   2.189   1.218  0.9617 -2.1916  1.1223
  243MOL0     H32039  11.057   2.301   1.368  0.7935  1.6226 -0.8840
  243MOL0     H32040  10.640   2.185   1.605 -1.1007 -2.3985 -0.4211
  243MOL0     H32041  10.448   2.212   1.739 -1.6689 -1.9330 -0.3514
  243MOL0     H32042  10.270   2.361   1.816 -1.1777  1.8109 -2.1314
  243MOL0     H32043  10.236   2.177   1.802 -1.1546  0.0274  1.2821
  243MOL0     H32044   9.999   2.357   1.783 -0.0288 -0.4626 -0.4844
  243MOL0     H32045  10.077   2.339   1.947  0.4060  2.1355 -0.9381
  243MOL0     H32046  10.058   2.098   1.916  1.9282  2.6229  1.4880
  243MOL0     H32047   9.999   2.111   1.748 -3.5997 -1.3636  0.4362
  243MOL0     H32048   9.804   2.228   1.798  1.4319  0.8544  0.1126
  243MOL0     H32049   9.809   2.076   1.881  0.6456  0.3997  2.7631
  243MOL0     H32050   9.900   2.313   2.046  2.8635 -2.3096 -1.0771
  243MOL0     H32051   9.854   2.160   2.089 -1.2699 -0.2011  0.9615
  243MOL0     H32052   9.616   2.181   1.985 -1.3225  0.1434  1.4407
  243MOL0     H32053   9.665   2.353   1.954 -0.3491  1.0610  1.1906
  243MOL0     H32054   9.516   2.324   2.147 -0.1693  1.2908  1.0534
  243MOL0     H32055   9.657   2.248   2.238  1.5149 -1.2519 -0.3070
  243MOL0     H32056   9.616   2.525   2.143  1.1316  1.4033  1.4361
  243MOL0     H32057   9.785   2.477   2.169  0.8662  0.0540  1.1433
  243MOL0     H32058  10.230   2.355   1.398  0.8536 -0.5529 -1.9534
  243MOL0     H32059  10.437   2.333   1.260 -0.2968  2.0659  0.3406
  243MOL0     H32060  10.743   2.090   1.135  0.4259 -2.7735 -0.4478
  243MOL0     H32061  10.902   1.994   1.004 -2.8077  0.8312  0.6737
  243MOL0     H32062  11.133   1.686   1.885 -0.5636 -1.0849  0.0464
  243MOL0     H32063  10.887   1.649   1.851 -1.9730 -1.2057 -0.8349
  243MOL0     H32064  10.514   1.374   1.408 -0.1044  0.4615 -0.4975
  243MOL0     H32065  10.285   1.433   1.401  1.6931  0.5074 -0.3784
  243MOL0     H32066  10.073   1.429   1.458  0.8864  0.4809  0.3744
  243MOL0     H32067  10.122   1.575   1.376  5.0242 -0.7704  1.4262
  243MOL0     H32068   9.937   1.695   1.500  2.1910 -0.4077  1.8361
  243MOL0     H32069   9.874   1.565   1.397  0.3646  0.9452 -0.9987
  243MOL0     H32070   9.922   1.537   1.703 -1.2287 -3.5656  1.8967
  243MOL0     H32071   9.886   1.400   1.588 -1.1538 -0.2096  0.6050
  243MOL0     H32072   9.654   1.508   1.554  0.1202 -0.7423 -0.1170
  243MOL0     H32073   9.690   1.450   1.713  3.6094 -0.1913  0.9150
  243MOL0     H32074   9.666   1.877   1.738 -0.5109 -0.4605  0.8446
  243MOL0     H32075  10.309   1.632   1.780 -0.3316 -0.5387  0.0570
  243MOL0     H32076  10.548   1.556   1.794  0.3889 -1.0657  0.1593
  244MOL0     O32077   7.074   1.575   1.026 -0.1596 -0.6806  0.5588
  244MOL0     C32078   7.156   1.508   1.084 -0.2800  0.1070  0.2416
  244MOL0     O32079   7.133   1.390   1.141 -0.9930  0.0027  0.3567
  244MOL0     C32080   7.015   1.324   1.127 -0.1080 -0.4857 -0.3873
  244MOL0     C32081   7.025   1.187   1.114  1.3496  0.2858  0.8898
  244MOL0     C32082   6.914   1.110   1.114 -0.0493 -0.0637  0.1121
  244MOL0     C32083   6.783   1.162   1.121 -0.4923 -0.2641  0.1507
  244MOL0     O32084   6.669   1.079   1.129  0.2656  0.6224  0.9437
  244MOL0     C32085   6.548   1.114   1.069  0.4243  0.3622  0.3131
  244MOL0     C32086   6.451   0.996   1.087  0.3211 -0.4492  0.9089
  244MOL0     C32087   6.299   1.053   1.069  0.1037  0.5940 -0.2159
  244MOL0     C32088   6.202   0.944   1.107  0.1610 -0.8803  0.1984
  244MOL0     C32089   6.067   0.960   1.041 -1.4266 -0.4667 -1.1288
  244MOL0     C32090   5.970   0.858   1.100  0.7205 -0.7307 -0.7993
  244MOL0     C32091   5.834   0.893   1.039  0.0347 -0.3116  0.5708
  244MOL0     C32092   5.735   0.972   1.125  0.3473  0.0517  0.7958
  244MOL0     N32093   5.619   0.986   1.044  1.2147  0.6045  0.1520
  244MOL0     C32094   5.526   0.890   1.023 -0.3037 -0.2209 -0.0048
  244MOL0     C32095   5.420   0.955   0.961 -0.3591  1.2953 -0.3710
  244MOL0     C32096   5.296   0.895   0.907  0.7781 -0.4267 -0.3192
  244MOL0     C32097   5.203   0.858   1.020  0.9009  1.3163  1.1139
  244MOL0     C32098   5.146   0.993   1.078  0.6126 -0.5445  0.2534
  244MOL0     C32099   5.045   0.970   1.195 -0.3727 -1.2475  0.1427
  244MOL0     O32100   4.911   0.962   1.146  0.0867  0.0433  0.3560
  244MOL0     C32101   4.805   0.962   1.235  0.4374  0.9387  0.1920
  244MOL0     C32102   4.808   0.984   1.376  0.2427 -0.1344  0.6002
  244MOL0     C32103   4.691   0.986   1.449  0.2685 -0.5529 -0.9773
  244MOL0     C32104   4.563   0.957   1.391 -0.1072 -0.1877  0.4920
  244MOL0     C32105   4.440   0.950   1.478 -0.5965 -0.0946 -0.1932
  244MOL0     O32106   4.318   0.937   1.412  0.1545 -0.1105 -0.2160
  244MOL0     C32107   4.205   0.951   1.479  0.2390 -0.2493 -0.0997
  244MOL0     C32108   4.183   1.070   1.562 -0.3719 -0.1676  1.2678
  244MOL0     C32109   4.061   1.078   1.627 -0.1856 -0.0135  0.4824
  244MOL0     C32110   3.970   0.969   1.630 -0.7745  0.4726  1.7902
  244MOL0     O32111   3.847   0.964   1.688 -0.2395  0.5434 -0.7195
  244MOL0     C32112   3.813   1.075   1.777  0.1033  0.2099  0.6582
  244MOL0     C32113   3.690   1.033   1.852 -0.7493 -0.5055  0.1399
  244MOL0     C32114   3.727   0.926   1.954  0.7852  0.4017  0.7648
  244MOL0     C32115   3.608   0.877   2.033  1.2840  0.3302  0.7991
  244MOL0     C32116   3.675   0.774   2.134 -0.9317  0.2371  0.6739
  244MOL0     C32117   3.631   0.631   2.105  0.6300 -0.0843  0.6901
  244MOL0     C32118   3.664   0.585   1.967  0.0505  0.0969 -0.3074
  244MOL0     C32119   3.594   0.457   1.952 -0.0391  0.1030 -0.6042
  244MOL0    Cl32120   3.676   0.338   2.060  0.1127  0.1065 -0.1472
  244MOL0     C32121   3.997   0.848   1.562 -1.2658  0.5838 -0.0143
  244MOL0     C32122   4.118   0.838   1.479  0.2564  0.3301  0.0076
  244MOL0     O32123   4.459   0.948   1.599  0.3994  0.0329  0.5553
  244MOL0     C32124   4.563   0.934   1.253 -0.0768 -0.0358 -0.3734
  244MOL0     C32125   4.680   0.931   1.179  0.3412  0.2602 -0.0564
  244MOL0     N32126   5.451   1.087   0.945  0.2078 -0.2815  0.2241
  244MOL0     N32127   5.569   1.109   0.987 -0.3689 -0.2239  0.4437
  244MOL0     C32128   6.776   1.300   1.132 -1.1036 -0.1251  0.4208
  244MOL0     C32129   6.893   1.381   1.136 -0.2177  0.1394  0.4464
  244MOL0     C32130   7.282   1.575   1.098 -0.3179  0.1559 -0.5414
  244MOL0     C32131   7.374   1.526   1.198  0.2498  0.5619 -0.0811
  244MOL0     C32132   7.495   1.587   1.220  0.1396  0.0402  0.3271
  244MOL0     C32133   7.541   1.691   1.147  0.1745 -0.9232  0.4220
  244MOL0     O32134   7.670   1.740   1.153 -0.4005  0.1797  0.3037
  244MOL0     C32135   7.770   1.670   1.223  0.8010  0.3268  0.0622
  244MOL0     C32136   7.902   1.678   1.156 -0.8002 -0.3147  0.5614
  244MOL0     C32137   7.951   1.821   1.149 -0.2953  0.3096 -0.5284
  244MOL0     C32138   8.093   1.840   1.094  0.2182 -0.3621 -0.0564
  244MOL0     C32139   8.199   1.779   1.170  1.0119 -0.0437  0.0188
  244MOL0     C32140   8.285   1.734   1.241 -0.8559 -0.8725  0.4379
  244MOL0     C32141   7.454   1.736   1.048 -0.4379  0.1180  0.5033
  244MOL0     C32142   7.320   1.693   1.030 -0.2423  0.1596  0.1981
  244MOL0     H32143   7.120   1.136   1.106  0.2215 -1.6240 -1.5361
  244MOL0     H32144   6.913   1.002   1.110 -1.0370 -0.1604  1.8409
  244MOL0     H32145   6.577   1.141   0.966  3.0145  1.7556  1.3043
  244MOL0     H32146   6.510   1.205   1.115 -0.0791 -0.0989  0.8211
  244MOL0     H32147   6.457   0.949   1.186  3.6116 -0.1463  0.9467
  244MOL0     H32148   6.470   0.923   1.009 -1.7139 -1.3499  1.2054
  244MOL0     H32149   6.297   1.064   0.960 -1.3421  1.4626 -0.1201
  244MOL0     H32150   6.277   1.143   1.126  0.2218  0.0787  0.6542
  244MOL0     H32151   6.244   0.852   1.066  1.4050  0.6383 -2.1319
  244MOL0     H32152   6.200   0.940   1.216  1.8462  1.8673  0.4192
  244MOL0     H32153   6.084   0.950   0.934  2.1642 -4.2097 -0.4901
  244MOL0     H32154   6.024   1.056   1.069 -1.2090 -0.5341 -0.5459
  244MOL0     H32155   5.967   0.873   1.208  0.3054 -1.3863 -0.7144
  244MOL0     H32156   6.007   0.757   1.079 -0.7567 -1.3894 -0.2916
  244MOL0     H32157   5.853   0.942   0.943  0.7140  0.5301  1.1225
  244MOL0     H32158   5.777   0.804   1.009 -0.4315  0.3957 -0.7338
  244MOL0     H32159   5.775   1.073   1.139  0.4533  0.3112 -1.0781
  244MOL0     H32160   5.714   0.927   1.223  0.8720 -0.2707  0.7624
  244MOL0     H32161   5.524   0.784   1.046 -2.8610 -0.1214  0.6390
  244MOL0     H32162   5.335   0.811   0.848 -3.4567 -1.0686 -2.5797
  244MOL0     H32163   5.241   0.959   0.837 -0.2714 -1.0540 -0.0905
  244MOL0     H32164   5.260   0.794   1.088  1.4825  1.1242  0.4566
  244MOL0     H32165   5.119   0.800   0.983  1.5673  1.0603 -0.0445
  244MOL0     H32166   5.233   1.053   1.106  0.3298  0.3448 -0.7076
  244MOL0     H32167   5.090   1.049   1.003  0.8685  1.2625  1.3526
  244MOL0     H32168   5.045   1.053   1.265  1.6388  0.0964 -1.3564
  244MOL0     H32169   5.070   0.875   1.243 -0.3716 -1.3953 -0.1463
  244MOL0     H32170   4.902   1.017   1.419  0.2638  1.0253 -0.2957
  244MOL0     H32171   4.690   0.998   1.557 -3.4993  0.8853 -0.9918
  244MOL0     H32172   4.254   1.149   1.539  0.4807 -0.2735  3.2933
  244MOL0     H32173   4.038   1.161   1.693 -3.1729  0.5580 -1.1106
  244MOL0     H32174   3.800   1.156   1.704  0.2734 -0.2995  0.0523
  244MOL0     H32175   3.893   1.093   1.849  0.8873 -2.8116  0.6746
  244MOL0     H32176   3.609   1.002   1.785 -1.3344 -4.6019  2.4035
  244MOL0     H32177   3.656   1.120   1.909 -1.6932 -1.3346  0.8779
  244MOL0     H32178   3.789   0.988   2.019  0.9374  2.0369 -0.8558
  244MOL0     H32179   3.776   0.840   1.907 -0.4378  0.6649 -1.1190
  244MOL0     H32180   3.565   0.960   2.089 -1.2158 -0.9767  0.9750
  244MOL0     H32181   3.525   0.842   1.969  2.0501  1.9404 -1.1895
  244MOL0     H32182   3.646   0.807   2.234  0.1319  2.0597  0.4356
  244MOL0     H32183   3.784   0.784   2.128 -1.0105  0.6342 -0.1388
  244MOL0     H32184   3.525   0.621   2.130  0.6413 -1.3166  0.2831
  244MOL0     H32185   3.681   0.560   2.171  0.0180 -0.4892  0.7290
  244MOL0     H32186   3.638   0.661   1.893  0.7046  1.3758  0.7290
  244MOL0     H32187   3.771   0.560   1.964 -0.3938 -2.6153  2.1991
  244MOL0     H32188   3.612   0.429   1.848  3.2013  2.4391 -0.8203
  244MOL0     H32189   3.487   0.462   1.973  0.5971  1.2443  3.2609
  244MOL0     H32190   3.926   0.766   1.551 -1.9221  1.3936 -2.2928
  244MOL0     H32191   4.140   0.746   1.427 -2.2114  0.0968 -0.7576
  244MOL0     H32192   4.477   0.915   1.190  0.4318  0.5214 -1.2535
  244MOL0     H32193   4.664   0.918   1.073  0.3978  0.6435 -0.1150
  244MOL0     H32194   6.682   1.354   1.131 -1.8931 -1.4234 -1.9467
  244MOL0     H32195   6.881   1.488   1.143  3.2456  0.7743 -1.4292
  244MOL0     H32196   7.348   1.438   1.256 -0.7158  0.9676  0.1331
  244MOL0     H32197   7.549   1.554   1.308  0.7284  0.4722  0.1380
  244MOL0     H32198   7.755   1.561   1.219  1.0202  0.3200 -2.5942
  244MOL0     H32199   7.777   1.710   1.325  0.0193  0.9476 -0.1176
  244MOL0     H32200   7.971   1.616   1.216 -0.2609 -0.8011 -0.5330
  244MOL0     H32201   7.892   1.643   1.053  2.0288 -2.5181  0.9034
  244MOL0     H32202   7.951   1.865   1.249 -1.0327 -3.7567  1.4870
  244MOL0     H32203   7.885   1.880   1.086  1.5393  0.3469 -2.5423
  244MOL0     H32204   8.109   1.787   0.999  3.1011 -1.4563  0.9309
  244MOL0     H32205   8.109   1.947   1.084  0.3806 -0.2750  0.9989
  244MOL0     H32206   8.370   1.699   1.296 -1.2128 -2.7329 -0.1213
  244MOL0     H32207   7.485   1.816   0.982 -0.5616  1.0855  1.5796
  244MOL0     H32208   7.266   1.748   0.953  1.9130  2.3558  0.1071
  245MOL0     O32209   5.607  10.890   2.792  0.0973 -0.3482  0.1068
  245MOL0     C32210   5.640  11.003   2.830  0.3126  0.2541  0.3742
  245MOL0     O32211   5.554  11.103   2.858 -0.0499 -0.6890  0.3469
  245MOL0     C32212   5.416  11.081   2.867  0.0807 -0.3794 -0.7201
  245MOL0     C32213   5.344  11.204   2.860  0.2931 -0.1232  0.2586
  245MOL0     C32214   5.203  11.194   2.891 -0.3580 -0.3348  0.7866
  245MOL0     C32215   5.135  11.076   2.925  0.1912  0.4833 -0.4039
  245MOL0     O32216   5.001  11.089   2.954 -0.3925  0.4257  0.2057
  245MOL0     C32217   4.918  10.972   2.994 -0.1521 -0.1696  0.2371
  245MOL0     C32218   4.831  11.010   3.121 -0.2782  0.4066  1.0362
  245MOL0     C32219   4.778  10.880   3.191  0.0491  0.7971 -0.7384
  245MOL0     C32220   4.686  10.916   3.308  0.4612  0.3573 -0.8880
  245MOL0     C32221   4.551  10.971   3.274  0.5130 -0.3150 -0.1052
  245MOL0     C32222   4.477  11.010   3.397  0.6383 -0.1804  0.5507
  245MOL0     C32223   4.324  11.014   3.364  0.5824 -0.2222  0.4439
  245MOL0     C32224   4.289  11.129   3.271  0.9483 -0.0931  0.0552
  245MOL0     N32225   4.145  11.157   3.289  0.1614 -0.3736 -0.1730
  245MOL0     C32226   4.049  11.071   3.264  0.2634 -0.2216 -0.3200
  245MOL0     C32227   3.940  11.118   3.329  0.1844  0.1513 -0.9461
  245MOL0     C32228   3.801  11.067   3.316  0.5942  0.2174 -0.2238
  245MOL0     C32229   3.790  10.943   3.412 -0.0429  0.1336 -0.6004
  245MOL0     C32230   3.670  10.866   3.370  0.4164 -0.5112 -0.2584
  245MOL0     C32231   3.539  10.950   3.396  0.4840 -0.0297  0.4517
  245MOL0     O32232   3.429  10.877   3.349 -0.4072  0.0530  0.3840
  245MOL0     C32233   3.306  10.933   3.329  0.1145 -0.2207 -0.0195
  245MOL0     C32234   3.271  11.063   3.376  0.3634  0.3120 -0.1972
  245MOL0     C32235   3.143  11.121   3.361  0.6300  0.3747 -0.0897
  245MOL0     C32236   3.043  11.046   3.305  0.2884 -0.0147  0.3751
  245MOL0     C32237   2.903  11.088   3.301  0.1310 -1.0802 -0.7180
  245MOL0     O32238   2.875  11.203   3.357  0.4746 -0.2752  0.3679
  245MOL0     C32239   2.759  11.269   3.332  0.0432  0.7333  0.3059
  245MOL0     C32240   2.633  11.222   3.371 -0.0946  0.6286 -0.0336
  245MOL0     C32241   2.521  11.300   3.338 -0.6312 -0.2001  0.2591
  245MOL0     C32242   2.532  11.414   3.254 -0.9387  1.4225  0.2233
  245MOL0     O32243   2.417  11.465   3.198 -0.1305 -0.2026  0.2555
  245MOL0     C32244   2.288  11.446   3.255 -0.6127 -0.6863 -0.1254
  245MOL0     C32245   2.257  11.550   3.366 -1.0560  0.3289 -0.3424
  245MOL0     C32246   2.113  11.533   3.409 -1.1521  0.4725 -0.1619
  245MOL0     C32247   2.083  11.626   3.534 -0.2328  0.4748  1.0120
  245MOL0     C32248   1.935  11.623   3.562 -0.5092 -0.3387 -0.0957
  245MOL0     C32249   1.913  11.695   3.698  0.8540  0.1766  0.1338
  245MOL0     C32250   1.899  11.588   3.815  0.3921  0.1196  0.1896
  245MOL0     C32251   1.830  11.653   3.936 -0.7417 -0.6249  0.3002
  245MOL0    Cl32252   1.845  11.549   4.073  0.3317  0.3518 -0.0342
  245MOL0     C32253   2.655  11.450   3.202  0.3870  0.2320  0.4812
  245MOL0     C32254   2.775  11.382   3.241  0.6500  0.0527  0.1771
  245MOL0     O32255   2.824  11.015   3.238  0.3137  0.7728 -1.1131
  245MOL0     C32256   3.083  10.924   3.248  0.0029 -0.5878 -0.4720
  245MOL0     C32257   3.207  10.870   3.264  0.0678  0.3089 -0.9372
  245MOL0     N32258   3.975  11.228   3.407  0.6178  0.1951 -0.6281
  245MOL0     N32259   4.101  11.251   3.383 -0.2483 -0.2803 -0.1415
  245MOL0     C32260   5.210  10.960   2.917  0.2138  0.3197 -0.5705
  245MOL0     C32261   5.346  10.961   2.888  0.4523  0.2301  0.9642
  245MOL0     C32262   5.781  11.020   2.862 -0.1756  0.5651  0.1481
  245MOL0     C32263   5.888  10.927   2.817 -1.0488  1.0924 -0.1170
  245MOL0     C32264   6.022  10.943   2.859 -0.0246  0.4245  0.4079
  245MOL0     C32265   6.058  11.052   2.943  0.8138 -0.8410 -0.3922
  245MOL0     O32266   6.180  11.065   2.975  0.0098  0.0346  0.0790
  245MOL0     C32267   6.232  11.185   3.035  0.2381  0.1296  0.8935
  245MOL0     C32268   6.368  11.153   3.095 -0.8499  0.2808 -0.7702
  245MOL0     C32269   6.478  11.126   2.990 -0.0544 -0.9523 -0.0147
  245MOL0     C32270   6.603  11.092   3.057 -0.5876  0.2127  0.7607
  245MOL0     C32271   6.721  11.075   2.969  0.5161 -0.7588 -0.4796
  245MOL0     C32272   6.815  11.045   2.901 -0.6276  0.0495 -1.0188
  245MOL0     C32273   5.950  11.139   2.989 -0.2918 -0.1354  0.5815
  245MOL0     C32274   5.821  11.122   2.949 -0.1731 -0.1659 -0.9414
  245MOL0     H32275   5.394  11.299   2.850 -0.7641  0.8872  3.3442
  245MOL0     H32276   5.150  11.289   2.890 -1.9631 -1.1059 -2.6201
  245MOL0     H32277   4.985  10.887   3.012  2.0140  1.5702  0.7941
  245MOL0     H32278   4.857  10.954   2.905 -2.0233  0.8910  1.2351
  245MOL0     H32279   4.752  11.078   3.087  1.3244  2.8733  1.9724
  245MOL0     H32280   4.886  11.065   3.198  0.3789  1.8260 -0.3829
  245MOL0     H32281   4.866  10.819   3.210 -1.7052 -2.0227 -1.1456
  245MOL0     H32282   4.727  10.810   3.124  0.8671  0.6617 -1.2269
  245MOL0     H32283   4.659  10.826   3.364 -1.7315  1.7548  0.4450
  245MOL0     H32284   4.730  10.990   3.376 -1.9222 -0.4875  1.7632
  245MOL0     H32285   4.496  10.886   3.232  1.0745 -2.1026  2.5102
  245MOL0     H32286   4.564  11.056   3.207 -2.1589  0.4647  0.2366
  245MOL0     H32287   4.510  11.108   3.432 -1.9333  1.0763 -0.3477
  245MOL0     H32288   4.499  10.938   3.477  2.3903 -1.5726 -1.0680
  245MOL0     H32289   4.293  10.918   3.321  0.8773 -0.9572  1.8145
  245MOL0     H32290   4.265  11.020   3.456  1.8655 -0.7842  1.3337
  245MOL0     H32291   4.303  11.083   3.173  3.3011  1.7280 -0.5766
  245MOL0     H32292   4.330  11.230   3.284  1.2216 -0.1797 -0.1123
  245MOL0     H32293   4.057  10.980   3.204  0.7954  1.1430 -2.4221
  245MOL0     H32294   3.777  11.046   3.211 -2.1984  0.6539  0.2368
  245MOL0     H32295   3.728  11.139   3.353  0.7692  0.3189 -0.0737
  245MOL0     H32296   3.784  10.968   3.518  1.4165 -2.9783  0.3208
  245MOL0     H32297   3.868  10.867   3.398  0.1337 -0.8039  4.0402
  245MOL0     H32298   3.678  10.827   3.268  2.5419  1.1656 -0.8107
  245MOL0     H32299   3.657  10.782   3.439 -1.1082 -0.1537 -0.0661
  245MOL0     H32300   3.541  11.047   3.345 -2.3421  2.0575  3.8177
  245MOL0     H32301   3.534  10.959   3.505  0.4057 -1.8652  0.6312
  245MOL0     H32302   3.351  11.121   3.422  1.7174 -1.8889  0.3514
  245MOL0     H32303   3.116  11.217   3.405 -1.2259 -0.9718  1.8688
  245MOL0     H32304   2.630  11.134   3.434  1.5123  0.4928 -0.1015
  245MOL0     H32305   2.426  11.261   3.373 -0.0113 -1.8913  0.1630
  245MOL0     H32306   2.269  11.343   3.287 -2.5346 -0.3808 -0.1218
  245MOL0     H32307   2.218  11.468   3.174  1.1126 -1.2457 -1.8183
  245MOL0     H32308   2.267  11.653   3.331 -1.0365  1.2008  2.0713
  245MOL0     H32309   2.321  11.522   3.450 -0.1400 -3.2330 -2.0197
  245MOL0     H32310   2.093  11.427   3.432  0.9664  0.1103  0.1755
  245MOL0     H32311   2.039  11.558   3.333 -1.8475  0.8087  0.6027
  245MOL0     H32312   2.136  11.583   3.620 -0.5239 -3.1528 -0.4665
  245MOL0     H32313   2.123  11.727   3.521 -0.8752  0.7133  0.8377
  245MOL0     H32314   1.896  11.521   3.565 -6.8031  1.6142  2.1532
  245MOL0     H32315   1.879  11.685   3.490  0.9203 -0.9264 -1.7740
  245MOL0     H32316   1.823  11.758   3.697  0.1041 -0.8360 -1.5614
  245MOL0     H32317   1.989  11.769   3.724 -0.1573  0.7781  1.5074
  245MOL0     H32318   1.837  11.505   3.781 -1.8478  1.4237  0.8891
  245MOL0     H32319   1.993  11.538   3.839 -0.1789 -1.2553 -0.3445
  245MOL0     H32320   1.726  11.670   3.907 -0.8383 -0.3559  0.7923
  245MOL0     H32321   1.870  11.753   3.956 -0.0575 -0.1873 -2.7596
  245MOL0     H32322   2.654  11.525   3.124 -1.9259 -1.7590 -1.5836
  245MOL0     H32323   2.874  11.401   3.201  1.1068 -3.7274 -0.8627
  245MOL0     H32324   3.015  10.866   3.187  0.0238 -0.9776 -0.1310
  245MOL0     H32325   3.214  10.769   3.225 -0.4887 -0.1555  0.1009
  245MOL0     H32326   5.166  10.862   2.932  0.1290 -0.4777 -4.7026
  245MOL0     H32327   5.400  10.870   2.912  0.6380  0.9202  3.4783
  245MOL0     H32328   5.867  10.843   2.751  0.4669  0.9579 -0.4841
  245MOL0     H32329   6.095  10.868   2.827  1.4763  1.8886  0.2682
  245MOL0     H32330   6.174  11.225   3.119 -0.2356  2.2284 -0.3657
  245MOL0     H32331   6.221  11.266   2.962 -1.1959 -0.0946  0.8476
  245MOL0     H32332   6.388  11.245   3.149 -1.2773  0.9844 -1.7862
  245MOL0     H32333   6.353  11.077   3.173  0.1534  2.5376  1.7581
  245MOL0     H32334   6.486  11.209   2.919 -0.3021 -0.2171  0.7975
  245MOL0     H32335   6.453  11.040   2.927  2.2537 -0.3935 -1.8137
  245MOL0     H32336   6.636  11.180   3.114  0.7334  0.6455 -0.5994
  245MOL0     H32337   6.597  11.002   3.119 -2.9562 -0.7072 -0.6761
  245MOL0     H32338   6.910  11.030   2.855 -0.1270  1.7666 -0.6213
  245MOL0     H32339   5.964  11.223   3.056  0.8641  1.9956 -2.1305
  245MOL0     H32340   5.751  11.197   2.985  0.6197 -0.8837  2.4059
  246MOL0     O32341   1.298   6.286   1.757 -0.7702  0.3596  0.7166
  246MOL0     C32342   1.214   6.312   1.666  0.0218 -0.1141 -0.4339
  246MOL0     O32343   1.242   6.322   1.530  0.4033  0.2452  0.5018
  246MOL0     C32344   1.372   6.307   1.493 -0.4166  0.1877  0.6111
  246MOL0     C32345   1.397   6.215   1.391  0.9012  0.7482 -0.0704
  246MOL0     C32346   1.524   6.195   1.336  0.2157  1.4678  0.4523
  246MOL0     C32347   1.631   6.263   1.391 -0.2757 -0.3781 -0.3540
  246MOL0     O32348   1.768   6.238   1.361  0.4659 -0.1574  0.3362
  246MOL0     C32349   1.817   6.160   1.261  0.5684  1.4896 -0.7665
  246MOL0     C32350   1.815   6.228   1.129  0.9436  0.4315  0.3193
  246MOL0     C32351   1.833   6.382   1.113  0.5615 -0.1548 -1.2397
  246MOL0     C32352   1.836   6.432   0.965  0.5334  1.0714 -0.5858
  246MOL0     C32353   1.898   6.573   0.941 -0.4480 -0.3914 -0.6852
  246MOL0     C32354   1.826   6.676   1.028 -0.1770 -0.6577  0.6421
  246MOL0     C32355   1.675   6.687   1.004  0.2350  0.4881  0.2150
  246MOL0     C32356   1.640   6.743   0.859 -0.6844 -0.5494 -0.2735
  246MOL0     N32357   1.497   6.737   0.836 -0.1682  0.2489  0.1019
  246MOL0     C32358   1.398   6.781   0.920 -0.4825 -0.3715  0.5588
  246MOL0     C32359   1.288   6.752   0.856 -0.0994 -0.2253  0.2185
  246MOL0     C32360   1.150   6.764   0.918 -0.0574  0.7041  0.1156
  246MOL0     C32361   1.050   6.798   0.810 -0.4203  0.2640 -0.5882
  246MOL0     C32362   1.009   6.666   0.732 -0.4911 -0.9512  0.2669
  246MOL0     C32363   0.874   6.695   0.666  0.2443 -0.9532  0.2471
  246MOL0     O32364   0.780   6.772   0.753 -0.0448  0.2802  0.4129
  246MOL0     C32365   0.650   6.769   0.702 -0.7621 -0.6186  0.3340
  246MOL0     C32366   0.557   6.691   0.762  0.4285 -0.4417  0.9833
  246MOL0     C32367   0.429   6.685   0.718  0.3954  0.0558  0.3507
  246MOL0     C32368   0.383   6.762   0.612  0.1038  0.7677  0.2625
  246MOL0     C32369   0.244   6.744   0.549 -1.0905  0.4851 -0.5953
  246MOL0     O32370   0.155   6.669   0.604  0.5833  0.2427  0.0291
  246MOL0     C32371   0.029   6.674   0.561  0.4634 -0.2074 -0.2551
  246MOL0     C32372  -0.061   6.764   0.626  0.4215  0.1819  0.5300
  246MOL0     C32373  -0.193   6.763   0.588 -0.2788  0.2909 -0.3037
  246MOL0     C32374  -0.242   6.664   0.512 -0.1965  0.2491 -0.2741
  246MOL0     O32375  -0.378   6.670   0.493 -0.2691 -0.0952  0.0957
  246MOL0     C32376  -0.449   6.542   0.468  0.3685  0.5191 -0.5096
  246MOL0     C32377  -0.601   6.563   0.501 -0.2434  0.4224 -0.4162
  246MOL0     C32378  -0.679   6.436   0.519 -0.1013  0.4456 -0.7130
  246MOL0     C32379  -0.824   6.468   0.542  0.4300 -0.0716  0.5300
  246MOL0     C32380  -0.908   6.332   0.554 -0.3750  0.4627 -1.0980
  246MOL0     C32381  -0.855   6.212   0.642 -0.1531 -0.8641  0.1863
  246MOL0     C32382  -0.842   6.263   0.784 -0.5691 -0.4340 -0.5692
  246MOL0     C32383  -0.760   6.165   0.867 -0.9341  0.2907  0.1655
  246MOL0    Cl32384  -0.595   6.150   0.807  0.0526  0.4487 -0.0956
  246MOL0     C32385  -0.158   6.572   0.459 -0.2751 -0.5440 -0.5667
  246MOL0     C32386  -0.025   6.574   0.480  0.8766 -0.1432 -0.4439
  246MOL0     O32387   0.234   6.807   0.450 -0.4344  0.3371 -0.0332
  246MOL0     C32388   0.478   6.853   0.559 -0.0764  0.2134 -0.0627
  246MOL0     C32389   0.611   6.855   0.596 -0.5313  0.9000  0.4917
  246MOL0     N32390   1.318   6.683   0.737 -0.9604 -0.3087 -0.0850
  246MOL0     N32391   1.443   6.673   0.733 -0.5743  0.1842 -0.0492
  246MOL0     C32392   1.613   6.356   1.487  0.0806 -1.0830  0.1468
  246MOL0     C32393   1.482   6.380   1.539 -0.4660 -0.8970  0.2531
  246MOL0     C32394   1.073   6.350   1.705 -0.2497  0.6034  0.1695
  246MOL0     C32395   1.049   6.387   1.840 -0.2935 -0.2673 -0.0014
  246MOL0     C32396   0.915   6.400   1.887 -0.9378 -0.3198  0.2484
  246MOL0     C32397   0.812   6.389   1.796  0.2867  0.0514  0.2376
  246MOL0     O32398   0.682   6.397   1.855 -0.3122  0.0151 -0.2738
  246MOL0     C32399   0.570   6.379   1.775 -0.3385  0.1322  1.0299
  246MOL0     C32400   0.453   6.441   1.832  1.1219 -0.2053  0.7069
  246MOL0     C32401   0.441   6.443   1.985  0.3700  0.3318  0.6242
  246MOL0     C32402   0.328   6.532   2.039 -0.6063  0.0983  0.3470
  246MOL0     C32403   0.198   6.466   2.041 -0.0866  0.0998  0.4993
  246MOL0     C32404   0.091   6.399   2.052 -0.2644  0.0189 -1.0061
  246MOL0     C32405   0.839   6.369   1.661 -0.3659 -0.1875  1.0196
  246MOL0     C32406   0.967   6.351   1.612  0.1193 -0.1815 -0.1733
  246MOL0     H32407   1.308   6.159   1.363  1.3261  0.5857 -1.1442
  246MOL0     H32408   1.537   6.110   1.269 -0.8588  2.9323 -1.7245
  246MOL0     H32409   1.774   6.060   1.255 -0.3192  1.7343  0.9327
  246MOL0     H32410   1.924   6.147   1.282 -0.1707  1.0701  3.8332
  246MOL0     H32411   1.718   6.207   1.082  0.4588  4.4581 -0.8175
  246MOL0     H32412   1.899   6.182   1.076 -0.0908  0.0968 -1.0962
  246MOL0     H32413   1.929   6.405   1.161  0.1786 -0.7982 -0.1420
  246MOL0     H32414   1.754   6.432   1.169  1.3650 -0.6892  0.4623
  246MOL0     H32415   1.884   6.359   0.899  1.1627  0.7351  0.2252
  246MOL0     H32416   1.733   6.419   0.928  0.8679 -2.3521 -0.6063
  246MOL0     H32417   1.897   6.607   0.837 -2.1620  0.3112 -0.4701
  246MOL0     H32418   2.006   6.571   0.961 -0.4965 -1.4951 -0.4241
  246MOL0     H32419   1.860   6.777   1.004 -5.1179  1.0866 -0.2597
  246MOL0     H32420   1.841   6.661   1.135  0.1801  0.4618  0.7614
  246MOL0     H32421   1.628   6.590   1.024 -0.4454  0.8626  0.4384
  246MOL0     H32422   1.639   6.761   1.075  3.4297 -0.4500  3.1050
  246MOL0     H32423   1.688   6.684   0.781  0.4558 -0.8998  0.6594
  246MOL0     H32424   1.686   6.841   0.849  4.9199 -2.5133  2.1197
  246MOL0     H32425   1.412   6.814   1.022 -2.2698 -1.1165  1.0860
  246MOL0     H32426   1.160   6.844   0.993  2.0497 -0.3872  1.0687
  246MOL0     H32427   1.113   6.673   0.966  0.3417 -0.8602 -2.3843
  246MOL0     H32428   1.092   6.869   0.737 -1.8743 -0.9080 -2.6960
  246MOL0     H32429   0.975   6.857   0.864 -0.3142  2.1836 -2.3764
  246MOL0     H32430   1.086   6.634   0.661  0.7242 -2.1513  2.0330
  246MOL0     H32431   0.991   6.588   0.807 -2.8060  1.0368  1.9174
  246MOL0     H32432   0.823   6.605   0.630 -0.5507  1.0124 -4.2041
  246MOL0     H32433   0.894   6.751   0.575 -0.3748 -0.8024  0.1996
  246MOL0     H32434   0.602   6.625   0.835  2.8642  1.0455  0.9316
  246MOL0     H32435   0.371   6.612   0.773  1.7113 -1.8314 -0.6581
  246MOL0     H32436  -0.027   6.838   0.698  3.5495 -1.9452  1.4553
  246MOL0     H32437  -0.256   6.844   0.624  3.4007  3.0914  0.4266
  246MOL0     H32438  -0.402   6.459   0.522 -4.2896 -1.1490  1.4655
  246MOL0     H32439  -0.430   6.541   0.360  2.4927 -2.3808 -0.2317
  246MOL0     H32440  -0.648   6.638   0.436  1.2624  2.1808  0.4360
  246MOL0     H32441  -0.598   6.622   0.593  1.6456 -0.2923  0.0230
  246MOL0     H32442  -0.635   6.388   0.607 -2.4544 -0.6281 -0.0370
  246MOL0     H32443  -0.677   6.379   0.426 -1.3446  0.6731 -0.8924
  246MOL0     H32444  -0.837   6.521   0.636  2.4598  0.4454  0.5835
  246MOL0     H32445  -0.853   6.532   0.457 -0.5242  0.9859  1.6186
  246MOL0     H32446  -0.923   6.298   0.451 -0.1046 -0.6071 -0.7866
  246MOL0     H32447  -1.005   6.360   0.598  0.4590  2.3862 -0.3757
  246MOL0     H32448  -0.757   6.186   0.602 -0.4395 -0.1626 -1.0121
  246MOL0     H32449  -0.931   6.134   0.628 -0.9507  0.1285 -1.3351
  246MOL0     H32450  -0.796   6.362   0.781  2.0022 -1.5116  0.2978
  246MOL0     H32451  -0.940   6.273   0.832 -0.9718 -0.5878 -1.3516
  246MOL0     H32452  -0.792   6.060   0.867  1.1571 -0.3954  0.2997
  246MOL0     H32453  -0.759   6.211   0.966 -0.7565  0.8159 -0.0793
  246MOL0     H32454  -0.189   6.511   0.375  0.2317 -0.6617 -0.6727
  246MOL0     H32455   0.042   6.512   0.421  0.6516 -0.4550 -0.3752
  246MOL0     H32456   0.448   6.921   0.480  0.4608  1.7260  0.9823
  246MOL0     H32457   0.680   6.920   0.543 -2.3842  3.4419  1.0165
  246MOL0     H32458   1.689   6.424   1.525  2.7041 -3.5845 -0.2720
  246MOL0     H32459   1.473   6.452   1.620  1.4780 -1.2798  0.8614
  246MOL0     H32460   1.138   6.397   1.901  0.4561 -0.1281 -1.0898
  246MOL0     H32461   0.894   6.434   1.988  2.6731  1.8469  0.4380
  246MOL0     H32462   0.551   6.271   1.769 -0.8514  0.2961 -1.2272
  246MOL0     H32463   0.579   6.416   1.673 -0.1182 -0.7391  0.7239
  246MOL0     H32464   0.437   6.543   1.795  0.3242 -1.2623 -2.1277
  246MOL0     H32465   0.367   6.377   1.806  2.7971 -2.1845 -0.2604
  246MOL0     H32466   0.533   6.483   2.029  0.7781  0.9915 -0.7635
  246MOL0     H32467   0.419   6.345   2.028 -2.4610 -0.9052 -3.0693
  246MOL0     H32468   0.357   6.560   2.141  3.1189 -0.1985 -0.4733
  246MOL0     H32469   0.338   6.625   1.981  3.1705  0.0897  0.7360
  246MOL0     H32470  -0.003   6.349   2.067 -0.0166  0.0419  0.9133
  246MOL0     H32471   0.761   6.361   1.587 -1.7859 -0.5145  2.5032
  246MOL0     H32472   0.979   6.324   1.507  1.2223 -0.9340  0.1203
  247MOL0     O32473   7.469   1.496   4.793  0.3587 -0.3303  0.2146
  247MOL0     C32474   7.473   1.570   4.890 -0.3079 -1.0022 -0.1943
  247MOL0     O32475   7.373   1.660   4.926 -0.3402  0.2824  0.8229
  247MOL0     C32476   7.251   1.648   4.868  0.9072  0.1826  1.6880
  247MOL0     C32477   7.149   1.588   4.932 -0.2519 -0.9095  0.1357
  247MOL0     C32478   7.027   1.567   4.872 -0.2266  0.7933 -0.8481
  247MOL0     C32479   6.998   1.607   4.750 -0.3479  0.0774  0.1647
  247MOL0     O32480   6.871   1.582   4.716 -0.3816  0.4989  0.4886
  247MOL0     C32481   6.798   1.684   4.655  0.7235  0.5292  0.2935
  247MOL0     C32482   6.654   1.618   4.616  0.6723  0.8328  0.1139
  247MOL0     C32483   6.561   1.734   4.573 -0.4639 -0.3275  0.0050
  247MOL0     C32484   6.421   1.677   4.533 -0.4283  0.0633 -0.3791
  247MOL0     C32485   6.341   1.794   4.485 -0.7231  0.1365  0.4836
  247MOL0     C32486   6.219   1.744   4.413 -1.1418 -0.4654  0.4345
  247MOL0     C32487   6.111   1.708   4.512 -0.3822 -0.0390  0.4801
  247MOL0     C32488   6.022   1.836   4.532  0.5034  0.0011  0.1502
  247MOL0     N32489   5.918   1.829   4.636 -0.5325  0.4020 -0.1657
  247MOL0     C32490   5.942   1.833   4.768  0.6066 -0.6580 -0.8936
  247MOL0     C32491   5.814   1.815   4.824 -0.9944  1.1888  0.7769
  247MOL0     C32492   5.796   1.829   4.966 -0.0844 -0.3401  1.0258
  247MOL0     C32493   5.661   1.912   5.002 -0.8131  0.7070 -0.0102
  247MOL0     C32494   5.679   2.057   4.958 -0.3581  0.4002 -0.3544
  247MOL0     C32495   5.565   2.157   5.016  0.6268 -0.1398 -0.0666
  247MOL0     O32496   5.592   2.286   4.965  0.0300  0.2954  0.3947
  247MOL0     C32497   5.518   2.397   5.005  0.4195  1.2278 -1.1831
  247MOL0     C32498   5.534   2.512   4.934 -0.1124 -0.0499  0.2879
  247MOL0     C32499   5.460   2.627   4.964  1.0811 -0.2722 -0.3816
  247MOL0     C32500   5.371   2.627   5.081  0.2949 -0.1594  0.5328
  247MOL0     C32501   5.306   2.753   5.114  0.0388  0.5391  0.0925
  247MOL0     O32502   5.296   2.859   5.016 -0.6021 -0.1784  0.0684
  247MOL0     C32503   5.213   2.966   5.037 -0.1905 -0.1068 -0.6415
  247MOL0     C32504   5.203   3.046   5.155 -0.9345 -0.1428  0.7541
  247MOL0     C32505   5.129   3.159   5.164 -0.3040  0.0619  0.4145
  247MOL0     C32506   5.071   3.215   5.046 -0.9637  0.2540 -0.5728
  247MOL0     O32507   5.014   3.339   5.039  0.1243 -0.5213  0.1189
  247MOL0     C32508   4.964   3.402   5.155 -0.1998  0.1321 -0.3935
  247MOL0     C32509   4.844   3.315   5.208  0.4200 -0.7931  0.0638
  247MOL0     C32510   4.729   3.317   5.108 -0.3020  0.0303  0.1845
  247MOL0     C32511   4.623   3.244   5.182 -0.3788  0.7023 -0.4429
  247MOL0     C32512   4.482   3.264   5.117 -0.1303  0.1716 -0.0211
  247MOL0     C32513   4.489   3.266   4.964  0.0884 -0.3315  0.2819
  247MOL0     C32514   4.360   3.213   4.896  0.3064 -0.8692 -0.2773
  247MOL0     C32515   4.394   3.166   4.758 -0.6244 -0.3783  0.1442
  247MOL0    Cl32516   4.414   3.313   4.660  0.3576 -0.2869  0.2270
  247MOL0     C32517   5.079   3.138   4.928  0.0335 -0.0590  0.1069
  247MOL0     C32518   5.131   3.013   4.932 -0.6284  0.4233  0.4624
  247MOL0     O32519   5.256   2.760   5.226  0.0872 -0.2332 -0.4126
  247MOL0     C32520   5.352   2.506   5.146 -0.0454  0.2153 -0.6210
  247MOL0     C32521   5.425   2.394   5.105 -0.7810 -0.2492  0.4561
  247MOL0     N32522   5.722   1.780   4.728 -0.7392  0.2579  0.9646
  247MOL0     N32523   5.785   1.797   4.609 -0.5777  0.6815 -1.2638
  247MOL0     C32524   7.095   1.675   4.676 -0.4666 -0.0031  0.3691
  247MOL0     C32525   7.224   1.697   4.739 -0.3016  0.0002  0.7186
  247MOL0     C32526   7.588   1.562   4.984 -0.5575  0.4110  0.8894
  247MOL0     C32527   7.673   1.442   4.994  0.4591  0.2292 -0.0054
  247MOL0     C32528   7.776   1.427   5.094 -0.2310  0.1533  1.3542
  247MOL0     C32529   7.806   1.529   5.176 -0.0602 -0.2507  1.0428
  247MOL0     O32530   7.917   1.510   5.265  0.6446  0.7004  1.3341
  247MOL0     C32531   7.942   1.618   5.347  1.3361 -0.1921  0.3375
  247MOL0     C32532   8.049   1.561   5.440 -0.9995 -0.7691  0.3989
  247MOL0     C32533   8.183   1.555   5.364  0.2100 -0.0283 -0.1533
  247MOL0     C32534   8.292   1.506   5.462 -0.3667  0.5568  0.3803
  247MOL0     C32535   8.419   1.481   5.385 -0.7918  0.9533  0.3665
  247MOL0     C32536   8.522   1.446   5.321  1.0462 -0.6768  1.0107
  247MOL0     C32537   7.740   1.651   5.159 -0.1979  0.6776  0.5244
  247MOL0     C32538   7.631   1.673   5.066  0.3225 -0.5329 -0.7927
  247MOL0     H32539   7.169   1.547   5.031  0.3805  0.8462  0.7751
  247MOL0     H32540   6.962   1.515   4.942  1.7762  1.1850  1.4629
  247MOL0     H32541   6.832   1.715   4.555  1.2126  2.2796  0.9605
  247MOL0     H32542   6.783   1.770   4.722  0.9629  2.5320 -2.0790
  247MOL0     H32543   6.611   1.572   4.706 -1.1812 -0.9929 -1.6053
  247MOL0     H32544   6.666   1.543   4.537 -1.1932 -0.7560  1.2425
  247MOL0     H32545   6.602   1.793   4.490 -0.0189  0.4411  0.7635
  247MOL0     H32546   6.547   1.808   4.652  1.6588  0.8028 -0.6286
  247MOL0     H32547   6.434   1.597   4.460 -1.6810  0.9590 -1.6181
  247MOL0     H32548   6.389   1.629   4.626  0.3914 -1.4319 -0.8340
  247MOL0     H32549   6.389   1.841   4.399 -0.7005  0.5204  0.7000
  247MOL0     H32550   6.323   1.857   4.573  0.6880 -0.3820  1.1666
  247MOL0     H32551   6.252   1.656   4.357 -0.4080  1.3866 -2.2314
  247MOL0     H32552   6.195   1.815   4.333 -0.5614 -0.3733  0.3437
  247MOL0     H32553   6.044   1.629   4.476 -1.5195  1.5504 -1.0942
  247MOL0     H32554   6.153   1.682   4.609 -0.2726  1.8593  0.9847
  247MOL0     H32555   5.975   1.860   4.436 -0.1500 -1.1284  0.1615
  247MOL0     H32556   6.084   1.918   4.567 -3.3462  2.4600  1.8842
  247MOL0     H32557   6.035   1.841   4.823  1.8408 -0.3870 -2.9230
  247MOL0     H32558   5.877   1.890   5.007  2.3889 -2.7693  0.0493
  247MOL0     H32559   5.800   1.731   5.013  2.2010 -0.5590  0.4849
  247MOL0     H32560   5.637   1.911   5.108  1.1430  1.9949  0.4933
  247MOL0     H32561   5.574   1.871   4.949 -2.1432  0.3456  2.3384
  247MOL0     H32562   5.773   2.107   4.984 -0.6304  1.0267 -0.5345
  247MOL0     H32563   5.690   2.058   4.849  3.4746 -2.4378 -0.1984
  247MOL0     H32564   5.562   2.152   5.125 -0.1628 -0.2395 -0.0903
  247MOL0     H32565   5.460   2.142   4.991 -0.0582  1.2170  1.8046
  247MOL0     H32566   5.599   2.522   4.847 -0.9422 -1.1889 -0.4970
  247MOL0     H32567   5.476   2.713   4.899  1.0102 -1.3086 -1.8255
  247MOL0     H32568   5.275   3.021   5.232  0.4597  1.5938  0.0745
  247MOL0     H32569   5.140   3.219   5.254 -2.1594 -2.9951  2.9246
  247MOL0     H32570   4.931   3.503   5.126 -1.4640 -0.1465  0.0195
  247MOL0     H32571   5.046   3.411   5.227 -0.6914  1.9488  0.0012
  247MOL0     H32572   4.808   3.363   5.299  1.2614  1.3857 -0.6841
  247MOL0     H32573   4.876   3.213   5.228 -1.8460 -2.2701 -2.9722
  247MOL0     H32574   4.767   3.274   5.015  0.7426 -0.7384  0.9388
  247MOL0     H32575   4.701   3.421   5.085  2.2497  0.5279 -1.0697
  247MOL0     H32576   4.649   3.139   5.201 -0.0873  0.8784  0.1845
  247MOL0     H32577   4.607   3.286   5.282 -0.3701 -0.6921  0.1717
  247MOL0     H32578   4.427   3.357   5.135 -1.8802 -0.7978 -0.1896
  247MOL0     H32579   4.429   3.177   5.156  0.4467 -0.7536 -1.2267
  247MOL0     H32580   4.571   3.200   4.936  1.2320 -0.0172  2.6211
  247MOL0     H32581   4.511   3.369   4.934  0.3923  0.8777  4.0109
  247MOL0     H32582   4.326   3.131   4.959 -1.0329  0.5332  0.9163
  247MOL0     H32583   4.284   3.292   4.903  1.7753  0.5788 -0.1867
  247MOL0     H32584   4.313   3.104   4.718 -3.9331  0.9382  4.0630
  247MOL0     H32585   4.489   3.112   4.754 -0.6533 -0.3670 -1.6086
  247MOL0     H32586   5.058   3.189   4.834  0.2448  3.2203  1.6934
  247MOL0     H32587   5.134   2.960   4.837  1.9465  0.6807  0.3125
  247MOL0     H32588   5.287   2.495   5.233  0.2280  1.1033 -0.2999
  247MOL0     H32589   5.410   2.296   5.151  0.9563 -1.1260 -0.7402
  247MOL0     H32590   7.081   1.705   4.572 -0.3065  0.0521  0.3630
  247MOL0     H32591   7.301   1.749   4.682 -1.8897  0.1726 -1.4125
  247MOL0     H32592   7.654   1.354   4.934  1.6849  0.2774 -0.4785
  247MOL0     H32593   7.830   1.333   5.092 -0.9841 -0.2770  0.1013
  247MOL0     H32594   7.852   1.634   5.406  1.5445  0.6536  0.4343
  247MOL0     H32595   7.965   1.718   5.307 -3.6149  1.8913  1.9952
  247MOL0     H32596   8.065   1.636   5.518 -2.7219 -0.1839  0.2247
  247MOL0     H32597   8.009   1.469   5.484 -0.2386 -0.3885  1.9495
  247MOL0     H32598   8.209   1.656   5.331  1.8357 -0.6938 -1.0213
  247MOL0     H32599   8.172   1.486   5.280  0.2230  0.0784 -0.2422
  247MOL0     H32600   8.317   1.588   5.530 -0.8814 -1.4830  3.1875
  247MOL0     H32601   8.266   1.422   5.526 -0.6499  0.5073  0.2060
  247MOL0     H32602   8.614   1.411   5.278 -0.0575 -3.0951  0.4377
  247MOL0     H32603   7.756   1.753   5.193  1.6920  1.0817 -1.3468
  247MOL0     H32604   7.590   1.773   5.060 -0.5919 -0.7916  0.5884
  248MOL0     O32605  10.162   7.483   2.733  0.4322 -0.3386 -0.8726
  248MOL0     C32606  10.230   7.486   2.836 -0.5967 -0.2829  0.4246
  248MOL0     O32607  10.180   7.493   2.960  0.5220 -0.0486 -0.7731
  248MOL0     C32608  10.049   7.465   2.983 -0.2912 -0.4836 -0.3026
  248MOL0     C32609  10.014   7.367   3.074  0.3081  0.6490  0.7375
  248MOL0     C32610   9.883   7.352   3.123  0.2827 -0.5245 -0.2985
  248MOL0     C32611   9.789   7.442   3.077 -0.0854 -0.3353 -0.0368
  248MOL0     O32612   9.660   7.414   3.108 -0.1724  0.6091  0.1757
  248MOL0     C32613   9.586   7.530   3.135 -0.5976 -0.8166  0.0532
  248MOL0     C32614   9.459   7.501   3.211  0.1320 -0.1816 -0.1887
  248MOL0     C32615   9.353   7.464   3.114 -0.1011  1.0685  0.1200
  248MOL0     C32616   9.229   7.433   3.192 -0.7021  0.8443  1.0216
  248MOL0     C32617   9.103   7.433   3.101  0.1246  0.1993  1.1142
  248MOL0     C32618   8.999   7.348   3.171  0.4380 -0.6657  0.5538
  248MOL0     C32619   8.881   7.331   3.069 -0.6702  0.2355 -0.0266
  248MOL0     C32620   8.787   7.454   3.036  0.0874 -0.0202 -0.3227
  248MOL0     N32621   8.645   7.414   3.044 -0.2465  0.1217 -0.1525
  248MOL0     C32622   8.568   7.418   3.160 -0.3010  0.6191 -0.0424
  248MOL0     C32623   8.465   7.329   3.132  0.6704 -0.6786 -0.4071
  248MOL0     C32624   8.351   7.287   3.215 -0.2156  1.5432  0.4347
  248MOL0     C32625   8.259   7.413   3.213  0.3537 -0.1775  0.1703
  248MOL0     C32626   8.141   7.411   3.308 -0.5598  0.4111 -0.9452
  248MOL0     C32627   8.076   7.544   3.291 -0.3801  0.5391 -0.0574
  248MOL0     O32628   7.962   7.556   3.380  0.8055 -0.8086  0.4453
  248MOL0     C32629   7.845   7.484   3.350 -0.0892 -1.4438  1.1999
  248MOL0     C32630   7.830   7.387   3.250 -0.1302 -0.3203  1.2223
  248MOL0     C32631   7.709   7.321   3.237 -0.2524  0.3854 -1.0746
  248MOL0     C32632   7.600   7.351   3.318 -0.8017  0.4201 -0.8353
  248MOL0     C32633   7.476   7.278   3.293 -0.4691  0.1145  1.0390
  248MOL0     O32634   7.380   7.318   3.368  0.7197  0.0803 -0.3584
  248MOL0     C32635   7.253   7.262   3.354 -0.4586  0.2285  1.1420
  248MOL0     C32636   7.209   7.201   3.467  0.2861  1.0124  0.0418
  248MOL0     C32637   7.095   7.119   3.467  0.7018 -0.0456 -0.2942
  248MOL0     C32638   7.012   7.092   3.346 -0.6990 -0.1078  0.0775
  248MOL0     O32639   6.912   7.007   3.334  0.3155  0.4760 -0.1259
  248MOL0     C32640   6.824   7.021   3.443 -0.2095 -0.0027 -0.6919
  248MOL0     C32641   6.686   6.980   3.405  0.4162 -0.4025  0.5304
  248MOL0     C32642   6.569   7.033   3.497 -0.7799  0.5978  0.2046
  248MOL0     C32643   6.437   6.959   3.467 -0.0863 -0.2047 -0.4536
  248MOL0     C32644   6.339   7.008   3.565  0.5653 -0.7752 -0.4009
  248MOL0     C32645   6.259   7.127   3.510 -0.3842  0.3490  0.0286
  248MOL0     C32646   6.172   7.094   3.388 -0.3996  0.2102 -0.1896
  248MOL0     C32647   6.064   7.205   3.375 -0.3491  0.6075 -0.0485
  248MOL0    Cl32648   5.997   7.207   3.205 -0.5289  0.2976 -0.0710
  248MOL0     C32649   7.060   7.150   3.228  1.6382  0.2607 -0.2034
  248MOL0     C32650   7.178   7.225   3.225 -1.1376  0.0872 -1.1213
  248MOL0     O32651   7.464   7.194   3.192 -0.3926  0.5646 -0.5776
  248MOL0     C32652   7.611   7.457   3.411 -0.3358 -0.0019 -0.0267
  248MOL0     C32653   7.735   7.521   3.430  1.9632  0.1427  0.0231
  248MOL0     N32654   8.473   7.298   3.005 -0.5805  0.9855  0.3485
  248MOL0     N32655   8.573   7.354   2.951 -0.2733 -0.7366 -0.4051
  248MOL0     C32656   9.821   7.533   2.977  0.1930 -0.4715 -0.1579
  248MOL0     C32657   9.948   7.543   2.928 -0.4876 -0.1677 -0.2269
  248MOL0     C32658  10.374   7.495   2.803  0.1872  0.6011  0.7369
  248MOL0     C32659  10.464   7.523   2.902  0.2964 -0.1672 -0.1788
  248MOL0     C32660  10.604   7.534   2.864  1.0529 -0.1877  0.8514
  248MOL0     C32661  10.648   7.508   2.733  0.0498 -0.7965  0.2877
  248MOL0     O32662  10.781   7.513   2.688 -0.1157  0.4805 -0.3764
  248MOL0     C32663  10.873   7.572   2.768 -0.0276 -0.6148 -0.6159
  248MOL0     C32664  11.009   7.564   2.703  0.1076 -0.3836 -0.6832
  248MOL0     C32665  11.006   7.659   2.588  0.4247  0.2799  0.0438
  248MOL0     C32666  11.076   7.791   2.599 -0.4224 -0.2034  0.1539
  248MOL0     C32667  11.216   7.763   2.615 -0.0005  0.6194 -0.6335
  248MOL0     C32668  11.330   7.729   2.649 -0.0181  0.9553 -1.1314
  248MOL0     C32669  10.553   7.483   2.633  0.4077  0.7194 -0.1611
  248MOL0     C32670  10.416   7.475   2.663  0.0802  0.1368  0.4573
  248MOL0     H32671  10.094   7.307   3.116  0.2896 -0.4412 -0.7320
  248MOL0     H32672   9.852   7.273   3.191 -0.0914  0.0943  0.2647
  248MOL0     H32673   9.556   7.582   3.044  0.8399  1.6552  0.8790
  248MOL0     H32674   9.643   7.598   3.200  1.6977  1.7534 -4.1867
  248MOL0     H32675   9.432   7.595   3.261  1.3623  1.1145 -1.8695
  248MOL0     H32676   9.479   7.423   3.285  2.3299  1.4340  1.0559
  248MOL0     H32677   9.393   7.384   3.051  0.4741  1.6616 -0.2845
  248MOL0     H32678   9.342   7.548   3.045 -2.4777  0.9867  0.3324
  248MOL0     H32679   9.244   7.334   3.235  4.0889  0.7382 -0.3891
  248MOL0     H32680   9.201   7.499   3.275 -1.8199 -0.0302  1.3768
  248MOL0     H32681   9.129   7.385   3.007 -0.0171 -0.8271  1.5861
  248MOL0     H32682   9.070   7.537   3.094 -0.4325 -0.0673 -0.7694
  248MOL0     H32683   8.955   7.397   3.258 -1.3281 -2.8606  1.0071
  248MOL0     H32684   9.031   7.247   3.199  0.8753 -0.3506  1.2095
  248MOL0     H32685   8.928   7.309   2.972 -1.2665  0.6469 -0.4155
  248MOL0     H32686   8.820   7.248   3.105  2.6566 -1.9193  1.1470
  248MOL0     H32687   8.804   7.488   2.934  1.1589  0.5316  0.0280
  248MOL0     H32688   8.812   7.533   3.108  2.4381 -3.0741  2.5128
  248MOL0     H32689   8.596   7.467   3.252  1.0387 -2.6305  1.4652
  248MOL0     H32690   8.381   7.243   3.310  2.9440  2.7445  0.1297
  248MOL0     H32691   8.299   7.207   3.161  2.5456 -0.2269  0.1819
  248MOL0     H32692   8.218   7.429   3.113 -2.9474  1.2375  1.6176
  248MOL0     H32693   8.317   7.500   3.245 -0.9865  0.6250  0.4502
  248MOL0     H32694   8.080   7.321   3.296  0.2668 -0.1070 -1.3126
  248MOL0     H32695   8.182   7.411   3.409 -0.2705  1.8922 -1.0464
  248MOL0     H32696   8.037   7.560   3.190  0.4910 -0.1339 -0.5127
  248MOL0     H32697   8.141   7.629   3.314  0.1130  0.4316 -1.0185
  248MOL0     H32698   7.901   7.372   3.169  0.0998  0.4734  1.2716
  248MOL0     H32699   7.708   7.236   3.170 -0.4788 -1.9029  1.6180
  248MOL0     H32700   7.262   7.220   3.560  1.0396  0.3876 -0.2492
  248MOL0     H32701   7.061   7.087   3.565 -2.9721  2.1676 -0.6616
  248MOL0     H32702   6.811   7.124   3.479 -2.0369 -0.1687 -0.7834
  248MOL0     H32703   6.866   6.970   3.530 -1.1125 -0.3591 -0.4542
  248MOL0     H32704   6.681   6.871   3.408 -1.1321 -0.3322  1.7071
  248MOL0     H32705   6.666   7.018   3.304  1.7927 -0.6255  0.1495
  248MOL0     H32706   6.571   7.142   3.496  4.3870  0.7437  0.8619
  248MOL0     H32707   6.609   7.004   3.595  2.2636 -0.5303 -1.2598
  248MOL0     H32708   6.397   6.973   3.366  1.4104 -2.5310 -1.4552
  248MOL0     H32709   6.464   6.853   3.472 -0.0280 -0.1424  0.7961
  248MOL0     H32710   6.385   7.022   3.663  3.4051  0.3392 -1.7684
  248MOL0     H32711   6.266   6.930   3.589 -0.0756  0.1920  0.9132
  248MOL0     H32712   6.319   7.216   3.490  1.9643 -1.3672 -1.0254
  248MOL0     H32713   6.185   7.154   3.585 -2.7195  0.8282 -2.2801
  248MOL0     H32714   6.238   7.094   3.301  2.2970 -1.0407  1.6820
  248MOL0     H32715   6.123   6.997   3.403  1.4151 -0.3575  3.6944
  248MOL0     H32716   6.125   7.290   3.408  2.2758 -2.4486  3.9560
  248MOL0     H32717   5.984   7.202   3.450 -0.2981  2.4053  0.1403
  248MOL0     H32718   7.001   7.141   3.137 -2.1141  2.7925  1.6846
  248MOL0     H32719   7.219   7.263   3.132  0.9641  1.1332  0.1467
  248MOL0     H32720   7.524   7.482   3.471  0.2109 -0.2760  0.8922
  248MOL0     H32721   7.735   7.602   3.502 -0.8506 -0.7598  1.1985
  248MOL0     H32722   9.749   7.593   2.923 -0.6504 -2.7191 -1.7253
  248MOL0     H32723   9.983   7.612   2.851  0.7610 -0.9860 -0.4231
  248MOL0     H32724  10.427   7.538   3.002 -1.8508  1.1968 -1.1020
  248MOL0     H32725  10.688   7.560   2.927  0.3197  0.9731  1.3900
  248MOL0     H32726  10.882   7.515   2.861  1.2459  0.3789 -0.1085
  248MOL0     H32727  10.847   7.674   2.797  0.5890 -0.6623  0.1392
  248MOL0     H32728  11.092   7.585   2.772  0.6676  1.4659 -1.8335
  248MOL0     H32729  11.019   7.461   2.670 -2.1448 -0.8378 -0.1100
  248MOL0     H32730  10.911   7.672   2.535 -0.3374  0.3110  1.3806
  248MOL0     H32731  11.075   7.610   2.518 -0.4798  0.9600 -1.3904
  248MOL0     H32732  11.064   7.852   2.509  1.3002 -1.2833 -0.8697
  248MOL0     H32733  11.035   7.850   2.680 -0.4741  0.9838 -0.7134
  248MOL0     H32734  11.421   7.699   2.698 -1.3188  2.2710  2.4934
  248MOL0     H32735  10.576   7.461   2.529 -2.5955  0.6434 -0.9173
  248MOL0     H32736  10.352   7.439   2.583  1.5754 -2.2532  0.2409
  249MOL0     O32737   0.528   7.521   6.837  0.1849 -0.1314  0.6815
  249MOL0     C32738   0.522   7.638   6.865  0.7507 -0.3470 -0.8427
  249MOL0     O32739   0.404   7.718   6.863 -0.0056  0.4894 -0.4264
  249MOL0     C32740   0.282   7.681   6.816  0.0485  0.5474  0.4023
  249MOL0     C32741   0.191   7.785   6.786 -0.6212 -0.9331  0.1177
  249MOL0     C32742   0.059   7.770   6.747 -0.1750 -0.1674  0.0610
  249MOL0     C32743   0.017   7.640   6.735  0.3165 -0.5363  1.0191
  249MOL0     O32744  -0.117   7.624   6.695  0.6580 -0.1825 -0.9230
  249MOL0     C32745  -0.189   7.497   6.701  0.0225  0.7881 -0.0426
  249MOL0     C32746  -0.335   7.526   6.760 -0.2718  0.1828 -0.4134
  249MOL0     C32747  -0.412   7.624   6.678 -0.5492  0.8689 -0.0226
  249MOL0     C32748  -0.559   7.613   6.691  0.9050 -0.4687  0.2181
  249MOL0     C32749  -0.619   7.522   6.585  0.1834  0.3920 -0.8702
  249MOL0     C32750  -0.612   7.576   6.445 -0.4814 -0.2117 -0.5112
  249MOL0     C32751  -0.521   7.497   6.356 -0.5553 -0.0554 -0.5981
  249MOL0     C32752  -0.496   7.574   6.229 -0.0474  1.4316  0.3490
  249MOL0     N32753  -0.601   7.567   6.123 -0.7016  0.1084 -0.9405
  249MOL0     C32754  -0.683   7.456   6.093 -0.1101  0.4196 -0.1945
  249MOL0     C32755  -0.789   7.502   6.031  0.0233  0.8389 -0.0258
  249MOL0     C32756  -0.903   7.427   5.976 -0.0505 -0.1823  0.5601
  249MOL0     C32757  -0.953   7.337   6.097 -0.0536 -0.2926 -0.3169
  249MOL0     C32758  -1.037   7.228   6.058  0.4966 -0.0212  0.9646
  249MOL0     C32759  -1.163   7.277   5.982  0.3714  0.3210 -0.1672
  249MOL0     O32760  -1.242   7.163   5.963 -1.1032  0.2508  0.1160
  249MOL0     C32761  -1.363   7.183   5.912 -0.4274  0.1306 -0.3803
  249MOL0     C32762  -1.426   7.305   5.871 -0.5677  0.3294 -0.1260
  249MOL0     C32763  -1.552   7.302   5.815  0.2354  0.5063  0.0845
  249MOL0     C32764  -1.627   7.181   5.798  0.6788  0.6398  0.0393
  249MOL0     C32765  -1.753   7.177   5.725  0.1864 -1.4097 -0.8679
  249MOL0     O32766  -1.849   7.086   5.739  0.6430  0.0054 -0.2957
  249MOL0     C32767  -1.968   7.110   5.670  0.7227  0.1647 -0.9220
  249MOL0     C32768  -2.090   7.165   5.726 -0.2305 -0.0925 -1.1985
  249MOL0     C32769  -2.213   7.181   5.651 -0.2885  0.5980  0.3234
  249MOL0     C32770  -2.213   7.149   5.517  0.9574 -0.5564  0.7081
  249MOL0     O32771  -2.327   7.172   5.445 -0.2139  0.0453  0.4445
  249MOL0     C32772  -2.321   7.200   5.304 -0.4584  0.0990  0.0702
  249MOL0     C32773  -2.466   7.232   5.246 -0.3197 -0.2966  0.6148
  249MOL0     C32774  -2.473   7.279   5.108  0.7943 -0.1516  0.3685
  249MOL0     C32775  -2.626   7.263   5.073  0.1990 -0.3264  0.3172
  249MOL0     C32776  -2.651   7.319   4.938  0.3673 -0.3852  0.0653
  249MOL0     C32777  -2.807   7.323   4.917  1.1066  0.1598  0.6854
  249MOL0     C32778  -2.852   7.312   4.766  0.0331 -0.9087 -0.4317
  249MOL0     C32779  -3.000   7.330   4.750  1.1836 -0.4413  0.7517
  249MOL0    Cl32780  -3.103   7.220   4.848 -0.0336  0.2914  0.4528
  249MOL0     C32781  -2.101   7.096   5.466 -0.2177  0.3330 -0.0165
  249MOL0     C32782  -1.978   7.077   5.532  0.4035  0.1850  0.1558
  249MOL0     O32783  -1.760   7.267   5.647 -0.3003 -0.3079  0.1199
  249MOL0     C32784  -1.562   7.066   5.843  1.4941 -0.1705  0.3024
  249MOL0     C32785  -1.439   7.068   5.898 -0.6123  0.0642 -0.5403
  249MOL0     N32786  -0.770   7.637   6.014 -0.0901 -1.2776  0.6173
  249MOL0     N32787  -0.661   7.680   6.078  1.1434 -0.2753  0.1992
  249MOL0     C32788   0.108   7.527   6.762  0.5540 -0.7665 -0.2309
  249MOL0     C32789   0.234   7.550   6.811 -1.4018 -0.4142  1.1114
  249MOL0     C32790   0.649   7.708   6.893  0.5852  0.0566  0.0752
  249MOL0     C32791   0.641   7.823   6.972 -0.0556 -0.8183 -0.0405
  249MOL0     C32792   0.757   7.892   7.002 -0.5278  0.7752  0.0927
  249MOL0     C32793   0.880   7.858   6.956  0.7239  0.4856  0.0277
  249MOL0     O32794   0.985   7.937   7.006 -0.1932 -0.5078 -0.1347
  249MOL0     C32795   1.121   7.907   6.971  0.1650  0.2247  0.1408
  249MOL0     C32796   1.179   7.807   7.060  0.3776  0.0415  0.4036
  249MOL0     C32797   1.163   7.841   7.209 -0.6089  0.2233  0.5938
  249MOL0     C32798   1.228   7.736   7.304  0.7649 -0.4192  0.8695
  249MOL0     C32799   1.362   7.768   7.328 -0.5887 -0.0416 -0.5132
  249MOL0     C32800   1.474   7.809   7.340 -0.3321  0.2772  0.1074
  249MOL0     C32801   0.893   7.740   6.882 -0.3724  0.6528 -0.0590
  249MOL0     C32802   0.772   7.665   6.854  0.5872 -0.6695 -0.5701
  249MOL0     H32803   0.229   7.886   6.781 -1.0980 -0.7871 -0.8611
  249MOL0     H32804  -0.017   7.846   6.733 -3.1807 -3.3352 -2.1749
  249MOL0     H32805  -0.144   7.430   6.775 -0.7227 -1.0967 -1.2261
  249MOL0     H32806  -0.188   7.447   6.604 -2.6028  0.0801  0.2296
  249MOL0     H32807  -0.332   7.573   6.859 -0.3819  0.4333 -0.5275
  249MOL0     H32808  -0.382   7.429   6.775  1.6329 -0.3839  2.6694
  249MOL0     H32809  -0.378   7.601   6.576  1.8466 -1.1589  1.1354
  249MOL0     H32810  -0.375   7.725   6.693 -1.2410  1.0595  0.4289
  249MOL0     H32811  -0.577   7.584   6.795  1.2315 -1.0201  0.1281
  249MOL0     H32812  -0.604   7.710   6.667  0.8966 -0.2267  1.1778
  249MOL0     H32813  -0.720   7.488   6.611  0.0982  1.0887 -0.2584
  249MOL0     H32814  -0.568   7.425   6.584  0.1689  0.3833 -0.8250
  249MOL0     H32815  -0.576   7.679   6.456  0.6997 -0.5335 -1.2067
  249MOL0     H32816  -0.714   7.582   6.405 -0.8706 -3.3545 -0.1896
  249MOL0     H32817  -0.419   7.482   6.392  0.6166  1.0354 -3.2470
  249MOL0     H32818  -0.557   7.394   6.342  1.0443 -0.8608  0.8319
  249MOL0     H32819  -0.408   7.532   6.178 -1.9038 -0.6992 -1.3231
  249MOL0     H32820  -0.482   7.677   6.261  0.3818  0.7607  2.4680
  249MOL0     H32821  -0.661   7.352   6.112  0.5265  0.7034  0.6396
  249MOL0     H32822  -0.854   7.365   5.901  2.1708 -1.0043  2.5420
  249MOL0     H32823  -0.972   7.503   5.936  1.2091  1.2631  1.0283
  249MOL0     H32824  -1.006   7.404   6.167  1.2383  1.2642 -0.7847
  249MOL0     H32825  -0.868   7.302   6.155  1.9250  4.3311 -0.0222
  249MOL0     H32826  -0.985   7.158   5.992 -0.1992 -0.0262  0.4078
  249MOL0     H32827  -1.073   7.168   6.142  0.3986  0.4864  1.2854
  249MOL0     H32828  -1.149   7.327   5.885 -1.0454 -0.1771 -0.6618
  249MOL0     H32829  -1.210   7.355   6.042  3.3517  2.1421  0.0065
  249MOL0     H32830  -1.385   7.405   5.877 -0.6514  0.3924 -0.6279
  249MOL0     H32831  -1.586   7.395   5.773  0.1476  0.8830  0.9671
  249MOL0     H32832  -2.094   7.216   5.821  3.3553  0.6553 -1.3048
  249MOL0     H32833  -2.299   7.226   5.700  0.4939  2.1176  0.3493
  249MOL0     H32834  -2.298   7.106   5.254 -3.2469 -2.3099  2.9044
  249MOL0     H32835  -2.248   7.279   5.282 -0.5259  0.6711  1.7419
  249MOL0     H32836  -2.504   7.320   5.298 -1.2860 -1.0440  1.2013
  249MOL0     H32837  -2.532   7.149   5.270 -1.0334 -0.7106 -2.3949
  249MOL0     H32838  -2.410   7.217   5.043  0.7880 -0.7338  0.9023
  249MOL0     H32839  -2.433   7.380   5.099  0.9359 -0.2397  0.0101
  249MOL0     H32840  -2.657   7.158   5.075 -1.1145 -0.0658 -2.1349
  249MOL0     H32841  -2.682   7.317   5.150  0.7625 -1.4945  1.5867
  249MOL0     H32842  -2.596   7.257   4.867 -0.9186  0.9503 -2.2198
  249MOL0     H32843  -2.609   7.420   4.927  1.6026 -0.5009  2.8279
  249MOL0     H32844  -2.841   7.415   4.966  2.4857  1.7537 -1.1921
  249MOL0     H32845  -2.858   7.247   4.978  1.6238  0.0430  0.9752
  249MOL0     H32846  -2.807   7.395   4.711  3.6320 -4.2482 -3.0808
  249MOL0     H32847  -2.818   7.223   4.712  2.0821  1.1019 -2.7520
  249MOL0     H32848  -3.033   7.316   4.647 -0.9518  0.0849  1.3021
  249MOL0     H32849  -3.025   7.433   4.777  1.7596  0.5151 -2.0325
  249MOL0     H32850  -2.110   7.064   5.363 -4.3948  0.5138  0.1554
  249MOL0     H32851  -1.890   7.025   5.495  0.8439 -2.5188  4.2845
  249MOL0     H32852  -1.591   6.967   5.811  1.6914  0.4686 -2.0543
  249MOL0     H32853  -1.383   6.979   5.924  0.9220  1.3188  0.7440
  249MOL0     H32854   0.080   7.422   6.761  0.3603 -0.9799  4.5638
  249MOL0     H32855   0.300   7.472   6.846 -0.3801 -0.1617 -0.1837
  249MOL0     H32856   0.548   7.865   7.010  0.6677  2.2510 -1.3287
  249MOL0     H32857   0.753   7.978   7.068  1.3421  0.5116  0.6055
  249MOL0     H32858   1.173   8.003   6.985  1.0485  0.3473 -3.2047
  249MOL0     H32859   1.143   7.870   6.871  0.2289  0.4327  0.0774
  249MOL0     H32860   1.132   7.710   7.043  1.0523 -0.4469  1.2748
  249MOL0     H32861   1.283   7.798   7.028  1.6029  4.6599  2.1990
  249MOL0     H32862   1.054   7.838   7.220 -0.6286  0.0015  0.3570
  249MOL0     H32863   1.209   7.936   7.236 -0.5718  0.5023 -0.4129
  249MOL0     H32864   1.178   7.741   7.402 -0.3768 -0.1272  0.2903
  249MOL0     H32865   1.211   7.641   7.253 -0.1963  1.7190 -3.1288
  249MOL0     H32866   1.577   7.838   7.338  0.3594 -2.0097 -1.4092
  249MOL0     H32867   0.989   7.716   6.838 -0.4157 -0.4263  0.4063
  249MOL0     H32868   0.794   7.580   6.790  3.3882  1.1614 -2.2855
  250MOL0     O32869  10.282   9.471   9.405 -0.3202  0.4765 -0.1402
  250MOL0     C32870  10.214   9.442   9.499 -0.0348  0.7989  0.6577
  250MOL0     O32871  10.246   9.418   9.626 -0.0837  0.3211 -0.2970
  250MOL0     C32872  10.374   9.427   9.682  0.0654  1.0631 -0.5681
  250MOL0     C32873  10.400   9.373   9.806 -0.1877  0.0829 -1.5738
  250MOL0     C32874  10.526   9.379   9.871  0.0264  0.4029 -0.2033
  250MOL0     C32875  10.629   9.451   9.814  0.4273 -0.2956  0.0548
  250MOL0     O32876  10.753   9.457   9.857 -0.1615 -0.3350 -0.9397
  250MOL0     C32877  10.786   9.438   9.996 -0.0499 -0.4710  0.4787
  250MOL0     C32878  10.929   9.397   9.998  0.2757 -0.6576  0.7556
  250MOL0     C32879  10.980   9.359  10.138 -0.0185 -0.0009 -0.3084
  250MOL0     C32880  11.126   9.323  10.141 -0.6981 -0.4106  0.0146
  250MOL0     C32881  11.170   9.262  10.284  0.1099 -0.4614  0.8236
  250MOL0     C32882  11.171   9.363  10.393  0.6503  0.3637  0.5838
  250MOL0     C32883  11.218   9.292  10.520  0.3268 -0.3132  0.2699
  250MOL0     C32884  11.203   9.369  10.644 -0.4661  0.0648 -1.1453
  250MOL0     N32885  11.059   9.388  10.684  0.5401  0.6110  0.3450
  250MOL0     C32886  10.977   9.487  10.650  0.5034 -0.9185  1.3575
  250MOL0     C32887  10.870   9.471  10.733  0.1030  0.9187 -1.1099
  250MOL0     C32888  10.741   9.547  10.702 -0.9407  0.5767  0.1706
  250MOL0     C32889  10.625   9.501  10.790 -0.3744  0.6423  1.0941
  250MOL0     C32890  10.504   9.594  10.769 -0.2558  0.1968  0.3304
  250MOL0     C32891  10.390   9.578  10.878  0.0666 -0.7745  0.6355
  250MOL0     O32892  10.340   9.444  10.855 -0.0078 -0.3310 -0.4481
  250MOL0     C32893  10.209   9.441  10.889 -0.0927  0.7779  0.2211
  250MOL0     C32894  10.153   9.506  10.997 -1.2133 -0.5104 -0.2172
  250MOL0     C32895  10.018   9.498  11.028  0.7623  1.3478  0.8188
  250MOL0     C32896   9.937   9.407  10.958  1.1507  0.6441 -0.0624
  250MOL0     C32897   9.794   9.382  11.002 -0.2653  1.1594  0.6663
  250MOL0     O32898   9.715   9.346  10.894  0.6281 -0.4248  0.3130
  250MOL0     C32899   9.578   9.365  10.885  1.0378  0.1346 -0.3704
  250MOL0     C32900   9.480   9.384  10.990 -0.9752 -0.1310 -0.7677
  250MOL0     C32901   9.342   9.418  10.960  0.1086  0.1366  0.1178
  250MOL0     C32902   9.296   9.440  10.826  0.2411  0.1781 -1.0463
  250MOL0     O32903   9.171   9.492  10.801 -0.3776 -0.3985 -0.4794
  250MOL0     C32904   9.065   9.410  10.852 -0.4037 -0.3821  0.5909
  250MOL0     C32905   8.935   9.448  10.793  0.0762  0.0276 -0.0339
  250MOL0     C32906   8.813   9.368  10.847 -0.0925  0.0697  0.5188
  250MOL0     C32907   8.698   9.463  10.854 -0.2689 -0.3412 -0.1793
  250MOL0     C32908   8.574   9.388  10.890 -0.3771 -0.5104 -0.2175
  250MOL0     C32909   8.464   9.490  10.862  0.0754  0.4565  0.1242
  250MOL0     C32910   8.337   9.434  10.939  0.2629 -0.0361 -0.2079
  250MOL0     C32911   8.291   9.530  11.044 -0.4081 -0.2180 -0.9151
  250MOL0    Cl32912   8.413   9.524  11.179 -0.0893 -0.0935 -0.2594
  250MOL0     C32913   9.396   9.432  10.733  0.2172  0.7373  0.3740
  250MOL0     C32914   9.527   9.383  10.762  0.2520  0.3122  0.4823
  250MOL0     O32915   9.764   9.396  11.117 -0.3381 -0.0942  0.2980
  250MOL0     C32916   9.989   9.327  10.851 -0.2533 -0.2350 -0.4560
  250MOL0     C32917  10.119   9.346  10.815 -0.1439 -1.1174  1.1825
  250MOL0     N32918  10.893   9.372  10.824  0.8255 -0.0032 -0.2957
  250MOL0     N32919  11.010   9.321  10.794  0.7178 -0.5426 -0.5826
  250MOL0     C32920  10.606   9.520   9.695 -0.9450  1.3888 -0.2399
  250MOL0     C32921  10.480   9.502   9.627  0.5097  0.3330  0.0768
  250MOL0     C32922  10.070   9.418   9.464 -0.3734 -0.1282  0.0364
  250MOL0     C32923  10.009   9.419   9.333 -0.8543 -0.0401 -0.0820
  250MOL0     C32924   9.872   9.385   9.313 -1.0139 -0.3259 -0.3154
  250MOL0     C32925   9.796   9.353   9.415  0.4997 -0.8885  1.7214
  250MOL0     O32926   9.659   9.324   9.398 -0.2073 -0.9413  0.0999
  250MOL0     C32927   9.599   9.379   9.278 -0.1673  0.1438 -0.4454
  250MOL0     C32928   9.450   9.379   9.277  0.4118 -0.3350 -0.1230
  250MOL0     C32929   9.390   9.247   9.213 -0.0975  0.5263  0.8199
  250MOL0     C32930   9.236   9.258   9.224 -0.9569  0.3586 -0.1486
  250MOL0     C32931   9.193   9.231   9.363  0.4207 -0.6789  0.3625
  250MOL0     C32932   9.173   9.227   9.480  0.0177  0.0138 -0.3780
  250MOL0     C32933   9.850   9.340   9.545 -0.3229 -0.2244  0.0668
  250MOL0     C32934   9.983   9.362   9.564 -0.0510 -0.7438 -0.6076
  250MOL0     H32935  10.314   9.326   9.852 -0.2320  0.3313 -1.4034
  250MOL0     H32936  10.546   9.314   9.956  3.9414  1.4319 -0.1784
  250MOL0     H32937  10.726   9.359  10.043  1.1466 -1.4141  0.4639
  250MOL0     H32938  10.767   9.536  10.040 -1.1445 -1.2430  1.8114
  250MOL0     H32939  10.986   9.486   9.968  0.1690 -0.8318  0.0190
  250MOL0     H32940  10.946   9.303   9.945 -0.6697  0.0779 -0.9391
  250MOL0     H32941  10.920   9.272  10.165 -1.1281  1.0611  0.7206
  250MOL0     H32942  10.953   9.433  10.214 -1.3953 -1.5500  0.7600
  250MOL0     H32943  11.135   9.242  10.068 -0.6405 -1.2722  0.9444
  250MOL0     H32944  11.191   9.406  10.114 -0.7372  0.2278  1.7599
  250MOL0     H32945  11.270   9.219  10.276  0.2923 -0.1329  1.2967
  250MOL0     H32946  11.108   9.180  10.321  0.5375 -2.0599 -1.7433
  250MOL0     H32947  11.078   9.419  10.411 -0.5147 -1.2328 -0.1590
  250MOL0     H32948  11.245   9.440  10.369  2.8307 -1.1127  2.2495
  250MOL0     H32949  11.155   9.203  10.529  0.1492 -0.0048  2.4206
  250MOL0     H32950  11.325   9.272  10.514  0.5702  0.9814 -0.1380
  250MOL0     H32951  11.255   9.465  10.632  0.2510  0.3219  2.6815
  250MOL0     H32952  11.259   9.311  10.718 -1.1642  0.8664  0.0588
  250MOL0     H32953  10.998   9.556  10.569  0.4659 -0.2123  1.9463
  250MOL0     H32954  10.716   9.532  10.597  1.0014  4.2020 -0.9805
  250MOL0     H32955  10.759   9.654  10.712 -1.2798  0.9608 -2.5740
  250MOL0     H32956  10.635   9.510  10.899  1.1233  0.6018  0.9785
  250MOL0     H32957  10.603   9.397  10.765 -0.3914  1.2545 -1.7343
  250MOL0     H32958  10.532   9.700  10.778 -0.1802  0.0588  1.8952
  250MOL0     H32959  10.458   9.578  10.671  0.6404 -2.0023  0.2211
  250MOL0     H32960  10.312   9.651  10.855 -0.2611 -0.8632  1.4071
  250MOL0     H32961  10.434   9.597  10.977  0.1141  0.1717  0.4365
  250MOL0     H32962  10.217   9.579  11.044 -2.6625  1.2840 -0.9070
  250MOL0     H32963   9.972   9.554  11.108 -1.4452  1.1794 -0.2604
  250MOL0     H32964   9.517   9.374  11.092  0.5977 -0.4985 -1.3427
  250MOL0     H32965   9.275   9.427  11.045  1.0714  1.2282  0.7951
  250MOL0     H32966   9.054   9.424  10.960  0.1696  0.0811  0.5943
  250MOL0     H32967   9.069   9.306  10.818  0.6409 -0.2675  0.3113
  250MOL0     H32968   8.929   9.439  10.684 -0.4437 -0.9556  0.0660
  250MOL0     H32969   8.928   9.556  10.807 -2.0345 -0.1516  0.5125
  250MOL0     H32970   8.829   9.319  10.944 -0.6928  0.4645  0.8270
  250MOL0     H32971   8.794   9.279  10.788 -0.8056 -1.2694  2.6573
  250MOL0     H32972   8.730   9.548  10.915  1.2051  0.5907 -2.1404
  250MOL0     H32973   8.681   9.509  10.756  0.3733 -2.8112 -1.5220
  250MOL0     H32974   8.575   9.356  10.994  3.9400 -2.2710 -0.6161
  250MOL0     H32975   8.557   9.297  10.831 -0.4113 -1.7385  1.6154
  250MOL0     H32976   8.445   9.490  10.754 -2.3856 -2.1449  0.4112
  250MOL0     H32977   8.491   9.591  10.893  1.2646 -0.8953  4.0170
  250MOL0     H32978   8.261   9.425  10.861  1.3657 -0.1494 -1.2940
  250MOL0     H32979   8.358   9.340  10.990  2.1157 -0.0148 -0.8603
  250MOL0     H32980   8.190   9.502  11.078 -0.7850  1.6064 -0.4092
  250MOL0     H32981   8.278   9.630  11.002  0.8270  0.8771  1.1422
  250MOL0     H32982   9.373   9.446  10.627 -1.2982  1.9960  0.8355
  250MOL0     H32983   9.590   9.364  10.677  0.0816  0.2791  0.3624
  250MOL0     H32984   9.927   9.255  10.800 -3.8567  1.6029  0.9475
  250MOL0     H32985  10.158   9.293  10.728  0.3676  0.2310  0.5699
  250MOL0     H32986  10.690   9.576   9.654  0.6672 -1.3315 -0.8965
  250MOL0     H32987  10.478   9.544   9.527  1.3650 -2.1989 -1.0756
  250MOL0     H32988  10.069   9.463   9.255 -1.9764  3.8192  0.9646
  250MOL0     H32989   9.839   9.388   9.210  3.2959  0.2149 -1.8674
  250MOL0     H32990   9.632   9.325   9.189  0.5335 -1.2448  0.6232
  250MOL0     H32991   9.632   9.482   9.258 -1.1370  1.0121  2.0258
  250MOL0     H32992   9.419   9.382   9.382  4.2299 -0.0789  1.1693
  250MOL0     H32993   9.402   9.465   9.231 -2.7601 -0.5133  2.4644
  250MOL0     H32994   9.413   9.160   9.275 -1.9876 -0.4423  0.2581
  250MOL0     H32995   9.423   9.233   9.110  1.1262  0.5044  1.1976
  250MOL0     H32996   9.208   9.359   9.195  2.4569  1.1705 -1.1350
  250MOL0     H32997   9.192   9.194   9.147  0.0620 -0.4752 -0.0664
  250MOL0     H32998   9.166   9.235   9.587  1.1306 -1.2804 -0.1869
  250MOL0     H32999   9.787   9.312   9.628 -0.2700 -0.8662 -0.1051
  250MOL0     H33000  10.029   9.338   9.660 -1.4019 -3.7453 -0.5860
  251MOL0     O33001   7.527   2.612   9.793  0.3632 -0.1329 -0.1098
  251MOL0     C33002   7.599   2.515   9.818 -0.6006 -1.0596 -0.1603
  251MOL0     O33003   7.565   2.389   9.803  0.9418  0.7701  0.0266
  251MOL0     C33004   7.433   2.346   9.792  0.5988 -0.5716  0.4476
  251MOL0     C33005   7.392   2.264   9.684 -0.3758  0.8748 -0.2066
  251MOL0     C33006   7.259   2.217   9.666  0.0808 -0.4830 -0.4650
  251MOL0     C33007   7.159   2.272   9.742 -0.2493  0.1369 -0.4756
  251MOL0     O33008   7.035   2.228   9.724  0.0528  0.2622  0.2199
  251MOL0     C33009   6.942   2.232   9.833 -0.4323 -0.5585 -0.8631
  251MOL0     C33010   6.829   2.146   9.786  0.3267  1.5509 -0.0709
  251MOL0     C33011   6.701   2.146   9.868 -0.1545  0.4023 -0.3961
  251MOL0     C33012   6.600   2.048   9.811  0.5944 -0.6579  0.5222
  251MOL0     C33013   6.469   2.052   9.891  0.3913 -0.5779 -0.6416
  251MOL0     C33014   6.387   2.186   9.883  0.1616 -0.4517 -0.0512
  251MOL0     C33015   6.251   2.173   9.949 -0.1495  0.2175 -0.5057
  251MOL0     C33016   6.203   2.315   9.960 -0.3976  0.1479 -0.0614
  251MOL0     N33017   6.092   2.327  10.051  0.2761  0.2710  0.7623
  251MOL0     C33018   5.965   2.337   9.999  0.5060 -0.4423  0.6038
  251MOL0     C33019   5.903   2.408  10.093 -0.5972 -0.0162 -0.6449
  251MOL0     C33020   5.764   2.468  10.065  0.6484  0.1176  0.2401
  251MOL0     C33021   5.667   2.357  10.019  0.1703  0.0958 -0.7982
  251MOL0     C33022   5.516   2.397  10.019  0.6065 -0.3991 -0.9089
  251MOL0     C33023   5.462   2.392  10.162 -0.1134  0.6266  0.1218
  251MOL0     O33024   5.337   2.468  10.174 -0.4597  0.4609 -0.5927
  251MOL0     C33025   5.219   2.398  10.147  0.2309  0.3110 -0.3276
  251MOL0     C33026   5.115   2.424  10.232  0.7418  0.1611  0.8017
  251MOL0     C33027   4.992   2.356  10.221 -0.2818  0.1939  1.0638
  251MOL0     C33028   4.973   2.251  10.137  0.1777  0.0236 -0.1234
  251MOL0     C33029   4.847   2.174  10.122  0.3117 -0.7203 -0.1692
  251MOL0     O33030   4.742   2.225  10.206  0.4949  0.1243 -0.7016
  251MOL0     C33031   4.622   2.156  10.202  1.0928 -0.0930  0.3290
  251MOL0     C33032   4.540   2.116  10.087 -0.0183  0.3673  0.2225
  251MOL0     C33033   4.419   2.039  10.111  1.1107 -0.5535  0.2334
  251MOL0     C33034   4.377   2.006  10.245  0.9329 -0.6180 -0.2693
  251MOL0     O33035   4.263   1.943  10.283  0.3530 -0.7413 -1.0973
  251MOL0     C33036   4.166   1.899  10.193 -0.0716  1.0578 -0.2927
  251MOL0     C33037   4.047   1.833  10.262 -0.6374 -0.4890 -1.2292
  251MOL0     C33038   3.961   1.918  10.356 -0.7945  0.4496  0.3709
  251MOL0     C33039   3.869   1.836  10.440 -0.6801 -0.6034 -0.3467
  251MOL0     C33040   3.779   1.921  10.528 -0.9105 -0.2980 -0.8955
  251MOL0     C33041   3.756   1.872  10.676  0.5910 -0.1498 -0.1010
  251MOL0     C33042   3.673   1.963  10.771  0.0675 -0.0440 -0.3010
  251MOL0     C33043   3.697   1.924  10.919  0.2469  0.0912  0.3052
  251MOL0    Cl33044   3.691   1.746  10.954  0.3565 -0.1701 -0.1458
  251MOL0     C33045   4.454   2.055  10.344  0.3286 -0.6589  0.5271
  251MOL0     C33046   4.572   2.128  10.323  0.4556  0.4445 -0.4684
  251MOL0     O33047   4.843   2.066  10.061 -0.0281  0.2253 -0.0637
  251MOL0     C33048   5.086   2.211  10.062 -0.1398 -0.1714  0.5164
  251MOL0     C33049   5.208   2.279  10.062  0.5569  0.8084  0.6520
  251MOL0     N33050   5.981   2.412  10.211 -0.4735  0.3399  0.1875
  251MOL0     N33051   6.094   2.362  10.182  0.3448  0.7524 -0.0705
  251MOL0     C33052   7.192   2.373   9.837  0.4635  0.3033  0.3325
  251MOL0     C33053   7.327   2.408   9.859  0.2111 -0.1389  0.6424
  251MOL0     C33054   7.734   2.542   9.879 -0.3748 -1.3304  0.6058
  251MOL0     C33055   7.756   2.653   9.963  0.0639 -0.3575  0.0245
  251MOL0     C33056   7.886   2.692   9.988  0.3923 -0.3448 -0.1191
  251MOL0     C33057   7.989   2.612   9.948 -0.3789 -0.2892  0.0866
  251MOL0     O33058   8.116   2.650   9.968  0.3171  1.1818  0.5713
  251MOL0     C33059   8.203   2.639   9.862 -0.5382 -0.0875 -0.3791
  251MOL0     C33060   8.303   2.742   9.886  0.6713 -0.7081  0.2619
  251MOL0     C33061   8.412   2.771   9.772 -0.2241  0.0341  1.0348
  251MOL0     C33062   8.513   2.882   9.806 -0.4342  0.1057 -0.7816
  251MOL0     C33063   8.452   3.009   9.847 -0.4936 -0.5199 -0.1976
  251MOL0     C33064   8.407   3.105   9.903  0.3814 -0.8878 -0.0922
  251MOL0     C33065   7.968   2.478   9.898  0.5616 -0.0602  0.1837
  251MOL0     C33066   7.843   2.454   9.848  0.9847 -1.2821  0.0843
  251MOL0     H33067   7.468   2.225   9.616 -0.7027  1.4210 -0.9018
  251MOL0     H33068   7.244   2.148   9.584  1.4431  1.5158 -2.5144
  251MOL0     H33069   6.903   2.332   9.854  1.0164  0.7091 -3.6112
  251MOL0     H33070   6.989   2.189   9.922  0.6095  0.1696 -1.0402
  251MOL0     H33071   6.867   2.044   9.776 -0.2034  1.4627 -1.3587
  251MOL0     H33072   6.800   2.186   9.688 -2.9395 -1.5862 -0.6148
  251MOL0     H33073   6.668   2.250   9.864  3.4208  1.7583  0.8676
  251MOL0     H33074   6.716   2.117   9.973  1.7894  4.6203  0.7204
  251MOL0     H33075   6.581   2.080   9.708  0.0947  0.6081  0.9848
  251MOL0     H33076   6.644   1.948   9.812  2.0236 -0.0707 -0.5821
  251MOL0     H33077   6.489   2.038   9.998  0.8706 -1.2425 -0.8112
  251MOL0     H33078   6.401   1.969   9.873  0.9658 -1.2728  0.2891
  251MOL0     H33079   6.370   2.224   9.782  2.7353  3.0257  0.6371
  251MOL0     H33080   6.454   2.256   9.934  2.7938 -3.6113  1.1967
  251MOL0     H33081   6.181   2.114   9.889  0.6195  0.4493 -1.6830
  251MOL0     H33082   6.268   2.136  10.050  2.1641 -0.7494 -1.1814
  251MOL0     H33083   6.178   2.357   9.862  3.5475  3.3320  0.0302
  251MOL0     H33084   6.280   2.376  10.007 -1.6587  0.8577  1.1090
  251MOL0     H33085   5.938   2.314   9.897  1.9424 -0.1458  0.1280
  251MOL0     H33086   5.774   2.553   9.997 -2.6335  0.2129 -0.2665
  251MOL0     H33087   5.730   2.516  10.157 -1.3493  1.1745 -0.9824
  251MOL0     H33088   5.681   2.259  10.066 -2.5865 -0.8388 -1.7192
  251MOL0     H33089   5.697   2.346   9.914  0.8922 -1.3800 -0.4665
  251MOL0     H33090   5.503   2.502   9.993  0.3375  0.2148  1.4209
  251MOL0     H33091   5.463   2.334   9.947  0.9060 -1.4282 -0.2518
  251MOL0     H33092   5.528   2.437  10.236 -0.3242 -1.3053  1.5892
  251MOL0     H33093   5.451   2.285  10.185  3.5729 -0.4607 -2.3025
  251MOL0     H33094   5.116   2.508  10.300 -1.5781 -0.6819  1.9807
  251MOL0     H33095   4.906   2.393  10.275  0.7690  2.2255  1.4528
  251MOL0     H33096   4.571   2.139   9.986 -1.4627  1.0742 -0.0889
  251MOL0     H33097   4.351   2.018  10.030  0.1549  0.3441  0.7652
  251MOL0     H33098   4.209   1.821  10.129 -0.7429  1.6376 -1.4945
  251MOL0     H33099   4.133   1.980  10.128 -0.5304  1.4389  0.3996
  251MOL0     H33100   4.093   1.757  10.326 -2.3558 -0.2447  0.4188
  251MOL0     H33101   3.980   1.787  10.189 -0.7992 -0.7797 -0.9040
  251MOL0     H33102   3.903   1.987  10.293  1.9704  3.1261  0.4966
  251MOL0     H33103   4.028   1.980  10.417  1.2995 -0.6179 -0.7538
  251MOL0     H33104   3.820   1.757  10.382  1.2664 -1.0591 -1.4419
  251MOL0     H33105   3.930   1.783  10.514  1.4801 -0.0246 -1.6233
  251MOL0     H33106   3.679   1.908  10.485  0.5153 -1.5089 -4.2111
  251MOL0     H33107   3.811   2.025  10.520 -1.1097 -0.1191  0.4795
  251MOL0     H33108   3.856   1.848  10.714 -0.2725 -2.7000  0.7469
  251MOL0     H33109   3.695   1.782  10.670 -1.4375  1.2472 -2.4670
  251MOL0     H33110   3.708   2.066  10.761  0.0111  0.0430  0.3178
  251MOL0     H33111   3.565   1.956  10.757 -0.1292 -0.0756  1.0970
  251MOL0     H33112   3.606   1.964  10.965 -0.7794  0.0853 -1.5903
  251MOL0     H33113   3.789   1.973  10.952 -0.5842  0.9884  1.3671
  251MOL0     H33114   4.415   2.038  10.444 -0.9149  1.8380  0.5410
  251MOL0     H33115   4.634   2.173  10.399  0.4232  3.5290 -2.0999
  251MOL0     H33116   5.089   2.118  10.006  3.2573  0.2771 -0.3198
  251MOL0     H33117   5.289   2.241  10.001  1.0531 -2.4675  3.1139
  251MOL0     H33118   7.106   2.418   9.886 -1.1028 -1.3083 -0.7687
  251MOL0     H33119   7.358   2.485   9.929  2.5806  2.0490 -2.4765
  251MOL0     H33120   7.678   2.727   9.980 -2.0415 -2.4557  0.0494
  251MOL0     H33121   7.893   2.792  10.027 -1.3419  0.3519 -1.4379
  251MOL0     H33122   8.156   2.651   9.764  0.4300 -2.4783 -1.2233
  251MOL0     H33123   8.254   2.542   9.863  2.4807  1.3762  0.2564
  251MOL0     H33124   8.258   2.840   9.904  1.1731 -0.1926 -1.2095
  251MOL0     H33125   8.360   2.706   9.973  0.0952 -0.4255  0.7655
  251MOL0     H33126   8.360   2.800   9.680 -1.4294 -0.4415  1.5370
  251MOL0     H33127   8.468   2.680   9.749  0.2787  0.6172 -0.1837
  251MOL0     H33128   8.590   2.841   9.872  1.2215 -0.7105 -3.0602
  251MOL0     H33129   8.570   2.888   9.713 -0.8826 -0.6374 -1.1116
  251MOL0     H33130   8.356   3.181   9.960  0.9761 -1.5578  1.3915
  251MOL0     H33131   8.052   2.410   9.886 -1.1737 -2.1038 -1.1907
  251MOL0     H33132   7.817   2.365   9.792  0.0478  0.7406 -2.8984
  252MOL0     O33133   9.146   9.259  11.202 -0.3298 -0.7826 -0.5714
  252MOL0     C33134   9.053   9.185  11.213  1.0088 -0.1431  0.9314
  252MOL0     O33135   9.038   9.067  11.142  0.4184 -0.1244  0.3033
  252MOL0     C33136   9.133   9.040  11.052 -0.7023  0.9547 -0.6512
  252MOL0     C33137   9.102   9.048  10.910 -0.8202  0.1747 -0.5738
  252MOL0     C33138   9.205   9.053  10.813  0.0684  0.0891 -0.2762
  252MOL0     C33139   9.336   9.036  10.851 -0.1906  0.2191 -0.9065
  252MOL0     O33140   9.430   9.054  10.758  0.3209  0.0027 -0.9781
  252MOL0     C33141   9.521   8.940  10.733 -0.6881 -0.4648 -1.3734
  252MOL0     C33142   9.466   8.864  10.617  0.2905  0.3525 -0.4171
  252MOL0     C33143   9.575   8.786  10.543  1.1716 -0.4863 -0.7952
  252MOL0     C33144   9.642   8.686  10.637  0.7022  0.2642  0.2880
  252MOL0     C33145   9.740   8.605  10.564  0.7811  0.4118 -1.2218
  252MOL0     C33146   9.875   8.677  10.570 -0.4278  0.1887 -0.1736
  252MOL0     C33147   9.986   8.594  10.503 -0.2931 -0.4134 -0.5749
  252MOL0     C33148  10.028   8.465  10.572 -0.4819 -0.0074 -0.2397
  252MOL0     N33149  10.113   8.493  10.686 -0.7436  1.2642  0.5849
  252MOL0     C33150  10.233   8.422  10.704 -0.0311 -0.2974 -0.4251
  252MOL0     C33151  10.260   8.454  10.835  0.0048  0.2382 -0.2621
  252MOL0     C33152  10.372   8.383  10.911 -0.0136  0.0174 -0.2558
  252MOL0     C33153  10.507   8.452  10.877 -0.1130 -0.6057 -0.2616
  252MOL0     C33154  10.623   8.386  10.955  0.5728 -0.2589  0.3020
  252MOL0     C33155  10.766   8.440  10.909  0.6486 -0.6471  0.5636
  252MOL0     O33156  10.837   8.355  10.817  0.4962  0.2535 -0.6021
  252MOL0     C33157  10.968   8.370  10.782 -0.4824 -0.7976 -0.2579
  252MOL0     C33158  11.054   8.465  10.836  0.3264  1.0343  0.4792
  252MOL0     C33159  11.188   8.484  10.783  0.1756  0.6217 -0.9232
  252MOL0     C33160  11.234   8.401  10.683 -0.1717 -0.3241  1.0661
  252MOL0     C33161  11.382   8.407  10.648  0.0272  0.3535  0.2316
  252MOL0     O33162  11.430   8.330  10.547 -0.2971 -1.0520  0.1823
  252MOL0     C33163  11.566   8.309  10.544  0.4617 -0.4647 -0.8388
  252MOL0     C33164  11.648   8.282  10.660  0.4399  0.3182  0.1202
  252MOL0     C33165  11.780   8.245  10.637 -0.4885 -0.2039  0.0846
  252MOL0     C33166  11.840   8.253  10.511 -0.8972 -0.6532  0.0916
  252MOL0     O33167  11.974   8.247  10.478 -0.6984 -0.6246  0.7054
  252MOL0     C33168  12.071   8.172  10.550  0.2269 -0.4102 -0.8529
  252MOL0     C33169  12.187   8.109  10.464  0.5367 -0.3012  0.4851
  252MOL0     C33170  12.269   8.219  10.403  0.2725  0.5019 -0.0890
  252MOL0     C33171  12.374   8.158  10.301 -0.2361  0.7458  0.5623
  252MOL0     C33172  12.477   8.270  10.262  0.0862  0.1329  0.9637
  252MOL0     C33173  12.588   8.226  10.164  0.6000 -0.0767  0.7332
  252MOL0     C33174  12.705   8.330  10.156  1.5895  0.0838  0.0746
  252MOL0     C33175  12.817   8.275  10.071  0.3497  0.6075  0.3498
  252MOL0    Cl33176  12.974   8.334  10.108 -0.2477  0.0135 -0.0990
  252MOL0     C33177  11.766   8.294  10.401  0.4611  0.2834 -0.5041
  252MOL0     C33178  11.627   8.300  10.418  0.0321 -0.2545  1.0725
  252MOL0     O33179  11.448   8.486  10.716 -0.1037 -0.7556  0.2964
  252MOL0     C33180  11.150   8.310  10.635  0.5376 -0.0488  0.0315
  252MOL0     C33181  11.023   8.291  10.681  0.9075 -1.4068 -0.7647
  252MOL0     N33182  10.155   8.516  10.898 -0.0075  0.6289  0.0964
  252MOL0     N33183  10.070   8.543  10.808  0.3305  0.0732  0.3200
  252MOL0     C33184   9.376   9.022  10.983  0.7619 -0.5198 -0.4693
  252MOL0     C33185   9.273   9.016  11.081  0.8500  0.7374 -1.1580
  252MOL0     C33186   8.930   9.245  11.271  0.7624 -0.8692 -0.2273
  252MOL0     C33187   8.801   9.188  11.252  0.2052  0.4537 -0.5977
  252MOL0     C33188   8.685   9.238  11.316 -0.8263  0.2695 -0.3482
  252MOL0     C33189   8.692   9.347  11.394 -0.3578  0.4161  0.6870
  252MOL0     O33190   8.579   9.394  11.456 -0.6314 -0.3061  0.0077
  252MOL0     C33191   8.479   9.301  11.516  0.0122 -0.2721 -0.2356
  252MOL0     C33192   8.361   9.363  11.589 -1.1568  0.0058  0.6100
  252MOL0     C33193   8.295   9.490  11.537 -0.4607  0.3225  0.1171
  252MOL0     C33194   8.185   9.534  11.642 -0.3277 -0.4896  0.5602
  252MOL0     C33195   8.075   9.446  11.635  0.4137  0.3243  0.2963
  252MOL0     C33196   7.978   9.371  11.617 -0.2685  0.7923 -0.4989
  252MOL0     C33197   8.816   9.419  11.409 -0.1320  0.2585  0.6176
  252MOL0     C33198   8.931   9.366  11.348  0.3230 -0.4210 -0.0552
  252MOL0     H33199   8.998   9.056  10.882 -1.7334 -2.0923  1.7857
  252MOL0     H33200   9.168   9.066  10.712  1.0180  3.3485 -0.2956
  252MOL0     H33201   9.530   8.886  10.827  1.7606  1.7013 -0.2154
  252MOL0     H33202   9.622   8.981  10.718 -0.9882  1.9857  2.0791
  252MOL0     H33203   9.426   8.927  10.537  2.7284  0.9361 -1.2758
  252MOL0     H33204   9.388   8.800  10.660  0.5549  1.9259  2.7076
  252MOL0     H33205   9.645   8.864  10.511 -0.3791  1.8296  1.1310
  252MOL0     H33206   9.536   8.741  10.451 -0.7290 -1.9541  0.6469
  252MOL0     H33207   9.691   8.735  10.721  0.0259  0.9233  0.3120
  252MOL0     H33208   9.563   8.615  10.666 -0.2788 -0.3217 -3.3721
  252MOL0     H33209   9.707   8.596  10.460  0.9273 -1.1519 -1.1634
  252MOL0     H33210   9.754   8.509  10.616  0.8840  0.5489 -0.9973
  252MOL0     H33211   9.914   8.684  10.671 -0.6531  0.7407 -0.1227
  252MOL0     H33212   9.870   8.777  10.526  0.3887  0.3343  0.0693
  252MOL0     H33213   9.955   8.577  10.399  2.0674 -0.9378 -1.2406
  252MOL0     H33214  10.071   8.662  10.493  0.0626 -0.6995  0.4429
  252MOL0     H33215  10.082   8.415  10.492  0.7827  1.2915 -0.2330
  252MOL0     H33216   9.944   8.401  10.603 -1.1849 -1.2758 -4.2435
  252MOL0     H33217  10.297   8.363  10.639  2.6464  2.4220 -0.4543
  252MOL0     H33218  10.365   8.279  10.880 -3.9101  0.9525 -3.2815
  252MOL0     H33219  10.354   8.382  11.019  2.7523  2.1291  0.3429
  252MOL0     H33220  10.502   8.560  10.897  1.3652  0.0780 -2.9972
  252MOL0     H33221  10.534   8.469  10.772  0.8768 -1.0471 -0.0967
  252MOL0     H33222  10.625   8.412  11.061  2.0936  3.9346 -0.5541
  252MOL0     H33223  10.607   8.281  10.928  2.5220 -0.9344  1.5417
  252MOL0     H33224  10.829   8.425  10.997  0.1877 -1.6622  0.7283
  252MOL0     H33225  10.754   8.545  10.881 -1.2038 -1.5982 -2.7183
  252MOL0     H33226  11.016   8.528  10.916  1.6094  0.1598  1.8505
  252MOL0     H33227  11.250   8.558  10.832  0.5294 -0.4061  0.2343
  252MOL0     H33228  11.605   8.299  10.759  2.5652  0.9953  0.9955
  252MOL0     H33229  11.849   8.229  10.719 -0.4172 -1.1889 -0.1530
  252MOL0     H33230  12.012   8.093  10.599 -0.2129 -0.8779 -2.0939
  252MOL0     H33231  12.115   8.238  10.624 -0.1052 -1.4248  0.2857
  252MOL0     H33232  12.152   8.043  10.384  1.5375 -0.3316  0.0606
  252MOL0     H33233  12.244   8.040  10.527  0.9444  0.1867  0.6552
  252MOL0     H33234  12.328   8.264  10.483 -0.3682 -0.4063  0.9146
  252MOL0     H33235  12.191   8.278  10.355  1.0428 -0.5994 -2.9374
  252MOL0     H33236  12.421   8.067  10.339 -1.5131 -1.4434 -2.6088
  252MOL0     H33237  12.329   8.120  10.209 -1.2565 -0.5407  1.5588
  252MOL0     H33238  12.526   8.305  10.354  1.7927 -0.2938  0.2510
  252MOL0     H33239  12.415   8.342  10.209 -0.4419 -0.9986  0.0154
  252MOL0     H33240  12.560   8.211  10.060  3.2604  1.8940 -0.3974
  252MOL0     H33241  12.627   8.132  10.202 -0.8882 -0.5051  1.2450
  252MOL0     H33242  12.666   8.428  10.125 -2.4719 -1.0645  0.8909
  252MOL0     H33243  12.744   8.341  10.258 -2.5248  1.3781  1.7209
  252MOL0     H33244  12.787   8.285   9.966  0.7147  1.3502  0.3094
  252MOL0     H33245  12.826   8.167  10.088 -2.6781  0.1766 -0.1993
  252MOL0     H33246  11.817   8.301  10.306  0.1176  3.6263 -0.5737
  252MOL0     H33247  11.564   8.318  10.332 -2.4796 -0.2816  2.7945
  252MOL0     H33248  11.186   8.252  10.550  3.2106 -3.0970  2.9229
  252MOL0     H33249  10.967   8.214  10.630  1.5665  0.3433 -4.5200
  252MOL0     H33250   9.477   9.031  11.021  0.7816  3.2544 -1.0380
  252MOL0     H33251   9.295   8.994  11.185 -3.2537  1.8535  0.1446
  252MOL0     H33252   8.789   9.112  11.175  0.3530  2.7925 -3.0854
  252MOL0     H33253   8.596   9.184  11.286 -0.7443  0.9424 -1.9126
  252MOL0     H33254   8.529   9.232  11.585 -1.7464  1.4750  3.0037
  252MOL0     H33255   8.445   9.239  11.433  2.8600 -1.4996 -0.6210
  252MOL0     H33256   8.280   9.290  11.595 -3.1850  1.9214 -1.7347
  252MOL0     H33257   8.397   9.387  11.690  0.4862 -2.0921  0.5978
  252MOL0     H33258   8.249   9.468  11.440  1.1777 -1.3950 -0.3446
  252MOL0     H33259   8.364   9.572  11.517 -1.8411  1.9531  1.7775
  252MOL0     H33260   8.222   9.537  11.745  0.6554 -1.6804  0.2560
  252MOL0     H33261   8.160   9.640  11.625  3.2593  0.3045 -0.5666
  252MOL0     H33262   7.884   9.321  11.624  0.3583 -0.2288  1.1067
  252MOL0     H33263   8.834   9.512  11.462 -1.3074  1.8803 -1.6402
  252MOL0     H33264   9.031   9.405  11.363 -0.0694 -0.0220  1.6821
  253MOL0     O33265   6.806   7.809   8.559 -0.3873  0.0647  0.1320
  253MOL0     C33266   6.879   7.891   8.503  0.0415 -1.2218  0.5919
  253MOL0     O33267   6.834   8.014   8.465  0.1840 -0.1036  0.4320
  253MOL0     C33268   6.703   8.041   8.504 -0.4675  0.0205  1.0112
  253MOL0     C33269   6.613   8.054   8.401  0.0065 -0.0564 -0.2123
  253MOL0     C33270   6.476   8.068   8.434 -0.5634  0.6778 -0.1055
  253MOL0     C33271   6.433   8.078   8.565 -0.6628 -0.1383  0.4838
  253MOL0     O33272   6.302   8.074   8.599 -0.1994 -0.2961  0.0817
  253MOL0     C33273   6.223   7.984   8.524 -0.0956 -0.1643 -0.4158
  253MOL0     C33274   6.081   7.978   8.599  0.1417  0.2873  0.3791
  253MOL0     C33275   5.986   7.878   8.534  0.3835  0.1651  0.4740
  253MOL0     C33276   5.841   7.906   8.591  0.7697  0.7420  1.6470
  253MOL0     C33277   5.720   7.810   8.537  0.4538 -1.5385  0.9020
  253MOL0     C33278   5.581   7.839   8.597  0.4584  0.5966  0.6423
  253MOL0     C33279   5.494   7.731   8.543  0.4486 -0.0266  0.0680
  253MOL0     C33280   5.350   7.738   8.555  0.0224  0.9303  0.6892
  253MOL0     N33281   5.306   7.607   8.491  0.0573 -0.1587 -0.2762
  253MOL0     C33282   5.271   7.493   8.553 -0.6320  0.7926  0.1578
  253MOL0     C33283   5.237   7.412   8.450 -0.6381  0.1453 -0.2199
  253MOL0     C33284   5.170   7.278   8.458 -0.3219  0.3533 -0.6103
  253MOL0     C33285   5.024   7.300   8.457  0.5101  0.2201 -0.7962
  253MOL0     C33286   4.958   7.167   8.450 -0.3553 -0.3672 -0.1221
  253MOL0     C33287   4.804   7.163   8.465 -0.5241 -0.5280  0.2983
  253MOL0     O33288   4.765   7.231   8.588 -0.3904  0.3271  0.0041
  253MOL0     C33289   4.633   7.254   8.613 -0.7908  0.5579  0.3996
  253MOL0     C33290   4.529   7.233   8.521  0.0964  0.8221 -0.1209
  253MOL0     C33291   4.396   7.233   8.567 -0.4403 -0.5770  0.1810
  253MOL0     C33292   4.359   7.280   8.689  0.5568  0.0610  0.4242
  253MOL0     C33293   4.212   7.294   8.733 -0.4343  0.3325  0.5263
  253MOL0     O33294   4.120   7.235   8.654 -0.0782  0.5122  0.2147
  253MOL0     C33295   3.985   7.235   8.693 -0.2025 -0.0946  0.3803
  253MOL0     C33296   3.894   7.307   8.616  0.0166  0.3714 -0.1395
  253MOL0     C33297   3.765   7.327   8.663  0.1502  0.2974  0.3370
  253MOL0     C33298   3.716   7.262   8.775 -0.1359  0.1173 -0.3433
  253MOL0     O33299   3.596   7.288   8.831  0.0873 -0.6027  0.0286
  253MOL0     C33300   3.489   7.271   8.743  0.0730 -0.9161  0.4289
  253MOL0     C33301   3.367   7.327   8.811  0.2383 -1.0461  0.7138
  253MOL0     C33302   3.247   7.282   8.727  0.5620  0.5191  0.2355
  253MOL0     C33303   3.118   7.341   8.778 -0.0133  0.2622 -0.0653
  253MOL0     C33304   3.000   7.296   8.693  0.9831 -0.2823 -0.4668
  253MOL0     C33305   2.877   7.363   8.757 -0.3688  0.1516  0.0613
  253MOL0     C33306   2.742   7.304   8.711 -0.8130 -0.3275  0.3356
  253MOL0     C33307   2.627   7.319   8.812 -0.0058  0.5056  0.5148
  253MOL0    Cl33308   2.615   7.501   8.816  0.2385 -0.0497 -0.2058
  253MOL0     C33309   3.810   7.182   8.845 -0.5237  0.0719 -0.0866
  253MOL0     C33310   3.943   7.168   8.807 -0.5276  0.0125  0.7026
  253MOL0     O33311   4.190   7.360   8.831  0.3532  0.1452 -1.4052
  253MOL0     C33312   4.470   7.307   8.780  0.6381  0.7291  0.6496
  253MOL0     C33313   4.607   7.288   8.737  0.5024 -1.2221 -0.6249
  253MOL0     N33314   5.234   7.484   8.336  0.9233 -0.0836  0.4156
  253MOL0     N33315   5.274   7.603   8.356 -0.2056  0.4594 -0.7417
  253MOL0     C33316   6.527   8.064   8.668 -0.5401  0.2919  0.6493
  253MOL0     C33317   6.659   8.046   8.635 -0.8212 -0.1247 -0.6065
  253MOL0     C33318   7.020   7.867   8.473 -1.1382 -0.1986  0.3503
  253MOL0     C33319   7.099   7.770   8.537 -0.8424  0.0198 -0.3355
  253MOL0     C33320   7.232   7.752   8.509  0.7599  0.2032 -0.4484
  253MOL0     C33321   7.298   7.829   8.409  0.4087  0.0596  0.0809
  253MOL0     O33322   7.437   7.835   8.394  0.7359 -0.1113  1.3598
  253MOL0     C33323   7.490   7.896   8.278  0.4227  0.1963  0.3723
  253MOL0     C33324   7.641   7.875   8.280 -0.2345 -0.0248 -0.1808
  253MOL0     C33325   7.719   7.952   8.387 -0.8016 -0.2163  0.9470
  253MOL0     C33326   7.715   7.884   8.521 -0.0281  0.4054  0.0273
  253MOL0     C33327   7.771   7.974   8.624  1.1109 -0.0291  0.2481
  253MOL0     C33328   7.806   8.047   8.714  0.0406 -0.0464 -0.2084
  253MOL0     C33329   7.211   7.917   8.342 -0.4753  0.0129  0.6653
  253MOL0     C33330   7.079   7.941   8.366  0.2740  0.2712  0.5600
  253MOL0     H33331   6.653   8.051   8.300 -2.6819  1.5037 -1.4366
  253MOL0     H33332   6.411   8.059   8.347  1.7527  0.4287 -1.9182
  253MOL0     H33333   6.263   7.882   8.530 -3.0652 -1.5688 -2.2789
  253MOL0     H33334   6.188   8.010   8.423 -0.6663 -0.6564 -0.3528
  253MOL0     H33335   6.029   8.074   8.598  0.0271  0.2597  1.6737
  253MOL0     H33336   6.103   7.952   8.703  0.1007  1.6663  0.7531
  253MOL0     H33337   6.018   7.776   8.558 -0.0778 -0.3294 -0.9376
  253MOL0     H33338   5.985   7.900   8.427 -1.6145 -0.2000  0.3824
  253MOL0     H33339   5.855   7.901   8.699  3.3238  0.6133  1.3549
  253MOL0     H33340   5.817   8.007   8.556  3.7591  0.4243 -1.9191
  253MOL0     H33341   5.749   7.706   8.551  2.4549 -1.0673  0.5798
  253MOL0     H33342   5.713   7.823   8.428  1.4162 -2.0385  0.7664
  253MOL0     H33343   5.536   7.935   8.569  0.1989  0.6132  1.1158
  253MOL0     H33344   5.577   7.833   8.706 -1.0335 -0.2359  0.5645
  253MOL0     H33345   5.522   7.718   8.438  0.0974  1.1659 -0.1865
  253MOL0     H33346   5.525   7.643   8.601  1.9548  1.1131  1.0847
  253MOL0     H33347   5.323   7.827   8.497  1.6857  2.3238  1.9240
  253MOL0     H33348   5.311   7.751   8.657  0.8398  1.5027  0.9337
  253MOL0     H33349   5.255   7.466   8.657  2.5648 -1.7772  0.1271
  253MOL0     H33350   5.197   7.229   8.552  5.1182 -0.1348 -2.0541
  253MOL0     H33351   5.199   7.207   8.380  1.8146 -1.5426  1.7527
  253MOL0     H33352   4.983   7.354   8.371 -0.9418  1.6188  0.6972
  253MOL0     H33353   5.003   7.363   8.544  0.5236  1.9540 -1.9903
  253MOL0     H33354   4.983   7.122   8.354  3.2811 -0.6477  0.8235
  253MOL0     H33355   5.007   7.096   8.517  2.0227  0.2544 -1.0923
  253MOL0     H33356   4.775   7.058   8.461 -1.5010 -0.2581 -0.0457
  253MOL0     H33357   4.750   7.213   8.383 -1.9162 -1.9651  0.2793
  253MOL0     H33358   4.549   7.192   8.423  0.9533 -3.2459  1.5773
  253MOL0     H33359   4.315   7.217   8.496 -1.7199  1.2057  1.1651
  253MOL0     H33360   3.923   7.357   8.524  0.2395  0.0933 -0.2222
  253MOL0     H33361   3.698   7.397   8.614 -0.7206  0.6513  1.9826
  253MOL0     H33362   3.472   7.169   8.709 -0.2901  0.7717 -5.4093
  253MOL0     H33363   3.501   7.320   8.646 -3.0500 -1.7427 -0.4787
  253MOL0     H33364   3.374   7.436   8.815 -2.2060 -0.7233 -1.4130
  253MOL0     H33365   3.364   7.299   8.917 -0.2476  2.3753  1.7156
  253MOL0     H33366   3.234   7.174   8.733  0.2595  0.5881  0.9190
  253MOL0     H33367   3.257   7.305   8.621 -1.7411 -2.6145 -0.7679
  253MOL0     H33368   3.099   7.302   8.879 -3.8346  1.0754 -0.3029
  253MOL0     H33369   3.127   7.449   8.770  1.5492  0.0088 -2.7901
  253MOL0     H33370   2.988   7.187   8.701  0.8423 -0.2792 -0.6255
  253MOL0     H33371   3.020   7.320   8.588  3.5661 -0.0370  0.0222
  253MOL0     H33372   2.880   7.466   8.721 -1.5493  0.0252 -0.4625
  253MOL0     H33373   2.878   7.354   8.866 -2.2053  4.1095  0.5604
  253MOL0     H33374   2.708   7.341   8.615 -2.4908 -1.1437  0.5681
  253MOL0     H33375   2.760   7.196   8.704  1.2804  0.0778 -1.5310
  253MOL0     H33376   2.648   7.268   8.906 -2.6572 -0.6227  0.5782
  253MOL0     H33377   2.532   7.286   8.770 -0.4565  0.2991  1.6722
  253MOL0     H33378   3.768   7.134   8.933  0.7627 -3.1118 -1.0740
  253MOL0     H33379   4.019   7.107   8.856 -0.5622 -0.6157 -0.0253
  253MOL0     H33380   4.460   7.341   8.882 -0.5419 -0.1636  0.8590
  253MOL0     H33381   4.683   7.315   8.810  0.0631  1.1773 -0.9528
  253MOL0     H33382   6.512   8.066   8.775  1.3250 -2.0338  1.0511
  253MOL0     H33383   6.734   8.036   8.713  0.0460  0.7188 -1.3005
  253MOL0     H33384   7.057   7.712   8.618 -1.3229  0.2884 -0.3918
  253MOL0     H33385   7.279   7.680   8.575  1.9856 -0.4880 -2.0290
  253MOL0     H33386   7.473   8.004   8.274  1.8340  0.4815  1.2374
  253MOL0     H33387   7.450   7.857   8.184  2.2960  1.0952 -0.8622
  253MOL0     H33388   7.666   7.768   8.275  0.9815  0.1292  1.8934
  253MOL0     H33389   7.667   7.920   8.184 -1.1398  1.8195  0.4035
  253MOL0     H33390   7.669   8.050   8.392 -0.6278  0.0077 -0.9265
  253MOL0     H33391   7.825   7.963   8.364 -1.0823  4.0144  0.8462
  253MOL0     H33392   7.614   7.855   8.554 -0.0243 -0.8972 -1.0092
  253MOL0     H33393   7.768   7.788   8.515 -1.9350 -0.7338  0.4479
  253MOL0     H33394   7.837   8.126   8.779  0.7613  1.2149 -1.9775
  253MOL0     H33395   7.253   7.971   8.257 -1.3171  1.9282  1.4147
  253MOL0     H33396   7.023   8.016   8.312  0.3306 -0.2191 -0.1942
  254MOL0     O33397   0.245   4.512   3.975  0.3423 -0.4137 -1.2506
  254MOL0     C33398   0.279   4.438   4.061 -0.3875  0.4466 -0.3415
  254MOL0     O33399   0.199   4.379   4.161 -0.2638  0.3916 -0.3918
  254MOL0     C33400   0.070   4.394   4.133  0.6047  1.1401  0.5090
  254MOL0     C33401  -0.010   4.273   4.114  0.3932  0.0516  0.6572
  254MOL0     C33402  -0.147   4.287   4.091 -0.4333  0.6392 -0.3571
  254MOL0     C33403  -0.209   4.411   4.092  0.6105  0.6560  0.9223
  254MOL0     O33404  -0.342   4.416   4.078  0.6372  0.3395  0.7770
  254MOL0     C33405  -0.411   4.515   3.993  0.1196  0.5127 -0.1231
  254MOL0     C33406  -0.563   4.494   4.015  0.5461  0.8158 -0.2353
  254MOL0     C33407  -0.625   4.359   3.960  0.2645 -0.2587 -0.0707
  254MOL0     C33408  -0.774   4.352   4.001 -0.1360  0.3408  0.0413
  254MOL0     C33409  -0.842   4.220   3.948  0.6918  0.3436 -0.4609
  254MOL0     C33410  -0.983   4.181   4.010 -0.9311 -0.3506 -0.8654
  254MOL0     C33411  -1.096   4.206   3.911 -0.9528  0.6270  0.6522
  254MOL0     C33412  -1.237   4.161   3.943  0.1760  0.3707 -0.4694
  254MOL0     N33413  -1.325   4.254   4.019 -0.3973  0.2437 -1.2295
  254MOL0     C33414  -1.343   4.250   4.156 -0.5710  0.3887 -0.4795
  254MOL0     C33415  -1.443   4.339   4.179  0.2621  0.1343  0.0067
  254MOL0     C33416  -1.505   4.366   4.318 -0.1676 -0.1276  0.2757
  254MOL0     C33417  -1.547   4.230   4.383  0.0980  0.3719  0.7917
  254MOL0     C33418  -1.566   4.254   4.532  0.1465  0.7331  0.2594
  254MOL0     C33419  -1.594   4.121   4.594 -0.0153  0.6271 -0.0536
  254MOL0     O33420  -1.727   4.068   4.546 -0.8090  0.4005  1.0968
  254MOL0     C33421  -1.847   4.098   4.597 -0.1020 -0.4016 -0.2194
  254MOL0     C33422  -1.957   4.048   4.528 -0.5810  0.1011  0.5033
  254MOL0     C33423  -2.091   4.090   4.565  1.0986 -0.3473  0.2763
  254MOL0     C33424  -2.105   4.175   4.677  0.5637  0.2893  1.0163
  254MOL0     C33425  -2.234   4.238   4.703 -0.4993 -0.1724 -0.5223
  254MOL0     O33426  -2.229   4.340   4.795  0.5803  0.6337 -0.9703
  254MOL0     C33427  -2.335   4.428   4.816  0.5672 -0.2223  0.0728
  254MOL0     C33428  -2.468   4.377   4.831 -0.4657 -0.1535  0.2138
  254MOL0     C33429  -2.573   4.463   4.847  0.2426  0.8762 -0.5584
  254MOL0     C33430  -2.546   4.599   4.860  0.1666 -0.1597 -0.8367
  254MOL0     O33431  -2.645   4.691   4.860 -0.1580  0.5008  0.1933
  254MOL0     C33432  -2.724   4.698   4.741  0.2121 -1.1434 -0.0320
  254MOL0     C33433  -2.878   4.681   4.795 -0.4501  0.1821  0.2000
  254MOL0     C33434  -2.972   4.615   4.685  0.6478  0.0224 -0.1348
  254MOL0     C33435  -3.112   4.625   4.733 -0.1911 -0.4057 -0.0647
  254MOL0     C33436  -3.203   4.515   4.675 -0.0869  0.0843  0.6391
  254MOL0     C33437  -3.327   4.486   4.765  0.2237  0.5967  0.3263
  254MOL0     C33438  -3.277   4.412   4.905  0.2558 -0.1254  0.6580
  254MOL0     C33439  -3.378   4.347   4.993 -0.3413 -0.0163 -0.8845
  254MOL0    Cl33440  -3.463   4.214   4.900 -0.0695  0.0646  0.0523
  254MOL0     C33441  -2.418   4.650   4.851 -0.2532  0.4933  0.6431
  254MOL0     C33442  -2.311   4.560   4.830  0.6951 -0.8367  0.6321
  254MOL0     O33443  -2.338   4.212   4.640 -0.1510  0.2736  0.2146
  254MOL0     C33444  -1.998   4.204   4.759 -0.3991  0.3611  0.2847
  254MOL0     C33445  -1.868   4.178   4.712  0.0499  0.3871 -0.0086
  254MOL0     N33446  -1.474   4.402   4.060  0.0523  0.0580 -0.9184
  254MOL0     N33447  -1.403   4.352   3.964  0.5188 -0.7145 -0.0898
  254MOL0     C33448  -0.131   4.527   4.103  0.2377 -0.4199  0.4022
  254MOL0     C33449   0.005   4.515   4.134  0.3190 -0.1086  0.7331
  254MOL0     C33450   0.417   4.385   4.070 -0.0206 -0.7443  0.5947
  254MOL0     C33451   0.440   4.263   4.130 -0.2633  0.1456  0.5202
  254MOL0     C33452   0.572   4.233   4.165  0.3660 -0.0752 -0.0945
  254MOL0     C33453   0.676   4.307   4.118 -0.2987 -0.6149 -0.2901
  254MOL0     O33454   0.800   4.261   4.164 -0.7972  0.2616  0.1618
  254MOL0     C33455   0.914   4.328   4.114 -0.1824 -0.0599  1.3627
  254MOL0     C33456   1.050   4.276   4.178  0.8828  0.7784 -0.0583
  254MOL0     C33457   1.163   4.333   4.099 -1.6232  0.2529 -0.5640
  254MOL0     C33458   1.187   4.240   3.979  0.5839 -0.7453 -0.3344
  254MOL0     C33459   1.284   4.296   3.879 -0.2823 -0.3433  0.0762
  254MOL0     C33460   1.370   4.334   3.803  0.2863 -0.2601  0.1788
  254MOL0     C33461   0.648   4.412   4.020  0.8763 -0.1828 -0.6875
  254MOL0     C33462   0.515   4.451   4.004 -0.0437 -0.3355  0.3034
  254MOL0     H33463   0.037   4.176   4.119  0.6295  0.1928  1.2351
  254MOL0     H33464  -0.210   4.200   4.087  2.7847 -2.1092  2.3232
  254MOL0     H33465  -0.390   4.494   3.888 -0.6423 -1.3671  0.0623
  254MOL0     H33466  -0.372   4.612   4.023 -0.1820  0.3370  0.8696
  254MOL0     H33467  -0.608   4.577   3.960  0.5885  0.6664 -0.4978
  254MOL0     H33468  -0.589   4.493   4.121 -1.1701 -1.2397 -0.6070
  254MOL0     H33469  -0.575   4.268   3.993 -1.1353 -1.9706 -2.3386
  254MOL0     H33470  -0.613   4.355   3.852  0.6776  1.0170 -0.0863
  254MOL0     H33471  -0.792   4.356   4.109 -0.6318 -0.1528 -0.0198
  254MOL0     H33472  -0.825   4.437   3.955 -2.3416 -0.0036  1.7089
  254MOL0     H33473  -0.772   4.138   3.965 -0.7206 -1.4266 -2.5390
  254MOL0     H33474  -0.864   4.226   3.841 -3.4164 -1.0129  0.1296
  254MOL0     H33475  -1.002   4.240   4.100  2.8091  0.6866 -0.5619
  254MOL0     H33476  -0.985   4.074   4.037 -1.4148  0.2230  1.6235
  254MOL0     H33477  -1.086   4.307   3.869 -0.8229 -0.0799 -1.0920
  254MOL0     H33478  -1.065   4.141   3.829 -3.8274 -1.3498  0.9850
  254MOL0     H33479  -1.227   4.068   4.000 -0.1365  1.8001  2.0516
  254MOL0     H33480  -1.293   4.129   3.854 -2.3001  0.1410  1.0610
  254MOL0     H33481  -1.287   4.189   4.227  1.2019 -0.5294 -2.5566
  254MOL0     H33482  -1.586   4.440   4.313 -0.0997 -0.0918 -0.3165
  254MOL0     H33483  -1.425   4.405   4.383 -0.8909  2.4820 -0.2672
  254MOL0     H33484  -1.465   4.157   4.378 -0.0933  0.1789  0.3177
  254MOL0     H33485  -1.635   4.189   4.332 -0.0193  3.4856 -1.8365
  254MOL0     H33486  -1.468   4.280   4.573  1.9971 -0.7967 -2.8018
  254MOL0     H33487  -1.643   4.326   4.559  0.3282  1.3135 -0.7313
  254MOL0     H33488  -1.592   4.117   4.704 -1.5922 -0.6895 -0.0246
  254MOL0     H33489  -1.530   4.039   4.560 -1.1954 -0.4436  0.2292
  254MOL0     H33490  -1.960   3.995   4.433 -0.4938 -1.8660  1.5629
  254MOL0     H33491  -2.181   4.069   4.508 -0.5194  2.2301  1.6675
  254MOL0     H33492  -2.492   4.272   4.818 -2.2699  0.3954 -1.4103
  254MOL0     H33493  -2.671   4.423   4.871  0.7077 -0.4657 -0.7635
  254MOL0     H33494  -2.695   4.614   4.677 -0.9803 -1.6455  0.0638
  254MOL0     H33495  -2.709   4.789   4.683 -0.9830 -1.1626 -0.3910
  254MOL0     H33496  -2.913   4.777   4.834  0.4157  0.1885  1.0078
  254MOL0     H33497  -2.886   4.622   4.887 -1.0348  0.7284  0.5144
  254MOL0     H33498  -2.936   4.514   4.663  2.2135  0.3437  0.8189
  254MOL0     H33499  -2.963   4.673   4.592  0.4658  0.3068  0.0235
  254MOL0     H33500  -3.116   4.619   4.842 -1.8158  3.7450  0.2745
  254MOL0     H33501  -3.148   4.724   4.706 -0.2486 -1.0539 -2.6586
  254MOL0     H33502  -3.152   4.419   4.661 -0.2507 -0.0072  0.6789
  254MOL0     H33503  -3.220   4.547   4.572 -0.5787 -2.2483 -0.0493
  254MOL0     H33504  -3.396   4.419   4.713 -1.8792  2.9307 -0.0561
  254MOL0     H33505  -3.389   4.567   4.803 -2.5498 -2.1383  2.1782
  254MOL0     H33506  -3.203   4.343   4.863 -1.5308 -1.3813 -0.5921
  254MOL0     H33507  -3.226   4.486   4.967  1.1228  1.4436 -1.7754
  254MOL0     H33508  -3.458   4.413   5.025  0.8040  2.5235 -2.8484
  254MOL0     H33509  -3.332   4.309   5.085  1.1279  4.3948  0.4653
  254MOL0     H33510  -2.411   4.758   4.859 -4.8368  0.9543  0.8886
  254MOL0     H33511  -2.209   4.592   4.809  1.2636 -1.5558  2.1085
  254MOL0     H33512  -2.012   4.257   4.853 -1.7463  0.3093  0.1441
  254MOL0     H33513  -1.783   4.221   4.764  0.0023  0.6087 -0.1112
  254MOL0     H33514  -0.156   4.633   4.102  3.2365  0.3831  0.3037
  254MOL0     H33515   0.061   4.606   4.152 -1.2196  1.0985 -0.4198
  254MOL0     H33516   0.358   4.203   4.169 -1.5720  1.0897 -0.6994
  254MOL0     H33517   0.587   4.158   4.243  1.4816  0.2966  0.0651
  254MOL0     H33518   0.917   4.436   4.134  0.7667  0.6736 -2.0631
  254MOL0     H33519   0.914   4.312   4.006 -0.8467 -2.8144  1.6983
  254MOL0     H33520   1.059   4.305   4.283  1.5786 -0.6556  0.2908
  254MOL0     H33521   1.042   4.167   4.172  3.4715  0.4622  1.1520
  254MOL0     H33522   1.253   4.340   4.161 -1.9593 -2.6642  0.4424
  254MOL0     H33523   1.140   4.434   4.065 -2.1848 -0.2567 -1.7490
  254MOL0     H33524   1.235   4.146   4.008  3.4450  0.0352 -2.1639
  254MOL0     H33525   1.094   4.222   3.924 -0.4989 -0.0073  1.1861
  254MOL0     H33526   1.452   4.359   3.738  0.1837 -0.8597 -0.1932
  254MOL0     H33527   0.733   4.467   3.982 -0.4205  1.1497 -1.7842
  254MOL0     H33528   0.493   4.539   3.945  1.2456 -0.7985 -0.8991
  255MOL0     O33529   4.218   3.293   9.899  0.3350 -0.2978 -0.4376
  255MOL0     C33530   4.224   3.418   9.892  0.0192  0.2470 -0.4386
  255MOL0     O33531   4.131   3.505   9.943  0.4214 -0.2591  0.1744
  255MOL0     C33532   4.001   3.458   9.957  0.0581 -0.4775  0.1660
  255MOL0     C33533   3.923   3.525  10.046 -0.0960  0.1461  0.0198
  255MOL0     C33534   3.787   3.487  10.075 -0.1784 -0.1558 -0.8805
  255MOL0     C33535   3.736   3.388   9.997  0.2720 -0.3258  0.6708
  255MOL0     O33536   3.602   3.354  10.035 -0.2237 -0.0072 -0.0542
  255MOL0     C33537   3.506   3.336   9.932 -0.0458 -0.9639  0.0442
  255MOL0     C33538   3.469   3.457   9.836 -0.4773  0.0335 -0.5110
  255MOL0     C33539   3.368   3.410   9.739  0.0710  0.9768 -0.1800
  255MOL0     C33540   3.234   3.358   9.805  0.4436 -0.3201 -0.0606
  255MOL0     C33541   3.111   3.342   9.717  0.1876 -0.4654 -0.0766
  255MOL0     C33542   3.066   3.473   9.653 -0.4364  0.2658 -1.1860
  255MOL0     C33543   2.930   3.448   9.584  0.0717  0.5740 -0.9025
  255MOL0     C33544   2.893   3.572   9.506  0.6541  0.8674 -0.7762
  255MOL0     N33545   2.757   3.559   9.446 -0.5164  0.1636 -0.1448
  255MOL0     C33546   2.710   3.650   9.360  0.4143 -0.2033  0.8067
  255MOL0     C33547   2.587   3.611   9.328  0.9861 -0.8639 -0.0050
  255MOL0     C33548   2.514   3.657   9.201 -0.2959  0.6552 -0.5477
  255MOL0     C33549   2.421   3.546   9.133 -0.7129  0.7679 -1.1008
  255MOL0     C33550   2.394   3.549   8.983  0.2868 -0.2690 -0.5161
  255MOL0     C33551   2.281   3.451   8.945  0.6952  0.6043 -0.1524
  255MOL0     O33552   2.267   3.444   8.804 -0.1620 -0.6249  0.2506
  255MOL0     C33553   2.171   3.358   8.755  0.1269  0.0777 -0.5147
  255MOL0     C33554   2.069   3.298   8.832  0.5995 -0.5357  0.3129
  255MOL0     C33555   1.980   3.210   8.768  0.7641 -0.3743 -0.4805
  255MOL0     C33556   1.979   3.182   8.625 -0.2218 -0.3446 -0.0626
  255MOL0     C33557   1.882   3.092   8.563  0.4989 -0.0856 -0.8917
  255MOL0     O33558   1.769   3.067   8.632 -0.0007 -0.5195  0.2335
  255MOL0     C33559   1.676   2.981   8.582  0.7885  0.6521  0.1508
  255MOL0     C33560   1.557   3.030   8.529  0.1181  0.5428 -0.1941
  255MOL0     C33561   1.460   2.932   8.481 -0.0624  0.3007 -0.9071
  255MOL0     C33562   1.488   2.791   8.498  0.6976  0.3882  0.2207
  255MOL0     O33563   1.407   2.690   8.443 -0.3700 -0.0567 -0.9412
  255MOL0     C33564   1.268   2.718   8.431 -0.9532  0.2334 -0.9277
  255MOL0     C33565   1.205   2.736   8.568  0.4765 -1.3764  1.0364
  255MOL0     C33566   1.047   2.771   8.561  0.0335  0.5197 -0.8349
  255MOL0     C33567   0.965   2.644   8.515 -0.7847 -1.1632 -0.4969
  255MOL0     C33568   0.813   2.662   8.517 -0.5296 -0.4649  0.4808
  255MOL0     C33569   0.751   2.687   8.378 -0.2444 -0.3533  0.3707
  255MOL0     C33570   0.607   2.739   8.396  0.9207 -0.1960 -0.7152
  255MOL0     C33571   0.550   2.795   8.271 -0.5422  0.0794  0.4552
  255MOL0    Cl33572   0.643   2.935   8.220 -0.0709  0.0698 -0.0795
  255MOL0     C33573   1.596   2.755   8.569 -0.1382  0.0204 -0.6498
  255MOL0     C33574   1.692   2.846   8.609  0.0599  0.3229  0.3075
  255MOL0     O33575   1.902   3.055   8.448 -0.5920 -0.8062 -0.5860
  255MOL0     C33576   2.085   3.247   8.551  0.5697  0.4863 -0.1495
  255MOL0     C33577   2.174   3.334   8.618  0.2265  0.6263 -0.2312
  255MOL0     N33578   2.548   3.498   9.412 -0.2137 -0.0642 -0.7602
  255MOL0     N33579   2.659   3.468   9.470  0.4079 -0.0661  0.1091
  255MOL0     C33580   3.807   3.326   9.893 -0.5272  0.2978  0.2553
  255MOL0     C33581   3.944   3.357   9.879  0.3730 -0.3184  0.2468
  255MOL0     C33582   4.330   3.486   9.814  1.1566 -0.2652 -0.0468
  255MOL0     C33583   4.454   3.428   9.789  0.6649  0.6100 -0.3251
  255MOL0     C33584   4.549   3.490   9.705 -0.6096  0.5402 -0.5003
  255MOL0     C33585   4.533   3.619   9.655 -0.0301  0.3941  0.1359
  255MOL0     O33586   4.623   3.689   9.585  1.2277 -0.3133  0.2731
  255MOL0     C33587   4.749   3.643   9.559 -0.2104 -0.7145 -0.0110
  255MOL0     C33588   4.851   3.758   9.548 -0.1922 -0.0322 -0.1176
  255MOL0     C33589   4.824   3.831   9.415  0.4258 -0.2456 -0.1945
  255MOL0     C33590   4.902   3.956   9.391 -0.3018  0.1470  0.3831
  255MOL0     C33591   5.054   3.937   9.385 -0.4175 -0.0802  1.3299
  255MOL0     C33592   5.170   3.909   9.367 -0.0058 -0.4501  0.0050
  255MOL0     C33593   4.405   3.676   9.689 -0.3831  0.3498 -0.8477
  255MOL0     C33594   4.313   3.608   9.768  0.9123 -0.9211  0.1874
  255MOL0     H33595   3.968   3.611  10.092 -0.7301 -0.4116  1.7425
  255MOL0     H33596   3.708   3.536  10.132  0.9862  0.9208 -0.1528
  255MOL0     H33597   3.414   3.312   9.987 -1.7461  2.2725 -1.0685
  255MOL0     H33598   3.532   3.252   9.867  0.0575 -0.3340 -0.7376
  255MOL0     H33599   3.558   3.496   9.787 -0.7852  1.4996  0.0214
  255MOL0     H33600   3.422   3.539   9.892 -4.1942 -2.2560  0.0960
  255MOL0     H33601   3.415   3.330   9.681 -0.2358 -0.5217  1.5340
  255MOL0     H33602   3.338   3.494   9.676 -1.4901 -0.0821 -0.9134
  255MOL0     H33603   3.245   3.261   9.855  1.1969  0.9972  2.5302
  255MOL0     H33604   3.225   3.426   9.891  5.1088  1.4726 -0.6688
  255MOL0     H33605   3.032   3.299   9.780 -0.1301  0.0350 -0.1322
  255MOL0     H33606   3.132   3.267   9.640 -1.0936 -1.5035  0.5447
  255MOL0     H33607   3.142   3.519   9.589  1.3555 -0.1540  0.5495
  255MOL0     H33608   3.057   3.542   9.737  0.6331  0.2593 -1.0510
  255MOL0     H33609   2.929   3.363   9.516  0.2879  0.1222 -0.3484
  255MOL0     H33610   2.853   3.435   9.662  0.0166 -0.2003 -1.0808
  255MOL0     H33611   2.962   3.567   9.421 -0.2227 -0.3754 -1.4451
  255MOL0     H33612   2.885   3.662   9.567 -0.8436 -1.3402  2.5905
  255MOL0     H33613   2.765   3.722   9.300  0.6028 -1.8120 -1.0841
  255MOL0     H33614   2.588   3.689   9.126  1.8533 -0.7418  0.8649
  255MOL0     H33615   2.450   3.743   9.222 -0.1393  0.5143  0.5582
  255MOL0     H33616   2.321   3.549   9.178  0.1818  0.3561  1.0097
  255MOL0     H33617   2.468   3.454   9.168 -0.6570  0.7744 -1.1594
  255MOL0     H33618   2.363   3.646   8.942  0.7263 -0.9022 -2.4932
  255MOL0     H33619   2.486   3.524   8.929  1.6302  0.7533  1.2160
  255MOL0     H33620   2.184   3.481   8.985  0.6441  0.2779 -0.0258
  255MOL0     H33621   2.319   3.353   8.978  0.2171 -0.2539 -2.0064
  255MOL0     H33622   2.053   3.317   8.937  1.2369  1.9187  0.0391
  255MOL0     H33623   1.916   3.144   8.827  0.7851  0.9902  1.1704
  255MOL0     H33624   1.533   3.136   8.520  1.1937  1.2186  3.2551
  255MOL0     H33625   1.373   2.970   8.429 -0.8137  1.8752  1.3565
  255MOL0     H33626   1.215   2.638   8.379 -1.8458 -0.7475  1.3709
  255MOL0     H33627   1.257   2.804   8.364  1.1439 -1.7512 -4.0353
  255MOL0     H33628   1.248   2.824   8.617  0.9706 -2.4531  2.6132
  255MOL0     H33629   1.225   2.645   8.626  1.8932 -1.9587 -0.3057
  255MOL0     H33630   1.031   2.854   8.492 -2.1159  0.1766 -0.8403
  255MOL0     H33631   1.011   2.814   8.655 -0.7729 -0.8301 -0.5045
  255MOL0     H33632   1.003   2.614   8.417  1.3404  1.6895 -0.6781
  255MOL0     H33633   0.982   2.571   8.595 -0.5082  1.2093  1.7317
  255MOL0     H33634   0.795   2.748   8.582 -0.1771  1.6371 -2.0564
  255MOL0     H33635   0.772   2.568   8.555 -0.3665 -0.3783  0.8723
  255MOL0     H33636   0.761   2.603   8.309  0.6164 -1.8495  2.2276
  255MOL0     H33637   0.812   2.758   8.322 -2.3605  0.3891 -1.1342
  255MOL0     H33638   0.541   2.656   8.425  0.2589  1.5885  3.5418
  255MOL0     H33639   0.590   2.819   8.469  0.4771  1.1580 -2.2362
  255MOL0     H33640   0.450   2.830   8.299 -0.6823 -0.4962  0.6891
  255MOL0     H33641   0.546   2.715   8.196  0.7114  0.9802 -0.6171
  255MOL0     H33642   1.606   2.649   8.593 -1.0679  0.1555  0.4420
  255MOL0     H33643   1.781   2.813   8.661  0.0499  0.6902  0.5587
  255MOL0     H33644   2.097   3.247   8.443  5.1450  0.0070  0.1349
  255MOL0     H33645   2.246   3.385   8.554 -0.8604 -1.6185 -3.5216
  255MOL0     H33646   3.751   3.265   9.824  0.0883 -0.5316  0.4757
  255MOL0     H33647   3.993   3.310   9.795  1.1929 -0.6610  0.9008
  255MOL0     H33648   4.473   3.333   9.838 -0.1351  1.1955  1.1792
  255MOL0     H33649   4.645   3.440   9.708 -0.6664  0.4348  2.7180
  255MOL0     H33650   4.761   3.588   9.465  1.3824  1.4665 -1.1870
  255MOL0     H33651   4.800   3.578   9.631  1.3409  0.0618 -0.3592
  255MOL0     H33652   4.836   3.825   9.633 -0.8843 -0.3571  0.0213
  255MOL0     H33653   4.958   3.732   9.549 -0.2846 -0.4058  0.6120
  255MOL0     H33654   4.717   3.849   9.421  0.6114  1.0365 -0.5810
  255MOL0     H33655   4.854   3.771   9.328  0.3269 -0.0464 -0.3668
  255MOL0     H33656   4.879   3.991   9.290  1.3566 -1.2247 -0.5107
  255MOL0     H33657   4.884   4.037   9.462 -1.3400 -1.1245  1.6265
  255MOL0     H33658   5.272   3.882   9.355  1.4936  2.9266  3.0833
  255MOL0     H33659   4.388   3.779   9.661 -0.1063  0.6504  0.0483
  255MOL0     H33660   4.222   3.662   9.792 -0.9821 -2.8834 -1.9814
  256MOL0     O33661   3.162   2.484   5.241  0.3236 -0.6608  0.3658
  256MOL0     C33662   3.163   2.585   5.174  0.4059 -0.1559  0.1201
  256MOL0     O33663   3.060   2.650   5.106 -0.1567 -0.6308  0.0705
  256MOL0     C33664   2.927   2.615   5.134 -0.2509 -0.7283  0.7987
  256MOL0     C33665   2.845   2.715   5.160  0.3055  0.0738 -1.1645
  256MOL0     C33666   2.711   2.701   5.194 -0.1972 -1.1412 -0.1727
  256MOL0     C33667   2.655   2.574   5.216 -0.0291  0.1858  0.2841
  256MOL0     O33668   2.518   2.574   5.240 -0.0014 -0.2179  0.4705
  256MOL0     C33669   2.443   2.460   5.185 -0.9683  0.0211 -1.0959
  256MOL0     C33670   2.296   2.476   5.206  0.9358 -0.3530  0.1853
  256MOL0     C33671   2.257   2.525   5.346  0.9268  0.4361  0.2810
  256MOL0     C33672   2.108   2.535   5.369  0.2320 -0.1190  0.0979
  256MOL0     C33673   2.080   2.550   5.510  0.2901  0.3560 -0.2097
  256MOL0     C33674   2.092   2.412   5.586 -0.0306  0.2892 -0.8647
  256MOL0     C33675   2.025   2.423   5.724 -0.7701 -0.0536  0.0237
  256MOL0     C33676   1.864   2.405   5.729 -0.2138  1.4695  0.2350
  256MOL0     N33677   1.806   2.530   5.706 -0.1886  0.1018  0.2589
  256MOL0     C33678   1.831   2.649   5.784 -0.3071 -0.2226  0.8129
  256MOL0     C33679   1.741   2.739   5.740  0.2159 -0.6013 -0.3600
  256MOL0     C33680   1.707   2.871   5.799 -0.3577  0.4993 -0.4467
  256MOL0     C33681   1.559   2.898   5.790  0.3185 -0.4160  0.2028
  256MOL0     C33682   1.525   3.018   5.874  0.1285 -0.0520 -0.9543
  256MOL0     C33683   1.545   2.988   6.027 -0.6177  0.2646  1.0443
  256MOL0     O33684   1.445   3.038   6.112  0.0803  0.3455 -0.2491
  256MOL0     C33685   1.319   2.985   6.112 -0.0632 -0.4883 -0.2109
  256MOL0     C33686   1.283   2.866   6.044 -0.3105  0.1805 -0.4756
  256MOL0     C33687   1.149   2.827   6.056  1.5180  0.5972  0.3739
  256MOL0     C33688   1.052   2.884   6.145  0.1255 -0.2075  0.3532
  256MOL0     C33689   0.904   2.844   6.132 -0.4247  1.5489 -0.0264
  256MOL0     O33690   0.821   2.915   6.204  0.4651 -0.3841 -0.0009
  256MOL0     C33691   0.686   2.911   6.193 -0.5435 -0.1409 -0.3251
  256MOL0     C33692   0.614   2.857   6.082 -0.3971  0.2198  0.6063
  256MOL0     C33693   0.476   2.852   6.101 -0.9979 -0.5664 -0.4443
  256MOL0     C33694   0.405   2.908   6.207  0.3701  0.6830 -0.4423
  256MOL0     O33695   0.267   2.914   6.202  0.4105  0.8716 -0.8762
  256MOL0     C33696   0.184   2.927   6.318 -0.0467 -0.2120 -1.7422
  256MOL0     C33697   0.034   2.930   6.284  0.0505  1.0952  0.0202
  256MOL0     C33698  -0.056   2.902   6.398  0.1340 -0.7274  0.3019
  256MOL0     C33699  -0.204   2.905   6.359 -0.2593 -0.3691  1.2394
  256MOL0     C33700  -0.300   2.887   6.479 -0.2399  1.0596 -0.4942
  256MOL0     C33701  -0.349   2.741   6.476  0.1812  1.4093  0.5362
  256MOL0     C33702  -0.442   2.722   6.597 -0.1563 -0.4207  0.0141
  256MOL0     C33703  -0.466   2.567   6.606  0.1738 -0.0115 -0.5287
  256MOL0    Cl33704  -0.557   2.490   6.480  0.4467 -0.3106 -0.1704
  256MOL0     C33705   0.480   2.959   6.311 -0.2777  0.5718  0.2065
  256MOL0     C33706   0.614   2.957   6.301 -0.1628  0.5158  0.0585
  256MOL0     O33707   0.871   2.744   6.068 -0.1190 -0.0340  0.5457
  256MOL0     C33708   1.096   2.995   6.216 -0.1196 -0.3213  1.1998
  256MOL0     C33709   1.222   3.039   6.204 -0.7140 -0.6448 -0.0578
  256MOL0     N33710   1.684   2.686   5.626 -0.2270  0.0135  0.3519
  256MOL0     N33711   1.717   2.561   5.613 -0.1130 -1.1254  0.5305
  256MOL0     C33712   2.741   2.467   5.190 -0.7850  0.3490  0.3945
  256MOL0     C33713   2.871   2.487   5.146  0.1264  0.0676 -0.3008
  256MOL0     C33714   3.292   2.643   5.154 -0.7865 -0.8540 -0.3849
  256MOL0     C33715   3.301   2.762   5.070  0.1693  0.3613 -0.0770
  256MOL0     C33716   3.424   2.816   5.061  0.4270  0.7647  0.5827
  256MOL0     C33717   3.539   2.763   5.118 -0.5742  1.2665 -0.0579
  256MOL0     O33718   3.654   2.838   5.115  0.2670  0.1971 -0.9281
  256MOL0     C33719   3.694   2.930   5.013  0.5484 -0.4279 -0.1423
  256MOL0     C33720   3.840   2.962   5.002  1.1389  0.5082 -0.4373
  256MOL0     C33721   3.888   3.067   5.105 -0.3376 -0.2963 -0.3578
  256MOL0     C33722   4.032   3.101   5.066  0.4863  0.7997 -0.1956
  256MOL0     C33723   4.081   3.209   5.158  0.5165  0.6895 -0.9966
  256MOL0     C33724   4.114   3.294   5.241  0.0637 -0.6338 -0.0121
  256MOL0     C33725   3.535   2.645   5.196 -0.3548 -0.0708  0.3126
  256MOL0     C33726   3.406   2.588   5.218  0.2434  0.3871 -0.1579
  256MOL0     H33727   2.880   2.818   5.162  0.5692 -0.0233  1.0958
  256MOL0     H33728   2.648   2.787   5.217 -0.0458 -1.4358  1.4945
  256MOL0     H33729   2.486   2.373   5.235  1.6768 -0.3341 -3.6333
  256MOL0     H33730   2.459   2.444   5.077 -0.6426 -1.1182 -0.8960
  256MOL0     H33731   2.226   2.396   5.179 -1.5534  2.7358 -3.5788
  256MOL0     H33732   2.270   2.557   5.137  2.8260  0.7733  0.7150
  256MOL0     H33733   2.305   2.619   5.376  1.3889  0.1949  0.2951
  256MOL0     H33734   2.278   2.444   5.416 -0.8583  0.2422  0.6486
  256MOL0     H33735   2.073   2.623   5.315 -0.3846 -0.3580  0.0965
  256MOL0     H33736   2.061   2.458   5.306  0.5575  1.2118 -1.8340
  256MOL0     H33737   1.979   2.584   5.531 -0.0332 -1.4061  1.4670
  256MOL0     H33738   2.148   2.619   5.560 -0.2078 -0.9270  2.4392
  256MOL0     H33739   2.195   2.376   5.598  0.1925 -0.1406 -3.5361
  256MOL0     H33740   2.030   2.341   5.531 -3.2045 -0.6643  3.4634
  256MOL0     H33741   2.067   2.345   5.788 -0.5880 -1.6133 -1.9090
  256MOL0     H33742   2.059   2.514   5.776 -2.3615 -0.1277  1.2717
  256MOL0     H33743   1.830   2.369   5.827 -1.6993  2.4707  0.1229
  256MOL0     H33744   1.836   2.331   5.654  2.6660  0.6308 -0.1262
  256MOL0     H33745   1.891   2.656   5.874  0.6381  1.9413  0.0666
  256MOL0     H33746   1.773   2.943   5.748 -0.8688  0.6232 -0.9401
  256MOL0     H33747   1.727   2.860   5.906 -3.4855  2.9956  0.5348
  256MOL0     H33748   1.494   2.818   5.828  1.2718 -0.8516  0.9519
  256MOL0     H33749   1.529   2.904   5.685  0.9937  1.8267  0.0783
  256MOL0     H33750   1.590   3.095   5.831 -1.3498  0.3839 -2.5254
  256MOL0     H33751   1.428   3.059   5.844 -0.5115 -1.5192 -0.9519
  256MOL0     H33752   1.636   3.044   6.050  1.1231 -1.0352 -2.1114
  256MOL0     H33753   1.559   2.880   6.040  1.0980  0.3699  0.3363
  256MOL0     H33754   1.351   2.819   5.974 -0.5256  2.3477 -2.2736
  256MOL0     H33755   1.112   2.751   5.987  2.0750 -0.6151  1.3679
  256MOL0     H33756   0.651   2.815   5.989 -4.9592 -0.1846 -1.3008
  256MOL0     H33757   0.413   2.825   6.017  0.2047  0.9249 -1.9047
  256MOL0     H33758   0.212   3.010   6.383  1.1964 -1.0351 -1.1998
  256MOL0     H33759   0.206   2.840   6.381 -0.9472  0.1532 -0.8990
  256MOL0     H33760   0.027   2.851   6.208 -0.5232  1.3069 -0.1505
  256MOL0     H33761   0.008   3.020   6.228 -1.1450  0.0229 -1.2182
  256MOL0     H33762  -0.041   2.978   6.475  0.8383 -1.0205  0.4683
  256MOL0     H33763  -0.018   2.806   6.434  3.5223  1.1918  2.4320
  256MOL0     H33764  -0.221   2.999   6.306 -1.7407 -0.9244  0.6867
  256MOL0     H33765  -0.227   2.825   6.288  0.2347  1.5847 -1.2262
  256MOL0     H33766  -0.385   2.956   6.476  0.5309  2.0333 -3.2572
  256MOL0     H33767  -0.258   2.907   6.578 -0.1898 -1.0636 -0.0581
  256MOL0     H33768  -0.275   2.662   6.493 -1.0247  0.4923  1.7821
  256MOL0     H33769  -0.403   2.710   6.387  0.7300 -2.2251  1.3157
  256MOL0     H33770  -0.391   2.761   6.685  1.9149  2.2963 -2.2069
  256MOL0     H33771  -0.536   2.777   6.583 -1.4095 -1.6974  2.6329
  256MOL0     H33772  -0.529   2.535   6.689  2.8119 -1.9598  0.8947
  256MOL0     H33773  -0.364   2.527   6.615  0.3478  0.6936  1.1559
  256MOL0     H33774   0.426   3.020   6.383  1.3159  4.1881 -1.4339
  256MOL0     H33775   0.671   2.999   6.384  1.8398 -1.0055 -0.4477
  256MOL0     H33776   1.029   3.050   6.280 -1.1489 -1.6327  1.3028
  256MOL0     H33777   1.254   3.123   6.265  0.8598 -1.9168  0.9384
  256MOL0     H33778   2.723   2.362   5.209  0.2281 -0.1024 -0.9147
  256MOL0     H33779   2.929   2.400   5.116  2.1729  0.7118  1.4799
  256MOL0     H33780   3.215   2.807   5.022  0.0906  1.8621  1.3800
  256MOL0     H33781   3.424   2.908   5.004 -1.1667  0.7836  0.5772
  256MOL0     H33782   3.639   3.023   5.033  0.1655 -1.0990  2.2112
  256MOL0     H33783   3.675   2.900   4.909 -0.0025 -1.3499  0.2210
  256MOL0     H33784   3.892   2.866   5.006  1.9082  0.8394 -2.0857
  256MOL0     H33785   3.859   2.997   4.901  1.8965 -1.5186 -1.0451
  256MOL0     H33786   3.889   3.029   5.207 -2.1066  2.1707  0.7117
  256MOL0     H33787   3.823   3.156   5.109  0.7394  0.4864  0.1832
  256MOL0     H33788   4.103   3.018   5.074  1.9077  1.8092 -1.5991
  256MOL0     H33789   4.033   3.123   4.959  0.7798 -0.8392 -0.5553
  256MOL0     H33790   4.135   3.354   5.327  0.2339  0.4071 -0.7544
  256MOL0     H33791   3.627   2.598   5.227 -0.8720 -1.8424 -0.7101
  256MOL0     H33792   3.408   2.494   5.272 -0.1028  0.4516 -0.0280
  257MOL0     O33793   3.216   3.846   8.413  0.5379  0.0262  0.3724
  257MOL0     C33794   3.279   3.852   8.519  0.6085 -1.5740  0.1137
  257MOL0     O33795   3.225   3.807   8.639  0.1295 -0.0186 -0.3860
  257MOL0     C33796   3.103   3.739   8.635  0.1024 -0.2702  0.3175
  257MOL0     C33797   3.098   3.601   8.681 -0.2620  0.1040  0.1475
  257MOL0     C33798   2.977   3.524   8.667  0.6234  0.1892  0.1657
  257MOL0     C33799   2.861   3.581   8.611 -0.1707 -0.5833 -0.4971
  257MOL0     O33800   2.748   3.504   8.618  0.6583 -0.3018  1.2459
  257MOL0     C33801   2.640   3.542   8.530  0.4481 -0.0066 -0.1709
  257MOL0     C33802   2.672   3.525   8.381  0.0778 -0.6186 -0.2867
  257MOL0     C33803   2.715   3.381   8.353 -0.2416  0.2124 -0.6267
  257MOL0     C33804   2.601   3.278   8.383  0.4714  0.0623 -0.4137
  257MOL0     C33805   2.492   3.281   8.270  0.4117 -0.1843  0.6422
  257MOL0     C33806   2.404   3.146   8.279 -0.2446 -0.0095 -0.4799
  257MOL0     C33807   2.293   3.146   8.184 -0.2150 -0.2363  0.2244
  257MOL0     C33808   2.221   3.006   8.193 -0.1247  1.2617  0.0213
  257MOL0     N33809   2.108   3.003   8.106  0.4030  0.5931  0.1391
  257MOL0     C33810   1.975   2.979   8.138 -0.4113  0.2428  0.4101
  257MOL0     C33811   1.899   3.005   8.029 -0.6966 -0.2537 -0.1555
  257MOL0     C33812   1.750   2.992   8.013  0.4043  0.0129 -0.4137
  257MOL0     C33813   1.661   3.004   8.133  0.9283 -0.4822  0.3302
  257MOL0     C33814   1.506   3.026   8.102 -0.0532  0.4020  0.3892
  257MOL0     C33815   1.450   2.898   8.033  0.1126 -0.3346 -0.0239
  257MOL0     O33816   1.307   2.923   8.024  0.1567 -0.4459  0.2504
  257MOL0     C33817   1.226   2.814   7.999  0.8800  0.3086  0.4442
  257MOL0     C33818   1.094   2.840   8.003 -0.4372  0.3372 -0.0786
  257MOL0     C33819   1.002   2.741   7.999 -0.6842 -0.0816  0.0369
  257MOL0     C33820   1.045   2.610   7.990  0.6108 -0.3421 -0.5757
  257MOL0     C33821   0.954   2.496   7.975  1.0521  0.2998 -0.8190
  257MOL0     O33822   0.826   2.522   7.993  0.3109 -0.4046  0.0762
  257MOL0     C33823   0.727   2.429   7.988  0.1938 -0.0081  0.8839
  257MOL0     C33824   0.667   2.362   8.105 -0.6928 -0.0771  0.6690
  257MOL0     C33825   0.546   2.289   8.098  0.0065  0.4379  0.7029
  257MOL0     C33826   0.490   2.262   7.974 -0.1668  0.1843  0.6043
  257MOL0     O33827   0.366   2.204   7.964  0.0608 -0.6377 -0.2004
  257MOL0     C33828   0.327   2.143   7.845  0.5737  0.5892 -0.1429
  257MOL0     C33829   0.236   2.021   7.873  0.7263 -0.8180  0.5393
  257MOL0     C33830   0.094   2.067   7.898 -0.5391 -0.4881 -0.0246
  257MOL0     C33831  -0.000   1.949   7.942 -0.4084 -0.7345  0.1557
  257MOL0     C33832  -0.155   1.977   7.952  0.4437  0.2582 -0.3843
  257MOL0     C33833  -0.227   1.863   8.024 -0.1630 -0.2429 -0.6317
  257MOL0     C33834  -0.381   1.863   7.995 -0.8179  0.1116  0.1376
  257MOL0     C33835  -0.414   1.735   7.914  0.2204 -0.5066  0.3573
  257MOL0    Cl33836  -0.315   1.755   7.764  0.0242 -0.0331 -0.0755
  257MOL0     C33837   0.548   2.326   7.859  0.3716  0.0804  0.5134
  257MOL0     C33838   0.653   2.414   7.870 -0.7022  0.8195  0.0067
  257MOL0     O33839   0.998   2.380   7.954  0.0274 -0.1457  0.6492
  257MOL0     C33840   1.183   2.582   7.977  0.0743  0.2669 -0.0108
  257MOL0     C33841   1.278   2.684   7.985 -0.6294 -0.1024  0.5845
  257MOL0     N33842   1.983   3.015   7.927  0.1170  0.7468  0.8173
  257MOL0     N33843   2.107   3.015   7.967 -0.3555 -0.9188 -0.1865
  257MOL0     C33844   2.865   3.714   8.573 -0.2554 -0.0377 -0.4999
  257MOL0     C33845   2.983   3.795   8.593 -0.8484 -0.7144  0.2463
  257MOL0     C33846   3.410   3.920   8.515 -0.1300  0.6558 -0.0512
  257MOL0     C33847   3.498   3.906   8.625  0.1465 -0.2460  0.2109
  257MOL0     C33848   3.611   3.980   8.634  0.5740  0.7733  0.7914
  257MOL0     C33849   3.642   4.063   8.521 -0.6524 -0.0647  0.5109
  257MOL0     O33850   3.765   4.120   8.498 -1.1053 -0.4459 -0.0910
  257MOL0     C33851   3.852   4.156   8.611  0.9951 -0.4449  0.1735
  257MOL0     C33852   3.987   4.203   8.557  0.6113 -0.2651 -0.1168
  257MOL0     C33853   4.082   4.080   8.550  0.2042 -0.5101 -0.1203
  257MOL0     C33854   4.217   4.120   8.490 -0.0648 -0.7763  0.2502
  257MOL0     C33855   4.287   4.213   8.575 -0.0617  0.2938 -0.8299
  257MOL0     C33856   4.366   4.285   8.632  0.2861 -0.5367  0.6114
  257MOL0     C33857   3.561   4.082   8.410 -0.0439  1.5895  0.5404
  257MOL0     C33858   3.437   4.009   8.412 -0.1301  0.7031 -0.8688
  257MOL0     H33859   3.186   3.569   8.736  1.2320  2.1477 -0.8952
  257MOL0     H33860   2.980   3.422   8.704 -2.8500  0.3157  1.0959
  257MOL0     H33861   2.616   3.648   8.544  3.3676  0.6386  0.5655
  257MOL0     H33862   2.559   3.475   8.559  0.8219 -0.2354  0.3447
  257MOL0     H33863   2.737   3.608   8.351 -2.9375  1.4698 -1.5383
  257MOL0     H33864   2.580   3.552   8.328 -1.1422 -0.0435  1.9797
  257MOL0     H33865   2.801   3.352   8.414 -0.5491  0.4582 -0.0636
  257MOL0     H33866   2.737   3.360   8.248 -0.6893 -1.1648 -0.4685
  257MOL0     H33867   2.645   3.178   8.370  0.2427  0.2543 -3.1387
  257MOL0     H33868   2.566   3.282   8.487 -0.7117 -3.1066 -0.5647
  257MOL0     H33869   2.543   3.285   8.173  1.8935 -2.8449  1.2143
  257MOL0     H33870   2.433   3.373   8.268  0.5564 -0.0991 -0.9560
  257MOL0     H33871   2.358   3.147   8.379 -1.2587  1.1836 -0.9319
  257MOL0     H33872   2.463   3.056   8.260 -1.3323 -0.6957 -0.6500
  257MOL0     H33873   2.217   3.220   8.211 -1.2201  0.9259 -4.6956
  257MOL0     H33874   2.322   3.157   8.079  0.6105 -2.0508  0.2281
  257MOL0     H33875   2.177   2.983   8.290 -2.6270  0.3602 -1.2363
  257MOL0     H33876   2.288   2.927   8.156 -1.6370  0.0589 -0.2254
  257MOL0     H33877   1.942   2.967   8.241 -0.6146  6.6213  1.5250
  257MOL0     H33878   1.726   2.890   7.980  0.2291 -0.8236  2.1259
  257MOL0     H33879   1.724   3.070   7.942 -1.0688 -0.7613 -0.7735
  257MOL0     H33880   1.702   3.085   8.195  0.4070 -0.4684  0.6647
  257MOL0     H33881   1.661   2.918   8.201  2.1877 -0.0002  0.9738
  257MOL0     H33882   1.444   3.037   8.192 -0.7188 -0.2712  0.0251
  257MOL0     H33883   1.488   3.107   8.031 -2.3897 -0.0978  0.3439
  257MOL0     H33884   1.479   2.813   8.096 -0.6014 -1.5067 -1.2348
  257MOL0     H33885   1.484   2.889   7.929 -2.0509  0.2032 -0.8255
  257MOL0     H33886   1.060   2.943   8.012 -1.2223  0.3500 -2.5747
  257MOL0     H33887   0.898   2.773   7.993 -0.3432  1.4276  1.4073
  257MOL0     H33888   0.721   2.376   8.198  1.4937 -1.9805 -0.2430
  257MOL0     H33889   0.498   2.257   8.189 -3.1044 -1.1054 -1.2983
  257MOL0     H33890   0.407   2.106   7.780 -0.8469 -3.0530 -0.0710
  257MOL0     H33891   0.271   2.217   7.787 -0.4217  0.2529  0.3728
  257MOL0     H33892   0.269   1.958   7.956  1.5636 -0.8149  0.2178
  257MOL0     H33893   0.236   1.961   7.782  0.8354 -2.3330  1.5018
  257MOL0     H33894   0.053   2.130   7.819 -5.7194 -0.5707  2.2081
  257MOL0     H33895   0.100   2.129   7.989  0.2207 -1.8927  0.9290
  257MOL0     H33896   0.021   1.873   7.865 -0.9681 -1.5476  0.7847
  257MOL0     H33897   0.049   1.917   8.034 -2.1546  0.6854  1.6485
  257MOL0     H33898  -0.190   1.992   7.850 -0.8727  2.2461  0.3095
  257MOL0     H33899  -0.186   2.074   7.992 -1.9019  0.4519 -2.4120
  257MOL0     H33900  -0.201   1.874   8.130  2.1832  0.8439 -1.2451
  257MOL0     H33901  -0.188   1.763   8.003 -0.0747 -1.0698  2.7958
  257MOL0     H33902  -0.424   1.862   8.095  0.8011 -1.5144  0.8862
  257MOL0     H33903  -0.421   1.952   7.945  0.3763  0.7688  0.2913
  257MOL0     H33904  -0.519   1.711   7.893  1.3037 -3.0518 -3.1269
  257MOL0     H33905  -0.381   1.647   7.971  2.5714  0.3047  0.3454
  257MOL0     H33906   0.500   2.317   7.762  2.6198 -0.3687 -0.6214
  257MOL0     H33907   0.685   2.481   7.790  2.2601 -0.3482  0.0860
  257MOL0     H33908   1.216   2.479   7.973  1.4753  0.6525  0.9764
  257MOL0     H33909   1.383   2.665   7.968  0.5227  2.1086  4.1586
  257MOL0     H33910   2.783   3.755   8.514  2.9356  0.6970 -4.9266
  257MOL0     H33911   2.980   3.898   8.559  0.5455  0.2043  2.6839
  257MOL0     H33912   3.476   3.831   8.700 -0.7786 -0.3483 -0.1540
  257MOL0     H33913   3.678   3.970   8.719  0.6484 -0.2787  0.6174
  257MOL0     H33914   3.858   4.084   8.693  0.7241 -1.1698 -0.4326
  257MOL0     H33915   3.814   4.249   8.654  0.4776 -1.2942  1.6463
  257MOL0     H33916   3.967   4.248   8.459 -3.9014  0.1889  0.8061
  257MOL0     H33917   4.034   4.271   8.628  0.9568  0.3429 -0.9090
  257MOL0     H33918   4.025   4.012   8.486  2.6690 -3.1667  0.3120
  257MOL0     H33919   4.073   4.041   8.652  0.1856  2.0071  0.9176
  257MOL0     H33920   4.289   4.042   8.467  0.0535  0.4243 -4.4739
  257MOL0     H33921   4.194   4.171   8.396  1.0949 -0.3054  0.2096
  257MOL0     H33922   4.423   4.355   8.689 -1.8059  0.7441  1.2655
  257MOL0     H33923   3.585   4.141   8.322 -4.1661 -0.6676 -2.4605
  257MOL0     H33924   3.367   4.016   8.330  0.4124  1.2434 -1.2995
  258MOL0     O33925  10.931   3.004  11.255  0.1531  0.4688  0.4302
  258MOL0     C33926  10.970   2.913  11.180  0.2300 -0.5089 -0.2907
  258MOL0     O33927  10.898   2.806  11.152 -0.4946  0.3783  0.4302
  258MOL0     C33928  10.760   2.804  11.178 -0.5527  0.1578 -0.0205
  258MOL0     C33929  10.700   2.713  11.264 -0.3385 -0.9499  1.6431
  258MOL0     C33930  10.562   2.711  11.284  0.2199 -0.1336  0.8308
  258MOL0     C33931  10.477   2.791  11.212  0.2097 -1.6958 -0.5045
  258MOL0     O33932  10.336   2.779  11.233  0.1389  0.2016  0.6316
  258MOL0     C33933  10.244   2.873  11.178  0.6106 -0.4436 -0.0658
  258MOL0     C33934  10.104   2.824  11.219 -0.2233 -0.3726 -0.0684
  258MOL0     C33935   9.990   2.924  11.194 -0.8334  0.5560 -0.0907
  258MOL0     C33936   9.845   2.870  11.214 -0.2894  1.1789 -0.1976
  258MOL0     C33937   9.790   2.892  11.356  0.3597  0.0123 -0.2177
  258MOL0     C33938   9.635   2.865  11.365  0.1134  0.0169  0.1268
  258MOL0     C33939   9.595   2.927  11.498  0.2451 -0.3258 -0.1514
  258MOL0     C33940   9.447   2.904  11.530  0.2381  0.6543  0.3493
  258MOL0     N33941   9.368   3.020  11.527 -0.4939 -0.6065 -0.3634
  258MOL0     C33942   9.338   3.089  11.418  0.3115 -0.1821  0.0333
  258MOL0     C33943   9.254   3.178  11.477 -0.2922 -0.0834  0.0813
  258MOL0     C33944   9.184   3.288  11.398 -0.6669  0.4895 -0.0061
  258MOL0     C33945   9.037   3.286  11.388  0.4812  0.5019 -0.0918
  258MOL0     C33946   8.985   3.156  11.315  0.0593 -0.1197  0.6885
  258MOL0     C33947   8.841   3.169  11.262  0.5095 -0.2778 -0.0680
  258MOL0     O33948   8.819   3.057  11.183  0.0223 -0.0349  0.2245
  258MOL0     C33949   8.691   3.047  11.136 -0.1825  0.2529 -0.5947
  258MOL0     C33950   8.628   2.925  11.155  0.3928  0.4517 -0.1724
  258MOL0     C33951   8.497   2.900  11.097 -0.3341  0.0460  0.7166
  258MOL0     C33952   8.431   3.006  11.025  0.3435  0.1112  0.0566
  258MOL0     C33953   8.295   2.989  10.961 -0.3957  0.5046 -0.0910
  258MOL0     O33954   8.245   2.868  10.980  1.4419  0.5422 -0.3395
  258MOL0     C33955   8.132   2.832  10.911  0.0090 -0.0115 -0.2966
  258MOL0     C33956   8.136   2.729  10.822 -0.1492 -0.0576 -0.2074
  258MOL0     C33957   8.023   2.699  10.749 -0.4771  1.0189  0.2449
  258MOL0     C33958   7.902   2.768  10.768  0.5340  0.0337  0.4013
  258MOL0     O33959   7.784   2.749  10.697 -0.0513 -0.3098 -0.0323
  258MOL0     C33960   7.784   2.667  10.587 -0.2542  0.2316  1.3362
  258MOL0     C33961   7.652   2.673  10.513 -0.7731 -1.0573  0.4824
  258MOL0     C33962   7.536   2.597  10.573  0.0193 -0.4780 -0.4385
  258MOL0     C33963   7.407   2.620  10.490 -0.4422  1.2067 -0.3548
  258MOL0     C33964   7.298   2.541  10.549  0.1025  0.4578  0.6705
  258MOL0     C33965   7.281   2.533  10.695 -0.3374 -0.2313 -0.1195
  258MOL0     C33966   7.144   2.496  10.743 -0.5014 -0.0450  0.1743
  258MOL0     C33967   7.112   2.348  10.736 -0.5129  0.0612 -0.6927
  258MOL0    Cl33968   6.958   2.326  10.821  0.0019 -0.3641  0.3450
  258MOL0     C33969   7.894   2.859  10.869 -0.4346  0.8290 -0.6456
  258MOL0     C33970   8.008   2.893  10.941 -0.0681  0.3355 -0.0668
  258MOL0     O33971   8.252   3.076  10.877  0.0749 -0.4900 -0.3234
  258MOL0     C33972   8.501   3.116  10.988  0.2381  0.5297 -0.1202
  258MOL0     C33973   8.629   3.136  11.048 -0.6404 -0.0856 -0.4533
  258MOL0     N33974   9.244   3.167  11.610  0.0300  0.2978 -0.4717
  258MOL0     N33975   9.313   3.068  11.643  0.2288  0.0121 -0.3175
  258MOL0     C33976  10.545   2.898  11.138 -0.2296  0.1575  0.4500
  258MOL0     C33977  10.680   2.907  11.120 -0.7059  0.5405  0.8975
  258MOL0     C33978  11.109   2.906  11.123 -0.1239 -1.1978 -0.4389
  258MOL0     C33979  11.201   3.008  11.145  0.7866  0.3550 -0.3262
  258MOL0     C33980  11.326   3.011  11.078 -0.8917 -0.7212  0.7395
  258MOL0     C33981  11.363   2.912  10.987 -0.0168  0.6751  0.1009
  258MOL0     O33982  11.491   2.895  10.929 -0.5270  0.7976 -1.0399
  258MOL0     C33983  11.597   2.966  10.994  0.0360  0.2970  0.3769
  258MOL0     C33984  11.731   2.905  10.943 -0.2895  0.9117  0.4057
  258MOL0     C33985  11.854   2.991  10.963 -0.0014 -0.6028 -0.2111
  258MOL0     C33986  11.877   3.020  11.113 -0.2759  0.0879 -0.7090
  258MOL0     C33987  12.002   3.093  11.123  1.0212  0.8906 -0.5520
  258MOL0     C33988  12.112   3.144  11.132 -0.8040  0.1341 -0.4825
  258MOL0     C33989  11.264   2.809  10.969 -0.1459  0.2684 -0.6554
  258MOL0     C33990  11.142   2.800  11.037 -1.2293  0.2969  0.4979
  258MOL0     H33991  10.769   2.638  11.301  0.9114 -0.1750  0.9920
  258MOL0     H33992  10.526   2.633  11.349  0.0556 -2.3386 -1.7189
  258MOL0     H33993  10.256   2.873  11.069 -2.7623 -1.2415 -0.5539
  258MOL0     H33994  10.256   2.974  11.216 -0.2886 -0.4657  0.3080
  258MOL0     H33995  10.113   2.799  11.325  1.4977 -1.5181 -0.4273
  258MOL0     H33996  10.070   2.733  11.169 -0.3691 -0.2499 -0.1930
  258MOL0     H33997  10.012   2.968  11.096  4.7599 -1.5118 -0.1613
  258MOL0     H33998   9.989   3.011  11.261 -2.8429 -1.5843  2.8938
  258MOL0     H33999   9.777   2.912  11.140 -0.5598  1.4284  0.1868
  258MOL0     H34000   9.841   2.760  11.209  2.5714  0.7860  2.5606
  258MOL0     H34001   9.809   2.996  11.383 -1.6332  0.5966 -0.9251
  258MOL0     H34002   9.839   2.829  11.431 -2.4653 -1.5701  0.4491
  258MOL0     H34003   9.611   2.759  11.358  2.3159 -0.4408 -2.1618
  258MOL0     H34004   9.578   2.907  11.281 -2.0411 -1.2925  0.8489
  258MOL0     H34005   9.644   2.882  11.585  0.9481  0.2234 -0.2531
  258MOL0     H34006   9.623   3.032  11.498 -0.0919 -0.2290 -0.5795
  258MOL0     H34007   9.436   2.848  11.623  2.9923  1.4344  1.2361
  258MOL0     H34008   9.402   2.841  11.452  0.5734 -0.0549  0.7164
  258MOL0     H34009   9.381   3.072  11.319  1.7661  0.5423  0.5037
  258MOL0     H34010   9.223   3.289  11.296  0.5837  0.9472  0.4609
  258MOL0     H34011   9.223   3.379  11.445 -0.6946 -0.1245  1.2445
  258MOL0     H34012   9.001   3.376  11.337  3.5199  2.3451  0.7524
  258MOL0     H34013   8.996   3.291  11.490 -1.2427 -0.2254 -0.7042
  258MOL0     H34014   9.041   3.151  11.221 -0.3854 -2.3399  0.4918
  258MOL0     H34015   9.006   3.068  11.375  0.5641  1.9281  3.7692
  258MOL0     H34016   8.843   3.262  11.204  1.6461 -1.6539 -2.3867
  258MOL0     H34017   8.768   3.167  11.343  2.1895  0.9828  1.5914
  258MOL0     H34018   8.680   2.857  11.222 -1.9701 -1.0975  0.1923
  258MOL0     H34019   8.456   2.801  11.114 -0.1098 -0.2805 -0.5400
  258MOL0     H34020   8.229   2.681  10.795  2.5565  2.3726  3.7341
  258MOL0     H34021   8.030   2.614  10.682  2.3832  1.5611 -0.2484
  258MOL0     H34022   7.794   2.561  10.612  1.0309  0.8114  3.6886
  258MOL0     H34023   7.860   2.703  10.516 -2.2162  0.2776 -0.8397
  258MOL0     H34024   7.675   2.634  10.413 -0.9105 -0.5313  0.2446
  258MOL0     H34025   7.626   2.779  10.515 -0.0745 -0.8852  0.7375
  258MOL0     H34026   7.523   2.633  10.676  2.3499  2.1337 -0.9417
  258MOL0     H34027   7.558   2.490  10.584  1.3688 -0.0033  2.6531
  258MOL0     H34028   7.370   2.723  10.495 -5.3463 -0.2744 -0.6603
  258MOL0     H34029   7.426   2.589  10.387  0.5556  1.7703 -0.3604
  258MOL0     H34030   7.314   2.437  10.519 -0.2802  0.4229  0.5810
  258MOL0     H34031   7.209   2.577  10.497 -0.9988  0.7641  2.6759
  258MOL0     H34032   7.312   2.631  10.735  0.1774 -0.3414 -0.2435
  258MOL0     H34033   7.357   2.467  10.737  0.5313  1.9768  1.9986
  258MOL0     H34034   7.131   2.534  10.845  0.2171 -0.1386  0.3024
  258MOL0     H34035   7.073   2.532  10.668 -0.8853 -4.6151 -2.0437
  258MOL0     H34036   7.189   2.298  10.795 -1.9854 -0.0970  1.1651
  258MOL0     H34037   7.103   2.296  10.640  1.2045  0.6758 -1.2235
  258MOL0     H34038   7.803   2.912  10.893  0.9980  3.7569 -1.2398
  258MOL0     H34039   8.005   2.973  11.013  0.5337  0.8951 -0.6454
  258MOL0     H34040   8.468   3.193  10.918  2.1080 -0.1739 -1.8615
  258MOL0     H34041   8.692   3.221  11.023 -0.3910  1.2637  3.8855
  258MOL0     H34042  10.483   2.964  11.079  1.1905  1.0122 -0.1155
  258MOL0     H34043  10.734   2.978  11.059  0.9624 -1.8714 -0.6275
  258MOL0     H34044  11.174   3.082  11.218  0.0182 -1.5698  1.4253
  258MOL0     H34045  11.405   3.083  11.097 -0.1830 -0.5681 -2.3175
  258MOL0     H34046  11.589   2.956  11.103 -1.4856 -1.0107  0.1843
  258MOL0     H34047  11.602   3.073  10.972 -0.3458  0.2789  0.2042
  258MOL0     H34048  11.742   2.812  11.000 -0.6870  1.8204  2.0114
  258MOL0     H34049  11.735   2.879  10.836 -1.7725  0.0755  0.5305
  258MOL0     H34050  11.840   3.087  10.913  1.5113  0.1363  0.7201
  258MOL0     H34051  11.943   2.944  10.919  0.6560  0.8268 -0.4559
  258MOL0     H34052  11.794   3.073  11.161  0.4615 -0.5568  1.4178
  258MOL0     H34053  11.889   2.929  11.172  0.8380  1.5374  1.4261
  258MOL0     H34054  12.211   3.184  11.139 -1.2270  1.2393 -0.4756
  258MOL0     H34055  11.283   2.725  10.903  0.3066 -1.2838  1.3298
  258MOL0     H34056  11.082   2.712  11.015  1.6308 -2.3183  2.2921
  259MOL0     O34057   3.473   3.067  10.939  0.5865 -0.2041  0.2376
  259MOL0     C34058   3.487   2.954  10.973  0.4791  0.2199  0.2061
  259MOL0     O34059   3.385   2.872  11.018  0.6709 -0.0473  0.3174
  259MOL0     C34060   3.266   2.931  11.032 -0.4583 -1.1399  0.1804
  259MOL0     C34061   3.228   2.974  11.157 -0.1824  0.1814  0.2055
  259MOL0     C34062   3.111   3.038  11.195 -0.6639 -0.1506  0.0768
  259MOL0     C34063   3.024   3.064  11.090  0.5389 -0.0064 -0.3332
  259MOL0     O34064   2.892   3.117  11.129  0.3848 -0.2852  0.2490
  259MOL0     C34065   2.869   3.172  11.261  0.6390 -0.2460 -0.3633
  259MOL0     C34066   2.794   3.064  11.353  0.0498 -0.3640 -0.0781
  259MOL0     C34067   2.653   3.120  11.394  0.1006  1.0772  0.9729
  259MOL0     C34068   2.559   3.007  11.443  0.8187 -0.4272 -0.4573
  259MOL0     C34069   2.435   3.074  11.504 -0.3367  0.7637  0.5832
  259MOL0     C34070   2.350   2.967  11.574 -0.1978  0.7819  0.1636
  259MOL0     C34071   2.208   3.034  11.606 -1.0344  0.5263  0.8279
  259MOL0     C34072   2.118   2.950  11.690 -0.3244 -0.1047  0.5539
  259MOL0     N34073   1.989   3.005  11.702 -0.6005  0.5114  0.0520
  259MOL0     C34074   1.882   2.998  11.616  0.8114 -0.0024 -0.1137
  259MOL0     C34075   1.794   3.092  11.664  0.1164  0.6813  0.5015
  259MOL0     C34076   1.666   3.134  11.596 -0.5100 -0.4242  0.0272
  259MOL0     C34077   1.539   3.071  11.655  0.4777  0.3439 -0.2419
  259MOL0     C34078   1.516   3.102  11.806 -0.4516 -0.7504 -0.6076
  259MOL0     C34079   1.431   3.011  11.890 -0.3943 -0.0673  0.4814
  259MOL0     O34080   1.293   3.024  11.862  0.6638  0.1815  0.0475
  259MOL0     C34081   1.204   2.917  11.881  0.3017  0.4832  0.0066
  259MOL0     C34082   1.069   2.954  11.882  0.0360  0.3181 -0.2133
  259MOL0     C34083   0.972   2.867  11.914 -0.1955 -1.0727 -0.7822
  259MOL0     C34084   1.002   2.742  11.964  0.3070 -0.3591 -0.5007
  259MOL0     C34085   0.899   2.635  11.996 -0.3715  0.2490 -1.0859
  259MOL0     O34086   0.764   2.661  11.980  0.2751  0.1324 -0.2388
  259MOL0     C34087   0.677   2.565  12.032 -0.0722 -1.0947 -0.3177
  259MOL0     C34088   0.574   2.601  12.122  1.0538 -0.3849  0.4902
  259MOL0     C34089   0.474   2.514  12.153 -0.4777 -0.0031  0.0969
  259MOL0     C34090   0.477   2.385  12.110  0.6630  0.0009 -0.1331
  259MOL0     O34091   0.372   2.315  12.164 -1.0409  0.6973  0.5699
  259MOL0     C34092   0.363   2.169  12.140  0.1145  0.1269 -0.3625
  259MOL0     C34093   0.258   2.095  12.231 -0.0752  0.1933  0.4077
  259MOL0     C34094   0.288   2.112  12.379 -0.6222 -0.2391 -0.2636
  259MOL0     C34095   0.206   2.016  12.468  0.4440 -0.0454  0.1980
  259MOL0     C34096   0.231   2.053  12.612 -0.1554 -0.0845  0.2153
  259MOL0     C34097   0.131   1.985  12.698 -0.2345  0.0339 -0.3432
  259MOL0     C34098   0.189   1.978  12.837  0.2754  0.0242 -0.3747
  259MOL0     C34099   0.079   1.934  12.939 -0.3233  0.1181 -0.1560
  259MOL0    Cl34100   0.169   1.881  13.087 -0.1048  0.3040 -0.4091
  259MOL0     C34101   0.578   2.343  12.022  1.4043  0.3420 -0.0194
  259MOL0     C34102   0.671   2.433  11.984  0.4608 -0.9118 -0.6134
  259MOL0     O34103   0.945   2.530  12.038 -0.6378 -0.2938  0.4693
  259MOL0     C34104   1.143   2.699  11.973 -0.1853 -0.8831 -0.8642
  259MOL0     C34105   1.238   2.793  11.937 -0.9062 -0.6803  0.9272
  259MOL0     N34106   1.850   3.143  11.783  0.5959  0.3049  1.2621
  259MOL0     N34107   1.964   3.080  11.804  0.2839  0.4965 -0.4273
  259MOL0     C34108   3.055   3.023  10.953 -0.2774 -0.2223 -1.1361
  259MOL0     C34109   3.173   2.951  10.925  0.4331 -0.5427 -0.4390
  259MOL0     C34110   3.628   2.898  10.975 -0.6856  0.1881  0.0135
  259MOL0     C34111   3.657   2.766  11.010 -0.0636 -0.4441  0.4696
  259MOL0     C34112   3.787   2.718  11.001  0.2283 -0.0889 -0.8590
  259MOL0     C34113   3.898   2.803  10.970  0.1018 -0.0141 -0.4258
  259MOL0     O34114   4.023   2.753  10.967  0.0019  0.0825 -0.2679
  259MOL0     C34115   4.055   2.670  11.080 -0.6995  0.9973 -0.0969
  259MOL0     C34116   4.194   2.610  11.057 -0.0941 -0.1055 -0.5914
  259MOL0     C34117   4.306   2.713  11.022 -0.4939  0.4581 -0.1717
  259MOL0     C34118   4.444   2.653  11.006 -0.3656 -0.5290  0.7634
  259MOL0     C34119   4.430   2.549  10.904  0.1716  0.6734  0.3035
  259MOL0     C34120   4.404   2.468  10.810 -0.2239 -0.1825 -0.0423
  259MOL0     C34121   3.867   2.937  10.954 -0.6054  0.3210  0.3256
  259MOL0     C34122   3.737   2.979  10.949  0.0159 -0.7811 -0.3757
  259MOL0     H34123   3.296   2.957  11.240 -1.2835  2.7525  1.7719
  259MOL0     H34124   3.096   3.062  11.299  1.9511  1.1941  0.2405
  259MOL0     H34125   2.807   3.260  11.239  0.2672 -0.2822  0.5067
  259MOL0     H34126   2.954   3.204  11.322 -0.7976  1.0829  1.0421
  259MOL0     H34127   2.857   3.037  11.439  1.7101 -2.7624 -1.8846
  259MOL0     H34128   2.788   2.972  11.295 -0.0788  0.1086 -0.8218
  259MOL0     H34129   2.599   3.172  11.316  1.7151 -1.2080 -1.8859
  259MOL0     H34130   2.675   3.185  11.479  0.5727  1.9991  0.1680
  259MOL0     H34131   2.523   2.948  11.358  1.0862 -0.7634 -0.3428
  259MOL0     H34132   2.605   2.949  11.524 -1.6792  1.6740  2.7143
  259MOL0     H34133   2.381   3.126  11.424 -1.5272  0.0987  0.9409
  259MOL0     H34134   2.457   3.154  11.576 -2.8869  1.6412  0.4807
  259MOL0     H34135   2.402   2.925  11.661  1.2243 -1.4407 -1.6368
  259MOL0     H34136   2.349   2.874  11.515  3.7250  0.6455  0.0724
  259MOL0     H34137   2.229   3.128  11.658 -1.9899  2.3804 -1.9339
  259MOL0     H34138   2.158   3.061  11.513  0.1539 -2.7274 -0.9038
  259MOL0     H34139   2.176   2.929  11.780  0.1480 -0.8396  0.0898
  259MOL0     H34140   2.107   2.856  11.634  0.4795 -0.9464  1.7756
  259MOL0     H34141   1.885   2.931  11.531  0.0525 -2.4844  1.7098
  259MOL0     H34142   1.677   3.123  11.488  2.4602  1.8941 -0.0143
  259MOL0     H34143   1.655   3.239  11.625  0.0052 -0.3393 -0.0893
  259MOL0     H34144   1.558   2.963  11.647 -0.9963  0.1806 -2.6750
  259MOL0     H34145   1.455   3.098  11.590  0.7862  0.3188 -0.6529
  259MOL0     H34146   1.612   3.108  11.857 -0.1609  2.3321 -1.3141
  259MOL0     H34147   1.477   3.204  11.811 -0.7516 -0.8935  3.1931
  259MOL0     H34148   1.448   3.035  11.996 -1.0866 -4.1913  1.7235
  259MOL0     H34149   1.471   2.911  11.868  3.5059  1.5899 -0.8250
  259MOL0     H34150   1.051   3.059  11.860  1.8125  0.5537 -0.7045
  259MOL0     H34151   0.870   2.902  11.908 -0.9360 -2.5753  1.8397
  259MOL0     H34152   0.559   2.706  12.143  0.4988 -0.5347  0.8430
  259MOL0     H34153   0.386   2.541  12.210 -1.5718  0.2502 -1.6452
  259MOL0     H34154   0.460   2.121  12.154  0.1437 -0.1731 -1.4714
  259MOL0     H34155   0.336   2.148  12.036 -0.3382 -0.1914 -0.1832
  259MOL0     H34156   0.246   1.989  12.208 -1.9783  0.7932 -1.8221
  259MOL0     H34157   0.161   2.146  12.223 -1.8352 -2.6137  2.2234
  259MOL0     H34158   0.275   2.220  12.394  3.4320  0.5350 -1.0755
  259MOL0     H34159   0.396   2.093  12.386 -0.7390 -0.5872  0.8917
  259MOL0     H34160   0.100   2.031  12.443  0.6592  1.3517  0.0237
  259MOL0     H34161   0.226   1.913  12.437  1.6803  0.7649 -1.8869
  259MOL0     H34162   0.239   2.162  12.626  0.2825  0.1239 -1.4766
  259MOL0     H34163   0.330   2.015  12.637  0.4569  1.5038  0.3165
  259MOL0     H34164   0.120   1.884  12.657  0.4863 -0.7662  1.3636
  259MOL0     H34165   0.036   2.040  12.700  0.6631  1.7950 -2.2398
  259MOL0     H34166   0.273   1.908  12.840  1.6894  1.6712  0.5027
  259MOL0     H34167   0.224   2.080  12.857  2.1487  0.0047 -3.0412
  259MOL0     H34168   0.016   1.854  12.898  2.2306 -1.6733 -0.8617
  259MOL0     H34169   0.006   2.011  12.962 -0.4630 -0.4057  1.2129
  259MOL0     H34170   0.562   2.242  11.987 -1.5284  0.0395  1.8444
  259MOL0     H34171   0.754   2.407  11.918 -0.2031 -1.0696 -1.3946
  259MOL0     H34172   1.184   2.603  12.004  1.2207 -1.0306 -2.9738
  259MOL0     H34173   1.343   2.765  11.936 -0.5842  0.4469 -0.8140
  259MOL0     H34174   2.985   3.066  10.882 -1.4941  1.8982  1.1608
  259MOL0     H34175   3.194   2.934  10.820  3.6431 -1.5253  0.2460
  259MOL0     H34176   3.579   2.705  11.055 -0.0435 -1.8327 -1.2600
  259MOL0     H34177   3.806   2.613  11.016 -0.5810 -0.2178 -0.6838
  259MOL0     H34178   3.983   2.590  11.097 -1.7663  2.3626  2.4821
  259MOL0     H34179   4.051   2.715  11.180  0.0466 -1.1517  0.9664
  259MOL0     H34180   4.225   2.558  11.148  0.4005 -1.1130 -1.3188
  259MOL0     H34181   4.182   2.545  10.969 -0.2060  0.0615 -0.7011
  259MOL0     H34182   4.307   2.797  11.093  2.1153  0.7610 -0.4664
  259MOL0     H34183   4.277   2.756  10.926 -0.4751  0.7077 -0.0660
  259MOL0     H34184   4.522   2.729  10.994 -3.5414  2.8922  0.1112
  259MOL0     H34185   4.473   2.606  11.100 -1.2389 -1.6289  0.5089
  259MOL0     H34186   4.403   2.387  10.740  0.5804 -2.1712  2.0916
  259MOL0     H34187   3.949   3.008  10.940 -2.0447  1.7567 -1.3436
  259MOL0     H34188   3.706   3.083  10.953  0.1376 -0.7780  0.6712
  260MOL0     O34189   9.753   4.902   2.475  0.1173 -0.3009 -0.1414
  260MOL0     C34190   9.802   5.011   2.448 -0.3043 -0.6596  0.4050
  260MOL0     O34191   9.731   5.125   2.432 -0.0322  0.0558  0.0407
  260MOL0     C34192   9.601   5.123   2.483 -1.2680  0.5556  0.9742
  260MOL0     C34193   9.505   5.082   2.394 -0.5180 -1.1193 -0.4057
  260MOL0     C34194   9.373   5.078   2.436 -0.1141  0.0785 -0.3587
  260MOL0     C34195   9.341   5.136   2.565  1.1406 -0.9886  1.0014
  260MOL0     O34196   9.211   5.147   2.608  0.1626 -0.6992  0.1624
  260MOL0     C34197   9.115   5.074   2.540 -0.1498 -0.3021 -0.4816
  260MOL0     C34198   8.986   5.092   2.621  0.7558  0.2838  0.1572
  260MOL0     C34199   8.862   5.056   2.546 -0.2633  0.0437  0.1138
  260MOL0     C34200   8.858   4.906   2.520  0.4199 -0.2603 -0.4367
  260MOL0     C34201   8.722   4.862   2.477  0.8581 -0.4349 -0.4598
  260MOL0     C34202   8.681   4.899   2.337  0.0877 -0.4153 -0.3059
  260MOL0     C34203   8.545   4.845   2.310  0.0412 -0.1874 -1.0038
  260MOL0     C34204   8.430   4.942   2.360 -0.9976 -0.0120  0.0217
  260MOL0     N34205   8.310   4.861   2.393  0.0116  0.2006 -0.0352
  260MOL0     C34206   8.279   4.801   2.516  0.8993  0.6230  0.8776
  260MOL0     C34207   8.154   4.758   2.501  0.4433  0.2219  0.0174
  260MOL0     C34208   8.075   4.683   2.605  0.1284 -0.1119  0.0711
  260MOL0     C34209   8.004   4.775   2.700  0.9337  0.1491 -0.6767
  260MOL0     C34210   8.006   4.735   2.844 -0.3460  0.6841 -0.0577
  260MOL0     C34211   8.143   4.694   2.901 -0.0580 -0.0353 -0.2772
  260MOL0     O34212   8.243   4.783   2.862 -0.1909 -0.7362  0.1492
  260MOL0     C34213   8.370   4.755   2.896 -0.2569 -1.0521  0.0864
  260MOL0     C34214   8.406   4.646   2.971 -0.0445  0.2841 -0.0213
  260MOL0     C34215   8.538   4.617   2.993 -1.2452  0.0478  0.7230
  260MOL0     C34216   8.643   4.705   2.946  0.3085 -0.1279  0.4586
  260MOL0     C34217   8.777   4.672   2.982 -1.1729  0.4672  0.5323
  260MOL0     O34218   8.800   4.578   3.081  0.2554  0.4039  0.0388
  260MOL0     C34219   8.928   4.528   3.116  0.2144  0.2479 -0.5691
  260MOL0     C34220   8.931   4.426   3.217  0.1402 -0.5492 -0.8558
  260MOL0     C34221   9.052   4.365   3.253  0.7201  0.7829 -0.4065
  260MOL0     C34222   9.168   4.399   3.199 -0.2981 -0.9732 -0.4884
  260MOL0     O34223   9.291   4.349   3.231  0.2583  0.1948 -0.4523
  260MOL0     C34224   9.300   4.295   3.361  0.3261  0.3699 -1.0034
  260MOL0     C34225   9.443   4.271   3.407  0.4562  0.9356 -0.4202
  260MOL0     C34226   9.515   4.173   3.316 -0.3511  0.4257  0.8443
  260MOL0     C34227   9.644   4.135   3.380  0.0246 -0.7342 -0.3021
  260MOL0     C34228   9.725   4.030   3.293 -0.1710 -0.0715 -0.1294
  260MOL0     C34229   9.865   4.022   3.341 -0.6039  0.6647 -0.3127
  260MOL0     C34230   9.899   4.002   3.484 -0.0221  0.2199 -0.5183
  260MOL0     C34231  10.040   3.951   3.503 -1.1826  0.1782 -0.1406
  260MOL0    Cl34232  10.055   3.792   3.441  0.2353  0.4329  0.3953
  260MOL0     C34233   9.170   4.504   3.103  0.0282  0.2113  0.2506
  260MOL0     C34234   9.051   4.561   3.062  0.5424 -1.0397  0.4134
  260MOL0     O34235   8.865   4.744   2.924 -0.9416  0.9299 -0.2164
  260MOL0     C34236   8.605   4.806   2.857  0.6280 -0.3541 -0.3774
  260MOL0     C34237   8.469   4.837   2.840  0.4301 -0.4178 -0.0537
  260MOL0     N34238   8.115   4.797   2.371  0.0437  0.0739 -0.4166
  260MOL0     N34239   8.210   4.851   2.308  0.0244 -0.1026  0.4279
  260MOL0     C34240   9.437   5.196   2.644  0.0690  0.1208 -0.3669
  260MOL0     C34241   9.566   5.184   2.601 -0.0071  0.0148  0.5509
  260MOL0     C34242   9.948   5.020   2.425 -0.3035  0.3470 -0.4914
  260MOL0     C34243  10.025   4.909   2.419 -0.2016  0.3194 -0.4546
  260MOL0     C34244  10.166   4.926   2.419  0.2750  0.0381 -0.5583
  260MOL0     C34245  10.229   5.051   2.423  0.4118 -0.6991  0.4499
  260MOL0     O34246  10.368   5.078   2.425  0.8353 -0.0346 -0.0011
  260MOL0     C34247  10.455   4.963   2.444  0.2771 -0.2552 -0.4040
  260MOL0     C34248  10.491   4.905   2.304  0.2260 -0.8867  0.0053
  260MOL0     C34249  10.549   4.772   2.312  0.2219 -0.0604 -0.6359
  260MOL0     C34250  10.551   4.685   2.181 -0.4187  0.1070  0.3008
  260MOL0     C34251  10.673   4.734   2.102  0.0046 -0.2387 -0.5127
  260MOL0     C34252  10.771   4.767   2.046 -0.5824 -0.2843  0.2366
  260MOL0     C34253  10.146   5.159   2.406  0.8094  0.5126  0.2621
  260MOL0     C34254  10.005   5.144   2.422 -1.4160  0.6762  0.6730
  260MOL0     H34255   9.546   5.067   2.295 -0.3999  1.5162 -0.8309
  260MOL0     H34256   9.319   5.023   2.359  1.8965 -2.6780  0.0277
  260MOL0     H34257   9.146   4.970   2.537  1.4767  0.1665 -0.7888
  260MOL0     H34258   9.105   5.111   2.437 -1.2329 -1.2832 -0.7445
  260MOL0     H34259   8.985   5.200   2.636 -1.9982  0.3585 -0.0940
  260MOL0     H34260   8.981   5.039   2.716 -1.4440 -1.5811 -0.9076
  260MOL0     H34261   8.869   5.104   2.448  0.4138 -0.9226 -0.3281
  260MOL0     H34262   8.776   5.092   2.603 -0.0905  0.3532  0.1817
  260MOL0     H34263   8.933   4.874   2.447  1.1739  0.0810  0.1640
  260MOL0     H34264   8.891   4.852   2.610 -3.0575  0.1121  1.2307
  260MOL0     H34265   8.641   4.885   2.548 -0.1995  0.0336 -1.7812
  260MOL0     H34266   8.725   4.753   2.471 -0.0047 -0.4733 -0.3504
  260MOL0     H34267   8.756   4.864   2.266  2.7592 -0.5669  2.3857
  260MOL0     H34268   8.678   5.008   2.325  2.5100 -0.2529  0.0587
  260MOL0     H34269   8.543   4.838   2.201 -1.6490  2.6085 -1.2521
  260MOL0     H34270   8.539   4.741   2.342  1.2043 -0.6958 -2.3610
  260MOL0     H34271   8.410   5.018   2.285  0.0752  0.9077  0.6393
  260MOL0     H34272   8.461   5.001   2.447  0.7078  3.2632 -2.5977
  260MOL0     H34273   8.351   4.781   2.596 -0.9075  0.2161  2.4780
  260MOL0     H34274   8.156   4.625   2.650 -1.0447 -1.6369  0.3061
  260MOL0     H34275   8.005   4.605   2.573 -1.0599  0.5849  0.9513
  260MOL0     H34276   7.896   4.784   2.680  0.4088  1.4747  2.2017
  260MOL0     H34277   8.046   4.876   2.707 -0.7379  0.8570 -0.2130
  260MOL0     H34278   7.971   4.816   2.909 -1.6514  1.6233 -1.8529
  260MOL0     H34279   7.938   4.650   2.862 -2.2592  1.2350 -3.7172
  260MOL0     H34280   8.167   4.595   2.859 -2.8176 -1.3165  0.8622
  260MOL0     H34281   8.139   4.683   3.010 -3.5822 -2.2987 -0.4728
  260MOL0     H34282   8.330   4.582   3.014  1.4585 -0.0784  2.2910
  260MOL0     H34283   8.547   4.530   3.057  0.6219  0.4276  1.0490
  260MOL0     H34284   8.831   4.397   3.248 -0.7950  2.1454 -1.0859
  260MOL0     H34285   9.041   4.278   3.317 -2.1583  2.6139  1.8498
  260MOL0     H34286   9.243   4.202   3.362 -0.3246  0.7604 -0.6286
  260MOL0     H34287   9.255   4.355   3.441  1.1750 -0.1096 -0.1477
  260MOL0     H34288   9.439   4.223   3.505 -0.5314 -0.2664 -1.0167
  260MOL0     H34289   9.497   4.365   3.419  1.1458  0.3727  1.1435
  260MOL0     H34290   9.518   4.223   3.218 -0.1025 -0.7158  0.2478
  260MOL0     H34291   9.455   4.082   3.308  1.3729 -0.6793 -0.3916
  260MOL0     H34292   9.705   4.224   3.396  0.7813 -1.4632  0.9929
  260MOL0     H34293   9.614   4.090   3.475  0.2620  1.4716  0.8662
  260MOL0     H34294   9.719   4.047   3.185  1.4124 -0.4943 -0.3144
  260MOL0     H34295   9.676   3.938   3.324 -0.6070  0.4668  0.8066
  260MOL0     H34296   9.912   4.119   3.324 -0.8255  0.6702 -0.8960
  260MOL0     H34297   9.915   3.944   3.282  2.4956  0.1764  2.6500
  260MOL0     H34298   9.902   4.097   3.539  2.2971  1.1276 -2.0106
  260MOL0     H34299   9.828   3.938   3.537  0.9132  1.8260  2.9658
  260MOL0     H34300  10.067   3.954   3.609 -1.7662  1.7575 -0.0025
  260MOL0     H34301  10.108   4.017   3.449 -1.5504  1.3866  0.8057
  260MOL0     H34302   9.262   4.540   3.059  0.2874 -0.7915 -0.0395
  260MOL0     H34303   9.073   4.646   2.999  0.5737 -0.8987  0.6116
  260MOL0     H34304   8.679   4.870   2.810  1.3387 -0.8652  0.0403
  260MOL0     H34305   8.446   4.920   2.774 -0.5134 -0.5558  0.0897
  260MOL0     H34306   9.408   5.245   2.736  0.6327 -0.4800  0.1327
  260MOL0     H34307   9.654   5.232   2.642 -0.5729  1.4624  0.1056
  260MOL0     H34308   9.982   4.810   2.412  3.9548 -1.7069 -0.6545
  260MOL0     H34309  10.231   4.839   2.410  0.2390  0.0917 -1.4456
  260MOL0     H34310  10.411   4.892   2.515 -0.1679  1.9949  1.7078
  260MOL0     H34311  10.538   5.002   2.503 -0.4190 -0.8164  0.9853
  260MOL0     H34312  10.399   4.896   2.245 -0.8477  0.3565  1.3980
  260MOL0     H34313  10.555   4.974   2.248  1.1424 -0.2535  1.7478
  260MOL0     H34314  10.492   4.716   2.386  0.9336 -1.5600 -1.1767
  260MOL0     H34315  10.647   4.775   2.362 -0.8854  1.9585  1.6278
  260MOL0     H34316  10.566   4.578   2.194  1.0376  0.4798  2.1125
  260MOL0     H34317  10.460   4.702   2.123  0.0338  0.3594 -0.3524
  260MOL0     H34318  10.864   4.802   2.008  0.3027 -0.3255  2.2199
  260MOL0     H34319  10.186   5.258   2.383 -0.1854  0.5454 -1.5117
  260MOL0     H34320   9.941   5.231   2.420 -1.6446  0.5167 -1.2100
  261MOL0     O34321   0.510   7.152   9.466 -0.7338  0.6571 -0.5310
  261MOL0     C34322   0.498   7.272   9.491 -0.1028  0.9846  0.6681
  261MOL0     O34323   0.429   7.334   9.589 -0.7069  0.1808 -0.3867
  261MOL0     C34324   0.396   7.254   9.696 -0.8586 -1.4793 -0.1381
  261MOL0     C34325   0.265   7.245   9.727 -0.2145 -0.4980  0.7293
  261MOL0     C34326   0.217   7.175   9.840  0.1440 -0.2016 -0.8546
  261MOL0     C34327   0.298   7.108   9.930 -0.7713 -0.5139  0.8011
  261MOL0     O34328   0.232   7.043  10.038 -0.2029 -0.4678 -0.1119
  261MOL0     C34329   0.314   6.971  10.134 -0.2444 -0.6190  0.7834
  261MOL0     C34330   0.239   6.888  10.235 -0.4957  0.1550 -0.1264
  261MOL0     C34331   0.177   6.773  10.166 -0.3475 -0.0426 -0.3617
  261MOL0     C34332   0.108   6.689  10.279  0.1278  0.6652  0.0857
  261MOL0     C34333   0.132   6.539  10.277  0.3419  0.5107  0.0141
  261MOL0     C34334   0.036   6.443  10.362  0.2018  0.5411  0.4790
  261MOL0     C34335   0.060   6.303  10.300  0.6051 -0.1862  0.0764
  261MOL0     C34336   0.200   6.237  10.321 -0.0237  0.0913 -0.6593
  261MOL0     N34337   0.220   6.177  10.457 -0.4339  0.6518 -0.6279
  261MOL0     C34338   0.241   6.249  10.575  0.4477 -0.2559 -0.7396
  261MOL0     C34339   0.247   6.162  10.673 -0.1244  0.5930  0.0270
  261MOL0     C34340   0.285   6.172  10.818  0.3062 -0.1206 -0.0459
  261MOL0     C34341   0.432   6.193  10.838 -0.2969 -0.0354 -0.1106
  261MOL0     C34342   0.493   6.307  10.767  0.1256 -0.1889 -0.4037
  261MOL0     C34343   0.613   6.360  10.840  0.4829 -0.2591 -0.1240
  261MOL0     O34344   0.670   6.476  10.776 -0.1413 -0.7700 -0.2124
  261MOL0     C34345   0.791   6.466  10.715 -0.7199  0.2778 -0.8245
  261MOL0     C34346   0.856   6.348  10.676 -0.5623  0.2280 -0.9495
  261MOL0     C34347   0.974   6.358  10.611  1.1046  0.5312  1.1022
  261MOL0     C34348   1.040   6.476  10.582  0.6810 -0.5577  0.2592
  261MOL0     C34349   1.178   6.485  10.527 -1.0277 -0.0918  0.3737
  261MOL0     O34350   1.234   6.610  10.525 -0.2173 -0.4095  1.2973
  261MOL0     C34351   1.362   6.614  10.478  0.7168 -0.0220  0.6131
  261MOL0     C34352   1.396   6.611  10.338  0.9080 -0.6777  0.1365
  261MOL0     C34353   1.527   6.606  10.298 -0.2246 -0.0632  0.0677
  261MOL0     C34354   1.629   6.617  10.393  0.0150 -0.1206 -0.3737
  261MOL0     O34355   1.763   6.595  10.352  0.0663 -0.4131  0.7765
  261MOL0     C34356   1.873   6.606  10.439  0.2449 -0.1600  0.3756
  261MOL0     C34357   2.003   6.603  10.360 -0.4085  0.3961  0.8264
  261MOL0     C34358   2.019   6.472  10.273  0.0647 -0.1594 -0.0015
  261MOL0     C34359   2.129   6.485  10.161 -0.6032 -0.1598 -0.1463
  261MOL0     C34360   2.273   6.529  10.204  0.2452  0.4925  0.3593
  261MOL0     C34361   2.339   6.462  10.331  0.5773 -0.0447  0.5023
  261MOL0     C34362   2.472   6.521  10.375  0.4567 -0.7318  0.2953
  261MOL0     C34363   2.581   6.485  10.273 -0.5154  0.2556 -0.5565
  261MOL0    Cl34364   2.728   6.559  10.337 -0.0880 -0.1411  0.0500
  261MOL0     C34365   1.596   6.635  10.530 -0.1053 -0.0951  0.2154
  261MOL0     C34366   1.462   6.629  10.565 -0.0091  0.0268  0.4998
  261MOL0     O34367   1.239   6.382  10.491  0.2508  0.2944 -0.8683
  261MOL0     C34368   0.971   6.592  10.622 -0.0985 -0.2472  0.1905
  261MOL0     C34369   0.850   6.589  10.684 -0.1041  0.1010  0.3056
  261MOL0     N34370   0.243   6.034  10.624  0.1987 -0.2623 -0.3057
  261MOL0     N34371   0.227   6.045  10.490 -0.7151  0.1635 -0.2470
  261MOL0     C34372   0.441   7.110   9.892  0.7792 -0.0182 -0.2083
  261MOL0     C34373   0.489   7.186   9.777 -0.1089 -0.0190 -0.0568
  261MOL0     C34374   0.556   7.360   9.378 -0.3300  0.2210  0.5663
  261MOL0     C34375   0.541   7.499   9.389 -0.1147 -1.0574  0.3884
  261MOL0     C34376   0.590   7.586   9.291  0.1530 -0.2224  0.0886
  261MOL0     C34377   0.645   7.529   9.178 -0.3955 -0.3363  0.8337
  261MOL0     O34378   0.668   7.603   9.070 -0.2842 -0.8147  0.3163
  261MOL0     C34379   0.790   7.673   9.065  0.0568 -0.5611 -0.3779
  261MOL0     C34380   0.907   7.593   9.013 -0.3153 -0.1085  0.0019
  261MOL0     C34381   0.889   7.564   8.860 -0.0198  0.2992 -0.4929
  261MOL0     C34382   0.998   7.469   8.813 -0.0110 -0.0516  0.0172
  261MOL0     C34383   1.128   7.541   8.815 -0.3265  0.1730  0.8975
  261MOL0     C34384   1.234   7.601   8.821  0.2967  1.4194  0.2554
  261MOL0     C34385   0.660   7.396   9.164  0.0524  0.2252  0.0379
  261MOL0     C34386   0.620   7.306   9.264  0.2456 -0.1557 -0.1257
  261MOL0     H34387   0.204   7.309   9.665  1.8164  0.5387 -0.3213
  261MOL0     H34388   0.113   7.165   9.869  0.3919 -0.3976  0.0004
  261MOL0     H34389   0.375   7.045  10.187  0.5475 -2.1071  2.0298
  261MOL0     H34390   0.384   6.904  10.084 -0.8824 -0.3202 -0.5781
  261MOL0     H34391   0.165   6.950  10.287 -1.5562 -1.4418  0.3443
  261MOL0     H34392   0.303   6.847  10.314 -0.3612 -1.3323 -0.9691
  261MOL0     H34393   0.248   6.710  10.112 -0.1629 -0.4918  0.3852
  261MOL0     H34394   0.100   6.810  10.099 -1.6879 -0.5615  0.8382
  261MOL0     H34395   0.139   6.719  10.379  1.1361 -0.8972  0.2628
  261MOL0     H34396   0.001   6.714  10.274 -0.2918 -1.2118 -1.4250
  261MOL0     H34397   0.231   6.520  10.318  0.7256 -2.4942 -2.0305
  261MOL0     H34398   0.129   6.505  10.173  0.4639 -1.0228  0.4909
  261MOL0     H34399  -0.068   6.473  10.345  0.5364  1.2789 -0.3094
  261MOL0     H34400   0.052   6.455  10.469  1.5542  1.2576  0.2112
  261MOL0     H34401  -0.016   6.239  10.346  1.5418  0.8406  3.2964
  261MOL0     H34402   0.044   6.316  10.192 -1.7778  1.6369  0.5726
  261MOL0     H34403   0.284   6.306  10.313  1.4266 -1.4130  0.6023
  261MOL0     H34404   0.205   6.157  10.246 -0.4067 -1.5979  1.0473
  261MOL0     H34405   0.246   6.357  10.576  2.4759 -0.3136 -1.2045
  261MOL0     H34406   0.270   6.075  10.867 -3.8835 -1.3733 -3.2758
  261MOL0     H34407   0.234   6.256  10.865  0.0810  0.1754 -0.8202
  261MOL0     H34408   0.486   6.103  10.808  1.4887  1.1944 -0.8131
  261MOL0     H34409   0.444   6.203  10.947 -1.5015 -1.4275  0.1735
  261MOL0     H34410   0.512   6.293  10.661  5.5191 -2.3227  0.5238
  261MOL0     H34411   0.412   6.381  10.767 -1.4252 -1.7994 -1.3732
  261MOL0     H34412   0.689   6.289  10.873  1.7981  1.5341  0.9021
  261MOL0     H34413   0.593   6.411  10.935  1.7854  1.3617 -0.6592
  261MOL0     H34414   0.799   6.259  10.700  2.1750 -1.2306  0.6454
  261MOL0     H34415   1.035   6.270  10.593  0.0261 -0.4919  2.3026
  261MOL0     H34416   1.326   6.606  10.254 -0.2072  1.6882  0.8338
  261MOL0     H34417   1.538   6.620  10.190 -2.3573  0.0835 -0.1741
  261MOL0     H34418   1.882   6.524  10.511  2.8246 -0.1167  0.1995
  261MOL0     H34419   1.874   6.695  10.502  0.8018  0.9566 -1.1535
  261MOL0     H34420   2.094   6.611  10.420 -0.6340 -1.0289  1.4199
  261MOL0     H34421   1.986   6.689  10.295  0.6243 -0.8178 -1.1365
  261MOL0     H34422   1.928   6.442  10.221  0.1828 -1.4343  0.4998
  261MOL0     H34423   2.044   6.391  10.342 -0.5197  0.2457  0.6961
  261MOL0     H34424   2.146   6.387  10.116  1.2408  0.7332 -1.5004
  261MOL0     H34425   2.088   6.544  10.079  0.9535 -1.5678 -2.0381
  261MOL0     H34426   2.277   6.638  10.217  1.8674  0.5617 -0.4532
  261MOL0     H34427   2.329   6.513  10.111  0.7983  2.1697  0.3673
  261MOL0     H34428   2.358   6.357  10.307 -2.4553 -0.2881 -1.2771
  261MOL0     H34429   2.268   6.469  10.414 -0.1939 -1.0138 -0.0551
  261MOL0     H34430   2.471   6.629  10.388  1.2653 -0.8730  1.7309
  261MOL0     H34431   2.503   6.467  10.466 -1.8506 -0.9457  1.0175
  261MOL0     H34432   2.561   6.526  10.173 -0.4597  0.4085 -0.5056
  261MOL0     H34433   2.595   6.378  10.256  0.0829  0.1609  0.4401
  261MOL0     H34434   1.660   6.657  10.615  0.4751 -0.9868  0.0259
  261MOL0     H34435   1.446   6.655  10.669  0.5678  0.7453  0.4208
  261MOL0     H34436   1.018   6.686  10.593 -2.6166  0.5924 -1.5098
  261MOL0     H34437   0.799   6.681  10.708 -0.2767  1.2212 -3.7141
  261MOL0     H34438   0.512   7.054   9.952  0.6273 -2.7184 -2.3199
  261MOL0     H34439   0.595   7.180   9.751 -0.4120 -1.6857 -1.0705
  261MOL0     H34440   0.494   7.532   9.481 -0.0296  3.5366 -0.9668
  261MOL0     H34441   0.564   7.691   9.298  1.1321  0.4854 -4.1280
  261MOL0     H34442   0.810   7.699   9.169  0.6990  0.7979 -0.8223
  261MOL0     H34443   0.785   7.771   9.017 -0.3518  0.2753  1.3097
  261MOL0     H34444   1.002   7.640   9.040 -1.2410  2.1750 -0.4928
  261MOL0     H34445   0.894   7.501   9.071 -3.7802  0.7332  0.8008
  261MOL0     H34446   0.884   7.662   8.812  0.3532  0.9825  0.7938
  261MOL0     H34447   0.791   7.518   8.846  0.1663 -0.9083  1.6977
  261MOL0     H34448   0.998   7.388   8.887  1.1579  2.6445  3.2182
  261MOL0     H34449   0.974   7.437   8.711 -0.1830  2.9876 -0.9831
  261MOL0     H34450   1.329   7.649   8.813  1.1395 -0.1961  0.2493
  261MOL0     H34451   0.693   7.350   9.072  0.9659  3.6565 -1.5198
  261MOL0     H34452   0.623   7.200   9.242  1.3600  0.3706 -3.0255
  262MOL0     O34453   2.838   0.197   6.472 -0.5918 -0.1856 -0.9213
  262MOL0     C34454   2.798   0.244   6.371 -0.3889  0.4583 -0.0954
  262MOL0     O34455   2.672   0.290   6.342  0.1939  0.0452 -0.2147
  262MOL0     C34456   2.566   0.321   6.426 -0.5925  0.4956  0.0696
  262MOL0     C34457   2.465   0.403   6.377  1.1609  0.0013 -0.1788
  262MOL0     C34458   2.346   0.431   6.451  0.6140  0.5455  0.0546
  262MOL0     C34459   2.324   0.367   6.576  0.0113 -0.7235  0.5598
  262MOL0     O34460   2.205   0.399   6.644 -0.0559 -0.4629 -0.4922
  262MOL0     C34461   2.166   0.325   6.756 -0.1786  0.3883 -1.1310
  262MOL0     C34462   2.030   0.385   6.789  0.1437 -0.1253 -0.2812
  262MOL0     C34463   1.961   0.298   6.900  0.3821 -0.6204 -0.4054
  262MOL0     C34464   1.888   0.391   7.000 -0.8880  0.2717 -0.3286
  262MOL0     C34465   1.749   0.326   7.025 -0.0983  0.8850 -1.1885
  262MOL0     C34466   1.662   0.404   7.124 -0.1594 -0.0333  0.7403
  262MOL0     C34467   1.699   0.385   7.272 -0.2203 -0.0813  0.0071
  262MOL0     C34468   1.598   0.447   7.368 -0.5622 -0.4930  0.0809
  262MOL0     N34469   1.550   0.348   7.459  0.4726  0.1162  0.3654
  262MOL0     C34470   1.628   0.267   7.546 -0.1573  0.2881  0.2999
  262MOL0     C34471   1.542   0.180   7.623 -0.3317  0.3043  0.4603
  262MOL0     C34472   1.584   0.072   7.727  0.1049 -0.4851  0.2463
  262MOL0     C34473   1.517  -0.066   7.706 -0.1750  0.4918  0.4362
  262MOL0     C34474   1.378  -0.062   7.764  0.1765 -0.4758 -0.0908
  262MOL0     C34475   1.286  -0.166   7.710  0.6809  0.1258  0.3577
  262MOL0     O34476   1.142  -0.149   7.749 -0.4886  1.0468  0.0231
  262MOL0     C34477   1.059  -0.239   7.698  0.2568 -0.6911 -1.1023
  262MOL0     C34478   1.079  -0.320   7.583  0.0313 -0.7941 -0.9214
  262MOL0     C34479   0.996  -0.418   7.547 -1.0274  0.7584  0.3130
  262MOL0     C34480   0.875  -0.433   7.615 -0.7817  0.3968 -0.1304
  262MOL0     C34481   0.774  -0.539   7.573 -0.5443  0.4391 -0.1291
  262MOL0     O34482   0.672  -0.564   7.667 -0.9911  0.8686  0.4429
  262MOL0     C34483   0.554  -0.627   7.634 -0.7093  0.9640 -0.3878
  262MOL0     C34484   0.528  -0.740   7.554  0.8929 -0.4243 -0.7941
  262MOL0     C34485   0.396  -0.792   7.527 -0.0022 -0.2316 -0.7666
  262MOL0     C34486   0.290  -0.724   7.583  0.7370  0.4775  0.3416
  262MOL0     O34487   0.164  -0.757   7.539 -0.7570  0.6660  0.3206
  262MOL0     C34488   0.044  -0.731   7.617 -0.6831  0.7163  0.1797
  262MOL0     C34489  -0.065  -0.837   7.577  0.5401 -0.0688 -0.6585
  262MOL0     C34490  -0.209  -0.812   7.634 -0.0605  0.0458 -0.7491
  262MOL0     C34491  -0.205  -0.862   7.779  1.1111  0.4538 -0.6130
  262MOL0     C34492  -0.342  -0.877   7.836 -0.0327 -0.5998 -0.3249
  262MOL0     C34493  -0.334  -0.917   7.986  0.8186  0.8362 -0.1378
  262MOL0     C34494  -0.472  -0.943   8.047 -0.3565 -0.4460  0.4580
  262MOL0     C34495  -0.482  -0.935   8.203  0.5020 -0.5536 -0.4059
  262MOL0    Cl34496  -0.652  -0.950   8.260  0.0806  0.1313  0.1053
  262MOL0     C34497   0.313  -0.626   7.677 -0.1181 -0.0918 -0.2741
  262MOL0     C34498   0.445  -0.573   7.701 -0.0831 -0.4186 -0.0375
  262MOL0     O34499   0.782  -0.595   7.463 -0.1576 -0.4062  0.3216
  262MOL0     C34500   0.846  -0.352   7.721  0.1496  1.6907  0.9616
  262MOL0     C34501   0.939  -0.258   7.768 -0.3848  0.5597 -0.2696
  262MOL0     N34502   1.418   0.226   7.589 -0.4326 -0.1532 -0.4514
  262MOL0     N34503   1.419   0.325   7.499 -0.3707 -0.3739 -0.1067
  262MOL0     C34504   2.423   0.276   6.615  0.1545  0.2637 -1.0227
  262MOL0     C34505   2.534   0.254   6.542  0.7024  0.3013 -0.7770
  262MOL0     C34506   2.901   0.248   6.258  0.2113 -0.3424 -0.8186
  262MOL0     C34507   3.035   0.244   6.278 -0.8298 -0.0904  0.2879
  262MOL0     C34508   3.121   0.265   6.166 -0.1036  0.9742 -0.4321
  262MOL0     C34509   3.074   0.270   6.029 -0.2698 -0.1114  0.1621
  262MOL0     O34510   3.168   0.285   5.926 -0.0453  1.1612  0.0515
  262MOL0     C34511   3.111   0.281   5.787 -0.2423 -0.6045  0.8117
  262MOL0     C34512   3.211   0.244   5.676 -0.0503  0.3799 -0.1918
  262MOL0     C34513   3.313   0.358   5.655  0.0645  0.7900 -0.4551
  262MOL0     C34514   3.391   0.329   5.525  0.5053  0.6749  0.5314
  262MOL0     C34515   3.494   0.422   5.495 -0.2821 -0.2369  0.2720
  262MOL0     C34516   3.579   0.496   5.460  0.2114 -0.1358 -0.1017
  262MOL0     C34517   2.934   0.274   6.014 -0.4641  0.9547  0.7146
  262MOL0     C34518   2.848   0.271   6.129 -0.6730 -0.5276  0.5852
  262MOL0     H34519   2.480   0.447   6.279  0.6526  1.9708  0.5677
  262MOL0     H34520   2.263   0.495   6.423 -0.2862 -0.5323  0.2335
  262MOL0     H34521   2.234   0.344   6.840 -1.3625 -0.1014 -0.0185
  262MOL0     H34522   2.163   0.216   6.745  3.4481 -0.1438  1.2796
  262MOL0     H34523   1.971   0.377   6.696 -2.9844  4.2481  0.9809
  262MOL0     H34524   2.044   0.490   6.816  0.8504 -0.3955  0.4370
  262MOL0     H34525   2.038   0.261   6.968  2.0209  2.7400 -0.2141
  262MOL0     H34526   1.890   0.222   6.865 -0.0429 -1.2898  1.7831
  262MOL0     H34527   1.946   0.415   7.091 -3.0881 -0.7869  1.4530
  262MOL0     H34528   1.862   0.486   6.953 -4.1164 -0.5150 -0.3314
  262MOL0     H34529   1.769   0.231   7.076  1.1872  1.8457  0.2120
  262MOL0     H34530   1.690   0.317   6.934  1.3434  1.1348 -2.1844
  262MOL0     H34531   1.561   0.363   7.115  0.7381 -3.6116  4.0941
  262MOL0     H34532   1.664   0.510   7.097 -2.8268 -0.4260 -1.3663
  262MOL0     H34533   1.711   0.279   7.296 -1.5720 -0.1128  0.6293
  262MOL0     H34534   1.800   0.423   7.292  0.3940 -1.1002 -1.0116
  262MOL0     H34535   1.508   0.477   7.315  0.3589  1.1654 -0.6146
  262MOL0     H34536   1.654   0.518   7.429  2.9211 -2.7346 -0.1952
  262MOL0     H34537   1.736   0.266   7.549 -0.1754 -0.4481  1.4908
  262MOL0     H34538   1.568   0.120   7.824 -5.5075  1.1165 -1.0884
  262MOL0     H34539   1.689   0.047   7.711  0.8337  2.0220  0.6881
  262MOL0     H34540   1.563  -0.158   7.744 -1.1997  0.1946  1.0005
  262MOL0     H34541   1.509  -0.079   7.598 -2.6114 -1.0330  0.7087
  262MOL0     H34542   1.400  -0.077   7.870  1.8980  0.7779 -0.2454
  262MOL0     H34543   1.335   0.038   7.758 -0.9139 -0.9091  0.2035
  262MOL0     H34544   1.313  -0.270   7.732 -0.3001 -0.1126  0.4588
  262MOL0     H34545   1.305  -0.167   7.602 -3.0456  0.0763 -0.4220
  262MOL0     H34546   1.170  -0.316   7.524  1.3849  2.3129  1.1184
  262MOL0     H34547   1.026  -0.477   7.460  0.5091  0.8924  0.7242
  262MOL0     H34548   0.612  -0.797   7.515 -0.1243 -2.0305 -0.6857
  262MOL0     H34549   0.381  -0.877   7.461 -3.4905 -0.7702  0.4877
  262MOL0     H34550   0.008  -0.629   7.601 -3.2686 -0.3107 -1.3126
  262MOL0     H34551   0.067  -0.740   7.723 -0.0706  0.6048  0.0398
  262MOL0     H34552  -0.030  -0.940   7.586  0.7025 -0.0536 -1.0826
  262MOL0     H34553  -0.078  -0.815   7.470  0.0925  0.1850 -0.5570
  262MOL0     H34554  -0.281  -0.867   7.572  1.1704 -1.1071 -1.1861
  262MOL0     H34555  -0.222  -0.703   7.628  2.3489  0.5461  1.3930
  262MOL0     H34556  -0.170  -0.965   7.774 -1.6950 -0.5322 -2.5953
  262MOL0     H34557  -0.149  -0.799   7.848  0.9753 -0.2758  0.1832
  262MOL0     H34558  -0.399  -0.949   7.777 -2.9064 -0.1117  1.6373
  262MOL0     H34559  -0.384  -0.776   7.833  1.6226  0.1630  0.8091
  262MOL0     H34560  -0.283  -0.839   8.044 -0.0868  2.6581 -1.7096
  262MOL0     H34561  -0.286  -1.015   7.990  0.3952  0.6496  2.2297
  262MOL0     H34562  -0.541  -0.865   8.012 -0.7437  0.9962  4.0691
  262MOL0     H34563  -0.498  -1.042   8.008  2.3576 -0.6832 -0.9807
  262MOL0     H34564  -0.446  -0.835   8.230 -0.0974 -0.9646  2.1304
  262MOL0     H34565  -0.410  -1.007   8.241  1.4241  0.0968 -0.8683
  262MOL0     H34566   0.227  -0.572   7.716  1.3025  3.6137 -1.8410
  262MOL0     H34567   0.449  -0.481   7.759  0.4816 -0.5144  0.0806
  262MOL0     H34568   0.749  -0.367   7.767  0.5582 -1.1174  1.0685
  262MOL0     H34569   0.923  -0.198   7.857  0.4340  1.6510 -0.8243
  262MOL0     H34570   2.417   0.213   6.703 -1.5690  0.0721 -1.2426
  262MOL0     H34571   2.600   0.175   6.576 -3.3414 -1.9289  2.9085
  262MOL0     H34572   3.070   0.239   6.380 -1.0408  0.1120  0.3706
  262MOL0     H34573   3.227   0.268   6.190  0.5591 -2.2421 -2.3351
  262MOL0     H34574   3.069   0.379   5.764 -0.3681 -1.3864 -2.8840
  262MOL0     H34575   3.025   0.216   5.767 -0.0647  0.3101 -4.2804
  262MOL0     H34576   3.270   0.159   5.710  0.8591 -0.2263 -3.0263
  262MOL0     H34577   3.156   0.212   5.587  3.6720 -2.8511 -1.6391
  262MOL0     H34578   3.381   0.359   5.740 -1.9687 -0.8936  1.2815
  262MOL0     H34579   3.274   0.459   5.644 -0.6553  0.6584  0.7899
  262MOL0     H34580   3.435   0.230   5.539 -0.5638  0.1949  0.5474
  262MOL0     H34581   3.318   0.313   5.446  2.1557 -3.1163 -0.4336
  262MOL0     H34582   3.663   0.553   5.425  0.2562  0.3081  0.7087
  262MOL0     H34583   2.893   0.272   5.914  1.5663 -0.5367 -0.1518
  262MOL0     H34584   2.741   0.280   6.118 -0.5629  0.8373  0.5139
  263MOL0     O34585   4.107   9.100   7.733  0.1391 -0.2795  0.0378
  263MOL0     C34586   4.129   9.192   7.813 -0.0434 -0.2130 -0.3725
  263MOL0     O34587   4.044   9.229   7.920  0.3732  0.1610 -0.4206
  263MOL0     C34588   3.930   9.163   7.955 -0.2901  0.0704 -0.0448
  263MOL0     C34589   3.922   9.027   7.982 -0.2920 -0.2177  0.0289
  263MOL0     C34590   3.802   8.966   7.998 -0.1198  0.6691 -0.6708
  263MOL0     C34591   3.681   9.035   8.009 -0.2110 -0.9095  0.3117
  263MOL0     O34592   3.566   8.964   8.029  0.0290 -0.1622  0.0759
  263MOL0     C34593   3.438   9.026   8.024 -0.4973  0.1376 -0.1750
  263MOL0     C34594   3.389   9.010   7.876 -0.0638  0.2456  0.3073
  263MOL0     C34595   3.243   9.043   7.868 -0.7746 -1.2463 -1.4285
  263MOL0     C34596   3.199   9.011   7.734 -0.1023  0.2681 -0.0451
  263MOL0     C34597   3.050   9.055   7.715  0.4737 -0.2500  0.5513
  263MOL0     C34598   2.956   8.952   7.760 -0.5276  0.3780 -0.8167
  263MOL0     C34599   2.816   8.982   7.707 -0.0197 -0.3648  1.1126
  263MOL0     C34600   2.726   8.865   7.749  0.1336 -0.9897 -0.2502
  263MOL0     N34601   2.584   8.874   7.701  0.2789 -0.2839  0.2563
  263MOL0     C34602   2.487   8.963   7.748 -0.3959 -0.0743  0.3701
  263MOL0     C34603   2.374   8.937   7.676 -0.3966  0.2133 -0.6753
  263MOL0     C34604   2.251   9.019   7.697 -0.4707  0.8950  0.0486
  263MOL0     C34605   2.127   8.927   7.692 -0.2790 -0.5033  0.0003
  263MOL0     C34606   2.004   9.012   7.715 -0.6531  0.2808 -0.2085
  263MOL0     C34607   1.872   8.939   7.709  0.2141  0.4031 -0.3662
  263MOL0     O34608   1.883   8.824   7.796 -0.2616 -0.3675 -0.4258
  263MOL0     C34609   1.762   8.755   7.818  0.3612 -0.5530  0.6102
  263MOL0     C34610   1.645   8.784   7.741 -0.3998 -0.7717  0.0570
  263MOL0     C34611   1.527   8.706   7.763  0.0665  0.0462  0.6667
  263MOL0     C34612   1.531   8.596   7.861 -0.1364  0.1507  0.2454
  263MOL0     C34613   1.408   8.529   7.893  0.4820  0.8363 -0.4184
  263MOL0     O34614   1.418   8.428   7.983  0.3415  0.2847  0.2968
  263MOL0     C34615   1.299   8.352   8.000  0.7546 -0.5631 -0.4875
  263MOL0     C34616   1.251   8.323   8.133 -0.5813  0.1423  0.4138
  263MOL0     C34617   1.149   8.224   8.157  0.4907 -0.0974  0.9477
  263MOL0     C34618   1.097   8.167   8.049  0.1717  0.4926  0.1726
  263MOL0     O34619   0.986   8.084   8.050 -0.1997 -0.1630 -0.0042
  263MOL0     C34620   0.918   8.055   8.175 -0.1567 -1.0778  0.3345
  263MOL0     C34621   0.773   8.010   8.155 -0.1074  0.6082  0.7031
  263MOL0     C34622   0.772   7.866   8.085 -0.6768  0.0146 -0.3979
  263MOL0     C34623   0.631   7.792   8.087  0.1815 -0.2860 -0.3334
  263MOL0     C34624   0.637   7.656   8.015 -0.9054  0.9891  0.6696
  263MOL0     C34625   0.509   7.580   8.028  0.0586 -0.6815  0.1861
  263MOL0     C34626   0.511   7.436   7.969  0.1362  0.3713  0.1346
  263MOL0     C34627   0.386   7.358   8.005  0.0969  0.0217 -0.3488
  263MOL0    Cl34628   0.374   7.330   8.188 -0.1510  0.4054  0.2066
  263MOL0     C34629   1.152   8.193   7.922  0.4814  0.3578 -0.8145
  263MOL0     C34630   1.252   8.274   7.890  0.7265 -0.6498 -0.4876
  263MOL0     O34631   1.305   8.561   7.840 -0.4960 -0.8617  0.4178
  263MOL0     C34632   1.640   8.584   7.941 -0.0219 -0.2686  0.2819
  263MOL0     C34633   1.750   8.662   7.923  0.0815  0.5551 -0.7513
  263MOL0     N34634   2.411   8.851   7.576  0.8522 -0.7650 -0.0859
  263MOL0     N34635   2.532   8.821   7.591 -0.0754  0.3114  0.8187
  263MOL0     C34636   3.690   9.176   7.998  0.5965  0.3880  0.0963
  263MOL0     C34637   3.820   9.238   7.970  0.5707  0.0313  0.1132
  263MOL0     C34638   4.256   9.272   7.782 -0.2370 -0.4485 -0.6449
  263MOL0     C34639   4.291   9.394   7.843 -0.7336  0.3136 -1.2325
  263MOL0     C34640   4.417   9.450   7.813 -0.0806 -1.0050 -0.1683
  263MOL0     C34641   4.511   9.407   7.722 -0.0372 -0.4393  0.0206
  263MOL0     O34642   4.629   9.478   7.710 -0.1788 -0.0719 -0.6484
  263MOL0     C34643   4.729   9.420   7.611 -0.2638 -0.1985 -0.5405
  263MOL0     C34644   4.868   9.480   7.635 -0.5995 -0.5654  0.9041
  263MOL0     C34645   4.976   9.452   7.529  0.5536  0.4923  0.3609
  263MOL0     C34646   5.112   9.513   7.564  1.3362 -1.1848 -1.1172
  263MOL0     C34647   5.126   9.660   7.566  0.1281 -0.2555  0.1707
  263MOL0     C34648   5.147   9.778   7.566  0.5931 -0.3962 -0.5439
  263MOL0     C34649   4.480   9.288   7.657 -0.2291  0.7733  0.0279
  263MOL0     C34650   4.353   9.223   7.688 -0.3367  0.0531  0.0161
  263MOL0     H34651   4.020   8.982   7.972  0.6654  1.0642  2.5348
  263MOL0     H34652   3.813   8.858   8.004  1.1302  0.7957 -0.3367
  263MOL0     H34653   3.435   9.129   8.062  1.7278 -0.7235  2.7497
  263MOL0     H34654   3.366   8.971   8.086  0.6983 -1.1285  0.1327
  263MOL0     H34655   3.418   8.910   7.841 -0.5538 -0.6371  2.3003
  263MOL0     H34656   3.442   9.077   7.808 -3.0968 -0.2670 -2.8390
  263MOL0     H34657   3.238   9.151   7.886  1.4428 -1.6081  2.6648
  263MOL0     H34658   3.182   8.987   7.938  1.0910 -0.2437  1.1744
  263MOL0     H34659   3.260   9.067   7.663  3.1109  0.5211  2.6640
  263MOL0     H34660   3.219   8.905   7.718  1.1610  0.7364 -1.9035
  263MOL0     H34661   3.028   9.075   7.610 -0.9810 -2.3408  0.4140
  263MOL0     H34662   3.038   9.153   7.762 -0.5774 -1.0115  1.9498
  263MOL0     H34663   2.958   8.945   7.869 -1.5845 -2.1746 -0.8815
  263MOL0     H34664   2.997   8.857   7.725  1.0894 -0.1499  2.2130
  263MOL0     H34665   2.782   9.074   7.755  1.6325  1.0201 -0.2522
  263MOL0     H34666   2.806   9.001   7.599  1.2225  0.7017  1.1656
  263MOL0     H34667   2.725   8.850   7.858 -0.4057 -1.7522 -0.3514
  263MOL0     H34668   2.770   8.775   7.705 -3.3711 -2.5319 -0.9610
  263MOL0     H34669   2.497   9.039   7.825 -2.8911  0.4696  0.2605
  263MOL0     H34670   2.244   9.103   7.628  2.0666  1.6823  0.6458
  263MOL0     H34671   2.255   9.071   7.793 -3.4392 -0.9966  1.3490
  263MOL0     H34672   2.140   8.842   7.759 -0.2828 -0.9408 -0.5415
  263MOL0     H34673   2.121   8.891   7.588  0.1762  1.6607 -0.8274
  263MOL0     H34674   2.022   9.047   7.817 -0.0722 -2.1500  0.6020
  263MOL0     H34675   1.993   9.100   7.652  1.4418  0.0255 -1.0024
  263MOL0     H34676   1.861   8.904   7.606 -0.7099  2.0063 -0.8367
  263MOL0     H34677   1.785   9.001   7.730 -1.1966 -1.5360 -0.1622
  263MOL0     H34678   1.642   8.852   7.657  1.3189 -0.0958  0.4938
  263MOL0     H34679   1.446   8.729   7.694 -1.1968  0.9071  2.3415
  263MOL0     H34680   1.296   8.381   8.214  0.3603  2.4806 -1.6419
  263MOL0     H34681   1.118   8.214   8.260 -0.1835  0.3205  0.7995
  263MOL0     H34682   0.925   8.144   8.239  2.9183 -1.2627  0.4247
  263MOL0     H34683   0.984   7.989   8.233  1.5134  1.0765  1.0372
  263MOL0     H34684   0.719   8.077   8.087  0.5297 -1.3808 -1.9499
  263MOL0     H34685   0.714   8.008   8.247 -0.9898  3.2409  0.2846
  263MOL0     H34686   0.846   7.804   8.137 -0.7407  0.3078  0.0459
  263MOL0     H34687   0.816   7.878   7.986  0.1785  0.9026  0.0769
  263MOL0     H34688   0.596   7.777   8.190 -1.2048 -2.5069 -1.0480
  263MOL0     H34689   0.553   7.849   8.036 -2.0722 -2.4840  0.4358
  263MOL0     H34690   0.719   7.605   8.066  0.2330  2.5494  0.4499
  263MOL0     H34691   0.644   7.680   7.909  2.2053  3.0137  1.2042
  263MOL0     H34692   0.429   7.641   7.984  0.4371 -1.1843 -1.2587
  263MOL0     H34693   0.489   7.554   8.133 -1.7923 -0.0781  0.0238
  263MOL0     H34694   0.540   7.427   7.864  0.5582  1.1197  0.1736
  263MOL0     H34695   0.592   7.378   8.015 -0.3031 -1.7125 -1.5732
  263MOL0     H34696   0.379   7.265   7.947 -0.4632  0.6260 -1.2713
  263MOL0     H34697   0.294   7.417   7.994  0.9414  1.4012 -0.1177
  263MOL0     H34698   1.122   8.130   7.839  0.1582 -1.6002  0.7142
  263MOL0     H34699   1.298   8.269   7.792 -1.3656 -0.8472 -1.4944
  263MOL0     H34700   1.641   8.526   8.033 -1.0596  2.3674  2.0894
  263MOL0     H34701   1.832   8.653   7.993 -0.1614  3.1364 -0.0254
  263MOL0     H34702   3.605   9.244   8.002  1.1392  1.3711 -2.8200
  263MOL0     H34703   3.838   9.343   7.950 -0.7962  0.5176  1.2413
  263MOL0     H34704   4.218   9.429   7.916 -0.1061 -1.7166  0.4739
  263MOL0     H34705   4.447   9.548   7.849  1.3040 -0.4750 -2.5778
  263MOL0     H34706   4.683   9.440   7.514 -1.0041  0.3750 -0.0792
  263MOL0     H34707   4.734   9.313   7.632 -1.4036  0.1563  1.8865
  263MOL0     H34708   4.859   9.588   7.648 -0.2103 -0.2046 -1.4029
  263MOL0     H34709   4.898   9.438   7.731  0.1410 -2.0973  0.0575
  263MOL0     H34710   4.962   9.490   7.427  3.0306 -2.5581 -1.3031
  263MOL0     H34711   4.989   9.347   7.501 -0.6929  0.8320 -1.6829
  263MOL0     H34712   5.134   9.461   7.658  0.6084  1.8896  0.9206
  263MOL0     H34713   5.193   9.494   7.493  2.0505  1.1446 -0.9843
  263MOL0     H34714   5.161   9.884   7.575 -0.1134 -0.3455  0.0856
  263MOL0     H34715   4.550   9.225   7.603  0.9657  0.1406  2.1936
  263MOL0     H34716   4.343   9.135   7.625 -0.4464  1.2480 -1.6906
  264MOL0     O34717  11.195   0.745   8.677 -0.4378  0.2412 -0.6994
  264MOL0     C34718  11.153   0.686   8.773 -0.1644  0.1195  0.3283
  264MOL0     O34719  11.196   0.700   8.897 -0.3316 -0.4898 -0.1239
  264MOL0     C34720  11.309   0.779   8.911 -0.1605 -0.0133 -0.5529
  264MOL0     C34721  11.418   0.776   8.829 -1.4082  0.3684  0.3744
  264MOL0     C34722  11.538   0.857   8.838  0.5733 -0.6282  0.4041
  264MOL0     C34723  11.554   0.932   8.954 -0.5082 -0.1512 -0.2289
  264MOL0     O34724  11.661   0.995   8.998  1.3000  0.3565  0.3483
  264MOL0     C34725  11.763   0.907   9.053 -0.0540 -0.4450  0.7204
  264MOL0     C34726  11.716   0.847   9.183  0.4780 -0.8791 -0.1507
  264MOL0     C34727  11.835   0.789   9.262  0.1629  0.1144 -0.6982
  264MOL0     C34728  11.777   0.695   9.382  0.2120 -0.4273  0.3301
  264MOL0     C34729  11.889   0.647   9.483  0.4366 -0.6044 -0.6103
  264MOL0     C34730  11.995   0.563   9.414 -0.0427  0.4663 -0.3282
  264MOL0     C34731  12.128   0.649   9.399 -0.4153  0.0750 -0.3066
  264MOL0     C34732  12.259   0.567   9.391 -0.0159  0.7704  0.1547
  264MOL0     N34733  12.257   0.471   9.282 -0.0756 -0.1666  0.5769
  264MOL0     C34734  12.325   0.476   9.170 -0.6941 -0.5983 -0.3879
  264MOL0     C34735  12.357   0.354   9.130  0.8780 -0.0184  0.2445
  264MOL0     C34736  12.446   0.315   9.016  0.1550 -0.7900 -0.9205
  264MOL0     C34737  12.376   0.297   8.881 -0.6407  0.1368  0.1699
  264MOL0     C34738  12.484   0.285   8.774  0.1567  0.2535 -0.1068
  264MOL0     C34739  12.418   0.264   8.642  0.3387 -0.2959 -0.1509
  264MOL0     O34740  12.329   0.382   8.620 -0.0126 -0.3514 -0.2896
  264MOL0     C34741  12.233   0.358   8.531  0.3657  0.3476 -0.8199
  264MOL0     C34742  12.111   0.428   8.540  0.5065 -0.1148  0.4874
  264MOL0     C34743  12.012   0.407   8.437  0.0417  0.5454  0.6313
  264MOL0     C34744  12.033   0.316   8.333  0.2898 -0.1887  0.5593
  264MOL0     C34745  11.927   0.315   8.222 -1.6204 -0.1540 -0.4156
  264MOL0     O34746  11.805   0.344   8.252 -0.1927 -1.0947 -0.7085
  264MOL0     C34747  11.714   0.360   8.149 -0.5480 -0.4357 -0.8023
  264MOL0     C34748  11.707   0.491   8.099  0.2189  0.4289 -0.0029
  264MOL0     C34749  11.616   0.511   7.987  0.3237  0.0084 -0.0084
  264MOL0     C34750  11.520   0.413   7.959  0.8829  0.3201 -0.5746
  264MOL0     O34751  11.407   0.433   7.882  0.2377  0.4191  0.6529
  264MOL0     C34752  11.345   0.571   7.892  0.1999 -0.1673 -0.2127
  264MOL0     C34753  11.242   0.581   8.008  0.0988  0.6527 -0.1786
  264MOL0     C34754  11.195   0.721   8.034  1.0248 -0.0117 -0.3803
  264MOL0     C34755  11.068   0.718   8.110  1.1577  0.1068 -0.7034
  264MOL0     C34756  11.058   0.833   8.211  0.3922 -0.0801  0.3554
  264MOL0     C34757  10.950   0.787   8.306 -0.2102 -0.1879  0.2846
  264MOL0     C34758  10.896   0.911   8.388 -0.1763 -0.1227  0.0085
  264MOL0     C34759  10.781   0.868   8.473 -0.5245 -0.4228  0.5405
  264MOL0    Cl34760  10.623   0.887   8.404  0.4444  0.1808  0.0693
  264MOL0     C34761  11.527   0.290   8.020 -0.4317  0.4197  0.4693
  264MOL0     C34762  11.632   0.259   8.106 -0.1710 -0.5704 -0.0375
  264MOL0     O34763  11.973   0.299   8.109 -0.1015  0.2290  0.8730
  264MOL0     C34764  12.157   0.244   8.331 -1.4403 -0.5011  0.7221
  264MOL0     C34765  12.255   0.271   8.426  0.6971 -0.0152 -0.8664
  264MOL0     N34766  12.294   0.271   9.217  0.3414  1.3082  0.2040
  264MOL0     N34767  12.232   0.345   9.302  0.0342 -0.4213  0.3898
  264MOL0     C34768  11.449   0.926   9.049 -0.0094 -0.6770  0.7304
  264MOL0     C34769  11.325   0.864   9.028  0.5806  0.2339  0.7721
  264MOL0     C34770  11.040   0.586   8.765 -0.2184  0.3989 -0.0461
  264MOL0     C34771  10.982   0.526   8.871  0.2613 -0.2663  0.0597
  264MOL0     C34772  10.867   0.432   8.856 -1.1456 -0.6370  0.3063
  264MOL0     C34773  10.821   0.408   8.725 -0.7837  0.0559  0.0975
  264MOL0     O34774  10.725   0.327   8.688  1.0123 -0.0116 -0.0492
  264MOL0     C34775  10.637   0.279   8.790  0.0768  0.8658  0.0699
  264MOL0     C34776  10.540   0.173   8.730  0.4558 -0.0774 -0.0189
  264MOL0     C34777  10.622   0.048   8.684 -0.0761  0.6127 -0.2853
  264MOL0     C34778  10.535  -0.039   8.589 -0.5910 -0.0267 -0.7288
  264MOL0     C34779  10.530   0.017   8.454  0.8481 -0.1031 -0.0038
  264MOL0     C34780  10.547   0.052   8.339  0.3801 -0.3116 -0.5208
  264MOL0     C34781  10.876   0.477   8.618 -0.3748 -0.1689 -0.3692
  264MOL0     C34782  10.991   0.552   8.634  0.3962  1.0003 -0.2754
  264MOL0     H34783  11.427   0.712   8.741 -0.4037  0.8888  0.0929
  264MOL0     H34784  11.624   0.855   8.772  0.1197 -0.0349 -0.2168
  264MOL0     H34785  11.855   0.964   9.064 -1.5953  2.6132 -0.7681
  264MOL0     H34786  11.776   0.822   8.986  2.4860 -0.6205  1.3397
  264MOL0     H34787  11.641   0.769   9.169 -0.2793 -0.4987  1.5679
  264MOL0     H34788  11.669   0.919   9.251 -0.3143 -0.0968 -1.4985
  264MOL0     H34789  11.888   0.870   9.312 -0.4187  0.3384 -0.4334
  264MOL0     H34790  11.902   0.722   9.208  0.1091 -0.1537 -0.4362
  264MOL0     H34791  11.691   0.744   9.429  1.2344 -0.0801  1.9119
  264MOL0     H34792  11.724   0.611   9.335 -3.9804  1.8537  0.4261
  264MOL0     H34793  11.834   0.601   9.566 -1.9765  4.8861  1.2672
  264MOL0     H34794  11.928   0.739   9.528  0.8758 -1.7807  1.5921
  264MOL0     H34795  11.955   0.524   9.321  0.9246 -1.9058  0.1881
  264MOL0     H34796  12.012   0.481   9.484 -2.5834  0.0280 -0.1247
  264MOL0     H34797  12.123   0.708   9.308 -2.0129  0.4238 -0.0243
  264MOL0     H34798  12.135   0.721   9.481 -3.9523 -0.6518  0.8078
  264MOL0     H34799  12.271   0.507   9.482  1.3757 -1.2115 -1.2304
  264MOL0     H34800  12.351   0.626   9.379 -0.4368  1.5779  0.7806
  264MOL0     H34801  12.347   0.570   9.120 -1.3016 -1.3678 -2.1983
  264MOL0     H34802  12.504   0.226   9.041 -2.8123 -3.9453 -3.9568
  264MOL0     H34803  12.515   0.400   9.006 -2.2138  1.0769 -3.0014
  264MOL0     H34804  12.309   0.382   8.862 -0.3541 -0.1663 -2.6989
  264MOL0     H34805  12.318   0.204   8.874  0.9704 -1.1103  2.3086
  264MOL0     H34806  12.538   0.380   8.776  2.6758 -1.0868  1.2055
  264MOL0     H34807  12.555   0.206   8.800  0.4277  0.5494  0.0535
  264MOL0     H34808  12.358   0.172   8.644  0.0432 -0.1891 -2.0764
  264MOL0     H34809  12.498   0.249   8.568  1.2282 -0.0641  0.7495
  264MOL0     H34810  12.095   0.500   8.619  0.0368  1.1928 -0.7704
  264MOL0     H34811  11.927   0.475   8.429 -0.0963  0.3034 -0.1146
  264MOL0     H34812  11.763   0.572   8.145 -0.7100 -0.1526  2.3123
  264MOL0     H34813  11.613   0.613   7.951 -0.6963 -0.1260 -0.3343
  264MOL0     H34814  11.295   0.583   7.795 -1.0008  1.3380  0.5631
  264MOL0     H34815  11.432   0.636   7.898  1.1753 -1.5671  3.1335
  264MOL0     H34816  11.295   0.536   8.093 -0.7452 -1.4532 -0.7061
  264MOL0     H34817  11.159   0.517   7.978  2.0200 -3.1079  1.7630
  264MOL0     H34818  11.192   0.775   7.939 -1.9827 -0.7518 -0.8001
  264MOL0     H34819  11.265   0.775   8.099 -0.8196  0.0791  1.6515
  264MOL0     H34820  10.981   0.732   8.044  0.7060  1.0347  0.0547
  264MOL0     H34821  11.043   0.623   8.157 -0.4322  1.1624  0.6827
  264MOL0     H34822  11.031   0.925   8.158  2.1976 -0.6168 -1.6464
  264MOL0     H34823  11.149   0.843   8.271 -0.5874 -1.7995  2.2532
  264MOL0     H34824  10.972   0.700   8.368  1.4701  1.3819  2.0358
  264MOL0     H34825  10.863   0.753   8.250 -0.3402  2.2500 -1.1676
  264MOL0     H34826  10.970   0.960   8.451  0.0194  2.3675 -1.9797
  264MOL0     H34827  10.872   0.993   8.319 -0.5176  0.2052  0.5077
  264MOL0     H34828  10.777   0.940   8.555 -0.4865  0.7766 -0.4835
  264MOL0     H34829  10.792   0.769   8.518 -2.8319  0.5218  3.4710
  264MOL0     H34830  11.462   0.210   7.986  0.7413 -1.3039  2.0633
  264MOL0     H34831  11.626   0.160   8.152  2.2010 -0.1525  1.3470
  264MOL0     H34832  12.167   0.171   8.251  0.3601 -1.5787  1.8633
  264MOL0     H34833  12.350   0.219   8.418  1.4953  1.5724 -2.4718
  264MOL0     H34834  11.458   0.970   9.148 -0.1992 -2.1039  1.4068
  264MOL0     H34835  11.244   0.852   9.100 -2.2171 -3.1518 -2.5459
  264MOL0     H34836  11.024   0.541   8.970 -1.1489 -2.0578  0.9863
  264MOL0     H34837  10.823   0.393   8.947 -3.4720  1.7492  0.3372
  264MOL0     H34838  10.573   0.360   8.826 -4.0669 -2.1673  0.1978
  264MOL0     H34839  10.686   0.231   8.875  0.2372  0.2700 -0.3456
  264MOL0     H34840  10.457   0.142   8.794 -0.8405  1.6652 -0.7374
  264MOL0     H34841  10.481   0.222   8.652 -1.6840  0.3072  1.7426
  264MOL0     H34842  10.649  -0.020   8.765 -1.0425 -1.0336 -1.3011
  264MOL0     H34843  10.719   0.076   8.642 -0.1737  0.6088 -0.5160
  264MOL0     H34844  10.584  -0.136   8.580  3.1219  1.4165  1.4714
  264MOL0     H34845  10.433  -0.028   8.626  0.3481  0.7991  1.7952
  264MOL0     H34846  10.563   0.088   8.239 -1.4587  5.1312  0.7843
  264MOL0     H34847  10.832   0.463   8.520 -2.7124 -0.4258  0.6526
  264MOL0     H34848  11.041   0.592   8.547  1.3288 -0.8736 -0.6375
  265MOL0     O34849   2.968   1.965   5.219 -0.2345  0.2330  0.1215
  265MOL0     C34850   2.911   2.059   5.274 -0.6382 -0.9793 -1.2311
  265MOL0     O34851   2.973   2.153   5.357  0.6394  0.1095 -0.2545
  265MOL0     C34852   3.108   2.173   5.363  0.1347  0.6430  0.1743
  265MOL0     C34853   3.172   2.204   5.489 -0.1023  0.1401  0.0293
  265MOL0     C34854   3.312   2.230   5.494  0.8084  0.6381 -0.6943
  265MOL0     C34855   3.394   2.212   5.382  0.1708 -0.2479 -0.2078
  265MOL0     O34856   3.526   2.241   5.372 -0.2396 -0.9918 -0.0571
  265MOL0     C34857   3.602   2.284   5.486  0.2420 -0.2565 -0.1766
  265MOL0     C34858   3.754   2.287   5.451 -0.4853  0.1922 -0.6871
  265MOL0     C34859   3.780   2.403   5.356 -0.4056  0.8131 -1.0242
  265MOL0     C34860   3.916   2.422   5.296  0.5938 -0.2545  0.4375
  265MOL0     C34861   3.913   2.521   5.171 -0.5239  1.0406  0.1656
  265MOL0     C34862   4.046   2.511   5.103 -0.5568 -0.1250 -0.4769
  265MOL0     C34863   4.055   2.575   4.968  0.3071  0.4796  0.1281
  265MOL0     C34864   3.972   2.508   4.844 -0.7587 -0.0056 -0.5985
  265MOL0     N34865   4.047   2.393   4.788  0.2365 -0.1358  0.1564
  265MOL0     C34866   4.182   2.390   4.761 -0.5510 -0.5987 -0.2098
  265MOL0     C34867   4.217   2.264   4.723 -0.2353 -0.1296  0.6495
  265MOL0     C34868   4.366   2.212   4.716  0.6948 -0.4229 -0.6378
  265MOL0     C34869   4.468   2.328   4.699 -0.3445  0.1353  0.4965
  265MOL0     C34870   4.613   2.268   4.703 -0.2017  0.2492 -0.4297
  265MOL0     C34871   4.716   2.379   4.680 -0.3350  0.5651 -0.5801
  265MOL0     O34872   4.725   2.462   4.798 -0.3671 -0.6620  0.0212
  265MOL0     C34873   4.767   2.581   4.757 -1.7914 -0.7203 -0.1169
  265MOL0     C34874   4.898   2.601   4.715 -0.6749 -0.0183 -0.2522
  265MOL0     C34875   4.939   2.722   4.660  0.5948  0.4738 -0.5830
  265MOL0     C34876   4.851   2.832   4.648 -0.9569  0.6294 -0.5146
  265MOL0     C34877   4.908   2.959   4.599 -0.3527  0.1979  0.0549
  265MOL0     O34878   5.042   2.967   4.580  0.2494  0.0889  0.6821
  265MOL0     C34879   5.098   3.073   4.509  0.3473  0.4556  0.5408
  265MOL0     C34880   5.209   3.044   4.429  0.5330  1.2584 -0.2832
  265MOL0     C34881   5.275   3.139   4.352 -0.8737  0.4057 -0.1494
  265MOL0     C34882   5.235   3.273   4.365 -0.2677 -0.0268  0.2634
  265MOL0     O34883   5.292   3.376   4.305 -0.0915 -0.5936 -0.2623
  265MOL0     C34884   5.406   3.364   4.215 -0.5519  0.4242  0.2957
  265MOL0     C34885   5.448   3.494   4.150  0.5039 -0.3210  0.8923
  265MOL0     C34886   5.602   3.511   4.127  0.6089 -0.5102  0.0233
  265MOL0     C34887   5.630   3.653   4.070  0.8131 -0.2519  0.4703
  265MOL0     C34888   5.780   3.681   4.079 -0.2134  0.7650 -0.3764
  265MOL0     C34889   5.828   3.774   3.972 -0.7034 -0.5312  0.6704
  265MOL0     C34890   5.984   3.819   3.995  1.0352  1.5100  0.0375
  265MOL0     C34891   6.043   3.910   3.893  0.5831 -0.1395 -0.2742
  265MOL0    Cl34892   5.989   4.070   3.953  0.1354 -0.4878  0.1834
  265MOL0     C34893   5.128   3.305   4.451 -0.9401  0.6481  0.0316
  265MOL0     C34894   5.064   3.204   4.518  0.6227  0.0745  0.4040
  265MOL0     O34895   4.820   3.040   4.588 -0.4172  0.4750  0.5211
  265MOL0     C34896   4.717   2.819   4.693 -0.6309 -0.9500 -0.6532
  265MOL0     C34897   4.679   2.691   4.745 -0.3379 -0.2105  0.0708
  265MOL0     N34898   4.100   2.192   4.728  0.0487  0.7980  0.0702
  265MOL0     N34899   4.000   2.265   4.786 -0.4151 -0.3000 -0.6438
  265MOL0     C34900   3.332   2.178   5.263 -0.3329 -0.2750 -0.4625
  265MOL0     C34901   3.190   2.164   5.247  0.0824  0.0566 -0.0165
  265MOL0     C34902   2.764   2.046   5.290  0.1560  0.4177 -0.9952
  265MOL0     C34903   2.699   2.102   5.397  0.4436 -0.3383  0.0788
  265MOL0     C34904   2.563   2.085   5.416  0.5311 -0.8637  0.0540
  265MOL0     C34905   2.487   2.010   5.331  0.8699 -0.7635  0.0802
  265MOL0     O34906   2.346   1.998   5.330  0.3312 -0.3708  0.4582
  265MOL0     C34907   2.300   1.935   5.456 -0.5161 -0.8172  0.1789
  265MOL0     C34908   2.256   2.033   5.567 -0.4091 -0.2239  0.6761
  265MOL0     C34909   2.175   1.963   5.671  0.4479 -0.0647 -0.7933
  265MOL0     C34910   2.092   2.061   5.759  0.4830 -0.2185 -0.0428
  265MOL0     C34911   2.004   2.005   5.859 -0.3916 -0.7556  0.0020
  265MOL0     C34912   1.938   1.948   5.950  0.7362 -0.4292  0.3014
  265MOL0     C34913   2.544   1.953   5.224 -0.3923  0.4540  0.2678
  265MOL0     C34914   2.686   1.969   5.203  1.0014  0.1586  0.1030
  265MOL0     H34915   3.099   2.210   5.570 -1.3532  1.3557 -1.1306
  265MOL0     H34916   3.350   2.252   5.594  0.3020 -1.8084  0.1063
  265MOL0     H34917   3.579   2.208   5.561 -3.2827 -2.1410 -2.8620
  265MOL0     H34918   3.566   2.380   5.523  1.2069 -0.7206  2.1651
  265MOL0     H34919   3.780   2.191   5.406 -1.4911 -1.3752  1.8791
  265MOL0     H34920   3.813   2.297   5.542  0.4927 -0.1964 -1.2558
  265MOL0     H34921   3.758   2.496   5.408  2.1589  0.8033  0.1965
  265MOL0     H34922   3.705   2.384   5.278  0.8130 -3.4623 -1.4531
  265MOL0     H34923   3.985   2.461   5.372  1.8994 -1.8770  0.1489
  265MOL0     H34924   3.959   2.326   5.265  2.1056  0.1956  1.0462
  265MOL0     H34925   3.874   2.617   5.204 -2.0995  0.2557  0.6754
  265MOL0     H34926   3.840   2.486   5.097  0.6723  2.3642 -1.7458
  265MOL0     H34927   4.079   2.407   5.105 -1.9288 -0.5920 -0.9230
  265MOL0     H34928   4.127   2.552   5.165 -0.2697 -1.3079 -0.0561
  265MOL0     H34929   4.014   2.676   4.981 -1.2515 -0.2700  1.3734
  265MOL0     H34930   4.157   2.600   4.939  0.4434  0.7820  0.8716
  265MOL0     H34931   3.953   2.569   4.756  3.4567  0.5195 -1.3931
  265MOL0     H34932   3.877   2.473   4.886 -0.9755  1.7862  0.5013
  265MOL0     H34933   4.256   2.462   4.793  1.4601 -1.5623 -2.3095
  265MOL0     H34934   4.369   2.145   4.629 -1.3229 -0.3523 -0.8136
  265MOL0     H34935   4.401   2.154   4.801  2.4008  0.3559 -0.7766
  265MOL0     H34936   4.465   2.407   4.775 -2.7830 -0.1426  0.7808
  265MOL0     H34937   4.458   2.376   4.601 -0.2092 -1.3335 -0.2582
  265MOL0     H34938   4.634   2.237   4.806 -1.1159  0.0536 -0.2979
  265MOL0     H34939   4.629   2.183   4.636  1.3577 -2.3267  2.9242
  265MOL0     H34940   4.677   2.432   4.593  1.7799  2.2477 -0.5978
  265MOL0     H34941   4.815   2.336   4.661 -0.4784 -0.6750  1.1729
  265MOL0     H34942   4.969   2.521   4.730  1.0514  1.5778  0.5694
  265MOL0     H34943   5.041   2.727   4.623  0.6523 -1.3249 -0.7359
  265MOL0     H34944   5.223   2.937   4.414  0.6641  1.2340 -0.0028
  265MOL0     H34945   5.346   3.093   4.284  0.5402 -2.0226  2.7367
  265MOL0     H34946   5.377   3.291   4.139  0.3818  2.0062 -1.6754
  265MOL0     H34947   5.494   3.320   4.263  2.5798  2.2895 -3.1568
  265MOL0     H34948   5.411   3.569   4.221  1.6048 -2.3810  3.8363
  265MOL0     H34949   5.399   3.508   4.053  1.5608  1.0098  0.5222
  265MOL0     H34950   5.630   3.434   4.054 -2.2051  0.8431 -2.7362
  265MOL0     H34951   5.656   3.501   4.222 -0.6348  1.8872  1.0594
  265MOL0     H34952   5.589   3.667   3.969 -0.4966  1.8647  1.2377
  265MOL0     H34953   5.572   3.719   4.136 -2.9409 -1.5016 -1.2630
  265MOL0     H34954   5.824   3.581   4.073 -0.6392  0.3800  2.0463
  265MOL0     H34955   5.803   3.721   4.178  2.4001 -2.4858  0.5215
  265MOL0     H34956   5.778   3.872   3.973  0.1324 -0.0453 -1.2432
  265MOL0     H34957   5.822   3.740   3.869  1.3766  2.4276 -0.5937
  265MOL0     H34958   6.013   3.856   4.094 -1.8278  1.0675  1.1273
  265MOL0     H34959   6.042   3.727   3.994 -1.1288 -0.1491  3.8500
  265MOL0     H34960   5.992   3.883   3.800 -0.6300 -1.0337  0.6250
  265MOL0     H34961   6.151   3.900   3.890  0.9371  1.1917  3.2524
  265MOL0     H34962   5.090   3.405   4.473 -2.2026  0.2931 -0.4496
  265MOL0     H34963   4.984   3.235   4.586 -0.8589 -0.7723 -0.8912
  265MOL0     H34964   4.640   2.894   4.692 -0.7551 -1.0590  0.0903
  265MOL0     H34965   4.579   2.666   4.778  0.0333  0.3074  1.7240
  265MOL0     H34966   3.392   2.170   5.172 -0.4483  0.9376 -0.6656
  265MOL0     H34967   3.137   2.153   5.152 -0.6421 -1.0359  0.4961
  265MOL0     H34968   2.752   2.156   5.475 -0.0693 -1.5783  1.3257
  265MOL0     H34969   2.514   2.132   5.501  0.8512 -0.9792  0.3080
  265MOL0     H34970   2.361   1.853   5.496 -0.8595 -1.6081 -0.8756
  265MOL0     H34971   2.216   1.875   5.418 -0.4226 -0.2447 -0.9806
  265MOL0     H34972   2.345   2.077   5.612  0.9603 -2.6610  0.5285
  265MOL0     H34973   2.194   2.111   5.522  0.0565 -0.8414 -1.1201
  265MOL0     H34974   2.248   1.912   5.733 -1.4762 -2.9956 -0.7689
  265MOL0     H34975   2.103   1.891   5.633 -2.1940  1.8171  0.3330
  265MOL0     H34976   2.159   2.138   5.798 -0.1810  1.1812 -1.5282
  265MOL0     H34977   2.024   2.117   5.694 -2.7806 -2.3053  1.2836
  265MOL0     H34978   1.879   1.924   6.036  0.4943 -1.4075 -0.1182
  265MOL0     H34979   2.489   1.892   5.153 -0.1043 -1.4254  1.5769
  265MOL0     H34980   2.709   1.915   5.112 -1.8845 -0.8778 -0.1102
  266MOL0     O34981  11.084  10.622   6.351 -0.1476  0.3631  0.2573
  266MOL0     C34982  11.072  10.634   6.231  0.1772 -0.4617  0.2939
  266MOL0     O34983  10.980  10.563   6.153 -0.2519 -0.6766 -0.3168
  266MOL0     C34984  10.905  10.465   6.211  0.1457  0.9369  0.3331
  266MOL0     C34985  10.775  10.446   6.158 -0.6037 -0.7498 -0.9438
  266MOL0     C34986  10.691  10.351   6.214 -0.7827 -0.6844 -0.3568
  266MOL0     C34987  10.743  10.259   6.317 -0.7577 -0.0011  0.2088
  266MOL0     O34988  10.672  10.159   6.379 -0.3306 -0.3997  0.1447
  266MOL0     C34989  10.547  10.119   6.314  0.1895  0.5623 -0.2926
  266MOL0     C34990  10.488  10.026   6.417  0.9665  0.3638 -0.6103
  266MOL0     C34991  10.355   9.963   6.362  0.3603 -0.3129  0.2368
  266MOL0     C34992  10.243   9.940   6.456 -0.0508  0.0965 -0.8429
  266MOL0     C34993  10.285   9.846   6.561  0.4112 -0.0046  0.0584
  266MOL0     C34994  10.170   9.801   6.642 -0.3313 -0.2916  1.0406
  266MOL0     C34995  10.194   9.675   6.724 -0.3699  0.0432  0.2237
  266MOL0     C34996  10.276   9.706   6.851 -0.2902  0.1005  0.3033
  266MOL0     N34997  10.192   9.747   6.965 -0.1694  0.3627  0.2322
  266MOL0     C34998  10.125   9.861   6.986 -0.0004 -0.2356 -0.1543
  266MOL0     C34999  10.091   9.859   7.115 -0.4321  0.0959  0.2879
  266MOL0     C35000  10.009   9.960   7.195  0.2883  0.3191  0.0109
  266MOL0     C35001  10.092  10.034   7.302  0.0790  0.1282 -0.0445
  266MOL0     C35002   9.999  10.132   7.373  0.3934  0.5978 -0.2673
  266MOL0     C35003   9.889  10.064   7.448  0.3194  0.1352 -0.4998
  266MOL0     O35004   9.941   9.992   7.556 -0.2923 -0.5678 -0.0215
  266MOL0     C35005   9.841   9.933   7.637 -0.8925 -0.4783 -0.5856
  266MOL0     C35006   9.803   9.801   7.608  0.2808  0.0418  0.7993
  266MOL0     C35007   9.698   9.738   7.680  0.4176  0.1681  0.8504
  266MOL0     C35008   9.625   9.815   7.776 -0.6824  0.4823  0.6979
  266MOL0     C35009   9.505   9.760   7.844  0.2347  0.0059  0.4146
  266MOL0     O35010   9.486   9.623   7.821 -0.5206 -0.5162  0.1864
  266MOL0     C35011   9.380   9.566   7.888 -0.1461 -0.1307 -0.3770
  266MOL0     C35012   9.246   9.591   7.858 -0.4836  0.1103 -0.6653
  266MOL0     C35013   9.149   9.535   7.943  0.9308 -0.3224  0.5903
  266MOL0     C35014   9.187   9.470   8.062 -0.1412  0.4466  0.1790
  266MOL0     O35015   9.097   9.436   8.159  0.2315  0.2955  0.2581
  266MOL0     C35016   9.115   9.320   8.239  0.8814 -0.0045 -1.3891
  266MOL0     C35017   8.992   9.291   8.328  0.6704 -0.7453 -0.4904
  266MOL0     C35018   8.852   9.284   8.253  0.0090  0.2406 -0.1628
  266MOL0     C35019   8.739   9.297   8.347  0.7719 -0.2942 -0.9219
  266MOL0     C35020   8.608   9.283   8.273 -0.4951 -0.2897 -0.7906
  266MOL0     C35021   8.503   9.337   8.366 -0.5929  0.0790  0.3592
  266MOL0     C35022   8.369   9.353   8.299 -0.5357  0.2424 -0.3416
  266MOL0     C35023   8.251   9.340   8.376  0.6633  0.9802  0.1550
  266MOL0    Cl35024   8.226   9.489   8.487  0.2165 -0.5608 -0.0882
  266MOL0     C35025   9.324   9.440   8.085  0.8616  0.6083  0.8409
  266MOL0     C35026   9.423   9.484   8.001  0.6024  0.4328  0.3244
  266MOL0     O35027   9.470   9.816   7.946  0.0444 -0.3468  0.2385
  266MOL0     C35028   9.669   9.956   7.807 -0.4585  0.5463  0.2836
  266MOL0     C35029   9.777  10.011   7.732 -0.5202  0.3347 -0.3734
  266MOL0     N35030  10.133   9.750   7.177  0.3835 -0.1051 -0.1771
  266MOL0     N35031  10.203   9.685   7.089  0.1587 -0.1212  0.3757
  266MOL0     C35032  10.872  10.276   6.365  0.3648  0.7802 -0.8091
  266MOL0     C35033  10.954  10.374   6.308 -0.6515  0.4610  0.7622
  266MOL0     C35034  11.135  10.753   6.170  0.8161  0.7586  0.1279
  266MOL0     C35035  11.103  10.777   6.041 -0.5436  0.1124 -0.7775
  266MOL0     C35036  11.172  10.873   5.963 -0.3885 -0.7071  0.0709
  266MOL0     C35037  11.260  10.962   6.020 -0.4758 -0.0226  0.5287
  266MOL0     O35038  11.342  11.062   5.961  1.2766 -0.2269 -0.5723
  266MOL0     C35039  11.327  11.098   5.820  0.0049 -1.0364  0.4533
  266MOL0     C35040  11.459  11.137   5.758 -0.0287 -0.2477 -0.0156
  266MOL0     C35041  11.585  11.151   5.850  0.4636 -0.1564  0.1371
  266MOL0     C35042  11.711  11.181   5.770 -0.1211 -0.0319 -0.2159
  266MOL0     C35043  11.714  11.308   5.700  0.2157 -0.7840  0.4312
  266MOL0     C35044  11.704  11.424   5.660 -0.5505  0.5357 -0.2076
  266MOL0     C35045  11.284  10.948   6.169  0.5651 -0.4157  0.1468
  266MOL0     C35046  11.221  10.838   6.234  0.1127  0.0109  0.4519
  266MOL0     H35047  10.737  10.511   6.079 -1.3573  2.0273  1.4960
  266MOL0     H35048  10.589  10.323   6.187 -0.7739 -2.0184  0.8112
  266MOL0     H35049  10.559  10.071   6.217 -2.8121 -1.0094 -0.0173
  266MOL0     H35050  10.483  10.207   6.301  1.2338  2.0600  3.2790
  266MOL0     H35051  10.461  10.089   6.502 -1.0288  0.7303 -1.4597
  266MOL0     H35052  10.561   9.947   6.436  0.2045 -0.1367  0.2863
  266MOL0     H35053  10.370   9.864   6.317  1.2914 -0.7090  1.3481
  266MOL0     H35054  10.308  10.032   6.292 -3.6403 -0.6086  2.3633
  266MOL0     H35055  10.214  10.035   6.501  2.7240  0.8419 -0.4279
  266MOL0     H35056  10.151   9.897   6.415 -1.2211 -0.1908  1.8621
  266MOL0     H35057  10.356   9.902   6.622  0.9175  2.4964 -2.5960
  266MOL0     H35058  10.334   9.758   6.518 -1.2858 -1.9111  1.8464
  266MOL0     H35059  10.088   9.766   6.578  0.1179 -0.4707  0.5578
  266MOL0     H35060  10.137   9.886   6.702 -1.2631  1.1234 -1.3268
  266MOL0     H35061  10.101   9.622   6.747  0.7934 -1.5115  1.5604
  266MOL0     H35062  10.260   9.614   6.661 -2.3480 -3.3238  1.1574
  266MOL0     H35063  10.350   9.785   6.834 -1.9082  1.6086  0.0154
  266MOL0     H35064  10.339   9.622   6.885 -1.9897 -0.9823  0.9048
  266MOL0     H35065  10.104   9.949   6.925 -1.4708  0.0524  0.7126
  266MOL0     H35066   9.915   9.918   7.233  1.4409 -0.5594  2.0065
  266MOL0     H35067   9.978  10.034   7.120  0.7670 -1.3670 -1.9384
  266MOL0     H35068  10.178  10.084   7.256 -0.1331  0.6945  0.1774
  266MOL0     H35069  10.138   9.964   7.373 -1.0002  0.2371  0.7791
  266MOL0     H35070  10.049  10.195   7.446 -0.3236 -0.8900  1.5742
  266MOL0     H35071   9.950  10.202   7.304  0.2237  1.9100  1.1360
  266MOL0     H35072   9.831   9.996   7.385 -2.4353  1.1051  0.8251
  266MOL0     H35073   9.811  10.136   7.475  0.3443 -0.4530  1.3032
  266MOL0     H35074   9.855   9.750   7.527 -3.8398 -1.9225 -0.8850
  266MOL0     H35075   9.666   9.635   7.664  3.1084 -0.8602  1.6659
  266MOL0     H35076   9.233   9.644   7.764  0.8336  0.2089 -0.8121
  266MOL0     H35077   9.046   9.553   7.913  1.1323  1.9374  1.0364
  266MOL0     H35078   9.193   9.343   8.312 -0.6934  0.3271  0.2666
  266MOL0     H35079   9.124   9.229   8.179  0.6195 -2.0880  1.4725
  266MOL0     H35080   8.985   9.363   8.410 -0.6275 -0.9194 -0.4264
  266MOL0     H35081   8.999   9.204   8.394  0.4127  1.2122  2.3465
  266MOL0     H35082   8.843   9.187   8.203  3.0655  0.3352 -1.0542
  266MOL0     H35083   8.839   9.365   8.181  0.7218  1.2805  0.8421
  266MOL0     H35084   8.747   9.221   8.425 -2.2904 -0.3191 -0.4967
  266MOL0     H35085   8.746   9.389   8.406 -3.2114  0.8765 -1.9572
  266MOL0     H35086   8.585   9.178   8.254 -1.4197 -0.2400 -0.0331
  266MOL0     H35087   8.615   9.346   8.184  0.8321 -0.6785 -0.9783
  266MOL0     H35088   8.534   9.435   8.404 -1.3485  0.8125 -0.8719
  266MOL0     H35089   8.495   9.257   8.441 -2.5051 -0.1227 -0.0344
  266MOL0     H35090   8.368   9.437   8.230  2.3076  0.4869 -0.1857
  266MOL0     H35091   8.363   9.266   8.233  2.5425  0.5442 -1.1726
  266MOL0     H35092   8.262   9.245   8.430  1.9704  0.7132 -0.5500
  266MOL0     H35093   8.168   9.321   8.307 -0.1035 -0.2305  1.3701
  266MOL0     H35094   9.355   9.384   8.173 -0.2175  0.7185  1.3024
  266MOL0     H35095   9.530   9.475   8.014  1.1423  4.7601  0.5362
  266MOL0     H35096   9.602  10.012   7.871  0.6926  0.2785  1.7797
  266MOL0     H35097   9.822  10.108   7.752 -0.9681  0.3953  0.4030
  266MOL0     H35098  10.915  10.222   6.449  1.1533  0.5872 -1.3269
  266MOL0     H35099  11.053  10.371   6.352  0.1214 -1.6052 -0.9274
  266MOL0     H35100  11.037  10.721   5.975 -0.7602  0.3185 -0.7331
  266MOL0     H35101  11.150  10.872   5.857  0.6163  1.1146 -0.1928
  266MOL0     H35102  11.267  11.188   5.835  4.0352  1.5220  3.1453
  266MOL0     H35103  11.270  11.030   5.756  1.2500  0.3445 -2.3270
  266MOL0     H35104  11.477  11.050   5.695 -3.0003  0.7881 -2.5377
  266MOL0     H35105  11.443  11.218   5.686 -4.1874 -1.3150 -0.5752
  266MOL0     H35106  11.587  11.059   5.909 -4.8712  0.3739  1.7041
  266MOL0     H35107  11.560  11.227   5.924  1.9189  1.1764 -0.7017
  266MOL0     H35108  11.799  11.169   5.834 -1.7056 -0.5088  1.9928
  266MOL0     H35109  11.718  11.088   5.714  0.3521 -0.6555  0.8508
  266MOL0     H35110  11.691  11.525   5.629  0.8269  1.1587  1.1486
  266MOL0     H35111  11.346  11.013   6.229 -1.2845  1.1954  0.4210
  266MOL0     H35112  11.239  10.826   6.340 -0.3386  1.4877  0.7197
  267MOL0     O35113   1.947   6.574   6.308  0.0105 -0.1583 -0.4086
  267MOL0     C35114   1.956   6.676   6.378 -0.2528  0.2399 -0.0241
  267MOL0     O35115   1.858   6.733   6.440 -0.1068 -0.1469 -0.3623
  267MOL0     C35116   1.731   6.716   6.401  0.3279  0.1525 -0.0694
  267MOL0     C35117   1.638   6.670   6.498 -0.4333  0.5370  0.1790
  267MOL0     C35118   1.503   6.653   6.462  0.0112 -0.0082 -0.2932
  267MOL0     C35119   1.462   6.676   6.327  0.0167 -0.5767  0.4103
  267MOL0     O35120   1.336   6.645   6.293  0.5482 -0.5751 -0.1780
  267MOL0     C35121   1.246   6.746   6.342 -1.0748  0.7044 -0.1907
  267MOL0     C35122   1.117   6.667   6.368 -0.3137  0.2136 -0.0955
  267MOL0     C35123   1.029   6.637   6.240 -0.2405  0.2625 -0.4453
  267MOL0     C35124   0.882   6.590   6.294 -0.0920  1.4159  0.6049
  267MOL0     C35125   0.797   6.559   6.173 -0.2588  1.1907  0.5717
  267MOL0     C35126   0.659   6.505   6.203  0.9201  0.7143  0.1102
  267MOL0     C35127   0.565   6.468   6.085  0.4907 -0.3597 -1.0207
  267MOL0     C35128   0.415   6.469   6.119  0.3299 -0.7454  0.3167
  267MOL0     N35129   0.367   6.352   6.186 -0.1402 -0.0263 -0.6406
  267MOL0     C35130   0.238   6.306   6.192  0.2970 -0.6143 -0.0889
  267MOL0     C35131   0.235   6.203   6.281 -0.3270 -0.5986  0.1185
  267MOL0     C35132   0.105   6.139   6.328 -0.1515  0.3382 -0.5458
  267MOL0     C35133   0.106   5.986   6.381 -0.0852 -0.4514 -0.2908
  267MOL0     C35134   0.072   5.888   6.275 -0.0279  0.8432 -0.4581
  267MOL0     C35135   0.047   5.752   6.341  0.1826 -0.5228  0.0808
  267MOL0     O35136  -0.054   5.775   6.447 -0.1110 -0.3314  0.1923
  267MOL0     C35137  -0.187   5.803   6.420 -0.1565 -0.1701  0.2689
  267MOL0     C35138  -0.271   5.839   6.528  0.6534  0.0201  0.6184
  267MOL0     C35139  -0.398   5.886   6.503  0.3129 -0.9617 -0.2406
  267MOL0     C35140  -0.454   5.881   6.377 -0.1327  0.2033 -0.1326
  267MOL0     C35141  -0.593   5.929   6.365  0.3798 -0.0404 -0.3152
  267MOL0     O35142  -0.646   5.987   6.478 -0.0361  0.1092 -0.0034
  267MOL0     C35143  -0.780   6.029   6.476  0.8248  0.1277 -0.5127
  267MOL0     C35144  -0.887   5.942   6.523  0.6016 -1.1624 -0.2844
  267MOL0     C35145  -1.019   5.983   6.521 -0.3127  0.2260  0.1991
  267MOL0     C35146  -1.055   6.103   6.463  0.3498 -0.9743  0.1515
  267MOL0     O35147  -1.179   6.169   6.448 -0.7303 -0.1620 -0.0528
  267MOL0     C35148  -1.290   6.084   6.487  0.0985 -0.3508  0.3616
  267MOL0     C35149  -1.309   6.098   6.644 -0.5528 -0.0409  1.1228
  267MOL0     C35150  -1.445   6.025   6.682 -1.3644  0.0135  0.2423
  267MOL0     C35151  -1.475   6.052   6.830  0.7229  0.1240 -0.1490
  267MOL0     C35152  -1.608   5.983   6.891  0.0546 -0.1921 -0.4504
  267MOL0     C35153  -1.663   6.049   7.019  0.8484 -0.2257 -0.4025
  267MOL0     C35154  -1.798   5.979   7.058  0.3571 -0.3112  0.3671
  267MOL0     C35155  -1.822   6.018   7.206  0.2887 -0.4063  0.3145
  267MOL0    Cl35156  -1.708   5.929   7.305 -0.0504 -0.0922 -0.4803
  267MOL0     C35157  -0.956   6.192   6.425 -0.4086 -0.3512 -0.3006
  267MOL0     C35158  -0.820   6.152   6.420 -0.1063  0.2439 -1.1286
  267MOL0     O35159  -0.657   5.916   6.256 -0.3782 -0.2197  0.1489
  267MOL0     C35160  -0.379   5.847   6.266  0.6479  0.6530 -0.7135
  267MOL0     C35161  -0.244   5.813   6.291 -0.0374  0.4723 -0.7428
  267MOL0     N35162   0.362   6.182   6.327 -0.9832 -0.2815  0.5638
  267MOL0     N35163   0.437   6.273   6.274 -0.1262  0.3832  0.4068
  267MOL0     C35164   1.555   6.732   6.244 -0.6141 -0.3896  0.9486
  267MOL0     C35165   1.689   6.733   6.272 -0.4401  0.4929 -0.2306
  267MOL0     C35166   2.090   6.746   6.378  0.3706 -0.4632 -0.8244
  267MOL0     C35167   2.106   6.875   6.438 -0.4729  0.1274  0.0085
  267MOL0     C35168   2.231   6.927   6.446  0.2093 -0.5021 -0.2062
  267MOL0     C35169   2.344   6.865   6.390 -0.0023 -0.3227 -0.3412
  267MOL0     O35170   2.476   6.900   6.383  0.1358  0.6634 -0.3760
  267MOL0     C35171   2.511   7.037   6.408  0.2090 -0.2138  0.0216
  267MOL0     C35172   2.660   7.061   6.358  0.1319 -0.1349  0.3563
  267MOL0     C35173   2.781   6.975   6.413  0.3011  0.2901 -0.0157
  267MOL0     C35174   2.920   7.011   6.353 -0.4269 -0.4486  0.6416
  267MOL0     C35175   2.943   6.945   6.225  0.2023  0.4223  0.1124
  267MOL0     C35176   2.982   6.920   6.112  0.3457  0.3646 -0.4458
  267MOL0     C35177   2.319   6.737   6.333 -0.2110  0.0162  0.3361
  267MOL0     C35178   2.195   6.683   6.326  0.0806  0.6335  0.7070
  267MOL0     H35179   1.681   6.660   6.597  1.3501 -0.0669 -0.6078
  267MOL0     H35180   1.444   6.595   6.531  2.5726 -3.1674 -0.5524
  267MOL0     H35181   1.238   6.825   6.266 -0.5210  0.3783 -0.5978
  267MOL0     H35182   1.276   6.797   6.434  1.4495  1.2902 -1.2475
  267MOL0     H35183   1.053   6.732   6.427 -0.3386  2.9781 -2.8900
  267MOL0     H35184   1.147   6.578   6.424  0.0638  0.7727  0.5892
  267MOL0     H35185   1.085   6.566   6.177  1.7598 -0.7956  2.3228
  267MOL0     H35186   1.021   6.732   6.186  1.7322  1.4381  1.1912
  267MOL0     H35187   0.901   6.504   6.360  0.8477  0.7843 -0.4547
  267MOL0     H35188   0.831   6.667   6.353  1.5728  1.5946  1.9012
  267MOL0     H35189   0.842   6.470   6.127  0.8180  0.5601  2.7148
  267MOL0     H35190   0.809   6.643   6.105  0.3554 -0.3958 -1.4012
  267MOL0     H35191   0.604   6.581   6.257 -0.2363  0.9702 -1.3568
  267MOL0     H35192   0.659   6.413   6.263 -1.2047  0.6998  0.1417
  267MOL0     H35193   0.580   6.541   6.005  1.5990 -0.1592 -0.6469
  267MOL0     H35194   0.585   6.368   6.047  1.5630 -2.2417  3.7701
  267MOL0     H35195   0.355   6.476   6.028 -2.3754  0.2892  2.0464
  267MOL0     H35196   0.373   6.550   6.179  1.1569  1.5318 -1.9853
  267MOL0     H35197   0.154   6.353   6.143  2.0147  1.0441 -1.6065
  267MOL0     H35198   0.027   6.143   6.252 -2.6417  1.7895  1.8939
  267MOL0     H35199   0.072   6.204   6.410 -1.1238 -0.4232 -0.3204
  267MOL0     H35200   0.030   6.005   6.458  0.0907 -0.5596 -0.0898
  267MOL0     H35201   0.202   5.953   6.421 -0.1658 -3.9758 -2.5631
  267MOL0     H35202  -0.008   5.924   6.209 -0.3143  0.2190 -0.4595
  267MOL0     H35203   0.163   5.869   6.218 -1.3872 -2.3256 -1.7921
  267MOL0     H35204   0.137   5.719   6.393  1.0018  3.1073  1.2064
  267MOL0     H35205   0.018   5.676   6.267  3.2627 -1.7134 -0.0781
  267MOL0     H35206  -0.221   5.851   6.623  3.1070  2.1997 -0.8032
  267MOL0     H35207  -0.452   5.905   6.594 -0.3403  0.3041 -0.8674
  267MOL0     H35208  -0.866   5.842   6.558 -0.6374 -1.6617 -0.9337
  267MOL0     H35209  -1.086   5.911   6.566  0.8604 -0.7134  0.5078
  267MOL0     H35210  -1.273   5.985   6.445  0.5981  0.6171 -1.8613
  267MOL0     H35211  -1.382   6.121   6.440 -0.8004 -0.2927  2.0672
  267MOL0     H35212  -1.305   6.201   6.680  1.7104  0.4783 -0.3915
  267MOL0     H35213  -1.224   6.045   6.689  2.0538  2.8685 -0.0805
  267MOL0     H35214  -1.444   5.916   6.675 -1.7883  0.0387 -0.3359
  267MOL0     H35215  -1.531   6.046   6.618  1.1572  0.7725 -3.2055
  267MOL0     H35216  -1.393   6.013   6.891 -0.3662 -0.4464  0.9969
  267MOL0     H35217  -1.477   6.160   6.850  0.0307  0.0307  0.3212
  267MOL0     H35218  -1.600   5.874   6.890 -2.8974 -0.5409 -3.2727
  267MOL0     H35219  -1.678   6.004   6.810 -3.2566  1.7486  2.6392
  267MOL0     H35220  -1.687   6.152   6.994  0.3003 -0.8026 -2.4193
  267MOL0     H35221  -1.590   6.040   7.101 -1.4800 -4.1504  1.5540
  267MOL0     H35222  -1.882   6.010   6.995 -1.4500 -1.7579  1.9281
  267MOL0     H35223  -1.789   5.871   7.070  0.9270 -0.3514 -0.3299
  267MOL0     H35224  -1.921   5.987   7.242  0.8916 -0.1291  2.3506
  267MOL0     H35225  -1.812   6.124   7.229 -0.6238 -0.2094 -0.1767
  267MOL0     H35226  -0.998   6.286   6.390 -0.7141 -0.4170 -0.1141
  267MOL0     H35227  -0.741   6.220   6.388 -0.4756  1.4582  0.4022
  267MOL0     H35228  -0.428   5.850   6.170 -1.8843  2.2476  0.5145
  267MOL0     H35229  -0.172   5.781   6.216  0.7483 -2.6178  1.1469
  267MOL0     H35230   1.530   6.753   6.140 -1.9281  3.9554  1.9259
  267MOL0     H35231   1.762   6.761   6.197 -0.4079 -2.6680 -1.5299
  267MOL0     H35232   2.018   6.928   6.474 -1.0331 -1.2746  0.8098
  267MOL0     H35233   2.256   7.018   6.499 -0.9874 -0.5977  0.5539
  267MOL0     H35234   2.497   7.059   6.515 -1.6558  1.1404 -0.4652
  267MOL0     H35235   2.440   7.109   6.367 -0.5542 -0.3831  1.0077
  267MOL0     H35236   2.655   7.061   6.248 -0.7753  1.3781  0.3663
  267MOL0     H35237   2.674   7.169   6.372  1.0503 -0.0069 -1.2487
  267MOL0     H35238   2.754   6.869   6.403 -0.7572  0.6174 -0.8699
  267MOL0     H35239   2.790   7.009   6.517 -0.8993  1.5192 -0.2806
  267MOL0     H35240   2.941   7.119   6.354 -0.9358 -0.3488  0.9054
  267MOL0     H35241   2.999   6.982   6.422 -0.0375 -3.3457 -0.8575
  267MOL0     H35242   3.005   6.881   6.015  0.1878 -3.0604  0.7598
  267MOL0     H35243   2.401   6.693   6.278 -1.6156  2.0718 -3.8526
  267MOL0     H35244   2.193   6.596   6.261  2.8951 -0.1849  1.5833
  268MOL0     O35245   5.192   9.099   9.512  0.0459  0.0697 -0.2074
  268MOL0     C35246   5.292   9.114   9.580  0.7589 -0.2618 -0.1585
  268MOL0     O35247   5.289   9.147   9.717 -0.0398 -0.6410  1.1196
  268MOL0     C35248   5.169   9.151   9.784 -0.7751 -0.5965  0.1730
  268MOL0     C35249   5.140   9.062   9.889  0.3244 -0.0397 -0.8751
  268MOL0     C35250   5.017   9.051   9.951 -0.1346 -0.0726  0.4674
  268MOL0     C35251   4.906   9.124   9.907  0.2915  0.2246 -0.0455
  268MOL0     O35252   4.770   9.107   9.937  1.8045  0.5799  0.3977
  268MOL0     C35253   4.749   9.011  10.043  1.1578  1.1959  0.5330
  268MOL0     C35254   4.599   9.011  10.089  0.0939  0.5132 -0.3607
  268MOL0     C35255   4.577   8.919  10.218  0.0610  0.1995  0.9851
  268MOL0     C35256   4.448   8.838  10.196 -0.7372 -0.5065  0.9092
  268MOL0     C35257   4.396   8.793  10.327  0.2150  0.0598 -0.3603
  268MOL0     C35258   4.275   8.711  10.312  0.6305  0.0328  0.7990
  268MOL0     C35259   4.197   8.701  10.444  0.1364 -0.1879  0.7066
  268MOL0     C35260   4.087   8.598  10.440  0.8373 -0.6578  0.2619
  268MOL0     N35261   3.966   8.651  10.372  0.2089  0.4386 -0.0650
  268MOL0     C35262   3.959   8.681  10.237 -0.5679 -0.3574  0.3568
  268MOL0     C35263   3.836   8.733  10.222 -0.1953 -0.8574  0.3040
  268MOL0     C35264   3.783   8.768  10.083 -1.4311 -0.3013  0.8381
  268MOL0     C35265   3.665   8.853  10.065  0.6254 -0.3320  0.6933
  268MOL0     C35266   3.545   8.792  10.138  0.9420 -0.4479  0.1431
  268MOL0     C35267   3.412   8.835  10.075  0.4938 -0.4136 -0.5295
  268MOL0     O35268   3.404   8.980  10.082  0.1958  0.4469  0.6751
  268MOL0     C35269   3.295   9.043  10.027  0.4794  0.1915 -0.3451
  268MOL0     C35270   3.190   8.982   9.961  0.7930  0.0719 -1.0344
  268MOL0     C35271   3.077   9.056   9.917  0.9795  0.2905  0.0091
  268MOL0     C35272   3.063   9.191   9.937 -0.4072  0.1643 -0.1935
  268MOL0     C35273   2.946   9.267   9.901  0.3985  0.2832 -0.5551
  268MOL0     O35274   2.835   9.182   9.878 -0.7485  0.4127 -0.3168
  268MOL0     C35275   2.701   9.237   9.881 -0.5617 -0.4414  0.1246
  268MOL0     C35276   2.669   9.303   9.765  0.6108 -0.7901 -0.4918
  268MOL0     C35277   2.531   9.351   9.756 -0.5679  0.0555  0.1749
  268MOL0     C35278   2.430   9.326   9.843 -0.2158 -0.0753 -0.4040
  268MOL0     O35279   2.300   9.382   9.831  0.2707 -0.0481 -0.5404
  268MOL0     C35280   2.183   9.331   9.893  0.7643 -0.0622 -0.2535
  268MOL0     C35281   2.055   9.416   9.889 -0.2483  0.5014  0.3901
  268MOL0     C35282   1.934   9.336   9.952 -0.0903 -0.2584 -0.3380
  268MOL0     C35283   1.810   9.413   9.911  0.2455  0.2039  0.0910
  268MOL0     C35284   1.675   9.354   9.953 -0.0982  0.6539  0.3013
  268MOL0     C35285   1.557   9.438   9.909 -0.0024 -0.3487  0.7247
  268MOL0     C35286   1.527   9.429   9.763 -0.4232  0.3157 -0.1787
  268MOL0     C35287   1.399   9.498   9.722  0.5067  0.1512  0.6059
  268MOL0    Cl35288   1.399   9.668   9.765 -0.3780  0.4670  0.3209
  268MOL0     C35289   2.468   9.257   9.967 -0.3500  0.4951  0.1437
  268MOL0     C35290   2.606   9.222   9.982 -0.1241  0.7818  0.8729
  268MOL0     O35291   2.943   9.392   9.891 -0.0869 -0.3748  0.8130
  268MOL0     C35292   3.165   9.253  10.001  0.8136 -1.1774  1.0472
  268MOL0     C35293   3.279   9.180  10.041 -0.8577  0.0977  0.0383
  268MOL0     N35294   3.764   8.727  10.342 -0.2050  0.4244  0.2547
  268MOL0     N35295   3.846   8.696  10.433 -1.0088 -0.0569 -0.1067
  268MOL0     C35296   4.925   9.201   9.789  0.0858  0.0719  0.2870
  268MOL0     C35297   5.055   9.218   9.733  0.5601  0.4151  0.4702
  268MOL0     C35298   5.423   9.100   9.516  0.0058 -1.1101  0.9823
  268MOL0     C35299   5.541   9.094   9.591 -0.3967  0.4411 -0.4697
  268MOL0     C35300   5.667   9.077   9.527  0.4187  0.3028  0.0635
  268MOL0     C35301   5.675   9.082   9.387  0.7184  0.3063  0.6109
  268MOL0     O35302   5.791   9.068   9.323  0.4776 -0.6982  0.7250
  268MOL0     C35303   5.803   8.968   9.216  0.8332 -0.6669 -0.3249
  268MOL0     C35304   5.949   8.955   9.173 -0.1213 -0.3130  0.7182
  268MOL0     C35305   6.051   8.902   9.288 -0.6108  0.4394 -0.1748
  268MOL0     C35306   5.994   8.802   9.391 -0.0618 -0.5037  0.4562
  268MOL0     C35307   6.109   8.766   9.472  0.2989 -0.2743  0.0712
  268MOL0     C35308   6.213   8.742   9.527  0.1478  0.2423 -0.2507
  268MOL0     C35309   5.566   9.097   9.308 -0.4644 -1.3411 -0.0012
  268MOL0     C35310   5.445   9.114   9.379 -0.1929  0.2404  0.6757
  268MOL0     H35311   5.224   9.017   9.939  0.2592 -2.8507 -3.0793
  268MOL0     H35312   5.015   8.971  10.024 -0.8357  0.6392  1.2494
  268MOL0     H35313   4.818   9.043  10.122  3.1917 -0.4201 -0.4857
  268MOL0     H35314   4.779   8.911  10.010  2.7859  2.2315 -1.3862
  268MOL0     H35315   4.540   8.957  10.015 -1.7501  0.6651  0.9327
  268MOL0     H35316   4.557   9.110  10.110 -3.1207 -0.8122 -0.0221
  268MOL0     H35317   4.565   8.987  10.303 -3.7555  2.0466 -0.7670
  268MOL0     H35318   4.663   8.853  10.214  0.9100  1.2266 -3.3228
  268MOL0     H35319   4.370   8.887  10.138  1.5255 -1.2161 -3.1111
  268MOL0     H35320   4.474   8.749  10.139  3.5030  0.9264  0.2145
  268MOL0     H35321   4.373   8.886  10.380  1.7667  0.1759  0.1581
  268MOL0     H35322   4.476   8.737  10.377 -1.0610 -2.8822 -1.3980
  268MOL0     H35323   4.307   8.611  10.283  1.5605 -0.4352  3.2312
  268MOL0     H35324   4.214   8.746  10.227 -0.4859  0.6336  1.8211
  268MOL0     H35325   4.280   8.673  10.510  0.7315  1.1356  0.5574
  268MOL0     H35326   4.150   8.794  10.477 -0.1912 -1.5267  4.5124
  268MOL0     H35327   4.062   8.557  10.539 -0.6168 -3.2658 -1.0940
  268MOL0     H35328   4.116   8.509  10.385 -2.0355 -0.9904 -0.8997
  268MOL0     H35329   4.041   8.678  10.166 -0.3643 -1.7827  0.6251
  268MOL0     H35330   3.773   8.674  10.027  3.4192 -1.7248  1.8981
  268MOL0     H35331   3.865   8.827  10.043 -0.6729 -0.8475  1.5524
  268MOL0     H35332   3.640   8.861   9.959  0.3619 -2.3846  0.5476
  268MOL0     H35333   3.700   8.943  10.115  2.5401 -0.2169 -0.7544
  268MOL0     H35334   3.562   8.684  10.146 -4.3970 -1.5993 -0.3853
  268MOL0     H35335   3.532   8.834  10.238  2.5505  2.7044 -0.8234
  268MOL0     H35336   3.336   8.780  10.132 -1.1806 -0.4841 -2.6749
  268MOL0     H35337   3.407   8.793   9.974  1.6486 -2.0692  0.0691
  268MOL0     H35338   3.184   8.874   9.949  0.7814 -0.2380  1.2739
  268MOL0     H35339   2.997   8.993   9.880 -0.8135  1.0432  2.3128
  268MOL0     H35340   2.745   9.322   9.689  0.3206  2.6770 -0.0617
  268MOL0     H35341   2.506   9.420   9.676 -0.2450  2.9850  2.4415
  268MOL0     H35342   2.202   9.299   9.996  1.9198 -0.0778 -0.4565
  268MOL0     H35343   2.165   9.238   9.839  2.1421 -1.9647  2.2918
  268MOL0     H35344   2.036   9.442   9.784 -1.7420  0.9273  0.7400
  268MOL0     H35345   2.086   9.505   9.944  2.5170 -0.0382 -0.1668
  268MOL0     H35346   1.952   9.345  10.060  0.7122 -0.0707 -0.4870
  268MOL0     H35347   1.941   9.227   9.949  0.5774 -0.2371  0.1321
  268MOL0     H35348   1.817   9.517   9.942 -3.1692  0.7017 -0.4585
  268MOL0     H35349   1.819   9.415   9.802  1.6543 -0.2032  0.1727
  268MOL0     H35350   1.678   9.349  10.062  3.0904 -2.3252  0.2491
  268MOL0     H35351   1.657   9.254   9.911 -0.4388  0.8362  0.0091
  268MOL0     H35352   1.579   9.542   9.935  2.1849 -0.7089  0.4763
  268MOL0     H35353   1.478   9.394   9.971  1.5571 -0.5701  2.6320
  268MOL0     H35354   1.601   9.471   9.693  2.5552 -0.2256  2.3861
  268MOL0     H35355   1.532   9.321   9.746 -1.0571  0.1017  0.9150
  268MOL0     H35356   1.317   9.448   9.774  1.6717 -1.5235  0.9060
  268MOL0     H35357   1.382   9.475   9.617 -2.6617 -3.2334  1.6223
  268MOL0     H35358   2.390   9.218  10.032  0.3100  0.5545  0.9811
  268MOL0     H35359   2.635   9.148  10.057 -3.7284 -0.3537  1.3450
  268MOL0     H35360   3.162   9.360  10.018 -1.3955 -1.0049 -0.0609
  268MOL0     H35361   3.368   9.218  10.090 -0.0554  0.6098 -1.7193
  268MOL0     H35362   4.837   9.246   9.746  0.2303  1.4480  1.3572
  268MOL0     H35363   5.050   9.276   9.641  0.9318  1.4163  1.0635
  268MOL0     H35364   5.541   9.093   9.700 -3.1918  0.9194 -0.3978
  268MOL0     H35365   5.759   9.081   9.585  1.6489 -2.6366 -1.4413
  268MOL0     H35366   5.749   8.998   9.125 -2.9906 -0.9983  1.6594
  268MOL0     H35367   5.765   8.868   9.235  4.2620 -2.1548 -0.5719
  268MOL0     H35368   5.950   8.883   9.091 -1.3942  2.0872 -1.5560
  268MOL0     H35369   5.985   9.051   9.134 -1.0423  0.1415  0.9520
  268MOL0     H35370   6.084   8.994   9.337  0.7383  0.2390 -0.6648
  268MOL0     H35371   6.132   8.857   9.229 -0.6979  1.3549 -1.0279
  268MOL0     H35372   5.918   8.851   9.451 -0.3027  1.1704 -1.1307
  268MOL0     H35373   5.950   8.716   9.339  0.8420  0.2585 -1.7098
  268MOL0     H35374   6.308   8.724   9.573  1.2451  3.4049 -1.0060
  268MOL0     H35375   5.571   9.113   9.201  1.6680  1.3764  0.3962
  268MOL0     H35376   5.363   9.140   9.312  2.1945  2.5100 -1.6247
  269MOL0     O35377   3.186   4.638   1.345  0.0349  0.4143  0.4615
  269MOL0     C35378   3.255   4.562   1.284 -0.0507  0.1645 -0.1701
  269MOL0     O35379   3.208   4.450   1.222  0.5522 -0.3089 -0.1329
  269MOL0     C35380   3.082   4.444   1.175 -0.0117 -0.8732 -0.3300
  269MOL0     C35381   2.960   4.466   1.255 -0.6442  0.2491 -0.2456
  269MOL0     C35382   2.834   4.429   1.206  0.1145 -0.1822  0.1949
  269MOL0     C35383   2.824   4.393   1.076 -0.1300  0.1608  0.4972
  269MOL0     O35384   2.690   4.374   1.036  0.1838 -0.5563  0.2474
  269MOL0     C35385   2.653   4.299   0.920 -0.7828 -0.3106 -0.6068
  269MOL0     C35386   2.498   4.289   0.906 -0.8173  0.1227  0.2320
  269MOL0     C35387   2.434   4.190   1.008 -0.9965  0.1255 -0.4908
  269MOL0     C35388   2.292   4.219   1.045 -0.2384  0.6732 -0.2420
  269MOL0     C35389   2.193   4.210   0.923 -0.9828  0.7505  0.4850
  269MOL0     C35390   2.046   4.172   0.971  0.2402 -0.0868 -0.6175
  269MOL0     C35391   1.994   4.287   1.047 -0.3564 -0.5026 -0.1526
  269MOL0     C35392   1.844   4.269   1.071  0.3422 -0.0577  0.1117
  269MOL0     N35393   1.788   4.379   1.149 -0.3788 -1.0827 -0.5016
  269MOL0     C35394   1.652   4.396   1.173 -0.3623  0.4874  0.2028
  269MOL0     C35395   1.638   4.495   1.264  0.2308 -0.7159  0.3442
  269MOL0     C35396   1.515   4.564   1.317 -0.5044  0.0582  0.5628
  269MOL0     C35397   1.442   4.485   1.425  1.0861  0.0764 -0.4207
  269MOL0     C35398   1.347   4.574   1.495  0.7884  0.5952 -0.2645
  269MOL0     C35399   1.227   4.611   1.410  0.6586 -0.4137  0.7368
  269MOL0     O35400   1.144   4.493   1.395  0.3450  0.4090 -0.2723
  269MOL0     C35401   1.012   4.515   1.369  0.2740 -0.3786 -0.9267
  269MOL0     C35402   0.977   4.624   1.287 -0.0034  0.3899  0.5996
  269MOL0     C35403   0.842   4.647   1.249  0.7266 -0.2776  0.2517
  269MOL0     C35404   0.730   4.556   1.294 -0.7490 -0.3425  0.2159
  269MOL0     C35405   0.588   4.585   1.253 -0.9428 -0.2159  0.8453
  269MOL0     O35406   0.493   4.509   1.306  1.2796  0.5127  0.4118
  269MOL0     C35407   0.361   4.499   1.267  0.2779 -0.0810  0.7904
  269MOL0     C35408   0.320   4.523   1.138 -0.1153  0.7229 -0.3185
  269MOL0     C35409   0.185   4.525   1.102  0.0997  0.1318  0.2658
  269MOL0     C35410   0.084   4.500   1.200  0.2028  0.4680  0.1827
  269MOL0     O35411  -0.053   4.508   1.198  0.1551  0.3023  0.2675
  269MOL0     C35412  -0.123   4.531   1.077  0.1198 -0.0239  0.5819
  269MOL0     C35413  -0.274   4.512   1.073 -0.0308  0.1121 -0.0919
  269MOL0     C35414  -0.310   4.367   1.112 -0.4640  0.6456  0.5443
  269MOL0     C35415  -0.465   4.358   1.103 -0.6317  0.1983 -0.0926
  269MOL0     C35416  -0.529   4.210   1.109  0.4693  0.8925  0.0203
  269MOL0     C35417  -0.511   4.148   1.247 -0.4292 -0.4237 -0.5487
  269MOL0     C35418  -0.613   4.043   1.272 -0.7100 -0.4474 -0.2955
  269MOL0     C35419  -0.575   3.957   1.395  0.4977 -0.3867  0.6838
  269MOL0    Cl35420  -0.670   3.814   1.397  0.5748  0.1017 -0.0484
  269MOL0     C35421   0.122   4.451   1.318 -0.3576  0.1366 -1.2145
  269MOL0     C35422   0.260   4.457   1.356 -1.1645  1.2951  0.0045
  269MOL0     O35423   0.571   4.668   1.160 -0.5283 -0.1582 -0.4448
  269MOL0     C35424   0.767   4.446   1.383  1.2841  0.5876 -0.3001
  269MOL0     C35425   0.908   4.425   1.405  0.5422 -0.7952  0.2510
  269MOL0     N35426   1.768   4.546   1.282  0.3309 -0.0980 -0.2025
  269MOL0     N35427   1.856   4.477   1.215 -0.3209 -0.5370  0.0679
  269MOL0     C35428   2.941   4.382   0.984  0.7800 -0.5070 -0.7756
  269MOL0     C35429   3.069   4.413   1.042  0.1532  0.1603  1.0058
  269MOL0     C35430   3.402   4.572   1.306 -0.0287  0.1332 -0.0759
  269MOL0     C35431   3.485   4.476   1.251  0.6249 -0.0349 -0.0372
  269MOL0     C35432   3.622   4.480   1.267 -1.0282  0.6951 -0.5659
  269MOL0     C35433   3.688   4.584   1.326  0.9242  0.3297 -1.5565
  269MOL0     O35434   3.818   4.574   1.326 -0.2620 -0.0023  0.3945
  269MOL0     C35435   3.892   4.657   1.420  0.4145 -0.7385 -0.6251
  269MOL0     C35436   4.048   4.647   1.400  0.0098  0.1510  0.2681
  269MOL0     C35437   4.102   4.507   1.365  0.5083  0.2649 -0.3475
  269MOL0     C35438   4.258   4.498   1.361  0.0936 -0.6307  0.3180
  269MOL0     C35439   4.336   4.598   1.440  0.2495 -0.3163 -0.6727
  269MOL0     C35440   4.396   4.686   1.494  0.0346 -0.1332  0.6774
  269MOL0     C35441   3.603   4.684   1.394  0.0691 -0.1334 -0.5549
  269MOL0     C35442   3.460   4.669   1.386 -0.5565  0.1976 -0.0028
  269MOL0     H35443   2.980   4.483   1.360 -3.5246 -4.6349  1.4487
  269MOL0     H35444   2.749   4.433   1.272  0.4074  2.5215  0.4958
  269MOL0     H35445   2.693   4.198   0.931 -0.9699 -0.0872  3.1068
  269MOL0     H35446   2.703   4.350   0.837  1.6478 -1.0855  0.2944
  269MOL0     H35447   2.479   4.245   0.808 -0.8118 -0.1197  0.3407
  269MOL0     H35448   2.464   4.393   0.900  2.6365  1.3303 -0.3099
  269MOL0     H35449   2.490   4.195   1.102  1.1642 -0.0762 -1.7086
  269MOL0     H35450   2.451   4.087   0.976  2.0263  0.4464 -0.1597
  269MOL0     H35451   2.245   4.143   1.108 -1.7449  0.7079 -1.2624
  269MOL0     H35452   2.278   4.323   1.078  1.9633  0.8069  0.4349
  269MOL0     H35453   2.223   4.129   0.857 -1.0810  0.1003  1.2154
  269MOL0     H35454   2.194   4.306   0.871 -1.9087 -0.1400 -1.2556
  269MOL0     H35455   2.043   4.086   1.039 -2.3686  0.9116  0.6422
  269MOL0     H35456   1.989   4.152   0.881 -0.1424 -1.3453 -0.1158
  269MOL0     H35457   2.045   4.306   1.143  1.6428  1.9970 -1.5806
  269MOL0     H35458   2.008   4.381   0.992  1.4873  1.1884  2.9016
  269MOL0     H35459   1.823   4.170   1.113 -0.9388 -0.5155 -1.4929
  269MOL0     H35460   1.805   4.267   0.969  0.6944 -1.5202 -0.0200
  269MOL0     H35461   1.570   4.361   1.111  0.5944  1.7853 -1.9135
  269MOL0     H35462   1.444   4.579   1.235 -1.3643 -1.5546  0.9796
  269MOL0     H35463   1.547   4.664   1.351 -0.2688 -0.2772  1.3543
  269MOL0     H35464   1.516   4.449   1.497 -0.5351  0.6953  1.6416
  269MOL0     H35465   1.385   4.402   1.382  0.4796 -0.5522  1.5347
  269MOL0     H35466   1.313   4.498   1.566  1.0405 -0.5887 -1.3754
  269MOL0     H35467   1.392   4.659   1.547  1.4864 -0.8030  1.5269
  269MOL0     H35468   1.250   4.644   1.309 -0.8109 -1.7032 -0.0613
  269MOL0     H35469   1.182   4.694   1.467  3.7978  2.8400 -1.1308
  269MOL0     H35470   1.056   4.689   1.249 -1.6150  1.7102 -0.6364
  269MOL0     H35471   0.808   4.731   1.188 -0.3139 -0.8376  0.0445
  269MOL0     H35472   0.390   4.564   1.066  1.3764  0.4310  0.9196
  269MOL0     H35473   0.154   4.573   1.009  2.2340  5.6746  2.0266
  269MOL0     H35474  -0.072   4.473   1.000 -0.4096  3.3586 -2.6063
  269MOL0     H35475  -0.106   4.636   1.053 -1.4035 -0.0233 -0.6976
  269MOL0     H35476  -0.307   4.529   0.970 -0.9923  0.9082  0.3245
  269MOL0     H35477  -0.329   4.581   1.137 -1.1302 -0.9832  0.1834
  269MOL0     H35478  -0.269   4.358   1.213 -0.2167  0.5959  0.4387
  269MOL0     H35479  -0.265   4.297   1.041 -0.8712 -1.0261  1.8625
  269MOL0     H35480  -0.495   4.417   1.190  2.9791  1.7267  0.2930
  269MOL0     H35481  -0.495   4.412   1.013  1.3089  0.8306 -0.4013
  269MOL0     H35482  -0.484   4.140   1.038 -0.0458 -1.0678  1.5400
  269MOL0     H35483  -0.635   4.211   1.084  0.4910 -3.1750 -1.0041
  269MOL0     H35484  -0.515   4.225   1.325  1.4833 -1.3182  0.5084
  269MOL0     H35485  -0.409   4.109   1.242 -0.3424 -0.5525  1.3678
  269MOL0     H35486  -0.714   4.081   1.290 -1.0937  0.2804 -3.4524
  269MOL0     H35487  -0.618   3.982   1.181 -0.9775 -5.0966  2.5421
  269MOL0     H35488  -0.602   4.016   1.484 -1.6020 -0.1361 -0.0752
  269MOL0     H35489  -0.470   3.926   1.391  0.4210 -0.6151  0.4172
  269MOL0     H35490   0.044   4.420   1.387 -2.0966  1.6297 -2.4123
  269MOL0     H35491   0.300   4.432   1.453  0.4377  0.2212 -0.8820
  269MOL0     H35492   0.688   4.401   1.442  1.9343  1.6390  1.4284
  269MOL0     H35493   0.938   4.345   1.471  0.3069 -0.4447  0.7914
  269MOL0     H35494   2.941   4.360   0.878 -2.7003  0.9373 -1.1995
  269MOL0     H35495   3.159   4.421   0.982 -0.7139 -0.0597 -0.3482
  269MOL0     H35496   3.446   4.391   1.196  0.2692  1.5837 -2.4571
  269MOL0     H35497   3.693   4.405   1.235  0.0253  1.6337 -0.5029
  269MOL0     H35498   3.870   4.623   1.522 -1.1305 -0.2469 -0.7749
  269MOL0     H35499   3.868   4.763   1.409  2.9172 -0.1582 -1.1219
  269MOL0     H35500   4.091   4.719   1.329  0.6706 -0.7802 -0.2904
  269MOL0     H35501   4.076   4.676   1.501 -1.5082  1.7573  0.2784
  269MOL0     H35502   4.069   4.481   1.264 -0.4072 -1.5524  0.3701
  269MOL0     H35503   4.059   4.429   1.429 -0.2389 -1.1096 -2.3866
  269MOL0     H35504   4.275   4.394   1.394  0.0007 -0.4708  0.8791
  269MOL0     H35505   4.300   4.510   1.261 -0.8697 -3.4201 -0.5062
  269MOL0     H35506   4.438   4.772   1.542 -2.8106  1.7211  0.0935
  269MOL0     H35507   3.645   4.758   1.461  0.9044 -0.9083 -0.2179
  269MOL0     H35508   3.387   4.739   1.426  1.7938  2.8939 -0.1428
  270MOL0     O35509   2.250  11.079   3.326  0.5496 -0.2053 -0.4531
  270MOL0     C35510   2.226  10.986   3.250  0.5815  0.3011 -0.0374
  270MOL0     O35511   2.112  10.976   3.172 -0.1423  0.4060 -0.2902
  270MOL0     C35512   2.015  11.066   3.203  0.0279 -0.7822  0.6750
  270MOL0     C35513   1.927  11.036   3.307  0.5260  0.0787 -0.7718
  270MOL0     C35514   1.831  11.137   3.338  0.3287 -0.3347  0.6830
  270MOL0     C35515   1.829  11.265   3.270  0.1660  0.2909 -0.1656
  270MOL0     O35516   1.722  11.338   3.303 -0.1184 -0.9509 -0.2494
  270MOL0     C35517   1.634  11.384   3.200 -0.4354 -0.9087 -0.6197
  270MOL0     C35518   1.516  11.465   3.247 -0.1370 -0.5905 -0.1372
  270MOL0     C35519   1.420  11.366   3.313  0.4480 -0.4205 -0.3649
  270MOL0     C35520   1.288  11.423   3.358 -0.0249 -0.4390 -0.8749
  270MOL0     C35521   1.189  11.319   3.421 -0.1342  0.0460  0.5039
  270MOL0     C35522   1.249  11.267   3.553  0.1942  0.0734 -0.3178
  270MOL0     C35523   1.131  11.199   3.641  0.1811  0.1171 -0.1926
  270MOL0     C35524   1.185  11.093   3.745 -0.8620 -0.3091 -0.1035
  270MOL0     N35525   1.237  11.155   3.873  0.3212  0.0516  0.6643
  270MOL0     C35526   1.358  11.205   3.894  0.2311  0.0006 -0.8030
  270MOL0     C35527   1.344  11.278   4.007  1.0634  0.3467  0.1201
  270MOL0     C35528   1.449  11.362   4.059 -0.6763  0.0266 -0.5675
  270MOL0     C35529   1.525  11.297   4.171  0.8994 -0.2638  0.4349
  270MOL0     C35530   1.644  11.228   4.116 -0.9020  0.9693  0.1272
  270MOL0     C35531   1.688  11.116   4.213 -0.1184  0.6071 -0.6963
  270MOL0     O35532   1.798  11.042   4.159  0.0407 -0.4600  0.1086
  270MOL0     C35533   1.926  11.086   4.159 -0.3940 -0.4441 -0.0121
  270MOL0     C35534   2.015  10.983   4.151  0.1462 -0.6307 -0.8782
  270MOL0     C35535   2.155  11.009   4.156  0.2934 -0.0783  0.2911
  270MOL0     C35536   2.205  11.146   4.187 -0.4764 -0.6302  0.0096
  270MOL0     C35537   2.349  11.171   4.195  0.4886  0.0127 -0.6339
  270MOL0     O35538   2.433  11.069   4.167 -0.7098  0.1383 -0.1999
  270MOL0     C35539   2.569  11.110   4.161  0.3361  0.1574 -0.1578
  270MOL0     C35540   2.630  11.207   4.091 -0.6453 -1.3087  0.5751
  270MOL0     C35541   2.769  11.205   4.076 -0.0102 -0.5128  0.0630
  270MOL0     C35542   2.856  11.119   4.141  0.9485 -0.4263  0.2885
  270MOL0     O35543   2.988  11.113   4.131  0.2510  0.3224  0.0469
  270MOL0     C35544   3.049  11.237   4.135 -0.9517 -0.4393 -0.9694
  270MOL0     C35545   3.198  11.193   4.134 -0.5348 -0.5217  0.2384
  270MOL0     C35546   3.304  11.302   4.168 -0.5084  0.4170 -0.1653
  270MOL0     C35547   3.440  11.232   4.188 -0.6557 -1.1101 -0.1875
  270MOL0     C35548   3.549  11.339   4.215 -0.2621  0.2747  0.3934
  270MOL0     C35549   3.689  11.269   4.219  1.0843 -0.1764  0.6742
  270MOL0     C35550   3.730  11.193   4.087 -0.4705  0.8581  1.2983
  270MOL0     C35551   3.731  11.268   3.961  0.8441  0.0874 -0.3766
  270MOL0    Cl35552   3.798  11.182   3.813 -0.5750  0.3483  0.1310
  270MOL0     C35553   2.781  11.027   4.221 -0.9915 -0.0206 -0.0865
  270MOL0     C35554   2.647  11.017   4.232  0.2811  0.1476  0.2248
  270MOL0     O35555   2.380  11.289   4.230  0.5028  0.5793  0.4686
  270MOL0     C35556   2.105  11.245   4.197  0.7538  0.6318  0.6720
  270MOL0     C35557   1.973  11.213   4.173  0.1583 -0.0047 -0.5905
  270MOL0     N35558   1.216  11.269   4.055  0.5254  0.1611  0.5380
  270MOL0     N35559   1.149  11.204   3.963 -0.2336  0.2068 -0.5069
  270MOL0     C35560   1.923  11.294   3.168 -0.1071 -0.3222 -0.1665
  270MOL0     C35561   2.022  11.193   3.141  0.5371 -1.7333  0.3851
  270MOL0     C35562   2.323  10.875   3.241  0.6195  0.2024  0.2766
  270MOL0     C35563   2.271  10.741   3.249 -0.0474 -0.4890 -0.0638
  270MOL0     C35564   2.361  10.635   3.258 -0.3955  0.2979  0.4268
  270MOL0     C35565   2.498  10.654   3.258 -0.2320  0.5628  0.0617
  270MOL0     O35566   2.603  10.558   3.275 -0.4220 -0.1660  0.1340
  270MOL0     C35567   2.583  10.425   3.248  0.3403  0.2363 -0.1171
  270MOL0     C35568   2.604  10.397   3.100 -0.1313  0.6251 -0.3282
  270MOL0     C35569   2.633  10.242   3.088  0.5936  0.0267 -0.3966
  270MOL0     C35570   2.518  10.152   3.133 -0.9556  0.0025  0.7063
  270MOL0     C35571   2.398  10.173   3.051  0.4144  0.2154  0.3101
  270MOL0     C35572   2.301  10.174   2.986 -0.6759 -0.7926  0.5377
  270MOL0     C35573   2.545  10.778   3.258  0.0817 -0.9654  0.6124
  270MOL0     C35574   2.468  10.893   3.243  0.5435  0.0437 -0.2110
  270MOL0     H35575   1.915  10.950   3.373 -2.2325  1.3226  0.5324
  270MOL0     H35576   1.758  11.126   3.417  2.0260  2.2679  2.7553
  270MOL0     H35577   1.593  11.311   3.130 -1.4888 -0.4527 -0.5098
  270MOL0     H35578   1.690  11.452   3.135 -2.2481 -1.0969 -2.4788
  270MOL0     H35579   1.466  11.514   3.162 -0.3883  1.9082  1.3424
  270MOL0     H35580   1.551  11.541   3.317  0.6946  0.8029 -1.9848
  270MOL0     H35581   1.480  11.339   3.401  1.1321  3.5163  0.5362
  270MOL0     H35582   1.396  11.286   3.242  1.6941 -0.2102 -1.0490
  270MOL0     H35583   1.303  11.496   3.438  0.7321 -1.6859  0.1568
  270MOL0     H35584   1.250  11.454   3.260  0.9116 -2.6266 -2.0010
  270MOL0     H35585   1.173  11.237   3.350 -2.5427  0.2565  0.7002
  270MOL0     H35586   1.089  11.360   3.440 -1.2499 -2.2274 -0.0645
  270MOL0     H35587   1.283  11.351   3.615 -0.5379 -1.1577  1.8830
  270MOL0     H35588   1.335  11.203   3.530  0.5113 -0.0813  1.1562
  270MOL0     H35589   1.063  11.272   3.686  0.0911  0.1921 -0.4453
  270MOL0     H35590   1.065  11.139   3.577  0.2953 -1.3454  1.0180
  270MOL0     H35591   1.259  11.025   3.703  1.1580  0.8724  1.3679
  270MOL0     H35592   1.097  11.034   3.770 -1.8160  0.6701 -1.0286
  270MOL0     H35593   1.446  11.179   3.836  0.0517  0.1517 -1.1513
  270MOL0     H35594   1.406  11.447   4.114  0.8805  1.2137 -1.1103
  270MOL0     H35595   1.522  11.401   3.988 -2.3700  3.6345 -0.5987
  270MOL0     H35596   1.461  11.230   4.229  1.4001 -0.3742  0.8703
  270MOL0     H35597   1.548  11.378   4.241 -2.4087 -0.6290  2.1282
  270MOL0     H35598   1.614  11.168   4.029  1.0682  1.1113 -0.7152
  270MOL0     H35599   1.717  11.308   4.097 -1.6597  2.4766  3.0877
  270MOL0     H35600   1.621  11.036   4.243  2.5650 -1.1749  1.0411
  270MOL0     H35601   1.712  11.162   4.310 -2.3134 -1.0505  0.7323
  270MOL0     H35602   1.982  10.880   4.143  0.0763 -0.7795  0.8784
  270MOL0     H35603   2.219  10.921   4.158  0.4948 -0.0266 -1.7365
  270MOL0     H35604   2.564  11.265   4.027 -1.3965 -3.6192 -0.8613
  270MOL0     H35605   2.816  11.268   4.001  0.6823  1.1256  1.8171
  270MOL0     H35606   3.024  11.285   4.230  0.7438  0.6364 -1.0350
  270MOL0     H35607   3.031  11.304   4.051  2.3286  0.6416 -0.9424
  270MOL0     H35608   3.221  11.163   4.031  0.9204 -0.5170  0.5327
  270MOL0     H35609   3.205  11.111   4.206 -0.0259  0.0423  0.8443
  270MOL0     H35610   3.279  11.361   4.257  0.9866  0.6823  0.1147
  270MOL0     H35611   3.315  11.380   4.092  4.7986  0.6439  0.4054
  270MOL0     H35612   3.440  11.174   4.281 -3.1001 -0.9713 -0.0595
  270MOL0     H35613   3.454  11.171   4.098 -3.0039 -0.2090 -1.2296
  270MOL0     H35614   3.537  11.407   4.300  1.1312  3.4431 -1.7286
  270MOL0     H35615   3.555  11.406   4.128 -0.1615  2.0200  1.6745
  270MOL0     H35616   3.699  11.213   4.313 -1.4975  2.3109  2.6132
  270MOL0     H35617   3.756  11.350   4.248 -1.4878  0.5115  6.0573
  270MOL0     H35618   3.830  11.153   4.103  0.4595  1.4334 -2.2155
  270MOL0     H35619   3.658  11.111   4.072 -1.7988  2.2656 -0.4230
  270MOL0     H35620   3.779  11.365   3.977  1.3276 -0.1924 -0.1426
  270MOL0     H35621   3.624  11.270   3.935  0.8498 -0.3786 -0.4496
  270MOL0     H35622   2.845  10.968   4.286  0.8855 -2.7203 -4.0582
  270MOL0     H35623   2.598  10.951   4.303 -1.1768 -1.0879 -1.8148
  270MOL0     H35624   2.121  11.347   4.230 -1.2383  1.1058  0.3026
  270MOL0     H35625   1.909  11.299   4.190  1.6957  1.1706 -0.6178
  270MOL0     H35626   1.909  11.386   3.113 -1.5237 -0.8229 -0.6821
  270MOL0     H35627   2.095  11.212   3.064 -0.6113 -1.7392 -0.7442
  270MOL0     H35628   2.167  10.713   3.257 -0.7047  1.5859 -0.9186
  270MOL0     H35629   2.324  10.535   3.281 -0.1694  0.0591 -0.1993
  270MOL0     H35630   2.486  10.385   3.278  1.5783 -0.8556  2.7955
  270MOL0     H35631   2.654  10.369   3.310 -0.7623 -0.4437  0.5681
  270MOL0     H35632   2.513  10.427   3.048 -0.2049  1.6228  0.3404
  270MOL0     H35633   2.691  10.454   3.064 -1.7492  3.1006 -0.5936
  270MOL0     H35634   2.730  10.226   3.135  1.3292 -0.0771 -1.9058
  270MOL0     H35635   2.650  10.219   2.983  0.0008  0.8481 -0.6809
  270MOL0     H35636   2.557  10.055   3.103 -1.9999  0.0326 -0.9266
  270MOL0     H35637   2.501  10.150   3.241 -0.9336  0.1772  0.7138
  270MOL0     H35638   2.199  10.164   2.951 -1.7330  1.3845  2.7280
  270MOL0     H35639   2.652  10.793   3.269  0.4064 -3.8989  2.3863
  270MOL0     H35640   2.512  10.992   3.250  0.3000  0.3696 -2.5830
  271MOL0     O35641   3.941   8.460   1.022 -0.3883 -0.0233  0.5479
  271MOL0     C35642   4.031   8.541   1.029 -0.0660  0.5489  0.9499
  271MOL0     O35643   4.024   8.662   1.083  0.6023  0.4850  0.2270
  271MOL0     C35644   3.910   8.712   1.146 -1.6507  0.6221 -0.1297
  271MOL0     C35645   3.937   8.775   1.267 -0.0495 -0.2424 -0.1958
  271MOL0     C35646   3.828   8.840   1.338 -1.2245  0.5987  0.1423
  271MOL0     C35647   3.693   8.832   1.297 -0.7699  0.1680  0.0424
  271MOL0     O35648   3.610   8.882   1.386 -0.1169  0.5524 -0.1865
  271MOL0     C35649   3.476   8.911   1.349 -0.8317  0.0788  0.3752
  271MOL0     C35650   3.399   8.970   1.463  0.6357 -0.6046 -0.1589
  271MOL0     C35651   3.244   8.972   1.447 -0.3674 -0.5114  0.4984
  271MOL0     C35652   3.176   9.035   1.574 -0.1417  0.6682 -0.4564
  271MOL0     C35653   3.033   9.031   1.554  0.5009 -0.2123  0.5039
  271MOL0     C35654   2.964   9.071   1.685 -0.1535  0.0861 -0.2475
  271MOL0     C35655   2.812   9.105   1.652 -1.3210 -0.4780 -0.2614
  271MOL0     C35656   2.717   9.094   1.772  0.3652  0.0853 -0.7203
  271MOL0     N35657   2.580   9.107   1.727  0.4113  0.1349  0.1481
  271MOL0     C35658   2.507   9.025   1.646 -0.8123 -1.0890 -0.1578
  271MOL0     C35659   2.385   9.063   1.647 -0.1994 -0.5690  0.1037
  271MOL0     C35660   2.273   8.990   1.574  0.8736  0.0764  0.2653
  271MOL0     C35661   2.172   8.939   1.676  0.2165  0.4348  1.0493
  271MOL0     C35662   2.085   9.045   1.738  0.4458 -0.5838  0.8225
  271MOL0     C35663   1.975   8.998   1.828  0.3210  0.3851 -0.2017
  271MOL0     O35664   1.854   8.959   1.749 -0.3919  0.3408  0.1659
  271MOL0     C35665   1.732   8.941   1.811 -0.0404  0.6826 -0.4765
  271MOL0     C35666   1.728   8.896   1.940  0.5398 -0.3298 -0.0790
  271MOL0     C35667   1.601   8.872   1.995 -0.4805 -0.6364 -0.4036
  271MOL0     C35668   1.483   8.877   1.910  0.0954 -0.0012  0.4440
  271MOL0     C35669   1.358   8.840   1.966 -0.5029  0.1766  0.7698
  271MOL0     O35670   1.252   8.832   1.880  0.4841 -0.1267  0.4944
  271MOL0     C35671   1.134   8.800   1.943  1.2475 -0.1181  0.5164
  271MOL0     C35672   1.101   8.677   2.005 -0.2785 -0.1011 -0.2674
  271MOL0     C35673   0.989   8.654   2.080  0.5645 -0.2848 -0.4912
  271MOL0     C35674   0.887   8.745   2.076 -0.0323  0.0623  0.0051
  271MOL0     O35675   0.770   8.709   2.131  0.0360  0.0937 -0.3355
  271MOL0     C35676   0.657   8.712   2.047  0.6542  0.3378  0.5993
  271MOL0     C35677   0.532   8.727   2.133  0.5382 -0.1629  0.3672
  271MOL0     C35678   0.408   8.700   2.053  0.7209 -0.0091  0.6955
  271MOL0     C35679   0.275   8.727   2.133  0.3497  0.0594  0.0891
  271MOL0     C35680   0.152   8.662   2.066  0.3682 -0.6593 -0.1328
  271MOL0     C35681   0.048   8.639   2.178 -0.3043 -0.0594 -0.6823
  271MOL0     C35682  -0.080   8.568   2.128 -0.2711 -0.2536 -0.2773
  271MOL0     C35683  -0.196   8.600   2.228 -0.4326  0.4222  0.4688
  271MOL0    Cl35684  -0.160   8.556   2.395  0.4655 -0.5211 -0.7068
  271MOL0     C35685   0.908   8.875   2.013  0.1564  0.0171 -0.1930
  271MOL0     C35686   1.031   8.900   1.944 -0.2909  0.5313  0.1698
  271MOL0     O35687   1.352   8.818   2.090 -0.3007  0.2066 -0.0042
  271MOL0     C35688   1.495   8.917   1.781 -0.3320 -0.1541 -0.3209
  271MOL0     C35689   1.618   8.946   1.730  0.0306  0.0826  0.3580
  271MOL0     N35690   2.378   9.182   1.717  0.3043  0.3862 -0.3903
  271MOL0     N35691   2.498   9.199   1.773  0.3125  0.0096 -0.1180
  271MOL0     C35692   3.673   8.770   1.179 -0.7728  0.1399 -0.4290
  271MOL0     C35693   3.773   8.711   1.105 -0.3340 -0.9993  0.3813
  271MOL0     C35694   4.165   8.515   0.973  0.5231 -0.3304 -0.2063
  271MOL0     C35695   4.206   8.383   0.931  0.4255  0.2688 -0.0164
  271MOL0     C35696   4.338   8.359   0.892 -0.4471 -0.2971  0.6530
  271MOL0     C35697   4.433   8.459   0.902  1.0736  0.9483  0.3891
  271MOL0     O35698   4.555   8.406   0.869  0.3247  0.1434  0.5146
  271MOL0     C35699   4.654   8.500   0.843 -0.6510  0.6801 -0.0956
  271MOL0     C35700   4.777   8.442   0.776 -0.4939 -0.4495  0.3838
  271MOL0     C35701   4.771   8.397   0.624  0.2456 -0.2661 -0.4183
  271MOL0     C35702   4.892   8.322   0.580 -1.0553  0.4411  0.5896
  271MOL0     C35703   5.012   8.402   0.583 -0.4775 -0.0420  0.3144
  271MOL0     C35704   5.112   8.475   0.583  0.1988  0.5911 -0.5543
  271MOL0     C35705   4.401   8.590   0.934 -0.1464 -0.0916 -0.0451
  271MOL0     C35706   4.264   8.619   0.971  0.1102 -0.0488  0.4648
  271MOL0     H35707   4.032   8.767   1.320 -0.0563  3.3049  0.5994
  271MOL0     H35708   3.847   8.870   1.441 -3.8088 -0.2606  0.9524
  271MOL0     H35709   3.420   8.832   1.297 -0.8262  2.1572 -3.1295
  271MOL0     H35710   3.486   8.986   1.270 -0.5932 -0.2316  0.1050
  271MOL0     H35711   3.429   9.074   1.481 -0.4346 -0.3308  0.0702
  271MOL0     H35712   3.425   8.911   1.552  2.8442 -1.5851 -1.3572
  271MOL0     H35713   3.203   8.871   1.433 -2.2612  0.0063  1.8335
  271MOL0     H35714   3.221   9.027   1.356 -2.4423  0.9321  1.7939
  271MOL0     H35715   3.195   8.971   1.660  1.1879  0.4239 -0.9033
  271MOL0     H35716   3.217   9.133   1.600  1.4499 -0.4939  1.6951
  271MOL0     H35717   2.986   8.939   1.521  0.4617 -0.2101  0.5526
  271MOL0     H35718   3.004   9.107   1.482  0.8773  0.6716  1.2536
  271MOL0     H35719   3.017   9.161   1.717  1.4394 -0.2548 -1.7283
  271MOL0     H35720   2.977   8.993   1.761 -1.3418  0.6745  0.5906
  271MOL0     H35721   2.812   9.211   1.624  2.7759  0.1633  1.4953
  271MOL0     H35722   2.782   9.029   1.580  0.4567 -2.9687  1.4663
  271MOL0     H35723   2.743   9.166   1.850 -0.2512 -2.0999  1.6668
  271MOL0     H35724   2.726   9.003   1.833  1.8394  1.6154  1.5151
  271MOL0     H35725   2.533   8.931   1.598 -0.4352 -0.4914 -1.1586
  271MOL0     H35726   2.306   8.904   1.514 -3.4706 -0.5344 -1.5675
  271MOL0     H35727   2.212   9.059   1.516 -0.1297  0.8984  2.2219
  271MOL0     H35728   2.224   8.876   1.749  1.4403 -0.7351 -0.7553
  271MOL0     H35729   2.103   8.871   1.626  2.9760 -1.7834 -0.0378
  271MOL0     H35730   2.149   9.107   1.801  1.6573  0.2901 -1.1742
  271MOL0     H35731   2.045   9.107   1.657  1.3245 -0.5052  0.4342
  271MOL0     H35732   1.958   9.075   1.904  0.4990 -0.8442  1.1246
  271MOL0     H35733   2.017   8.912   1.881 -1.2703 -1.2414 -1.4454
  271MOL0     H35734   1.820   8.909   1.996  1.4796 -1.0189 -1.4242
  271MOL0     H35735   1.600   8.847   2.101 -0.1398  2.5010  0.4440
  271MOL0     H35736   1.176   8.599   2.008  1.1677  1.2514  1.5019
  271MOL0     H35737   0.980   8.556   2.127  0.7536  0.1710  0.5272
  271MOL0     H35738   0.642   8.618   1.994 -0.0432 -0.3622  1.9866
  271MOL0     H35739   0.649   8.801   1.983  0.3507 -0.2337 -0.1691
  271MOL0     H35740   0.541   8.830   2.167  2.5998  1.8332 -5.0514
  271MOL0     H35741   0.537   8.653   2.214  0.1275 -1.7750 -1.0078
  271MOL0     H35742   0.406   8.595   2.022 -1.6056  0.7744 -2.3005
  271MOL0     H35743   0.404   8.763   1.964 -2.2854  0.7369  1.2177
  271MOL0     H35744   0.291   8.692   2.236  0.0630  1.3566  0.5996
  271MOL0     H35745   0.252   8.833   2.142  0.6307  0.2923 -1.6636
  271MOL0     H35746   0.168   8.563   2.022 -2.5962 -0.5193 -1.8279
  271MOL0     H35747   0.106   8.732   1.995 -0.1876  0.4087  1.2477
  271MOL0     H35748   0.021   8.738   2.214 -2.4194 -1.2564  1.2350
  271MOL0     H35749   0.091   8.579   2.258 -0.3368 -0.8484 -1.2390
  271MOL0     H35750  -0.103   8.595   2.024 -0.6597  0.8821  0.0879
  271MOL0     H35751  -0.062   8.460   2.125 -1.4630 -0.4662 -0.2727
  271MOL0     H35752  -0.279   8.532   2.206  0.9319 -1.0584 -0.3908
  271MOL0     H35753  -0.229   8.704   2.223 -2.7602 -0.2832  0.0083
  271MOL0     H35754   0.831   8.950   2.015  0.4967  0.3904 -0.8944
  271MOL0     H35755   1.038   8.994   1.890 -0.6201 -0.6531 -2.0231
  271MOL0     H35756   1.407   8.928   1.719 -0.6443  3.5609  0.5474
  271MOL0     H35757   1.639   8.956   1.624 -0.3208  3.3352  0.4897
  271MOL0     H35758   3.569   8.780   1.150 -1.6296 -0.4011  2.1737
  271MOL0     H35759   3.741   8.675   1.008 -0.2319  0.7062 -0.3267
  271MOL0     H35760   4.145   8.294   0.926 -0.1533  0.6773 -0.4577
  271MOL0     H35761   4.367   8.258   0.864 -1.0277 -0.2915  0.0012
  271MOL0     H35762   4.690   8.550   0.933 -0.6476  0.8284 -0.1779
  271MOL0     H35763   4.617   8.576   0.773 -1.4230  1.5171  1.1933
  271MOL0     H35764   4.856   8.518   0.777 -0.6706 -0.0119 -3.2888
  271MOL0     H35765   4.811   8.364   0.845 -0.3640 -1.4479 -0.7754
  271MOL0     H35766   4.744   8.485   0.564 -0.5186 -1.7205 -2.3272
  271MOL0     H35767   4.683   8.332   0.618 -0.3958  0.2562  2.2479
  271MOL0     H35768   4.913   8.231   0.636  1.9363 -1.4643 -3.2223
  271MOL0     H35769   4.874   8.283   0.480  1.8492 -2.2065  0.9573
  271MOL0     H35770   5.206   8.522   0.604  0.7986 -0.5792 -0.5434
  271MOL0     H35771   4.469   8.674   0.945 -2.2500  1.6927  0.2634
  271MOL0     H35772   4.233   8.719   0.998  0.6554 -0.0915  1.2827
  272MOL0     O35773   4.769  10.704   0.822  0.2458  0.2370  0.1681
  272MOL0     C35774   4.801  10.773   0.917  0.1491 -1.0098  0.3240
  272MOL0     O35775   4.718  10.862   0.979  0.6635  0.1761 -0.4957
  272MOL0     C35776   4.585  10.853   0.966  0.1928  0.2099  0.6422
  272MOL0     C35777   4.517  10.731   0.978 -1.1255 -0.0532  0.2370
  272MOL0     C35778   4.383  10.722   0.970 -0.4161 -0.7778  0.4365
  272MOL0     C35779   4.303  10.840   0.954 -0.9658  0.2752 -0.5360
  272MOL0     O35780   4.164  10.838   0.953  0.3967 -0.7830  0.1541
  272MOL0     C35781   4.104  10.710   0.973  0.9635  0.9353  0.6021
  272MOL0     C35782   3.955  10.720   0.930  0.2981  0.5566  0.2998
  272MOL0     C35783   3.853  10.752   1.028  0.2384  0.2232 -0.5112
  272MOL0     C35784   3.844  10.904   1.066 -0.5818  1.1761 -0.3231
  272MOL0     C35785   3.716  10.954   0.997  0.1347  0.2046  0.3279
  272MOL0     C35786   3.590  10.908   1.075 -0.9667 -0.5221  0.1478
  272MOL0     C35787   3.470  10.969   1.005  0.4319 -0.5194  0.4629
  272MOL0     C35788   3.337  10.894   1.050 -0.2840 -0.3707  0.9588
  272MOL0     N35789   3.214  10.954   1.009 -0.7599 -0.1976  0.7055
  272MOL0     C35790   3.131  11.034   1.082 -0.3708  0.7119 -0.8122
  272MOL0     C35791   3.038  11.076   1.002  0.6366 -0.7390  0.3209
  272MOL0     C35792   2.933  11.176   1.042  0.3539 -0.5831 -0.6264
  272MOL0     C35793   2.805  11.112   1.019  0.3684 -0.1021 -0.0335
  272MOL0     C35794   2.691  11.209   1.045  0.1396  0.3722  0.2208
  272MOL0     C35795   2.557  11.165   0.985 -0.0629 -0.4905  0.4403
  272MOL0     O35796   2.508  11.055   1.055  0.4030  0.3369  0.6160
  272MOL0     C35797   2.374  11.037   1.037  0.7743  0.5784  1.2339
  272MOL0     C35798   2.308  10.962   1.134  0.0851 -0.2317 -0.1655
  272MOL0     C35799   2.170  10.928   1.122  0.9685  0.6898  0.0534
  272MOL0     C35800   2.092  10.968   1.008  0.3720 -0.5595 -0.0515
  272MOL0     C35801   1.947  10.949   0.997 -0.3022  0.0990 -0.0850
  272MOL0     O35802   1.888  10.860   1.083  0.4838 -0.1695  0.5949
  272MOL0     C35803   1.748  10.836   1.082 -0.5356  0.3891  0.0210
  272MOL0     C35804   1.660  10.849   0.970  0.3472  1.4352  0.2723
  272MOL0     C35805   1.525  10.826   0.984  1.0485 -0.0841  0.6969
  272MOL0     C35806   1.468  10.786   1.108 -0.0961 -0.3915  0.6942
  272MOL0     O35807   1.329  10.751   1.107  0.4404 -0.2933 -0.1130
  272MOL0     C35808   1.253  10.793   1.228 -0.6365  0.2428 -0.6366
  272MOL0     C35809   1.218  10.664   1.311 -0.5116  0.1874  0.2409
  272MOL0     C35810   1.134  10.562   1.233 -0.2272 -0.6515 -0.5647
  272MOL0     C35811   1.000  10.622   1.214 -0.5682  0.1711  0.6696
  272MOL0     C35812   0.914  10.521   1.156  0.4688 -0.4823  0.2778
  272MOL0     C35813   0.769  10.575   1.151  0.0324 -0.4278  0.0021
  272MOL0     C35814   0.657  10.481   1.091  0.7605 -0.6266  0.4068
  272MOL0     C35815   0.593  10.535   0.965  0.1903 -0.4384 -0.8198
  272MOL0    Cl35816   0.508  10.686   1.006  0.2042 -0.0171  0.0059
  272MOL0     C35817   1.553  10.783   1.217 -0.7127  0.3551 -0.2754
  272MOL0     C35818   1.688  10.815   1.207 -0.3659  1.3480 -0.0737
  272MOL0     O35819   1.881  11.032   0.929  0.1987  1.2209  0.0139
  272MOL0     C35820   2.166  11.032   0.908 -0.3728 -0.0597 -0.1949
  272MOL0     C35821   2.302  11.057   0.907  0.9770 -0.0737 -0.6583
  272MOL0     N35822   3.065  11.034   0.876  0.1708 -0.3966 -0.3065
  272MOL0     N35823   3.175  10.962   0.875 -0.0256 -0.0717 -0.8772
  272MOL0     C35824   4.365  10.971   0.949 -0.0950  0.2659 -0.2635
  272MOL0     C35825   4.507  10.975   0.954 -0.0128  0.4175 -1.3772
  272MOL0     C35826   4.946  10.770   0.940 -0.3388  0.4288 -0.7712
  272MOL0     C35827   4.996  10.880   1.003 -0.5148 -0.6267 -0.4748
  272MOL0     C35828   5.131  10.885   1.044  0.1024 -0.6636 -0.7974
  272MOL0     C35829   5.216  10.777   1.011  0.1751 -0.1473  0.1909
  272MOL0     O35830   5.355  10.762   1.036  0.4485  0.1894 -0.4841
  272MOL0     C35831   5.400  10.828   1.159 -0.1025 -1.1273  0.2597
  272MOL0     C35832   5.555  10.832   1.158  0.5590  0.0623 -0.3445
  272MOL0     C35833   5.619  10.881   1.028 -0.3604  0.2778 -0.1900
  272MOL0     C35834   5.765  10.931   1.043  0.7300 -1.0304  0.6253
  272MOL0     C35835   5.833  10.827   1.117 -0.2967 -0.0561 -0.7731
  272MOL0     C35836   5.924  10.762   1.165 -0.4410 -0.0621 -0.2141
  272MOL0     C35837   5.165  10.664   0.942  0.0927  0.4377 -0.3694
  272MOL0     C35838   5.027  10.659   0.906  0.3494 -0.4875 -0.7401
  272MOL0     H35839   4.562  10.633   0.991 -2.6949 -0.6584  1.4802
  272MOL0     H35840   4.338  10.626   0.993 -2.7891  0.5852  1.7678
  272MOL0     H35841   4.117  10.672   1.075 -0.7456 -0.4183  0.3566
  272MOL0     H35842   4.144  10.636   0.903 -0.1554 -0.6887  1.6039
  272MOL0     H35843   3.925  10.628   0.880 -1.3625  1.7196 -0.9381
  272MOL0     H35844   3.944  10.797   0.852  2.3021  0.6100  0.0215
  272MOL0     H35845   3.888  10.697   1.115  1.4191  1.3376 -0.2520
  272MOL0     H35846   3.758  10.699   1.013 -1.5065  3.1388 -0.6078
  272MOL0     H35847   3.840  10.911   1.175  1.9425  0.7390 -0.1419
  272MOL0     H35848   3.930  10.956   1.022 -1.9596  2.6156 -1.4224
  272MOL0     H35849   3.716  10.918   0.894  2.3077  3.4049 -0.9452
  272MOL0     H35850   3.729  11.060   0.978  1.1540 -0.1134 -0.9032
  272MOL0     H35851   3.591  10.940   1.180 -1.9972 -1.2056  0.3831
  272MOL0     H35852   3.602  10.800   1.089 -1.8600 -0.7575 -0.7569
  272MOL0     H35853   3.466  11.077   1.025 -0.9963  0.2527 -3.2644
  272MOL0     H35854   3.481  10.966   0.897 -1.0548  0.1164  0.2714
  272MOL0     H35855   3.323  10.886   1.158  2.2579  0.2092  1.3989
  272MOL0     H35856   3.344  10.796   1.001 -0.8120 -1.0866  2.2496
  272MOL0     H35857   3.142  11.060   1.187  0.5913  1.6230 -1.1332
  272MOL0     H35858   2.940  11.265   0.980  1.4758  2.3007  3.2439
  272MOL0     H35859   2.934  11.199   1.149  0.9678  1.7361 -1.0745
  272MOL0     H35860   2.803  11.037   1.099  0.1969 -0.5133 -0.4186
  272MOL0     H35861   2.786  11.062   0.923  0.7575  2.4929 -1.5467
  272MOL0     H35862   2.684  11.233   1.151 -0.3830 -1.4202  0.6268
  272MOL0     H35863   2.707  11.301   0.988 -3.1301  1.0876  0.2160
  272MOL0     H35864   2.572  11.140   0.880  1.2619 -3.2090  1.1977
  272MOL0     H35865   2.499  11.255   1.009  0.3206 -1.0279  4.0367
  272MOL0     H35866   2.369  10.930   1.218  1.1551 -2.1700 -1.5930
  272MOL0     H35867   2.123  10.876   1.206 -0.4912 -0.8216 -1.6220
  272MOL0     H35868   1.707  10.855   0.872  0.7959 -0.8294  0.2985
  272MOL0     H35869   1.457  10.829   0.900  0.9547 -0.7611  0.7455
  272MOL0     H35870   1.159  10.844   1.206 -0.5471 -0.7111 -3.6961
  272MOL0     H35871   1.308  10.866   1.289 -1.0793 -0.4923  0.6881
  272MOL0     H35872   1.169  10.685   1.407 -1.3783 -0.5963 -0.0057
  272MOL0     H35873   1.318  10.625   1.331 -0.3880 -0.4151 -1.3902
  272MOL0     H35874   1.123  10.473   1.296  2.2882 -0.7103 -0.0945
  272MOL0     H35875   1.183  10.536   1.138  1.8752 -0.9987  0.5524
  272MOL0     H35876   0.956  10.661   1.306 -3.0975 -0.1269 -0.3273
  272MOL0     H35877   1.008  10.708   1.147  0.3057 -0.5300 -0.1541
  272MOL0     H35878   0.911  10.427   1.212  3.1203 -0.8071 -0.0122
  272MOL0     H35879   0.948  10.494   1.055 -0.6516 -1.0593  0.0381
  272MOL0     H35880   0.771  10.670   1.096 -0.2178 -0.0984  0.5640
  272MOL0     H35881   0.730  10.608   1.247 -0.7665 -0.2010 -0.3919
  272MOL0     H35882   0.703  10.383   1.078  0.5408 -0.9169  1.6887
  272MOL0     H35883   0.580  10.459   1.166  0.2603 -2.4969 -0.5947
  272MOL0     H35884   0.522  10.460   0.928  0.9686 -2.7831  2.0160
  272MOL0     H35885   0.677  10.566   0.903  0.9173  4.4201  2.0650
  272MOL0     H35886   1.523  10.743   1.313 -2.1939  1.0253 -0.4295
  272MOL0     H35887   1.756  10.813   1.291  1.5685  2.3477 -1.5268
  272MOL0     H35888   2.119  11.071   0.818  0.3720 -0.0105 -0.5678
  272MOL0     H35889   2.342  11.096   0.814 -0.0677  1.5482 -0.4698
  272MOL0     H35890   4.302  11.056   0.928  0.8641  0.4365 -2.8066
  272MOL0     H35891   4.560  11.069   0.940 -1.6929  1.5343 -0.5989
  272MOL0     H35892   4.928  10.964   1.016  0.8631  0.2942  1.2903
  272MOL0     H35893   5.176  10.978   1.078 -0.5347 -0.4285 -0.5912
  272MOL0     H35894   5.359  10.780   1.248 -1.9224  0.2862  0.2457
  272MOL0     H35895   5.358  10.928   1.173 -0.6434 -1.2413 -0.4528
  272MOL0     H35896   5.579  10.891   1.247 -1.0361  1.1732 -0.6068
  272MOL0     H35897   5.586  10.729   1.174 -2.0186 -1.5073 -4.0282
  272MOL0     H35898   5.567  10.965   0.980  0.8840  1.2706  0.1436
  272MOL0     H35899   5.619  10.795   0.961 -0.7905  0.3033 -0.2256
  272MOL0     H35900   5.813  10.940   0.945  0.5961 -3.4246  0.2745
  272MOL0     H35901   5.762  11.031   1.087  0.9069 -0.9908  0.5491
  272MOL0     H35902   6.007  10.705   1.201  0.6495  1.4228 -0.2927
  272MOL0     H35903   5.231  10.583   0.911 -2.9503 -1.0945 -3.4783
  272MOL0     H35904   4.987  10.567   0.865 -0.6934 -0.4181  0.0648
  273MOL0     O35905  11.192   4.368   8.093  0.0449 -0.0003 -0.2471
  273MOL0     C35906  11.229   4.289   8.002  0.8771  0.2156 -0.1155
  273MOL0     O35907  11.164   4.191   7.940 -0.0953 -0.9891  0.3131
  273MOL0     C35908  11.053   4.127   8.000  1.0558 -0.5180  1.1350
  273MOL0     C35909  10.962   4.204   8.070  0.1834  0.4589  0.2514
  273MOL0     C35910  10.845   4.149   8.127 -0.2686  0.2082  0.3316
  273MOL0     C35911  10.820   4.012   8.120 -0.7361  0.4232 -0.1219
  273MOL0     O35912  10.718   3.950   8.185 -0.1829  0.4976 -0.0354
  273MOL0     C35913  10.598   4.019   8.223  0.3734  0.8851 -0.0953
  273MOL0     C35914  10.499   3.912   8.283  0.7014 -0.2777 -0.8548
  273MOL0     C35915  10.357   3.976   8.289  0.0177  0.3029 -0.1841
  273MOL0     C35916  10.250   3.867   8.291 -0.1278  0.8575 -0.0818
  273MOL0     C35917  10.117   3.917   8.248  0.5971 -0.4473  0.4003
  273MOL0     C35918  10.000   3.854   8.316 -0.0806  0.6268  0.3678
  273MOL0     C35919   9.870   3.881   8.250  0.4908 -0.5138  0.7135
  273MOL0     C35920   9.763   3.789   8.310 -0.1543 -0.0992 -0.5124
  273MOL0     N35921   9.733   3.812   8.456  0.0757 -0.5565 -0.4005
  273MOL0     C35922   9.678   3.722   8.544 -0.4726 -0.1721  0.0612
  273MOL0     C35923   9.634   3.810   8.647 -0.0859  0.9157 -0.6108
  273MOL0     C35924   9.520   3.770   8.737 -0.2606  0.5022 -0.2889
  273MOL0     C35925   9.407   3.718   8.672  1.4155  0.2114 -0.9071
  273MOL0     C35926   9.320   3.820   8.580  0.2229  0.3999  0.6057
  273MOL0     C35927   9.200   3.753   8.507 -0.0079 -0.3791  0.1396
  273MOL0     O35928   9.149   3.851   8.409 -0.0288  0.3398 -0.0190
  273MOL0     C35929   9.029   3.835   8.348 -0.6297 -0.8922 -0.9676
  273MOL0     C35930   8.929   3.734   8.376 -0.3518 -0.5120 -0.5617
  273MOL0     C35931   8.791   3.742   8.325  0.4401 -0.1273 -0.1891
  273MOL0     C35932   8.773   3.853   8.230 -0.1063 -0.3901  0.2667
  273MOL0     C35933   8.641   3.878   8.170 -0.5137  0.4803 -0.0044
  273MOL0     O35934   8.562   3.768   8.156  0.4112 -0.7745  1.2740
  273MOL0     C35935   8.438   3.804   8.110  0.4329 -0.5297 -0.2043
  273MOL0     C35936   8.336   3.835   8.208 -0.2096 -0.3546 -0.7619
  273MOL0     C35937   8.211   3.861   8.168  0.2241  0.2195 -0.6688
  273MOL0     C35938   8.174   3.863   8.032 -0.3693  0.8013  0.8519
  273MOL0     O35939   8.038   3.889   8.013  0.1958  0.6771  0.3859
  273MOL0     C35940   8.002   3.927   7.881  0.0321  0.4379 -0.3876
  273MOL0     C35941   7.849   3.952   7.860 -1.3683  0.2164  0.1335
  273MOL0     C35942   7.812   4.094   7.895 -0.6436 -0.0494 -0.1267
  273MOL0     C35943   7.672   4.075   7.949  0.7278  0.0400 -0.4032
  273MOL0     C35944   7.592   4.203   7.962  0.0635 -0.5243 -0.0347
  273MOL0     C35945   7.461   4.199   8.047  0.1490 -0.3138  0.1711
  273MOL0     C35946   7.386   4.333   8.068  0.0654 -0.6825 -0.1121
  273MOL0     C35947   7.253   4.299   8.139 -0.0147 -0.6698 -0.3231
  273MOL0    Cl35948   7.183   4.448   8.221 -0.2633 -0.6621 -0.1470
  273MOL0     C35949   8.271   3.844   7.936  0.3090  0.2843 -0.2658
  273MOL0     C35950   8.404   3.805   7.976  1.0266  0.9103 -0.2370
  273MOL0     O35951   8.608   3.996   8.154 -0.1814  0.2247  0.0947
  273MOL0     C35952   8.882   3.944   8.195 -0.0298  0.7877 -0.0656
  273MOL0     C35953   9.006   3.935   8.265  0.8744 -0.4767  0.3438
  273MOL0     N35954   9.677   3.936   8.613  0.0243 -0.2029  0.0736
  273MOL0     N35955   9.743   3.934   8.512  0.4548 -0.3182  0.1511
  273MOL0     C35956  10.920   3.936   8.051  0.7347  0.0100  0.6731
  273MOL0     C35957  11.035   3.995   7.991 -0.2006  0.3923 -0.0378
  273MOL0     C35958  11.364   4.311   7.958 -0.6920  0.1966  0.4621
  273MOL0     C35959  11.428   4.431   7.992 -0.5231 -0.1835  0.1296
  273MOL0     C35960  11.553   4.468   7.940 -0.6811 -1.0175  0.0012
  273MOL0     C35961  11.629   4.377   7.866  0.3723  0.8463 -0.1064
  273MOL0     O35962  11.744   4.395   7.803  0.3212  0.0423  0.0321
  273MOL0     C35963  11.769   4.522   7.752  0.2152  0.3819 -0.3746
  273MOL0     C35964  11.826   4.524   7.612  0.6835 -1.2381  0.1947
  273MOL0     C35965  11.735   4.476   7.498  0.2479 -0.0708  0.2104
  273MOL0     C35966  11.756   4.545   7.364 -0.0782 -0.2156 -0.0158
  273MOL0     C35967  11.899   4.556   7.313 -0.1312 -0.2464 -1.3664
  273MOL0     C35968  12.011   4.565   7.265  0.3152 -0.7994 -0.1681
  273MOL0     C35969  11.564   4.251   7.833 -1.1757 -0.7329 -0.7904
  273MOL0     C35970  11.437   4.220   7.880  0.4254  0.2317 -0.0097
  273MOL0     H35971  10.971   4.309   8.096  1.1283 -0.5691  5.0354
  273MOL0     H35972  10.784   4.224   8.178  0.5820  0.9482  0.2924
  273MOL0     H35973  10.557   4.071   8.136  0.7386 -0.0377 -0.8368
  273MOL0     H35974  10.607   4.090   8.306 -3.1550 -2.5891  3.7132
  273MOL0     H35975  10.547   3.890   8.379  0.6206  0.2742 -0.6854
  273MOL0     H35976  10.506   3.819   8.225 -0.9614 -0.7885 -0.2866
  273MOL0     H35977  10.338   4.038   8.201 -1.9493  0.0443  0.0110
  273MOL0     H35978  10.349   4.046   8.373 -0.4428  1.4790 -1.1738
  273MOL0     H35979  10.280   3.778   8.235 -0.7569  1.5024 -1.4945
  273MOL0     H35980  10.231   3.837   8.395 -1.8994  0.6990 -0.4169
  273MOL0     H35981  10.113   3.887   8.142 -1.9743 -1.2789  0.6702
  273MOL0     H35982  10.114   4.026   8.253  1.7312 -0.3751 -0.0010
  273MOL0     H35983   9.985   3.887   8.419  0.5994  2.7507 -0.1631
  273MOL0     H35984  10.003   3.745   8.306  0.5343  0.7791 -1.7186
  273MOL0     H35985   9.844   3.985   8.276 -4.1153 -0.9328 -1.2332
  273MOL0     H35986   9.883   3.869   8.142  3.7009 -0.6245  1.0135
  273MOL0     H35987   9.781   3.683   8.288  1.9775  0.3636 -1.2319
  273MOL0     H35988   9.680   3.829   8.252  2.0751  1.1434 -3.0338
  273MOL0     H35989   9.657   3.619   8.518 -1.5618 -0.1554  0.7926
  273MOL0     H35990   9.487   3.864   8.782 -2.0569 -0.8529  1.3771
  273MOL0     H35991   9.559   3.699   8.810  0.7651  2.3403  1.0439
  273MOL0     H35992   9.333   3.689   8.747  3.0363  0.4988  0.8725
  273MOL0     H35993   9.433   3.629   8.615  0.0260  0.5231 -2.1096
  273MOL0     H35994   9.284   3.906   8.638  0.9914  0.6502  0.7144
  273MOL0     H35995   9.387   3.870   8.511 -0.0132  2.0892  1.5604
  273MOL0     H35996   9.117   3.714   8.568 -0.9464  1.3581  0.0451
  273MOL0     H35997   9.252   3.673   8.452  0.9741  1.0569 -1.0893
  273MOL0     H35998   8.945   3.650   8.443  0.3319  0.4745  0.5516
  273MOL0     H35999   8.716   3.668   8.352  1.1815  0.2637  3.4066
  273MOL0     H36000   8.368   3.835   8.312  1.1175  0.8453 -1.1384
  273MOL0     H36001   8.136   3.881   8.243 -0.3017  3.1383 -1.8256
  273MOL0     H36002   8.030   3.858   7.801  0.0156 -1.6254  1.3122
  273MOL0     H36003   8.072   4.009   7.860  0.5571  0.1984  0.3767
  273MOL0     H36004   7.799   3.876   7.921 -0.8235 -1.3185 -1.2610
  273MOL0     H36005   7.832   3.927   7.755 -0.5385 -0.4339  0.1501
  273MOL0     H36006   7.804   4.159   7.807  1.3779  2.8041  1.6329
  273MOL0     H36007   7.863   4.140   7.980 -2.8125 -0.2864  1.3844
  273MOL0     H36008   7.617   4.002   7.889  3.0656 -0.3391 -2.2030
  273MOL0     H36009   7.680   4.023   8.045  0.8379 -1.5487 -1.2545
  273MOL0     H36010   7.567   4.237   7.861 -1.3545 -2.6856 -0.4770
  273MOL0     H36011   7.653   4.279   8.012 -0.3683 -1.0838  1.4018
  273MOL0     H36012   7.486   4.153   8.143  0.0492 -0.8404 -0.0520
  273MOL0     H36013   7.405   4.123   7.990  1.9766 -1.7131  0.1292
  273MOL0     H36014   7.451   4.400   8.126  3.1142 -2.2809 -1.4872
  273MOL0     H36015   7.362   4.385   7.975 -1.0253  2.7832  1.9266
  273MOL0     H36016   7.269   4.231   8.223 -1.1292  0.0011  0.4531
  273MOL0     H36017   7.178   4.259   8.070 -2.2168  0.2902  1.3761
  273MOL0     H36018   8.265   3.852   7.828  1.9142  0.4268 -0.3816
  273MOL0     H36019   8.468   3.775   7.894  1.6149 -0.5749  0.7352
  273MOL0     H36020   8.862   4.020   8.120  0.0631 -1.3784 -2.4357
  273MOL0     H36021   9.077   4.012   8.238 -0.0226  0.3315  0.2061
  273MOL0     H36022  10.893   3.831   8.056  1.9484 -0.2772  1.8491
  273MOL0     H36023  11.097   3.928   7.933 -0.4267 -0.4678  0.7012
  273MOL0     H36024  11.389   4.513   8.051 -1.4436  0.2890 -1.0923
  273MOL0     H36025  11.593   4.567   7.961 -0.7715 -1.4520  2.6015
  273MOL0     H36026  11.831   4.588   7.813 -0.5885  3.3866 -2.5318
  273MOL0     H36027  11.669   4.565   7.737 -0.2013 -0.1416  0.7932
  273MOL0     H36028  11.846   4.627   7.584  1.5436 -0.6799  2.6426
  273MOL0     H36029  11.922   4.473   7.620  1.7309  0.9096  3.0637
  273MOL0     H36030  11.631   4.490   7.531 -0.2003 -0.1968 -1.0850
  273MOL0     H36031  11.734   4.368   7.483 -1.3381 -0.2664  1.4097
  273MOL0     H36032  11.690   4.506   7.285  0.2774  2.9886 -2.1087
  273MOL0     H36033  11.724   4.649   7.376  0.3981 -0.0731  0.0497
  273MOL0     H36034  12.108   4.585   7.223 -0.5500  2.0147 -1.0206
  273MOL0     H36035  11.618   4.179   7.772  1.5396 -0.7430  1.4207
  273MOL0     H36036  11.402   4.122   7.849  0.3603  0.5489 -0.9803
  274MOL0     O36037   1.815  10.587   5.125  0.7162 -0.5451 -0.3281
  274MOL0     C36038   1.902  10.502   5.149 -0.5942 -0.6511 -0.2040
  274MOL0     O36039   1.879  10.398   5.221  0.8073  0.5553 -0.3036
  274MOL0     C36040   1.747  10.367   5.251  0.0323 -0.2930  0.3715
  274MOL0     C36041   1.671  10.313   5.148  0.8335  0.3912  0.2055
  274MOL0     C36042   1.534  10.282   5.180 -1.7973 -0.2897  0.3725
  274MOL0     C36043   1.488  10.288   5.314 -0.4062  0.5464 -0.5036
  274MOL0     O36044   1.359  10.245   5.334  0.4607  0.2019 -0.2367
  274MOL0     C36045   1.287  10.278   5.448 -0.0314  0.1784 -1.0469
  274MOL0     C36046   1.184  10.173   5.465  0.1917 -0.3169 -0.5207
  274MOL0     C36047   1.067  10.174   5.358 -0.1648  0.2001 -0.4078
  274MOL0     C36048   0.999  10.044   5.366  0.4841 -0.0312  0.1395
  274MOL0     C36049   0.854  10.044   5.329 -0.6271  0.9911 -0.1929
  274MOL0     C36050   0.767  10.061   5.452  0.0475 -0.2551 -0.2745
  274MOL0     C36051   0.641  10.139   5.441  1.0768  0.9537  0.3418
  274MOL0     C36052   0.527  10.072   5.361  0.4641  0.9547 -0.4190
  274MOL0     N36053   0.543  10.071   5.214  0.7986  0.8658 -1.2894
  274MOL0     C36054   0.489  10.166   5.135 -0.2599 -0.6231 -0.3030
  274MOL0     C36055   0.458  10.111   5.017 -0.3862  0.1786 -0.7725
  274MOL0     C36056   0.385  10.178   4.901  0.8048  0.1875 -0.2784
  274MOL0     C36057   0.244  10.211   4.925  0.3668 -0.5788 -0.0309
  274MOL0     C36058   0.153  10.097   4.972 -0.4625  0.2621 -0.0321
  274MOL0     C36059   0.009  10.123   4.981 -0.5418 -0.3550  0.4191
  274MOL0     O36060  -0.057  10.009   5.028 -0.2091 -1.0242 -0.3972
  274MOL0     C36061  -0.189  10.012   4.994 -0.6250  0.0575 -0.0189
  274MOL0     C36062  -0.269  10.126   5.018  0.6911 -0.3670  0.3268
  274MOL0     C36063  -0.401  10.120   4.973 -0.2193 -0.0627  0.1278
  274MOL0     C36064  -0.456  10.006   4.910  0.4308 -0.7037 -0.1603
  274MOL0     C36065  -0.604  10.005   4.883  0.1842  0.0916  0.6254
  274MOL0     O36066  -0.678  10.118   4.893 -0.5763  0.2077  1.0275
  274MOL0     C36067  -0.815  10.110   4.900 -0.4842  0.0415  0.6366
  274MOL0     C36068  -0.893  10.067   4.787  0.1085  0.0371 -0.7097
  274MOL0     C36069  -1.035  10.081   4.790  0.0867 -0.1122 -0.8388
  274MOL0     C36070  -1.094  10.138   4.900  0.2533  0.2282 -0.1069
  274MOL0     O36071  -1.233  10.139   4.908 -0.4844 -0.0022 -0.3804
  274MOL0     C36072  -1.298  10.012   4.906 -0.4520  0.3131  0.4436
  274MOL0     C36073  -1.414  10.013   5.012 -0.7820  0.3252  0.4715
  274MOL0     C36074  -1.367  10.048   5.158 -0.0045  0.0145  0.1282
  274MOL0     C36075  -1.487  10.049   5.247  0.1516 -0.1676  0.0803
  274MOL0     C36076  -1.453  10.068   5.391 -0.1858  0.1765 -0.0107
  274MOL0     C36077  -1.366  10.192   5.424 -0.6889  0.5733 -0.0054
  274MOL0     C36078  -1.420  10.332   5.390 -0.4979 -0.1077  0.2713
  274MOL0     C36079  -1.551  10.369   5.462  0.0401 -0.5582 -0.0768
  274MOL0    Cl36080  -1.504  10.384   5.628 -0.1439  0.0863  0.4874
  274MOL0     C36081  -1.014  10.198   4.996 -0.1072  0.0988 -0.2277
  274MOL0     C36082  -0.876  10.176   5.000  0.4193 -0.5411  0.3947
  274MOL0     O36083  -0.651   9.899   4.833 -0.5936 -0.7840  0.3854
  274MOL0     C36084  -0.369   9.898   4.878  0.6018 -0.3585 -0.4113
  274MOL0     C36085  -0.239   9.908   4.926 -0.5529  1.2247  1.1055
  274MOL0     N36086   0.495   9.982   5.026  0.1370  0.4721 -0.9582
  274MOL0     N36087   0.556   9.957   5.139 -0.1070 -0.8165  0.0317
  274MOL0     C36088   1.572  10.322   5.417 -0.3192  0.2289 -0.3243
  274MOL0     C36089   1.702  10.372   5.384  0.0129 -0.8631  0.1456
  274MOL0     C36090   2.046  10.537   5.104 -1.3823  0.4309 -0.1365
  274MOL0     C36091   2.067  10.650   5.030 -0.0783  0.3220 -0.7789
  274MOL0     C36092   2.194  10.694   4.990  0.0215  0.7274 -0.0913
  274MOL0     C36093   2.310  10.621   5.031  0.6647 -0.5514  0.1037
  274MOL0     O36094   2.422  10.688   5.014  0.4052 -0.6799 -0.2807
  274MOL0     C36095   2.543  10.644   5.078  1.0199  0.7150  0.0479
  274MOL0     C36096   2.621  10.550   4.989  0.2824 -0.0086  0.8324
  274MOL0     C36097   2.734  10.476   5.066 -0.4715 -0.2989 -0.5002
  274MOL0     C36098   2.834  10.563   5.140 -0.7940  0.1162 -0.0259
  274MOL0     C36099   2.915  10.643   5.053  0.0613  0.5288  0.4715
  274MOL0     C36100   2.987  10.704   4.976  0.3979 -1.0371 -1.2463
  274MOL0     C36101   2.291  10.507   5.109  0.3076  1.0326 -0.7818
  274MOL0     C36102   2.164  10.472   5.149 -0.3355  0.1065  0.4579
  274MOL0     H36103   1.721  10.317   5.052  0.2893  2.7690 -0.0501
  274MOL0     H36104   1.468  10.247   5.101 -0.7433  0.8752 -1.0941
  274MOL0     H36105   1.233  10.372   5.433 -0.1378 -0.1222 -2.7771
  274MOL0     H36106   1.355  10.293   5.532 -0.3267 -1.6354 -0.4448
  274MOL0     H36107   1.126  10.189   5.557  1.9383  1.9891  0.2555
  274MOL0     H36108   1.229  10.073   5.467  0.2685 -0.3162  2.4915
  274MOL0     H36109   1.103  10.187   5.255 -0.7168 -1.5696 -0.8490
  274MOL0     H36110   1.003  10.259   5.386 -1.8748 -0.7479 -1.2735
  274MOL0     H36111   1.043   9.977   5.291  1.6404  0.9971 -0.1301
  274MOL0     H36112   1.010   9.992   5.462  0.9695 -1.9008 -0.8711
  274MOL0     H36113   0.827   9.948   5.285  0.4650 -0.0510  1.3395
  274MOL0     H36114   0.840  10.124   5.255 -1.1911  1.4531  0.4036
  274MOL0     H36115   0.828  10.106   5.531  0.1409  3.8184 -2.4095
  274MOL0     H36116   0.739   9.959   5.480 -3.7945  0.4359 -1.0884
  274MOL0     H36117   0.595  10.155   5.538 -0.6010  0.4097 -0.3336
  274MOL0     H36118   0.663  10.229   5.381  1.5497 -0.6205 -1.9839
  274MOL0     H36119   0.438  10.134   5.378  1.1018  1.9961 -0.7413
  274MOL0     H36120   0.517   9.972   5.403  1.8361  0.5413 -1.0376
  274MOL0     H36121   0.449  10.263   5.165  1.2881  0.0020 -0.1681
  274MOL0     H36122   0.394  10.124   4.806  0.9363  2.1375 -1.4287
  274MOL0     H36123   0.440  10.272   4.887 -2.2870  2.5877  2.2376
  274MOL0     H36124   0.186  10.258   4.845 -3.7478 -1.5906  2.0622
  274MOL0     H36125   0.238  10.278   5.011  1.1691 -3.2913  2.2813
  274MOL0     H36126   0.154  10.019   4.896 -1.3986  0.7002 -0.5042
  274MOL0     H36127   0.191  10.051   5.064 -0.3460 -2.8022 -1.4947
  274MOL0     H36128  -0.022  10.161   4.883 -0.5330  1.4088  1.0546
  274MOL0     H36129  -0.004  10.204   5.054  1.4932  1.5711 -1.1991
  274MOL0     H36130  -0.243  10.215   5.074 -1.3454  1.2023 -1.0566
  274MOL0     H36131  -0.470  10.203   4.986 -0.7325 -0.3288 -0.8422
  274MOL0     H36132  -0.840  10.033   4.699  2.2868 -0.2136  0.6441
  274MOL0     H36133  -1.106  10.060   4.711 -0.4722 -0.4441 -0.2601
  274MOL0     H36134  -1.225   9.930   4.906 -0.4100  0.3244 -0.8315
  274MOL0     H36135  -1.348   9.992   4.810 -0.5259 -1.5842  0.8370
  274MOL0     H36136  -1.456   9.912   5.009 -0.0214  0.0067 -1.6791
  274MOL0     H36137  -1.484  10.088   4.975  0.1480  1.0511  0.1179
  274MOL0     H36138  -1.331  10.151   5.169  0.2644  0.1152 -1.3621
  274MOL0     H36139  -1.302   9.971   5.201 -0.0037  0.0242  0.1424
  274MOL0     H36140  -1.556  10.128   5.215 -0.7272 -0.3516  1.4584
  274MOL0     H36141  -1.533   9.951   5.229 -2.8333  1.3678 -1.4060
  274MOL0     H36142  -1.397   9.984   5.432 -0.9436  0.5997  1.9763
  274MOL0     H36143  -1.539  10.080   5.457  0.2590 -0.7086  0.7494
  274MOL0     H36144  -1.270  10.185   5.373 -0.9548  3.0837 -0.9864
  274MOL0     H36145  -1.352  10.185   5.533  2.1978  0.3506 -0.3246
  274MOL0     H36146  -1.336  10.400   5.407 -0.9530  0.6331 -0.3862
  274MOL0     H36147  -1.449  10.353   5.287  0.7563  0.7335  0.0708
  274MOL0     H36148  -1.617  10.287   5.431  1.6585 -1.3660 -1.6061
  274MOL0     H36149  -1.583  10.469   5.432 -1.4923  0.0429  3.1793
  274MOL0     H36150  -1.064  10.229   5.087  2.0073 -0.5421  1.2224
  274MOL0     H36151  -0.812  10.200   5.084 -0.6525  0.5893  0.9256
  274MOL0     H36152  -0.398   9.805   4.830 -0.4260  0.5692 -1.6514
  274MOL0     H36153  -0.165   9.830   4.911  0.0300  2.1082 -1.1518
  274MOL0     H36154   1.546  10.306   5.521  1.4674 -0.3419  0.0782
  274MOL0     H36155   1.777  10.412   5.452  2.0462  0.2231 -2.5658
  274MOL0     H36156   1.986  10.716   5.001 -1.1897 -0.8830 -0.5596
  274MOL0     H36157   2.194  10.790   4.941 -2.4812 -0.4998 -2.7958
  274MOL0     H36158   2.511  10.587   5.166  0.2006 -1.1574 -1.3805
  274MOL0     H36159   2.604  10.731   5.105 -0.7398  1.6499  1.2537
  274MOL0     H36160   2.550  10.483   4.938 -0.1126 -1.6362  3.3233
  274MOL0     H36161   2.663  10.615   4.912  1.1213 -1.6003 -0.1113
  274MOL0     H36162   2.797  10.418   4.998 -0.6485 -0.0412 -0.8809
  274MOL0     H36163   2.696  10.400   5.136 -0.3586 -1.3363 -1.5308
  274MOL0     H36164   2.765  10.622   5.201 -2.6397  0.0616 -1.9326
  274MOL0     H36165   2.893  10.507   5.214 -2.3053 -1.1178  0.3089
  274MOL0     H36166   3.055  10.758   4.915  2.1295 -0.1072  1.3242
  274MOL0     H36167   2.365  10.444   5.157 -0.1088  1.3186  0.2694
  274MOL0     H36168   2.152  10.403   5.232 -0.6720  0.2059  0.4940
  275MOL0     O36169  10.542   5.611   6.474  0.1868  0.8217 -0.1741
  275MOL0     C36170  10.532   5.552   6.581  0.3591  0.5270  0.7666
  275MOL0     O36171  10.416   5.529   6.650 -0.0340 -0.2835  0.3466
  275MOL0     C36172  10.286   5.567   6.618  0.1867  0.3691  0.8542
  275MOL0     C36173  10.250   5.589   6.485  0.1416 -0.8331  0.5564
  275MOL0     C36174  10.122   5.639   6.450 -0.8767 -0.0397 -0.4046
  275MOL0     C36175  10.027   5.662   6.548  0.2733  0.5168 -0.2296
  275MOL0     O36176   9.909   5.720   6.534  0.3224  0.0625  0.3665
  275MOL0     C36177   9.841   5.726   6.403 -0.3866  0.4068  0.6230
  275MOL0     C36178   9.707   5.790   6.414  0.9223 -0.2980  0.5557
  275MOL0     C36179   9.610   5.773   6.293 -0.5068 -0.0855  0.2013
  275MOL0     C36180   9.460   5.801   6.329 -0.3235  1.1722 -0.1023
  275MOL0     C36181   9.360   5.783   6.204  0.4059 -0.0775  0.0899
  275MOL0     C36182   9.387   5.876   6.084  0.4420 -0.5249  0.6306
  275MOL0     C36183   9.263   5.875   5.992  0.3211 -0.1630 -0.3354
  275MOL0     C36184   9.269   5.976   5.880  0.3176  0.5594  0.2242
  275MOL0     N36185   9.270   6.116   5.922  0.2662 -0.1428  0.4624
  275MOL0     C36186   9.201   6.168   6.029  0.3983  0.4710  0.0614
  275MOL0     C36187   9.240   6.292   6.036 -0.0489 -1.6009 -0.5230
  275MOL0     C36188   9.194   6.398   6.132 -0.0255  0.8617  0.1017
  275MOL0     C36189   9.060   6.444   6.074  0.0364  0.5430 -0.3184
  275MOL0     C36190   9.007   6.544   6.176  0.4858 -0.3279  0.2595
  275MOL0     C36191   8.953   6.480   6.298  0.0237  0.3505  0.6012
  275MOL0     O36192   8.899   6.579   6.383 -0.0334 -0.1953 -0.2664
  275MOL0     C36193   8.981   6.653   6.462 -0.3445  0.0597  0.1814
  275MOL0     C36194   9.116   6.639   6.477 -0.6787  0.9492  0.4848
  275MOL0     C36195   9.184   6.728   6.556  0.1570  0.1754 -1.1389
  275MOL0     C36196   9.124   6.838   6.622 -0.1643 -0.3512 -0.2768
  275MOL0     C36197   9.203   6.936   6.704  0.1295 -0.4197 -0.3883
  275MOL0     O36198   9.140   7.054   6.736 -1.0598  0.5354 -0.1921
  275MOL0     C36199   9.198   7.168   6.783 -0.1463 -0.0123 -0.9035
  275MOL0     C36200   9.331   7.181   6.834 -0.3354  0.9404  0.4706
  275MOL0     C36201   9.383   7.301   6.887  0.3143 -0.7497  0.2479
  275MOL0     C36202   9.303   7.406   6.878  0.2590 -0.7345  0.6883
  275MOL0     O36203   9.350   7.526   6.922 -0.3628  0.4405 -0.0821
  275MOL0     C36204   9.481   7.576   6.892 -0.8431 -0.3522  0.7048
  275MOL0     C36205   9.478   7.721   6.876 -1.1124  0.6343  1.0065
  275MOL0     C36206   9.382   7.772   6.764 -0.5557  0.1571  0.7333
  275MOL0     C36207   9.401   7.702   6.635 -0.6005 -0.5391 -0.1391
  275MOL0     C36208   9.394   7.794   6.514  0.2005 -0.1235 -0.4604
  275MOL0     C36209   9.368   7.727   6.382 -0.2545  0.9641  0.7309
  275MOL0     C36210   9.434   7.803   6.268  0.5932 -0.0604  0.1658
  275MOL0     C36211   9.401   7.739   6.131  0.5550 -0.8987  0.2949
  275MOL0    Cl36212   9.229   7.763   6.080  0.5512 -0.6753  0.5574
  275MOL0     C36213   9.179   7.404   6.822  0.0685  0.0898  0.4491
  275MOL0     C36214   9.121   7.285   6.779 -0.7443  0.0632  0.5085
  275MOL0     O36215   9.321   6.917   6.715 -0.0578  0.1242 -0.6027
  275MOL0     C36216   8.987   6.851   6.596  0.2824  0.4553 -0.3954
  275MOL0     C36217   8.922   6.763   6.519 -1.0535  1.0890  1.5582
  275MOL0     N36218   9.320   6.318   5.923 -0.1311 -0.4585 -0.0043
  275MOL0     N36219   9.345   6.209   5.865  0.5464  0.3028  0.0241
  275MOL0     C36220  10.059   5.642   6.682  0.5426 -0.1499  0.8319
  275MOL0     C36221  10.185   5.586   6.717 -0.3604  0.1875 -0.4558
  275MOL0     C36222  10.658   5.522   6.657 -0.1116 -0.9788  0.2643
  275MOL0     C36223  10.784   5.534   6.592 -0.6045 -0.4737  0.7581
  275MOL0     C36224  10.903   5.513   6.660  0.0257  0.2277 -0.2965
  275MOL0     C36225  10.910   5.474   6.792 -1.0576 -0.4250 -0.1090
  275MOL0     O36226  11.021   5.439   6.861 -0.2033  0.7967  0.5585
  275MOL0     C36227  11.125   5.385   6.774  0.2130 -0.7560 -0.0647
  275MOL0     C36228  11.218   5.300   6.848 -0.0728  1.0980  0.7375
  275MOL0     C36229  11.326   5.228   6.776 -0.1320  0.6038  0.3247
  275MOL0     C36230  11.419   5.320   6.700 -0.3020  0.4571  0.2075
  275MOL0     C36231  11.547   5.252   6.680  0.5639 -0.8739  1.1699
  275MOL0     C36232  11.648   5.190   6.679  0.1220  0.9097  0.3234
  275MOL0     C36233  10.792   5.460   6.855 -0.2267 -0.2699  0.4014
  275MOL0     C36234  10.667   5.491   6.793 -0.7183 -1.1677 -0.3848
  275MOL0     H36235  10.330   5.588   6.411  0.8015  0.2617  1.2381
  275MOL0     H36236  10.103   5.677   6.350 -0.8796  2.3400  0.4333
  275MOL0     H36237   9.843   5.628   6.354  1.6406  0.2923  0.8369
  275MOL0     H36238   9.898   5.792   6.337  0.5008 -1.4972 -0.6274
  275MOL0     H36239   9.709   5.898   6.427 -3.8943  0.0334  0.4474
  275MOL0     H36240   9.662   5.736   6.497  2.0179 -2.2464 -0.0466
  275MOL0     H36241   9.618   5.664   6.283  0.1701 -0.1085  0.9689
  275MOL0     H36242   9.636   5.820   6.197 -3.1905  0.4305 -0.3634
  275MOL0     H36243   9.432   5.731   6.407 -0.1321  1.2148  0.0068
  275MOL0     H36244   9.452   5.903   6.366  0.6492  1.5398 -0.8313
  275MOL0     H36245   9.263   5.822   6.240  0.0257 -3.6049  3.5980
  275MOL0     H36246   9.348   5.679   6.176  0.1016  0.0006 -0.0800
  275MOL0     H36247   9.474   5.835   6.032  0.7921 -2.3526  2.5284
  275MOL0     H36248   9.414   5.976   6.117  1.5392  0.0031 -1.6894
  275MOL0     H36249   9.251   5.772   5.957  1.7649 -0.9809  1.4051
  275MOL0     H36250   9.175   5.900   6.051  1.4821 -0.8330  1.7767
  275MOL0     H36251   9.181   5.970   5.815  0.3716  0.6161  0.1463
  275MOL0     H36252   9.359   5.943   5.828 -0.0266 -0.2242  0.1101
  275MOL0     H36253   9.133   6.109   6.089 -3.1041  2.7669 -1.3692
  275MOL0     H36254   9.262   6.482   6.148 -1.9704  2.4189  0.6606
  275MOL0     H36255   9.182   6.341   6.224  1.4877 -1.3175 -0.9752
  275MOL0     H36256   8.981   6.372   6.051  1.9140 -1.7549 -0.0554
  275MOL0     H36257   9.083   6.500   5.983 -0.1140  1.4770  0.2093
  275MOL0     H36258   9.088   6.612   6.206 -1.8519  1.4564  3.0899
  275MOL0     H36259   8.933   6.606   6.123  1.9845  1.1986 -0.1567
  275MOL0     H36260   9.032   6.422   6.346  0.6968 -0.3505 -1.2547
  275MOL0     H36261   8.883   6.404   6.261  1.7490  0.3069 -3.0307
  275MOL0     H36262   9.167   6.554   6.432 -1.2310 -0.3975  2.2727
  275MOL0     H36263   9.288   6.697   6.565 -0.3604 -2.1003 -2.2643
  275MOL0     H36264   9.388   7.089   6.847 -0.6595  0.7247  0.3874
  275MOL0     H36265   9.486   7.302   6.921  1.1248 -0.0335 -1.9793
  275MOL0     H36266   9.526   7.525   6.807  1.9558  0.8007  1.3794
  275MOL0     H36267   9.544   7.554   6.979 -0.1235 -1.5422 -0.0951
  275MOL0     H36268   9.581   7.757   6.870  0.1593 -2.5763  1.5754
  275MOL0     H36269   9.451   7.766   6.972  1.7652  2.2438  1.1750
  275MOL0     H36270   9.387   7.881   6.752 -0.4528  0.1193  0.4295
  275MOL0     H36271   9.277   7.759   6.792 -1.2940 -1.1554 -2.3084
  275MOL0     H36272   9.492   7.642   6.631 -0.7595 -1.7182  5.5282
  275MOL0     H36273   9.328   7.620   6.635  2.0417 -3.2515 -4.1278
  275MOL0     H36274   9.495   7.834   6.504  2.0753 -4.0987  0.4971
  275MOL0     H36275   9.323   7.875   6.533  1.2206  0.4846  0.9386
  275MOL0     H36276   9.261   7.712   6.365  0.1616  0.3629 -1.7974
  275MOL0     H36277   9.411   7.627   6.379  1.1795  1.5544  0.8350
  275MOL0     H36278   9.420   7.911   6.274  0.8253 -0.0178 -0.0828
  275MOL0     H36279   9.540   7.782   6.284  0.1802 -2.2442  0.4014
  275MOL0     H36280   9.419   7.631   6.138  2.4456 -0.5588  1.2067
  275MOL0     H36281   9.474   7.785   6.063  0.5262  1.2800  1.6488
  275MOL0     H36282   9.129   7.500   6.808  1.2402  0.6752  0.1497
  275MOL0     H36283   9.020   7.290   6.740  0.1757  0.1901 -2.0811
  275MOL0     H36284   8.941   6.942   6.633 -0.2125  0.8209 -1.8154
  275MOL0     H36285   8.825   6.802   6.489 -1.1881 -0.4333 -0.1347
  275MOL0     H36286   9.982   5.669   6.753 -0.6456 -1.4141  0.0821
  275MOL0     H36287  10.218   5.557   6.815 -0.7658  0.6743 -0.1661
  275MOL0     H36288  10.780   5.572   6.490  3.2025 -1.2385  0.1911
  275MOL0     H36289  10.991   5.520   6.597 -0.4061 -1.8170 -1.1957
  275MOL0     H36290  11.178   5.476   6.743 -2.8727  0.4644 -2.2929
  275MOL0     H36291  11.096   5.326   6.686  0.7258  1.7193 -2.0376
  275MOL0     H36292  11.256   5.350   6.938 -2.8810  0.5884  2.3284
  275MOL0     H36293  11.158   5.212   6.874  0.1936  0.3488 -1.0413
  275MOL0     H36294  11.279   5.167   6.699  0.8983 -0.7836  0.7496
  275MOL0     H36295  11.376   5.171   6.855  0.9521 -0.6322 -1.1914
  275MOL0     H36296  11.382   5.363   6.607  0.6742  2.7048  0.8066
  275MOL0     H36297  11.435   5.414   6.752 -3.2821  2.6140 -2.4082
  275MOL0     H36298  11.735   5.129   6.664 -1.1578 -0.9766  0.2737
  275MOL0     H36299  10.795   5.411   6.953 -1.1015 -3.6227 -1.0858
  275MOL0     H36300  10.580   5.496   6.859  0.6414  0.7224  1.3744
  276MOL0     O36301   0.202   3.310   7.109  0.4621 -0.9473  0.0458
  276MOL0     C36302   0.250   3.209   7.055 -1.0299 -0.8941 -0.3732
  276MOL0     O36303   0.189   3.090   7.044  0.3082  0.2940 -0.2840
  276MOL0     C36304   0.057   3.077   7.082  1.0939  1.0517 -0.4860
  276MOL0     C36305  -0.039   3.163   7.138  0.3053 -0.6281  0.3957
  276MOL0     C36306  -0.164   3.133   7.177  0.1978 -0.1075  1.2893
  276MOL0     C36307  -0.198   2.999   7.164  0.6926 -0.5884  0.1323
  276MOL0     O36308  -0.337   2.976   7.186 -0.0616 -0.3083 -0.1787
  276MOL0     C36309  -0.398   2.854   7.143  0.0255 -0.3830  0.7452
  276MOL0     C36310  -0.432   2.839   6.997 -0.0114 -0.7994  0.0562
  276MOL0     C36311  -0.580   2.884   6.978  0.7230 -0.3156 -0.1250
  276MOL0     C36312  -0.624   2.922   6.835 -0.1340  0.0889 -0.9565
  276MOL0     C36313  -0.775   2.945   6.822  0.7842  1.1152 -0.4690
  276MOL0     C36314  -0.817   2.993   6.685  0.8316  0.4241  0.6179
  276MOL0     C36315  -0.970   3.008   6.678  1.0191 -0.0788 -0.3698
  276MOL0     C36316  -1.001   3.072   6.538 -0.4872  0.8947  0.2007
  276MOL0     N36317  -1.147   3.075   6.525 -0.5493 -0.2373  0.8370
  276MOL0     C36318  -1.218   3.002   6.439  0.8901  0.2613 -0.3551
  276MOL0     C36319  -1.347   3.028   6.472 -0.0167 -0.1307  0.1437
  276MOL0     C36320  -1.462   2.953   6.406  0.6825  0.1771  0.3664
  276MOL0     C36321  -1.588   2.983   6.483 -0.3388 -0.2199 -0.7038
  276MOL0     C36322  -1.710   2.898   6.444  0.2248 -0.0996 -0.2445
  276MOL0     C36323  -1.838   2.938   6.526  0.5139  0.1253 -0.3034
  276MOL0     O36324  -1.943   2.850   6.503 -0.0969 -0.0226 -0.3387
  276MOL0     C36325  -2.070   2.895   6.488  1.3743  0.5414 -0.6382
  276MOL0     C36326  -2.124   3.003   6.562  0.0189 -0.0029  0.2208
  276MOL0     C36327  -2.258   3.039   6.552 -0.5350 -0.0889  0.6447
  276MOL0     C36328  -2.340   2.953   6.473 -0.4215 -1.3255  0.4051
  276MOL0     C36329  -2.486   2.973   6.480 -0.7997  0.0793 -0.0003
  276MOL0     O36330  -2.563   2.884   6.407  0.3586  0.5161  0.7965
  276MOL0     C36331  -2.695   2.918   6.395  0.2567 -0.2516  1.0940
  276MOL0     C36332  -2.733   3.003   6.286  0.3877 -0.0811  0.2740
  276MOL0     C36333  -2.870   3.039   6.276 -0.0100  0.5450  0.1524
  276MOL0     C36334  -2.973   2.991   6.358  0.8759  0.8876 -0.6230
  276MOL0     O36335  -3.105   3.032   6.353 -0.7389  0.1266  0.1441
  276MOL0     C36336  -3.144   3.106   6.234 -0.1875  0.1246 -0.1424
  276MOL0     C36337  -3.293   3.123   6.228  0.9586 -0.2504 -0.3728
  276MOL0     C36338  -3.347   3.270   6.244  0.1849 -0.5858  0.2096
  276MOL0     C36339  -3.498   3.289   6.241  1.1706 -0.1474 -0.0682
  276MOL0     C36340  -3.544   3.435   6.277 -0.8072  0.5014 -0.2477
  276MOL0     C36341  -3.688   3.469   6.240  0.3016 -0.6188 -0.3386
  276MOL0     C36342  -3.711   3.610   6.282 -0.4767 -0.6128  0.0799
  276MOL0     C36343  -3.819   3.683   6.198  0.0984 -0.5757 -1.0621
  276MOL0    Cl36344  -3.978   3.583   6.208  0.3743  0.4600 -0.2770
  276MOL0     C36345  -2.928   2.913   6.470 -0.5853 -0.2716 -0.0895
  276MOL0     C36346  -2.795   2.867   6.484  0.2689 -0.5816 -0.0507
  276MOL0     O36347  -2.536   3.067   6.543 -0.0661 -0.4422  0.4289
  276MOL0     C36348  -2.284   2.841   6.398 -0.4749 -0.0339 -0.8914
  276MOL0     C36349  -2.151   2.817   6.409  0.6217 -0.8816  0.1295
  276MOL0     N36350  -1.349   3.133   6.565  0.0603 -0.1268  0.4416
  276MOL0     N36351  -1.225   3.158   6.596 -0.2596  0.5115  0.4872
  276MOL0     C36352  -0.113   2.907   7.098  0.2382 -0.4654  0.0829
  276MOL0     C36353   0.015   2.943   7.062 -0.3404 -0.1707  0.1395
  276MOL0     C36354   0.387   3.215   7.009 -0.4058  0.6771 -0.7223
  276MOL0     C36355   0.433   3.116   6.926  0.2819  0.5853 -0.3456
  276MOL0     C36356   0.562   3.126   6.876 -0.5815 -0.5583 -0.3767
  276MOL0     C36357   0.645   3.238   6.918  0.0694 -0.1089  0.0836
  276MOL0     O36358   0.771   3.261   6.871 -0.0497 -0.3988 -0.4954
  276MOL0     C36359   0.835   3.166   6.795  0.2965 -0.1218  0.7182
  276MOL0     C36360   0.977   3.185   6.748 -1.2406 -0.2609 -0.6419
  276MOL0     C36361   1.065   3.166   6.870  0.3013  1.3140 -0.9143
  276MOL0     C36362   1.206   3.239   6.855 -0.3246  0.3561 -0.0307
  276MOL0     C36363   1.281   3.169   6.746  0.6240 -0.0386 -0.2763
  276MOL0     C36364   1.340   3.115   6.652  0.0840  0.5160  0.3060
  276MOL0     C36365   0.596   3.333   7.006  0.4884  0.9054  0.2281
  276MOL0     C36366   0.466   3.325   7.044  0.2441  0.2744  0.2238
  276MOL0     H36367  -0.028   3.270   7.130  1.1091 -0.7574 -0.3164
  276MOL0     H36368  -0.242   3.199   7.213 -1.8496 -2.5135  1.5077
  276MOL0     H36369  -0.490   2.842   7.200  0.0676  1.5414  1.3165
  276MOL0     H36370  -0.324   2.781   7.178  1.1230 -0.1183 -0.9164
  276MOL0     H36371  -0.418   2.735   6.967  0.2424 -0.3084 -1.6076
  276MOL0     H36372  -0.368   2.900   6.933 -2.9662  2.6386  0.0400
  276MOL0     H36373  -0.596   2.964   7.051 -0.0395  0.3140 -0.9611
  276MOL0     H36374  -0.650   2.804   7.005 -0.5312  1.3463  1.8055
  276MOL0     H36375  -0.576   3.012   6.796  0.2451  0.9497  1.3622
  276MOL0     H36376  -0.599   2.841   6.766 -0.6762  0.3623 -1.4916
  276MOL0     H36377  -0.812   3.014   6.898 -0.7537 -0.4569  0.3009
  276MOL0     H36378  -0.831   2.852   6.833  0.5690  1.2607 -0.3285
  276MOL0     H36379  -0.772   2.925   6.612  2.1740  0.2936  1.5342
  276MOL0     H36380  -0.769   3.090   6.669  0.6384  0.1884 -1.8569
  276MOL0     H36381  -1.020   2.912   6.693  1.8996 -0.6424 -0.9299
  276MOL0     H36382  -1.007   3.069   6.760 -0.9297 -1.3522 -0.2370
  276MOL0     H36383  -0.947   3.013   6.464 -0.2494  2.2893 -0.7765
  276MOL0     H36384  -0.956   3.171   6.524  1.9270 -0.1470  0.1416
  276MOL0     H36385  -1.184   2.922   6.374  4.3061  0.8168  0.5585
  276MOL0     H36386  -1.450   2.845   6.418  0.0560 -0.0928 -1.2145
  276MOL0     H36387  -1.479   2.981   6.302 -0.0873  2.0151  0.9560
  276MOL0     H36388  -1.597   3.090   6.467  1.1118 -0.3310 -2.6000
  276MOL0     H36389  -1.574   2.977   6.592  1.3704 -0.1261 -0.8888
  276MOL0     H36390  -1.728   2.918   6.338 -1.2136  0.5677  0.1002
  276MOL0     H36391  -1.685   2.795   6.469 -0.8317  0.3916  3.3962
  276MOL0     H36392  -1.873   3.036   6.495 -4.0962 -0.8604  1.0244
  276MOL0     H36393  -1.817   2.941   6.633  1.6349 -1.3680 -0.4492
  276MOL0     H36394  -2.048   3.056   6.618  1.0381 -2.7107  1.5735
  276MOL0     H36395  -2.307   3.119   6.606 -0.8453 -0.8792  1.5561
  276MOL0     H36396  -2.662   3.048   6.218 -0.6138  0.1414 -0.6513
  276MOL0     H36397  -2.884   3.112   6.197  2.8899  0.4368 -0.5832
  276MOL0     H36398  -3.125   3.049   6.143 -1.4180 -1.4550  0.5406
  276MOL0     H36399  -3.096   3.205   6.235 -1.4760  0.7731 -0.7450
  276MOL0     H36400  -3.342   3.054   6.297  1.7865 -3.6356 -2.8881
  276MOL0     H36401  -3.319   3.080   6.130 -0.1128 -0.8394  0.1502
  276MOL0     H36402  -3.305   3.327   6.161 -0.6313  1.5615  1.1948
  276MOL0     H36403  -3.311   3.317   6.336 -0.6958 -0.4866  0.5162
  276MOL0     H36404  -3.529   3.273   6.137 -0.7819  2.5020  0.0093
  276MOL0     H36405  -3.541   3.214   6.308  1.5697 -0.9177 -0.6586
  276MOL0     H36406  -3.479   3.502   6.220 -0.4213  1.1885  0.9720
  276MOL0     H36407  -3.524   3.452   6.383 -0.6064  0.8185 -0.3374
  276MOL0     H36408  -3.757   3.404   6.295  2.0396 -2.0500  0.2558
  276MOL0     H36409  -3.697   3.463   6.131  1.0178  1.9676 -0.5926
  276MOL0     H36410  -3.740   3.600   6.387 -0.8173 -0.6913 -0.0202
  276MOL0     H36411  -3.616   3.664   6.269 -1.0363  0.4509  0.3231
  276MOL0     H36412  -3.781   3.693   6.096  1.3048 -0.5278 -0.6318
  276MOL0     H36413  -3.844   3.780   6.241  1.1094  0.0963 -1.9461
  276MOL0     H36414  -3.001   2.882   6.544 -0.4957  0.7038  0.4192
  276MOL0     H36415  -2.774   2.803   6.569 -0.5629  1.4673  1.7873
  276MOL0     H36416  -2.352   2.782   6.337 -3.5098  3.1991 -0.9970
  276MOL0     H36417  -2.111   2.731   6.356  3.4006 -0.1156  0.8480
  276MOL0     H36418  -0.150   2.807   7.075 -3.1149  0.7342 -0.2861
  276MOL0     H36419   0.089   2.873   7.024 -0.6603 -1.3433  1.5795
  276MOL0     H36420   0.367   3.033   6.902  0.8941 -0.2674  0.8000
  276MOL0     H36421   0.585   3.044   6.809 -2.6027 -1.8185  0.3945
  276MOL0     H36422   0.777   3.144   6.705  0.7790 -1.9662  0.8209
  276MOL0     H36423   0.853   3.074   6.852  1.3593 -0.8492 -0.7202
  276MOL0     H36424   1.006   3.116   6.669  1.7522  0.3733 -0.2166
  276MOL0     H36425   0.990   3.287   6.710 -0.0909  0.1459  0.7339
  276MOL0     H36426   1.078   3.059   6.887 -0.9412  1.3370  0.3410
  276MOL0     H36427   1.007   3.205   6.955 -1.8004  0.3591 -1.8463
  276MOL0     H36428   1.191   3.347   6.843 -1.3597  0.4531  1.7001
  276MOL0     H36429   1.257   3.221   6.950 -3.3170  2.8816  2.2716
  276MOL0     H36430   1.384   3.062   6.570  0.8164 -1.5556  1.9543
  276MOL0     H36431   0.662   3.418   7.021 -0.5352  2.2766 -2.4365
  276MOL0     H36432   0.434   3.401   7.114  3.3906  2.4173 -0.4455
  277MOL0     O36433   7.601   8.915   6.975 -0.4118 -0.9860  0.1697
  277MOL0     C36434   7.661   8.875   6.872  0.2250 -0.4699 -0.1730
  277MOL0     O36435   7.634   8.912   6.749  0.1748 -0.9869 -0.3677
  277MOL0     C36436   7.537   9.002   6.718  0.7716  0.2152  0.3363
  277MOL0     C36437   7.528   9.138   6.756 -0.1670  0.9563  0.8830
  277MOL0     C36438   7.414   9.209   6.716  0.2976  0.1617 -0.5468
  277MOL0     C36439   7.314   9.155   6.629 -0.6722 -0.1943 -0.0092
  277MOL0     O36440   7.212   9.226   6.562  0.2413 -0.1042  0.2546
  277MOL0     C36441   7.127   9.296   6.655  0.3020 -0.3040  0.4403
  277MOL0     C36442   7.002   9.342   6.596  0.3909 -0.0228  0.1427
  277MOL0     C36443   7.023   9.469   6.497 -0.1935 -0.2060 -0.4503
  277MOL0     C36444   6.927   9.466   6.380 -0.2053  0.2921 -0.0828
  277MOL0     C36445   6.981   9.399   6.255 -0.3476  0.4630  0.2137
  277MOL0     C36446   6.867   9.384   6.152  0.0475  0.1232  0.9742
  277MOL0     C36447   6.799   9.513   6.088 -0.2058  0.4922  0.2312
  277MOL0     C36448   6.892   9.601   6.005 -0.4650 -0.3107  0.0645
  277MOL0     N36449   6.946   9.530   5.889 -0.0701 -0.1928 -0.4347
  277MOL0     C36450   6.893   9.541   5.761 -0.2276  1.0888 -0.6360
  277MOL0     C36451   6.987   9.503   5.676  0.0735 -0.1666  0.3443
  277MOL0     C36452   6.974   9.475   5.522  0.0631 -0.1686 -0.0130
  277MOL0     C36453   6.896   9.587   5.459 -0.1417  0.0654 -0.2951
  277MOL0     C36454   6.889   9.577   5.312 -0.0626  0.2398  0.6912
  277MOL0     C36455   6.802   9.688   5.249 -0.6661  0.2032 -0.3218
  277MOL0     O36456   6.668   9.648   5.267 -0.0666  0.3422  0.5663
  277MOL0     C36457   6.577   9.739   5.223  0.4529 -0.0504  0.0398
  277MOL0     C36458   6.596   9.809   5.105 -0.2479 -0.6272  0.1701
  277MOL0     C36459   6.496   9.904   5.062 -0.2875 -0.1321  0.4246
  277MOL0     C36460   6.378   9.925   5.146  0.0488 -0.5441  0.2531
  277MOL0     C36461   6.280  10.020   5.106  0.2982  0.4065  0.8087
  277MOL0     O36462   6.151   9.993   5.140 -0.7632 -0.5645 -0.4591
  277MOL0     C36463   6.064  10.078   5.085  0.8648  0.1602 -0.1830
  277MOL0     C36464   6.025  10.192   5.152  0.0994  1.0391 -0.3666
  277MOL0     C36465   5.918  10.277   5.108 -0.2612  0.0987  0.4428
  277MOL0     C36466   5.862  10.256   4.980  0.1613 -0.3534  0.3412
  277MOL0     O36467   5.773  10.340   4.918  0.3907 -0.4080  0.2694
  277MOL0     C36468   5.647  10.357   4.975 -0.5799  0.4141 -0.4962
  277MOL0     C36469   5.559  10.236   4.969 -0.8019  0.5317 -0.4041
  277MOL0     C36470   5.403  10.272   4.985  0.0856 -0.0932  0.1979
  277MOL0     C36471   5.317  10.157   4.922 -0.5477  0.1325 -1.0697
  277MOL0     C36472   5.164  10.184   4.937 -0.0560 -0.6465 -0.0793
  277MOL0     C36473   5.094  10.121   4.817 -0.2664  0.0143  0.4302
  277MOL0     C36474   4.944  10.114   4.833  0.1747 -0.4063  0.3362
  277MOL0     C36475   4.870  10.236   4.782  0.0770 -0.3732  0.5045
  277MOL0    Cl36476   4.690  10.201   4.807  0.4282 -0.1230 -0.1001
  277MOL0     C36477   5.900  10.142   4.908 -0.5265  0.4011  0.4428
  277MOL0     C36478   5.998  10.054   4.963  0.9727  0.0877 -0.4191
  277MOL0     O36479   6.330  10.120   5.057 -0.3110  0.1486  0.6732
  277MOL0     C36480   6.372   9.854   5.265 -0.0795  1.2182  0.1909
  277MOL0     C36481   6.456   9.748   5.292 -0.3773  0.3800  0.4478
  277MOL0     N36482   7.091   9.458   5.755  0.1016  0.0836 -0.6400
  277MOL0     N36483   7.078   9.484   5.875  0.3359  0.0452  0.1317
  277MOL0     C36484   7.331   9.023   6.594 -0.0629 -0.1418 -0.1742
  277MOL0     C36485   7.431   8.943   6.648  0.2150  0.6723  0.5814
  277MOL0     C36486   7.782   8.782   6.892 -0.0933 -0.8509  0.3725
  277MOL0     C36487   7.828   8.686   6.800  0.2359  0.0031 -0.2968
  277MOL0     C36488   7.942   8.609   6.820  0.7364 -0.3762  0.3003
  277MOL0     C36489   8.014   8.636   6.929 -1.0267  1.1431  0.8718
  277MOL0     O36490   8.139   8.581   6.951  0.0114 -0.4069 -0.4972
  277MOL0     C36491   8.207   8.541   6.831  0.7114 -0.8849  0.2494
  277MOL0     C36492   8.352   8.553   6.851  0.1033 -0.1207  0.0301
  277MOL0     C36493   8.432   8.472   6.752  0.2928  0.1854  0.2738
  277MOL0     C36494   8.583   8.481   6.761 -0.7687 -0.3748  0.7098
  277MOL0     C36495   8.652   8.374   6.686 -0.7232  0.3178 -0.5041
  277MOL0     C36496   8.718   8.289   6.632  0.1356  0.2083  0.0349
  277MOL0     C36497   7.972   8.732   7.026 -0.4448  0.3598  0.3753
  277MOL0     C36498   7.853   8.806   7.005 -0.8123 -0.2142 -0.6125
  277MOL0     H36499   7.602   9.186   6.819 -1.7996  1.4202  2.5305
  277MOL0     H36500   7.421   9.306   6.764 -0.0064  0.2862 -0.7484
  277MOL0     H36501   7.180   9.378   6.705  2.9554 -3.0010  2.3930
  277MOL0     H36502   7.106   9.232   6.742  1.9362  0.4314  1.4341
  277MOL0     H36503   6.937   9.381   6.675 -1.6647  1.2189 -2.0276
  277MOL0     H36504   6.944   9.260   6.554  0.9610  0.7915 -2.4151
  277MOL0     H36505   7.124   9.488   6.461 -0.4998  0.3242 -1.0464
  277MOL0     H36506   6.998   9.556   6.557  0.6383  0.2629 -0.7753
  277MOL0     H36507   6.835   9.416   6.412 -0.2404  1.8608  2.6072
  277MOL0     H36508   6.893   9.567   6.359  0.8383  1.7719  4.1623
  277MOL0     H36509   7.031   9.302   6.267  0.6910  0.7929 -1.1958
  277MOL0     H36510   7.054   9.473   6.222 -1.5587  3.0039  2.7870
  277MOL0     H36511   6.785   9.325   6.191 -1.7922  2.4611  0.8734
  277MOL0     H36512   6.900   9.330   6.062 -2.1884 -1.0538  0.8043
  277MOL0     H36513   6.713   9.487   6.026 -2.0331 -1.7868  3.4487
  277MOL0     H36514   6.768   9.580   6.169 -1.0265 -1.2761  1.4581
  277MOL0     H36515   6.973   9.624   6.076  0.5574 -0.7189 -0.9419
  277MOL0     H36516   6.849   9.699   5.985 -1.7662 -1.2913 -2.2589
  277MOL0     H36517   6.792   9.575   5.740 -2.0225 -1.7445  2.3932
  277MOL0     H36518   6.926   9.379   5.501 -2.0845  0.8247  0.1527
  277MOL0     H36519   7.071   9.479   5.470  0.1645 -0.5495  0.1423
  277MOL0     H36520   6.945   9.682   5.481  0.1219 -0.0477 -0.3910
  277MOL0     H36521   6.795   9.608   5.497 -0.0945  0.4169 -0.3651
  277MOL0     H36522   6.984   9.573   5.258 -1.2128  2.9423 -1.8127
  277MOL0     H36523   6.832   9.487   5.287  1.7983 -0.8465  0.1474
  277MOL0     H36524   6.819   9.692   5.141 -2.4141  0.3546 -0.6196
  277MOL0     H36525   6.821   9.788   5.290  0.9918 -0.2720  0.1557
  277MOL0     H36526   6.685   9.788   5.046  1.2916 -1.0658  2.5341
  277MOL0     H36527   6.518   9.966   4.976  0.2198 -1.6428 -0.5661
  277MOL0     H36528   6.067  10.221   5.247 -0.4047  0.9333 -0.1042
  277MOL0     H36529   5.878  10.356   5.170  0.2943  1.8310 -1.3181
  277MOL0     H36530   5.605  10.445   4.926  0.0854  2.9450  3.0298
  277MOL0     H36531   5.677  10.383   5.077 -1.9444  1.5289 -0.3502
  277MOL0     H36532   5.572  10.161   5.047 -4.9745 -1.0641 -0.9599
  277MOL0     H36533   5.592  10.179   4.883  0.8196 -2.7655  2.1742
  277MOL0     H36534   5.379  10.368   4.937 -0.0291 -1.4703 -2.7134
  277MOL0     H36535   5.386  10.283   5.092 -2.7124  1.2305 -0.2629
  277MOL0     H36536   5.345  10.144   4.817  2.5094  1.2346 -0.4770
  277MOL0     H36537   5.339  10.059   4.967 -1.0332  0.5372  0.0855
  277MOL0     H36538   5.142  10.291   4.935  0.2913 -0.5575  0.6435
  277MOL0     H36539   5.126  10.148   5.033  4.2899  0.7609  2.4344
  277MOL0     H36540   5.110  10.013   4.810 -1.0877 -0.0122 -1.4648
  277MOL0     H36541   5.134  10.162   4.724  2.1898 -0.8525  1.0064
  277MOL0     H36542   4.906  10.028   4.776 -2.7739  0.0955  1.3652
  277MOL0     H36543   4.906  10.096   4.934  1.0893 -0.4651  0.6757
  277MOL0     H36544   4.891  10.250   4.675 -1.8418  2.3895  0.3839
  277MOL0     H36545   4.885  10.331   4.835 -0.0661 -0.5759  0.9061
  277MOL0     H36546   5.855  10.121   4.811 -0.9242  2.5660  0.1064
  277MOL0     H36547   6.032   9.970   4.903 -0.7253 -0.7654 -0.2416
  277MOL0     H36548   6.288   9.869   5.332 -2.5529 -1.9049 -1.8715
  277MOL0     H36549   6.441   9.679   5.374 -1.2216  1.2874  1.0749
  277MOL0     H36550   7.248   8.983   6.536 -1.8727 -0.7477  2.6603
  277MOL0     H36551   7.430   8.836   6.630 -1.6661  0.9244 -1.1371
  277MOL0     H36552   7.770   8.668   6.710  0.3353  1.3539 -0.6653
  277MOL0     H36553   7.963   8.541   6.738  0.9212  1.3715 -1.1663
  277MOL0     H36554   8.173   8.607   6.750 -0.8661  1.7234  2.8324
  277MOL0     H36555   8.177   8.442   6.796 -1.9554  0.4253 -1.5894
  277MOL0     H36556   8.379   8.658   6.844  3.8004 -1.0088 -1.5599
  277MOL0     H36557   8.389   8.527   6.951 -0.5243 -2.5822 -0.3016
  277MOL0     H36558   8.409   8.496   6.648  0.0336  0.3714  0.3740
  277MOL0     H36559   8.403   8.369   6.774  3.0397 -0.2191  2.7291
  277MOL0     H36560   8.615   8.581   6.729 -3.0440 -0.0808 -0.9061
  277MOL0     H36561   8.626   8.481   6.862  0.5100  3.2479  0.2985
  277MOL0     H36562   8.769   8.210   6.581 -1.1669 -1.4323  1.1638
  277MOL0     H36563   8.034   8.749   7.113 -0.2345  0.1946  0.2590
  277MOL0     H36564   7.820   8.884   7.073 -1.0285  0.8151 -1.8645
  278MOL0     O36565  10.215   2.232   1.113  0.3820  0.1486 -0.1087
  278MOL0     C36566  10.196   2.245   0.989  0.1008 -0.3752 -0.4214
  278MOL0     O36567  10.279   2.207   0.894  0.3545 -0.2492  0.2224
  278MOL0     C36568  10.389   2.131   0.916 -1.3467  0.0413  0.5289
  278MOL0     C36569  10.506   2.149   0.833  0.1033  0.3047  0.3136
  278MOL0     C36570  10.613   2.054   0.846 -0.2625  0.2690 -0.1189
  278MOL0     C36571  10.616   1.953   0.947  0.4063  0.1150  0.1189
  278MOL0     O36572  10.720   1.861   0.942 -0.4373 -0.1312 -0.3568
  278MOL0     C36573  10.679   1.737   0.992 -0.7387  0.3783 -0.2169
  278MOL0     C36574  10.794   1.647   0.985 -0.8731  0.3119 -0.8020
  278MOL0     C36575  10.866   1.660   0.848  0.8039 -0.3264 -0.0390
  278MOL0     C36576  10.986   1.564   0.857 -0.3556 -0.2709  0.5665
  278MOL0     C36577  11.045   1.556   0.720 -0.5808  0.1089  0.3897
  278MOL0     C36578  11.162   1.456   0.727 -0.4020 -0.4698  0.4167
  278MOL0     C36579  11.204   1.421   0.578  0.3422  0.9913 -0.4633
  278MOL0     C36580  11.326   1.331   0.595  0.9380  0.2615 -0.1841
  278MOL0     N36581  11.358   1.280   0.467 -0.0309  0.1632 -0.2096
  278MOL0     C36582  11.480   1.281   0.414  0.6390  0.1211 -0.3260
  278MOL0     C36583  11.474   1.197   0.314 -0.1132 -0.4243 -0.0895
  278MOL0     C36584  11.592   1.161   0.226 -0.3142  0.3022 -0.6621
  278MOL0     C36585  11.576   1.209   0.078 -0.7835  1.1220  0.7400
  278MOL0     C36586  11.605   1.352   0.049  0.6916 -0.3389  0.0011
  278MOL0     C36587  11.480   1.437   0.016  0.5929  0.0288 -0.0646
  278MOL0     O36588  11.464   1.450  -0.124 -0.1899  0.0434 -0.5687
  278MOL0     C36589  11.343   1.467  -0.185  0.0953 -0.2925  0.4603
  278MOL0     C36590  11.339   1.456  -0.326 -0.1948 -0.2175  0.2541
  278MOL0     C36591  11.224   1.468  -0.401 -0.9214 -1.2402  0.0841
  278MOL0     C36592  11.106   1.477  -0.331 -0.0648 -0.5392  0.3474
  278MOL0     C36593  10.971   1.489  -0.396  0.2954 -0.2780 -0.7913
  278MOL0     O36594  10.861   1.472  -0.324  0.0956 -0.2520 -0.5511
  278MOL0     C36595  10.737   1.484  -0.379  0.7847  0.0967 -0.6409
  278MOL0     C36596  10.693   1.382  -0.462  0.2087 -0.1779 -0.9100
  278MOL0     C36597  10.548   1.376  -0.465 -0.3299 -0.3621  0.3107
  278MOL0     C36598  10.464   1.476  -0.414  0.5890  1.9340 -0.6217
  278MOL0     O36599  10.329   1.469  -0.431 -0.4244 -0.1538 -0.0802
  278MOL0     C36600  10.260   1.367  -0.353 -0.2927 -0.4174 -0.1585
  278MOL0     C36601  10.111   1.381  -0.363  0.4284 -0.4531  0.1064
  278MOL0     C36602  10.063   1.526  -0.324 -0.0382 -0.4588  0.7128
  278MOL0     C36603   9.917   1.554  -0.344 -0.1740 -0.1289 -0.1447
  278MOL0     C36604   9.842   1.496  -0.218 -0.0836 -0.0048  0.6689
  278MOL0     C36605   9.700   1.549  -0.203  0.2910 -0.4193  0.8308
  278MOL0     C36606   9.661   1.552  -0.061 -0.0304  0.6740 -0.0248
  278MOL0     C36607   9.524   1.614  -0.047  0.4127  0.6204  0.2716
  278MOL0    Cl36608   9.530   1.791  -0.040 -0.1888 -0.1953  0.3183
  278MOL0     C36609  10.515   1.573  -0.337  0.4567 -0.5187 -0.2278
  278MOL0     C36610  10.652   1.574  -0.319 -0.8249  0.1032 -0.6685
  278MOL0     O36611  10.976   1.494  -0.514 -0.9505 -0.6956  0.3614
  278MOL0     C36612  11.105   1.488  -0.194 -1.0083 -0.2743 -0.5598
  278MOL0     C36613  11.218   1.494  -0.117  0.2001  0.2866  0.0605
  278MOL0     N36614  11.349   1.158   0.298  0.5043 -0.4081  0.2159
  278MOL0     N36615  11.278   1.201   0.397  0.5666  1.3445 -0.5801
  278MOL0     C36616  10.502   1.951   1.027  1.0837 -0.3456  0.6772
  278MOL0     C36617  10.388   2.032   1.014  0.2523 -1.0613 -0.0090
  278MOL0     C36618  10.070   2.305   0.942 -0.3008 -0.2782 -0.3056
  278MOL0     C36619   9.968   2.335   1.041  0.5697  0.4859  0.0811
  278MOL0     C36620   9.842   2.383   1.008 -0.2117  0.4328 -0.1329
  278MOL0     C36621   9.811   2.396   0.872  0.4000 -0.4283 -0.0979
  278MOL0     O36622   9.685   2.433   0.827 -0.7779  0.0522  0.0899
  278MOL0     C36623   9.571   2.443   0.910  0.7263  0.0641 -0.0415
  278MOL0     C36624   9.536   2.586   0.941 -0.2046 -0.2746  0.7399
  278MOL0     C36625   9.469   2.595   1.083 -0.4439  1.0848  0.1656
  278MOL0     C36626   9.422   2.728   1.117  0.1056  0.1249  0.2774
  278MOL0     C36627   9.304   2.765   1.035  0.8687 -1.0270 -0.1058
  278MOL0     C36628   9.203   2.790   0.967  0.1746  0.4287 -1.1309
  278MOL0     C36629   9.901   2.373   0.776 -1.0636 -0.1005  0.6382
  278MOL0     C36630  10.037   2.335   0.812 -0.2565  0.5623  0.0990
  278MOL0     H36631  10.483   2.221   0.756 -0.1024  0.8622  0.8823
  278MOL0     H36632  10.700   2.056   0.781 -1.4143  2.8246 -1.7438
  278MOL0     H36633  10.592   1.697   0.938 -0.3794  0.2308 -0.6876
  278MOL0     H36634  10.658   1.745   1.100  2.5581  0.5422  0.5065
  278MOL0     H36635  10.764   1.542   0.996 -3.2476  0.7272 -2.4045
  278MOL0     H36636  10.848   1.683   1.073 -1.3562  0.4610 -0.5588
  278MOL0     H36637  10.899   1.763   0.831  2.2893 -0.8847 -0.6790
  278MOL0     H36638  10.799   1.636   0.764  1.0824 -0.7125 -0.1542
  278MOL0     H36639  11.054   1.596   0.936  1.6732 -3.6146  0.4026
  278MOL0     H36640  10.956   1.461   0.879  1.3926 -0.6471  1.3972
  278MOL0     H36641  11.079   1.649   0.674 -1.4710 -1.4260 -3.8803
  278MOL0     H36642  10.971   1.515   0.650  1.1393 -1.8720 -0.3818
  278MOL0     H36643  11.118   1.365   0.769  0.7764 -2.0538 -1.6244
  278MOL0     H36644  11.243   1.488   0.794 -0.5292 -0.4210  0.5495
  278MOL0     H36645  11.125   1.380   0.514 -0.3920  2.6407 -0.6920
  278MOL0     H36646  11.244   1.507   0.522  1.4339  0.6677 -0.1937
  278MOL0     H36647  11.297   1.247   0.657 -1.5464  1.5061  0.4509
  278MOL0     H36648  11.407   1.387   0.644  0.0710  0.6495  0.8472
  278MOL0     H36649  11.559   1.343   0.455  2.0096 -0.9651 -1.2393
  278MOL0     H36650  11.618   1.055   0.230  1.0589  0.5931 -1.1132
  278MOL0     H36651  11.675   1.197   0.287 -0.7915 -0.2450  0.3294
  278MOL0     H36652  11.477   1.176   0.047 -0.3118 -0.2632  0.6399
  278MOL0     H36653  11.644   1.152   0.014  0.8280 -0.9449  4.0102
  278MOL0     H36654  11.654   1.395   0.137  1.3368  1.2435 -1.0833
  278MOL0     H36655  11.670   1.360  -0.038 -1.8097  1.4252 -1.8670
  278MOL0     H36656  11.480   1.532   0.070 -0.1222 -0.8466  1.5428
  278MOL0     H36657  11.394   1.383   0.056  1.0812 -0.1746  0.7176
  278MOL0     H36658  11.435   1.437  -0.373 -0.1148  1.7961 -0.4778
  278MOL0     H36659  11.226   1.465  -0.509 -0.3784 -0.0136  0.0439
  278MOL0     H36660  10.762   1.304  -0.493  0.3086 -0.6951  0.5337
  278MOL0     H36661  10.503   1.291  -0.516  0.2204 -0.0716 -0.6691
  278MOL0     H36662  10.285   1.380  -0.247 -1.4104 -1.2755  0.2272
  278MOL0     H36663  10.283   1.265  -0.386 -1.5195 -1.3480  1.6962
  278MOL0     H36664  10.062   1.312  -0.293 -1.0959  1.6268  1.2066
  278MOL0     H36665  10.084   1.348  -0.464  1.5296 -0.8050 -0.0836
  278MOL0     H36666  10.109   1.587  -0.403 -2.3789  2.6742  1.5736
  278MOL0     H36667  10.103   1.562  -0.229 -0.3099  0.9728  0.3046
  278MOL0     H36668   9.901   1.663  -0.339  0.5739 -0.0223 -0.0590
  278MOL0     H36669   9.885   1.508  -0.438 -0.1569  0.0387 -0.2341
  278MOL0     H36670   9.905   1.529  -0.136 -1.3419  0.6945  1.3818
  278MOL0     H36671   9.840   1.386  -0.218 -0.7633 -0.0022 -0.1244
  278MOL0     H36672   9.633   1.484  -0.262 -0.2140  0.2996  0.6021
  278MOL0     H36673   9.690   1.652  -0.236 -0.6102 -0.4888  0.8633
  278MOL0     H36674   9.674   1.456  -0.011 -1.8922 -0.3989 -1.4754
  278MOL0     H36675   9.728   1.619  -0.006 -0.5239  0.8336  0.3980
  278MOL0     H36676   9.480   1.572   0.044  0.0828 -0.0677 -0.2000
  278MOL0     H36677   9.467   1.592  -0.137 -2.0405  2.8994  1.1208
  278MOL0     H36678  10.443   1.648  -0.305 -0.5069 -0.9170 -1.3838
  278MOL0     H36679  10.697   1.651  -0.257 -0.4990  0.8243 -1.7584
  278MOL0     H36680  11.014   1.486  -0.135 -0.9977 -1.1809 -0.5585
  278MOL0     H36681  11.201   1.522  -0.013 -1.1376 -1.7052  0.4404
  278MOL0     H36682  10.493   1.877   1.106 -2.4503 -1.6808 -0.7593
  278MOL0     H36683  10.303   2.001   1.074 -1.1528  0.4479 -1.1442
  278MOL0     H36684   9.986   2.324   1.147 -0.0748 -0.9321  0.0587
  278MOL0     H36685   9.766   2.406   1.082 -1.0143  2.8716 -1.6008
  278MOL0     H36686   9.581   2.380   0.999  0.5833 -0.0193 -0.0847
  278MOL0     H36687   9.489   2.387   0.865  1.8233 -1.7254  0.0900
  278MOL0     H36688   9.632   2.639   0.937 -0.8176  0.8247 -1.6683
  278MOL0     H36689   9.470   2.626   0.863 -2.2094  0.0957  2.5321
  278MOL0     H36690   9.542   2.574   1.162  0.4507  1.2035 -0.6215
  278MOL0     H36691   9.392   2.517   1.083 -1.6565  2.2389 -0.4285
  278MOL0     H36692   9.394   2.740   1.222  0.3242  0.7427  0.2673
  278MOL0     H36693   9.511   2.787   1.093 -0.5045  0.1303 -2.2992
  278MOL0     H36694   9.116   2.811   0.909  0.6960 -1.4953 -2.7118
  278MOL0     H36695   9.869   2.397   0.675  0.0719  0.7788  0.4738
  278MOL0     H36696  10.113   2.313   0.737 -0.7574 -2.8434  0.4737
  279MOL0     O36697   1.292   4.683   0.036  0.2236 -0.2944  0.1051
  279MOL0     C36698   1.225   4.681   0.137  0.3987 -0.8738 -0.3376
  279MOL0     O36699   1.273   4.665   0.270 -0.8013 -0.1190  0.9582
  279MOL0     C36700   1.408   4.657   0.292  0.4465 -0.1498 -1.4628
  279MOL0     C36701   1.462   4.528   0.308 -0.8277 -0.9450  0.3560
  279MOL0     C36702   1.595   4.511   0.342  0.7839  0.5986 -0.0647
  279MOL0     C36703   1.684   4.622   0.357 -0.5874 -0.9060 -0.7704
  279MOL0     O36704   1.817   4.607   0.391 -0.9334 -0.4403 -0.1589
  279MOL0     C36705   1.905   4.552   0.287  0.6626 -0.3849 -0.7537
  279MOL0     C36706   1.913   4.645   0.159 -0.5031  0.2479  0.5459
  279MOL0     C36707   2.017   4.754   0.162  0.2550 -0.3710 -0.0481
  279MOL0     C36708   2.016   4.843   0.289 -0.4504 -1.1082 -1.5435
  279MOL0     C36709   2.117   4.960   0.283  0.1816  0.3014  0.0539
  279MOL0     C36710   2.252   4.895   0.321 -0.1970  0.5958  0.4271
  279MOL0     C36711   2.373   4.978   0.322  0.6652  0.5757  0.0572
  279MOL0     C36712   2.493   4.893   0.290  0.9482  0.1198 -0.0256
  279MOL0     N36713   2.600   4.982   0.235 -0.0321 -0.0476 -0.4839
  279MOL0     C36714   2.690   5.060   0.305 -0.5371  0.0479 -0.4902
  279MOL0     C36715   2.776   5.102   0.206  0.3381  0.1446 -0.0433
  279MOL0     C36716   2.898   5.184   0.217 -0.0099  0.1152 -0.3972
  279MOL0     C36717   2.887   5.304   0.125  0.6064 -0.3439  0.0630
  279MOL0     C36718   2.755   5.384   0.120 -0.0179 -0.1692 -0.7069
  279MOL0     C36719   2.696   5.426   0.255 -0.9260  0.5478 -0.0587
  279MOL0     O36720   2.581   5.511   0.250  0.1245 -0.4205  0.1024
  279MOL0     C36721   2.453   5.464   0.254  0.2154  0.0350 -0.1727
  279MOL0     C36722   2.355   5.544   0.305 -0.3180  0.1353  0.0970
  279MOL0     C36723   2.218   5.511   0.302  1.0719  0.3348 -0.1125
  279MOL0     C36724   2.181   5.398   0.233  0.6065 -0.7733 -0.9284
  279MOL0     C36725   2.040   5.362   0.215  0.2125 -0.2446 -0.1753
  279MOL0     O36726   1.943   5.429   0.291  0.7657 -0.7563 -0.8766
  279MOL0     C36727   1.817   5.383   0.259  0.5205 -0.0458  0.4437
  279MOL0     C36728   1.758   5.386   0.133 -0.7162 -0.7084  0.0126
  279MOL0     C36729   1.630   5.334   0.114  0.4425 -1.0002 -0.0495
  279MOL0     C36730   1.554   5.273   0.223  0.0372 -0.0968 -0.6265
  279MOL0     O36731   1.431   5.216   0.217 -0.1172  0.8810  0.0311
  279MOL0     C36732   1.358   5.219   0.086  0.2634  0.3168  0.2202
  279MOL0     C36733   1.219   5.159   0.102  0.2757 -0.4886 -0.4428
  279MOL0     C36734   1.149   5.186  -0.027 -0.8080 -0.2283  0.3695
  279MOL0     C36735   1.005   5.196  -0.006 -0.1872 -0.0453  0.7478
  279MOL0     C36736   0.949   5.046   0.021  0.2595 -0.2568  0.4609
  279MOL0     C36737   0.794   5.059   0.016  0.9111  0.5231  0.3711
  279MOL0     C36738   0.733   5.153   0.125 -0.4395  0.2208 -0.1564
  279MOL0     C36739   0.586   5.170   0.090 -0.0053 -0.0329  0.1765
  279MOL0    Cl36740   0.480   5.225   0.215 -0.5828 -0.4139 -0.1476
  279MOL0     C36741   1.618   5.279   0.352 -0.7294 -0.4693  0.1436
  279MOL0     C36742   1.740   5.331   0.365 -0.8637  1.0201 -0.4841
  279MOL0     O36743   2.013   5.264   0.143  0.3401  0.2554 -0.3670
  279MOL0     C36744   2.277   5.315   0.185 -0.4062  0.1858 -0.7103
  279MOL0     C36745   2.419   5.343   0.196  0.0293  1.2990 -0.0571
  279MOL0     N36746   2.742   5.044   0.085  0.0577  0.4174 -0.8985
  279MOL0     N36747   2.633   4.979   0.103  1.4087 -0.2143 -0.3385
  279MOL0     C36748   1.624   4.752   0.340  0.5204  0.2795 -1.2791
  279MOL0     C36749   1.488   4.771   0.300  0.1533 -0.4429  0.4891
  279MOL0     C36750   1.078   4.677   0.122  0.1303 -0.6473  0.6202
  279MOL0     C36751   1.017   4.697  -0.007 -0.2138  0.6403 -0.5860
  279MOL0     C36752   0.879   4.690  -0.015  0.1802  0.3159 -0.2423
  279MOL0     C36753   0.804   4.675   0.101 -1.1338  0.3442  0.7997
  279MOL0     O36754   0.666   4.684   0.078 -1.2330 -0.3302 -0.2826
  279MOL0     C36755   0.574   4.668   0.191 -0.5621 -0.2044  0.4005
  279MOL0     C36756   0.435   4.693   0.132  0.5882  0.0439 -0.1558
  279MOL0     C36757   0.322   4.663   0.239  0.6074  0.7537 -0.6730
  279MOL0     C36758   0.254   4.528   0.234  0.1158  0.0614 -0.0565
  279MOL0     C36759   0.350   4.426   0.282  1.2263  0.3586  0.2795
  279MOL0     C36760   0.423   4.340   0.317 -0.0206 -0.3073  0.2215
  279MOL0     C36761   0.860   4.673   0.226 -0.3641  0.6637 -0.4904
  279MOL0     C36762   1.004   4.668   0.245  0.8074  0.5278 -0.0359
  279MOL0     H36763   1.409   4.437   0.280 -2.8082 -0.2362  1.5598
  279MOL0     H36764   1.644   4.414   0.350 -0.8134 -0.2145  0.1601
  279MOL0     H36765   1.863   4.454   0.261 -3.4469  0.3017  2.2605
  279MOL0     H36766   2.004   4.531   0.329 -0.0571 -1.3510  0.5509
  279MOL0     H36767   1.812   4.679   0.133 -1.0504 -2.2713 -0.9811
  279MOL0     H36768   1.945   4.579   0.077  0.3248 -0.1353  1.1621
  279MOL0     H36769   2.006   4.814   0.071 -1.3537 -2.4983 -1.3329
  279MOL0     H36770   2.115   4.705   0.165  0.0029 -0.8864 -0.1572
  279MOL0     H36771   1.915   4.880   0.308  0.1584  0.7796 -1.8098
  279MOL0     H36772   2.031   4.790   0.383 -1.6727  0.3099 -0.5229
  279MOL0     H36773   2.090   5.049   0.340  0.7438  0.9205 -0.6301
  279MOL0     H36774   2.123   4.995   0.180  3.2946 -2.0325 -0.6925
  279MOL0     H36775   2.265   4.808   0.256 -0.5993  1.9251 -1.5159
  279MOL0     H36776   2.240   4.853   0.421 -3.1277  0.6194  0.1657
  279MOL0     H36777   2.361   5.056   0.246 -0.4141 -0.2953 -0.7035
  279MOL0     H36778   2.388   5.032   0.415 -0.8228  0.1664  0.5614
  279MOL0     H36779   2.473   4.819   0.212 -1.0617  1.2592 -0.6650
  279MOL0     H36780   2.516   4.838   0.382 -0.0126  1.4870  1.0811
  279MOL0     H36781   2.704   5.087   0.410  2.4680  1.6572 -1.1988
  279MOL0     H36782   2.989   5.128   0.192  1.2294  0.7168  2.4286
  279MOL0     H36783   2.914   5.222   0.318  1.3056  2.2830 -1.3404
  279MOL0     H36784   2.913   5.266   0.026  3.0766 -4.8575  2.1381
  279MOL0     H36785   2.959   5.382   0.152  0.0787 -0.0518  0.6588
  279MOL0     H36786   2.778   5.479   0.069 -1.3353 -0.1273 -1.2880
  279MOL0     H36787   2.685   5.330   0.055 -0.6653 -2.0820  1.4766
  279MOL0     H36788   2.770   5.461   0.328  2.5914 -1.5326 -2.3686
  279MOL0     H36789   2.655   5.333   0.296  0.0142 -0.5978 -1.6494
  279MOL0     H36790   2.375   5.642   0.345  0.2786 -0.4233  1.2063
  279MOL0     H36791   2.139   5.572   0.345 -1.3669 -3.3772  1.2398
  279MOL0     H36792   1.821   5.420   0.052 -1.2008  4.1917  1.3919
  279MOL0     H36793   1.589   5.345   0.014  1.1311  1.0561 -0.1505
  279MOL0     H36794   1.415   5.152   0.022 -3.1058 -0.0378 -2.6965
  279MOL0     H36795   1.352   5.320   0.045  0.5625 -0.0802 -0.8260
  279MOL0     H36796   1.170   5.207   0.187  1.3740  0.6201 -0.3946
  279MOL0     H36797   1.225   5.052   0.123 -2.1165 -0.3865  1.1516
  279MOL0     H36798   1.173   5.103  -0.094  2.9783 -2.2125  3.7248
  279MOL0     H36799   1.185   5.274  -0.081 -3.9750  2.0928  1.7233
  279MOL0     H36800   0.991   5.262   0.080  0.4659  2.3338 -0.8993
  279MOL0     H36801   0.965   5.234  -0.100 -1.0846  0.6147  1.3868
  279MOL0     H36802   0.989   5.009   0.115  0.9987 -2.6390 -0.7178
  279MOL0     H36803   0.982   4.970  -0.050  2.2323 -2.7948  3.8116
  279MOL0     H36804   0.753   4.960   0.036  2.8350 -0.0611  1.7396
  279MOL0     H36805   0.764   5.083  -0.086  1.2918 -1.1381 -0.1631
  279MOL0     H36806   0.728   5.106   0.224 -0.5235  0.7988  0.1194
  279MOL0     H36807   0.785   5.247   0.145  0.9591 -0.6324  0.3704
  279MOL0     H36808   0.544   5.079   0.045 -1.1313  1.5918 -2.2733
  279MOL0     H36809   0.580   5.240   0.006 -1.8418 -0.3940 -0.0492
  279MOL0     H36810   1.575   5.224   0.435  0.9413 -1.9586  0.0700
  279MOL0     H36811   1.798   5.328   0.457 -0.2140 -1.6234 -0.8894
  279MOL0     H36812   2.246   5.223   0.137  0.9073 -0.8278  0.3211
  279MOL0     H36813   2.483   5.263   0.162  0.4490  0.6784  2.0436
  279MOL0     H36814   1.682   4.844   0.344 -1.9885  1.9369 -0.7848
  279MOL0     H36815   1.439   4.867   0.286 -1.3158 -1.2995 -0.4852
  279MOL0     H36816   1.068   4.713  -0.101  1.5910  0.4063  0.3169
  279MOL0     H36817   0.844   4.694  -0.117  0.5398 -1.6243 -0.4766
  279MOL0     H36818   0.580   4.748   0.266 -0.5080  0.9485 -0.8023
  279MOL0     H36819   0.584   4.574   0.246 -1.0342 -0.3759  0.1994
  279MOL0     H36820   0.436   4.799   0.104 -0.3765 -0.2213 -1.2577
  279MOL0     H36821   0.416   4.634   0.042  0.7291 -2.6465  1.4520
  279MOL0     H36822   0.247   4.741   0.224 -1.9587 -1.3515  0.5713
  279MOL0     H36823   0.363   4.685   0.338 -0.4528  2.7871 -0.6361
  279MOL0     H36824   0.168   4.532   0.302 -1.5548  0.8015 -2.1187
  279MOL0     H36825   0.216   4.508   0.133 -1.6221 -0.7223  0.6975
  279MOL0     H36826   0.492   4.265   0.350  1.1894 -0.5918 -2.6695
  279MOL0     H36827   0.787   4.676   0.306 -0.7504  0.6814 -0.8418
  279MOL0     H36828   1.039   4.660   0.347  0.2279  0.8559  0.1926
  280MOL0     O36829   8.675   5.904   1.093 -0.6198  0.6105  0.0020
  280MOL0     C36830   8.688   6.002   1.169  0.0001  0.1327  0.6841
  280MOL0     O36831   8.584   6.095   1.196  0.0828  0.3323 -0.1741
  280MOL0     C36832   8.458   6.056   1.159  0.0318  0.4074 -0.2930
  280MOL0     C36833   8.372   6.143   1.100 -0.5638  0.0087  0.3643
  280MOL0     C36834   8.242   6.103   1.063 -0.4464  0.0414  0.6273
  280MOL0     C36835   8.195   5.977   1.096 -0.0421  0.6589  0.5484
  280MOL0     O36836   8.070   5.949   1.064 -0.2101  1.1886  0.0163
  280MOL0     C36837   8.005   5.824   1.120 -0.0590  0.0098 -0.0444
  280MOL0     C36838   7.851   5.826   1.094 -0.7671  0.3535 -0.6562
  280MOL0     C36839   7.777   5.947   1.157 -0.2520 -0.6384 -0.6360
  280MOL0     C36840   7.635   5.956   1.121 -0.7019 -0.8570  0.0400
  280MOL0     C36841   7.587   6.087   1.170  0.6346  0.6866  0.5420
  280MOL0     C36842   7.432   6.098   1.157  0.1226 -0.0388 -0.1667
  280MOL0     C36843   7.379   6.070   1.016 -0.2336  0.3887 -0.2022
  280MOL0     C36844   7.225   6.074   1.007 -0.0993  0.6394  0.7521
  280MOL0     N36845   7.185   6.057   0.868 -0.8484 -0.5934 -0.6120
  280MOL0     C36846   7.108   6.143   0.795  0.0670 -0.6487 -0.4040
  280MOL0     C36847   7.080   6.076   0.682  0.0480 -0.2417 -0.4564
  280MOL0     C36848   6.997   6.144   0.576  0.6388  0.5526  0.3111
  280MOL0     C36849   6.843   6.133   0.617 -0.7728 -0.1230  0.5380
  280MOL0     C36850   6.800   5.983   0.615 -0.0077  1.0915 -0.0503
  280MOL0     C36851   6.651   5.976   0.562 -1.1516 -0.3270  0.3763
  280MOL0     O36852   6.601   5.840   0.570 -0.3484 -0.2895 -0.6309
  280MOL0     C36853   6.493   5.812   0.500 -0.5442  0.7109  0.1126
  280MOL0     C36854   6.398   5.912   0.461 -0.3973  0.2741 -0.0762
  280MOL0     C36855   6.283   5.886   0.386  0.1608  0.3589 -0.7074
  280MOL0     C36856   6.267   5.757   0.342  0.5672 -0.2716 -0.1776
  280MOL0     C36857   6.153   5.726   0.247 -0.0567  0.1675 -0.0959
  280MOL0     O36858   6.144   5.601   0.196 -0.0562  0.2748  0.0212
  280MOL0     C36859   6.024   5.562   0.148 -0.7268  0.6326 -0.7860
  280MOL0     C36860   5.906   5.582   0.213  0.1368 -0.5630  0.5115
  280MOL0     C36861   5.791   5.546   0.149  0.0228 -0.4591  0.0011
  280MOL0     C36862   5.800   5.482   0.019 -0.0281 -0.2488 -0.2344
  280MOL0     O36863   5.675   5.428  -0.028  0.1820 -0.2576  0.3319
  280MOL0     C36864   5.678   5.367  -0.152  0.8895  0.1520  0.0249
  280MOL0     C36865   5.533   5.319  -0.186 -0.3922 -0.2268  0.1237
  280MOL0     C36866   5.484   5.183  -0.130 -0.0430 -0.6455  1.0858
  280MOL0     C36867   5.355   5.135  -0.183 -0.3548 -0.5218  0.1173
  280MOL0     C36868   5.286   5.049  -0.069 -1.2899 -0.4414  0.1768
  280MOL0     C36869   5.138   5.011  -0.113 -0.7458  1.1637 -0.6197
  280MOL0     C36870   5.051   5.130  -0.099  0.4800  0.8128  0.5205
  280MOL0     C36871   4.909   5.120  -0.179  0.5006 -0.2901  1.2826
  280MOL0    Cl36872   4.794   5.011  -0.097 -0.0256 -0.1019 -0.2325
  280MOL0     C36873   5.918   5.468  -0.046 -0.1915  0.8752  0.8746
  280MOL0     C36874   6.039   5.496   0.028  0.4697 -0.1045  0.1479
  280MOL0     O36875   6.078   5.817   0.218 -0.8510  0.0243  0.0585
  280MOL0     C36876   6.361   5.655   0.384  0.4304 -0.1416  0.5822
  280MOL0     C36877   6.474   5.686   0.463 -0.3945  0.2514 -0.1395
  280MOL0     N36878   7.121   5.951   0.697 -1.4406  0.0825  1.1510
  280MOL0     N36879   7.189   5.932   0.807 -0.0832 -0.5793 -0.0037
  280MOL0     C36880   8.275   5.891   1.173  0.5112 -0.2689 -0.7926
  280MOL0     C36881   8.403   5.935   1.207 -0.5021 -0.3386  0.7098
  280MOL0     C36882   8.821   6.030   1.229 -0.1052 -0.4883  0.9342
  280MOL0     C36883   8.911   5.923   1.244  0.0331  0.0403 -0.2692
  280MOL0     C36884   9.041   5.947   1.303  0.8626 -0.1227 -0.1455
  280MOL0     C36885   9.086   6.080   1.343 -0.3741 -0.8998 -0.0023
  280MOL0     O36886   9.211   6.102   1.388 -0.0813 -0.2639 -0.3075
  280MOL0     C36887   9.320   6.036   1.326  0.8398 -0.4029  0.0511
  280MOL0     C36888   9.446   6.123   1.335 -0.2069  0.2018 -0.1094
  280MOL0     C36889   9.432   6.257   1.266  0.2639 -0.5347  0.0861
  280MOL0     C36890   9.544   6.359   1.288 -0.7666  0.5348 -0.5656
  280MOL0     C36891   9.540   6.406   1.432  0.0722  0.0556 -0.0591
  280MOL0     C36892   9.545   6.456   1.542  0.7255 -0.5623 -1.2222
  280MOL0     C36893   8.991   6.187   1.326  0.8724 -0.4466  0.2026
  280MOL0     C36894   8.857   6.165   1.269  0.8380  0.1175  0.6635
  280MOL0     H36895   8.408   6.236   1.057 -0.4220 -0.4340 -0.5035
  280MOL0     H36896   8.182   6.173   1.006 -0.5099  0.1642  0.8440
  280MOL0     H36897   8.025   5.810   1.227  0.4391  2.4613  0.2312
  280MOL0     H36898   8.050   5.739   1.067  0.6263 -0.0977  0.6918
  280MOL0     H36899   7.802   5.737   1.135  1.8067 -0.1980  1.5507
  280MOL0     H36900   7.830   5.822   0.987  0.4856  1.0875 -0.9432
  280MOL0     H36901   7.828   6.040   1.131  1.5453 -1.9436 -2.1035
  280MOL0     H36902   7.786   5.933   1.265  0.1823 -0.5174 -0.6539
  280MOL0     H36903   7.627   5.966   1.012  1.8397  1.2950 -0.0355
  280MOL0     H36904   7.576   5.872   1.159 -0.1261 -1.3982 -0.2334
  280MOL0     H36905   7.637   6.175   1.129 -0.7916  1.8886  1.2626
  280MOL0     H36906   7.603   6.100   1.277 -0.6303  2.1450  0.5786
  280MOL0     H36907   7.390   6.195   1.185  1.1158  0.2269  0.4277
  280MOL0     H36908   7.388   6.020   1.221 -3.3057  2.0668  0.3371
  280MOL0     H36909   7.426   6.133   0.940 -0.1169 -0.9238 -1.2596
  280MOL0     H36910   7.410   5.966   0.999  0.1670 -0.2357  3.4540
  280MOL0     H36911   7.176   6.166   1.040  0.4875  1.9817 -1.8186
  280MOL0     H36912   7.195   5.987   1.065  1.3522 -0.3551  0.0775
  280MOL0     H36913   7.072   6.240   0.829  0.3044 -0.9904  0.8705
  280MOL0     H36914   7.008   6.095   0.479  0.6007 -0.5932  0.8696
  280MOL0     H36915   7.015   6.251   0.560 -1.2252  0.6079 -1.8847
  280MOL0     H36916   6.781   6.192   0.549  3.4561  3.3944 -0.7178
  280MOL0     H36917   6.843   6.170   0.720  1.1834 -2.0262  1.3009
  280MOL0     H36918   6.861   5.927   0.544 -1.7328  0.2000 -0.9179
  280MOL0     H36919   6.801   5.924   0.707  2.8214 -2.2653 -1.9835
  280MOL0     H36920   6.640   6.018   0.462 -2.8274 -1.3476  0.0972
  280MOL0     H36921   6.588   6.037   0.628  0.5852  1.3872  0.5468
  280MOL0     H36922   6.416   6.014   0.494  2.1830  0.7006 -2.4085
  280MOL0     H36923   6.211   5.962   0.358 -0.9352 -0.5288 -0.3306
  280MOL0     H36924   5.899   5.643   0.303  1.6083  1.8409 -0.8948
  280MOL0     H36925   5.696   5.557   0.201 -2.6149 -4.8733 -3.2043
  280MOL0     H36926   5.750   5.283  -0.156  3.3897  2.0895  1.2737
  280MOL0     H36927   5.718   5.442  -0.220  1.1516  1.0596  1.1499
  280MOL0     H36928   5.537   5.311  -0.295 -0.3154 -3.3219  0.2739
  280MOL0     H36929   5.458   5.395  -0.161  1.5606  1.1074  2.4163
  280MOL0     H36930   5.471   5.212  -0.025 -3.4373 -3.1779  1.5303
  280MOL0     H36931   5.559   5.104  -0.141 -2.5768 -2.8187 -2.7408
  280MOL0     H36932   5.293   5.220  -0.213  0.5802 -0.7866 -2.9381
  280MOL0     H36933   5.374   5.085  -0.279  1.1715  1.5090 -0.7283
  280MOL0     H36934   5.281   5.105   0.025 -0.2253 -3.3130  2.0790
  280MOL0     H36935   5.350   4.963  -0.048  3.0302  2.7454  1.5789
  280MOL0     H36936   5.100   4.945  -0.035  1.2223 -2.1294 -2.2466
  280MOL0     H36937   5.146   4.972  -0.215 -1.6890  0.6153 -0.4922
  280MOL0     H36938   5.030   5.159   0.005  2.0910 -0.2841  1.1944
  280MOL0     H36939   5.102   5.211  -0.151  1.1213  0.1687  0.1204
  280MOL0     H36940   4.920   5.087  -0.283 -1.5516  2.1939  0.1826
  280MOL0     H36941   4.863   5.219  -0.177  2.6558  0.7972  0.9021
  280MOL0     H36942   5.923   5.437  -0.150 -0.1648  0.2452  1.0580
  280MOL0     H36943   6.137   5.485  -0.017 -0.1366 -0.5234 -1.1407
  280MOL0     H36944   6.350   5.554   0.345 -0.5534  0.3812 -0.5800
  280MOL0     H36945   6.543   5.608   0.492  0.0158  0.6072 -0.1342
  280MOL0     H36946   8.255   5.788   1.203 -1.6203 -0.1974 -1.7653
  280MOL0     H36947   8.460   5.869   1.273  0.8829  2.5314  2.6037
  280MOL0     H36948   8.883   5.820   1.224  0.3062 -0.1193  0.1522
  280MOL0     H36949   9.108   5.861   1.306  3.5523  1.8870  1.2786
  280MOL0     H36950   9.293   6.017   1.222  1.5578  0.2869 -0.2683
  280MOL0     H36951   9.331   5.940   1.378 -1.6287 -0.8809 -0.1991
  280MOL0     H36952   9.484   6.147   1.435 -0.0885  1.7594 -0.5052
  280MOL0     H36953   9.525   6.056   1.299  0.7689  0.3609  1.6144
  280MOL0     H36954   9.339   6.303   1.302  0.3897 -1.0031  1.0366
  280MOL0     H36955   9.406   6.246   1.160 -1.4114  3.2535 -0.0673
  280MOL0     H36956   9.633   6.298   1.274  0.7674  2.8356 -1.4119
  280MOL0     H36957   9.544   6.441   1.215 -1.2991  2.6309  1.6329
  280MOL0     H36958   9.559   6.505   1.636 -1.7079 -2.5516  0.2871
  280MOL0     H36959   9.021   6.287   1.357  1.5105 -0.6933  0.3923
  280MOL0     H36960   8.783   6.242   1.254 -2.8468 -3.1981  0.0840
  281MOL0     O36961   0.653  10.706  10.703 -0.2160 -0.4418  0.3168
  281MOL0     C36962   0.690  10.590  10.677  0.1482 -0.0344 -0.5197
  281MOL0     O36963   0.611  10.482  10.676  0.1706  0.7712 -0.3019
  281MOL0     C36964   0.474  10.501  10.681  0.7493  0.9396  0.2849
  281MOL0     C36965   0.396  10.547  10.585  0.1365 -0.8347  0.3258
  281MOL0     C36966   0.254  10.542  10.584  0.0500  0.7238 -0.2194
  281MOL0     C36967   0.188  10.492  10.690  0.9104 -0.1170  0.0117
  281MOL0     O36968   0.053  10.504  10.683  0.1037 -0.6228  0.8087
  281MOL0     C36969  -0.018  10.450  10.788  0.0316 -0.3457  0.3519
  281MOL0     C36970  -0.163  10.496  10.772 -0.0500 -0.5149 -0.0449
  281MOL0     C36971  -0.259  10.398  10.836  0.0435  0.1851 -1.2455
  281MOL0     C36972  -0.395  10.469  10.830  0.0113  0.2849 -0.2421
  281MOL0     C36973  -0.512  10.374  10.867 -0.4361 -0.3121 -0.3041
  281MOL0     C36974  -0.560  10.294  10.750 -0.0079  0.1170  0.4950
  281MOL0     C36975  -0.611  10.384  10.631 -0.1897  0.0174  0.4799
  281MOL0     C36976  -0.709  10.500  10.667 -0.3282  0.4259 -0.0173
  281MOL0     N36977  -0.744  10.568  10.542 -0.2390 -0.0980  0.4130
  281MOL0     C36978  -0.660  10.626  10.458 -0.3974  0.2771  0.6622
  281MOL0     C36979  -0.733  10.649  10.345 -0.1873  0.3342  0.0188
  281MOL0     C36980  -0.686  10.736  10.232 -0.3099  0.3703 -0.2259
  281MOL0     C36981  -0.580  10.666  10.145 -0.4867 -0.3987  0.8177
  281MOL0     C36982  -0.586  10.703   9.993 -1.0546  0.1490  0.6324
  281MOL0     C36983  -0.654  10.597   9.907 -0.7212 -0.2729 -0.0719
  281MOL0     O36984  -0.776  10.551   9.967  0.6511 -0.6563 -0.1671
  281MOL0     C36985  -0.843  10.459   9.891  0.0156 -0.4851 -0.0052
  281MOL0     C36986  -0.787  10.356   9.810  0.4115 -0.0781  0.9262
  281MOL0     C36987  -0.880  10.262   9.760 -1.3412 -0.6628 -0.0374
  281MOL0     C36988  -1.023  10.285   9.786 -0.1325 -0.5091  0.9794
  281MOL0     C36989  -1.122  10.186   9.743 -0.7774  1.1640 -0.2330
  281MOL0     O36990  -1.254  10.181   9.795 -0.1935  0.5562 -0.1714
  281MOL0     C36991  -1.348  10.083   9.759 -0.6318 -0.3359 -0.1475
  281MOL0     C36992  -1.312   9.949   9.757  0.4720  1.0265  0.4449
  281MOL0     C36993  -1.403   9.860   9.685  0.2613 -0.4628 -0.6092
  281MOL0     C36994  -1.536   9.900   9.644 -0.3094 -0.3913 -0.2657
  281MOL0     O36995  -1.625   9.828   9.573 -0.6252 -0.3050 -0.0503
  281MOL0     C36996  -1.615   9.690   9.597  0.3571  0.0504 -0.1423
  281MOL0     C36997  -1.734   9.625   9.513 -0.7071 -0.5285 -0.1687
  281MOL0     C36998  -1.865   9.664   9.579  0.1724 -0.4980  0.3531
  281MOL0     C36999  -1.991   9.603   9.521  0.9170 -1.1434  0.6798
  281MOL0     C37000  -2.127   9.675   9.550  0.4879 -0.5066  0.2206
  281MOL0     C37001  -2.239   9.583   9.480  0.3753 -0.4452  0.2561
  281MOL0     C37002  -2.372   9.661   9.486 -0.4603 -0.6024  0.7933
  281MOL0     C37003  -2.486   9.573   9.461  0.3507  0.8100 -1.1634
  281MOL0    Cl37004  -2.634   9.667   9.442  0.1171  0.1682  0.2056
  281MOL0     C37005  -1.568  10.031   9.670  0.6545  0.5857 -0.5515
  281MOL0     C37006  -1.475  10.118   9.734  0.5609  0.3789  0.5470
  281MOL0     O37007  -1.077  10.116   9.653 -0.2014  0.0606  0.3124
  281MOL0     C37008  -1.065  10.385   9.866  0.2296 -0.2582 -0.2041
  281MOL0     C37009  -0.977  10.479   9.911 -0.0381 -0.2798 -0.3963
  281MOL0     N37010  -0.866  10.616  10.368 -0.4521 -0.2045  0.6837
  281MOL0     N37011  -0.866  10.555  10.484  0.5599  0.6305  0.6020
  281MOL0     C37012   0.266  10.440  10.790  0.6240  0.1183 -0.2455
  281MOL0     C37013   0.406  10.439  10.789 -0.3446 -0.1101 -0.4495
  281MOL0     C37014   0.826  10.555  10.644 -0.0903 -1.3357  1.5274
  281MOL0     C37015   0.862  10.427  10.606  0.4114  0.2653 -0.7759
  281MOL0     C37016   0.999  10.395  10.592  0.8138  0.7573  0.5079
  281MOL0     C37017   1.088  10.490  10.597 -0.7741  0.3975 -0.2951
  281MOL0     O37018   1.215  10.431  10.586 -0.4108 -0.4927  0.6869
  281MOL0     C37019   1.327  10.520  10.601 -0.3285 -0.3850 -0.5231
  281MOL0     C37020   1.458  10.440  10.617  0.2253 -0.5172  0.8097
  281MOL0     C37021   1.582  10.523  10.582 -0.1539 -0.6180 -0.3344
  281MOL0     C37022   1.715  10.439  10.586  0.1161 -0.5552 -0.2036
  281MOL0     C37023   1.719  10.327  10.493 -0.2372  0.4116  0.4021
  281MOL0     C37024   1.724  10.222  10.424 -0.4656  0.0363  0.1633
  281MOL0     C37025   1.059  10.616  10.632  0.7550 -0.4330 -1.3696
  281MOL0     C37026   0.921  10.655  10.651 -1.2858  0.1887  0.3190
  281MOL0     H37027   0.440  10.600  10.501  0.0585  2.7596  2.3532
  281MOL0     H37028   0.194  10.582  10.503  1.7232 -2.5973 -3.3701
  281MOL0     H37029   0.026  10.475  10.885 -0.0677 -0.6941  0.4887
  281MOL0     H37030  -0.005  10.341  10.786  0.4523 -0.2846 -0.6433
  281MOL0     H37031  -0.197  10.498  10.668 -1.1011 -2.5736  0.2050
  281MOL0     H37032  -0.170  10.597  10.813 -2.5022 -0.8187  0.4662
  281MOL0     H37033  -0.240  10.364  10.938  1.0202  2.3194 -0.6811
  281MOL0     H37034  -0.267  10.305  10.778 -1.0920 -0.8383  0.4618
  281MOL0     H37035  -0.388  10.551  10.901 -1.1705  0.9705 -0.8958
  281MOL0     H37036  -0.411  10.510  10.729 -2.7575  2.3387  0.9142
  281MOL0     H37037  -0.596  10.422  10.918 -0.5786  1.4139 -2.0391
  281MOL0     H37038  -0.467  10.307  10.941  0.7311 -0.2791 -0.9713
  281MOL0     H37039  -0.637  10.223  10.782  0.5817  0.2644  2.3485
  281MOL0     H37040  -0.478  10.228  10.719 -1.1761 -1.0676 -0.2112
  281MOL0     H37041  -0.518  10.422  10.588  1.2237 -2.0113  1.5944
  281MOL0     H37042  -0.662  10.322  10.556  0.5262 -0.9664  0.7860
  281MOL0     H37043  -0.661  10.568  10.739 -1.4919  0.6080  0.6030
  281MOL0     H37044  -0.798  10.461  10.717  0.1687  0.1632  0.6884
  281MOL0     H37045  -0.556  10.649  10.478 -0.6891  1.1499  1.2333
  281MOL0     H37046  -0.638  10.825  10.274  2.0781 -1.5839  1.4887
  281MOL0     H37047  -0.775  10.775  10.182  0.1826  3.9328  1.3619
  281MOL0     H37048  -0.593  10.558  10.140  0.2605 -0.4273 -1.9863
  281MOL0     H37049  -0.481  10.686  10.187 -0.5756 -0.3536  1.0039
  281MOL0     H37050  -0.640  10.798   9.990  0.5606  1.2617  3.3072
  281MOL0     H37051  -0.488  10.712   9.947 -1.2531  1.4552  0.4506
  281MOL0     H37052  -0.575  10.524   9.890 -0.0847  0.7200 -1.6339
  281MOL0     H37053  -0.675  10.642   9.809 -0.1992 -0.3569 -0.2284
  281MOL0     H37054  -0.683  10.330   9.792  0.9758  1.1508  2.2528
  281MOL0     H37055  -0.841  10.178   9.704 -1.2453 -2.5932  2.7031
  281MOL0     H37056  -1.211   9.920   9.784  0.8364 -0.1914 -1.9715
  281MOL0     H37057  -1.366   9.762   9.655  0.8474  0.6904 -4.1075
  281MOL0     H37058  -1.616   9.649   9.698  2.9637 -0.8806 -0.4194
  281MOL0     H37059  -1.522   9.655   9.552  0.9657  0.3793  0.8162
  281MOL0     H37060  -1.721   9.517   9.513  2.6241 -0.2695 -1.6568
  281MOL0     H37061  -1.725   9.675   9.415 -1.1950  1.4509  0.7360
  281MOL0     H37062  -1.870   9.772   9.597  1.6442 -0.5041  0.9137
  281MOL0     H37063  -1.862   9.621   9.679 -1.6835 -0.1835  0.5722
  281MOL0     H37064  -1.964   9.599   9.416  0.9945 -0.9282  0.6910
  281MOL0     H37065  -2.003   9.502   9.562  0.9815 -0.7865  1.5988
  281MOL0     H37066  -2.117   9.772   9.502  1.9970 -2.2507 -3.3748
  281MOL0     H37067  -2.149   9.691   9.656  1.1797  1.4350  0.1037
  281MOL0     H37068  -2.259   9.486   9.527 -3.5905 -1.7102 -3.4334
  281MOL0     H37069  -2.208   9.574   9.376  1.2413 -0.1150  0.4820
  281MOL0     H37070  -2.383   9.718   9.579 -0.4521  0.3837  0.2021
  281MOL0     H37071  -2.378   9.743   9.414  1.5475 -1.2732 -0.2079
  281MOL0     H37072  -2.502   9.499   9.540 -0.2166 -0.7328 -2.6565
  281MOL0     H37073  -2.470   9.525   9.364 -0.3174 -1.7520 -0.0929
  281MOL0     H37074  -1.668  10.068   9.652 -0.9868 -1.2434  3.4735
  281MOL0     H37075  -1.513  10.214   9.766 -1.3226  0.1195 -0.7376
  281MOL0     H37076  -1.172  10.394   9.875  0.3071  0.6000 -0.0993
  281MOL0     H37077  -0.998  10.567   9.971  1.8662 -0.5964  0.8197
  281MOL0     H37078   0.220  10.385  10.871  0.8586 -0.4925 -0.5192
  281MOL0     H37079   0.467  10.393  10.866 -0.5618 -2.7321 -1.7279
  281MOL0     H37080   0.784  10.355  10.584 -0.4686  1.0498 -0.2718
  281MOL0     H37081   1.035  10.294  10.577 -0.7516 -0.2094  2.7761
  281MOL0     H37082   1.322  10.587  10.687 -0.3648 -2.1586  0.9153
  281MOL0     H37083   1.350  10.578  10.511  0.3780 -2.2709 -1.5939
  281MOL0     H37084   1.454  10.410  10.722  1.4305  1.5973  1.5191
  281MOL0     H37085   1.460  10.351  10.554 -0.2934 -0.6754  1.0144
  281MOL0     H37086   1.588  10.601  10.659 -0.5105 -1.9768  1.1137
  281MOL0     H37087   1.575  10.586  10.492  1.8037  1.8135  1.0998
  281MOL0     H37088   1.797  10.505  10.557 -2.1603  0.9177 -3.9465
  281MOL0     H37089   1.721  10.387  10.682  0.1701  0.6507  0.4677
  281MOL0     H37090   1.731  10.129  10.371 -2.0741 -0.6554  1.0623
  281MOL0     H37091   1.138  10.689  10.643 -0.0687  0.0507  4.7085
  281MOL0     H37092   0.911  10.757  10.686  3.6812  0.4602  1.6977
  282MOL0     O37093   1.111   7.059   7.325  0.6055 -0.0678 -0.5633
  282MOL0     C37094   1.124   7.183   7.326 -0.7368  0.0989  0.3930
  282MOL0     O37095   1.045   7.270   7.258 -0.0418 -0.2496 -0.1899
  282MOL0     C37096   0.933   7.228   7.191 -0.2355  0.3506  0.6365
  282MOL0     C37097   0.898   7.321   7.093 -0.7373  0.5360  0.6500
  282MOL0     C37098   0.784   7.289   7.014 -0.0954 -0.8145 -0.5422
  282MOL0     C37099   0.710   7.173   7.029  0.1413  0.2224 -0.2533
  282MOL0     O37100   0.613   7.124   6.944 -0.0280  0.0240  0.5230
  282MOL0     C37101   0.541   7.221   6.873 -1.0083 -0.2295  0.1437
  282MOL0     C37102   0.415   7.166   6.807 -0.2372  0.5577  0.0692
  282MOL0     C37103   0.426   7.058   6.696  0.1196 -0.2476  0.1106
  282MOL0     C37104   0.290   7.049   6.629 -1.0364  1.1060 -1.0101
  282MOL0     C37105   0.290   6.932   6.536  0.0981  0.2977 -0.1590
  282MOL0     C37106   0.141   6.896   6.496  0.0185 -0.1757 -0.3684
  282MOL0     C37107   0.127   6.866   6.340 -0.4369  0.0671  0.5097
  282MOL0     C37108   0.130   6.711   6.318 -0.0958 -0.3583  0.8580
  282MOL0     N37109  -0.004   6.644   6.318 -0.0731  0.2772  0.0127
  282MOL0     C37110  -0.015   6.507   6.330  0.5948  0.8420  0.2841
  282MOL0     C37111  -0.142   6.482   6.283 -0.8672 -0.6317  0.3106
  282MOL0     C37112  -0.206   6.356   6.251  0.3678  0.5813  0.0204
  282MOL0     C37113  -0.297   6.305   6.365 -0.8464 -0.1311  0.0686
  282MOL0     C37114  -0.450   6.318   6.329  0.8403 -1.0741 -0.3534
  282MOL0     C37115  -0.510   6.459   6.305 -1.1180  1.4711 -0.6754
  282MOL0     O37116  -0.648   6.431   6.299  0.1102  0.3492  0.2379
  282MOL0     C37117  -0.732   6.542   6.286 -0.1945  0.2748 -0.2672
  282MOL0     C37118  -0.858   6.511   6.264  0.4400  0.3315  0.9597
  282MOL0     C37119  -0.957   6.614   6.267 -0.3707  0.2326  0.3520
  282MOL0     C37120  -0.923   6.747   6.287  0.0502 -0.0177  0.2405
  282MOL0     C37121  -1.027   6.851   6.299  0.5267 -0.6782 -0.5073
  282MOL0     O37122  -1.154   6.798   6.308 -0.0395 -0.2458 -0.9432
  282MOL0     C37123  -1.242   6.899   6.345  0.2852 -0.1035  0.4788
  282MOL0     C37124  -1.298   6.882   6.477 -0.5916  0.5787  0.0356
  282MOL0     C37125  -1.414   6.950   6.516  0.0545  1.1984 -0.4553
  282MOL0     C37126  -1.475   7.040   6.423 -0.2203  0.0412 -0.4396
  282MOL0     O37127  -1.585   7.114   6.454  0.2519 -0.9358 -0.2546
  282MOL0     C37128  -1.639   7.099   6.580 -0.8681  0.7120 -0.2500
  282MOL0     C37129  -1.568   7.179   6.693 -0.3063  0.1553  0.4827
  282MOL0     C37130  -1.522   7.321   6.657  0.1182  0.1556  0.5350
  282MOL0     C37131  -1.467   7.379   6.777 -0.2653 -0.6520  0.6070
  282MOL0     C37132  -1.391   7.509   6.748  0.1370 -0.2726  0.3988
  282MOL0     C37133  -1.322   7.579   6.866  0.4294 -0.1360  0.7599
  282MOL0     C37134  -1.403   7.599   6.995  0.2284  0.3577 -0.3088
  282MOL0     C37135  -1.348   7.678   7.111 -0.2523 -0.1501 -0.2134
  282MOL0    Cl37136  -1.329   7.854   7.064  0.3243 -0.2781  0.1243
  282MOL0     C37137  -1.430   7.043   6.299 -0.6652 -0.8548  0.8503
  282MOL0     C37138  -1.312   6.979   6.257  0.0097 -0.0894  0.1965
  282MOL0     O37139  -0.996   6.969   6.313 -0.4777  0.1362 -0.2983
  282MOL0     C37140  -0.796   6.774   6.304  0.7076  0.3119 -0.8240
  282MOL0     C37141  -0.695   6.675   6.305  0.5237  0.1424  1.0283
  282MOL0     N37142  -0.210   6.598   6.257  0.1518 -0.6472  0.3893
  282MOL0     N37143  -0.124   6.704   6.274 -0.0062  0.1312  0.2290
  282MOL0     C37144   0.758   7.084   7.120  0.5971  0.3491 -0.5506
  282MOL0     C37145   0.862   7.112   7.204  0.1394 -0.7127 -0.0518
  282MOL0     C37146   1.231   7.237   7.420  0.1635 -0.1823 -0.6810
  282MOL0     C37147   1.261   7.374   7.420 -0.5879 -0.0316  0.2904
  282MOL0     C37148   1.358   7.426   7.505  0.2880 -0.2018 -0.8829
  282MOL0     C37149   1.426   7.339   7.592  0.2560 -0.7945  1.0182
  282MOL0     O37150   1.518   7.398   7.671 -1.1114  0.0233 -0.6577
  282MOL0     C37151   1.585   7.321   7.770 -0.4259 -0.0349 -0.6094
  282MOL0     C37152   1.703   7.410   7.819 -0.2097  0.5535 -0.1245
  282MOL0     C37153   1.652   7.520   7.920 -0.0355 -0.1369 -0.2038
  282MOL0     C37154   1.758   7.626   7.955  0.6609  0.4797  0.3720
  282MOL0     C37155   1.859   7.569   8.043  0.4165 -0.2044 -0.2955
  282MOL0     C37156   1.929   7.524   8.128 -0.1821 -0.0901  0.1260
  282MOL0     C37157   1.399   7.208   7.586 -1.1270  0.1451 -1.1167
  282MOL0     C37158   1.304   7.152   7.507  0.4477 -0.2030 -0.6202
  282MOL0     H37159   0.940   7.421   7.092 -0.8598  0.5849  0.3002
  282MOL0     H37160   0.737   7.342   6.931  0.2715 -1.6733 -1.3176
  282MOL0     H37161   0.603   7.258   6.792 -0.4364 -1.4663 -0.0006
  282MOL0     H37162   0.508   7.297   6.945 -1.7343 -0.5550  0.1724
  282MOL0     H37163   0.386   7.264   6.765 -0.4637  1.5306  2.3600
  282MOL0     H37164   0.334   7.137   6.875 -0.2565 -0.2884 -0.3086
  282MOL0     H37165   0.443   6.960   6.742 -2.0922 -0.5361  0.4474
  282MOL0     H37166   0.512   7.077   6.632  1.0794 -0.5746  1.2701
  282MOL0     H37167   0.207   7.036   6.700  1.1679 -1.5891  1.3256
  282MOL0     H37168   0.263   7.142   6.580  1.2404  3.9876  2.6653
  282MOL0     H37169   0.335   6.842   6.579  1.2311  1.3921  1.0235
  282MOL0     H37170   0.351   6.967   6.453 -0.9080  3.7347  0.3964
  282MOL0     H37171   0.073   6.978   6.519  0.2881  0.1557 -0.7391
  282MOL0     H37172   0.109   6.811   6.557  0.2844 -0.5718 -0.7662
  282MOL0     H37173   0.026   6.902   6.317 -0.7485 -1.3491 -0.4532
  282MOL0     H37174   0.199   6.929   6.288  0.6684 -1.4133  0.2004
  282MOL0     H37175   0.189   6.657   6.393  1.1084 -0.8712 -0.4170
  282MOL0     H37176   0.191   6.691   6.230  1.5498  2.1902  1.3384
  282MOL0     H37177   0.053   6.426   6.356 -1.2594 -0.2368  2.0014
  282MOL0     H37178  -0.128   6.280   6.241  0.3463  0.4655  0.6811
  282MOL0     H37179  -0.263   6.347   6.158  0.0691 -4.3855  0.4311
  282MOL0     H37180  -0.269   6.351   6.461 -0.0653  1.5327 -0.9227
  282MOL0     H37181  -0.287   6.196   6.371  1.7518  0.0389 -0.0967
  282MOL0     H37182  -0.472   6.263   6.238  0.3201 -0.5177 -0.5666
  282MOL0     H37183  -0.505   6.275   6.413 -1.2764 -0.8417 -1.5567
  282MOL0     H37184  -0.484   6.514   6.214  1.3641 -0.1698 -1.0597
  282MOL0     H37185  -0.487   6.531   6.385 -0.6853  2.0780 -1.3334
  282MOL0     H37186  -0.878   6.406   6.245  0.5464  0.6968 -1.4333
  282MOL0     H37187  -1.059   6.589   6.241  0.6245 -0.9128 -3.0369
  282MOL0     H37188  -1.246   6.817   6.548 -0.6681 -1.5624 -1.7581
  282MOL0     H37189  -1.460   6.917   6.608 -1.4024  3.0034 -0.4860
  282MOL0     H37190  -1.653   6.993   6.602 -0.9705  1.0724  1.5572
  282MOL0     H37191  -1.744   7.128   6.569 -0.1322  3.1631 -1.6805
  282MOL0     H37192  -1.493   7.111   6.735  0.0694 -0.3687 -0.9426
  282MOL0     H37193  -1.642   7.198   6.770  0.6491 -0.1749  1.5149
  282MOL0     H37194  -1.607   7.379   6.622 -0.5378 -1.8300 -1.4571
  282MOL0     H37195  -1.460   7.332   6.568  1.8942 -0.0311  1.6807
  282MOL0     H37196  -1.542   7.380   6.857  0.7781  0.5038  1.6239
  282MOL0     H37197  -1.393   7.306   6.812  1.9437  0.5933 -1.1843
  282MOL0     H37198  -1.460   7.583   6.705 -2.4208 -3.3782 -1.3463
  282MOL0     H37199  -1.312   7.485   6.676 -1.3748 -0.2097 -1.3579
  282MOL0     H37200  -1.256   7.660   6.834  1.4203 -1.3298 -0.3891
  282MOL0     H37201  -1.236   7.520   6.902 -0.2847 -1.7006  0.0195
  282MOL0     H37202  -1.504   7.634   6.974 -0.0086  0.4645  0.9164
  282MOL0     H37203  -1.408   7.499   7.039  0.7649  0.4798  0.0424
  282MOL0     H37204  -1.248   7.647   7.143  0.6708  2.9375  0.2062
  282MOL0     H37205  -1.423   7.671   7.191  0.0911 -3.0713 -0.0445
  282MOL0     H37206  -1.479   7.111   6.230  1.7915 -1.7124 -1.9195
  282MOL0     H37207  -1.273   6.992   6.157  1.9578 -3.2266  0.4141
  282MOL0     H37208  -0.761   6.874   6.324 -4.0785  2.1240 -0.1891
  282MOL0     H37209  -0.589   6.699   6.301  0.4552  0.3351 -1.2076
  282MOL0     H37210   0.700   6.993   7.127 -2.1572  1.9275 -0.9432
  282MOL0     H37211   0.892   7.038   7.277  0.7665  0.6611  1.1320
  282MOL0     H37212   1.204   7.437   7.352 -1.2595  1.6201  2.2797
  282MOL0     H37213   1.387   7.531   7.507 -2.5205  0.6722 -1.2099
  282MOL0     H37214   1.634   7.233   7.725  0.9435  1.0568 -1.3309
  282MOL0     H37215   1.521   7.288   7.852  1.2858  1.1091  1.2710
  282MOL0     H37216   1.779   7.355   7.877 -1.7961  0.3165  1.8409
  282MOL0     H37217   1.736   7.469   7.733  0.6019  0.2470 -0.0361
  282MOL0     H37218   1.620   7.480   8.016 -2.8215  0.4661 -0.7670
  282MOL0     H37219   1.566   7.567   7.869 -0.2632 -1.2062 -0.8423
  282MOL0     H37220   1.789   7.667   7.858 -2.6059  4.5717  0.8002
  282MOL0     H37221   1.711   7.710   8.007  0.9208  0.4072  0.7362
  282MOL0     H37222   1.993   7.492   8.208 -0.6162  0.3410  0.6581
  282MOL0     H37223   1.443   7.135   7.653  0.7876  2.0854 -0.1517
  282MOL0     H37224   1.278   7.047   7.518 -0.2433  0.0644  0.4760
  283MOL0     O37225   3.068   1.733   0.826 -0.2529  0.3705  0.8051
  283MOL0     C37226   3.065   1.787   0.712  0.1619 -0.1388 -0.8257
  283MOL0     O37227   2.975   1.757   0.614 -0.6464  0.4718 -0.2126
  283MOL0     C37228   2.854   1.699   0.649 -0.7161 -0.8959  0.6271
  283MOL0     C37229   2.826   1.570   0.599 -0.3521  0.8927 -1.1128
  283MOL0     C37230   2.703   1.515   0.612 -0.4462 -1.0437 -0.3795
  283MOL0     C37231   2.608   1.584   0.692  0.1580  0.2896  0.0464
  283MOL0     O37232   2.478   1.537   0.716 -0.2099 -0.1894  0.2435
  283MOL0     C37233   2.442   1.425   0.632  0.3336  0.1849  0.0725
  283MOL0     C37234   2.291   1.408   0.650 -0.0424 -0.1875 -0.0274
  283MOL0     C37235   2.249   1.340   0.784  0.0463  0.3164  1.5452
  283MOL0     C37236   2.095   1.315   0.805 -0.7866 -0.4403  0.1624
  283MOL0     C37237   2.042   1.184   0.728 -0.5862 -0.6095 -0.1917
  283MOL0     C37238   1.920   1.129   0.802  0.6897  0.3359 -0.3688
  283MOL0     C37239   1.851   1.025   0.713 -0.0279  0.5576 -0.2625
  283MOL0     C37240   1.698   1.008   0.745  0.0941  0.6369  0.1008
  283MOL0     N37241   1.614   1.100   0.670 -0.4458  0.0841  0.4803
  283MOL0     C37242   1.480   1.086   0.671  0.0736  0.5156 -0.6642
  283MOL0     C37243   1.436   1.166   0.574 -0.4662  0.3717  0.7071
  283MOL0     C37244   1.281   1.204   0.542 -1.2120 -0.1586 -0.1434
  283MOL0     C37245   1.269   1.354   0.510 -0.0414  0.0803 -0.4772
  283MOL0     C37246   1.126   1.366   0.454 -0.1438 -0.5815 -0.1817
  283MOL0     C37247   1.106   1.512   0.415  0.0964  0.5663  0.4997
  283MOL0     O37248   1.133   1.531   0.279 -0.8288  0.4022  0.2878
  283MOL0     C37249   1.254   1.558   0.219  0.4198  0.9944  0.3746
  283MOL0     C37250   1.267   1.534   0.079  0.0493  0.4785  0.6778
  283MOL0     C37251   1.383   1.583   0.017  0.8825  0.2191  0.7408
  283MOL0     C37252   1.476   1.655   0.093 -0.4340 -0.7305  0.6312
  283MOL0     C37253   1.605   1.701   0.032 -0.7817  0.2755 -0.1773
  283MOL0     O37254   1.621   1.673  -0.102  0.7424 -0.5619  0.0770
  283MOL0     C37255   1.723   1.741  -0.159  0.5470 -0.2014  0.2655
  283MOL0     C37256   1.857   1.709  -0.117  1.2174 -0.3402  0.1094
  283MOL0     C37257   1.953   1.765  -0.185 -0.2403 -0.3191 -0.2124
  283MOL0     C37258   1.938   1.853  -0.300 -0.6951  0.1932 -0.4104
  283MOL0     O37259   2.046   1.883  -0.382 -0.1646  0.2583  0.1310
  283MOL0     C37260   2.047   2.002  -0.455  0.4448 -0.8015  0.5113
  283MOL0     C37261   2.188   2.024  -0.526 -0.8964  0.4489 -0.5319
  283MOL0     C37262   2.308   1.995  -0.434  0.1890  0.1988 -0.6239
  283MOL0     C37263   2.441   1.991  -0.513 -0.0714 -0.1709 -0.2437
  283MOL0     C37264   2.473   1.845  -0.566 -0.4268  0.0320  0.1138
  283MOL0     C37265   2.619   1.829  -0.629  0.5293 -0.1535 -0.8569
  283MOL0     C37266   2.718   1.852  -0.512 -0.2117  0.4782  0.1025
  283MOL0     C37267   2.851   1.799  -0.571 -0.2442  0.0538 -0.4796
  283MOL0    Cl37268   2.990   1.872  -0.483 -0.0560 -0.3996  0.2717
  283MOL0     C37269   1.806   1.894  -0.328 -0.7699 -0.4071  0.3659
  283MOL0     C37270   1.703   1.843  -0.254 -0.4375  0.9443  0.0694
  283MOL0     O37271   1.680   1.761   0.101 -0.0426  0.0015  0.5748
  283MOL0     C37272   1.465   1.675   0.229  0.6197  0.0643 -0.9873
  283MOL0     C37273   1.351   1.623   0.289  0.3781 -1.0964 -1.0619
  283MOL0     N37274   1.546   1.230   0.512  0.0823 -0.5112  0.4659
  283MOL0     N37275   1.651   1.193   0.575  0.3871 -0.0475  0.6236
  283MOL0     C37276   2.641   1.708   0.750 -0.0237  0.4506 -0.1113
  283MOL0     C37277   2.765   1.774   0.731  0.7102  0.0315  1.0366
  283MOL0     C37278   3.169   1.887   0.683 -0.7374 -0.4582  0.0872
  283MOL0     C37279   3.142   1.996   0.602  0.8836  0.6998 -0.2706
  283MOL0     C37280   3.231   2.110   0.596  0.0438  0.0737  0.1129
  283MOL0     C37281   3.359   2.101   0.653  0.2000 -0.0621 -0.2104
  283MOL0     O37282   3.439   2.223   0.640 -0.2555  0.4851 -0.2815
  283MOL0     C37283   3.577   2.221   0.669 -0.1658  0.6864 -0.1927
  283MOL0     C37284   3.657   2.304   0.570  0.5600  0.1967 -0.8108
  283MOL0     C37285   3.808   2.298   0.600  0.2612 -0.2898 -0.3458
  283MOL0     C37286   3.891   2.362   0.498 -0.5841  0.5092  0.7306
  283MOL0     C37287   4.033   2.329   0.504 -0.0592 -0.2659  0.4445
  283MOL0     C37288   4.144   2.279   0.524  0.5515  0.0459 -0.2935
  283MOL0     C37289   3.386   1.983   0.729  1.0683 -1.0224 -0.7929
  283MOL0     C37290   3.298   1.880   0.737 -0.4153  0.2898 -0.4548
  283MOL0     H37291   2.901   1.523   0.537 -0.0946  1.5567 -1.3209
  283MOL0     H37292   2.680   1.431   0.547  2.0047 -1.2067 -1.1411
  283MOL0     H37293   2.487   1.332   0.665  0.0722 -0.2287 -0.7047
  283MOL0     H37294   2.471   1.434   0.527  1.9455 -4.8464 -0.1699
  283MOL0     H37295   2.259   1.351   0.562  0.5354 -1.3123  0.4763
  283MOL0     H37296   2.251   1.510   0.646  1.3013  0.5248  2.4940
  283MOL0     H37297   2.269   1.403   0.871  2.2433 -0.8435  1.9495
  283MOL0     H37298   2.301   1.244   0.784 -1.9768 -0.8949 -0.4064
  283MOL0     H37299   2.084   1.304   0.913  1.7045 -0.9968  0.4093
  283MOL0     H37300   2.034   1.403   0.783 -1.4355 -0.7166  0.8299
  283MOL0     H37301   2.119   1.106   0.724  2.9202  2.3395  2.9981
  283MOL0     H37302   2.024   1.213   0.624  1.2108 -4.2976 -1.7232
  283MOL0     H37303   1.845   1.207   0.809  0.2060 -0.1515 -0.0931
  283MOL0     H37304   1.946   1.084   0.898  1.1588  0.6041 -0.3682
  283MOL0     H37305   1.863   1.049   0.606  1.1296 -2.5557 -0.9244
  283MOL0     H37306   1.909   0.934   0.722  1.4181  1.1569 -2.5111
  283MOL0     H37307   1.677   1.022   0.852  1.1587  0.8225  0.2912
  283MOL0     H37308   1.665   0.909   0.713  0.8982  0.5895 -0.6200
  283MOL0     H37309   1.422   1.011   0.723  1.0850 -0.2143 -0.5717
  283MOL0     H37310   1.217   1.174   0.625  0.6836 -1.5622  0.8677
  283MOL0     H37311   1.252   1.150   0.451 -1.2841 -0.6491  0.1713
  283MOL0     H37312   1.339   1.390   0.433 -1.3568  2.2492 -0.7465
  283MOL0     H37313   1.284   1.416   0.599  1.9902 -0.1147 -0.6417
  283MOL0     H37314   1.127   1.292   0.374  2.4130 -1.8071  0.8767
  283MOL0     H37315   1.052   1.334   0.529  1.1250 -1.8422  0.5854
  283MOL0     H37316   1.164   1.576   0.483 -0.6115  2.1305 -0.3177
  283MOL0     H37317   1.000   1.535   0.426 -0.3584 -1.7634  1.6403
  283MOL0     H37318   1.186   1.482   0.030 -1.1389  2.1690  0.7305
  283MOL0     H37319   1.403   1.565  -0.088 -1.4314  1.4359  0.0172
  283MOL0     H37320   1.872   1.621  -0.056 -0.3676 -1.2858 -0.8160
  283MOL0     H37321   2.054   1.731  -0.166 -0.2446 -0.9554 -1.2100
  283MOL0     H37322   2.040   2.076  -0.375  0.4721 -0.8046  0.5162
  283MOL0     H37323   1.969   2.009  -0.530  0.7683  0.8544  0.2917
  283MOL0     H37324   2.190   2.118  -0.581 -1.5161 -0.2319 -1.7795
  283MOL0     H37325   2.178   1.944  -0.601  0.5979 -1.6854  1.3989
  283MOL0     H37326   2.289   1.901  -0.381 -0.1206  0.0117 -1.0653
  283MOL0     H37327   2.299   2.067  -0.353 -0.0852 -1.7276  1.1539
  283MOL0     H37328   2.448   2.071  -0.588 -0.5866 -1.3587 -1.6209
  283MOL0     H37329   2.525   2.026  -0.453  0.6247  0.2085 -1.4055
  283MOL0     H37330   2.395   1.819  -0.638 -0.2840 -2.2629  0.7301
  283MOL0     H37331   2.471   1.773  -0.484 -0.1355 -2.4418 -1.9285
  283MOL0     H37332   2.637   1.909  -0.701  0.3403 -0.8399 -1.6728
  283MOL0     H37333   2.637   1.733  -0.678 -0.0801 -0.1700 -1.0578
  283MOL0     H37334   2.732   1.958  -0.490 -1.8901  1.2191 -2.0453
  283MOL0     H37335   2.709   1.805  -0.413 -2.7840  1.3581  0.3637
  283MOL0     H37336   2.870   1.825  -0.675  3.7938 -0.6737 -0.1078
  283MOL0     H37337   2.871   1.691  -0.570  1.8872  0.3810 -1.0908
  283MOL0     H37338   1.788   1.964  -0.409 -2.0803  1.4115  2.1147
  283MOL0     H37339   1.601   1.859  -0.289 -0.8272 -2.4822 -0.6823
  283MOL0     H37340   1.538   1.730   0.287  0.5739  1.8318 -2.5019
  283MOL0     H37341   1.352   1.635   0.397 -0.8505  1.4431 -1.2569
  283MOL0     H37342   2.566   1.746   0.818 -1.0286  0.9466 -1.4617
  283MOL0     H37343   2.789   1.870   0.776  0.4992  0.5299  0.1125
  283MOL0     H37344   3.046   1.991   0.551 -0.4850  0.2325  2.1549
  283MOL0     H37345   3.205   2.190   0.527  1.0471  1.2965  1.1125
  283MOL0     H37346   3.611   2.117   0.670 -0.1885  0.6020 -2.5562
  283MOL0     H37347   3.594   2.271   0.765 -1.1804 -0.6982  0.7619
  283MOL0     H37348   3.649   2.264   0.469  1.8504  2.1087 -1.7243
  283MOL0     H37349   3.617   2.406   0.574  2.9742  1.1720  0.1748
  283MOL0     H37350   3.840   2.194   0.606  2.1361  0.3060  4.4299
  283MOL0     H37351   3.824   2.343   0.699 -0.6311  2.4374 -1.3322
  283MOL0     H37352   3.846   2.321   0.407 -0.4188  1.1719  0.3413
  283MOL0     H37353   3.867   2.469   0.495 -3.0981  0.0053 -0.3969
  283MOL0     H37354   4.235   2.229   0.550 -0.1754  0.7285  4.6580
  283MOL0     H37355   3.476   1.980   0.789 -0.4524 -0.8059  1.6385
  283MOL0     H37356   3.325   1.793   0.796  2.2650  0.4423 -1.3573
  284MOL0     O37357   3.361   1.261   0.281 -0.1080 -0.9953  0.1957
  284MOL0     C37358   3.352   1.353   0.198  0.4185 -0.3941 -0.4438
  284MOL0     O37359   3.239   1.418   0.151  0.3876 -0.0479 -0.6274
  284MOL0     C37360   3.120   1.372   0.205  1.1425 -0.4917 -0.8337
  284MOL0     C37361   3.103   1.357   0.346  0.1054  0.4019 -0.3121
  284MOL0     C37362   2.982   1.310   0.397 -0.0672  0.5105 -0.4645
  284MOL0     C37363   2.873   1.268   0.315 -0.6165  0.1638  0.7073
  284MOL0     O37364   2.766   1.202   0.377 -0.3733 -0.1224 -0.0069
  284MOL0     C37365   2.639   1.194   0.314 -0.2532 -1.1454  0.6436
  284MOL0     C37366   2.542   1.109   0.405  0.4994 -0.0191 -0.0246
  284MOL0     C37367   2.417   1.063   0.344  0.7032 -1.2077 -0.0614
  284MOL0     C37368   2.316   0.984   0.429  0.3044  0.5932  0.7575
  284MOL0     C37369   2.183   0.960   0.358 -0.1891  0.5698 -0.5990
  284MOL0     C37370   2.093   1.090   0.337  0.4582 -0.0671  0.0963
  284MOL0     C37371   1.975   1.061   0.231 -0.6883  0.3506  0.2301
  284MOL0     C37372   2.016   1.023   0.086  0.4492  0.6000 -0.5394
  284MOL0     N37373   2.136   1.100   0.043 -0.1939 -0.2990 -0.1324
  284MOL0     C37374   2.132   1.238   0.023  0.2448 -0.1699  0.6269
  284MOL0     C37375   2.265   1.276   0.027 -0.3014 -0.5799  0.4495
  284MOL0     C37376   2.315   1.419   0.036  0.2723  0.0451 -0.3252
  284MOL0     C37377   2.258   1.497  -0.088 -0.6618  0.0360  0.5195
  284MOL0     C37378   2.318   1.639  -0.115  0.1670  0.2314 -0.4653
  284MOL0     C37379   2.471   1.637  -0.142  0.4721 -0.6149 -0.5412
  284MOL0     O37380   2.511   1.587  -0.264 -0.1679 -0.5107 -0.9707
  284MOL0     C37381   2.650   1.576  -0.272  0.2574  0.1784 -0.1569
  284MOL0     C37382   2.743   1.614  -0.178  0.1828 -0.3456 -0.6568
  284MOL0     C37383   2.882   1.598  -0.194  0.3457 -1.0884 -1.0422
  284MOL0     C37384   2.924   1.510  -0.298  0.6810 -0.2568 -0.2101
  284MOL0     C37385   3.067   1.464  -0.305  0.0985 -0.1959 -0.2864
  284MOL0     O37386   3.145   1.483  -0.186  1.0481 -0.3025  0.2228
  284MOL0     C37387   3.273   1.429  -0.193 -0.0273  0.1412  0.6871
  284MOL0     C37388   3.386   1.491  -0.247 -0.4701  0.2805  0.7429
  284MOL0     C37389   3.512   1.424  -0.270  0.5587  0.1671 -0.1955
  284MOL0     C37390   3.528   1.292  -0.230  0.7229 -0.0492 -0.4625
  284MOL0     O37391   3.645   1.220  -0.242 -0.0117 -0.3222 -0.2692
  284MOL0     C37392   3.766   1.286  -0.291  0.4149 -0.5543 -0.9393
  284MOL0     C37393   3.911   1.224  -0.276  0.3475 -0.5823 -0.3781
  284MOL0     C37394   3.931   1.120  -0.164  0.3872 -0.1461 -0.4031
  284MOL0     C37395   4.064   1.036  -0.171 -0.7676  0.0955  0.0429
  284MOL0     C37396   4.125   0.993  -0.041 -1.0394  0.0634 -0.1409
  284MOL0     C37397   4.220   0.875  -0.044  0.9344  0.2149 -0.5243
  284MOL0     C37398   4.356   0.902  -0.111  1.0327  0.0331  0.6116
  284MOL0     C37399   4.454   0.786  -0.105 -0.4194 -0.3225  0.7960
  284MOL0    Cl37400   4.622   0.826  -0.168 -0.0123 -0.7319 -0.0708
  284MOL0     C37401   3.411   1.237  -0.161  0.0145  0.9536  0.4960
  284MOL0     C37402   3.287   1.298  -0.148 -0.1675  0.4650  0.4813
  284MOL0     O37403   3.108   1.400  -0.406 -0.5846  0.1175 -0.1665
  284MOL0     C37404   2.833   1.473  -0.394 -0.6076  0.0260 -0.5954
  284MOL0     C37405   2.702   1.505  -0.378  0.0371  0.7386 -0.0261
  284MOL0     N37406   2.340   1.163   0.026 -0.6280  0.3004  0.3398
  284MOL0     N37407   2.270   1.058   0.044  0.3573 -0.3952 -0.8011
  284MOL0     C37408   2.889   1.280   0.176  0.1515 -0.1108  0.5358
  284MOL0     C37409   3.010   1.334   0.125  0.0025  0.0354  0.8106
  284MOL0     C37410   3.486   1.394   0.143  0.6838 -0.5647  0.6428
  284MOL0     C37411   3.596   1.310   0.144 -0.8416 -0.1402  0.5551
  284MOL0     C37412   3.720   1.345   0.095  1.0012  0.1260  0.0917
  284MOL0     C37413   3.735   1.467   0.033  0.3644 -0.5316  1.0367
  284MOL0     O37414   3.865   1.496  -0.002  0.4299 -0.0709 -0.4297
  284MOL0     C37415   3.893   1.618  -0.076  0.0698 -0.1956  0.1601
  284MOL0     C37416   4.041   1.615  -0.098  0.7310  0.5224 -0.1496
  284MOL0     C37417   4.101   1.744  -0.161  0.0283 -0.5322 -0.8473
  284MOL0     C37418   4.167   1.836  -0.061  0.4941 -0.4909 -0.4014
  284MOL0     C37419   4.192   1.968  -0.116 -0.2570  0.1374  0.7466
  284MOL0     C37420   4.203   2.080  -0.160 -0.4945 -0.0927  0.3082
  284MOL0     C37421   3.626   1.549   0.007 -0.1059 -0.6238 -0.6880
  284MOL0     C37422   3.507   1.518   0.077  0.2924  0.4315 -0.0430
  284MOL0     H37423   3.183   1.387   0.413 -0.7908 -0.6957  1.3021
  284MOL0     H37424   2.977   1.293   0.504  0.4763  0.2392 -0.4795
  284MOL0     H37425   2.646   1.148   0.215 -1.7132  1.9414 -1.0493
  284MOL0     H37426   2.590   1.290   0.299  1.5561 -0.5831 -2.3557
  284MOL0     H37427   2.530   1.166   0.497  1.8129  0.2061  0.0208
  284MOL0     H37428   2.599   1.025   0.446  1.5260  0.3498 -0.6538
  284MOL0     H37429   2.446   0.999   0.260  1.2175  0.9201 -1.5689
  284MOL0     H37430   2.368   1.153   0.306  2.8525 -0.9400 -2.4855
  284MOL0     H37431   2.360   0.886   0.453 -2.2937 -1.2148 -1.2488
  284MOL0     H37432   2.293   1.031   0.525 -0.9788 -0.3585  0.9337
  284MOL0     H37433   2.130   0.886   0.419  1.0836  0.9267  0.9922
  284MOL0     H37434   2.210   0.917   0.261  0.4908 -1.3689  0.3933
  284MOL0     H37435   2.153   1.181   0.321  1.2412 -0.0617  2.5596
  284MOL0     H37436   2.040   1.097   0.432 -0.8694  0.7844 -0.6744
  284MOL0     H37437   1.919   0.983   0.284  2.1800 -1.3676  0.9291
  284MOL0     H37438   1.923   1.157   0.232  0.0621  0.7883 -1.1486
  284MOL0     H37439   1.930   1.046   0.021  1.1138  1.7937 -1.0349
  284MOL0     H37440   2.035   0.916   0.077  3.7428  0.8323  1.9800
  284MOL0     H37441   2.046   1.304   0.012  0.4246 -0.2558 -1.8744
  284MOL0     H37442   2.424   1.422   0.036  0.3282 -1.1156  1.0880
  284MOL0     H37443   2.280   1.471   0.126 -0.6984  1.6045 -1.5393
  284MOL0     H37444   2.149   1.497  -0.094 -0.6299 -1.0538 -0.3044
  284MOL0     H37445   2.283   1.438  -0.176  1.3855 -1.2491  1.8764
  284MOL0     H37446   2.270   1.687  -0.201  0.7051  0.9874 -0.3502
  284MOL0     H37447   2.309   1.694  -0.021  2.9359  1.1059 -0.6270
  284MOL0     H37448   2.513   1.569  -0.067 -1.4624 -1.3553 -0.0871
  284MOL0     H37449   2.503   1.740  -0.124 -1.4665 -0.0359 -0.1701
  284MOL0     H37450   2.714   1.668  -0.089  1.4869 -1.9453  0.8248
  284MOL0     H37451   2.953   1.643  -0.125 -0.9546  0.9995 -0.9909
  284MOL0     H37452   3.372   1.592  -0.285 -0.2065 -0.7591 -2.4294
  284MOL0     H37453   3.588   1.488  -0.313 -2.1838  3.9713  0.2023
  284MOL0     H37454   3.787   1.373  -0.229  0.3668 -1.6259  0.6317
  284MOL0     H37455   3.746   1.325  -0.392  1.7396 -0.0032 -1.0104
  284MOL0     H37456   3.988   1.299  -0.257 -0.8059  0.6544 -0.4507
  284MOL0     H37457   3.930   1.166  -0.367  2.7323  2.1244 -1.7552
  284MOL0     H37458   3.859   1.039  -0.150  0.1090  0.3081  0.9059
  284MOL0     H37459   3.931   1.171  -0.067  0.2142 -3.1489  1.2991
  284MOL0     H37460   4.040   0.946  -0.227 -2.1346  1.0531 -0.9975
  284MOL0     H37461   4.143   1.087  -0.226 -2.0438 -0.8050 -2.7935
  284MOL0     H37462   4.037   0.969   0.019  0.8066  0.2011  2.8228
  284MOL0     H37463   4.169   1.074   0.018 -0.1370  0.1844 -0.9537
  284MOL0     H37464   4.174   0.786  -0.086 -3.5070  0.2172  3.5203
  284MOL0     H37465   4.244   0.853   0.061  0.8967 -3.9033 -1.2213
  284MOL0     H37466   4.327   0.911  -0.216  1.6464  0.5588  0.4824
  284MOL0     H37467   4.403   0.985  -0.058 -2.7968  2.1808  1.0572
  284MOL0     H37468   4.409   0.700  -0.155 -2.0287  2.3783 -2.8742
  284MOL0     H37469   4.465   0.749  -0.002 -0.3661  1.5951  1.5189
  284MOL0     H37470   3.426   1.135  -0.127  4.1477  1.4456  0.6877
  284MOL0     H37471   3.208   1.260  -0.084 -0.5339  1.6625  0.7518
  284MOL0     H37472   2.862   1.401  -0.470 -1.1186 -3.1911  2.0399
  284MOL0     H37473   2.631   1.464  -0.449 -3.3227  1.9425  2.3613
  284MOL0     H37474   2.805   1.257   0.112 -0.2076 -1.8604  1.5944
  284MOL0     H37475   3.016   1.330   0.017  1.1411 -3.2380  0.8735
  284MOL0     H37476   3.588   1.212   0.191 -1.1809  0.1621  1.1441
  284MOL0     H37477   3.798   1.273   0.115 -1.1999 -2.7172 -0.7725
  284MOL0     H37478   3.864   1.715  -0.035 -2.0110  0.7660 -3.2205
  284MOL0     H37479   3.833   1.611  -0.167 -1.4495 -2.2657  1.2586
  284MOL0     H37480   4.089   1.575  -0.008 -1.3437 -2.4546 -0.2101
  284MOL0     H37481   4.062   1.534  -0.168 -0.0579 -0.1250  0.3335
  284MOL0     H37482   4.019   1.787  -0.219 -1.8304 -2.0799  0.4928
  284MOL0     H37483   4.172   1.712  -0.238  0.6122 -0.2683 -0.4199
  284MOL0     H37484   4.100   1.844   0.025  0.6988  1.0226 -0.3584
  284MOL0     H37485   4.263   1.800  -0.021  0.8452 -0.0273 -0.8230
  284MOL0     H37486   4.203   2.186  -0.177 -0.6420  0.3600  2.8539
  284MOL0     H37487   3.647   1.649  -0.028 -0.5613  0.1937  1.2685
  284MOL0     H37488   3.425   1.588   0.064  1.3462  1.8202  0.4104
  285MOL0     O37489   8.503   5.560   2.440  0.0032  0.1303 -0.0897
  285MOL0     C37490   8.470   5.540   2.559 -0.6703  0.6718 -0.2939
  285MOL0     O37491   8.560   5.526   2.658 -0.2455  0.6453 -0.7387
  285MOL0     C37492   8.693   5.549   2.644 -1.0760  0.7129 -0.4356
  285MOL0     C37493   8.746   5.645   2.550  0.1437 -0.1985 -0.1228
  285MOL0     C37494   8.887   5.661   2.538 -0.3359  0.4200  0.8153
  285MOL0     C37495   8.969   5.573   2.604 -0.3100 -0.0180  0.0068
  285MOL0     O37496   9.104   5.603   2.570  0.0350  0.8660 -0.2366
  285MOL0     C37497   9.206   5.547   2.656  0.0750  0.5645 -0.8685
  285MOL0     C37498   9.327   5.647   2.637 -0.2292 -0.0134 -0.6287
  285MOL0     C37499   9.431   5.576   2.548  0.0141  0.3154 -0.4574
  285MOL0     C37500   9.555   5.672   2.540 -0.3106 -0.0400  0.0476
  285MOL0     C37501   9.641   5.651   2.424  0.4912  0.6256  0.5262
  285MOL0     C37502   9.706   5.506   2.415  1.1353  0.4295  0.8582
  285MOL0     C37503   9.810   5.499   2.301  0.0329 -0.5961  0.1897
  285MOL0     C37504   9.945   5.551   2.358 -0.2068  0.6337 -0.0116
  285MOL0     N37505  10.042   5.548   2.249  0.5375 -0.3719 -0.4808
  285MOL0     C37506  10.085   5.434   2.180  0.1311 -0.5021  0.0103
  285MOL0     C37507  10.161   5.480   2.073 -0.0035  0.1906 -0.9854
  285MOL0     C37508  10.228   5.405   1.961  0.6243  0.8230 -0.1984
  285MOL0     C37509  10.121   5.381   1.858  0.0178 -1.0449  0.6058
  285MOL0     C37510  10.017   5.281   1.897  0.4803 -0.1973  0.0613
  285MOL0     C37511   9.870   5.326   1.906 -0.5119  0.6022 -0.0817
  285MOL0     O37512   9.770   5.220   1.909  0.0371 -0.4933 -0.6044
  285MOL0     C37513   9.637   5.244   1.958 -0.2100  0.4913  0.4937
  285MOL0     C37514   9.596   5.370   1.997 -0.0406 -0.4893  0.3055
  285MOL0     C37515   9.466   5.392   2.034 -0.8808 -0.0668  0.4589
  285MOL0     C37516   9.377   5.289   2.053  0.3162  0.0550 -0.7558
  285MOL0     C37517   9.238   5.306   2.113  0.1625 -0.2295  0.2020
  285MOL0     O37518   9.156   5.196   2.125 -0.5310  0.1243 -0.1995
  285MOL0     C37519   9.026   5.222   2.167  0.3219  1.1903  0.0203
  285MOL0     C37520   8.989   5.295   2.276  0.3085 -0.2857 -0.4586
  285MOL0     C37521   8.856   5.318   2.313 -1.1040  1.4515  0.4013
  285MOL0     C37522   8.753   5.248   2.243  0.0320 -0.5723  0.3348
  285MOL0     O37523   8.618   5.275   2.273  0.2322 -0.3023 -0.8333
  285MOL0     C37524   8.544   5.331   2.166  0.3355  0.8825 -1.1353
  285MOL0     C37525   8.447   5.229   2.114  0.7228  0.2660  0.0426
  285MOL0     C37526   8.305   5.249   2.171  0.3790  0.2416 -0.5385
  285MOL0     C37527   8.188   5.150   2.115 -0.6453 -0.2878 -0.1310
  285MOL0     C37528   8.050   5.210   2.150  0.4245 -0.5142  0.3258
  285MOL0     C37529   8.039   5.280   2.283  0.0568 -0.1504 -0.1782
  285MOL0     C37530   7.902   5.304   2.335  0.4419 -0.4205 -0.1980
  285MOL0     C37531   7.843   5.425   2.269 -0.1600 -1.0453 -0.6102
  285MOL0    Cl37532   7.677   5.448   2.342 -0.0685 -0.2532  0.5358
  285MOL0     C37533   8.792   5.163   2.140  0.2121  0.1461 -0.0871
  285MOL0     C37534   8.922   5.153   2.101 -0.1922 -0.5595 -0.5737
  285MOL0     O37535   9.206   5.419   2.122  0.4986  0.0649 -0.3615
  285MOL0     C37536   9.425   5.159   2.027  0.4540  0.4214  0.7623
  285MOL0     C37537   9.550   5.133   1.976  0.0829 -0.2375 -0.3258
  285MOL0     N37538  10.165   5.614   2.085  0.0988  0.5975  0.0152
  285MOL0     N37539  10.090   5.654   2.177  0.8731  0.6295  0.1109
  285MOL0     C37540   8.920   5.475   2.689  0.3112 -0.1265  0.2018
  285MOL0     C37541   8.784   5.459   2.705 -0.4968  0.2016 -0.2214
  285MOL0     C37542   8.332   5.542   2.599  0.9959 -0.5657  1.2888
  285MOL0     C37543   8.231   5.532   2.508  0.1185  0.3612  0.0069
  285MOL0     C37544   8.097   5.560   2.541 -0.0565  0.6323  0.1715
  285MOL0     C37545   8.060   5.605   2.664 -0.0484  0.5640 -0.3053
  285MOL0     O37546   7.931   5.636   2.697 -0.1684 -0.0537  0.4365
  285MOL0     C37547   7.822   5.615   2.601 -0.4804  1.1162  0.2678
  285MOL0     C37548   7.707   5.675   2.672 -0.2952  0.5368 -0.1779
  285MOL0     C37549   7.584   5.701   2.576 -0.7120  0.0023 -1.0615
  285MOL0     C37550   7.462   5.745   2.651  0.3374 -0.2395  0.1117
  285MOL0     C37551   7.337   5.725   2.572 -0.9892 -0.7371 -0.7742
  285MOL0     C37552   7.249   5.698   2.499 -0.1410  0.8492  0.1547
  285MOL0     C37553   8.159   5.620   2.764  0.6851 -0.1809  0.0701
  285MOL0     C37554   8.289   5.589   2.724 -0.6146 -1.1391 -0.4408
  285MOL0     H37555   8.683   5.716   2.498  1.1474  0.5992 -0.2725
  285MOL0     H37556   8.937   5.730   2.471  2.5363  2.0895  4.3255
  285MOL0     H37557   9.238   5.447   2.625  1.4677  0.6171  0.2842
  285MOL0     H37558   9.179   5.540   2.762  2.2842 -0.7818 -0.3154
  285MOL0     H37559   9.376   5.663   2.734  0.5548 -1.0662 -0.8294
  285MOL0     H37560   9.277   5.741   2.612  0.2574  0.5314  0.3734
  285MOL0     H37561   9.385   5.559   2.450 -1.4632 -1.8534  0.5557
  285MOL0     H37562   9.458   5.484   2.599  0.6367  0.9801  0.4458
  285MOL0     H37563   9.521   5.774   2.518  0.3702  0.4102  0.9778
  285MOL0     H37564   9.609   5.674   2.636  2.8943  3.1705 -1.5654
  285MOL0     H37565   9.715   5.732   2.417  0.2332  0.6963 -3.3401
  285MOL0     H37566   9.583   5.652   2.331  0.7977 -4.4880  0.0134
  285MOL0     H37567   9.638   5.421   2.406  0.9486  0.0390  4.3903
  285MOL0     H37568   9.754   5.495   2.513  0.1524  1.0774  1.4367
  285MOL0     H37569   9.824   5.400   2.256 -0.2986  0.0267 -1.3583
  285MOL0     H37570   9.777   5.563   2.219 -0.8211 -3.0436 -1.5010
  285MOL0     H37571   9.967   5.480   2.438  0.6867  2.4334  1.4316
  285MOL0     H37572   9.930   5.650   2.403  3.1783  0.8405  0.9629
  285MOL0     H37573  10.060   5.331   2.201 -1.0199 -0.3261 -0.4536
  285MOL0     H37574  10.264   5.310   2.003 -0.1628  1.4153  1.9246
  285MOL0     H37575  10.312   5.451   1.908  1.6215 -0.6785 -0.0121
  285MOL0     H37576  10.172   5.345   1.769 -2.0484 -3.1958  0.1576
  285MOL0     H37577  10.069   5.469   1.822 -0.3090 -1.5966 -0.3040
  285MOL0     H37578  10.019   5.209   1.815  3.2715 -0.5584  0.3269
  285MOL0     H37579  10.050   5.222   1.983  0.9088  1.4515  1.0837
  285MOL0     H37580   9.850   5.404   1.832 -0.6832  0.8880  0.2639
  285MOL0     H37581   9.852   5.371   2.004 -0.1208 -0.1966  0.3688
  285MOL0     H37582   9.663   5.455   1.998 -0.1201 -0.2885 -2.9726
  285MOL0     H37583   9.434   5.489   2.073 -2.0049  0.5329 -1.7913
  285MOL0     H37584   9.061   5.347   2.338 -0.1597  0.8622 -0.8557
  285MOL0     H37585   8.823   5.375   2.399  0.9765  2.5051  0.5857
  285MOL0     H37586   8.606   5.372   2.086  3.9005 -0.5498  0.6422
  285MOL0     H37587   8.501   5.421   2.210  2.5326  1.1780  0.5965
  285MOL0     H37588   8.485   5.127   2.113 -1.5934 -0.7156  2.1310
  285MOL0     H37589   8.434   5.269   2.012  1.3776  2.4107  0.7460
  285MOL0     H37590   8.277   5.349   2.136  0.4797  1.1469  1.7601
  285MOL0     H37591   8.306   5.248   2.281  2.5757 -1.2609 -0.5135
  285MOL0     H37592   8.204   5.115   2.012 -0.5912 -0.4266 -0.0740
  285MOL0     H37593   8.193   5.065   2.183 -3.2797  0.4900  1.1565
  285MOL0     H37594   7.978   5.128   2.138 -0.1037 -0.1892  1.2130
  285MOL0     H37595   8.014   5.295   2.091 -0.2796 -0.5713  0.6573
  285MOL0     H37596   8.108   5.363   2.297  0.8168 -0.6775 -0.7561
  285MOL0     H37597   8.092   5.206   2.343  0.9298 -0.9949 -1.9149
  285MOL0     H37598   7.831   5.222   2.326 -1.0039  0.6200  1.0336
  285MOL0     H37599   7.898   5.320   2.443  0.3838  2.0893 -0.5052
  285MOL0     H37600   7.828   5.420   2.161  0.0704  0.3517 -0.7227
  285MOL0     H37601   7.898   5.516   2.293 -1.9828 -0.2651  0.9515
  285MOL0     H37602   8.703   5.122   2.092 -1.9569  1.2188  2.7123
  285MOL0     H37603   8.954   5.091   2.017  2.8412 -1.2133  0.9175
  285MOL0     H37604   9.362   5.072   2.044 -1.0369  1.2239 -0.4743
  285MOL0     H37605   9.564   5.030   1.944  0.2667  0.6171 -3.3778
  285MOL0     H37606   8.973   5.401   2.748  0.1457  0.1265  0.6827
  285MOL0     H37607   8.752   5.382   2.775  0.6314 -0.8310 -0.8249
  285MOL0     H37608   8.252   5.490   2.410  0.0105 -0.5631  0.3684
  285MOL0     H37609   8.025   5.560   2.460 -1.1700 -0.5417  1.1108
  285MOL0     H37610   7.810   5.509   2.580 -1.3167  0.8222  2.0885
  285MOL0     H37611   7.832   5.668   2.506 -1.1973 -0.6007 -0.7943
  285MOL0     H37612   7.664   5.610   2.749  0.1009 -1.1048 -1.2862
  285MOL0     H37613   7.753   5.761   2.721  0.1053  0.0790  0.2638
  285MOL0     H37614   7.566   5.607   2.523  0.0904 -2.0163  1.9754
  285MOL0     H37615   7.620   5.773   2.501 -0.8359  0.8652 -0.3044
  285MOL0     H37616   7.463   5.679   2.738 -0.9804 -0.6208 -0.1381
  285MOL0     H37617   7.477   5.848   2.685 -2.1774  0.6625 -1.2763
  285MOL0     H37618   7.178   5.678   2.421  1.8184 -1.5091 -1.1961
  285MOL0     H37619   8.135   5.655   2.864 -1.1132 -1.3353  0.1042
  285MOL0     H37620   8.372   5.607   2.792  0.1154 -0.5317 -1.4637
  286MOL0     O37621   5.306   5.276   2.198 -0.4267 -0.2401  0.3329
  286MOL0     C37622   5.426   5.273   2.195  0.2405  1.0376  0.5072
  286MOL0     O37623   5.510   5.222   2.098 -0.0734  0.6684  0.4932
  286MOL0     C37624   5.461   5.181   1.980  0.0572 -0.1802 -0.1429
  286MOL0     C37625   5.425   5.272   1.876  0.2435  0.8383 -0.0959
  286MOL0     C37626   5.396   5.230   1.744  0.7138  0.0877 -0.6131
  286MOL0     C37627   5.395   5.094   1.719 -1.1362 -0.5368  0.4324
  286MOL0     O37628   5.343   5.023   1.616  0.1261  1.0859 -0.1718
  286MOL0     C37629   5.225   5.068   1.543 -0.7933  0.4541  1.0860
  286MOL0     C37630   5.256   5.164   1.419  0.2368 -0.0762  0.4843
  286MOL0     C37631   5.149   5.272   1.419 -0.1780  0.6663  0.5158
  286MOL0     C37632   5.015   5.223   1.382 -0.3149  0.0601  0.2466
  286MOL0     C37633   4.904   5.327   1.387  0.3723 -1.4410  0.5610
  286MOL0     C37634   4.913   5.426   1.258 -0.5251 -0.6971 -0.4996
  286MOL0     C37635   4.793   5.524   1.240 -0.4205  0.3223 -0.3722
  286MOL0     C37636   4.813   5.630   1.133  0.7808  0.0232  0.1076
  286MOL0     N37637   4.690   5.711   1.112  0.2827  0.3051  0.8002
  286MOL0     C37638   4.576   5.658   1.066  0.1907  0.1426  0.7870
  286MOL0     C37639   4.490   5.763   1.055  0.4632 -0.5430 -0.4644
  286MOL0     C37640   4.349   5.739   1.009  0.3595  1.3325 -0.0632
  286MOL0     C37641   4.248   5.822   1.094  0.3950 -0.4244  0.0944
  286MOL0     C37642   4.153   5.894   0.997 -0.0526  0.4711  0.1962
  286MOL0     C37643   4.031   5.959   1.062  0.3246  0.3783 -0.2134
  286MOL0     O37644   3.962   6.036   0.963  0.2544  0.2657 -0.5374
  286MOL0     C37645   3.833   5.996   0.933  0.5270 -0.6915 -0.6799
  286MOL0     C37646   3.734   6.097   0.922  0.3378 -1.2354 -0.2075
  286MOL0     C37647   3.596   6.060   0.909 -0.4897 -0.3828 -1.3713
  286MOL0     C37648   3.558   5.925   0.899  0.8783 -0.0306 -0.9599
  286MOL0     C37649   3.416   5.880   0.896 -0.1988  1.0978  0.4567
  286MOL0     O37650   3.322   5.975   0.924  0.6322  0.0366 -1.5145
  286MOL0     C37651   3.192   5.936   0.950 -0.2424 -1.2886  0.2415
  286MOL0     C37652   3.121   5.853   0.864  0.0820  0.8226 -0.2893
  286MOL0     C37653   2.983   5.837   0.889  0.2906 -0.6296  0.0290
  286MOL0     C37654   2.922   5.904   1.001  0.4415  0.0489  0.3659
  286MOL0     O37655   2.793   5.887   1.041 -0.0644 -0.4673  0.8189
  286MOL0     C37656   2.720   5.772   0.988  0.5031  0.5410 -1.0768
  286MOL0     C37657   2.587   5.750   1.037  1.0888  0.6361 -0.0934
  286MOL0     C37658   2.486   5.865   1.017  0.1183  0.2849  0.1752
  286MOL0     C37659   2.353   5.828   1.079  0.5876 -0.6022 -0.3703
  286MOL0     C37660   2.274   5.955   1.057 -0.0253 -0.1500  0.8106
  286MOL0     C37661   2.136   5.956   1.119  0.4272  0.2170 -0.3074
  286MOL0     C37662   2.048   5.833   1.065 -1.0991 -0.4693 -0.2392
  286MOL0     C37663   1.896   5.834   1.095 -0.1509 -0.1495  0.7365
  286MOL0    Cl37664   1.797   5.923   0.978  0.0022  0.2313  0.0882
  286MOL0     C37665   3.001   5.979   1.087 -0.5432 -0.2029  0.4023
  286MOL0     C37666   3.133   5.996   1.062  0.5109  0.4827  0.2938
  286MOL0     O37667   3.401   5.779   0.836  0.3505  0.1387 -0.4295
  286MOL0     C37668   3.661   5.828   0.895  0.4039  0.0733 -0.7478
  286MOL0     C37669   3.795   5.862   0.911 -0.5743 -0.5199 -0.4892
  286MOL0     N37670   4.551   5.881   1.085 -1.0883  0.1027 -0.0647
  286MOL0     N37671   4.670   5.845   1.125 -0.3821  0.2868 -0.0550
  286MOL0     C37672   5.432   5.002   1.814 -0.0725  0.3637  0.2937
  286MOL0     C37673   5.479   5.048   1.944  0.5974 -0.2951  0.1380
  286MOL0     C37674   5.490   5.334   2.314 -0.0816  0.5072  0.7323
  286MOL0     C37675   5.419   5.392   2.420  0.5252 -0.6069 -0.4800
  286MOL0     C37676   5.489   5.444   2.528 -0.3778  0.9222 -0.0337
  286MOL0     C37677   5.630   5.454   2.527 -0.3760 -0.0911  0.8141
  286MOL0     O37678   5.694   5.524   2.632 -0.4347 -0.5039  0.6701
  286MOL0     C37679   5.617   5.573   2.744  0.6720  0.7540  0.2664
  286MOL0     C37680   5.714   5.645   2.831 -1.0494 -0.3270  0.2956
  286MOL0     C37681   5.650   5.681   2.964 -0.6279 -0.5790 -0.3311
  286MOL0     C37682   5.757   5.770   3.041  0.1610  0.1550 -0.2217
  286MOL0     C37683   5.873   5.691   3.072  0.2586 -0.5192  0.6565
  286MOL0     C37684   5.968   5.636   3.117  0.0926  0.1946  0.3707
  286MOL0     C37685   5.701   5.403   2.419  0.0322 -1.2358  0.6930
  286MOL0     C37686   5.628   5.349   2.311 -0.0950 -0.4115 -0.1903
  286MOL0     H37687   5.436   5.377   1.900 -1.0061  0.7548  0.9674
  286MOL0     H37688   5.357   5.309   1.680 -0.0552 -0.8614 -1.3474
  286MOL0     H37689   5.164   5.116   1.619  0.6959  0.8021  2.1058
  286MOL0     H37690   5.169   4.981   1.507  0.9504 -0.0668 -0.6136
  286MOL0     H37691   5.260   5.107   1.325 -0.1582 -0.4730  0.7051
  286MOL0     H37692   5.355   5.210   1.424 -1.0075  3.0611 -1.1475
  286MOL0     H37693   5.186   5.345   1.346  1.5883  1.4477  2.0950
  286MOL0     H37694   5.152   5.321   1.517  0.7574 -2.6896  2.3109
  286MOL0     H37695   5.013   5.169   1.288  2.4964  1.7846 -0.9202
  286MOL0     H37696   4.994   5.149   1.460 -1.0895 -2.6473 -2.3744
  286MOL0     H37697   4.900   5.388   1.477  2.4423  1.2933 -1.0145
  286MOL0     H37698   4.811   5.276   1.364  0.1548  0.1318 -2.6975
  286MOL0     H37699   4.924   5.369   1.166 -1.2429 -0.9780 -0.4169
  286MOL0     H37700   5.008   5.480   1.263 -0.9511 -0.0264  1.0437
  286MOL0     H37701   4.711   5.456   1.215  1.6570 -2.3272 -0.4491
  286MOL0     H37702   4.771   5.564   1.340  2.8642  3.1355 -0.6098
  286MOL0     H37703   4.831   5.578   1.039 -0.7268  0.0045 -0.1951
  286MOL0     H37704   4.897   5.696   1.157  1.9083 -0.4731 -2.2535
  286MOL0     H37705   4.552   5.552   1.061  3.2398 -0.6271  0.5907
  286MOL0     H37706   4.317   5.634   1.010 -3.8280  2.4177 -0.6912
  286MOL0     H37707   4.350   5.772   0.905 -2.1217 -0.1560 -0.6414
  286MOL0     H37708   4.304   5.899   1.146 -0.8922  2.4078 -2.4158
  286MOL0     H37709   4.193   5.762   1.168  0.5134  0.1753  0.6776
  286MOL0     H37710   4.211   5.980   0.961  2.5379 -0.8142  1.0423
  286MOL0     H37711   4.125   5.827   0.915  0.0868 -2.1603  2.1759
  286MOL0     H37712   4.075   6.029   1.134  2.3139 -1.6464  0.6724
  286MOL0     H37713   3.980   5.879   1.116 -2.1705  2.9149  1.5006
  286MOL0     H37714   3.763   6.201   0.923  0.4840 -1.2054 -2.6936
  286MOL0     H37715   3.515   6.132   0.896 -0.4604 -0.0079  0.3131
  286MOL0     H37716   3.170   5.799   0.783 -0.8855 -1.9946  0.8790
  286MOL0     H37717   2.947   5.761   0.820 -0.2729  0.1801 -0.5863
  286MOL0     H37718   2.787   5.688   1.013 -1.2217 -0.4547  0.4701
  286MOL0     H37719   2.703   5.786   0.881  0.6529 -0.0010 -1.1769
  286MOL0     H37720   2.601   5.731   1.144 -1.4283  0.9688  0.3629
  286MOL0     H37721   2.537   5.663   0.993 -1.6771  1.9099  0.3573
  286MOL0     H37722   2.494   5.892   0.911  0.3345  0.0367  0.1271
  286MOL0     H37723   2.520   5.948   1.080 -0.7903 -0.2327  1.3828
  286MOL0     H37724   2.303   5.745   1.028 -1.6947 -0.3887  1.3397
  286MOL0     H37725   2.353   5.803   1.185  0.3570  0.1032 -0.1973
  286MOL0     H37726   2.260   5.970   0.950 -0.1364  2.5912  1.1320
  286MOL0     H37727   2.340   6.030   1.100  0.4131 -1.6943  3.0080
  286MOL0     H37728   2.076   6.045   1.103 -0.3133 -0.5787 -2.2607
  286MOL0     H37729   2.148   5.947   1.227  1.2087  3.7441 -0.0005
  286MOL0     H37730   2.067   5.815   0.959 -3.9386  1.3153 -1.1615
  286MOL0     H37731   2.085   5.747   1.121 -0.7052 -0.1735 -0.0384
  286MOL0     H37732   1.872   5.849   1.201 -4.2522  1.9322 -0.2859
  286MOL0     H37733   1.862   5.733   1.072 -3.0479  0.9161 -0.0262
  286MOL0     H37734   2.952   6.042   1.161 -0.2051  2.2183 -1.3148
  286MOL0     H37735   3.177   6.067   1.131 -0.2334  1.1433  0.0982
  286MOL0     H37736   3.622   5.727   0.899 -3.4414  1.4046  3.0720
  286MOL0     H37737   3.864   5.778   0.913 -1.9825 -1.6925  0.5725
  286MOL0     H37738   5.432   4.897   1.784  0.5186  0.3541  0.3090
  286MOL0     H37739   5.519   4.982   2.021  0.3427 -1.8567 -1.0239
  286MOL0     H37740   5.311   5.391   2.426  0.4431 -2.5076 -1.4256
  286MOL0     H37741   5.422   5.477   2.606 -2.2283 -0.0591 -1.1471
  286MOL0     H37742   5.592   5.484   2.803  2.6958 -0.2225 -0.2259
  286MOL0     H37743   5.524   5.626   2.722  1.3662  2.0761  0.4627
  286MOL0     H37744   5.792   5.573   2.858  1.0789  1.8827  0.4234
  286MOL0     H37745   5.762   5.723   2.772  0.8531 -1.7918 -0.2135
  286MOL0     H37746   5.627   5.586   3.013  0.3988  0.3640  2.0978
  286MOL0     H37747   5.553   5.730   2.959 -0.2180  0.2773 -0.2093
  286MOL0     H37748   5.780   5.853   2.974  0.4256 -0.0355 -0.3681
  286MOL0     H37749   5.707   5.814   3.128  1.5315  1.7803 -0.2019
  286MOL0     H37750   6.044   5.569   3.153  0.0873  0.4352  0.8379
  286MOL0     H37751   5.809   5.412   2.414  0.4222 -4.4423  1.2396
  286MOL0     H37752   5.688   5.301   2.234  1.3076  0.7719  0.1193
  287MOL0     O37753   6.220   8.807  10.312 -0.0487  0.7656  0.0288
  287MOL0     C37754   6.276   8.900  10.245  0.3264  0.5061 -0.3962
  287MOL0     O37755   6.220   9.023  10.222 -0.5583 -0.5522  0.0117
  287MOL0     C37756   6.090   9.057  10.261 -0.7085 -0.4488  0.3305
  287MOL0     C37757   6.057   9.024  10.390 -0.5375  0.1523  0.2718
  287MOL0     C37758   5.930   9.055  10.439  0.2267  1.1442 -0.9051
  287MOL0     C37759   5.825   9.102  10.346 -0.2491 -0.3155 -0.0535
  287MOL0     O37760   5.695   9.118  10.374  0.4813  0.2843 -0.0601
  287MOL0     C37761   5.652   9.082  10.508 -0.2758  0.7522  0.0138
  287MOL0     C37762   5.501   9.098  10.514 -0.7107 -0.0712  1.4483
  287MOL0     C37763   5.440   9.044  10.643  0.6862  0.5516 -0.2255
  287MOL0     C37764   5.289   9.081  10.644 -0.0897  0.2217 -0.3176
  287MOL0     C37765   5.238   9.011  10.770  0.8058  0.2864 -0.6143
  287MOL0     C37766   5.087   9.020  10.770 -0.6703  1.0231 -0.0543
  287MOL0     C37767   5.025   9.136  10.848 -0.2405 -0.0303  0.3512
  287MOL0     C37768   4.872   9.115  10.836 -0.2355 -0.4143  0.2044
  287MOL0     N37769   4.779   9.226  10.873 -0.6515 -0.2306  0.0136
  287MOL0     C37770   4.699   9.222  10.975  0.1265 -0.4880 -0.0719
  287MOL0     C37771   4.646   9.349  10.977 -1.1166 -0.0636 -0.1587
  287MOL0     C37772   4.547   9.400  11.080 -0.5329 -0.3762  0.6517
  287MOL0     C37773   4.440   9.488  11.020  0.6289  1.1033  0.0886
  287MOL0     C37774   4.356   9.550  11.133 -1.3387  0.4259  0.4756
  287MOL0     C37775   4.272   9.672  11.078 -0.1730 -0.5069 -0.9206
  287MOL0     O37776   4.167   9.616  10.995  0.2703 -0.5669 -0.5543
  287MOL0     C37777   4.044   9.676  10.992  0.2613 -0.9802  0.3941
  287MOL0     C37778   3.948   9.598  11.055 -0.4963 -0.0159  0.1782
  287MOL0     C37779   3.812   9.644  11.072  0.4054 -0.5875  0.4738
  287MOL0     C37780   3.771   9.767  11.025 -0.9530 -0.1040  0.2583
  287MOL0     C37781   3.629   9.802  11.056 -0.0132  0.2877  0.6951
  287MOL0     O37782   3.583   9.924  11.001 -0.1983 -0.0501 -0.1738
  287MOL0     C37783   3.450   9.950  11.012  0.1369 -0.3339  0.6330
  287MOL0     C37784   3.431  10.066  11.090  1.2709  0.4750 -0.4825
  287MOL0     C37785   3.306  10.125  11.116 -0.4582 -0.3209  0.1588
  287MOL0     C37786   3.195  10.067  11.059 -0.0555  1.1745 -0.1304
  287MOL0     O37787   3.071  10.117  11.095  0.4436  1.0357  0.9067
  287MOL0     C37788   3.020  10.089  11.231 -0.1080 -0.0391  0.2383
  287MOL0     C37789   2.911   9.979  11.219  0.3091 -0.3328 -0.5682
  287MOL0     C37790   2.790  10.020  11.121 -0.4055  0.0934 -0.1985
  287MOL0     C37791   2.676   9.915  11.135  0.9841 -0.5871 -0.1349
  287MOL0     C37792   2.545   9.973  11.074 -0.1141  0.6644 -0.5290
  287MOL0     C37793   2.548   9.976  10.921  0.4163 -0.4921  0.2994
  287MOL0     C37794   2.410  10.016  10.871 -0.7772 -0.5389  0.4219
  287MOL0     C37795   2.416  10.028  10.719  0.8063  0.1060  0.5730
  287MOL0    Cl37796   2.531  10.134  10.646 -0.3352  0.3222 -0.0463
  287MOL0     C37797   3.206   9.954  10.979 -1.4080  0.2765  0.4289
  287MOL0     C37798   3.332   9.889  10.959 -0.2440  0.0304 -0.4948
  287MOL0     O37799   3.552   9.711  11.109  0.3066 -0.2894 -0.0717
  287MOL0     C37800   3.874   9.853  10.976  0.4462 -0.7427  0.4400
  287MOL0     C37801   4.010   9.807  10.971  0.0857  0.8402 -1.3010
  287MOL0     N37802   4.687   9.423  10.867 -1.0811  0.0305  0.3411
  287MOL0     N37803   4.767   9.344  10.803 -1.6028  0.7342 -0.2740
  287MOL0     C37804   5.866   9.153  10.217  0.0367 -0.5790  0.1684
  287MOL0     C37805   5.994   9.123  10.176  0.1401  0.7961  0.8606
  287MOL0     C37806   6.404   8.865  10.186 -0.2441 -0.3311 -0.6074
  287MOL0     C37807   6.452   8.731  10.186  0.1160 -0.1751 -0.0376
  287MOL0     C37808   6.559   8.706  10.106  0.4288  0.0881 -0.1261
  287MOL0     C37809   6.640   8.800  10.055 -0.1359 -0.5866  0.1162
  287MOL0     O37810   6.760   8.753  10.000  0.3207 -0.5681  0.2680
  287MOL0     C37811   6.856   8.836   9.938 -0.5795  0.4217  0.1557
  287MOL0     C37812   6.983   8.748   9.948 -0.1079  0.2322  0.5383
  287MOL0     C37813   7.097   8.837   9.893  0.4194  0.6454  0.0402
  287MOL0     C37814   7.226   8.754   9.893 -0.0356  0.0917  0.4379
  287MOL0     C37815   7.234   8.659   9.778  0.5682  0.1609 -0.5979
  287MOL0     C37816   7.256   8.571   9.701 -0.3634 -0.4699 -0.4916
  287MOL0     C37817   6.611   8.931  10.071 -0.2710 -0.5256  0.1017
  287MOL0     C37818   6.488   8.968  10.126 -0.1692 -0.0597  0.8592
  287MOL0     H37819   6.126   8.983  10.463 -1.5796 -1.7542  0.2305
  287MOL0     H37820   5.918   9.028  10.544 -0.5660 -2.1731 -1.7138
  287MOL0     H37821   5.692   9.148  10.585 -2.0567  3.2314 -1.0458
  287MOL0     H37822   5.678   8.978  10.530  0.8158  0.9988 -0.0509
  287MOL0     H37823   5.469   9.045  10.424  1.0678  1.8291 -0.4038
  287MOL0     H37824   5.474   9.202  10.497  1.9372  0.3438 -0.8578
  287MOL0     H37825   5.488   9.079  10.734 -0.1445  0.7079  0.1568
  287MOL0     H37826   5.446   8.935  10.649 -1.0502  0.5231  2.0251
  287MOL0     H37827   5.282   9.190  10.647 -2.1249  0.3051 -3.6301
  287MOL0     H37828   5.236   9.048  10.555  0.7315 -0.4609 -0.5625
  287MOL0     H37829   5.271   9.059  10.862 -0.8784  1.7163 -0.6939
  287MOL0     H37830   5.271   8.907  10.777  2.3883  0.6801 -1.8185
  287MOL0     H37831   5.047   8.931  10.820  0.2420  0.6504  0.0397
  287MOL0     H37832   5.052   9.022  10.666 -0.8579  3.2492  0.0057
  287MOL0     H37833   5.048   9.119  10.954  3.1190 -0.3231 -0.3296
  287MOL0     H37834   5.048   9.236  10.810 -1.9220 -0.5119 -2.1564
  287MOL0     H37835   4.845   9.023  10.888  0.0692 -1.5355 -1.5118
  287MOL0     H37836   4.851   9.100  10.729  0.5744 -0.2517  0.0111
  287MOL0     H37837   4.671   9.141  11.041 -4.1654  1.7740  1.3049
  287MOL0     H37838   4.595   9.449  11.165 -1.6574  1.9459  0.0010
  287MOL0     H37839   4.503   9.310  11.125  0.6517 -0.5903  1.4320
  287MOL0     H37840   4.378   9.423  10.958  0.9083  0.2331  0.7002
  287MOL0     H37841   4.483   9.574  10.967  0.1907  2.6982  2.1834
  287MOL0     H37842   4.294   9.474  11.181  0.7252 -1.1826  0.6979
  287MOL0     H37843   4.435   9.581  11.203  0.7409 -1.2205 -1.0118
  287MOL0     H37844   4.332   9.739  11.015  1.0878 -1.2557 -0.5561
  287MOL0     H37845   4.238   9.738  11.158 -1.2658 -3.6113  1.3860
  287MOL0     H37846   3.971   9.493  11.071 -0.1433 -0.1169 -0.9254
  287MOL0     H37847   3.748   9.561  11.099 -0.8434  1.1909  3.6037
  287MOL0     H37848   3.521  10.110  11.132  0.4013  1.6647  0.2101
  287MOL0     H37849   3.311  10.219  11.170  0.1324 -0.0376 -0.3706
  287MOL0     H37850   2.984  10.180  11.280 -2.3406  0.5088 -2.2177
  287MOL0     H37851   3.101  10.043  11.288 -0.4504 -2.3447 -1.0114
  287MOL0     H37852   2.866   9.966  11.318 -0.5401  0.4562 -0.8398
  287MOL0     H37853   2.950   9.883  11.184 -1.9801 -0.4915 -3.0695
  287MOL0     H37854   2.820  10.010  11.016  1.6451 -0.4876  0.3953
  287MOL0     H37855   2.755  10.120  11.149 -1.0989 -0.3087  0.3982
  287MOL0     H37856   2.694   9.814  11.097  0.8135  0.2162 -2.4633
  287MOL0     H37857   2.640   9.903  11.238 -1.1601 -1.5995 -0.9340
  287MOL0     H37858   2.520  10.071  11.115 -0.0496  0.3392  0.3221
  287MOL0     H37859   2.460   9.913  11.110  1.0540 -0.7878 -0.0873
  287MOL0     H37860   2.572   9.873  10.893  3.0024  0.2994 -0.7211
  287MOL0     H37861   2.628  10.042  10.884  1.1392 -0.5927  1.6239
  287MOL0     H37862   2.338   9.936  10.890 -0.2705 -0.6897  1.8046
  287MOL0     H37863   2.370  10.103  10.925 -1.3431  2.9254 -4.7966
  287MOL0     H37864   2.319  10.058  10.678  0.5634 -1.7943 -0.3119
  287MOL0     H37865   2.431   9.928  10.679 -2.3809 -0.5515  0.7523
  287MOL0     H37866   3.123   9.907  10.926 -2.3803  1.4872  0.8178
  287MOL0     H37867   3.331   9.794  10.906  0.2170  0.7746 -1.8658
  287MOL0     H37868   3.852   9.956  10.948  0.5897 -1.6525 -3.7374
  287MOL0     H37869   4.078   9.881  10.930  0.1208  0.5273 -1.8154
  287MOL0     H37870   5.812   9.215  10.146 -0.0208 -2.0081 -1.0786
  287MOL0     H37871   6.026   9.151  10.076 -1.1184  0.0088  0.2031
  287MOL0     H37872   6.403   8.648  10.235  3.1640 -0.9017  2.0979
  287MOL0     H37873   6.573   8.601  10.082 -1.1452  0.2698 -2.1052
  287MOL0     H37874   6.873   8.932   9.987  0.2597  0.5697 -0.4026
  287MOL0     H37875   6.827   8.869   9.838  0.4148  0.7036 -0.0495
  287MOL0     H37876   7.011   8.714  10.049  3.3374 -3.3772 -1.3603
  287MOL0     H37877   6.968   8.660   9.884 -0.1753  0.7391 -0.1489
  287MOL0     H37878   7.121   8.923   9.956  3.0562  0.5113 -0.6407
  287MOL0     H37879   7.070   8.870   9.792  1.7206 -0.0496 -0.5659
  287MOL0     H37880   7.309   8.827   9.889 -0.9913  1.1698 -1.1558
  287MOL0     H37881   7.237   8.697   9.985 -0.4934 -3.9153 -1.7768
  287MOL0     H37882   7.261   8.485   9.637 -0.4423 -2.3352  1.8764
  287MOL0     H37883   6.681   8.997  10.021  1.1980 -0.4654  2.1110
  287MOL0     H37884   6.455   9.071  10.130  0.3749  0.0901  1.7205
  288MOL0     O37885   8.588  10.877  10.837  0.0388  0.4071  0.6239
  288MOL0     C37886   8.478  10.830  10.844  0.2702 -0.1043  0.8219
  288MOL0     O37887   8.418  10.790  10.958 -0.3680  0.1393  0.2904
  288MOL0     C37888   8.478  10.806  11.076  0.9228 -0.1243 -1.0671
  288MOL0     C37889   8.486  10.694  11.163 -0.0983  0.0436 -0.4355
  288MOL0     C37890   8.556  10.720  11.290 -0.9219  0.7424  0.2537
  288MOL0     C37891   8.632  10.836  11.315  0.1374  0.5878  0.3239
  288MOL0     O37892   8.721  10.850  11.419  0.1854  1.0718 -0.1976
  288MOL0     C37893   8.838  10.764  11.435  0.0088  0.0143 -0.6181
  288MOL0     C37894   8.914  10.822  11.551 -1.2892 -0.5849  0.6116
  288MOL0     C37895   9.060  10.766  11.553 -0.3198  0.3624 -0.4096
  288MOL0     C37896   9.157  10.832  11.662 -0.0784 -0.2620  0.4368
  288MOL0     C37897   9.277  10.749  11.702  0.4266 -0.4403  0.5563
  288MOL0     C37898   9.383  10.736  11.588  0.3148  0.6842 -0.2656
  288MOL0     C37899   9.436  10.862  11.526 -0.3916 -0.1447  0.9907
  288MOL0     C37900   9.486  10.972  11.620  0.3268 -1.0181 -0.3900
  288MOL0     N37901   9.596  10.924  11.707  0.4063 -0.2784 -0.4510
  288MOL0     C37902   9.708  10.853  11.671  0.1036 -0.3774  0.4486
  288MOL0     C37903   9.800  10.861  11.780  0.7667 -0.2163  0.1879
  288MOL0     C37904   9.935  10.799  11.793  0.2443 -0.4701  0.1534
  288MOL0     C37905  10.043  10.893  11.855  1.1629 -0.4125  0.3555
  288MOL0     C37906  10.171  10.816  11.880  0.4977  0.1909  0.4422
  288MOL0     C37907  10.277  10.895  11.968  0.3284  0.3310  0.0643
  288MOL0     O37908  10.397  10.813  11.995 -0.0606  0.2444 -0.1358
  288MOL0     C37909  10.509  10.862  12.046  0.6829 -0.0783  0.2841
  288MOL0     C37910  10.524  10.988  12.099 -0.0226 -0.0752 -0.0813
  288MOL0     C37911  10.644  11.031  12.154  0.2089  0.7178 -0.6371
  288MOL0     C37912  10.758  10.939  12.155  0.2066  0.0723 -0.2615
  288MOL0     C37913  10.886  10.978  12.207 -0.4927 -1.2293 -0.4967
  288MOL0     O37914  10.879  11.097  12.292 -1.3102  0.4693 -0.0060
  288MOL0     C37915  10.989  11.126  12.373  0.0059 -0.5276 -0.3858
  288MOL0     C37916  10.986  11.125  12.509 -0.7816  0.2950 -0.4736
  288MOL0     C37917  11.092  11.170  12.593 -1.6543 -0.9739  0.0046
  288MOL0     C37918  11.215  11.208  12.528 -0.3574 -0.6259  0.0613
  288MOL0     O37919  11.322  11.244  12.610  0.2972 -0.5802 -0.0792
  288MOL0     C37920  11.456  11.262  12.537  0.6848 -0.3253 -0.2012
  288MOL0     C37921  11.557  11.284  12.642 -0.4434 -0.3220  0.6390
  288MOL0     C37922  11.687  11.328  12.577  0.6844  0.6928 -0.9842
  288MOL0     C37923  11.785  11.324  12.688 -0.3188  0.5386  0.1139
  288MOL0     C37924  11.911  11.396  12.650  0.1413  0.0699 -0.3640
  288MOL0     C37925  11.972  11.468  12.770  0.4539 -0.3596 -0.0028
  288MOL0     C37926  12.099  11.536  12.725 -0.5694 -0.1923  1.0407
  288MOL0     C37927  12.183  11.626  12.823  0.4551  0.0981 -0.2199
  288MOL0    Cl37928  12.238  11.516  12.955 -0.6678  0.6379 -0.3327
  288MOL0     C37929  11.216  11.209  12.386 -0.1596  1.0737 -0.2856
  288MOL0     C37930  11.106  11.163  12.309 -0.5282 -0.1538 -1.0020
  288MOL0     O37931  10.989  10.905  12.189  0.1686 -0.2012 -0.3141
  288MOL0     C37932  10.741  10.815  12.100  1.4653  0.3249  0.3870
  288MOL0     C37933  10.618  10.779  12.052 -0.0026  0.1912 -0.2567
  288MOL0     N37934   9.738  10.940  11.871 -0.0752  0.7615  0.2464
  288MOL0     N37935   9.616  10.971  11.830  0.3093  0.5537  0.3978
  288MOL0     C37936   8.616  10.946  11.226 -1.0284  0.2963 -0.0145
  288MOL0     C37937   8.536  10.932  11.111  0.2779  0.6467 -1.4119
  288MOL0     C37938   8.381  10.822  10.728 -0.2148 -0.1413  0.0818
  288MOL0     C37939   8.430  10.819  10.600 -0.5455  0.7502  0.0888
  288MOL0     C37940   8.340  10.790  10.499 -0.4443  0.2865  0.0977
  288MOL0     C37941   8.200  10.788  10.514 -0.8281  0.2691 -0.5790
  288MOL0     O37942   8.105  10.784  10.413  0.0218  0.5334  1.1779
  288MOL0     C37943   8.148  10.774  10.277 -1.1809  0.0395 -0.4621
  288MOL0     C37944   8.023  10.798  10.201  0.6580 -0.0042  0.5129
  288MOL0     C37945   8.035  10.765  10.055  0.5877 -0.9118 -0.5337
  288MOL0     C37946   8.133  10.857   9.975  0.0520 -0.7678 -0.4917
  288MOL0     C37947   8.275  10.814   9.972 -0.9448  0.2778  0.1298
  288MOL0     C37948   8.390  10.777   9.975  1.3047 -0.1401  0.0679
  288MOL0     C37949   8.152  10.791  10.647  0.2105 -0.4526 -0.1285
  288MOL0     C37950   8.243  10.813  10.752 -0.3638 -0.7311  0.2991
  288MOL0     H37951   8.441  10.602  11.129 -1.8428  0.6171  0.2236
  288MOL0     H37952   8.567  10.640  11.362 -1.3030  0.7027  0.2677
  288MOL0     H37953   8.900  10.753  11.345 -0.0047 -0.0321 -0.6223
  288MOL0     H37954   8.794  10.665  11.457 -3.0627  1.4354  0.2506
  288MOL0     H37955   8.856  10.808  11.642 -2.5229 -3.6322 -0.5200
  288MOL0     H37956   8.928  10.928  11.527 -1.9312 -0.8091 -0.8526
  288MOL0     H37957   9.107  10.765  11.454  1.0442  1.0178  0.1991
  288MOL0     H37958   9.044  10.661  11.579 -0.6400  0.3185 -0.7856
  288MOL0     H37959   9.196  10.927  11.625 -0.6426 -0.6976 -1.3631
  288MOL0     H37960   9.089  10.848  11.746 -1.0405  1.3712 -0.5970
  288MOL0     H37961   9.242  10.652  11.738 -0.8287  1.0900  3.8764
  288MOL0     H37962   9.318  10.797  11.791 -0.4880  1.0581  0.2147
  288MOL0     H37963   9.348  10.673  11.505  1.9553 -1.4138  0.5144
  288MOL0     H37964   9.468  10.684  11.634 -1.9492 -2.2601  0.8985
  288MOL0     H37965   9.506  10.830  11.448 -1.5896 -1.3558  0.3542
  288MOL0     H37966   9.352  10.898  11.465 -1.6207 -1.7951  1.6190
  288MOL0     H37967   9.404  10.992  11.690 -1.4562  1.4865 -2.9707
  288MOL0     H37968   9.515  11.063  11.568 -0.0178  0.2885  1.5813
  288MOL0     H37969   9.715  10.786  11.586  0.2544 -0.2506  0.3606
  288MOL0     H37970   9.966  10.773  11.691  1.8337  0.5334  0.3506
  288MOL0     H37971   9.931  10.708  11.853 -4.9329 -1.4176 -1.1832
  288MOL0     H37972  10.000  10.921  11.952 -1.0965  0.2370 -0.7880
  288MOL0     H37973  10.054  10.981  11.792 -2.3359  0.1703  0.4165
  288MOL0     H37974  10.140  10.724  11.929  0.7370 -0.4056 -0.5009
  288MOL0     H37975  10.210  10.800  11.779 -0.6215  1.7165 -0.2748
  288MOL0     H37976  10.229  10.924  12.062  3.4225 -0.5098  2.0360
  288MOL0     H37977  10.317  10.982  11.915  2.8557 -0.4427  0.5689
  288MOL0     H37978  10.447  11.064  12.091 -0.0028 -0.0583 -0.1090
  288MOL0     H37979  10.644  11.126  12.205 -2.4337 -1.4882  4.1132
  288MOL0     H37980  10.892  11.092  12.554 -1.7802 -0.5523 -3.0313
  288MOL0     H37981  11.082  11.169  12.701 -1.4777 -0.9086  0.0223
  288MOL0     H37982  11.441  11.339  12.461 -1.0837 -0.6883 -0.2558
  288MOL0     H37983  11.498  11.175  12.487  2.6587 -1.4386  3.0650
  288MOL0     H37984  11.568  11.203  12.714  0.6450 -2.1598 -1.4855
  288MOL0     H37985  11.525  11.373  12.698 -1.0662  0.2672 -0.6119
  288MOL0     H37986  11.675  11.433  12.547  0.1656  0.5758 -1.1883
  288MOL0     H37987  11.706  11.260  12.494 -0.3851 -0.5555 -0.2478
  288MOL0     H37988  11.739  11.376  12.773  0.0531 -0.7671  1.1556
  288MOL0     H37989  11.800  11.221  12.720 -0.7322  0.8624  1.4370
  288MOL0     H37990  11.893  11.472  12.573  1.0937  0.0307 -0.6434
  288MOL0     H37991  11.981  11.321  12.612  0.4148  0.0105  0.2438
  288MOL0     H37992  12.018  11.404  12.846  0.3313 -0.7599 -0.2628
  288MOL0     H37993  11.889  11.530  12.805 -3.1026 -4.8623  0.3277
  288MOL0     H37994  12.165  11.454  12.696 -1.9188 -0.6489 -0.9312
  288MOL0     H37995  12.089  11.598  12.635  0.1355  0.5676  1.4634
  288MOL0     H37996  12.117  11.706  12.860  0.3733 -0.1399  0.1528
  288MOL0     H37997  12.265  11.679  12.775 -0.1854  0.6499 -0.7295
  288MOL0     H37998  11.301  11.245  12.330 -2.2698  3.5658 -2.1267
  288MOL0     H37999  11.132  11.171  12.204  1.6157  1.1198 -0.4430
  288MOL0     H38000  10.827  10.750  12.089  0.9492 -0.5511  1.3546
  288MOL0     H38001  10.602  10.684  12.001 -1.0736  0.6206 -0.7439
  288MOL0     H38002   8.671  11.038  11.244 -1.7379  0.7467 -0.0843
  288MOL0     H38003   8.536  11.017  11.043 -1.6520  1.7709 -0.1213
  288MOL0     H38004   8.533  10.841  10.573 -1.1162  2.4446 -0.8326
  288MOL0     H38005   8.380  10.773  10.400 -1.2905 -3.1766  0.2229
  288MOL0     H38006   8.184  10.672  10.260  2.3930  0.9017  1.0736
  288MOL0     H38007   8.233  10.841  10.257 -0.9275 -0.5504 -1.4243
  288MOL0     H38008   7.945  10.732  10.240 -0.8559 -1.6382 -4.5031
  288MOL0     H38009   7.987  10.901  10.209  0.4877  0.0019 -0.2410
  288MOL0     H38010   7.937  10.773  10.008  0.5868 -4.2169 -1.3079
  288MOL0     H38011   8.067  10.660  10.052  2.4021 -0.3842 -1.3986
  288MOL0     H38012   8.104  10.853   9.869 -0.4100 -1.0997 -0.3564
  288MOL0     H38013   8.134  10.959  10.015 -0.4642 -1.5039  1.5145
  288MOL0     H38014   8.492  10.749   9.990  1.1819 -0.8566 -0.3891
  288MOL0     H38015   8.045  10.787  10.669  0.0618 -2.8165 -0.9668
  288MOL0     H38016   8.207  10.826  10.854 -2.3018  1.3510 -0.5613
  289MOL0     O38017   0.321   6.687  10.919  0.5582 -0.5163  0.6493
  289MOL0     C38018   0.302   6.641  10.804 -0.3959 -0.7515 -0.0697
  289MOL0     O38019   0.205   6.559  10.763  0.6287 -0.1946 -0.7150
  289MOL0     C38020   0.083   6.556  10.835  0.7534 -0.6392 -0.3754
  289MOL0     C38021  -0.008   6.455  10.807 -0.4399  0.0704 -0.4993
  289MOL0     C38022  -0.132   6.446  10.871 -0.3426 -1.3801  0.5611
  289MOL0     C38023  -0.174   6.551  10.953  0.5419 -1.1844 -0.0480
  289MOL0     O38024  -0.299   6.548  11.018 -0.4062 -0.1988 -0.5524
  289MOL0     C38025  -0.370   6.429  11.047  0.1773 -0.9678  0.6283
  289MOL0     C38026  -0.432   6.453  11.179  0.4451  0.0616 -0.2588
  289MOL0     C38027  -0.544   6.557  11.164 -0.9032 -0.4407  0.1918
  289MOL0     C38028  -0.595   6.590  11.308  0.6979  0.1471  0.7208
  289MOL0     C38029  -0.679   6.721  11.298  0.1002  0.0267  0.8558
  289MOL0     C38030  -0.738   6.780  11.427  0.2059  0.9932  0.1865
  289MOL0     C38031  -0.793   6.916  11.404 -0.0550  0.2808 -0.3783
  289MOL0     C38032  -0.838   6.974  11.543  0.4072  0.5380  0.2549
  289MOL0     N38033  -0.953   6.895  11.599 -1.0612 -0.6236  0.6674
  289MOL0     C38034  -1.081   6.915  11.558  0.4511  0.0714  0.0420
  289MOL0     C38035  -1.155   6.851  11.649 -0.3412 -0.0290 -1.1420
  289MOL0     C38036  -1.301   6.840  11.647  0.4148 -0.8031 -0.4065
  289MOL0     C38037  -1.349   6.750  11.761 -0.5333 -0.8120 -0.0525
  289MOL0     C38038  -1.381   6.831  11.879  0.0985  0.3078  0.5813
  289MOL0     C38039  -1.515   6.907  11.860  0.1331 -0.1662 -0.4336
  289MOL0     O38040  -1.622   6.809  11.827  0.0695 -0.3576  0.3251
  289MOL0     C38041  -1.747   6.848  11.862  0.3639 -0.1392 -0.0221
  289MOL0     C38042  -1.835   6.748  11.915 -0.1314  0.2070 -0.5850
  289MOL0     C38043  -1.962   6.789  11.951 -0.7120 -0.2000  1.0252
  289MOL0     C38044  -2.003   6.917  11.932  0.3344 -0.4817  0.0926
  289MOL0     C38045  -2.144   6.953  11.950 -0.1553  0.6452 -0.7937
  289MOL0     O38046  -2.223   6.838  11.960 -0.4809 -0.6792  0.7829
  289MOL0     C38047  -2.357   6.850  11.951  0.1473 -0.1256  0.3108
  289MOL0     C38048  -2.432   6.866  11.835 -0.2498  0.6318  0.6026
  289MOL0     C38049  -2.579   6.855  11.839 -0.2096  0.3527  0.8421
  289MOL0     C38050  -2.650   6.834  11.958  0.6278  0.8372 -0.1077
  289MOL0     O38051  -2.788   6.819  11.943  0.7288  0.1242 -0.1725
  289MOL0     C38052  -2.854   6.744  12.042  0.0153  0.2858  0.6159
  289MOL0     C38053  -3.006   6.721  12.019 -1.4256  0.4468  0.1444
  289MOL0     C38054  -3.039   6.661  11.879  0.1107  0.6362 -0.5038
  289MOL0     C38055  -3.051   6.763  11.766  0.5750 -0.2257  0.7159
  289MOL0     C38056  -3.109   6.710  11.633 -0.5237  0.5284  0.4121
  289MOL0     C38057  -3.232   6.621  11.653 -0.2196  0.3670  0.4062
  289MOL0     C38058  -3.335   6.699  11.721  0.4065 -1.3823 -1.1494
  289MOL0     C38059  -3.480   6.656  11.699  0.8032 -0.0742  0.6453
  289MOL0    Cl38060  -3.593   6.724  11.825 -0.1078 -0.4212  0.2033
  289MOL0     C38061  -2.575   6.849  12.077  0.1820 -0.0451 -0.5736
  289MOL0     C38062  -2.441   6.850  12.067  0.3376 -0.5066  0.3694
  289MOL0     O38063  -2.182   7.067  11.949 -0.5164 -0.1535 -0.0882
  289MOL0     C38064  -1.914   7.016  11.879  0.9933  0.3365 -0.1664
  289MOL0     C38065  -1.787   6.983  11.837 -0.4615  0.1538 -0.1727
  289MOL0     N38066  -1.065   6.796  11.740  0.1516 -0.0379  0.3455
  289MOL0     N38067  -0.947   6.823  11.711 -0.4837  0.4653  0.2762
  289MOL0     C38068  -0.083   6.653  10.980  0.5141 -0.1491 -0.3639
  289MOL0     C38069   0.037   6.655  10.921  0.5203  0.4259  0.1866
  289MOL0     C38070   0.397   6.688  10.701  0.9082 -0.2587  0.2243
  289MOL0     C38071   0.393   6.632  10.573  0.6069 -0.3404 -0.0881
  289MOL0     C38072   0.484   6.672  10.479 -0.0539 -0.0170  0.4906
  289MOL0     C38073   0.578   6.767  10.500 -0.1336 -0.6434 -0.1440
  289MOL0     O38074   0.670   6.792  10.399 -0.4117 -0.3168 -0.2423
  289MOL0     C38075   0.771   6.899  10.413  0.3866 -0.6175  0.2119
  289MOL0     C38076   0.870   6.905  10.289  0.6509 -0.2609  0.3341
  289MOL0     C38077   0.783   6.912  10.155 -0.4777 -0.8284  0.0870
  289MOL0     C38078   0.847   6.987  10.036 -0.2499 -0.4708 -0.0373
  289MOL0     C38079   0.965   6.918   9.984  0.8981 -0.0567 -0.6567
  289MOL0     C38080   1.056   6.843   9.945  0.5021  0.7829 -0.3998
  289MOL0     C38081   0.582   6.822  10.624 -0.0234 -0.4108  0.4758
  289MOL0     C38082   0.493   6.782  10.726  0.2435 -0.1406  0.4508
  289MOL0     H38083   0.025   6.376  10.740  2.4854 -0.0284  0.8908
  289MOL0     H38084  -0.210   6.373  10.850 -2.8799  1.2550  0.0264
  289MOL0     H38085  -0.293   6.353  11.065 -0.2848 -1.1820  1.8322
  289MOL0     H38086  -0.452   6.407  10.978 -0.2063 -2.8492  1.6064
  289MOL0     H38087  -0.348   6.484  11.242 -0.0501 -1.7506  1.3964
  289MOL0     H38088  -0.469   6.364  11.232 -0.0033  0.8384  0.7567
  289MOL0     H38089  -0.620   6.509  11.102 -1.9591 -1.9089  2.4519
  289MOL0     H38090  -0.506   6.646  11.114  2.7055 -1.8659  0.0810
  289MOL0     H38091  -0.654   6.507  11.345 -0.7625  0.3795 -0.9604
  289MOL0     H38092  -0.509   6.613  11.373  1.5659 -0.7158 -0.0821
  289MOL0     H38093  -0.764   6.704  11.231 -1.5371  3.3448  1.8767
  289MOL0     H38094  -0.609   6.798  11.263  3.3626 -1.9714  2.4774
  289MOL0     H38095  -0.660   6.801  11.501  2.0307  0.0455 -1.3858
  289MOL0     H38096  -0.808   6.708  11.472 -0.6503  1.6900 -0.0189
  289MOL0     H38097  -0.715   6.978  11.358 -0.7378  0.4749 -1.3123
  289MOL0     H38098  -0.881   6.907  11.339  2.0555 -0.5433 -3.3129
  289MOL0     H38099  -0.869   7.078  11.532  0.7026  0.9580  2.8498
  289MOL0     H38100  -0.752   6.970  11.610  0.2266 -0.1172  0.4537
  289MOL0     H38101  -1.121   6.961  11.468  2.9292 -0.7163 -1.5901
  289MOL0     H38102  -1.328   6.789  11.554  1.4823  0.8902 -1.6890
  289MOL0     H38103  -1.343   6.940  11.657  3.9255  1.1192 -2.8161
  289MOL0     H38104  -1.280   6.670  11.791  0.6311  0.1872  0.0072
  289MOL0     H38105  -1.435   6.693  11.725 -0.2562 -1.0225 -0.3871
  289MOL0     H38106  -1.390   6.756  11.958 -2.4571 -2.0760 -1.7372
  289MOL0     H38107  -1.297   6.895  11.907 -0.1231  0.6614  0.4504
  289MOL0     H38108  -1.510   6.986  11.784 -1.7639 -0.9006 -1.4005
  289MOL0     H38109  -1.540   6.953  11.956 -1.4081  0.7810 -1.2515
  289MOL0     H38110  -1.805   6.645  11.933  0.1845  0.5732  1.1209
  289MOL0     H38111  -2.018   6.700  11.979  0.0835 -0.8384  0.6200
  289MOL0     H38112  -2.365   6.867  11.750  0.9512  0.1895  1.5087
  289MOL0     H38113  -2.634   6.872  11.747 -1.6330 -0.0903  1.5761
  289MOL0     H38114  -2.852   6.802  12.136  1.3883  0.3749  0.5603
  289MOL0     H38115  -2.797   6.653  12.066  1.1246  1.5368  3.2465
  289MOL0     H38116  -3.074   6.803  12.046 -3.9368 -1.2477 -0.6585
  289MOL0     H38117  -3.032   6.638  12.085  2.8064  0.1563  1.7397
  289MOL0     H38118  -3.135   6.611  11.899  0.0571  1.0739  0.3682
  289MOL0     H38119  -2.973   6.579  11.850 -2.2505 -1.1532 -1.2105
  289MOL0     H38120  -3.119   6.836  11.810  0.6151  0.1346  0.1898
  289MOL0     H38121  -2.958   6.817  11.743  0.3736 -0.4522 -0.7312
  289MOL0     H38122  -3.030   6.667  11.571 -0.8732 -0.8443  0.8869
  289MOL0     H38123  -3.138   6.796  11.572  0.0174 -1.7312 -3.3560
  289MOL0     H38124  -3.205   6.527  11.702 -2.5721  0.8061  2.7097
  289MOL0     H38125  -3.283   6.595  11.560  0.4722  2.4962 -0.6267
  289MOL0     H38126  -3.324   6.693  11.829 -2.0334 -0.4853 -0.7797
  289MOL0     H38127  -3.335   6.802  11.684  0.3791 -0.8711  0.2143
  289MOL0     H38128  -3.467   6.549  11.716  1.1708 -0.7774 -3.2803
  289MOL0     H38129  -3.528   6.673  11.603  1.4135 -1.5607  0.0453
  289MOL0     H38130  -2.621   6.815  12.169  0.2233 -2.5075 -1.3960
  289MOL0     H38131  -2.373   6.852  12.151  2.2751  0.1659 -1.1247
  289MOL0     H38132  -1.966   7.107  11.853 -0.0142 -0.3497 -0.5950
  289MOL0     H38133  -1.722   7.044  11.775  0.7138 -1.6844 -0.8265
  289MOL0     H38134  -0.105   6.745  11.033  1.3088  1.4823 -2.7018
  289MOL0     H38135   0.080   6.753  10.942 -1.0157  1.6366 -1.8937
  289MOL0     H38136   0.315   6.560  10.551  0.0017  0.6421 -1.3311
  289MOL0     H38137   0.479   6.620  10.384 -0.3102 -0.9909  1.0173
  289MOL0     H38138   0.830   6.878  10.503  0.0766 -0.0967  0.5432
  289MOL0     H38139   0.725   6.994  10.440 -0.2542 -0.7320 -0.4356
  289MOL0     H38140   0.934   6.993  10.293 -0.2040  0.3511  0.9714
  289MOL0     H38141   0.935   6.817  10.285 -0.3829 -1.0031 -2.3579
  289MOL0     H38142   0.691   6.966  10.179 -0.3062 -0.5524  0.1363
  289MOL0     H38143   0.757   6.810  10.127  1.4614 -1.4249  0.2870
  289MOL0     H38144   0.782   6.997   9.949  3.9465  2.5119 -3.2580
  289MOL0     H38145   0.879   7.088  10.065 -0.2257 -0.4177 -0.2462
  289MOL0     H38146   1.133   6.774   9.915  0.0212 -0.4503  1.0729
  289MOL0     H38147   0.656   6.899  10.644  1.7957 -2.1597  0.8202
  289MOL0     H38148   0.485   6.820  10.828  1.1927  2.1710 -0.2555
  290MOL0     O38149   9.830  10.206   0.532 -0.3527 -0.2059 -0.0955
  290MOL0     C38150   9.820  10.136   0.628 -0.3171 -0.4993  0.3117
  290MOL0     O38151   9.907  10.128   0.735  0.6229 -0.4711 -0.1929
  290MOL0     C38152  10.032  10.169   0.732 -0.2255  0.8375 -0.2222
  290MOL0     C38153  10.135  10.091   0.680 -0.5212  0.4843  0.4789
  290MOL0     C38154  10.263  10.147   0.658  1.1260  1.1340 -0.5383
  290MOL0     C38155  10.284  10.283   0.695 -0.3643 -0.2858  0.1072
  290MOL0     O38156  10.405  10.356   0.695  0.4313  0.3633 -0.0530
  290MOL0     C38157  10.519  10.287   0.643  0.1809 -0.1692 -0.0733
  290MOL0     C38158  10.641  10.370   0.636 -0.0204 -0.5261 -0.1640
  290MOL0     C38159  10.769  10.288   0.666 -0.2216  0.5443  0.4729
  290MOL0     C38160  10.790  10.170   0.568  0.2358  0.0048 -0.1697
  290MOL0     C38161  10.931  10.113   0.563  0.1588 -0.3249  0.1841
  290MOL0     C38162  10.981  10.042   0.698 -0.0937 -0.5789 -0.2886
  290MOL0     C38163  10.913   9.911   0.729 -0.9112  0.4115  0.2272
  290MOL0     C38164  10.956   9.852   0.856  0.5678 -0.4734 -0.4165
  290MOL0     N38165  10.847   9.789   0.938 -0.6862 -0.5821  0.6214
  290MOL0     C38166  10.757   9.706   0.877  0.3440 -0.6322 -0.1448
  290MOL0     C38167  10.666   9.685   0.972  0.0727 -0.1251 -0.0010
  290MOL0     C38168  10.526   9.620   0.958  0.1819 -0.3882 -1.1790
  290MOL0     C38169  10.536   9.489   1.040 -0.6391  0.2389 -0.3216
  290MOL0     C38170  10.418   9.399   1.013 -0.3621  0.2309 -0.3177
  290MOL0     C38171  10.284   9.467   1.055  0.7389 -0.2972  1.3158
  290MOL0     O38172  10.264   9.438   1.193 -0.3149 -0.1004  0.1840
  290MOL0     C38173  10.157   9.366   1.232  0.8657  0.3928 -0.2118
  290MOL0     C38174  10.166   9.268   1.334  0.5025 -0.4984  1.5538
  290MOL0     C38175  10.052   9.206   1.388  0.1956  0.3506 -0.0890
  290MOL0     C38176   9.920   9.239   1.341 -0.1106  0.3371 -0.3371
  290MOL0     C38177   9.809   9.179   1.403 -0.3785  1.2850 -0.5771
  290MOL0     O38178   9.824   9.071   1.482  0.2244  0.1864 -0.0725
  290MOL0     C38179   9.711   8.994   1.521  0.1756 -0.7334 -0.0363
  290MOL0     C38180   9.597   9.048   1.587  0.0795  0.6768 -0.4182
  290MOL0     C38181   9.494   8.955   1.624  0.1316 -0.2074  0.2932
  290MOL0     C38182   9.499   8.817   1.591 -0.0404  0.7870  0.6849
  290MOL0     O38183   9.395   8.726   1.602 -0.1756 -0.3424 -0.1792
  290MOL0     C38184   9.311   8.765   1.713 -0.3310 -0.0150  0.1607
  290MOL0     C38185   9.205   8.662   1.738  0.8073  0.3430 -0.2697
  290MOL0     C38186   9.108   8.646   1.617 -0.1436 -0.4647  0.2929
  290MOL0     C38187   8.987   8.564   1.646 -1.2099  0.0541 -0.6279
  290MOL0     C38188   8.865   8.607   1.575  0.0591 -0.5057  0.7267
  290MOL0     C38189   8.739   8.527   1.602 -0.3734  0.0405  0.2084
  290MOL0     C38190   8.733   8.404   1.516 -0.0993  0.5634  0.4619
  290MOL0     C38191   8.620   8.298   1.552  0.1247 -0.3111 -0.4448
  290MOL0    Cl38192   8.458   8.367   1.523 -0.3614  0.3964 -0.3588
  290MOL0     C38193   9.613   8.767   1.533 -0.7874 -1.3731  0.2004
  290MOL0     C38194   9.723   8.853   1.497 -0.4790  0.4330  0.2034
  290MOL0     O38195   9.701   9.230   1.372 -0.1629  0.3424 -0.0426
  290MOL0     C38196   9.910   9.326   1.236 -1.1436 -0.8861  0.2451
  290MOL0     C38197  10.022   9.396   1.185 -0.0462  0.3108 -0.4360
  290MOL0     N38198  10.709   9.749   1.087 -0.0621 -0.3952 -0.1303
  290MOL0     N38199  10.820   9.804   1.067  0.1093  0.4514  1.5789
  290MOL0     C38200  10.186  10.365   0.742  0.3275  0.3840  0.0365
  290MOL0     C38201  10.060  10.306   0.751 -0.0111  0.5598  0.1616
  290MOL0     C38202   9.705  10.042   0.637 -0.5378 -0.0172  0.3023
  290MOL0     C38203   9.612  10.041   0.528  0.1202 -0.1717 -0.1158
  290MOL0     C38204   9.495   9.974   0.545  0.5747 -0.5589  0.9846
  290MOL0     C38205   9.464   9.894   0.657 -0.6283 -0.8075  0.4967
  290MOL0     O38206   9.351   9.814   0.660  1.0553  0.5651 -0.9585
  290MOL0     C38207   9.233   9.850   0.580  0.3950 -0.2843  0.7062
  290MOL0     C38208   9.102   9.774   0.625  0.3363  0.2279  0.1576
  290MOL0     C38209   8.987   9.792   0.520 -0.5000  0.4509 -0.6333
  290MOL0     C38210   8.895   9.668   0.532  0.1105 -0.2155 -1.4402
  290MOL0     C38211   8.781   9.667   0.438  0.3095  0.0365  0.1467
  290MOL0     C38212   8.691   9.685   0.353 -0.1189  0.0253 -0.8609
  290MOL0     C38213   9.542   9.910   0.769 -0.0703  0.5144  1.1270
  290MOL0     C38214   9.668   9.979   0.760 -0.0106  0.0930  0.7360
  290MOL0     H38215  10.112   9.989   0.650  2.3210  0.2177 -1.1463
  290MOL0     H38216  10.347  10.093   0.615 -1.0763 -0.5460 -3.0937
  290MOL0     H38217  10.495  10.257   0.540 -2.7777  0.7168  0.2717
  290MOL0     H38218  10.541  10.199   0.704  3.7432 -0.1275 -1.0974
  290MOL0     H38219  10.635  10.442   0.718  1.2489 -0.2633 -0.2708
  290MOL0     H38220  10.659  10.417   0.539  1.1120  1.0310  0.7311
  290MOL0     H38221  10.778  10.257   0.770 -0.1881 -1.0739  0.0059
  290MOL0     H38222  10.847  10.365   0.665  1.1055 -0.6856  2.3925
  290MOL0     H38223  10.720  10.089   0.588  0.7336 -0.9453 -2.0078
  290MOL0     H38224  10.763  10.204   0.467 -1.7118 -3.2660 -0.9018
  290MOL0     H38225  10.996  10.195   0.529 -0.8038  1.2688  2.0440
  290MOL0     H38226  10.943  10.033   0.489 -1.5083  0.0295 -0.5111
  290MOL0     H38227  10.963  10.106   0.785 -0.5166 -1.5204  0.3299
  290MOL0     H38228  11.090  10.035   0.689 -0.1929 -1.7023 -0.7690
  290MOL0     H38229  10.807   9.939   0.730 -0.3144  2.8354  1.4741
  290MOL0     H38230  10.946   9.836   0.656 -4.8912 -1.2578 -0.1436
  290MOL0     H38231  11.005   9.931   0.914 -1.1591  2.1483 -2.3358
  290MOL0     H38232  11.039   9.781   0.841  2.4642  1.4206  0.5356
  290MOL0     H38233  10.749   9.666   0.776 -0.8313  1.7753 -1.0705
  290MOL0     H38234  10.521   9.589   0.853 -1.1918 -3.4536 -0.3501
  290MOL0     H38235  10.449   9.689   0.994  3.5195  2.1251  1.7645
  290MOL0     H38236  10.531   9.507   1.147 -0.7574 -2.4011  0.1869
  290MOL0     H38237  10.632   9.444   1.013 -0.4280  0.6947 -0.3465
  290MOL0     H38238  10.414   9.377   0.906 -1.2442 -2.7322  0.2338
  290MOL0     H38239  10.443   9.304   1.061 -0.3179  0.4256  0.0446
  290MOL0     H38240  10.198   9.437   0.995 -0.6131  0.2665  2.9021
  290MOL0     H38241  10.282   9.575   1.042  1.1658 -0.4210  0.1487
  290MOL0     H38242  10.269   9.252   1.365  1.1790  1.6902  0.6283
  290MOL0     H38243  10.056   9.143   1.476 -1.2610  1.0909  0.5300
  290MOL0     H38244   9.574   9.153   1.599  1.4377  0.8104  1.4669
  290MOL0     H38245   9.404   8.994   1.670 -1.6356 -4.9467  1.3933
  290MOL0     H38246   9.255   8.856   1.688  0.9558  1.2609  1.7010
  290MOL0     H38247   9.366   8.781   1.806 -0.6599 -1.8745  0.7099
  290MOL0     H38248   9.146   8.700   1.822  1.3162  0.1564  0.1783
  290MOL0     H38249   9.249   8.566   1.769 -0.1580 -0.7513 -2.1127
  290MOL0     H38250   9.153   8.603   1.527  1.7467 -2.2964  2.0018
  290MOL0     H38251   9.065   8.745   1.597 -2.2253 -1.4983 -0.7189
  290MOL0     H38252   9.016   8.466   1.607  0.5685  0.7265 -1.0649
  290MOL0     H38253   8.963   8.558   1.753  0.1160  0.6722 -0.2769
  290MOL0     H38254   8.880   8.606   1.466 -1.4565  0.6673  0.4673
  290MOL0     H38255   8.844   8.710   1.605 -2.0511 -0.7816  0.3735
  290MOL0     H38256   8.647   8.586   1.600 -0.3007  0.5648  4.1346
  290MOL0     H38257   8.753   8.494   1.705 -0.2471 -2.0783 -0.4383
  290MOL0     H38258   8.704   8.422   1.412 -1.7190 -0.5147  0.6742
  290MOL0     H38259   8.828   8.349   1.515 -0.2786  0.0948 -3.0407
  290MOL0     H38260   8.627   8.270   1.657 -0.0174  1.4001  0.0496
  290MOL0     H38261   8.635   8.208   1.492  2.1014  1.4858 -2.8429
  290MOL0     H38262   9.616   8.660   1.514  2.4339 -1.3679  0.0922
  290MOL0     H38263   9.813   8.812   1.451 -0.0735  4.0979 -2.7309
  290MOL0     H38264   9.821   9.364   1.188 -0.6307  2.8309  1.8481
  290MOL0     H38265  10.009   9.482   1.119 -0.0884  0.2376 -0.5222
  290MOL0     H38266  10.198  10.470   0.766 -1.4154  0.4956  0.5431
  290MOL0     H38267   9.976  10.361   0.793  0.3067  1.1357  0.0456
  290MOL0     H38268   9.633  10.095   0.436  0.4845 -1.0241 -0.5526
  290MOL0     H38269   9.427   9.979   0.461  1.5797  2.2141  0.2166
  290MOL0     H38270   9.255   9.817   0.479  1.0475 -0.4908  0.9121
  290MOL0     H38271   9.207   9.956   0.576 -2.0827 -0.8712 -1.6512
  290MOL0     H38272   9.111   9.669   0.653  0.7385  0.2997  0.3189
  290MOL0     H38273   9.073   9.810   0.724  1.3588 -4.2655  2.3710
  290MOL0     H38274   9.022   9.790   0.416 -0.3685 -1.0358 -0.5739
  290MOL0     H38275   8.926   9.879   0.546 -0.0979  0.2547  1.1023
  290MOL0     H38276   8.959   9.581   0.512  0.1777 -0.6709  0.5416
  290MOL0     H38277   8.856   9.661   0.634  2.5862  0.5339 -0.3594
  290MOL0     H38278   8.614   9.719   0.286  0.2445  0.3189 -1.1384
  290MOL0     H38279   9.503   9.860   0.857 -1.8215 -0.4479 -0.1401
  290MOL0     H38280   9.726   9.994   0.850  0.6194 -0.0866  0.3611
  291MOL0     O38281   7.843   2.603   4.727 -0.2211 -0.1372  0.7597
  291MOL0     C38282   7.929   2.521   4.685  0.2648  0.2398 -0.0715
  291MOL0     O38283   7.900   2.400   4.624 -0.4942  0.0693 -0.6454
  291MOL0     C38284   7.769   2.370   4.608 -0.6086 -1.0372 -0.3100
  291MOL0     C38285   7.716   2.300   4.712  0.7272 -0.5360  0.0187
  291MOL0     C38286   7.576   2.275   4.721 -0.0766  0.2151 -0.1316
  291MOL0     C38287   7.493   2.310   4.615 -0.6798 -1.1029 -0.1701
  291MOL0     O38288   7.361   2.288   4.607  0.6019  0.0899  0.8894
  291MOL0     C38289   7.300   2.199   4.701  0.0738  1.6447  0.0858
  291MOL0     C38290   7.167   2.153   4.640 -0.3273  0.1086  0.1812
  291MOL0     C38291   7.071   2.101   4.750  0.0377  0.3301  0.1223
  291MOL0     C38292   6.975   1.997   4.691 -0.1773 -0.2410 -0.9450
  291MOL0     C38293   6.826   2.052   4.688 -0.3029 -0.7888  0.2163
  291MOL0     C38294   6.819   2.171   4.591  0.3973  0.2459  0.6892
  291MOL0     C38295   6.680   2.228   4.580 -0.1222 -0.5541 -0.3941
  291MOL0     C38296   6.584   2.124   4.530  0.5598 -0.2175  0.6490
  291MOL0     N38297   6.452   2.170   4.495 -0.5029 -0.8575  0.5994
  291MOL0     C38298   6.427   2.249   4.382  0.0250  0.2490 -0.4987
  291MOL0     C38299   6.292   2.261   4.384 -0.2578 -0.3959 -0.0113
  291MOL0     C38300   6.216   2.339   4.286  0.1936 -0.4031 -0.5515
  291MOL0     C38301   6.200   2.480   4.350  0.6297 -0.9364 -0.8847
  291MOL0     C38302   6.251   2.590   4.252  0.4515  1.2861 -0.1567
  291MOL0     C38303   6.401   2.601   4.275  0.4237 -0.0575 -0.5382
  291MOL0     O38304   6.444   2.711   4.349  0.0640  0.8735  0.0191
  291MOL0     C38305   6.572   2.703   4.390  0.1977 -0.3117  1.0367
  291MOL0     C38306   6.619   2.827   4.441 -1.0499 -0.8394 -1.0383
  291MOL0     C38307   6.751   2.853   4.479 -0.4211 -1.3482  0.2976
  291MOL0     C38308   6.855   2.756   4.452  0.7398  0.4357 -0.7925
  291MOL0     C38309   6.990   2.774   4.488  0.9797  1.0468  0.7937
  291MOL0     O38310   7.071   2.665   4.462 -0.6426  0.9969  0.3976
  291MOL0     C38311   7.204   2.680   4.446  0.6877  0.5049 -0.0130
  291MOL0     C38312   7.285   2.710   4.560 -0.0072  0.0731 -0.0870
  291MOL0     C38313   7.423   2.730   4.550  0.1985 -0.8986  0.1512
  291MOL0     C38314   7.485   2.699   4.424 -0.1169 -0.8340  0.3313
  291MOL0     O38315   7.618   2.706   4.411 -0.0662  0.4369 -0.0936
  291MOL0     C38316   7.699   2.805   4.477  0.1457 -0.4140 -0.3329
  291MOL0     C38317   7.786   2.873   4.377  0.2011  0.4767  0.4263
  291MOL0     C38318   7.849   2.772   4.277 -0.1561  0.2951 -0.2774
  291MOL0     C38319   7.771   2.785   4.145  0.3902  0.2940 -0.5240
  291MOL0     C38320   7.805   2.667   4.048 -0.1410  0.3828  0.2900
  291MOL0     C38321   7.940   2.698   3.975  0.3218 -0.2071 -0.2062
  291MOL0     C38322   7.983   2.581   3.888  0.1132  0.6456 -0.8494
  291MOL0     C38323   8.083   2.615   3.773  0.1284  0.1386 -0.3978
  291MOL0    Cl38324   8.109   2.460   3.681 -0.1800 -0.6915 -0.1221
  291MOL0     C38325   7.407   2.665   4.309 -0.1039 -0.3180 -0.6546
  291MOL0     C38326   7.266   2.650   4.324  0.7856 -0.0220  0.5161
  291MOL0     O38327   7.028   2.885   4.522 -0.3789  0.7937  0.4045
  291MOL0     C38328   6.802   2.636   4.396 -0.0632 -0.4375  0.7540
  291MOL0     C38329   6.672   2.612   4.364  0.7445 -0.0983  0.2007
  291MOL0     N38330   6.235   2.181   4.483  0.6957  0.4305 -0.0761
  291MOL0     N38331   6.335   2.144   4.551  0.3047  0.2031  0.5279
  291MOL0     C38332   7.556   2.372   4.500  0.4079  0.5049 -0.0702
  291MOL0     C38333   7.693   2.411   4.494 -0.2569 -0.6974  0.7012
  291MOL0     C38334   8.067   2.568   4.684  0.3691 -0.2958  0.2255
  291MOL0     C38335   8.113   2.673   4.769 -0.5852  0.3609  0.0289
  291MOL0     C38336   8.251   2.702   4.773  0.1800  0.3284 -0.0368
  291MOL0     C38337   8.340   2.634   4.689 -0.5017  1.2748 -0.1811
  291MOL0     O38338   8.471   2.663   4.685  0.1995 -0.2513 -0.1755
  291MOL0     C38339   8.536   2.689   4.808 -0.7776 -0.3095 -0.8305
  291MOL0     C38340   8.689   2.671   4.780  0.6782  0.5396 -0.6057
  291MOL0     C38341   8.779   2.673   4.898 -0.4042  0.5856 -0.5937
  291MOL0     C38342   8.807   2.539   4.948 -0.0770  0.6799 -0.3563
  291MOL0     C38343   8.907   2.542   5.052 -0.2799  0.3807  0.3756
  291MOL0     C38344   8.995   2.540   5.141  0.1671 -0.3875  1.3196
  291MOL0     C38345   8.290   2.543   4.593  0.9795 -0.4087  0.5882
  291MOL0     C38346   8.153   2.503   4.595  0.2865  0.6963 -0.9731
  291MOL0     H38347   7.773   2.265   4.797 -0.7976 -1.4464  0.7138
  291MOL0     H38348   7.536   2.227   4.809  0.5765  0.3996  0.2740
  291MOL0     H38349   7.281   2.251   4.795 -2.2350  0.3688  0.3983
  291MOL0     H38350   7.360   2.110   4.719 -3.8548 -1.2750  0.1849
  291MOL0     H38351   7.190   2.074   4.567 -1.3012  0.6823 -0.7740
  291MOL0     H38352   7.122   2.239   4.590 -0.1873  0.3416  0.4528
  291MOL0     H38353   7.031   2.189   4.800  0.9751  0.5759  0.4717
  291MOL0     H38354   7.138   2.039   4.811 -0.5894 -0.0408  0.4482
  291MOL0     H38355   7.012   1.957   4.597 -0.0427  1.6066 -1.7326
  291MOL0     H38356   6.965   1.908   4.753 -2.2554 -0.4833 -1.5468
  291MOL0     H38357   6.801   2.082   4.790  2.6782  0.0982  0.8047
  291MOL0     H38358   6.764   1.968   4.655  2.2939 -2.4125 -0.8248
  291MOL0     H38359   6.855   2.152   4.490 -0.1166  2.6189  0.0119
  291MOL0     H38360   6.876   2.254   4.633 -0.7453  2.4303 -1.8004
  291MOL0     H38361   6.638   2.271   4.672 -3.3664 -1.3248 -1.3818
  291MOL0     H38362   6.677   2.315   4.513  0.8504 -0.3079 -0.1455
  291MOL0     H38363   6.570   2.047   4.607 -1.2590  0.6976  1.2796
  291MOL0     H38364   6.635   2.078   4.445 -1.5486 -0.1865 -0.6888
  291MOL0     H38365   6.502   2.297   4.319  1.8628  3.9352  3.8656
  291MOL0     H38366   6.114   2.303   4.266 -1.6583  2.0550  3.2267
  291MOL0     H38367   6.275   2.354   4.195 -0.0122  1.3410 -0.4469
  291MOL0     H38368   6.259   2.500   4.441 -2.5003 -0.4492  1.2160
  291MOL0     H38369   6.100   2.507   4.387  1.3033 -0.5898  0.7787
  291MOL0     H38370   6.234   2.551   4.151 -0.5103  1.2997 -0.0154
  291MOL0     H38371   6.201   2.687   4.250  2.1215  2.1785 -2.4692
  291MOL0     H38372   6.459   2.601   4.182  2.0738 -2.1133  0.4069
  291MOL0     H38373   6.433   2.510   4.327 -0.8423 -0.8547 -1.0989
  291MOL0     H38374   6.541   2.898   4.464  0.4578  2.1087 -4.0546
  291MOL0     H38375   6.768   2.953   4.518 -2.0250 -2.2335  3.6314
  291MOL0     H38376   7.228   2.737   4.649 -1.3073 -1.6098 -0.3574
  291MOL0     H38377   7.486   2.756   4.634  0.3682 -0.6578 -0.0468
  291MOL0     H38378   7.765   2.751   4.545  0.5689  2.2941  1.5476
  291MOL0     H38379   7.641   2.881   4.530 -0.1054 -1.1502  0.4767
  291MOL0     H38380   7.867   2.929   4.425  0.4790 -0.9658  1.7423
  291MOL0     H38381   7.740   2.956   4.323  1.6616 -0.0008 -1.6765
  291MOL0     H38382   7.851   2.670   4.318 -0.1533 -1.1420 -3.5779
  291MOL0     H38383   7.951   2.805   4.258  0.9186 -2.7749 -0.3323
  291MOL0     H38384   7.665   2.776   4.172  0.2209  2.4232 -0.3750
  291MOL0     H38385   7.783   2.881   4.095  1.3299  0.1169 -0.6606
  291MOL0     H38386   7.729   2.658   3.971 -1.3165  0.4726  1.4067
  291MOL0     H38387   7.803   2.568   4.094 -0.7209  0.1753 -0.1829
  291MOL0     H38388   8.024   2.713   4.043  0.2917 -0.2087 -0.1680
  291MOL0     H38389   7.917   2.779   3.905  2.0870  1.5986  1.1631
  291MOL0     H38390   8.022   2.497   3.947 -2.2000  1.0688  1.4763
  291MOL0     H38391   7.893   2.547   3.835  0.7517 -0.9699 -0.9702
  291MOL0     H38392   8.182   2.651   3.804 -0.8346  3.9962 -1.2839
  291MOL0     H38393   8.045   2.700   3.716 -1.0454 -0.3580 -0.3840
  291MOL0     H38394   7.447   2.650   4.209  0.1809  3.6780 -1.3295
  291MOL0     H38395   7.197   2.620   4.245 -0.1603  0.0676  1.2911
  291MOL0     H38396   6.876   2.560   4.377 -2.6104 -2.8713 -0.1006
  291MOL0     H38397   6.652   2.528   4.298 -2.9441  0.2653  0.6494
  291MOL0     H38398   7.489   2.375   4.416  0.3693 -1.0009 -0.1310
  291MOL0     H38399   7.744   2.467   4.417  0.1382 -3.4954 -1.2321
  291MOL0     H38400   8.056   2.719   4.849 -0.0282 -1.1297  1.3518
  291MOL0     H38401   8.283   2.772   4.849  0.1830 -0.7654  1.0041
  291MOL0     H38402   8.501   2.615   4.879 -2.5221  0.8996 -0.3638
  291MOL0     H38403   8.502   2.782   4.855  0.7364 -1.5960  3.2161
  291MOL0     H38404   8.702   2.576   4.728 -2.1098  0.6359 -1.5964
  291MOL0     H38405   8.724   2.749   4.711  2.9350  0.2121  0.0799
  291MOL0     H38406   8.744   2.737   4.979  3.2462  0.5937  1.1757
  291MOL0     H38407   8.872   2.717   4.862  0.0781 -1.2162 -1.6495
  291MOL0     H38408   8.709   2.511   4.988 -0.4869  2.7083  0.1712
  291MOL0     H38409   8.840   2.460   4.880 -1.6883 -0.2998 -0.0516
  291MOL0     H38410   9.070   2.532   5.216  2.7016  0.7558 -0.9177
  291MOL0     H38411   8.353   2.488   4.524 -0.6392  1.2345 -2.4106
  291MOL0     H38412   8.120   2.422   4.530 -0.4811  0.2467 -0.0586
  292MOL0     O38413   8.828   2.414   9.395 -0.2334  0.0157 -0.4223
  292MOL0     C38414   8.898   2.454   9.299  0.4545  0.1910 -0.1882
  292MOL0     O38415   8.856   2.496   9.178  0.0267  0.0797  0.1297
  292MOL0     C38416   8.718   2.479   9.144 -0.4570 -0.3074 -0.2403
  292MOL0     C38417   8.650   2.362   9.134 -0.1712 -0.4817  0.0338
  292MOL0     C38418   8.514   2.356   9.097 -0.7101  0.1127 -0.3094
  292MOL0     C38419   8.449   2.480   9.075  1.0454 -0.8958 -0.3231
  292MOL0     O38420   8.319   2.470   9.038 -0.9718 -0.4422  0.7984
  292MOL0     C38421   8.223   2.570   9.082 -0.0893 -0.9344  0.5125
  292MOL0     C38422   8.203   2.680   8.973  0.5484 -0.3600  0.8662
  292MOL0     C38423   8.067   2.647   8.900 -0.0074 -0.4258 -0.5338
  292MOL0     C38424   8.012   2.760   8.809 -0.3648  0.2565 -0.0582
  292MOL0     C38425   7.866   2.754   8.754 -0.4535  1.0034 -0.0957
  292MOL0     C38426   7.765   2.740   8.871 -0.3022 -0.4948  0.2572
  292MOL0     C38427   7.746   2.860   8.957 -0.3764  0.2290  0.3270
  292MOL0     C38428   7.641   2.827   9.063  0.8219 -0.3506 -0.6401
  292MOL0     N38429   7.605   2.952   9.146  0.5266 -0.4530  0.1460
  292MOL0     C38430   7.479   2.990   9.198 -0.4291 -0.1029 -0.3484
  292MOL0     C38431   7.521   3.094   9.270  0.5984 -0.7624 -0.7607
  292MOL0     C38432   7.416   3.166   9.363 -0.0131  0.3097  0.0632
  292MOL0     C38433   7.459   3.151   9.510 -0.6041 -0.6212 -0.4167
  292MOL0     C38434   7.472   3.003   9.561  0.1531 -0.5219 -0.1784
  292MOL0     C38435   7.480   2.987   9.710  0.1352 -0.5192 -0.1134
  292MOL0     O38436   7.368   3.047   9.777  0.3223 -0.1434 -0.4532
  292MOL0     C38437   7.248   2.978   9.762 -1.1693  0.2287 -0.0123
  292MOL0     C38438   7.143   3.041   9.706 -0.7993 -0.1624 -0.2406
  292MOL0     C38439   7.029   2.972   9.688  0.2884 -0.5013  0.1134
  292MOL0     C38440   7.013   2.838   9.736  0.8934  1.9589  0.5731
  292MOL0     C38441   6.896   2.761   9.705  0.5633 -0.2976  0.2519
  292MOL0     O38442   6.905   2.627   9.709 -0.1424 -0.0797 -0.1335
  292MOL0     C38443   6.795   2.554   9.663 -0.7530 -0.0149  0.4259
  292MOL0     C38444   6.655   2.581   9.683  0.2021 -0.9377 -0.0776
  292MOL0     C38445   6.551   2.516   9.621  0.8112 -0.2066  0.8644
  292MOL0     C38446   6.583   2.414   9.541 -0.1453 -1.2765  0.6707
  292MOL0     O38447   6.475   2.338   9.499 -0.2751 -0.2015  0.0098
  292MOL0     C38448   6.498   2.232   9.418 -0.2488 -0.6830 -0.2615
  292MOL0     C38449   6.374   2.151   9.393 -0.8423 -0.1540  0.7619
  292MOL0     C38450   6.277   2.217   9.285 -0.3288  0.3626 -0.1358
  292MOL0     C38451   6.337   2.190   9.144 -0.3686  0.4398 -0.2365
  292MOL0     C38452   6.238   2.216   9.029 -0.1318  0.0722  0.2387
  292MOL0     C38453   6.119   2.123   9.036  0.0623 -0.7881 -0.0160
  292MOL0     C38454   6.147   1.976   9.060 -0.6747 -1.1009 -0.0539
  292MOL0     C38455   6.017   1.896   9.069 -0.2160 -0.5297 -0.2581
  292MOL0    Cl38456   6.047   1.727   9.120  0.0776 -0.4971 -0.4351
  292MOL0     C38457   6.715   2.386   9.519 -0.4865  1.0541  0.5086
  292MOL0     C38458   6.824   2.453   9.576 -0.1193 -0.2560  0.3371
  292MOL0     O38459   6.791   2.826   9.671  0.7135 -0.0874 -0.0967
  292MOL0     C38460   7.122   2.778   9.800  0.4988 -1.5174  0.2545
  292MOL0     C38461   7.245   2.847   9.815 -0.2274 -0.0649 -0.3142
  292MOL0     N38462   7.645   3.135   9.254  0.0458  0.3768 -0.3351
  292MOL0     N38463   7.701   3.045   9.178  0.6734  0.8423  0.2551
  292MOL0     C38464   8.513   2.598   9.076 -0.0826 -0.4584 -0.3203
  292MOL0     C38465   8.652   2.600   9.114  0.1212 -0.6944 -0.1146
  292MOL0     C38466   9.044   2.471   9.324 -1.0028 -0.9311  0.4952
  292MOL0     C38467   9.101   2.436   9.451  0.8459 -0.2369  0.5087
  292MOL0     C38468   9.239   2.444   9.476 -0.4283 -0.1031  1.0275
  292MOL0     C38469   9.321   2.500   9.376 -0.5765  0.9563  0.0967
  292MOL0     O38470   9.460   2.535   9.398  0.8504  0.1327 -0.2892
  292MOL0     C38471   9.503   2.563   9.536  0.2396  0.4529 -0.6267
  292MOL0     C38472   9.644   2.617   9.530  0.3251  0.2880 -0.2676
  292MOL0     C38473   9.738   2.527   9.455 -0.0793  0.8842  0.5393
  292MOL0     C38474   9.881   2.595   9.448 -0.0825  0.0373  1.3919
  292MOL0     C38475   9.973   2.520   9.534  0.0405 -1.0988  0.0376
  292MOL0     C38476  10.055   2.454   9.583 -0.7208  0.9642  0.0793
  292MOL0     C38477   9.273   2.536   9.251  0.0785 -0.1453 -0.2949
  292MOL0     C38478   9.136   2.524   9.225 -1.3564  1.0582 -0.4470
  292MOL0     H38479   8.705   2.270   9.149  0.3508 -0.2862 -0.6198
  292MOL0     H38480   8.460   2.262   9.089 -3.9447  1.7432  0.7821
  292MOL0     H38481   8.268   2.621   9.168 -0.6667 -1.7748  1.3378
  292MOL0     H38482   8.127   2.525   9.109 -2.3929  3.1742  0.0040
  292MOL0     H38483   8.291   2.675   8.907  1.3008  0.3069  1.7876
  292MOL0     H38484   8.199   2.781   9.013 -0.2546 -0.6727  1.6091
  292MOL0     H38485   7.998   2.618   8.980 -0.0882 -0.2065 -0.5245
  292MOL0     H38486   8.077   2.553   8.844 -1.4221 -0.1476 -1.3163
  292MOL0     H38487   8.026   2.858   8.855  1.9393 -0.2843  0.5003
  292MOL0     H38488   8.073   2.758   8.718 -0.1138 -4.1637  0.0000
  292MOL0     H38489   7.855   2.660   8.699 -1.5413  2.3006 -2.2179
  292MOL0     H38490   7.844   2.832   8.680  1.2782  1.0953 -0.5627
  292MOL0     H38491   7.779   2.658   8.942 -0.2307  0.7558  1.7640
  292MOL0     H38492   7.672   2.743   8.814  2.2566  1.0884 -4.3087
  292MOL0     H38493   7.843   2.889   8.998  2.7837 -2.6939 -4.1194
  292MOL0     H38494   7.703   2.936   8.892  0.0808  1.2986  1.2496
  292MOL0     H38495   7.662   2.750   9.138  1.1100  1.3520  1.1215
  292MOL0     H38496   7.548   2.793   9.017 -0.2639 -1.7150  2.2783
  292MOL0     H38497   7.387   2.934   9.184  0.1652 -1.0500 -0.5964
  292MOL0     H38498   7.311   3.136   9.349  0.2926 -0.5466 -0.4416
  292MOL0     H38499   7.412   3.270   9.329 -1.9427 -0.2223 -1.5302
  292MOL0     H38500   7.392   3.210   9.574 -0.1632  1.1040 -1.4759
  292MOL0     H38501   7.560   3.188   9.530 -1.4509  1.3406  0.5021
  292MOL0     H38502   7.390   2.938   9.533  0.0024 -0.2633 -0.3411
  292MOL0     H38503   7.558   2.957   9.511 -1.5397 -0.4521 -3.4154
  292MOL0     H38504   7.574   3.034   9.741  0.7976 -1.3698 -0.7534
  292MOL0     H38505   7.501   2.882   9.733  0.1122 -0.2898  1.0313
  292MOL0     H38506   7.153   3.145   9.675 -0.1251  1.5709  4.7988
  292MOL0     H38507   6.960   3.023   9.622  2.2736 -0.1654 -1.7690
  292MOL0     H38508   6.622   2.664   9.744 -0.7505 -0.7658 -0.8006
  292MOL0     H38509   6.444   2.536   9.629  0.5970 -1.5043  1.4136
  292MOL0     H38510   6.574   2.164   9.457 -1.0029 -0.3361  1.9412
  292MOL0     H38511   6.540   2.270   9.325  0.7656  1.7254  1.0855
  292MOL0     H38512   6.326   2.111   9.482  2.0591 -7.3346 -0.2150
  292MOL0     H38513   6.402   2.059   9.340  0.9274  2.2589 -2.9983
  292MOL0     H38514   6.255   2.324   9.301  0.7291  1.0525 -2.7880
  292MOL0     H38515   6.182   2.163   9.290 -1.2950  1.7481 -2.1441
  292MOL0     H38516   6.417   2.264   9.133  0.1461 -0.1391 -0.4566
  292MOL0     H38517   6.393   2.096   9.134  1.3413  1.2759  1.0721
  292MOL0     H38518   6.291   2.203   8.934 -0.3631 -0.0937  0.1300
  292MOL0     H38519   6.204   2.320   9.033 -0.1742  0.0099  1.8134
  292MOL0     H38520   6.062   2.131   8.943  2.5017  3.7395 -1.3961
  292MOL0     H38521   6.065   2.168   9.119 -0.6491 -1.0972 -0.3090
  292MOL0     H38522   6.205   1.945   8.972 -0.8492  0.1608 -0.6373
  292MOL0     H38523   6.203   1.966   9.153  0.5378  0.5828 -0.5455
  292MOL0     H38524   5.960   1.891   8.976  2.6071 -2.4857 -2.0345
  292MOL0     H38525   5.955   1.953   9.140  1.2350  3.2578 -1.7617
  292MOL0     H38526   6.724   2.301   9.452 -1.5067  2.8163 -1.9906
  292MOL0     H38527   6.925   2.422   9.549 -0.7530 -0.7771 -1.5989
  292MOL0     H38528   7.110   2.678   9.841 -0.4301 -1.3631  0.3967
  292MOL0     H38529   7.333   2.811   9.868 -0.1211  0.8316  0.1247
  292MOL0     H38530   8.464   2.693   9.055  0.7307  0.1403  0.3970
  292MOL0     H38531   8.705   2.694   9.124  1.6678 -1.3474 -1.6661
  292MOL0     H38532   9.046   2.399   9.536 -0.0114  4.4321  2.2647
  292MOL0     H38533   9.269   2.418   9.578  1.4400 -0.7557  0.3537
  292MOL0     H38534   9.521   2.464   9.578 -1.7661 -1.2435 -3.4243
  292MOL0     H38535   9.439   2.631   9.593 -0.7889  1.3287 -2.7254
  292MOL0     H38536   9.627   2.718   9.491 -3.6083 -0.0794  0.1075
  292MOL0     H38537   9.693   2.629   9.627  0.7611  0.5230 -0.5147
  292MOL0     H38538   9.706   2.505   9.352 -2.9175 -3.0835  1.9843
  292MOL0     H38539   9.734   2.430   9.505 -1.5912  2.4287  3.6869
  292MOL0     H38540   9.917   2.579   9.347  0.8017  2.9424  1.1510
  292MOL0     H38541   9.870   2.703   9.466 -0.2754  0.2445  0.1348
  292MOL0     H38542  10.125   2.394   9.638 -2.4343 -2.2736 -1.0396
  292MOL0     H38543   9.330   2.569   9.165 -1.6293 -1.6047 -2.0613
  292MOL0     H38544   9.114   2.527   9.118  0.4591 -1.2862 -0.9759
  293MOL0     O38545   4.195   6.934   6.906  0.6864 -0.3546 -0.0147
  293MOL0     C38546   4.114   6.913   6.816  0.1051 -0.4566  0.7093
  293MOL0     O38547   4.128   6.828   6.714 -0.3068 -0.1966 -0.1726
  293MOL0     C38548   4.252   6.768   6.703 -0.3063  0.0968 -0.1011
  293MOL0     C38549   4.379   6.821   6.737  0.1798 -0.1933 -0.7822
  293MOL0     C38550   4.491   6.750   6.717 -0.2578  0.6364  0.6643
  293MOL0     C38551   4.488   6.618   6.663 -0.7101  0.1004 -0.3516
  293MOL0     O38552   4.590   6.530   6.653  0.2894  0.2753 -0.5224
  293MOL0     C38553   4.720   6.560   6.716  0.2265  0.4951 -0.4040
  293MOL0     C38554   4.823   6.480   6.633 -0.3839  0.3169  0.3446
  293MOL0     C38555   4.965   6.489   6.674  0.0774  0.0485  0.3398
  293MOL0     C38556   5.024   6.631   6.655 -0.4232  0.5770  0.3273
  293MOL0     C38557   5.178   6.638   6.696  0.3468  0.2783  0.0399
  293MOL0     C38558   5.225   6.781   6.684 -0.3700 -0.8445  0.0622
  293MOL0     C38559   5.363   6.804   6.746 -1.4634  0.3612  0.4203
  293MOL0     C38560   5.395   6.742   6.884  0.0087  0.2609 -0.1423
  293MOL0     N38561   5.313   6.802   6.993  0.6551 -0.7137  0.0820
  293MOL0     C38562   5.214   6.737   7.051  0.6833 -0.9453 -0.6965
  293MOL0     C38563   5.164   6.831   7.132 -0.6361 -0.6045 -0.7369
  293MOL0     C38564   5.044   6.804   7.229  0.6016 -1.0456  0.5032
  293MOL0     C38565   4.909   6.793   7.166 -0.0024 -0.0499 -0.8428
  293MOL0     C38566   4.807   6.810   7.284  0.2520  0.6362 -0.0013
  293MOL0     C38567   4.668   6.769   7.238 -1.3891  0.2546  1.3793
  293MOL0     O38568   4.594   6.742   7.359  0.0519 -0.0913  0.2642
  293MOL0     C38569   4.459   6.770   7.364  0.6648  0.2196  0.6476
  293MOL0     C38570   4.390   6.848   7.270 -0.0151 -0.2162  0.1938
  293MOL0     C38571   4.251   6.861   7.262  0.9615  0.4660  0.3975
  293MOL0     C38572   4.170   6.802   7.366 -1.0615 -0.9908  0.7209
  293MOL0     C38573   4.033   6.820   7.371  0.4756 -0.3743  1.0002
  293MOL0     O38574   3.963   6.781   7.481 -0.8457  0.0901  0.8049
  293MOL0     C38575   3.838   6.767   7.475  0.7005 -0.0083  0.3015
  293MOL0     C38576   3.756   6.847   7.563  0.0500  0.5802  0.0870
  293MOL0     C38577   3.615   6.851   7.550 -0.2527 -0.4077  0.1457
  293MOL0     C38578   3.553   6.767   7.450 -0.2401  1.5725  0.6404
  293MOL0     O38579   3.421   6.753   7.432  0.2885 -0.4159  0.3199
  293MOL0     C38580   3.365   6.867   7.379 -0.2278 -0.5535  0.1299
  293MOL0     C38581   3.229   6.831   7.331 -0.0190  0.4326 -0.6507
  293MOL0     C38582   3.173   6.939   7.238 -0.2160 -0.5878  0.1672
  293MOL0     C38583   3.027   6.914   7.208 -0.0286 -0.8508  0.0103
  293MOL0     C38584   2.944   7.023   7.145 -0.0638  0.3133 -0.2191
  293MOL0     C38585   2.869   7.102   7.253  0.4525  0.8454 -0.0285
  293MOL0     C38586   2.796   7.223   7.185 -0.9351 -0.1562 -0.2138
  293MOL0     C38587   2.802   7.348   7.277 -0.5369 -0.0514 -0.2587
  293MOL0    Cl38588   2.764   7.316   7.458 -0.0111  0.1476 -0.3067
  293MOL0     C38589   3.638   6.683   7.371 -0.2717 -0.2072 -0.7299
  293MOL0     C38590   3.779   6.678   7.382  0.1524 -0.8824 -0.3734
  293MOL0     O38591   3.981   6.864   7.266 -0.6280 -0.3759 -0.0255
  293MOL0     C38592   4.239   6.726   7.465 -0.4521  0.0701 -0.3780
  293MOL0     C38593   4.379   6.710   7.460  0.0176  0.1100 -0.1608
  293MOL0     N38594   5.242   6.949   7.117  0.4628 -0.7028 -0.2421
  293MOL0     N38595   5.334   6.933   7.033  0.3998  0.7596 -0.2506
  293MOL0     C38596   4.363   6.561   6.626  0.3586 -0.1395 -0.7068
  293MOL0     C38597   4.246   6.638   6.641 -0.2590 -0.1214 -0.2794
  293MOL0     C38598   3.985   6.983   6.825  0.1856 -0.7726  0.7122
  293MOL0     C38599   3.866   6.950   6.754 -1.4899 -0.6292 -1.1573
  293MOL0     C38600   3.752   7.017   6.768  0.0413  0.2140  0.2408
  293MOL0     C38601   3.743   7.123   6.856 -1.2101 -0.0633 -0.4029
  293MOL0     O38602   3.630   7.192   6.882  0.0291 -0.4214 -0.2946
  293MOL0     C38603   3.509   7.139   6.832  0.0019  0.3607  0.1065
  293MOL0     C38604   3.382   7.219   6.881  0.1763 -0.0289  0.1570
  293MOL0     C38605   3.271   7.232   6.774  0.0914  0.0791 -1.0653
  293MOL0     C38606   3.189   7.104   6.764 -0.1725 -0.4716  0.1357
  293MOL0     C38607   3.247   7.027   6.657  0.1957 -0.6056  0.3864
  293MOL0     C38608   3.295   6.958   6.568 -0.7650 -0.4232  0.3137
  293MOL0     C38609   3.863   7.164   6.933  0.9751 -0.0857  0.2650
  293MOL0     C38610   3.973   7.088   6.920 -0.2131 -1.0637 -0.3201
  293MOL0     H38611   4.398   6.925   6.764  0.2939  0.0416 -1.7312
  293MOL0     H38612   4.586   6.800   6.732 -0.6627  1.7514 -0.3563
  293MOL0     H38613   4.729   6.526   6.819  1.6295 -1.1897 -1.0253
  293MOL0     H38614   4.756   6.663   6.711  0.7510  0.2603 -2.5547
  293MOL0     H38615   4.810   6.523   6.534 -3.0379 -0.9619  0.0439
  293MOL0     H38616   4.788   6.377   6.619  0.9157  0.1061 -1.7985
  293MOL0     H38617   5.008   6.415   6.605 -2.1144 -2.0966  1.1049
  293MOL0     H38618   4.977   6.446   6.774 -1.6133 -2.1068 -0.3128
  293MOL0     H38619   5.011   6.660   6.551  0.5780 -1.6435 -0.4815
  293MOL0     H38620   4.964   6.704   6.711  0.2468  0.5576  1.0938
  293MOL0     H38621   5.230   6.558   6.642 -0.6783  1.0637 -2.2591
  293MOL0     H38622   5.177   6.610   6.802  0.2877  0.3967  0.0704
  293MOL0     H38623   5.150   6.838   6.740 -0.8877  0.4279 -1.8268
  293MOL0     H38624   5.224   6.820   6.582  0.2365  0.2414  0.4557
  293MOL0     H38625   5.442   6.765   6.680  0.3894  4.0420  0.1925
  293MOL0     H38626   5.392   6.909   6.740  1.5781 -0.4617 -1.9231
  293MOL0     H38627   5.496   6.760   6.922  0.1354  0.3140 -0.5005
  293MOL0     H38628   5.390   6.633   6.881  1.0758  0.1923  0.2790
  293MOL0     H38629   5.174   6.643   7.015 -2.4767  0.0419 -0.0187
  293MOL0     H38630   5.052   6.890   7.296  0.9132 -1.0772  0.5097
  293MOL0     H38631   5.058   6.718   7.296 -1.6367 -0.6365  1.5915
  293MOL0     H38632   4.892   6.696   7.119 -2.1303  0.4288 -1.1697
  293MOL0     H38633   4.887   6.870   7.091  2.8528 -0.6827 -2.4804
  293MOL0     H38634   4.841   6.746   7.366  2.4035  0.9342 -0.5822
  293MOL0     H38635   4.803   6.914   7.318  0.2776  0.4988  0.4191
  293MOL0     H38636   4.677   6.681   7.174 -1.3639  2.7311 -2.3464
  293MOL0     H38637   4.635   6.845   7.166  0.6040  0.4700  0.6296
  293MOL0     H38638   4.433   6.907   7.190  1.2829 -0.8419  0.4030
  293MOL0     H38639   4.202   6.920   7.184 -1.6440 -0.2032  1.4342
  293MOL0     H38640   3.809   6.904   7.637 -1.2617 -0.3393  1.8088
  293MOL0     H38641   3.554   6.910   7.618 -0.6442 -1.3813  0.6714
  293MOL0     H38642   3.423   6.901   7.292  1.3817 -0.2562  1.2801
  293MOL0     H38643   3.353   6.935   7.463  1.6812  0.8570 -0.6724
  293MOL0     H38644   3.175   6.818   7.425  0.8237  1.6778  0.0314
  293MOL0     H38645   3.230   6.742   7.268  0.9802  1.9299 -2.8976
  293MOL0     H38646   3.222   6.949   7.141 -1.3268 -0.4702 -0.3919
  293MOL0     H38647   3.204   7.030   7.290 -0.1030 -2.0351  2.8524
  293MOL0     H38648   3.013   6.837   7.132 -1.0423  1.7819 -2.6882
  293MOL0     H38649   2.976   6.873   7.296 -4.2386 -1.7923 -2.5583
  293MOL0     H38650   2.867   6.965   7.093  2.9129 -2.2657 -2.1372
  293MOL0     H38651   2.982   7.087   7.065 -2.5183  0.1170 -1.6592
  293MOL0     H38652   2.947   7.138   7.321  2.1073 -2.3357 -0.0714
  293MOL0     H38653   2.804   7.033   7.307  0.9783 -0.0499 -0.5115
  293MOL0     H38654   2.840   7.255   7.091 -2.9140 -0.5348 -1.3192
  293MOL0     H38655   2.692   7.198   7.165 -0.7562  0.8517 -2.7340
  293MOL0     H38656   2.740   7.425   7.230 -3.0636 -1.2630  0.9062
  293MOL0     H38657   2.908   7.376   7.283 -0.0505 -1.8420  0.1271
  293MOL0     H38658   3.585   6.611   7.310 -0.1350 -0.6567 -0.3239
  293MOL0     H38659   3.830   6.607   7.319  1.9253  0.6157 -0.6940
  293MOL0     H38660   4.183   6.687   7.549  1.2312 -1.9837 -0.1331
  293MOL0     H38661   4.432   6.660   7.540 -0.2307  1.4154  0.8646
  293MOL0     H38662   4.351   6.457   6.597 -1.4785 -1.2261  3.2611
  293MOL0     H38663   4.144   6.605   6.621 -1.1684  2.8786 -1.2645
  293MOL0     H38664   3.866   6.877   6.674  1.9503 -1.4274 -0.6000
  293MOL0     H38665   3.671   6.984   6.704 -0.0773  1.2519 -0.1621
  293MOL0     H38666   3.505   7.036   6.868  2.0074  0.5758  1.0663
  293MOL0     H38667   3.501   7.132   6.723  0.3284 -1.9604  0.1797
  293MOL0     H38668   3.353   7.158   6.966 -2.3312  2.0706  0.9264
  293MOL0     H38669   3.406   7.318   6.921 -3.3636  1.1647 -0.3403
  293MOL0     H38670   3.312   7.258   6.676  1.6701 -1.8616 -0.9808
  293MOL0     H38671   3.194   7.305   6.801 -1.1626 -0.5848 -2.6557
  293MOL0     H38672   3.198   7.048   6.858  0.6094 -0.3010  0.1657
  293MOL0     H38673   3.087   7.138   6.743  0.5763  1.2414 -0.8989
  293MOL0     H38674   3.335   6.900   6.488  1.7346 -0.7748  1.7314
  293MOL0     H38675   3.847   7.235   7.014 -0.2714 -0.9771  0.8439
  293MOL0     H38676   4.058   7.116   6.982 -0.5213 -1.1056  0.1266
  294MOL0     O38677   5.495   8.858   7.117 -0.3003  0.2658 -0.2066
  294MOL0     C38678   5.484   8.815   6.998  0.2867  0.7281 -0.5572
  294MOL0     O38679   5.369   8.793   6.925  0.7351  0.0231  0.6341
  294MOL0     C38680   5.251   8.803   6.994 -0.6596 -0.4983 -0.2387
  294MOL0     C38681   5.218   8.914   7.069  0.6679 -0.4347 -1.5792
  294MOL0     C38682   5.085   8.925   7.130 -0.0264  0.7114  0.2336
  294MOL0     C38683   4.990   8.827   7.118 -0.1657 -0.5022 -0.5473
  294MOL0     O38684   4.867   8.839   7.175 -0.2816 -0.3275 -0.3851
  294MOL0     C38685   4.764   8.809   7.087  0.2188 -0.0692  0.7279
  294MOL0     C38686   4.627   8.845   7.148  0.4381 -0.1521  1.1511
  294MOL0     C38687   4.518   8.746   7.096  0.5921 -0.3998  0.0954
  294MOL0     C38688   4.382   8.786   7.139  0.8397 -0.4936 -0.2508
  294MOL0     C38689   4.354   8.785   7.292  0.1393 -0.2937  0.1788
  294MOL0     C38690   4.227   8.870   7.322  0.0212 -0.6879  0.2047
  294MOL0     C38691   4.223   8.920   7.461  0.1194 -0.1356 -0.6731
  294MOL0     C38692   4.205   8.815   7.565 -0.6944  0.1227  0.4701
  294MOL0     N38693   4.064   8.767   7.572  0.2019  0.0460  0.1882
  294MOL0     C38694   3.967   8.818   7.660 -0.5191  0.1574  0.0177
  294MOL0     C38695   3.865   8.730   7.639 -0.2770  0.6298 -0.0884
  294MOL0     C38696   3.733   8.685   7.715 -0.0396 -0.3633  0.3810
  294MOL0     C38697   3.710   8.532   7.726  0.1365 -0.1429 -0.0864
  294MOL0     C38698   3.612   8.505   7.845  0.0364 -0.9010 -0.0027
  294MOL0     C38699   3.462   8.550   7.805 -1.0801  0.1920  0.0422
  294MOL0     O38700   3.402   8.558   7.930  0.2860  0.6438  0.0324
  294MOL0     C38701   3.264   8.595   7.927 -0.4573 -0.1701  0.2708
  294MOL0     C38702   3.172   8.567   7.834 -0.5315 -0.4803  2.1103
  294MOL0     C38703   3.037   8.600   7.850  0.7378  0.2119  0.2766
  294MOL0     C38704   2.997   8.636   7.981 -1.1889  0.1193 -0.7854
  294MOL0     C38705   2.853   8.648   8.025 -0.0977  0.5058  0.2568
  294MOL0     O38706   2.752   8.616   7.933 -0.8467 -0.6311  0.6961
  294MOL0     C38707   2.631   8.568   7.972 -0.0818  0.7854 -1.1965
  294MOL0     C38708   2.537   8.563   7.874  0.5916 -0.3264  0.6405
  294MOL0     C38709   2.411   8.500   7.897 -0.4152 -0.0700 -0.4386
  294MOL0     C38710   2.385   8.443   8.016 -1.0038 -0.1427 -0.5924
  294MOL0     O38711   2.266   8.368   8.022  0.1533 -0.5224  0.7152
  294MOL0     C38712   2.192   8.360   8.141  1.1645  0.5341  0.7389
  294MOL0     C38713   2.040   8.394   8.124 -0.6684 -0.4999 -0.1424
  294MOL0     C38714   1.955   8.363   8.255  0.5329 -0.2669  0.3956
  294MOL0     C38715   1.802   8.394   8.227  0.2871  0.3515 -0.2233
  294MOL0     C38716   1.710   8.380   8.356 -0.3434  0.2939  0.0633
  294MOL0     C38717   1.562   8.361   8.317 -0.1828 -0.1315 -0.1761
  294MOL0     C38718   1.484   8.371   8.452 -0.4929 -0.0094  0.3319
  294MOL0     C38719   1.456   8.516   8.510 -0.2396 -0.3927  0.6815
  294MOL0    Cl38720   1.348   8.494   8.656  0.4749 -0.0817 -0.2751
  294MOL0     C38721   2.477   8.462   8.126  0.2472  0.2713 -0.1948
  294MOL0     C38722   2.604   8.520   8.101 -0.4618 -0.2219 -0.6573
  294MOL0     O38723   2.834   8.698   8.132  0.2206  0.0786  0.2520
  294MOL0     C38724   3.095   8.686   8.070 -0.0375  0.3933  0.3834
  294MOL0     C38725   3.221   8.654   8.041 -0.6982 -0.8955  0.1521
  294MOL0     N38726   3.896   8.651   7.523  0.7266 -0.3340 -0.1743
  294MOL0     N38727   4.020   8.669   7.489  0.9539  0.7401 -0.6384
  294MOL0     C38728   5.027   8.710   7.035  0.8921 -0.4759 -0.0883
  294MOL0     C38729   5.154   8.705   6.973  0.1953  0.4127 -0.1080
  294MOL0     C38730   5.605   8.780   6.935  0.7274 -0.1847  0.6754
  294MOL0     C38731   5.717   8.761   7.015 -0.2418 -0.2760 -0.2103
  294MOL0     C38732   5.847   8.737   6.956  0.3856  0.3541  0.0710
  294MOL0     C38733   5.855   8.731   6.817 -0.6159 -0.0110 -0.1900
  294MOL0     O38734   5.984   8.709   6.768  0.2471 -0.9242 -0.6024
  294MOL0     C38735   6.011   8.730   6.627 -0.2095  0.4475 -0.5530
  294MOL0     C38736   6.161   8.729   6.613  0.0614 -0.3147  0.7632
  294MOL0     C38737   6.208   8.879   6.633  0.9333  0.1612  0.5751
  294MOL0     C38738   6.356   8.883   6.675  0.4865  0.0593 -0.0476
  294MOL0     C38739   6.373   9.030   6.700 -0.0302  0.0987  0.6865
  294MOL0     C38740   6.399   9.148   6.696 -0.1957  0.3043 -0.5052
  294MOL0     C38741   5.743   8.751   6.738 -0.3162  0.7423 -0.1084
  294MOL0     C38742   5.616   8.769   6.795 -0.2522  0.0463 -0.8149
  294MOL0     H38743   5.281   9.002   7.075  2.7024 -1.6597 -3.2972
  294MOL0     H38744   5.074   9.021   7.180  2.9039  1.0987  0.3121
  294MOL0     H38745   4.756   8.700   7.090  2.2822 -0.2734  0.2735
  294MOL0     H38746   4.780   8.853   6.988  1.0554 -1.9647 -0.0318
  294MOL0     H38747   4.602   8.948   7.124 -1.0963 -0.7046  0.2605
  294MOL0     H38748   4.631   8.858   7.256 -0.7553  1.8308  1.0049
  294MOL0     H38749   4.534   8.642   7.129  2.5273 -0.0176  0.4792
  294MOL0     H38750   4.527   8.759   6.988  2.9703  3.9983  0.6046
  294MOL0     H38751   4.369   8.891   7.110  2.2709 -0.0016  0.7730
  294MOL0     H38752   4.316   8.731   7.071  2.1439 -1.0467 -1.1309
  294MOL0     H38753   4.441   8.831   7.340  1.8779  0.6821 -3.5642
  294MOL0     H38754   4.350   8.679   7.320 -2.1102  0.0515  1.4247
  294MOL0     H38755   4.139   8.809   7.295  1.2165 -2.8907  0.9987
  294MOL0     H38756   4.216   8.958   7.259 -2.4724 -1.0474  0.0016
  294MOL0     H38757   4.319   8.970   7.482 -0.9932  1.5480  0.7081
  294MOL0     H38758   4.143   8.994   7.473 -0.6536 -0.4557 -3.2719
  294MOL0     H38759   4.235   8.838   7.668  1.5212 -0.7000  0.0688
  294MOL0     H38760   4.264   8.726   7.541 -0.6154 -0.0615  1.2983
  294MOL0     H38761   3.981   8.889   7.741 -0.0212 -1.4045  1.3710
  294MOL0     H38762   3.654   8.731   7.654  1.7632  0.6936 -1.2871
  294MOL0     H38763   3.748   8.735   7.811  0.7200  2.2500 -0.9936
  294MOL0     H38764   3.802   8.475   7.743 -0.3523 -0.6998  0.7730
  294MOL0     H38765   3.660   8.488   7.640 -5.0759 -0.2892  2.6111
  294MOL0     H38766   3.626   8.399   7.872  1.7133 -0.8584 -0.6058
  294MOL0     H38767   3.642   8.551   7.940 -1.2803 -1.4446  0.7151
  294MOL0     H38768   3.419   8.480   7.732 -2.3737  0.8777  0.1227
  294MOL0     H38769   3.442   8.647   7.759 -0.9726 -0.0628 -0.5520
  294MOL0     H38770   3.203   8.497   7.757 -0.5190  0.0685  1.5998
  294MOL0     H38771   2.966   8.571   7.774 -0.5981 -0.0323  1.5612
  294MOL0     H38772   2.553   8.584   7.768  1.4149 -0.5059  0.7225
  294MOL0     H38773   2.332   8.481   7.825 -1.1612  2.8663 -0.5015
  294MOL0     H38774   2.236   8.418   8.224  0.9215  0.0380  1.2237
  294MOL0     H38775   2.197   8.256   8.173  0.7010  1.1063  2.8610
  294MOL0     H38776   2.004   8.333   8.040  0.2995 -0.0479 -0.9212
  294MOL0     H38777   2.038   8.501   8.101  1.5456 -0.8824 -2.7512
  294MOL0     H38778   1.987   8.427   8.337  2.5894  1.4451 -1.6047
  294MOL0     H38779   1.970   8.260   8.290 -0.0826 -1.1424 -1.7283
  294MOL0     H38780   1.791   8.499   8.198 -1.0079 -0.6025 -3.6037
  294MOL0     H38781   1.768   8.330   8.146  2.1495 -1.0125  0.0030
  294MOL0     H38782   1.712   8.473   8.414 -1.6155  0.3530  0.0220
  294MOL0     H38783   1.746   8.300   8.420 -0.3367  0.5857  0.4292
  294MOL0     H38784   1.538   8.260   8.283  1.5273 -0.2036 -1.2548
  294MOL0     H38785   1.537   8.439   8.245 -0.5734 -0.5624 -0.5113
  294MOL0     H38786   1.381   8.335   8.448 -1.2383  1.9839  0.3108
  294MOL0     H38787   1.533   8.317   8.534  0.7041 -1.6932 -1.4285
  294MOL0     H38788   1.414   8.585   8.437 -0.1592  1.6423  2.4544
  294MOL0     H38789   1.549   8.566   8.538 -1.5326  3.0245 -0.5737
  294MOL0     H38790   2.456   8.421   8.225  0.4149 -0.6131 -0.5153
  294MOL0     H38791   2.676   8.515   8.182 -2.4455  0.1393  1.2254
  294MOL0     H38792   3.080   8.723   8.170 -1.6323 -1.1904  0.7697
  294MOL0     H38793   3.291   8.679   8.121  0.4500  0.8212 -1.3197
  294MOL0     H38794   4.967   8.622   7.017 -3.0931  2.3875 -2.2526
  294MOL0     H38795   5.188   8.630   6.902  0.4291 -0.6356  1.0783
  294MOL0     H38796   5.700   8.749   7.122  0.8336  1.5215  0.2042
  294MOL0     H38797   5.940   8.723   7.010  0.5194  3.7507  0.9232
  294MOL0     H38798   5.963   8.821   6.588  2.9910  2.3646 -0.3437
  294MOL0     H38799   5.978   8.644   6.569  4.6273 -1.8148 -0.4338
  294MOL0     H38800   6.208   8.653   6.677  1.2458  1.1560  1.7091
  294MOL0     H38801   6.184   8.705   6.509 -3.0216  1.9472 -0.5918
  294MOL0     H38802   6.144   8.925   6.709  0.7134 -3.2102  2.6560
  294MOL0     H38803   6.189   8.923   6.535 -3.5458 -3.1687 -0.3912
  294MOL0     H38804   6.371   8.820   6.763  2.0844 -1.6539 -1.4565
  294MOL0     H38805   6.417   8.844   6.593 -2.7337 -0.3151 -2.4726
  294MOL0     H38806   6.414   9.255   6.697  0.0208  0.2940 -1.5451
  294MOL0     H38807   5.743   8.745   6.630 -2.7147 -5.0947 -0.1875
  294MOL0     H38808   5.533   8.776   6.725  0.0050  0.7104 -1.0609
  295MOL0     O38809   7.906   2.219   5.519  0.5828 -0.0912  0.6516
  295MOL0     C38810   7.972   2.117   5.511 -0.1599  0.5068 -0.7469
  295MOL0     O38811   7.925   1.983   5.511  0.3069 -0.4402 -0.1388
  295MOL0     C38812   7.790   1.962   5.530  0.1558 -1.4199  0.2357
  295MOL0     C38813   7.749   1.912   5.651  0.0819 -0.0110  0.3269
  295MOL0     C38814   7.616   1.879   5.678 -0.6035 -0.2886  0.3625
  295MOL0     C38815   7.518   1.904   5.591  0.7054  0.5646 -0.1001
  295MOL0     O38816   7.388   1.874   5.610 -0.2487  0.4474 -0.8724
  295MOL0     C38817   7.339   1.844   5.744 -0.3158 -0.2629 -0.2031
  295MOL0     C38818   7.188   1.818   5.744 -0.1871 -0.5318 -0.4023
  295MOL0     C38819   7.123   1.880   5.865 -0.2648 -0.7063 -0.6455
  295MOL0     C38820   6.964   1.875   5.882 -0.2379 -0.3469  0.0240
  295MOL0     C38821   6.892   1.996   5.946 -0.6114  0.0078 -0.6108
  295MOL0     C38822   6.753   1.974   6.008  0.6323 -0.3596  0.2308
  295MOL0     C38823   6.670   2.100   6.024 -0.7607  0.2511  0.6126
  295MOL0     C38824   6.535   2.054   6.074 -0.2145  0.2568 -0.4170
  295MOL0     N38825   6.427   2.151   6.044  1.0142 -0.4874  0.5004
  295MOL0     C38826   6.394   2.198   5.923 -0.0862 -0.0799 -0.0396
  295MOL0     C38827   6.284   2.274   5.937 -0.2466 -0.3469 -0.7496
  295MOL0     C38828   6.220   2.335   5.818 -0.6818 -0.3579  1.0385
  295MOL0     C38829   6.076   2.361   5.861 -0.0703 -0.6720 -0.4800
  295MOL0     C38830   6.002   2.404   5.744  1.0427  0.3688 -0.0991
  295MOL0     C38831   5.850   2.428   5.765 -0.5274 -0.9375 -0.0671
  295MOL0     O38832   5.796   2.433   5.636 -0.2676  0.2272 -0.3430
  295MOL0     C38833   5.663   2.468   5.617 -0.6205 -0.2373 -0.7228
  295MOL0     C38834   5.599   2.418   5.499 -0.1000  0.1554  1.1825
  295MOL0     C38835   5.461   2.430   5.484  0.1827 -0.3302 -0.6826
  295MOL0     C38836   5.389   2.492   5.584  1.1154  0.2699  0.6367
  295MOL0     C38837   5.238   2.505   5.576  0.3421 -0.3245  0.7318
  295MOL0     O38838   5.171   2.582   5.668 -0.2686  0.1829  0.4532
  295MOL0     C38839   5.035   2.599   5.650  0.9086 -0.5045  0.3751
  295MOL0     C38840   4.981   2.635   5.524 -0.9615  0.1501 -0.5950
  295MOL0     C38841   4.841   2.644   5.504 -0.1768 -0.0713  0.0150
  295MOL0     C38842   4.753   2.618   5.601  0.1676 -1.1755 -0.1880
  295MOL0     O38843   4.625   2.626   5.563 -0.0869  0.0408  0.4783
  295MOL0     C38844   4.537   2.548   5.643 -0.0652  0.5699  0.4644
  295MOL0     C38845   4.394   2.576   5.614  0.0952 -0.9410  1.0928
  295MOL0     C38846   4.303   2.489   5.696 -0.5308  0.7347  0.0951
  295MOL0     C38847   4.151   2.493   5.658 -0.5057 -0.0039 -0.6282
  295MOL0     C38848   4.055   2.422   5.759  0.6370  0.5755 -0.2576
  295MOL0     C38849   4.001   2.486   5.885 -1.0460 -0.0566 -0.5954
  295MOL0     C38850   3.913   2.381   5.954 -0.3364 -0.0333  0.1723
  295MOL0     C38851   3.804   2.447   6.037 -0.8295 -0.1502  0.7103
  295MOL0    Cl38852   3.676   2.321   6.056  0.4981  0.1056 -0.1439
  295MOL0     C38853   4.801   2.589   5.732 -1.8879 -1.5276  0.7224
  295MOL0     C38854   4.943   2.582   5.757 -0.6241 -0.4976 -0.6567
  295MOL0     O38855   5.198   2.459   5.472 -0.7314  0.6699  0.5192
  295MOL0     C38856   5.452   2.548   5.697 -0.4972  0.5144 -0.2778
  295MOL0     C38857   5.590   2.537   5.716 -0.3583 -0.2487  0.4981
  295MOL0     N38858   6.240   2.266   6.068  0.3867  0.1353  0.0589
  295MOL0     N38859   6.330   2.200   6.127  0.0150 -0.6705 -0.0292
  295MOL0     C38860   7.555   1.942   5.460  0.7778  0.2093 -0.2526
  295MOL0     C38861   7.690   1.966   5.426 -0.1177 -0.2384 -1.2002
  295MOL0     C38862   8.117   2.136   5.470 -0.0273  0.3745 -0.5105
  295MOL0     C38863   8.169   2.044   5.385  0.0549 -0.0795 -0.4946
  295MOL0     C38864   8.293   2.066   5.322  0.8937  0.2200  0.1427
  295MOL0     C38865   8.368   2.179   5.356 -0.4372 -0.4879  0.0388
  295MOL0     O38866   8.490   2.208   5.301  0.7179  1.0347 -0.3387
  295MOL0     C38867   8.566   2.119   5.233 -0.4695  0.6444 -0.1085
  295MOL0     C38868   8.529   2.136   5.086 -0.2651 -0.4337  0.7619
  295MOL0     C38869   8.572   2.278   5.034 -0.0462  0.0370  0.4452
  295MOL0     C38870   8.503   2.314   4.899 -0.3317 -0.0481  0.1693
  295MOL0     C38871   8.364   2.347   4.925 -0.3935 -0.9739 -0.5158
  295MOL0     C38872   8.246   2.337   4.961  0.4208  0.8446  0.5117
  295MOL0     C38873   8.315   2.277   5.444 -0.0221 -0.3636  0.3726
  295MOL0     C38874   8.186   2.256   5.498 -0.0191 -0.1961 -0.1788
  295MOL0     H38875   7.820   1.920   5.733  1.0126  3.8360 -0.6203
  295MOL0     H38876   7.601   1.837   5.778 -2.5876  2.0157  1.1300
  295MOL0     H38877   7.365   1.932   5.804 -0.1990  0.2916 -1.0470
  295MOL0     H38878   7.402   1.764   5.785  1.0058  0.0766 -1.5066
  295MOL0     H38879   7.184   1.709   5.753  4.9798 -0.8539  2.1262
  295MOL0     H38880   7.144   1.857   5.652 -2.0631 -3.5214 -0.8877
  295MOL0     H38881   7.143   1.988   5.872 -5.3864  0.5291 -0.4948
  295MOL0     H38882   7.168   1.834   5.954 -1.4510 -2.1431 -0.7488
  295MOL0     H38883   6.934   1.871   5.777  2.0408 -1.1847 -0.6520
  295MOL0     H38884   6.933   1.781   5.928 -1.1436 -0.2040 -0.2757
  295MOL0     H38885   6.892   2.081   5.877  3.0604  1.5542  1.0255
  295MOL0     H38886   6.953   2.032   6.029 -0.3485 -2.6373  0.4173
  295MOL0     H38887   6.761   1.926   6.106  0.2342  1.6886  1.3223
  295MOL0     H38888   6.699   1.909   5.938  0.2942  0.9109 -0.7520
  295MOL0     H38889   6.719   2.166   6.096  2.2840  0.8317 -1.7728
  295MOL0     H38890   6.665   2.153   5.928  1.2438  1.3129  1.0309
  295MOL0     H38891   6.541   2.014   6.175  0.1285 -0.9851 -0.9118
  295MOL0     H38892   6.511   1.954   6.035 -1.6442 -1.6431  4.5792
  295MOL0     H38893   6.440   2.166   5.831 -1.4423 -0.9638 -0.4452
  295MOL0     H38894   6.208   2.269   5.732 -0.0329  0.1116  0.5834
  295MOL0     H38895   6.283   2.419   5.787 -0.0783 -1.1804 -0.0226
  295MOL0     H38896   6.066   2.443   5.934 -1.4833 -0.6101 -0.7098
  295MOL0     H38897   6.028   2.276   5.910  1.4436 -1.0507  0.4194
  295MOL0     H38898   6.034   2.505   5.714 -0.4216  0.7079 -0.6434
  295MOL0     H38899   6.027   2.346   5.655  0.3520  0.8137 -0.5986
  295MOL0     H38900   5.822   2.519   5.818 -3.3397  0.0495 -2.8894
  295MOL0     H38901   5.803   2.337   5.802 -0.5747 -0.1464  1.9046
  295MOL0     H38902   5.648   2.361   5.421 -0.5154  1.1726  0.1380
  295MOL0     H38903   5.413   2.381   5.400 -1.4525  1.6569 -0.9794
  295MOL0     H38904   5.048   2.652   5.440 -1.2937  0.4868 -0.7974
  295MOL0     H38905   4.805   2.660   5.403 -0.3064 -1.0371 -0.1008
  295MOL0     H38906   4.550   2.547   5.751 -2.0099  1.4623  0.7358
  295MOL0     H38907   4.555   2.442   5.621  2.0031  1.1254 -0.7644
  295MOL0     H38908   4.387   2.562   5.506 -2.0544  0.7666  0.9432
  295MOL0     H38909   4.360   2.679   5.632 -0.3342 -1.0835  1.1050
  295MOL0     H38910   4.321   2.521   5.799  1.3472 -0.9227  0.3283
  295MOL0     H38911   4.347   2.391   5.680 -0.5467  0.5250  1.2995
  295MOL0     H38912   4.126   2.599   5.648  0.1365  0.5104  2.3544
  295MOL0     H38913   4.147   2.439   5.563  2.0012 -3.2067  0.8920
  295MOL0     H38914   4.127   2.342   5.781  0.9461  1.0485  0.4891
  295MOL0     H38915   3.969   2.398   5.696 -1.1515  2.2956  1.4069
  295MOL0     H38916   3.947   2.579   5.868 -3.4774 -0.8848  1.9656
  295MOL0     H38917   4.093   2.506   5.941 -0.5549  0.8860 -1.6936
  295MOL0     H38918   3.861   2.314   5.885 -1.7003 -0.8697  1.9178
  295MOL0     H38919   3.977   2.320   6.019 -0.1635 -1.3973 -1.2280
  295MOL0     H38920   3.751   2.520   5.975 -1.5343 -0.3335  1.0816
  295MOL0     H38921   3.851   2.483   6.129  0.0194 -0.7979  0.5331
  295MOL0     H38922   4.734   2.578   5.816 -1.2028  2.1272  1.9178
  295MOL0     H38923   4.980   2.555   5.855  0.7315  0.3940 -0.9064
  295MOL0     H38924   5.409   2.595   5.784  0.0313  2.3459 -0.9637
  295MOL0     H38925   5.642   2.579   5.802  0.4110 -1.7589  0.8061
  295MOL0     H38926   7.469   1.970   5.400 -0.6758  1.8678  2.3784
  295MOL0     H38927   7.731   2.016   5.339  3.0373 -0.6096 -0.0871
  295MOL0     H38928   8.104   1.959   5.362  0.2853 -0.6036  0.7185
  295MOL0     H38929   8.331   1.980   5.269 -1.9162 -1.4111  0.5613
  295MOL0     H38930   8.551   2.016   5.268 -1.5765  0.9764  0.4458
  295MOL0     H38931   8.671   2.147   5.248 -0.3865 -0.1228  0.8092
  295MOL0     H38932   8.577   2.055   5.031 -1.2760  0.1586 -1.0655
  295MOL0     H38933   8.421   2.125   5.070 -0.1617 -0.3001 -0.0685
  295MOL0     H38934   8.678   2.282   5.006 -0.0618 -4.3167 -0.9479
  295MOL0     H38935   8.542   2.349   5.111 -2.4319 -1.7499  1.3117
  295MOL0     H38936   8.561   2.390   4.846  0.1965 -0.9386 -0.5548
  295MOL0     H38937   8.498   2.228   4.832  0.0092  0.0442  0.0259
  295MOL0     H38938   8.145   2.334   4.995  0.0618  2.0644 -0.4105
  295MOL0     H38939   8.381   2.360   5.466 -0.9880  0.1887  1.2845
  295MOL0     H38940   8.132   2.331   5.554  0.9197 -0.9693  1.9090
  296MOL0     O38941   6.701   4.778   1.003 -0.8943 -0.0838  0.4167
  296MOL0     C38942   6.598   4.831   0.984  1.2662 -0.1088  0.5267
  296MOL0     O38943   6.506   4.801   0.884  0.3764 -0.1097 -0.4015
  296MOL0     C38944   6.520   4.687   0.806 -0.7299 -0.5627 -0.6177
  296MOL0     C38945   6.518   4.560   0.860  0.4855  0.5317  0.3198
  296MOL0     C38946   6.533   4.456   0.769 -0.6550  0.4106  0.1615
  296MOL0     C38947   6.557   4.460   0.632  0.3080  0.2305  0.0375
  296MOL0     O38948   6.598   4.352   0.557  0.2174 -0.1277 -0.0835
  296MOL0     C38949   6.557   4.342   0.423  0.1741 -1.1359 -0.5865
  296MOL0     C38950   6.428   4.278   0.408 -0.5698 -0.2650  0.7367
  296MOL0     C38951   6.304   4.326   0.488  0.3093  0.3070 -0.7699
  296MOL0     C38952   6.188   4.233   0.440 -0.5373 -0.4984  0.0787
  296MOL0     C38953   6.060   4.263   0.521 -0.9241 -0.2064  0.7731
  296MOL0     C38954   5.956   4.159   0.521  0.5272  0.0793 -0.1212
  296MOL0     C38955   5.882   4.141   0.390  0.4818  0.3017  1.1482
  296MOL0     C38956   5.793   4.271   0.353  0.8181 -0.2601 -0.6607
  296MOL0     N38957   5.708   4.251   0.239  0.2653  0.8310  1.1899
  296MOL0     C38958   5.639   4.131   0.211 -0.6721  0.0502  0.9327
  296MOL0     C38959   5.562   4.155   0.094  0.2679  0.2996 -0.6781
  296MOL0     C38960   5.474   4.053   0.027 -0.9431  0.0485  0.7800
  296MOL0     C38961   5.344   4.022   0.100  0.1854 -0.1817 -0.6961
  296MOL0     C38962   5.264   3.896   0.049  0.0879 -0.0652 -0.1723
  296MOL0     C38963   5.124   3.891   0.104  0.9525  0.1914  0.1035
  296MOL0     O38964   5.119   3.860   0.243 -0.2294  0.1614 -0.2420
  296MOL0     C38965   4.999   3.838   0.302  0.5865  0.2697 -1.0491
  296MOL0     C38966   4.875   3.843   0.231 -0.4845 -0.6129 -0.5070
  296MOL0     C38967   4.767   3.793   0.300  0.1970  0.0953 -0.3248
  296MOL0     C38968   4.770   3.769   0.435  0.1919  0.7848  0.7936
  296MOL0     C38969   4.648   3.752   0.507 -0.1945 -0.1320  0.7131
  296MOL0     O38970   4.537   3.810   0.453  0.3050 -0.1962  0.1343
  296MOL0     C38971   4.406   3.813   0.503  0.9782  0.0682  0.1293
  296MOL0     C38972   4.309   3.877   0.430  0.2535 -0.5384  0.5241
  296MOL0     C38973   4.178   3.888   0.472  0.3416 -0.3323  0.0079
  296MOL0     C38974   4.137   3.840   0.594  0.9548  0.7590 -0.6801
  296MOL0     O38975   4.007   3.842   0.627  0.8651 -0.2283  0.2221
  296MOL0     C38976   3.973   3.866   0.763  0.9809 -0.2333  0.0377
  296MOL0     C38977   3.824   3.894   0.791  0.6537 -0.8356  0.6701
  296MOL0     C38978   3.747   3.765   0.771 -0.5652 -0.2420  0.4920
  296MOL0     C38979   3.596   3.797   0.819  0.3179 -0.0608  0.0279
  296MOL0     C38980   3.518   3.662   0.833 -1.0383 -0.0968 -0.2035
  296MOL0     C38981   3.369   3.681   0.851  0.6039 -0.0681 -0.2015
  296MOL0     C38982   3.298   3.574   0.943 -0.2344  0.2762 -0.4469
  296MOL0     C38983   3.144   3.617   0.957 -0.3814  0.3952 -0.4795
  296MOL0    Cl38984   3.076   3.571   0.796 -0.0965 -0.4043  0.2411
  296MOL0     C38985   4.236   3.785   0.675 -0.5284  0.6117  0.0928
  296MOL0     C38986   4.368   3.769   0.633  0.7443  0.1196 -0.3658
  296MOL0     O38987   4.651   3.677   0.603  0.1439  0.2187  0.4068
  296MOL0     C38988   4.895   3.760   0.500  0.5455  1.1415 -0.6309
  296MOL0     C38989   5.007   3.783   0.431  0.4052 -0.0979  1.1109
  296MOL0     N38990   5.576   4.287   0.062  0.3843 -0.5423  0.6369
  296MOL0     N38991   5.659   4.338   0.140 -0.3854  0.4805 -0.6814
  296MOL0     C38992   6.548   4.591   0.586  0.0246  0.2349  0.7899
  296MOL0     C38993   6.535   4.703   0.668  0.9596 -0.6744 -0.6917
  296MOL0     C38994   6.550   4.916   1.096 -0.8873  0.9708 -0.4874
  296MOL0     C38995   6.637   4.999   1.167 -0.0497 -0.5322 -0.0786
  296MOL0     C38996   6.585   5.100   1.258  0.8915  0.0026 -0.0581
  296MOL0     C38997   6.448   5.105   1.274  0.0657  0.5684  0.4885
  296MOL0     O38998   6.401   5.200   1.353  0.1035 -0.2281  0.9626
  296MOL0     C38999   6.277   5.258   1.311 -0.1083 -0.4179  0.5329
  296MOL0     C39000   6.275   5.404   1.374 -0.4886 -0.6722 -0.4605
  296MOL0     C39001   6.281   5.435   1.522 -1.0095  0.3730  0.0520
  296MOL0     C39002   6.234   5.572   1.550 -0.4632 -0.2072 -0.1550
  296MOL0     C39003   6.189   5.583   1.689  0.5665  0.2144 -0.0506
  296MOL0     C39004   6.148   5.606   1.802 -0.1386 -0.1003 -0.2509
  296MOL0     C39005   6.362   5.020   1.214  0.6235  0.4653  0.7051
  296MOL0     C39006   6.415   4.924   1.121  0.3172  0.4115  0.6969
  296MOL0     H39007   6.528   4.531   0.964 -1.9013 -1.2999  0.1188
  296MOL0     H39008   6.539   4.361   0.821 -4.0330  0.2364  0.5063
  296MOL0     H39009   6.634   4.278   0.379  0.5270 -1.2818  0.2394
  296MOL0     H39010   6.552   4.434   0.364  2.6323 -0.0466  0.7478
  296MOL0     H39011   6.460   4.175   0.427 -0.4805 -0.0565  1.7811
  296MOL0     H39012   6.411   4.283   0.300  1.1519 -1.1382  0.3986
  296MOL0     H39013   6.269   4.429   0.470 -2.8256 -0.5029 -0.0345
  296MOL0     H39014   6.315   4.317   0.596 -1.8573 -0.7672 -0.5785
  296MOL0     H39015   6.155   4.242   0.336 -1.1264 -0.3297  0.2762
  296MOL0     H39016   6.226   4.132   0.455  1.4904  0.2325  0.1927
  296MOL0     H39017   6.018   4.361   0.497 -0.0678  0.2719  1.1783
  296MOL0     H39018   6.088   4.281   0.626 -0.3863  0.2753  0.5547
  296MOL0     H39019   5.879   4.197   0.589  0.8909 -0.7035  0.7474
  296MOL0     H39020   5.996   4.064   0.556 -2.4529 -1.4440 -0.4846
  296MOL0     H39021   5.957   4.123   0.313 -0.9251  2.0543 -0.7621
  296MOL0     H39022   5.815   4.055   0.388 -1.8924  2.0141 -1.7787
  296MOL0     H39023   5.864   4.353   0.345  1.4282 -0.5933  0.9855
  296MOL0     H39024   5.728   4.300   0.437 -1.0594 -0.0786 -2.0916
  296MOL0     H39025   5.645   4.034   0.260 -0.4081 -0.5653 -0.2606
  296MOL0     H39026   5.535   3.963   0.018 -3.0748 -1.5106  1.0105
  296MOL0     H39027   5.452   4.084  -0.075 -1.7232  0.7675  1.1493
  296MOL0     H39028   5.277   4.106   0.077  0.4856 -0.0746 -1.2113
  296MOL0     H39029   5.356   4.015   0.208 -2.4391  1.6807 -0.1919
  296MOL0     H39030   5.260   3.910  -0.059  2.4359  0.3984 -0.2416
  296MOL0     H39031   5.323   3.806   0.068 -1.9073 -1.7978 -1.6510
  296MOL0     H39032   5.072   3.819   0.041 -0.7109  3.1083 -2.0958
  296MOL0     H39033   5.073   3.986   0.083  2.0525  0.7537 -0.1127
  296MOL0     H39034   4.866   3.847   0.123  0.8422 -2.0944 -0.7012
  296MOL0     H39035   4.669   3.789   0.253 -0.6602 -2.0731  1.4425
  296MOL0     H39036   4.334   3.907   0.328  0.0359  2.9146  1.3601
  296MOL0     H39037   4.094   3.924   0.414  0.1203  3.1653  2.2069
  296MOL0     H39038   4.030   3.954   0.794 -1.7111  1.5745  0.2754
  296MOL0     H39039   3.995   3.775   0.819 -1.8636 -2.3535 -1.9880
  296MOL0     H39040   3.793   3.964   0.713  1.0165  1.2784  2.3658
  296MOL0     H39041   3.808   3.927   0.893 -2.9892  0.1594 -0.0936
  296MOL0     H39042   3.798   3.680   0.816  2.0078  3.0506  4.5169
  296MOL0     H39043   3.751   3.743   0.664  2.5246 -0.5090  0.5572
  296MOL0     H39044   3.590   3.849   0.915  1.2324  0.4048 -0.1534
  296MOL0     H39045   3.549   3.868   0.749  1.1660  3.7138  2.9488
  296MOL0     H39046   3.545   3.615   0.928 -0.0947 -0.9013 -0.8546
  296MOL0     H39047   3.521   3.586   0.754 -1.2935 -0.2018 -0.1147
  296MOL0     H39048   3.311   3.687   0.759 -0.0518  1.7669  0.2993
  296MOL0     H39049   3.359   3.775   0.907  1.0619  0.2444 -0.6309
  296MOL0     H39050   3.312   3.474   0.901  7.5756  0.3318  0.4280
  296MOL0     H39051   3.344   3.577   1.043  0.9421 -3.3849 -0.7268
  296MOL0     H39052   3.127   3.724   0.969 -0.6546  0.0741  2.7839
  296MOL0     H39053   3.094   3.570   1.042  1.2396 -3.0332 -1.2644
  296MOL0     H39054   4.219   3.741   0.773 -0.6928 -0.6592 -0.4877
  296MOL0     H39055   4.447   3.727   0.695 -0.6925 -1.2466  0.5911
  296MOL0     H39056   4.903   3.733   0.604  0.2354  0.2213 -0.8381
  296MOL0     H39057   5.100   3.775   0.486  2.1223  2.1449 -1.2070
  296MOL0     H39058   6.561   4.607   0.479 -1.9399 -1.2116  0.2883
  296MOL0     H39059   6.544   4.803   0.626  1.3785 -0.1669  0.5743
  296MOL0     H39060   6.743   4.983   1.149 -0.5262 -2.4770 -1.5515
  296MOL0     H39061   6.645   5.168   1.318  0.8830 -1.7121  1.9655
  296MOL0     H39062   6.192   5.210   1.360 -2.2352  1.1405 -1.4090
  296MOL0     H39063   6.264   5.263   1.202  0.4841  0.0528  0.4778
  296MOL0     H39064   6.359   5.463   1.336  0.8542 -1.2076  1.5048
  296MOL0     H39065   6.179   5.450   1.347  0.6509  1.6086 -0.9244
  296MOL0     H39066   6.379   5.430   1.569 -0.8649  0.9438 -0.1769
  296MOL0     H39067   6.233   5.350   1.572  1.0923 -0.8616  0.0785
  296MOL0     H39068   6.321   5.638   1.539 -0.7048  0.3842  1.1999
  296MOL0     H39069   6.157   5.609   1.483 -0.7542 -1.7037 -0.6802
  296MOL0     H39070   6.113   5.634   1.900 -2.2161  0.4908 -1.1086
  296MOL0     H39071   6.257   5.034   1.234  0.5720 -0.8723  1.4764
  296MOL0     H39072   6.350   4.850   1.075 -3.2288  3.0255  1.0730
  297MOL0     O39073   6.618   2.024   9.174  0.7315  0.2971  0.1255
  297MOL0     C39074   6.707   1.959   9.119 -0.2786  0.1525  0.4113
  297MOL0     O39075   6.703   1.897   9.001 -0.3983 -0.1607  0.1663
  297MOL0     C39076   6.591   1.894   8.921  0.2432  0.1562 -0.2879
  297MOL0     C39077   6.547   1.768   8.885 -0.4508  0.2151 -0.2731
  297MOL0     C39078   6.445   1.766   8.788 -0.4162  0.6398 -0.1263
  297MOL0     C39079   6.386   1.887   8.742  1.2580  0.1705  0.0269
  297MOL0     O39080   6.300   1.887   8.636 -0.5273 -0.7352  0.0337
  297MOL0     C39081   6.167   1.907   8.685 -0.0332  0.6815 -0.3437
  297MOL0     C39082   6.075   1.907   8.566 -1.0688 -0.1784  0.2493
  297MOL0     C39083   5.917   1.926   8.590 -0.9633 -0.4478 -0.0378
  297MOL0     C39084   5.879   2.047   8.668  0.2703 -0.2139 -0.4028
  297MOL0     C39085   5.730   2.033   8.721  0.9770  0.5614 -0.0020
  297MOL0     C39086   5.711   1.968   8.850  0.7449 -0.2193 -0.3700
  297MOL0     C39087   5.559   1.976   8.893  0.1793 -0.8713 -0.8125
  297MOL0     C39088   5.460   1.876   8.829  1.2469 -0.0454 -0.2987
  297MOL0     N39089   5.465   1.739   8.889 -1.0195  0.1243 -0.3381
  297MOL0     C39090   5.372   1.689   8.979  0.0202  0.2058 -0.2970
  297MOL0     C39091   5.424   1.570   9.025 -0.6080  0.4614  0.2518
  297MOL0     C39092   5.344   1.473   9.107  0.0984  0.0019  0.1126
  297MOL0     C39093   5.216   1.418   9.034  0.0037  0.5389 -0.3063
  297MOL0     C39094   5.159   1.302   9.125  0.3715 -0.1232  0.2443
  297MOL0     C39095   5.132   1.333   9.266  0.1318 -0.2870 -1.0892
  297MOL0     O39096   5.095   1.221   9.354  0.0899 -0.4142  0.1078
  297MOL0     C39097   4.963   1.164   9.342  0.3180 -0.2335  0.0831
  297MOL0     C39098   4.918   1.075   9.432 -0.2650  0.0489 -0.5710
  297MOL0     C39099   4.775   1.045   9.443 -0.1270 -0.2883 -0.7914
  297MOL0     C39100   4.687   1.084   9.335  0.5071 -0.1228  0.2688
  297MOL0     C39101   4.549   1.038   9.331 -0.1186  0.3484 -1.1244
  297MOL0     O39102   4.499   1.059   9.213 -0.2388  0.1697  0.2347
  297MOL0     C39103   4.364   1.037   9.217  0.5671  0.8945 -0.4634
  297MOL0     C39104   4.271   1.135   9.255  0.7457  0.5943 -0.4992
  297MOL0     C39105   4.136   1.107   9.230 -0.8331  0.1016 -0.3431
  297MOL0     C39106   4.102   0.980   9.165 -0.0248 -0.5433  0.0412
  297MOL0     O39107   3.973   0.966   9.125 -0.1212  0.4746 -0.5026
  297MOL0     C39108   3.883   0.942   9.244 -0.1747 -0.2727 -0.1837
  297MOL0     C39109   3.741   0.965   9.186  0.2180 -0.0765 -0.0484
  297MOL0     C39110   3.641   1.016   9.292  0.9745 -0.5656  0.6524
  297MOL0     C39111   3.498   1.012   9.229 -0.2744  0.5147  0.0341
  297MOL0     C39112   3.408   1.031   9.353  0.5092 -0.4272  0.2762
  297MOL0     C39113   3.283   1.103   9.309  0.4823 -0.2124 -0.0887
  297MOL0     C39114   3.194   1.132   9.430 -0.0284 -0.1970  0.4502
  297MOL0     C39115   3.086   1.234   9.395 -0.4984 -0.1261 -0.6480
  297MOL0    Cl39116   2.992   1.175   9.250  0.8129  0.1232  0.2772
  297MOL0     C39117   4.192   0.875   9.155  0.2413 -0.6555  0.1748
  297MOL0     C39118   4.324   0.901   9.176  0.1738  0.0360 -0.1445
  297MOL0     O39119   4.492   0.976   9.427 -0.1306  1.0425 -0.6035
  297MOL0     C39120   4.746   1.174   9.240 -0.1646 -0.0123  0.0594
  297MOL0     C39121   4.870   1.219   9.248  0.5642 -0.5991 -0.2352
  297MOL0     N39122   5.552   1.548   8.974 -1.0551  0.5657  0.1724
  297MOL0     N39123   5.571   1.648   8.881 -0.6779  0.8121 -0.2170
  297MOL0     C39124   6.426   2.011   8.795  0.0089 -0.1975  0.1189
  297MOL0     C39125   6.526   2.013   8.886  0.6898 -0.5118  0.1969
  297MOL0     C39126   6.823   1.936   9.206 -0.6753  0.5072 -0.3098
  297MOL0     C39127   6.825   1.969   9.345  0.1467 -0.1522  0.0167
  297MOL0     C39128   6.932   1.936   9.428  0.6834 -1.2014  0.5394
  297MOL0     C39129   7.041   1.859   9.387 -0.0690 -0.6718  0.6718
  297MOL0     O39130   7.142   1.829   9.472  0.1715 -0.1419 -0.2969
  297MOL0     C39131   7.250   1.746   9.422 -0.1324  0.6475 -1.3349
  297MOL0     C39132   7.370   1.739   9.526 -0.6782 -0.0267 -0.0631
  297MOL0     C39133   7.455   1.868   9.541 -0.2146 -0.1032  0.5327
  297MOL0     C39134   7.567   1.853   9.643 -0.1166 -0.2291 -0.6082
  297MOL0     C39135   7.661   1.974   9.619 -0.4613 -0.4293  0.2875
  297MOL0     C39136   7.720   2.073   9.590 -0.2190  0.1791 -0.0217
  297MOL0     C39137   7.034   1.813   9.250 -0.5166 -0.0954 -0.0437
  297MOL0     C39138   6.929   1.852   9.165  0.1590  0.5286 -0.1132
  297MOL0     H39139   6.599   1.682   8.928  1.4589  1.0081 -0.9310
  297MOL0     H39140   6.414   1.665   8.761  0.9177 -0.0076  0.6717
  297MOL0     H39141   6.159   2.003   8.738 -0.6445  1.0111 -1.0107
  297MOL0     H39142   6.146   1.834   8.763  0.6748  0.5891 -0.2319
  297MOL0     H39143   6.103   1.816   8.512  2.5842  0.3711  0.9823
  297MOL0     H39144   6.101   2.003   8.520 -0.5260 -1.1350 -1.5850
  297MOL0     H39145   5.881   1.839   8.646  0.8515 -1.0087  0.3376
  297MOL0     H39146   5.866   1.913   8.494  1.2953 -1.2006 -1.1932
  297MOL0     H39147   5.943   2.055   8.757  0.8122  0.0102 -0.8074
  297MOL0     H39148   5.898   2.141   8.616  1.2383  1.2193  2.3320
  297MOL0     H39149   5.671   1.992   8.639 -1.2418  0.2425  1.6260
  297MOL0     H39150   5.699   2.137   8.736  2.6533  1.0878 -0.0626
  297MOL0     H39151   5.761   2.022   8.931 -3.8035 -0.9419  3.3547
  297MOL0     H39152   5.739   1.863   8.856 -2.7296 -1.2014  3.4720
  297MOL0     H39153   5.566   1.971   9.002  0.4839 -0.7897 -0.8282
  297MOL0     H39154   5.510   2.071   8.870 -1.0120 -1.0798  0.6592
  297MOL0     H39155   5.474   1.874   8.721 -2.3248  0.3075 -0.8683
  297MOL0     H39156   5.357   1.908   8.844  0.7145 -2.1312  0.8395
  297MOL0     H39157   5.275   1.730   9.005 -0.2109 -1.4739  1.8766
  297MOL0     H39158   5.312   1.525   9.198  0.5300 -1.6206  1.2450
  297MOL0     H39159   5.412   1.393   9.141 -1.3415 -2.0427 -1.5742
  297MOL0     H39160   5.240   1.377   8.935 -0.2806 -1.5067  0.4381
  297MOL0     H39161   5.141   1.497   9.021 -0.5608 -0.1050 -1.0783
  297MOL0     H39162   5.069   1.276   9.068  1.8616 -0.2497 -2.2078
  297MOL0     H39163   5.223   1.213   9.128 -2.1961 -2.0952  0.5114
  297MOL0     H39164   5.054   1.410   9.272  0.0674  0.0045 -4.1711
  297MOL0     H39165   5.219   1.377   9.316 -2.4947 -0.0653  4.0184
  297MOL0     H39166   4.998   1.048   9.501 -0.7769 -0.9270 -0.3486
  297MOL0     H39167   4.744   0.974   9.519 -0.5315  1.4886  0.7820
  297MOL0     H39168   4.295   1.233   9.295  0.9808 -0.2380  1.4838
  297MOL0     H39169   4.060   1.180   9.258  0.0041  0.1454  2.0091
  297MOL0     H39170   3.903   1.021   9.317 -3.0188 -0.4436  0.9279
  297MOL0     H39171   3.888   0.850   9.302  2.1930  0.4000  0.7750
  297MOL0     H39172   3.714   0.869   9.141  0.5534  0.2659 -1.0211
  297MOL0     H39173   3.739   1.035   9.102 -2.2283 -2.2395 -1.9654
  297MOL0     H39174   3.655   1.120   9.323  0.5319 -0.0833 -0.7083
  297MOL0     H39175   3.643   0.950   9.379  1.6087 -0.4633  0.7192
  297MOL0     H39176   3.489   1.091   9.153 -2.2115  1.7608  1.4929
  297MOL0     H39177   3.485   0.913   9.185  1.7947  0.2446 -0.0763
  297MOL0     H39178   3.457   1.082   9.436  2.8675 -2.3215  0.1941
  297MOL0     H39179   3.371   0.933   9.385 -1.2530  0.4447  1.0239
  297MOL0     H39180   3.225   1.045   9.237 -1.6564  1.7754 -0.0742
  297MOL0     H39181   3.321   1.192   9.257 -0.8176  0.3347 -0.1497
  297MOL0     H39182   3.148   1.035   9.450 -0.6626 -0.2338 -1.0316
  297MOL0     H39183   3.258   1.151   9.517  0.4358  1.6026 -0.2453
  297MOL0     H39184   3.129   1.333   9.375 -0.0239 -0.4006 -1.0154
  297MOL0     H39185   3.021   1.237   9.482 -2.9287 -1.1523 -2.2950
  297MOL0     H39186   4.149   0.778   9.136 -0.3737 -0.2146 -0.7619
  297MOL0     H39187   4.400   0.826   9.154 -0.9154 -0.5065 -2.2983
  297MOL0     H39188   4.685   1.214   9.160  1.6155 -1.5891 -2.2041
  297MOL0     H39189   4.897   1.289   9.170  0.0030  0.7061  0.6953
  297MOL0     H39190   6.386   2.104   8.754 -3.0671 -1.1261  0.7474
  297MOL0     H39191   6.541   2.112   8.927  0.0913 -0.1453 -0.4335
  297MOL0     H39192   6.747   2.025   9.396 -0.1612 -0.0158 -0.5950
  297MOL0     H39193   6.922   1.974   9.530 -2.9387  0.2986 -0.2084
  297MOL0     H39194   7.285   1.789   9.327  0.0743  2.7891 -0.3299
  297MOL0     H39195   7.217   1.642   9.413 -0.3915  0.8240 -2.6465
  297MOL0     H39196   7.333   1.707   9.624  1.7765  0.1218  0.9855
  297MOL0     H39197   7.444   1.668   9.489  1.3632  2.3375 -0.7868
  297MOL0     H39198   7.390   1.950   9.574  1.5750  2.2271 -1.3545
  297MOL0     H39199   7.498   1.891   9.444 -0.3476 -1.6735  0.0758
  297MOL0     H39200   7.527   1.844   9.745 -1.7085 -0.2510 -1.2049
  297MOL0     H39201   7.625   1.762   9.626  1.2697  0.3848  0.6126
  297MOL0     H39202   7.785   2.156   9.566 -0.3231 -0.2286 -1.8595
  297MOL0     H39203   7.109   1.744   9.211 -2.6594 -1.1628 -2.6358
  297MOL0     H39204   6.923   1.821   9.062  1.3651  0.8778 -0.2975
  298MOL0     O39205   0.013  10.968   1.945  0.4855  0.4111  0.3688
  298MOL0     C39206   0.050  11.061   1.877  0.3258 -0.5061 -0.9161
  298MOL0     O39207  -0.033  11.127   1.791 -0.4980 -0.3555 -0.3883
  298MOL0     C39208  -0.148  11.066   1.743 -0.1428 -0.3456 -0.3526
  298MOL0     C39209  -0.169  10.934   1.713  0.2844  0.2723  0.6332
  298MOL0     C39210  -0.300  10.897   1.671  0.5348 -0.1034  0.5634
  298MOL0     C39211  -0.399  10.991   1.641  0.1007 -0.0367  0.2002
  298MOL0     O39212  -0.521  10.965   1.592  0.1421  0.5121  0.3171
  298MOL0     C39213  -0.569  10.834   1.565  0.2605  0.7435  0.6943
  298MOL0     C39214  -0.685  10.832   1.465 -1.2047 -0.7521 -0.5774
  298MOL0     C39215  -0.717  10.697   1.407  0.0586 -0.4108 -0.2188
  298MOL0     C39216  -0.812  10.712   1.290 -0.3359  0.1155 -0.1767
  298MOL0     C39217  -0.848  10.575   1.221  0.1297  0.6961  0.2701
  298MOL0     C39218  -0.894  10.585   1.071 -0.0169 -0.7887 -0.7125
  298MOL0     C39219  -0.987  10.710   1.053 -0.1361  0.8033  0.5030
  298MOL0     C39220  -1.124  10.693   1.145  0.1465 -0.8630  0.0146
  298MOL0     N39221  -1.226  10.610   1.074 -0.4988 -0.0900 -0.3255
  298MOL0     C39222  -1.319  10.659   0.994  1.7313 -0.5085  0.4310
  298MOL0     C39223  -1.391  10.554   0.961 -0.5281  0.1815 -0.1679
  298MOL0     C39224  -1.495  10.547   0.849  0.3573 -0.5235  0.0702
  298MOL0     C39225  -1.598  10.442   0.882  0.4828  0.2614  0.4248
  298MOL0     C39226  -1.702  10.413   0.773 -0.9653 -0.1346 -0.4551
  298MOL0     C39227  -1.809  10.326   0.832  0.0115  0.5573  0.0836
  298MOL0     O39228  -1.896  10.296   0.727  0.1626  0.6173  0.3371
  298MOL0     C39229  -2.021  10.245   0.740  0.1070  0.0821 -0.4889
  298MOL0     C39230  -2.106  10.228   0.628  0.1963  0.1165 -0.6114
  298MOL0     C39231  -2.245  10.186   0.640  0.1116 -0.2700 -1.2001
  298MOL0     C39232  -2.293  10.145   0.770 -0.1233 -0.1665  0.3108
  298MOL0     C39233  -2.429  10.114   0.795 -0.0325 -0.6939  0.9943
  298MOL0     O39234  -2.505  10.116   0.689 -0.5599 -0.3656  0.0050
  298MOL0     C39235  -2.639  10.077   0.700 -0.1875  0.1799  0.5448
  298MOL0     C39236  -2.681   9.974   0.616  0.3081  0.2027 -0.4112
  298MOL0     C39237  -2.817   9.956   0.598 -0.2372 -0.9485 -0.6712
  298MOL0     C39238  -2.909  10.036   0.674  0.3319  0.4521 -1.0981
  298MOL0     O39239  -3.048  10.020   0.673 -0.0499 -0.5886  0.2155
  298MOL0     C39240  -3.103   9.898   0.603  0.5005 -0.8864 -0.3811
  298MOL0     C39241  -3.254   9.885   0.623 -0.2665  1.0832 -0.5049
  298MOL0     C39242  -3.317   9.782   0.516  0.1241 -0.2525 -0.8240
  298MOL0     C39243  -3.464   9.756   0.556  0.5979  0.2374 -0.1684
  298MOL0     C39244  -3.515   9.641   0.472  0.7613 -0.2992  0.1674
  298MOL0     C39245  -3.668   9.622   0.490 -0.1147  0.4130  0.3155
  298MOL0     C39246  -3.737   9.541   0.375 -0.4657 -0.4666  0.1666
  298MOL0     C39247  -3.878   9.509   0.418 -0.0222 -0.7429 -0.1226
  298MOL0    Cl39248  -3.975   9.662   0.438 -0.3576  0.0195 -0.2500
  298MOL0     C39249  -2.863  10.127   0.772 -0.0563  0.4369  0.2482
  298MOL0     C39250  -2.731  10.155   0.780  0.1731 -0.0896 -1.0339
  298MOL0     O39251  -2.473  10.083   0.899 -0.9328 -0.5805 -0.6574
  298MOL0     C39252  -2.207  10.158   0.883 -0.0061 -0.6207  1.0122
  298MOL0     C39253  -2.073  10.212   0.864  0.4463  0.7001 -0.1081
  298MOL0     N39254  -1.351  10.452   1.041 -0.3776  0.8566  0.4498
  298MOL0     N39255  -1.245  10.478   1.099 -0.1322 -0.2824 -1.0689
  298MOL0     C39256  -0.374  11.125   1.667  0.0321 -0.9866 -0.0513
  298MOL0     C39257  -0.247  11.157   1.705 -0.1492  0.2991 -0.5208
  298MOL0     C39258   0.198  11.099   1.893  0.6406 -0.2763  0.2403
  298MOL0     C39259   0.287  11.014   1.954  0.4033 -0.4381  0.4317
  298MOL0     C39260   0.429  11.042   1.963  0.7227 -0.5886  0.8186
  298MOL0     C39261   0.484  11.150   1.883 -0.3510  0.1855 -0.7527
  298MOL0     O39262   0.615  11.184   1.853  0.2954 -0.0009  0.1686
  298MOL0     C39263   0.715  11.130   1.945  0.1739 -0.6974  0.0836
  298MOL0     C39264   0.835  11.222   1.938  0.2466 -0.7636 -0.9879
  298MOL0     C39265   0.796  11.360   1.990 -0.0507  0.1858  0.2442
  298MOL0     C39266   0.921  11.439   2.024 -1.0349 -0.4966  0.0090
  298MOL0     C39267   0.989  11.374   2.142 -1.0504 -0.2279  1.2309
  298MOL0     C39268   1.055  11.347   2.235  0.4151  0.2201 -0.6964
  298MOL0     C39269   0.388  11.245   1.825  0.4057  0.0503  0.5664
  298MOL0     C39270   0.258  11.210   1.824  0.3078 -1.2514 -0.0925
  298MOL0     H39271  -0.084  10.871   1.735  0.8038  1.2511  1.4983
  298MOL0     H39272  -0.307  10.789   1.663 -1.4193 -0.1194  1.8626
  298MOL0     H39273  -0.606  10.798   1.661  0.2136 -2.9881 -0.5413
  298MOL0     H39274  -0.495  10.763   1.526 -0.7901 -0.8961  1.5534
  298MOL0     H39275  -0.667  10.911   1.391  1.2677 -0.2471  0.4626
  298MOL0     H39276  -0.776  10.858   1.519 -2.7193 -2.9447 -1.9369
  298MOL0     H39277  -0.763  10.644   1.492 -3.6077  2.5813 -0.1193
  298MOL0     H39278  -0.628  10.641   1.376  1.8542  2.0522  0.1966
  298MOL0     H39279  -0.897  10.773   1.322 -0.2814  0.4076 -0.5997
  298MOL0     H39280  -0.755  10.766   1.215 -0.7746  1.1459  0.2206
  298MOL0     H39281  -0.921  10.516   1.278  1.2161 -1.8940 -0.8607
  298MOL0     H39282  -0.759  10.512   1.227  0.8293  1.7689  2.9985
  298MOL0     H39283  -0.951  10.496   1.044  0.0105 -1.3400  0.9069
  298MOL0     H39284  -0.807  10.607   1.009 -0.6398  3.0642 -0.4909
  298MOL0     H39285  -0.936  10.805   1.069  3.0123 -0.3221 -1.7240
  298MOL0     H39286  -1.016  10.724   0.948 -1.0264  0.7346  0.7356
  298MOL0     H39287  -1.164  10.794   1.149  0.1901 -0.8489  0.0768
  298MOL0     H39288  -1.104  10.653   1.245  0.8000  1.3904  0.8237
  298MOL0     H39289  -1.325  10.754   0.942 -0.0610 -0.2687  1.0131
  298MOL0     H39290  -1.449  10.528   0.751  0.3545  1.3070 -0.3204
  298MOL0     H39291  -1.550  10.641   0.839 -0.6899 -0.9283  1.6548
  298MOL0     H39292  -1.659  10.482   0.963 -1.2658 -1.2253 -0.0912
  298MOL0     H39293  -1.552  10.346   0.910 -0.4328 -1.2344 -2.7240
  298MOL0     H39294  -1.739  10.506   0.728  0.6581 -0.8943 -3.6948
  298MOL0     H39295  -1.643  10.366   0.694  1.5236  2.9557 -0.6395
  298MOL0     H39296  -1.866  10.372   0.913 -2.3536  1.6414 -2.0374
  298MOL0     H39297  -1.762  10.236   0.871 -1.8847 -0.6085 -0.2110
  298MOL0     H39298  -2.061  10.237   0.530 -2.4043  0.0794 -1.8755
  298MOL0     H39299  -2.310  10.170   0.554 -0.9803  1.1995 -0.6890
  298MOL0     H39300  -2.613   9.918   0.552 -1.3538  0.5211 -2.5959
  298MOL0     H39301  -2.859   9.890   0.522 -1.8304  0.0200 -0.6722
  298MOL0     H39302  -3.053   9.810   0.644  0.3584 -0.5007  0.6596
  298MOL0     H39303  -3.091   9.908   0.495 -0.7555  0.8017 -0.4069
  298MOL0     H39304  -3.307   9.980   0.610  2.2856  2.7092  0.1875
  298MOL0     H39305  -3.254   9.842   0.724  4.0014  0.3218 -0.6702
  298MOL0     H39306  -3.270   9.684   0.512 -2.1276 -1.3623 -2.2352
  298MOL0     H39307  -3.312   9.814   0.412  0.4399 -3.0464 -1.7385
  298MOL0     H39308  -3.474   9.727   0.661 -1.6011 -0.9965 -0.6376
  298MOL0     H39309  -3.525   9.845   0.538 -2.0892 -1.3791  0.3434
  298MOL0     H39310  -3.465   9.553   0.512  1.2706  1.3028  3.3803
  298MOL0     H39311  -3.490   9.653   0.367 -0.5973 -1.5428 -0.3315
  298MOL0     H39312  -3.726   9.714   0.482 -0.7739 -0.0987 -1.5216
  298MOL0     H39313  -3.682   9.572   0.586 -2.3958 -1.1145 -0.7167
  298MOL0     H39314  -3.737   9.597   0.281 -0.1675 -1.1216 -0.2330
  298MOL0     H39315  -3.681   9.448   0.367 -0.2292 -0.6303  2.8622
  298MOL0     H39316  -3.872   9.447   0.509  0.3430 -1.2949 -0.5109
  298MOL0     H39317  -3.918   9.450   0.335  0.9099 -2.1808  0.4009
  298MOL0     H39318  -2.931  10.188   0.832 -1.6519 -0.6324 -0.4051
  298MOL0     H39319  -2.686  10.233   0.840 -0.2434 -1.9035  1.8742
  298MOL0     H39320  -2.241  10.128   0.981 -2.5152 -3.5437 -0.5805
  298MOL0     H39321  -2.020  10.233   0.957 -0.8541  1.1443  0.5572
  298MOL0     H39322  -0.459  11.192   1.666  1.0360  0.3939  1.6872
  298MOL0     H39323  -0.225  11.262   1.712 -2.4287  0.7498  0.6961
  298MOL0     H39324   0.249  10.928   2.007 -1.1300  0.1882  0.4105
  298MOL0     H39325   0.483  10.975   2.029  0.0249 -0.8530  1.1317
  298MOL0     H39326   0.746  11.027   1.924  0.6867 -0.2608 -1.4406
  298MOL0     H39327   0.674  11.133   2.046  0.3936 -0.9842  0.1817
  298MOL0     H39328   0.904  11.175   2.009 -0.8899  0.0900  0.7505
  298MOL0     H39329   0.868  11.239   1.835 -1.8702  0.7910 -1.4697
  298MOL0     H39330   0.723  11.359   2.072 -0.9832  0.2973 -0.5616
  298MOL0     H39331   0.752  11.412   1.904 -1.9641  0.7614  1.5042
  298MOL0     H39332   0.992  11.446   1.941 -3.5895  1.1639 -2.1844
  298MOL0     H39333   0.901  11.542   2.055  0.0908 -0.3543  0.3019
  298MOL0     H39334   1.111  11.309   2.318 -0.6514 -1.4572 -0.6970
  298MOL0     H39335   0.428  11.331   1.773 -0.2541 -1.4798 -2.7238
  298MOL0     H39336   0.182  11.269   1.773  0.5670  1.8630  2.7602
  299MOL0     O39337   6.924   3.211   5.006  0.0334 -0.4059  0.1532
  299MOL0     C39338   6.969   3.109   4.950 -0.5417 -0.3174 -0.2683
  299MOL0     O39339   6.908   3.029   4.865  1.1970  1.1992 -0.1363
  299MOL0     C39340   6.776   3.034   4.871 -0.2591  1.1046  0.1949
  299MOL0     C39341   6.688   3.111   4.788 -0.4883  0.3419 -1.5842
  299MOL0     C39342   6.552   3.111   4.819 -0.0687 -0.3404 -0.1733
  299MOL0     C39343   6.491   3.050   4.934 -1.5590  0.7087  0.7874
  299MOL0     O39344   6.361   3.060   4.967 -0.0989  0.0813  0.0340
  299MOL0     C39345   6.283   3.130   4.874 -0.4316 -0.1884  0.1411
  299MOL0     C39346   6.138   3.109   4.914 -0.1697 -0.0122  0.5577
  299MOL0     C39347   6.053   3.169   4.802  0.4797  0.7706 -0.1058
  299MOL0     C39348   6.066   3.321   4.783  0.0131  0.2451  0.4555
  299MOL0     C39349   6.015   3.366   4.643 -0.0601  0.1466 -0.3070
  299MOL0     C39350   5.870   3.333   4.615  0.4188 -0.3581 -0.3585
  299MOL0     C39351   5.847   3.383   4.476  0.0972 -0.4632  0.3648
  299MOL0     C39352   5.843   3.539   4.471 -1.1992  0.2394 -0.3316
  299MOL0     N39353   5.963   3.618   4.417  0.6023 -0.6749 -0.0236
  299MOL0     C39354   5.999   3.744   4.442  0.3652  0.0036  0.4496
  299MOL0     C39355   6.106   3.772   4.374 -0.2495  0.1765  0.1279
  299MOL0     C39356   6.154   3.912   4.347  0.4117  0.4537  0.4800
  299MOL0     C39357   6.201   3.966   4.479  0.6725 -1.7726  0.1371
  299MOL0     C39358   6.223   4.122   4.465 -0.3626  0.5843  0.6911
  299MOL0     C39359   6.319   4.159   4.576  0.4028 -0.4752  0.2422
  299MOL0     O39360   6.455   4.148   4.531  0.4961  0.1533  0.5089
  299MOL0     C39361   6.543   4.128   4.628  0.7422 -0.5830  0.0390
  299MOL0     C39362   6.547   4.013   4.714  0.1723 -0.3691 -0.1891
  299MOL0     C39363   6.640   4.007   4.819  0.2318 -0.6334 -0.7550
  299MOL0     C39364   6.745   4.107   4.837 -0.4274  0.3199  0.8793
  299MOL0     C39365   6.851   4.089   4.945 -0.0103  0.2836  0.4111
  299MOL0     O39366   6.837   3.977   5.014 -0.0872 -0.2075 -0.3519
  299MOL0     C39367   6.921   3.959   5.116 -1.1973 -0.7059 -0.0214
  299MOL0     C39368   7.050   3.909   5.095 -0.7249  0.6095 -0.3820
  299MOL0     C39369   7.149   3.916   5.194  0.2827 -0.7989  0.5180
  299MOL0     C39370   7.123   3.966   5.318  0.5187 -0.4238 -0.3156
  299MOL0     O39371   7.233   3.987   5.394  0.4169  0.6700 -0.3357
  299MOL0     C39372   7.211   4.025   5.527  0.2258  0.1449  0.2874
  299MOL0     C39373   7.352   4.052   5.590  0.2117  0.0307 -1.0165
  299MOL0     C39374   7.424   3.922   5.614  0.2420  0.4801  0.0141
  299MOL0     C39375   7.547   3.947   5.696  0.2384  0.3619  0.2489
  299MOL0     C39376   7.596   3.823   5.759 -0.1367 -0.4933 -1.3141
  299MOL0     C39377   7.698   3.867   5.867  0.4076 -0.6033  0.1280
  299MOL0     C39378   7.774   3.734   5.893 -0.6936 -1.1853  1.0167
  299MOL0     C39379   7.878   3.764   5.997  0.6484 -0.4658 -0.1076
  299MOL0    Cl39380   7.970   3.916   5.979  0.4494  0.3119 -0.1646
  299MOL0     C39381   6.995   3.997   5.347  0.0403 -0.7664  0.0395
  299MOL0     C39382   6.890   3.998   5.248 -0.4476  1.2404  0.4519
  299MOL0     O39383   6.947   4.162   4.952 -0.1432  0.8712  0.2233
  299MOL0     C39384   6.740   4.210   4.742 -0.5796 -0.6196  0.5890
  299MOL0     C39385   6.641   4.225   4.644 -0.0141 -0.9121 -0.6618
  299MOL0     N39386   6.146   3.661   4.307 -0.1365 -0.1590  0.2674
  299MOL0     N39387   6.052   3.570   4.320  0.2682  0.1929 -0.3116
  299MOL0     C39388   6.577   2.976   5.013  0.0022 -1.1713 -0.2584
  299MOL0     C39389   6.716   2.966   4.977  0.3675 -0.5821  0.2754
  299MOL0     C39390   7.114   3.080   4.954 -0.9697 -0.1995 -0.0266
  299MOL0     C39391   7.183   3.007   4.859  0.1505  0.9673  0.5725
  299MOL0     C39392   7.317   2.971   4.875  0.4583  0.6770  1.0632
  299MOL0     C39393   7.387   3.008   4.983 -0.6573  0.0926  0.1418
  299MOL0     O39394   7.516   2.978   4.994 -0.3665 -0.1140 -0.3213
  299MOL0     C39395   7.592   2.936   4.879 -0.5714 -0.9649  0.1308
  299MOL0     C39396   7.734   2.961   4.894 -0.2510  0.4763  0.8862
  299MOL0     C39397   7.802   2.879   5.004 -0.3786  0.4073 -0.5902
  299MOL0     C39398   7.928   2.943   5.063  0.3555 -0.6150 -0.3542
  299MOL0     C39399   8.021   2.979   4.962 -0.6396 -0.7519 -0.7647
  299MOL0     C39400   8.105   3.027   4.891  0.2536  0.1024 -0.4283
  299MOL0     C39401   7.326   3.089   5.079 -0.8982 -0.4664  0.0732
  299MOL0     C39402   7.189   3.123   5.067  0.0046  1.0470  0.5467
  299MOL0     H39403   6.734   3.164   4.706  1.3165  2.3148  0.5530
  299MOL0     H39404   6.493   3.170   4.749  3.0044  0.0223 -2.6946
  299MOL0     H39405   6.303   3.077   4.780  3.7374 -0.0161  0.7140
  299MOL0     H39406   6.316   3.234   4.873  2.2909 -0.9595  0.9432
  299MOL0     H39407   6.114   3.153   5.011  0.1687  3.3934 -0.7629
  299MOL0     H39408   6.119   3.002   4.913  3.1883 -0.7302  1.5078
  299MOL0     H39409   5.948   3.139   4.809  0.5470  0.1102 -1.4742
  299MOL0     H39410   6.075   3.109   4.713  0.0074 -0.2791  0.4657
  299MOL0     H39411   6.011   3.384   4.854  1.7894  0.9689  1.2571
  299MOL0     H39412   6.167   3.360   4.798  0.8954 -1.8814  0.4714
  299MOL0     H39413   6.068   3.304   4.571  1.4595  0.0675  0.8398
  299MOL0     H39414   6.040   3.470   4.623  0.5567  0.1393  0.3940
  299MOL0     H39415   5.801   3.373   4.690 -1.2276 -1.9923 -0.9575
  299MOL0     H39416   5.856   3.225   4.615  0.8897 -0.4237 -0.5266
  299MOL0     H39417   5.918   3.345   4.403  1.5980  1.9523  0.4732
  299MOL0     H39418   5.746   3.344   4.457  1.0327 -3.1405  0.5225
  299MOL0     H39419   5.821   3.572   4.573 -2.0576 -1.8492  0.1955
  299MOL0     H39420   5.753   3.563   4.413 -2.0711  1.4906  1.4511
  299MOL0     H39421   5.937   3.815   4.495  0.5870 -1.2014  2.4366
  299MOL0     H39422   6.066   3.964   4.308 -0.9287  0.7972  3.6428
  299MOL0     H39423   6.231   3.921   4.270 -1.5143 -0.5500 -1.6832
  299MOL0     H39424   6.299   3.920   4.501  0.6282 -2.2297 -0.5922
  299MOL0     H39425   6.127   3.952   4.558 -1.4066 -1.3028 -1.6423
  299MOL0     H39426   6.268   4.151   4.369  0.4224 -0.0197  0.8582
  299MOL0     H39427   6.129   4.177   4.469  0.0689  1.4776 -0.8625
  299MOL0     H39428   6.298   4.108   4.670  1.8397  1.2245  1.5388
  299MOL0     H39429   6.306   4.264   4.603  2.6323 -0.2994  0.8021
  299MOL0     H39430   6.466   3.943   4.697 -0.1528  0.5994 -3.2864
  299MOL0     H39431   6.630   3.939   4.903  1.2924  0.6355  0.4644
  299MOL0     H39432   7.081   3.887   4.993  0.4560 -0.3574  0.1634
  299MOL0     H39433   7.249   3.880   5.168  0.1125  0.1481 -1.6553
  299MOL0     H39434   7.159   3.947   5.584  0.3430  0.7566  1.2613
  299MOL0     H39435   7.159   4.120   5.543 -2.6359 -1.0907 -0.9288
  299MOL0     H39436   7.337   4.096   5.688  2.3496  0.9085 -1.0288
  299MOL0     H39437   7.411   4.134   5.549  0.5592  1.1195  1.5192
  299MOL0     H39438   7.448   3.885   5.514 -2.5740 -0.6071 -0.3642
  299MOL0     H39439   7.367   3.845   5.666 -1.7855  0.5152 -1.9744
  299MOL0     H39440   7.617   4.001   5.632 -0.1049  0.2053 -0.2637
  299MOL0     H39441   7.528   4.024   5.771  3.6356  0.0850  1.5575
  299MOL0     H39442   7.649   3.762   5.685  1.8855 -2.9939  1.9365
  299MOL0     H39443   7.516   3.764   5.805  0.6307 -3.0766 -3.0525
  299MOL0     H39444   7.654   3.909   5.958  0.6969  1.2357 -0.5409
  299MOL0     H39445   7.770   3.942   5.832 -0.9018  2.0072  2.6366
  299MOL0     H39446   7.709   3.650   5.918 -1.0850 -1.0598  0.4374
  299MOL0     H39447   7.826   3.709   5.800 -0.2047 -0.8492  1.1958
  299MOL0     H39448   7.949   3.681   5.989  0.2092 -0.9906  1.1401
  299MOL0     H39449   7.828   3.765   6.094 -1.2936  2.1702 -1.0209
  299MOL0     H39450   6.967   4.030   5.447  0.4685 -1.8385  0.5287
  299MOL0     H39451   6.789   4.036   5.258 -0.6285  0.8570  0.1323
  299MOL0     H39452   6.815   4.285   4.765 -0.6295 -0.3934  0.0313
  299MOL0     H39453   6.645   4.315   4.583  2.3234 -0.0167  0.7002
  299MOL0     H39454   6.545   2.940   5.111  1.1097 -0.8617  0.2339
  299MOL0     H39455   6.776   2.913   5.051  0.2199 -2.7631 -1.0704
  299MOL0     H39456   7.124   2.963   4.779 -1.9011 -0.1965  2.6043
  299MOL0     H39457   7.359   2.902   4.803 -2.1058  3.2864 -3.3713
  299MOL0     H39458   7.560   2.989   4.788  4.3413  1.4526 -0.5302
  299MOL0     H39459   7.584   2.828   4.870 -0.9988 -0.9959  0.8455
  299MOL0     H39460   7.763   2.932   4.793 -2.7851  0.0849  0.1996
  299MOL0     H39461   7.759   3.067   4.900  1.3158  0.3395 -1.7998
  299MOL0     H39462   7.824   2.781   4.960 -0.7190  0.8425 -1.7567
  299MOL0     H39463   7.728   2.861   5.082  0.3567  1.1297  0.2880
  299MOL0     H39464   7.907   3.037   5.115  3.1126 -1.2943  2.2381
  299MOL0     H39465   7.970   2.884   5.144 -1.1174  1.5147  2.1082
  299MOL0     H39466   8.184   3.067   4.830  1.3021  1.0837  1.4773
  299MOL0     H39467   7.387   3.120   5.164 -0.3276  0.9864 -0.8282
  299MOL0     H39468   7.132   3.179   5.139 -0.8572  0.8211  0.0507
  300MOL0     O39469   6.057   6.891   1.218  0.1390 -0.0202  0.4963
  300MOL0     C39470   6.073   7.006   1.251  0.0222  0.7662 -0.4721
  300MOL0     O39471   5.973   7.087   1.306 -0.3820 -0.5865 -0.4160
  300MOL0     C39472   5.850   7.031   1.346 -0.3855  0.6418  0.1392
  300MOL0     C39473   5.787   7.074   1.464 -0.0114 -0.5544 -0.5599
  300MOL0     C39474   5.657   7.020   1.491  0.1461  0.2353 -0.1101
  300MOL0     C39475   5.597   6.917   1.421 -0.3269  0.0495 -0.1018
  300MOL0     O39476   5.478   6.877   1.476  0.3794 -0.3066  0.7666
  300MOL0     C39477   5.419   6.759   1.413 -0.0825 -0.5955  0.0889
  300MOL0     C39478   5.299   6.703   1.493 -0.3410  0.8489 -0.4294
  300MOL0     C39479   5.171   6.782   1.470 -0.5424  0.0536 -0.5452
  300MOL0     C39480   5.047   6.695   1.501 -0.3688 -0.0188 -0.4937
  300MOL0     C39481   5.020   6.679   1.655  0.0782 -0.6027 -0.3065
  300MOL0     C39482   4.885   6.621   1.678 -0.0063  0.3179  0.0683
  300MOL0     C39483   4.868   6.614   1.825 -0.0033 -0.1767 -0.0527
  300MOL0     C39484   4.741   6.524   1.848 -0.0374 -0.8640 -0.0874
  300MOL0     N39485   4.725   6.464   1.978  0.9965 -0.4299 -0.2020
  300MOL0     C39486   4.800   6.361   2.025  0.7674  0.3617 -0.5442
  300MOL0     C39487   4.728   6.312   2.129 -0.3885  0.2856 -0.5046
  300MOL0     C39488   4.788   6.211   2.228  0.2400 -0.1123  1.2467
  300MOL0     C39489   4.677   6.110   2.275  1.1030 -0.3719 -0.0787
  300MOL0     C39490   4.729   6.044   2.407  0.1677 -0.2564 -0.6793
  300MOL0     C39491   4.628   5.941   2.471 -0.4712 -0.5089 -0.3359
  300MOL0     O39492   4.521   6.014   2.532  0.2492  0.3584  0.3744
  300MOL0     C39493   4.446   5.953   2.625  0.1848  0.2098  0.0915
  300MOL0     C39494   4.325   6.011   2.663  0.3932  0.3781 -0.0578
  300MOL0     C39495   4.226   5.953   2.744 -0.9423 -0.3253  0.2479
  300MOL0     C39496   4.251   5.836   2.813  0.3608 -0.0117  0.2400
  300MOL0     C39497   4.148   5.776   2.908  0.3759 -1.1160  0.1642
  300MOL0     O39498   4.012   5.824   2.914 -0.3067 -0.7034  0.6046
  300MOL0     C39499   3.955   5.791   3.031  0.4132 -0.2852 -0.0136
  300MOL0     C39500   3.895   5.902   3.107 -0.1873  0.3185  1.1817
  300MOL0     C39501   3.814   5.869   3.220 -0.2279 -0.8663  1.3042
  300MOL0     C39502   3.795   5.740   3.262  0.2196  0.7267 -0.4352
  300MOL0     O39503   3.726   5.692   3.372 -0.0739 -0.6700 -0.9317
  300MOL0     C39504   3.667   5.785   3.463 -0.2139 -0.5113 -0.0274
  300MOL0     C39505   3.590   5.706   3.571  0.0059 -0.3206  0.2478
  300MOL0     C39506   3.455   5.770   3.605 -0.4125  1.1598 -1.0753
  300MOL0     C39507   3.383   5.692   3.722  0.7798 -0.1231 -0.0936
  300MOL0     C39508   3.236   5.742   3.742  0.6163 -0.2268 -0.0762
  300MOL0     C39509   3.179   5.694   3.875 -0.0155 -0.6349 -1.0252
  300MOL0     C39510   3.043   5.761   3.903  0.2856  1.8066  0.9708
  300MOL0     C39511   3.008   5.764   4.047 -0.0891  0.0399 -0.7888
  300MOL0    Cl39512   2.857   5.849   4.063  0.0319  0.2452  0.2465
  300MOL0     C39513   3.855   5.637   3.192  0.1971  0.6930  1.1655
  300MOL0     C39514   3.929   5.659   3.070  0.1990  0.2700  0.4512
  300MOL0     O39515   4.197   5.691   2.974 -0.6103  0.1624 -0.3575
  300MOL0     C39516   4.375   5.773   2.785 -0.2213 -0.2394 -0.0668
  300MOL0     C39517   4.470   5.832   2.695  0.2266 -0.2202  0.6818
  300MOL0     N39518   4.608   6.376   2.137 -0.1272  0.3548 -0.6982
  300MOL0     N39519   4.599   6.456   2.040 -1.2340  0.0838 -0.2270
  300MOL0     C39520   5.658   6.880   1.306  0.4709  0.2364  0.9099
  300MOL0     C39521   5.781   6.938   1.269  0.6554  0.2768  1.0767
  300MOL0     C39522   6.210   7.057   1.221 -0.2257 -0.4596  0.2877
  300MOL0     C39523   6.305   6.981   1.157 -0.9929  0.2022 -0.8298
  300MOL0     C39524   6.436   7.040   1.144 -0.2845  0.3415 -0.6591
  300MOL0     C39525   6.471   7.170   1.171  1.0011  0.2644  0.2501
  300MOL0     O39526   6.591   7.227   1.150  0.2692  0.0396 -0.3794
  300MOL0     C39527   6.706   7.135   1.171 -0.5840 -0.4779  0.2512
  300MOL0     C39528   6.843   7.213   1.184 -0.0264  0.3817 -0.1193
  300MOL0     C39529   6.896   7.277   1.055  0.1565  0.4781 -0.2400
  300MOL0     C39530   7.028   7.345   1.065 -0.6226  0.4824 -0.3843
  300MOL0     C39531   7.127   7.252   1.093 -0.3362  0.7900 -0.8636
  300MOL0     C39532   7.216   7.182   1.127 -0.5034 -0.4857 -0.2601
  300MOL0     C39533   6.369   7.237   1.242  0.8422  0.6119  0.5297
  300MOL0     C39534   6.247   7.182   1.263  0.9692 -0.1395  0.3693
  300MOL0     H39535   5.840   7.144   1.527 -1.0003  0.6332 -0.9921
  300MOL0     H39536   5.593   7.049   1.573 -0.2187 -0.9582  0.0458
  300MOL0     H39537   5.487   6.673   1.416 -0.3618 -0.8035  2.1676
  300MOL0     H39538   5.396   6.770   1.307 -1.6692 -0.8563  0.3705
  300MOL0     H39539   5.315   6.699   1.601 -2.1837  1.9243 -0.0873
  300MOL0     H39540   5.298   6.597   1.467  0.3476  0.0287  2.5870
  300MOL0     H39541   5.164   6.820   1.368  3.4146 -1.1886 -1.4510
  300MOL0     H39542   5.166   6.865   1.541  0.4943 -0.3913  0.0618
  300MOL0     H39543   4.962   6.745   1.454 -2.0242 -1.7010  0.5394
  300MOL0     H39544   5.049   6.595   1.457  1.2988 -0.3105  0.1517
  300MOL0     H39545   5.034   6.779   1.695  1.0416 -0.8505 -0.0067
  300MOL0     H39546   5.101   6.614   1.689 -0.1046 -0.4801  0.3718
  300MOL0     H39547   4.877   6.523   1.631 -0.2889 -0.0046  0.7695
  300MOL0     H39548   4.805   6.682   1.635  1.1892  3.5030  1.9651
  300MOL0     H39549   4.956   6.565   1.867 -0.4107 -0.5199  0.4140
  300MOL0     H39550   4.851   6.710   1.874  0.9944 -0.8270  1.6461
  300MOL0     H39551   4.743   6.446   1.771  1.8466 -0.6588 -0.2719
  300MOL0     H39552   4.659   6.595   1.833  2.6187  2.4446 -0.1255
  300MOL0     H39553   4.903   6.338   1.999  0.9225  1.3752 -0.9069
  300MOL0     H39554   4.834   6.264   2.312  0.9542  1.1396  0.0889
  300MOL0     H39555   4.871   6.154   2.185  0.6785 -0.2246  2.2162
  300MOL0     H39556   4.663   6.026   2.207 -0.8663  0.4071 -0.7070
  300MOL0     H39557   4.581   6.161   2.293  0.0084 -3.0067  2.2247
  300MOL0     H39558   4.824   5.995   2.387 -1.1861 -3.1463 -0.6127
  300MOL0     H39559   4.742   6.128   2.476  1.6043  1.9141 -3.4267
  300MOL0     H39560   4.691   5.888   2.543  0.9692 -0.6417 -1.6257
  300MOL0     H39561   4.588   5.869   2.399 -1.8887  1.0343 -1.1390
  300MOL0     H39562   4.305   6.111   2.624 -1.4345 -0.4265 -1.2886
  300MOL0     H39563   4.134   6.008   2.761 -1.3929 -0.0798 -2.4424
  300MOL0     H39564   3.893   5.998   3.058  0.2222  0.2148  0.9593
  300MOL0     H39565   3.769   5.955   3.269 -1.8596 -0.3928 -0.8522
  300MOL0     H39566   3.594   5.851   3.414  0.9197  1.1399  0.3941
  300MOL0     H39567   3.750   5.845   3.503 -1.6812  2.2230 -0.8006
  300MOL0     H39568   3.644   5.686   3.664  0.0878 -1.3618 -0.0115
  300MOL0     H39569   3.561   5.611   3.527  1.6265 -0.6829 -0.1043
  300MOL0     H39570   3.396   5.762   3.513 -1.7117  0.4974 -0.2030
  300MOL0     H39571   3.471   5.872   3.642  2.2274  0.2492  0.5803
  300MOL0     H39572   3.386   5.587   3.693 -0.8255 -0.0928 -0.4649
  300MOL0     H39573   3.441   5.712   3.812  0.0006 -0.2294  0.4428
  300MOL0     H39574   3.176   5.709   3.657 -2.5861  3.2006  0.5619
  300MOL0     H39575   3.224   5.850   3.733  1.4045 -0.0401  0.9156
  300MOL0     H39576   3.248   5.708   3.958 -2.4626  0.6214  0.9502
  300MOL0     H39577   3.170   5.585   3.878 -2.2446 -0.4882 -0.4788
  300MOL0     H39578   3.044   5.867   3.876 -1.5730  1.6749  0.2926
  300MOL0     H39579   2.968   5.714   3.839  1.8563  0.2190  0.2255
  300MOL0     H39580   3.080   5.808   4.117 -0.7544 -1.2023  0.7514
  300MOL0     H39581   2.991   5.663   4.084 -1.3458  1.3407  2.5795
  300MOL0     H39582   3.827   5.540   3.232 -1.7844  2.2602  3.9046
  300MOL0     H39583   3.973   5.575   3.018  0.9889  0.8341  0.1762
  300MOL0     H39584   4.400   5.674   2.821  0.7328 -0.2880 -0.7845
  300MOL0     H39585   4.559   5.780   2.663  1.0878  2.8101 -2.2904
  300MOL0     H39586   5.609   6.810   1.239  0.9621  1.6027 -0.9484
  300MOL0     H39587   5.819   6.906   1.173 -0.7246  1.1568  0.1976
  300MOL0     H39588   6.293   6.884   1.110  0.7931  0.2346 -1.4471
  300MOL0     H39589   6.516   6.982   1.098  1.9320  2.9462 -0.3587
  300MOL0     H39590   6.732   7.059   1.096 -0.8632 -1.3976  1.0679
  300MOL0     H39591   6.692   7.092   1.270 -0.3565  2.3713  1.6251
  300MOL0     H39592   6.833   7.291   1.260 -0.2310  1.2413 -1.0071
  300MOL0     H39593   6.922   7.153   1.228  0.6393  1.3972  0.0888
  300MOL0     H39594   6.821   7.348   1.018 -3.0917 -1.8041  1.4754
  300MOL0     H39595   6.903   7.206   0.971 -1.4442 -1.2968  1.0375
  300MOL0     H39596   7.052   7.388   0.967  0.8488  1.1181  0.2235
  300MOL0     H39597   7.019   7.408   1.154  3.5804 -0.3853  0.8585
  300MOL0     H39598   7.306   7.133   1.158  0.1992  2.6454  3.4506
  300MOL0     H39599   6.395   7.339   1.271  0.6607  1.3273 -1.6820
  300MOL0     H39600   6.171   7.242   1.312  0.0697 -0.1076 -0.9771
  301MOL0     O39601   7.112   0.200   0.874  0.8089 -0.0690  0.2236
  301MOL0     C39602   7.164   0.085   0.880  0.7048 -1.2112 -0.6868
  301MOL0     O39603   7.099  -0.030   0.893  0.9236  0.1580 -1.0277
  301MOL0     C39604   6.963  -0.046   0.920 -0.6201 -0.7804  0.2261
  301MOL0     C39605   6.869   0.055   0.943 -0.0381  0.3754 -0.3487
  301MOL0     C39606   6.742   0.020   0.996  0.2216 -0.3443 -0.6512
  301MOL0     C39607   6.705  -0.109   1.010  0.0646  0.0445  0.6437
  301MOL0     O39608   6.583  -0.152   1.050  0.0027  0.2710 -0.6364
  301MOL0     C39609   6.459  -0.078   1.035  0.7913 -0.4637  0.1644
  301MOL0     C39610   6.353  -0.161   1.105 -0.7445  0.0929  0.5305
  301MOL0     C39611   6.240  -0.078   1.147 -0.2754 -0.2899  0.4957
  301MOL0     C39612   6.164  -0.148   1.256  0.0902 -0.0660 -0.3839
  301MOL0     C39613   6.045  -0.076   1.309  0.8281  0.1182 -0.2815
  301MOL0     C39614   5.940  -0.164   1.376 -1.1550  0.3587 -0.6589
  301MOL0     C39615   5.819  -0.087   1.418  0.2046 -0.3161  0.4978
  301MOL0     C39616   5.732  -0.169   1.524  0.6424 -0.1625  0.7358
  301MOL0     N39617   5.593  -0.136   1.535  0.1283  0.1632  0.6946
  301MOL0     C39618   5.535  -0.031   1.605  0.1398 -0.3389  0.3952
  301MOL0     C39619   5.406  -0.063   1.601 -0.0568 -0.2284  0.8712
  301MOL0     C39620   5.305   0.011   1.677  0.5534  0.1826 -0.1934
  301MOL0     C39621   5.214  -0.080   1.750 -0.2743  0.0540 -0.0718
  301MOL0     C39622   5.091  -0.012   1.810  0.7026  0.7316 -0.0218
  301MOL0     C39623   4.986  -0.118   1.852  0.6246  1.3961 -0.6299
  301MOL0     O39624   4.868  -0.132   1.764  0.1438 -0.0319  0.1763
  301MOL0     C39625   4.764  -0.041   1.781  0.3433  0.3744  0.1142
  301MOL0     C39626   4.769   0.076   1.859 -0.2674 -0.4144  0.4759
  301MOL0     C39627   4.666   0.173   1.848 -0.3188  0.5430  0.2265
  301MOL0     C39628   4.546   0.140   1.777 -1.2841  0.3623 -1.2049
  301MOL0     C39629   4.427   0.225   1.769  0.0532 -0.0746  0.8735
  301MOL0     O39630   4.334   0.198   1.667 -0.1251  0.0145 -0.4693
  301MOL0     C39631   4.215   0.265   1.659 -0.2812 -0.6008 -0.2978
  301MOL0     C39632   4.097   0.188   1.673  0.4131 -0.3805  0.0141
  301MOL0     C39633   3.973   0.260   1.651  0.7524 -0.2644  0.1964
  301MOL0     C39634   3.969   0.403   1.624  0.5640  1.1658 -0.3082
  301MOL0     O39635   3.852   0.465   1.600  0.0031 -0.5404  0.2071
  301MOL0     C39636   3.735   0.384   1.557 -0.6136 -0.2062  0.0900
  301MOL0     C39637   3.749   0.319   1.416 -0.7204 -0.5555  0.4522
  301MOL0     C39638   3.615   0.325   1.339 -0.8450  0.1754  1.0575
  301MOL0     C39639   3.504   0.266   1.428 -0.8276  0.6745  0.5316
  301MOL0     C39640   3.383   0.259   1.346 -0.1814  0.3684  0.2240
  301MOL0     C39641   3.260   0.218   1.437 -0.3730 -0.3422  0.4270
  301MOL0     C39642   3.138   0.174   1.353 -0.1975  0.2640  0.3172
  301MOL0     C39643   3.060   0.304   1.305  1.4061  0.2549 -0.3122
  301MOL0    Cl39644   2.928   0.260   1.193 -0.2159  0.1486  0.3158
  301MOL0     C39645   4.084   0.462   1.622 -0.1709 -0.1630  0.2083
  301MOL0     C39646   4.206   0.398   1.642 -0.2777 -0.2567  0.0229
  301MOL0     O39647   4.411   0.307   1.856 -0.4301  0.0539 -0.1609
  301MOL0     C39648   4.534   0.016   1.708 -0.6398 -0.0248  0.0924
  301MOL0     C39649   4.643  -0.069   1.710 -0.0206 -0.0577 -0.0944
  301MOL0     N39650   5.396  -0.176   1.519  0.2845 -1.2314  0.4143
  301MOL0     N39651   5.508  -0.218   1.467  0.3146 -0.5012 -0.6039
  301MOL0     C39652   6.801  -0.202   0.977 -0.2120  0.2095  0.1655
  301MOL0     C39653   6.926  -0.180   0.928 -0.3567  0.1104 -0.6249
  301MOL0     C39654   7.311   0.077   0.868  0.3627  0.2093  0.1280
  301MOL0     C39655   7.376  -0.048   0.840 -0.4465 -0.2302  0.0180
  301MOL0     C39656   7.518  -0.065   0.834  0.2270 -1.0864  0.4161
  301MOL0     C39657   7.606   0.048   0.844  0.4374 -0.0269 -0.2633
  301MOL0     O39658   7.736   0.021   0.806  0.1220 -0.0151 -0.6301
  301MOL0     C39659   7.850   0.106   0.832  0.8041  0.8433  0.6304
  301MOL0     C39660   7.926   0.032   0.937  0.5092  0.3869 -0.7248
  301MOL0     C39661   8.071   0.097   0.945 -0.1111 -0.4214 -0.7662
  301MOL0     C39662   8.150   0.042   1.066  0.0561 -0.6111  0.1255
  301MOL0     C39663   8.273   0.115   1.080  0.2791 -0.5411 -1.0610
  301MOL0     C39664   8.376   0.178   1.086  0.1471  0.3289  0.5177
  301MOL0     C39665   7.547   0.177   0.864 -0.4389  0.7934 -0.5124
  301MOL0     C39666   7.407   0.181   0.871  0.6460 -0.2728 -0.0304
  301MOL0     H39667   6.892   0.161   0.939  0.1080  0.2965 -1.9026
  301MOL0     H39668   6.657   0.087   1.007 -0.7285 -1.5901 -0.0912
  301MOL0     H39669   6.426  -0.043   0.937 -0.4447 -2.8370 -0.3525
  301MOL0     H39670   6.478   0.009   1.099  1.0384  0.5494 -1.2388
  301MOL0     H39671   6.393  -0.210   1.195  0.1283 -2.0823 -0.9558
  301MOL0     H39672   6.317  -0.234   1.032  2.5433 -0.5353 -0.6263
  301MOL0     H39673   6.176  -0.062   1.060 -0.0598 -0.9052  0.2186
  301MOL0     H39674   6.275   0.019   1.185 -0.2289 -0.2037  0.2308
  301MOL0     H39675   6.129  -0.238   1.205 -3.3049  1.0747 -0.2958
  301MOL0     H39676   6.224  -0.167   1.345 -1.2024  0.5597  0.6440
  301MOL0     H39677   5.995  -0.018   1.230 -1.2559 -0.8731  0.2409
  301MOL0     H39678   6.087  -0.011   1.386 -0.7906 -0.1485  0.8853
  301MOL0     H39679   5.992  -0.194   1.468 -1.2998 -1.5212 -1.1535
  301MOL0     H39680   5.915  -0.255   1.320  1.4614  0.2760 -1.8668
  301MOL0     H39681   5.849   0.009   1.461 -0.7207  0.7753 -1.1620
  301MOL0     H39682   5.769  -0.061   1.324  1.2438 -0.1483 -0.0263
  301MOL0     H39683   5.778  -0.164   1.622 -1.3312 -1.4493  1.7975
  301MOL0     H39684   5.740  -0.273   1.489  0.1260  0.3680 -1.1122
  301MOL0     H39685   5.581   0.051   1.658  3.7570 -0.8536 -1.5706
  301MOL0     H39686   5.240   0.081   1.623 -1.4016 -0.4269  1.2654
  301MOL0     H39687   5.367   0.065   1.750  2.0481 -1.1117 -0.4514
  301MOL0     H39688   5.270  -0.135   1.826 -1.5120  0.2531  1.0148
  301MOL0     H39689   5.175  -0.156   1.681  1.9241 -2.7325  1.5321
  301MOL0     H39690   5.132   0.048   1.892 -0.6416 -0.2680  1.4531
  301MOL0     H39691   5.043   0.055   1.738 -0.4414 -1.5294 -1.4646
  301MOL0     H39692   4.945  -0.090   1.949 -1.2701  0.1793 -1.0358
  301MOL0     H39693   5.032  -0.217   1.854 -1.9476  0.0574 -2.2470
  301MOL0     H39694   4.859   0.107   1.912 -1.6804  1.2747  2.0735
  301MOL0     H39695   4.676   0.276   1.879 -3.1375  1.1305 -0.5215
  301MOL0     H39696   4.098   0.081   1.688 -1.1139 -0.4003  0.1863
  301MOL0     H39697   3.887   0.194   1.650  1.2848 -1.1287 -3.1287
  301MOL0     H39698   3.648   0.451   1.560 -1.8186 -1.7205  0.3373
  301MOL0     H39699   3.711   0.306   1.629 -0.6116  0.6373  1.0168
  301MOL0     H39700   3.789   0.217   1.413  1.7284  0.3629 -1.0187
  301MOL0     H39701   3.812   0.381   1.352 -1.2350 -1.8759 -1.3979
  301MOL0     H39702   3.625   0.292   1.235 -2.3511  2.3331  0.1250
  301MOL0     H39703   3.588   0.430   1.322 -0.7684 -0.1012 -1.1447
  301MOL0     H39704   3.538   0.169   1.467  0.6622  1.6532  1.7846
  301MOL0     H39705   3.490   0.328   1.517  1.4504  4.4123 -1.4475
  301MOL0     H39706   3.403   0.183   1.270 -3.4762 -0.7272  0.2851
  301MOL0     H39707   3.368   0.358   1.301  1.5267  1.7301  2.4284
  301MOL0     H39708   3.242   0.288   1.520  3.0603  1.6158 -0.3057
  301MOL0     H39709   3.288   0.119   1.473 -2.8688 -2.8732 -3.7622
  301MOL0     H39710   3.170   0.116   1.266 -2.5017  2.1448 -1.9767
  301MOL0     H39711   3.075   0.109   1.413  0.9858  0.1025  1.4355
  301MOL0     H39712   3.118   0.375   1.245 -1.8996  1.5582 -2.2644
  301MOL0     H39713   3.027   0.359   1.393  2.2797  0.3806 -0.0520
  301MOL0     H39714   4.103   0.563   1.587  0.7894 -0.9906 -1.8177
  301MOL0     H39715   4.288   0.468   1.650  0.2147 -0.8645  0.4404
  301MOL0     H39716   4.445  -0.014   1.653 -0.5056  1.5373 -1.0387
  301MOL0     H39717   4.641  -0.158   1.648 -4.5523  0.0487 -0.4014
  301MOL0     H39718   6.772  -0.306   0.982 -2.9481  0.9309  2.4800
  301MOL0     H39719   7.001  -0.255   0.905  0.8196  1.2359 -0.5833
  301MOL0     H39720   7.322  -0.143   0.841  1.6256 -1.5857  3.5357
  301MOL0     H39721   7.566  -0.161   0.819 -0.2534 -1.1473 -0.8364
  301MOL0     H39722   7.827   0.210   0.856 -0.1506  2.2464 -4.9677
  301MOL0     H39723   7.921   0.113   0.749  0.3333  1.5226  0.2800
  301MOL0     H39724   7.877   0.039   1.035  2.2173  2.4487  0.0507
  301MOL0     H39725   7.925  -0.073   0.906 -1.2841 -0.2876  1.3692
  301MOL0     H39726   8.063   0.206   0.934 -2.4435 -0.7284 -3.0723
  301MOL0     H39727   8.117   0.075   0.848  3.3588 -2.4858  1.1266
  301MOL0     H39728   8.104   0.048   1.165  1.7095  0.7627  0.8606
  301MOL0     H39729   8.175  -0.061   1.038 -2.9438 -2.0214  2.1201
  301MOL0     H39730   8.464   0.240   1.089  0.1907  0.4422 -1.6856
  301MOL0     H39731   7.611   0.262   0.885  2.5860 -1.9356  2.5024
  301MOL0     H39732   7.355   0.276   0.876 -2.1518 -1.7857  2.8162
  302MOL0     O39733   1.575   6.498   9.952 -0.1678 -0.4343  0.0863
  302MOL0     C39734   1.667   6.419   9.975  0.7645  0.1358  0.1699
  302MOL0     O39735   1.644   6.290  10.020 -0.5460 -1.0109 -0.7527
  302MOL0     C39736   1.526   6.245  10.043  0.0040  0.8063 -0.0475
  302MOL0     C39737   1.471   6.140   9.970  0.4527  0.3335  0.0994
  302MOL0     C39738   1.344   6.082   9.995  0.1820 -0.4384 -0.0200
  302MOL0     C39739   1.267   6.135  10.098  0.6495  0.9318 -0.8038
  302MOL0     O39740   1.141   6.080  10.119  0.5524  0.6510 -0.8641
  302MOL0     C39741   1.113   6.025  10.254  0.1407 -0.2257  0.1424
  302MOL0     C39742   1.170   5.893  10.294 -0.0227  0.6561 -0.5217
  302MOL0     C39743   1.120   5.775  10.216  0.8565  0.0589  0.0368
  302MOL0     C39744   0.977   5.720  10.260  0.4092 -0.4846 -0.2390
  302MOL0     C39745   0.906   5.632  10.151 -0.4617 -0.2351 -0.2083
  302MOL0     C39746   0.782   5.563  10.212 -0.3317 -0.4341 -0.6006
  302MOL0     C39747   0.810   5.415  10.250  0.0630  0.4110  0.4083
  302MOL0     C39748   0.688   5.340  10.304  0.5143 -0.1328 -0.2151
  302MOL0     N39749   0.576   5.330  10.210  0.1728  0.3203  0.0535
  302MOL0     C39750   0.445   5.384  10.239 -0.7203  0.3306 -1.2011
  302MOL0     C39751   0.377   5.330  10.141  0.2866  0.3163 -0.6641
  302MOL0     C39752   0.231   5.332  10.121  0.2807 -0.2144 -0.6527
  302MOL0     C39753   0.154   5.232  10.222 -0.4556  0.0760  0.5279
  302MOL0     C39754  -0.003   5.228  10.212 -0.9879  0.4391  0.1265
  302MOL0     C39755  -0.053   5.168  10.075  0.1793 -0.1487  0.8229
  302MOL0     O39756  -0.183   5.232  10.047 -1.3671 -0.4589 -0.1425
  302MOL0     C39757  -0.295   5.184  10.102 -0.1774  0.6417  0.3755
  302MOL0     C39758  -0.416   5.246  10.056  0.1701  0.2305  0.7797
  302MOL0     C39759  -0.537   5.193  10.105  0.8785  0.4443 -0.4376
  302MOL0     C39760  -0.543   5.083  10.190  0.2606 -0.5602  0.8135
  302MOL0     C39761  -0.673   5.019  10.230 -0.2231 -0.2076  0.3439
  302MOL0     O39762  -0.782   5.099  10.212 -0.7044 -0.0691 -0.3199
  302MOL0     C39763  -0.903   5.061  10.265 -0.0269  0.3238  0.0531
  302MOL0     C39764  -0.958   4.936  10.263 -0.1302 -0.3201 -0.5037
  302MOL0     C39765  -1.080   4.913  10.322  0.7911 -0.2611 -0.7035
  302MOL0     C39766  -1.153   5.012  10.401 -0.0662 -0.0565 -0.6585
  302MOL0     O39767  -1.268   4.971  10.465 -0.3062 -0.6722 -0.3644
  302MOL0     C39768  -1.363   5.068  10.525 -0.0586  0.4247  0.7168
  302MOL0     C39769  -1.462   4.998  10.619  0.2201 -0.4745 -0.1766
  302MOL0     C39770  -1.548   4.896  10.546 -0.0486  0.0831  0.0742
  302MOL0     C39771  -1.666   4.829  10.624 -0.4597  0.0357  0.5500
  302MOL0     C39772  -1.706   4.704  10.558  0.8830  0.4432 -0.4843
  302MOL0     C39773  -1.821   4.632  10.631  0.3508 -0.3843  0.1343
  302MOL0     C39774  -1.855   4.500  10.564  0.9012 -0.1146  0.0358
  302MOL0     C39775  -1.943   4.517  10.436  0.3791 -0.0182  0.3026
  302MOL0    Cl39776  -2.084   4.637  10.459  0.8706  0.3109 -0.2903
  302MOL0     C39777  -1.092   5.140  10.406 -0.1588  0.6598  0.4324
  302MOL0     C39778  -0.974   5.160  10.334  0.2214 -0.4250 -0.6600
  302MOL0     O39779  -0.673   4.909  10.284  0.0252 -0.2718 -0.1802
  302MOL0     C39780  -0.427   5.028  10.227  1.3136 -0.7133  0.0898
  302MOL0     C39781  -0.305   5.076  10.190  0.1093  0.6282  0.3967
  302MOL0     N39782   0.450   5.248  10.058  0.2884  0.2168  0.2094
  302MOL0     N39783   0.574   5.247  10.100  0.1930  0.1907  1.0285
  302MOL0     C39784   1.324   6.238  10.175  0.0902 -0.1122 -0.2144
  302MOL0     C39785   1.455   6.289  10.157 -0.1781 -0.6761  0.0553
  302MOL0     C39786   1.800   6.460   9.908  0.1757  0.5338 -0.7168
  302MOL0     C39787   1.830   6.593   9.882 -0.1065  0.6319 -0.1634
  302MOL0     C39788   1.945   6.633   9.818  0.1892 -0.1847  0.6566
  302MOL0     C39789   2.040   6.544   9.777 -0.5026  0.2658  0.3935
  302MOL0     O39790   2.160   6.575   9.715  0.0140  0.2657 -0.2574
  302MOL0     C39791   2.172   6.722   9.702 -0.4775  0.3162 -0.5669
  302MOL0     C39792   2.300   6.758   9.639 -0.0054 -0.1178  0.0012
  302MOL0     C39793   2.419   6.725   9.728 -0.8246 -0.5302 -0.8238
  302MOL0     C39794   2.405   6.778   9.876  0.2678 -0.8465  0.5435
  302MOL0     C39795   2.526   6.761   9.955  0.6602  0.0331  0.6778
  302MOL0     C39796   2.616   6.752  10.032 -0.2898  0.0724  0.2784
  302MOL0     C39797   2.017   6.410   9.809  0.6916  0.1083 -0.5839
  302MOL0     C39798   1.895   6.366   9.866 -0.8959  0.7479  0.8118
  302MOL0     H39799   1.524   6.106   9.881 -1.0035 -0.4229 -0.5055
  302MOL0     H39800   1.315   6.003   9.926 -1.6604  0.3272 -0.1867
  302MOL0     H39801   1.004   6.018  10.263 -0.2855 -1.3607 -3.9433
  302MOL0     H39802   1.143   6.096  10.331 -0.5598 -0.1217  0.3257
  302MOL0     H39803   1.145   5.871  10.399 -2.8532 -3.4525 -1.8099
  302MOL0     H39804   1.279   5.900  10.288  0.0371 -0.8609 -1.8971
  302MOL0     H39805   1.193   5.694  10.213  0.7240 -0.0386 -1.4883
  302MOL0     H39806   1.112   5.806  10.111 -3.5811 -1.0586 -0.1600
  302MOL0     H39807   0.976   5.672  10.358  0.2938 -0.6804 -0.3331
  302MOL0     H39808   0.917   5.807  10.285 -0.6647  0.4500 -5.0239
  302MOL0     H39809   0.976   5.551  10.128 -2.5952 -1.6447 -2.2601
  302MOL0     H39810   0.883   5.682  10.057  0.6940  0.5897 -0.0711
  302MOL0     H39811   0.702   5.570  10.138 -0.3922 -1.2872 -0.6252
  302MOL0     H39812   0.751   5.612  10.305  0.8905 -1.1989  0.2539
  302MOL0     H39813   0.834   5.368  10.154  0.6512  0.0135  0.7459
  302MOL0     H39814   0.900   5.403  10.311 -0.2227  1.2997  1.0283
  302MOL0     H39815   0.644   5.369  10.400  0.7010 -1.3375  0.2643
  302MOL0     H39816   0.721   5.237  10.323  2.6255  0.0578 -2.4245
  302MOL0     H39817   0.432   5.446  10.327  4.5948  1.4661 -0.8379
  302MOL0     H39818   0.212   5.322  10.014 -0.3649  0.2469 -0.5867
  302MOL0     H39819   0.201   5.432  10.155  1.8981 -0.8360  3.2208
  302MOL0     H39820   0.170   5.258  10.327  1.3823 -0.2235  0.3441
  302MOL0     H39821   0.206   5.138  10.203  0.0356  0.3565  0.4800
  302MOL0     H39822  -0.043   5.151  10.279  0.9366 -1.2152 -0.4966
  302MOL0     H39823  -0.041   5.329  10.227 -1.4230  0.7058 -2.2762
  302MOL0     H39824  -0.068   5.060  10.081  1.9416 -0.6616 -1.9863
  302MOL0     H39825   0.011   5.189   9.988 -1.7715 -3.3252 -1.6055
  302MOL0     H39826  -0.430   5.328   9.986  3.1183 -0.9314 -1.3462
  302MOL0     H39827  -0.625   5.232  10.054  1.4779  0.5946 -1.3789
  302MOL0     H39828  -0.913   4.847  10.220 -0.5857 -1.5656  1.4067
  302MOL0     H39829  -1.125   4.815  10.329 -2.1942  1.0982  2.7361
  302MOL0     H39830  -1.420   5.114  10.445 -1.4818  1.1599  2.1046
  302MOL0     H39831  -1.319   5.154  10.576 -3.6962  2.2530  1.0794
  302MOL0     H39832  -1.526   5.069  10.673 -3.3562 -3.2422 -0.3725
  302MOL0     H39833  -1.399   4.953  10.697  1.2724  1.2704  0.0219
  302MOL0     H39834  -1.482   4.813  10.519 -0.2648 -0.3042  0.7202
  302MOL0     H39835  -1.584   4.940  10.453 -2.2982  0.3167  0.9938
  302MOL0     H39836  -1.634   4.805  10.725 -0.7592 -0.8509  0.4468
  302MOL0     H39837  -1.745   4.902  10.645  0.0653  0.1301  2.3100
  302MOL0     H39838  -1.623   4.635  10.541  0.1498 -0.2209 -1.5139
  302MOL0     H39839  -1.737   4.737  10.459  1.3662  1.1233 -0.4126
  302MOL0     H39840  -1.906   4.700  10.634  1.8171  1.7170 -2.1364
  302MOL0     H39841  -1.792   4.603  10.733  0.7571  0.3211  0.2211
  302MOL0     H39842  -1.767   4.437  10.550 -0.1355 -1.3544 -1.1360
  302MOL0     H39843  -1.924   4.442  10.625 -0.9774 -0.9767 -2.7450
  302MOL0     H39844  -1.995   4.426  10.403 -0.7220  0.3965  0.8174
  302MOL0     H39845  -1.871   4.553  10.362 -0.3563 -0.4128 -0.6278
  302MOL0     H39846  -1.150   5.225  10.441 -1.3546  0.0076  0.1176
  302MOL0     H39847  -0.925   5.256  10.342  1.1135 -0.8660 -0.6889
  302MOL0     H39848  -0.434   4.924  10.258 -2.2034 -1.2971 -2.0098
  302MOL0     H39849  -0.212   5.023  10.208 -0.4925  0.3342  3.0820
  302MOL0     H39850   1.268   6.282  10.258  1.8364  0.5602  0.6571
  302MOL0     H39851   1.494   6.365  10.224  0.7152 -0.9836 -0.1029
  302MOL0     H39852   1.755   6.665   9.913  1.2949  1.3223  1.8615
  302MOL0     H39853   1.939   6.740   9.797 -1.1150 -0.1614  1.0464
  302MOL0     H39854   2.159   6.761   9.803 -0.0166 -0.6706 -0.1028
  302MOL0     H39855   2.092   6.766   9.643 -2.5218 -0.2134  1.6519
  302MOL0     H39856   2.303   6.713   9.539 -1.9113 -0.1409 -0.0856
  302MOL0     H39857   2.290   6.865   9.618 -1.7450 -0.3912 -0.8047
  302MOL0     H39858   2.508   6.772   9.684  0.2233 -0.4734  1.2176
  302MOL0     H39859   2.430   6.616   9.733  0.5573 -0.5505 -3.0101
  302MOL0     H39860   2.375   6.884   9.879 -0.1307 -0.9499  0.3423
  302MOL0     H39861   2.329   6.713   9.921  0.2289 -0.2377  1.3841
  302MOL0     H39862   2.692   6.720  10.100  0.9074  1.2624 -0.4616
  302MOL0     H39863   2.092   6.339   9.776  1.4789  0.8527 -0.4182
  302MOL0     H39864   1.893   6.258   9.874  1.5054  0.7110  1.8848
  303MOL0     O39865   4.865   4.889   3.782  0.5446  0.2461  0.2361
  303MOL0     C39866   4.879   4.813   3.873 -0.0412  0.2452 -1.8137
  303MOL0     O39867   4.807   4.811   3.989  0.5181  0.1195 -0.2970
  303MOL0     C39868   4.690   4.884   4.001  0.3805  1.0013 -1.0454
  303MOL0     C39869   4.699   5.025   4.016  0.6232  0.7342 -0.4819
  303MOL0     C39870   4.584   5.091   4.060  0.4372  0.2397 -0.3662
  303MOL0     C39871   4.463   5.029   4.100  0.3810  0.2357 -0.0148
  303MOL0     O39872   4.359   5.107   4.148  0.4530  0.2620 -0.7084
  303MOL0     C39873   4.361   5.252   4.146 -0.5755  0.2324  0.2548
  303MOL0     C39874   4.246   5.308   4.231 -0.3358  0.6922  1.1359
  303MOL0     C39875   4.270   5.304   4.384  0.4570 -0.6389  0.7451
  303MOL0     C39876   4.329   5.182   4.436 -1.0974 -0.7344  1.1067
  303MOL0     C39877   4.308   5.179   4.590  0.5849 -0.4815 -0.2568
  303MOL0     C39878   4.356   5.051   4.656  0.5993  0.0616  0.5550
  303MOL0     C39879   4.331   5.048   4.799 -0.3713 -0.2019  1.0600
  303MOL0     C39880   4.339   4.905   4.852 -1.0013 -0.2264 -0.1958
  303MOL0     N39881   4.476   4.856   4.877 -0.4913 -0.3151 -0.2327
  303MOL0     C39882   4.561   4.905   4.971 -0.4731  0.1303  0.0120
  303MOL0     C39883   4.662   4.821   4.978 -0.7464  0.2632  0.5301
  303MOL0     C39884   4.769   4.826   5.081  0.2746  0.3806  0.6603
  303MOL0     C39885   4.906   4.871   5.017 -0.1945 -0.1068  0.2474
  303MOL0     C39886   5.016   4.900   5.117  0.4747 -0.1147  0.2267
  303MOL0     C39887   5.050   4.798   5.221 -0.7500  0.7529 -0.3078
  303MOL0     O39888   5.197   4.811   5.249 -0.0430  0.1951 -0.6847
  303MOL0     C39889   5.264   4.725   5.334  0.6384  1.2821  0.1872
  303MOL0     C39890   5.197   4.636   5.419 -0.2164 -0.0740  0.2091
  303MOL0     C39891   5.277   4.557   5.515  0.3487 -0.3024 -0.5071
  303MOL0     C39892   5.413   4.563   5.519 -0.2411  0.1271 -0.2545
  303MOL0     C39893   5.496   4.480   5.608  0.3304  1.1426 -0.4116
  303MOL0     O39894   5.629   4.507   5.621 -0.7749  0.0592 -0.2267
  303MOL0     C39895   5.707   4.424   5.704  0.3279 -0.2316 -0.2611
  303MOL0     C39896   5.694   4.287   5.715 -0.9111  0.5039  0.3717
  303MOL0     C39897   5.779   4.209   5.795  0.6665 -0.5360  0.0271
  303MOL0     C39898   5.878   4.271   5.863 -0.3166  0.9241 -0.3647
  303MOL0     O39899   5.977   4.200   5.923  0.1690  1.0035 -0.4869
  303MOL0     C39900   6.008   4.070   5.871  0.0264 -0.2993 -0.0120
  303MOL0     C39901   6.142   4.014   5.893 -0.4865 -0.2739 -0.2899
  303MOL0     C39902   6.252   4.081   5.800 -0.4514  0.2240 -0.0329
  303MOL0     C39903   6.401   4.063   5.836  0.2727  0.6086 -0.1337
  303MOL0     C39904   6.505   4.122   5.743 -0.2279  0.2340  0.6353
  303MOL0     C39905   6.499   4.269   5.735 -0.3161 -0.1163 -0.4493
  303MOL0     C39906   6.621   4.315   5.644  0.6487 -0.0659 -0.6728
  303MOL0     C39907   6.639   4.465   5.650  0.1241  0.0731  1.0158
  303MOL0    Cl39908   6.514   4.556   5.565  0.1198  0.2593 -0.3442
  303MOL0     C39909   5.883   4.413   5.865  0.7282 -0.3143  0.3444
  303MOL0     C39910   5.798   4.490   5.786 -0.3329 -0.4833 -0.9394
  303MOL0     O39911   5.428   4.412   5.686 -0.1385  0.2497  0.1835
  303MOL0     C39912   5.473   4.657   5.435  0.2937 -0.2384  0.4009
  303MOL0     C39913   5.404   4.737   5.338 -0.5582 -0.0130  0.7852
  303MOL0     N39914   4.641   4.726   4.883  0.4351 -0.4323  0.0636
  303MOL0     N39915   4.530   4.748   4.822 -0.1587 -0.5782 -0.6701
  303MOL0     C39916   4.458   4.883   4.089  0.3088 -0.9875 -0.0039
  303MOL0     C39917   4.569   4.817   4.039  0.2850 -0.3360 -0.3279
  303MOL0     C39918   4.990   4.710   3.849  0.3095  0.5751 -0.5704
  303MOL0     C39919   5.065   4.693   3.728  0.4198 -0.5736  0.4571
  303MOL0     C39920   5.142   4.586   3.715  0.4558  0.2023  0.5638
  303MOL0     C39921   5.151   4.487   3.807 -0.2725  0.4308 -0.3855
  303MOL0     O39922   5.240   4.388   3.787  0.7729  0.8447 -0.6114
  303MOL0     C39923   5.191   4.254   3.778  1.3350 -0.1841  0.3205
  303MOL0     C39924   5.133   4.238   3.638 -0.6232  0.7690 -0.1786
  303MOL0     C39925   5.091   4.099   3.610  0.3049  0.9578 -0.2397
  303MOL0     C39926   4.989   4.045   3.705 -0.2104  0.2444 -0.6390
  303MOL0     C39927   4.954   3.910   3.669  0.0471  0.3276 -0.0700
  303MOL0     C39928   4.924   3.793   3.628 -0.3682  0.2507 -0.6778
  303MOL0     C39929   5.086   4.497   3.935 -0.1845  0.3406  1.1556
  303MOL0     C39930   5.000   4.610   3.954  0.9267 -0.1714  0.3424
  303MOL0     H39931   4.795   5.075   4.007  0.6874  1.0633  1.5512
  303MOL0     H39932   4.590   5.200   4.066  1.5160  0.1389  0.9093
  303MOL0     H39933   4.347   5.298   4.048 -2.6052 -0.3138  0.2373
  303MOL0     H39934   4.452   5.300   4.182  0.3062 -1.5758  0.5377
  303MOL0     H39935   4.158   5.249   4.204 -0.2470 -0.4547  3.1109
  303MOL0     H39936   4.239   5.413   4.204  1.1008 -0.3919 -4.8906
  303MOL0     H39937   4.169   5.316   4.425 -1.4216 -1.8869 -3.0526
  303MOL0     H39938   4.331   5.389   4.418  1.4177 -0.9515 -0.1565
  303MOL0     H39939   4.277   5.090   4.408 -2.3935 -0.3291  2.0950
  303MOL0     H39940   4.437   5.180   4.416 -0.6208  1.3951  3.0116
  303MOL0     H39941   4.202   5.190   4.614  0.9688  0.2286  1.2315
  303MOL0     H39942   4.361   5.265   4.632  0.5282  0.3729 -1.8582
  303MOL0     H39943   4.463   5.029   4.643  0.7678  0.9840  0.3548
  303MOL0     H39944   4.305   4.967   4.607  2.2849 -2.4219  2.7377
  303MOL0     H39945   4.406   5.106   4.855  0.3374  0.6924 -0.7162
  303MOL0     H39946   4.230   5.085   4.820 -0.5767 -0.1533  0.0510
  303MOL0     H39947   4.292   4.839   4.778 -1.1912  0.9966 -1.2155
  303MOL0     H39948   4.281   4.896   4.945  2.6763  1.6768  2.5185
  303MOL0     H39949   4.551   4.994   5.033 -0.6807 -0.3868  0.7267
  303MOL0     H39950   4.777   4.728   5.130 -3.0253 -0.7075 -0.7054
  303MOL0     H39951   4.745   4.900   5.158 -1.1707 -0.4565  1.0611
  303MOL0     H39952   4.888   4.954   4.948  0.3982  1.2107  1.6122
  303MOL0     H39953   4.944   4.795   4.948 -0.7562 -1.9619  1.9079
  303MOL0     H39954   5.103   4.922   5.054 -0.1465  1.1924 -0.2273
  303MOL0     H39955   4.981   4.990   5.169  0.5673 -1.6190  3.0856
  303MOL0     H39956   5.020   4.698   5.189 -1.6654  0.3320  1.6960
  303MOL0     H39957   4.990   4.812   5.312 -1.4310 -0.1135 -0.6081
  303MOL0     H39958   5.090   4.638   5.434 -0.5602 -0.7389 -1.8078
  303MOL0     H39959   5.236   4.489   5.589 -1.1776  0.3500 -0.7079
  303MOL0     H39960   5.618   4.242   5.652 -0.2362  0.8658 -0.7341
  303MOL0     H39961   5.756   4.103   5.804  1.3587 -0.6666  0.2565
  303MOL0     H39962   5.990   4.075   5.764 -3.5547 -1.5713  0.3876
  303MOL0     H39963   5.933   3.995   5.900 -0.2630 -0.9850 -2.3480
  303MOL0     H39964   6.146   3.905   5.890 -3.3300 -0.4805  0.5312
  303MOL0     H39965   6.161   4.033   5.999 -4.1989  0.4328  0.4028
  303MOL0     H39966   6.240   4.189   5.811 -1.2205  0.1269  0.1290
  303MOL0     H39967   6.243   4.037   5.700  2.6211 -0.1332 -0.2577
  303MOL0     H39968   6.417   4.096   5.940 -0.3687 -0.3819  0.2864
  303MOL0     H39969   6.422   3.956   5.843 -1.3897  0.3117  0.7741
  303MOL0     H39970   6.493   4.073   5.646 -1.3187  0.7314  0.5071
  303MOL0     H39971   6.598   4.081   5.784 -0.2094  0.4268  0.7854
  303MOL0     H39972   6.506   4.307   5.837 -1.0575 -0.7366 -0.1614
  303MOL0     H39973   6.399   4.293   5.697 -1.4549 -1.1813  1.7045
  303MOL0     H39974   6.708   4.263   5.685 -1.0990 -0.6290  2.7454
  303MOL0     H39975   6.608   4.274   5.543 -1.1503 -3.6071  0.8132
  303MOL0     H39976   6.732   4.491   5.598  0.1215 -1.9871 -0.1200
  303MOL0     H39977   6.655   4.498   5.753  3.2176  0.5658  0.4950
  303MOL0     H39978   5.955   4.469   5.924 -0.0478  1.5917 -0.4626
  303MOL0     H39979   5.800   4.597   5.803 -1.4772 -0.8904  2.5388
  303MOL0     H39980   5.580   4.674   5.444  0.2600 -0.4761  1.3433
  303MOL0     H39981   5.456   4.802   5.267  0.3785  1.6071  2.8551
  303MOL0     H39982   4.365   4.833   4.116  0.5767 -0.4775  1.9888
  303MOL0     H39983   4.559   4.709   4.047 -1.0779 -0.2933 -1.0455
  303MOL0     H39984   5.049   4.759   3.644  0.6807 -1.8980 -0.6661
  303MOL0     H39985   5.189   4.580   3.617 -1.9726  0.3474 -0.6924
  303MOL0     H39986   5.111   4.246   3.852  0.7593  2.2166  0.0129
  303MOL0     H39987   5.276   4.188   3.801  2.8474  1.8976  1.0654
  303MOL0     H39988   5.047   4.305   3.626 -0.0495  1.6705  0.6057
  303MOL0     H39989   5.219   4.269   3.578 -0.1665  1.9938  1.0489
  303MOL0     H39990   5.173   4.027   3.603 -2.4488 -2.5043  0.0018
  303MOL0     H39991   5.050   4.094   3.509 -2.0245 -2.5512  0.6743
  303MOL0     H39992   5.021   4.054   3.809 -2.4437  1.8029 -0.0100
  303MOL0     H39993   4.899   4.108   3.708  0.7937  1.6877  2.3819
  303MOL0     H39994   4.888   3.699   3.592  0.1292  0.0043 -0.5395
  303MOL0     H39995   5.098   4.407   3.995 -0.1971  0.6198  1.5774
  303MOL0     H39996   4.946   4.617   4.048  2.0528 -1.5371  1.1208
  304MOL0     O39997   6.995   5.407   3.372 -0.0239  1.0379 -0.5606
  304MOL0     C39998   7.089   5.463   3.428  0.8497 -0.7727 -0.5111
  304MOL0     O39999   7.098   5.493   3.558 -0.3702  0.1011  0.1278
  304MOL0     C40000   7.016   5.457   3.659 -0.4465  1.1637  0.0187
  304MOL0     C40001   7.069   5.474   3.790 -0.6072 -0.8780  0.1121
  304MOL0     C40002   6.983   5.476   3.904  0.4344 -0.0309 -0.4683
  304MOL0     C40003   6.846   5.444   3.890 -0.3080  0.0660  0.1140
  304MOL0     O40004   6.759   5.422   3.997  0.0461 -0.2955  1.3491
  304MOL0     C40005   6.790   5.461   4.130  0.9736  0.3143  0.7175
  304MOL0     C40006   6.864   5.351   4.203 -0.4638 -0.1092 -0.2445
  304MOL0     C40007   6.792   5.224   4.228  0.5297  0.1879  0.0481
  304MOL0     C40008   6.876   5.114   4.308  0.2072  0.1333 -0.4043
  304MOL0     C40009   6.883   5.132   4.457 -0.4540  0.0298 -0.3052
  304MOL0     C40010   6.955   5.009   4.515 -0.0669 -0.4970 -0.1809
  304MOL0     C40011   6.985   5.011   4.667  1.1501 -0.7487  0.0935
  304MOL0     C40012   7.090   4.905   4.686 -0.9019 -0.3756  0.4423
  304MOL0     N40013   7.133   4.886   4.827  0.4342  0.0196 -0.2265
  304MOL0     C40014   7.220   4.788   4.871  1.1096 -0.5143 -0.4773
  304MOL0     C40015   7.218   4.789   5.001  0.2710 -0.5283  0.1457
  304MOL0     C40016   7.318   4.721   5.088  0.1471  0.0032  0.5009
  304MOL0     C40017   7.459   4.784   5.063 -1.0185 -0.4029 -0.5325
  304MOL0     C40018   7.564   4.700   5.138  0.0355 -0.4630  0.1815
  304MOL0     C40019   7.707   4.730   5.098 -0.2654 -0.5061 -0.0923
  304MOL0     O40020   7.788   4.658   5.191  0.4097  0.1991  0.3365
  304MOL0     C40021   7.927   4.667   5.198 -0.0026  0.9592  0.8478
  304MOL0     C40022   7.996   4.580   5.278  0.2098 -0.3399 -0.2525
  304MOL0     C40023   8.132   4.583   5.290  0.0782  0.0226  0.3581
  304MOL0     C40024   8.208   4.672   5.214  0.1295 -1.0094 -0.4720
  304MOL0     C40025   8.353   4.685   5.235 -0.2804  0.1822  0.3429
  304MOL0     O40026   8.404   4.601   5.327  0.2810  0.1101  0.0873
  304MOL0     C40027   8.545   4.572   5.331  0.0922  0.5769 -1.0663
  304MOL0     C40028   8.622   4.566   5.218  0.0730  0.3153 -0.1531
  304MOL0     C40029   8.765   4.559   5.223 -1.0597  0.3708 -0.5026
  304MOL0     C40030   8.836   4.559   5.348  0.0333  0.0396 -0.2693
  304MOL0     O40031   8.975   4.558   5.338  0.2292  0.3721  0.0600
  304MOL0     C40032   9.044   4.523   5.458 -1.0239 -0.8117 -0.6412
  304MOL0     C40033   9.177   4.464   5.413 -0.5379 -0.1443 -0.3853
  304MOL0     C40034   9.274   4.543   5.325  0.7531 -0.3577  0.4177
  304MOL0     C40035   9.235   4.555   5.174  0.1646  0.7047  0.3124
  304MOL0     C40036   9.354   4.586   5.082 -0.1833 -0.9984  0.2534
  304MOL0     C40037   9.452   4.464   5.064 -0.3817 -0.2659  0.0771
  304MOL0     C40038   9.538   4.505   4.952 -0.4928  0.3708 -0.2376
  304MOL0     C40039   9.677   4.443   4.975 -0.5299 -0.3472 -0.6194
  304MOL0    Cl40040   9.776   4.520   5.114  0.4066 -0.1755 -0.4463
  304MOL0     C40041   8.754   4.558   5.459 -0.0737 -0.0792 -0.2320
  304MOL0     C40042   8.610   4.568   5.453  0.2281  0.0359  0.9149
  304MOL0     O40043   8.414   4.772   5.175  0.3663 -0.2531 -0.4606
  304MOL0     C40044   8.145   4.760   5.127  1.3583  0.2872  0.2078
  304MOL0     C40045   8.010   4.756   5.120  0.8665 -0.0854  1.1437
  304MOL0     N40046   7.124   4.878   5.044  0.3159  0.1707 -0.3205
  304MOL0     N40047   7.071   4.934   4.938 -0.0449 -0.5110  0.3347
  304MOL0     C40048   6.791   5.447   3.760 -0.9032 -0.4080  0.9333
  304MOL0     C40049   6.877   5.461   3.646  0.2967 -0.8715  1.2179
  304MOL0     C40050   7.213   5.499   3.358  1.1039  0.1190 -0.3404
  304MOL0     C40051   7.223   5.477   3.223 -0.9498  0.0182  0.6349
  304MOL0     C40052   7.346   5.499   3.165 -0.5884 -0.7413  0.1361
  304MOL0     C40053   7.457   5.539   3.241  0.5055  0.0131  0.2053
  304MOL0     O40054   7.571   5.571   3.169 -0.6080  0.1043  0.0531
  304MOL0     C40055   7.704   5.548   3.227 -0.0757 -0.0557  0.7211
  304MOL0     C40056   7.806   5.515   3.119 -0.6010  0.1981  0.7564
  304MOL0     C40057   7.950   5.501   3.182 -0.1530 -0.5216  0.0625
  304MOL0     C40058   8.050   5.436   3.090 -0.2083 -0.3359  0.5986
  304MOL0     C40059   8.183   5.464   3.140 -0.4616  0.4227  0.0813
  304MOL0     C40060   8.294   5.475   3.192  0.2841  0.5979  0.5924
  304MOL0     C40061   7.443   5.564   3.378 -0.3152  0.3158 -0.2154
  304MOL0     C40062   7.319   5.545   3.437 -1.0818 -0.0787  0.6403
  304MOL0     H40063   7.174   5.496   3.808 -0.1833 -2.0718 -0.8290
  304MOL0     H40064   7.028   5.504   3.999 -1.6804  1.2266  0.2207
  304MOL0     H40065   6.687   5.470   4.167  0.3745  0.6707 -0.9495
  304MOL0     H40066   6.844   5.555   4.145  1.8832 -0.5233  3.2633
  304MOL0     H40067   6.889   5.404   4.295 -0.7259  0.6766 -0.6197
  304MOL0     H40068   6.961   5.334   4.155 -0.6101 -1.6217 -0.0554
  304MOL0     H40069   6.755   5.182   4.134 -1.2433  0.7023  0.4775
  304MOL0     H40070   6.710   5.253   4.294  1.0898  1.9157  0.0508
  304MOL0     H40071   6.844   5.011   4.292  0.5013  0.0386 -0.3988
  304MOL0     H40072   6.979   5.112   4.270  0.8535  4.0145  0.7101
  304MOL0     H40073   6.779   5.138   4.492 -0.8948 -1.5161 -1.2793
  304MOL0     H40074   6.940   5.222   4.480  0.6288 -0.5910 -0.5172
  304MOL0     H40075   7.055   5.010   4.472 -0.5412  1.1071 -1.3029
  304MOL0     H40076   6.902   4.921   4.476  0.5558  0.6886 -4.0706
  304MOL0     H40077   7.031   5.106   4.696 -0.0831  0.2521 -1.0771
  304MOL0     H40078   6.895   4.985   4.724 -0.6554  3.0004 -0.7106
  304MOL0     H40079   7.185   4.919   4.635 -1.2131  3.4356  0.6333
  304MOL0     H40080   7.051   4.812   4.644 -1.9879  1.2993 -2.4873
  304MOL0     H40081   7.298   4.738   4.814 -0.2839 -0.3393 -2.6189
  304MOL0     H40082   7.315   4.617   5.054 -0.0935 -0.8487  2.9175
  304MOL0     H40083   7.291   4.721   5.194  3.6471 -1.1195  1.5578
  304MOL0     H40084   7.452   4.885   5.107 -0.7479 -1.5728  2.4618
  304MOL0     H40085   7.486   4.789   4.958  0.6966 -0.0596 -0.1013
  304MOL0     H40086   7.549   4.712   5.246  1.8529 -0.2667  0.4414
  304MOL0     H40087   7.547   4.593   5.119  1.1824 -0.6926  0.3875
  304MOL0     H40088   7.742   4.833   5.096 -0.4042 -0.4385  0.6291
  304MOL0     H40089   7.730   4.683   5.002  1.1373 -0.9605  0.4350
  304MOL0     H40090   7.942   4.516   5.348 -0.8113  2.1975  1.4395
  304MOL0     H40091   8.181   4.516   5.360 -2.0744 -2.0656  0.0202
  304MOL0     H40092   8.574   4.569   5.121 -2.9010  2.8958  1.2388
  304MOL0     H40093   8.818   4.548   5.129 -0.7894 -0.1550 -0.2925
  304MOL0     H40094   9.002   4.447   5.524  0.2363 -1.0939 -0.1319
  304MOL0     H40095   9.076   4.611   5.514  0.0864 -1.1917 -0.6463
  304MOL0     H40096   9.146   4.372   5.361  1.0888  0.0387 -1.7351
  304MOL0     H40097   9.236   4.444   5.503 -0.4723 -1.1589 -0.6433
  304MOL0     H40098   9.377   4.506   5.328  2.5769  3.9523 -1.3887
  304MOL0     H40099   9.278   4.647   5.358  3.0416 -0.6905  1.4157
  304MOL0     H40100   9.203   4.452   5.154  5.2284 -1.1517  0.4091
  304MOL0     H40101   9.159   4.631   5.152 -1.3722 -0.3589  1.6552
  304MOL0     H40102   9.412   4.670   5.123 -2.0059  1.4581 -1.8996
  304MOL0     H40103   9.311   4.617   4.986  3.2237 -0.0659 -1.1646
  304MOL0     H40104   9.398   4.378   5.024 -1.2322 -0.1352  0.8975
  304MOL0     H40105   9.506   4.437   5.156 -1.7218  0.1517  1.0313
  304MOL0     H40106   9.502   4.463   4.857 -2.6557 -2.1770  1.5677
  304MOL0     H40107   9.557   4.612   4.938  2.7199 -0.0443  0.1950
  304MOL0     H40108   9.730   4.456   4.881 -0.6216  4.0264 -0.2665
  304MOL0     H40109   9.662   4.335   4.981  2.5666 -0.7756  1.4483
  304MOL0     H40110   8.798   4.560   5.558 -0.2086 -2.2494 -0.0993
  304MOL0     H40111   8.555   4.567   5.546 -1.3606 -2.4910  0.0798
  304MOL0     H40112   8.202   4.840   5.080  1.5463  0.9523  1.5035
  304MOL0     H40113   7.963   4.832   5.058  2.6580  0.5516  0.4957
  304MOL0     H40114   6.685   5.449   3.737  0.0075  2.3540 -4.8861
  304MOL0     H40115   6.837   5.478   3.546  0.7244  0.3831  1.2517
  304MOL0     H40116   7.141   5.445   3.160  0.2223  0.5013 -1.2306
  304MOL0     H40117   7.354   5.494   3.057 -1.0511  3.0605 -0.2149
  304MOL0     H40118   7.699   5.463   3.295  2.9379 -2.6904 -1.9665
  304MOL0     H40119   7.737   5.636   3.282 -0.3158  0.9599 -0.7083
  304MOL0     H40120   7.783   5.419   3.072  2.5601  0.8533 -2.6427
  304MOL0     H40121   7.807   5.590   3.039  0.1858 -2.6121 -2.0615
  304MOL0     H40122   7.948   5.454   3.281 -0.5727  0.7191  0.6763
  304MOL0     H40123   7.982   5.603   3.205 -0.6479  0.1958 -2.1726
  304MOL0     H40124   8.036   5.328   3.081  3.0844 -0.6827 -2.3321
  304MOL0     H40125   8.029   5.480   2.992 -0.5654  2.2103  1.7185
  304MOL0     H40126   8.388   5.480   3.244  0.4270 -1.0894  0.5555
  304MOL0     H40127   7.527   5.613   3.426 -0.0800  1.0218 -1.3050
  304MOL0     H40128   7.315   5.561   3.544 -0.5932  0.4747  0.5783
  305MOL0     O40129   2.373  10.857   8.822  0.2971  0.1523  0.3887
  305MOL0     C40130   2.346  10.760   8.748 -0.6664  0.4285  0.3471
  305MOL0     O40131   2.226  10.727   8.700  0.4883 -0.0481 -0.1433
  305MOL0     C40132   2.109  10.771   8.761 -0.4457  0.0136 -0.8840
  305MOL0     C40133   2.104  10.793   8.903  0.5401  0.3801  0.1975
  305MOL0     C40134   1.979  10.803   8.964 -0.7055  0.3657  0.5709
  305MOL0     C40135   1.861  10.792   8.888  0.0160  0.3020 -0.0624
  305MOL0     O40136   1.736  10.819   8.951 -0.3498  0.2394  0.0932
  305MOL0     C40137   1.624  10.742   8.926 -0.1782  0.8132  0.5511
  305MOL0     C40138   1.489  10.802   8.889  0.3796  0.0109 -0.2042
  305MOL0     C40139   1.383  10.694   8.876 -1.0339  0.1317  0.1464
  305MOL0     C40140   1.251  10.747   8.827 -0.0422  0.2789 -0.7123
  305MOL0     C40141   1.134  10.650   8.849 -0.6376 -0.5157 -0.8227
  305MOL0     C40142   1.085  10.631   8.997  0.0607 -0.4413  0.0850
  305MOL0     C40143   1.060  10.764   9.078 -0.0249 -0.0758  0.0082
  305MOL0     C40144   0.949  10.851   9.022 -0.4494  0.2291 -0.0786
  305MOL0     N40145   0.809  10.788   9.018 -0.0543 -0.0805  0.0702
  305MOL0     C40146   0.727  10.782   9.129  0.2311  0.2169 -1.0109
  305MOL0     C40147   0.609  10.736   9.086  0.3848 -0.5764 -0.9282
  305MOL0     C40148   0.493  10.707   9.182  0.4688  0.5254  0.4136
  305MOL0     C40149   0.384  10.619   9.097 -1.1215  0.0733  0.2237
  305MOL0     C40150   0.255  10.612   9.164 -0.2404  1.4180  0.1252
  305MOL0     C40151   0.158  10.533   9.079 -0.0216 -1.0985 -0.0710
  305MOL0     O40152   0.031  10.528   9.146 -0.2547 -0.0930 -0.4396
  305MOL0     C40153  -0.092  10.499   9.085 -0.7838 -0.1319  0.2934
  305MOL0     C40154  -0.096  10.464   8.952  0.2114 -0.0633  0.1253
  305MOL0     C40155  -0.218  10.413   8.890  0.2611 -0.1901  0.2404
  305MOL0     C40156  -0.340  10.413   8.955  0.6054  0.4659 -1.1087
  305MOL0     C40157  -0.469  10.377   8.895 -0.3967 -0.9403  0.2455
  305MOL0     O40158  -0.482  10.379   8.763 -0.0033  0.2212 -0.1900
  305MOL0     C40159  -0.606  10.389   8.704  0.7969 -0.9713 -0.8395
  305MOL0     C40160  -0.707  10.480   8.754 -0.2954 -0.1152  0.1818
  305MOL0     C40161  -0.830  10.476   8.698 -0.1717 -0.0685 -0.6734
  305MOL0     C40162  -0.859  10.380   8.599  0.2732  0.4137  0.5653
  305MOL0     O40163  -0.986  10.390   8.548 -0.1250  0.5622  0.7968
  305MOL0     C40164  -1.043  10.288   8.466 -0.7018  0.1791 -0.6297
  305MOL0     C40165  -1.186  10.322   8.450  0.0243 -1.2773  0.2944
  305MOL0     C40166  -1.250  10.235   8.347 -0.9215 -0.3294  0.2640
  305MOL0     C40167  -1.392  10.281   8.335 -0.1108 -0.2574 -0.6789
  305MOL0     C40168  -1.459  10.186   8.242  0.1686  1.1614  0.0782
  305MOL0     C40169  -1.600  10.241   8.203 -0.0691 -0.1956  0.3065
  305MOL0     C40170  -1.659  10.141   8.091 -0.2765 -0.3635 -0.6377
  305MOL0     C40171  -1.808  10.140   8.081 -0.4741 -0.3270  0.3565
  305MOL0    Cl40172  -1.863  10.295   8.040 -0.0960 -0.4896 -0.1456
  305MOL0     C40173  -0.767  10.287   8.551 -0.4592 -0.2584 -0.0215
  305MOL0     C40174  -0.638  10.292   8.602 -0.0905  0.1142  0.5609
  305MOL0     O40175  -0.559  10.346   8.965  0.8135  0.0717 -0.0481
  305MOL0     C40176  -0.337  10.440   9.094 -0.6253 -0.0765 -0.0762
  305MOL0     C40177  -0.209  10.480   9.159  0.2881 -0.8816 -0.7583
  305MOL0     N40178   0.615  10.722   8.943 -0.4495  0.8026  0.2697
  305MOL0     N40179   0.732  10.754   8.906  1.1581 -0.1608  0.6726
  305MOL0     C40180   1.865  10.776   8.746  0.1990  0.6075 -0.2839
  305MOL0     C40181   1.992  10.761   8.683 -0.3154 -0.6703 -0.9911
  305MOL0     C40182   2.452  10.683   8.694 -0.5977  0.5439  0.5031
  305MOL0     C40183   2.418  10.578   8.599 -0.0817  0.3697  0.6377
  305MOL0     C40184   2.527  10.509   8.540 -0.3714  0.2224 -0.2228
  305MOL0     C40185   2.656  10.530   8.576 -0.2762 -0.2329 -0.3492
  305MOL0     O40186   2.744  10.460   8.503 -0.0591  0.4629 -0.0902
  305MOL0     C40187   2.878  10.495   8.517 -0.1217 -0.0340 -0.7847
  305MOL0     C40188   2.964  10.437   8.409 -0.3103 -0.0531  0.2708
  305MOL0     C40189   2.976  10.286   8.431 -0.4078  0.3812  1.1273
  305MOL0     C40190   3.064  10.209   8.339 -0.4726 -0.2739 -0.5865
  305MOL0     C40191   3.196  10.264   8.339  0.0674 -0.2087  0.0843
  305MOL0     C40192   3.304  10.318   8.328  0.0611  0.4565  0.1758
  305MOL0     C40193   2.689  10.637   8.660 -0.4021 -0.4167 -0.3117
  305MOL0     C40194   2.590  10.708   8.722  0.2472  0.3469 -0.5141
  305MOL0     H40195   2.185  10.816   8.971  0.1748  0.5457  0.5814
  305MOL0     H40196   1.964  10.837   9.066 -1.0954  0.4694  0.4824
  305MOL0     H40197   1.598  10.673   9.006 -0.9003 -2.1108 -1.9850
  305MOL0     H40198   1.651  10.675   8.843 -1.6431  0.2372  0.4988
  305MOL0     H40199   1.491  10.858   8.794 -1.5281  1.7765  0.7181
  305MOL0     H40200   1.459  10.876   8.964  1.3035  1.4682 -1.2114
  305MOL0     H40201   1.377  10.647   8.974  0.6847 -2.0356 -0.6924
  305MOL0     H40202   1.417  10.611   8.813  1.3975 -1.6267  3.4631
  305MOL0     H40203   1.237  10.842   8.880 -0.3640  0.3378 -0.8952
  305MOL0     H40204   1.262  10.770   8.720 -1.4664  2.5880 -0.4397
  305MOL0     H40205   1.163  10.548   8.821  0.6213 -0.4133  0.0136
  305MOL0     H40206   1.051  10.688   8.789  0.0312  2.1576 -0.1943
  305MOL0     H40207   1.161  10.564   9.039  1.8747  0.9849 -0.8075
  305MOL0     H40208   0.987  10.583   9.005 -0.4621  0.6946  0.5648
  305MOL0     H40209   1.041  10.740   9.183  0.6371  0.5616  0.2773
  305MOL0     H40210   1.151  10.823   9.078  0.2119 -0.3447  2.5926
  305MOL0     H40211   0.983  10.892   8.926 -3.3894 -0.6412 -1.6445
  305MOL0     H40212   0.938  10.938   9.086 -0.9195 -1.6362  2.5290
  305MOL0     H40213   0.761  10.803   9.230  0.0850 -1.2109 -0.6485
  305MOL0     H40214   0.429  10.794   9.204 -1.9055 -1.0710  0.1881
  305MOL0     H40215   0.524  10.656   9.273  0.3649 -1.1838 -0.4679
  305MOL0     H40216   0.417  10.521   9.063 -0.0307  1.5442 -3.4930
  305MOL0     H40217   0.370  10.672   9.002  0.7855  1.8824  0.8769
  305MOL0     H40218   0.255  10.567   9.264 -1.8376  1.6637  0.2559
  305MOL0     H40219   0.210  10.710   9.178 -1.7122  0.7840  0.0546
  305MOL0     H40220   0.183  10.432   9.045  1.8142  0.1603 -2.7956
  305MOL0     H40221   0.144  10.581   8.982  2.5860  0.5621  0.2979
  305MOL0     H40222  -0.007  10.475   8.890 -1.6551  0.8876 -2.5952
  305MOL0     H40223  -0.234  10.389   8.785  1.1315 -0.2599  0.1174
  305MOL0     H40224  -0.688  10.543   8.840 -0.0064  2.9676 -1.9824
  305MOL0     H40225  -0.894  10.560   8.724  0.3256 -0.3223  1.6713
  305MOL0     H40226  -1.037  10.192   8.519 -0.0728  1.7084  2.2857
  305MOL0     H40227  -0.986  10.280   8.373 -1.1789 -0.1959 -0.8945
  305MOL0     H40228  -1.194  10.427   8.421 -1.4460 -1.3061  0.5366
  305MOL0     H40229  -1.242  10.325   8.544 -1.0993 -2.2347 -0.3203
  305MOL0     H40230  -1.239  10.134   8.386  3.0158 -1.4159 -2.9869
  305MOL0     H40231  -1.201  10.248   8.250  0.7787  1.9899  1.3437
  305MOL0     H40232  -1.444  10.294   8.431 -2.4230  2.1683 -2.1033
  305MOL0     H40233  -1.383  10.385   8.302  0.7363  0.2535  1.0309
  305MOL0     H40234  -1.474  10.096   8.301 -0.0980  0.2142 -1.3794
  305MOL0     H40235  -1.401  10.158   8.154  0.9807 -2.0286  1.4919
  305MOL0     H40236  -1.595  10.338   8.152  2.6120 -2.1020 -3.5609
  305MOL0     H40237  -1.665  10.244   8.291  0.6072 -3.3010  1.0006
  305MOL0     H40238  -1.621  10.165   7.991  0.2706 -0.0135 -0.3487
  305MOL0     H40239  -1.621  10.040   8.111  0.5721  0.2485  0.9863
  305MOL0     H40240  -1.862  10.116   8.173  0.0913  0.8033  0.9980
  305MOL0     H40241  -1.845  10.071   8.004 -1.9953  3.5060 -2.7614
  305MOL0     H40242  -0.785  10.236   8.457 -0.7290  1.3903 -0.9058
  305MOL0     H40243  -0.566  10.225   8.556 -1.5869 -0.8772 -0.4555
  305MOL0     H40244  -0.429  10.429   9.152 -1.4403  0.7583 -1.1547
  305MOL0     H40245  -0.211  10.485   9.267  2.2241 -1.4884 -0.6617
  305MOL0     H40246   1.779  10.764   8.682  0.7383 -1.6657 -0.6759
  305MOL0     H40247   1.990  10.756   8.574  0.3109 -2.9716 -0.9621
  305MOL0     H40248   2.317  10.549   8.570  0.4842 -1.1029  0.0697
  305MOL0     H40249   2.502  10.429   8.472 -0.3440  0.5224 -0.5954
  305MOL0     H40250   2.910  10.457   8.614  1.2640  0.6855 -0.9234
  305MOL0     H40251   2.891  10.604   8.511  1.7755 -0.1904 -0.0913
  305MOL0     H40252   2.922  10.465   8.312  1.1559 -2.4964 -1.1720
  305MOL0     H40253   3.065  10.476   8.427 -0.0711 -0.4962 -0.0914
  305MOL0     H40254   2.877  10.241   8.417  0.4797 -0.6982 -3.3287
  305MOL0     H40255   3.012  10.256   8.530  0.5463 -0.0048  0.6775
  305MOL0     H40256   3.059  10.109   8.383 -1.6326 -0.9097 -2.0937
  305MOL0     H40257   3.017  10.198   8.241 -1.3349 -1.1424 -0.0917
  305MOL0     H40258   3.392  10.378   8.316 -0.2303  1.3146  1.9416
  305MOL0     H40259   2.790  10.663   8.690 -1.4321  0.7730  2.4401
  305MOL0     H40260   2.621  10.789   8.787 -1.4418  0.3941  0.2803
  306MOL0     O40261   4.255   7.714   0.162 -0.7750  0.4076  0.2916
  306MOL0     C40262   4.250   7.668   0.053 -0.7034  0.4557  1.3782
  306MOL0     O40263   4.148   7.678  -0.040  0.2565  0.3312 -0.1399
  306MOL0     C40264   4.029   7.757  -0.019 -0.6141  0.5510 -0.1102
  306MOL0     C40265   3.980   7.832  -0.124 -0.5774 -0.8944  0.0306
  306MOL0     C40266   3.862   7.911  -0.109 -0.2313  0.0748 -0.5388
  306MOL0     C40267   3.804   7.923   0.016 -0.5062  0.0360  0.7109
  306MOL0     O40268   3.694   7.996   0.041 -0.7816  0.6669 -0.6192
  306MOL0     C40269   3.614   8.001   0.157 -0.1927  0.5112 -0.4692
  306MOL0     C40270   3.557   8.139   0.169  0.2632  0.4382  0.8108
  306MOL0     C40271   3.458   8.145   0.287  0.3388 -0.1334  0.6644
  306MOL0     C40272   3.389   8.279   0.299 -0.5007 -0.4235  0.3541
  306MOL0     C40273   3.275   8.273   0.399 -0.1257 -0.2330 -0.1582
  306MOL0     C40274   3.234   8.415   0.457 -0.5586  0.4661  0.7208
  306MOL0     C40275   3.154   8.497   0.351  1.1085  0.1838 -0.0497
  306MOL0     C40276   3.089   8.622   0.411  0.7494  0.2175  0.1358
  306MOL0     N40277   2.982   8.575   0.497  0.0334 -0.7999  0.3708
  306MOL0     C40278   2.852   8.567   0.452  0.3514 -0.5046  0.0521
  306MOL0     C40279   2.780   8.561   0.565 -1.3897  0.2867 -0.0994
  306MOL0     C40280   2.631   8.553   0.566  0.7927 -0.3254 -0.4456
  306MOL0     C40281   2.571   8.416   0.595  0.0654  1.0212 -0.4642
  306MOL0     C40282   2.527   8.340   0.476 -0.3272 -0.0061 -0.4926
  306MOL0     C40283   2.409   8.398   0.389 -0.0303  0.2667  0.0872
  306MOL0     O40284   2.305   8.432   0.474 -0.2756 -0.2249 -0.4258
  306MOL0     C40285   2.207   8.532   0.451 -0.7517 -0.4820  0.0038
  306MOL0     C40286   2.111   8.542   0.544 -0.1616 -0.9589  0.2882
  306MOL0     C40287   2.018   8.649   0.539  0.0062 -0.2176 -1.0743
  306MOL0     C40288   2.023   8.732   0.430 -0.2317  0.1706 -0.0446
  306MOL0     C40289   1.926   8.840   0.416 -0.2985  0.8786 -0.0165
  306MOL0     O40290   1.834   8.843   0.519 -0.6516 -0.3455  0.6233
  306MOL0     C40291   1.756   8.954   0.518 -0.0619  0.4344 -1.3006
  306MOL0     C40292   1.626   8.930   0.492 -0.8051  0.3743  1.6074
  306MOL0     C40293   1.532   9.033   0.508 -0.1133 -0.2943  0.0321
  306MOL0     C40294   1.562   9.150   0.572 -0.6186  0.0296  0.3159
  306MOL0     O40295   1.465   9.254   0.591  0.3308  0.1797  0.5490
  306MOL0     C40296   1.506   9.366   0.513  0.4486  0.6005 -0.0004
  306MOL0     C40297   1.383   9.382   0.417  0.1982 -0.5184  0.2586
  306MOL0     C40298   1.268   9.462   0.485 -0.5123  0.3098  0.1109
  306MOL0     C40299   1.143   9.469   0.393 -0.5237  0.2969  0.3447
  306MOL0     C40300   1.018   9.487   0.481 -0.9751  0.5281  0.0210
  306MOL0     C40301   0.896   9.506   0.395 -0.7369  0.7639  0.9665
  306MOL0     C40302   0.773   9.509   0.494 -0.9170 -0.7819  0.0878
  306MOL0     C40303   0.641   9.477   0.427 -0.0170 -0.3169  0.7251
  306MOL0    Cl40304   0.513   9.507   0.547  0.6154 -0.0304  0.3494
  306MOL0     C40305   1.698   9.174   0.608  0.6578  0.0254  0.4518
  306MOL0     C40306   1.796   9.073   0.588 -0.2061 -0.3992  0.0477
  306MOL0     O40307   1.933   8.918   0.322  0.2437  0.2007 -0.6193
  306MOL0     C40308   2.115   8.720   0.326  0.4018  0.5620  0.2108
  306MOL0     C40309   2.206   8.617   0.338 -0.5260  0.7248 -0.4586
  306MOL0     N40310   2.863   8.557   0.676  1.1061  0.0714 -0.9381
  306MOL0     N40311   2.980   8.576   0.633  0.7090 -0.0259  0.7735
  306MOL0     C40312   3.863   7.855   0.131  0.7083 -0.8426  0.1584
  306MOL0     C40313   3.961   7.768   0.109 -0.7219 -1.1668  0.2840
  306MOL0     C40314   4.367   7.587   0.016 -0.5635 -0.2857 -0.1105
  306MOL0     C40315   4.439   7.506   0.104  0.6092 -0.3189  0.9936
  306MOL0     C40316   4.554   7.440   0.051  0.4795  0.0218  0.0859
  306MOL0     C40317   4.601   7.464  -0.080 -0.0599  0.3613  0.2449
  306MOL0     O40318   4.719   7.420  -0.130  0.6366 -0.2011  0.0314
  306MOL0     C40319   4.830   7.426  -0.029 -0.7315  0.0824  0.2145
  306MOL0     C40320   4.950   7.357  -0.095 -0.1822 -0.2049  0.9791
  306MOL0     C40321   4.921   7.206  -0.104  0.0162  0.7600  0.3222
  306MOL0     C40322   5.035   7.113  -0.103  0.4583 -0.6453  1.2090
  306MOL0     C40323   5.141   7.120  -0.208 -0.0616  0.1157 -0.0563
  306MOL0     C40324   5.225   7.116  -0.308  0.4668  0.1553 -0.2928
  306MOL0     C40325   4.527   7.548  -0.162 -0.7388  0.1656  0.7548
  306MOL0     C40326   4.413   7.606  -0.117  0.1096 -0.3416  0.1397
  306MOL0     H40327   4.017   7.839  -0.226  0.6455  0.6985  0.5449
  306MOL0     H40328   3.820   7.978  -0.183  1.2349  1.2454 -0.3615
  306MOL0     H40329   3.669   7.990   0.251 -0.9294  4.2574  0.5757
  306MOL0     H40330   3.539   7.922   0.144 -0.2533  0.7767 -1.8843
  306MOL0     H40331   3.496   8.138   0.078  1.2899  1.0072  0.0949
  306MOL0     H40332   3.631   8.219   0.177  0.2666  0.4640  0.5542
  306MOL0     H40333   3.523   8.134   0.374  1.1550 -1.3003 -0.0600
  306MOL0     H40334   3.384   8.064   0.281 -1.0287  1.0376  1.1931
  306MOL0     H40335   3.470   8.348   0.322  1.0282 -0.1854 -4.6059
  306MOL0     H40336   3.361   8.310   0.198 -0.6232 -0.0269  0.5060
  306MOL0     H40337   3.309   8.221   0.489 -3.0615 -0.5667  0.8655
  306MOL0     H40338   3.193   8.220   0.351 -2.0299  1.4313  1.0805
  306MOL0     H40339   3.328   8.466   0.479 -1.8848  1.8925  3.7167
  306MOL0     H40340   3.179   8.408   0.551 -0.5180  0.7415  0.7657
  306MOL0     H40341   3.216   8.519   0.263 -1.4792  3.5162 -1.2662
  306MOL0     H40342   3.077   8.432   0.309 -1.5089  3.6585 -1.1193
  306MOL0     H40343   3.048   8.692   0.338 -1.1773 -0.5506  0.4259
  306MOL0     H40344   3.172   8.665   0.468  2.3619 -0.6359 -1.4780
  306MOL0     H40345   2.809   8.569   0.352 -1.2130  0.9877  0.7137
  306MOL0     H40346   2.575   8.588   0.479  1.6370  0.7271 -0.5931
  306MOL0     H40347   2.608   8.617   0.652 -1.4869  0.1303 -1.3360
  306MOL0     H40348   2.482   8.422   0.659  0.0369  0.3314 -0.4275
  306MOL0     H40349   2.640   8.363   0.661 -0.9410  0.2222 -0.0149
  306MOL0     H40350   2.612   8.315   0.412 -1.1983  2.4941 -2.8027
  306MOL0     H40351   2.497   8.245   0.521 -0.0275  1.4146  3.0320
  306MOL0     H40352   2.376   8.322   0.319  1.0964  1.0057 -1.3067
  306MOL0     H40353   2.438   8.485   0.329  0.4298  0.3113  0.3680
  306MOL0     H40354   2.094   8.465   0.619 -0.2832 -1.2485 -0.0353
  306MOL0     H40355   1.946   8.645   0.620  1.6418 -3.3655  0.3886
  306MOL0     H40356   1.594   8.841   0.439 -2.0471  1.6554  0.1083
  306MOL0     H40357   1.430   9.009   0.477 -0.3089  0.1680  0.3039
  306MOL0     H40358   1.597   9.352   0.452  2.0787 -0.5880  2.5520
  306MOL0     H40359   1.525   9.452   0.577  2.5989  0.1985 -0.0264
  306MOL0     H40360   1.343   9.282   0.398  0.3503 -1.2634  3.3191
  306MOL0     H40361   1.406   9.431   0.322  0.8700  2.9498  2.0195
  306MOL0     H40362   1.309   9.561   0.503  0.6180 -0.7072  4.2458
  306MOL0     H40363   1.245   9.418   0.583  0.2735 -1.9325 -0.6525
  306MOL0     H40364   1.149   9.552   0.322 -1.5866  1.9882  2.1213
  306MOL0     H40365   1.135   9.372   0.342  2.4184  0.0135  0.2921
  306MOL0     H40366   1.032   9.579   0.539  2.1426  0.4776 -0.4646
  306MOL0     H40367   1.017   9.391   0.533  1.1960 -2.3271 -4.5423
  306MOL0     H40368   0.874   9.429   0.321  0.0148  0.7011  0.8022
  306MOL0     H40369   0.903   9.595   0.333 -0.1949 -1.3913 -2.3015
  306MOL0     H40370   0.785   9.455   0.588 -0.2352  0.8942  1.0095
  306MOL0     H40371   0.782   9.612   0.530  2.4137 -1.5377  1.7964
  306MOL0     H40372   0.652   9.374   0.390 -3.3481 -0.2440 -0.7809
  306MOL0     H40373   0.606   9.539   0.344  1.7117  0.5807  0.6151
  306MOL0     H40374   1.726   9.269   0.653  0.9114  0.5644 -0.8204
  306MOL0     H40375   1.901   9.091   0.611 -0.3737  0.2797  0.2901
  306MOL0     H40376   2.107   8.786   0.239 -0.9112 -1.5330 -1.3638
  306MOL0     H40377   2.290   8.611   0.269  1.8651  4.4917  1.7731
  306MOL0     H40378   3.823   7.868   0.231  1.5486 -0.1493  0.4124
  306MOL0     H40379   3.993   7.706   0.192  0.4851  0.7557  1.3149
  306MOL0     H40380   4.414   7.503   0.210  1.3459 -2.3591  1.1513
  306MOL0     H40381   4.610   7.381   0.123 -0.5948 -0.9540  0.1525
  306MOL0     H40382   4.811   7.374   0.066  2.7455  1.0120  1.5787
  306MOL0     H40383   4.865   7.525   0.000 -0.3119 -0.8142  3.1167
  306MOL0     H40384   4.961   7.392  -0.198 -2.4658 -0.7052  0.4947
  306MOL0     H40385   5.043   7.382  -0.043 -0.4365 -0.6018  1.6418
  306MOL0     H40386   4.866   7.176  -0.193  1.4337  1.3271 -0.7964
  306MOL0     H40387   4.861   7.181  -0.016 -3.9565  0.3227 -2.2829
  306MOL0     H40388   5.093   7.124  -0.010  1.1102  0.4022  0.7014
  306MOL0     H40389   5.007   7.008  -0.108  0.3786 -0.6449  1.6005
  306MOL0     H40390   5.287   7.105  -0.395  0.1497  2.1120 -0.8172
  306MOL0     H40391   4.559   7.572  -0.263  0.0202  0.2814  1.0182
  306MOL0     H40392   4.357   7.662  -0.192 -0.1776  1.4864  1.6544
  307MOL0     O40393   5.298   1.336   5.333 -1.1451 -0.3032  0.3396
  307MOL0     C40394   5.294   1.239   5.260 -0.2060 -0.2043 -0.9926
  307MOL0     O40395   5.187   1.200   5.181  0.3821  0.6358  0.5662
  307MOL0     C40396   5.063   1.269   5.179 -0.3517 -0.0485 -0.3275
  307MOL0     C40397   4.958   1.199   5.118 -0.7420 -0.4388 -0.2250
  307MOL0     C40398   4.841   1.268   5.077  0.6635  0.8915 -0.0248
  307MOL0     C40399   4.817   1.396   5.109  0.7755 -0.6565  0.3743
  307MOL0     O40400   4.692   1.448   5.081 -0.1470  0.1006  0.4744
  307MOL0     C40401   4.683   1.588   5.032  0.7243  0.3711  0.4574
  307MOL0     C40402   4.531   1.633   5.045 -1.3436 -0.1356  0.6172
  307MOL0     C40403   4.520   1.775   4.988  0.6692 -1.0707 -0.2297
  307MOL0     C40404   4.375   1.825   4.985  0.0506  0.7785 -0.1354
  307MOL0     C40405   4.290   1.759   4.866 -0.3843  0.7332 -0.6861
  307MOL0     C40406   4.162   1.836   4.869 -0.3056 -0.5461 -0.3848
  307MOL0     C40407   4.072   1.805   4.752 -0.5624 -0.5795  0.6041
  307MOL0     C40408   3.921   1.818   4.780  0.2176 -0.3348 -0.5122
  307MOL0     N40409   3.864   1.707   4.849  0.1093  0.3528 -0.7961
  307MOL0     C40410   3.790   1.611   4.786  0.1796 -0.3425  0.8890
  307MOL0     C40411   3.762   1.522   4.878  0.7816  0.1738  0.6696
  307MOL0     C40412   3.689   1.392   4.842 -0.3667 -0.7874 -0.3902
  307MOL0     C40413   3.545   1.404   4.799  0.5408  0.5345 -0.6737
  307MOL0     C40414   3.489   1.266   4.742  0.5327 -0.0835 -0.3555
  307MOL0     C40415   3.356   1.273   4.673 -0.2761 -0.6258 -0.3764
  307MOL0     O40416   3.256   1.347   4.746 -0.4784  0.0095  0.8216
  307MOL0     C40417   3.124   1.320   4.739 -1.1541 -0.9030  0.0942
  307MOL0     C40418   3.058   1.369   4.847 -0.1122  0.5709 -0.3137
  307MOL0     C40419   2.928   1.324   4.871 -0.2866  0.5483  1.0281
  307MOL0     C40420   2.856   1.235   4.784 -0.0945  0.4545 -0.6879
  307MOL0     C40421   2.727   1.169   4.818  0.4509 -0.1498  0.5740
  307MOL0     O40422   2.689   1.049   4.774 -0.3409  0.5114  0.2604
  307MOL0     C40423   2.558   1.015   4.759  0.2747  0.0868 -0.1297
  307MOL0     C40424   2.454   1.075   4.825  1.0636 -0.0604 -0.3268
  307MOL0     C40425   2.322   1.025   4.816 -0.1064  0.8273 -0.4668
  307MOL0     C40426   2.303   0.900   4.751  0.3341  0.3640  1.5781
  307MOL0     O40427   2.176   0.841   4.735 -0.0404  0.4135  0.3831
  307MOL0     C40428   2.057   0.874   4.815 -0.4913 -0.8792  0.1716
  307MOL0     C40429   1.954   0.756   4.814  0.3781  0.6125  0.7202
  307MOL0     C40430   1.862   0.739   4.932  0.3506 -0.5828 -0.4980
  307MOL0     C40431   1.746   0.649   4.885 -1.0217  0.2684 -0.4312
  307MOL0     C40432   1.648   0.641   4.999 -0.2041  0.0170 -1.2697
  307MOL0     C40433   1.511   0.583   4.962 -0.6792  0.4041 -0.3161
  307MOL0     C40434   1.436   0.506   5.072 -1.2062  0.1752 -0.9598
  307MOL0     C40435   1.291   0.481   5.051  0.4276 -0.0094  0.5804
  307MOL0    Cl40436   1.267   0.446   4.873  0.5758  0.3266 -0.3233
  307MOL0     C40437   2.413   0.842   4.678  0.1658 -0.1115 -0.2026
  307MOL0     C40438   2.533   0.906   4.668  0.5615  0.1606 -0.3976
  307MOL0     O40439   2.665   1.247   4.884  0.1016 -0.2671  0.2100
  307MOL0     C40440   2.926   1.195   4.667 -0.8243  0.6787 -0.7863
  307MOL0     C40441   3.064   1.236   4.648  0.0414 -0.2960  0.4104
  307MOL0     N40442   3.824   1.568   4.997  0.2776  0.2793  0.6191
  307MOL0     N40443   3.879   1.679   4.979  0.9172  0.4096  0.4696
  307MOL0     C40444   4.920   1.466   5.163 -0.1273 -0.5284 -0.3588
  307MOL0     C40445   5.046   1.405   5.203 -0.3699 -0.5783  0.6472
  307MOL0     C40446   5.417   1.149   5.257  0.7425  0.4407  0.4250
  307MOL0     C40447   5.531   1.166   5.326  0.8638  0.9204 -1.4850
  307MOL0     C40448   5.648   1.081   5.325  1.0711  0.9553 -0.3533
  307MOL0     C40449   5.641   0.972   5.236  0.0585  0.4560 -0.5029
  307MOL0     O40450   5.733   0.877   5.204 -0.2190  0.9608  0.8832
  307MOL0     C40451   5.836   0.853   5.300 -0.1080 -0.2676  0.7736
  307MOL0     C40452   5.898   0.714   5.280 -0.4948  0.0682  0.2207
  307MOL0     C40453   5.958   0.709   5.142 -0.1395  0.4375 -0.2829
  307MOL0     C40454   6.098   0.642   5.132  0.5824  0.2653  0.4126
  307MOL0     C40455   6.204   0.721   5.201 -1.1116  0.3214 -0.2926
  307MOL0     C40456   6.295   0.793   5.235 -0.6887 -0.6289  0.6007
  307MOL0     C40457   5.524   0.948   5.162  0.0055 -0.6278 -0.6786
  307MOL0     C40458   5.411   1.032   5.175  0.5399 -0.4508  0.3690
  307MOL0     H40459   4.984   1.098   5.089 -0.9821 -0.0726 -1.8521
  307MOL0     H40460   4.755   1.218   5.034  0.4390  0.6048  0.7458
  307MOL0     H40461   4.717   1.599   4.929  2.7267 -1.8451  0.7876
  307MOL0     H40462   4.741   1.651   5.100  3.1059 -0.0972 -1.0177
  307MOL0     H40463   4.503   1.609   5.148  0.9636 -0.9794  1.1024
  307MOL0     H40464   4.472   1.573   4.974 -2.1815  2.9176 -1.4743
  307MOL0     H40465   4.564   1.789   4.889 -1.8528  2.8041 -1.0177
  307MOL0     H40466   4.579   1.839   5.054 -1.0591  0.8715 -0.4735
  307MOL0     H40467   4.317   1.823   5.078 -1.8902  0.1026 -1.2989
  307MOL0     H40468   4.384   1.931   4.959  2.2092  0.7874  0.4891
  307MOL0     H40469   4.268   1.653   4.884  1.0173  0.6991  1.1294
  307MOL0     H40470   4.340   1.769   4.770  0.3901  1.1282 -0.2480
  307MOL0     H40471   4.195   1.940   4.861  1.6396 -1.1015  0.0110
  307MOL0     H40472   4.122   1.814   4.968  0.4518 -2.4748 -0.4604
  307MOL0     H40473   4.089   1.871   4.667 -0.6759  1.6002  2.1811
  307MOL0     H40474   4.077   1.698   4.728  0.8602 -0.6687  1.2421
  307MOL0     H40475   3.869   1.824   4.684 -0.2195 -1.4220 -0.3494
  307MOL0     H40476   3.894   1.917   4.818  1.1478 -0.0835 -0.4790
  307MOL0     H40477   3.760   1.618   4.682  1.3073  0.1714  0.5759
  307MOL0     H40478   3.701   1.331   4.932 -0.4364  0.9025  0.8120
  307MOL0     H40479   3.748   1.330   4.773  2.7277  1.0330  0.4088
  307MOL0     H40480   3.533   1.477   4.718  1.4563 -0.1750 -1.4687
  307MOL0     H40481   3.488   1.450   4.881  0.0694  1.4352 -1.4938
  307MOL0     H40482   3.560   1.228   4.667  1.1153  1.6777 -0.7280
  307MOL0     H40483   3.483   1.198   4.827  2.5626 -0.3885 -0.4079
  307MOL0     H40484   3.331   1.168   4.651  1.0085 -0.6092 -2.1418
  307MOL0     H40485   3.376   1.322   4.577  1.5901  2.8390  1.6212
  307MOL0     H40486   3.094   1.428   4.930  1.7607  1.5866 -1.7764
  307MOL0     H40487   2.877   1.361   4.960 -0.7852  0.0637  0.9447
  307MOL0     H40488   2.468   1.151   4.902  1.9974 -1.7931  1.3035
  307MOL0     H40489   2.233   1.075   4.853 -1.9251 -0.2050 -3.1315
  307MOL0     H40490   2.012   0.967   4.780  1.0541 -0.0824  0.2130
  307MOL0     H40491   2.089   0.885   4.919 -1.3734 -0.4421  0.4099
  307MOL0     H40492   2.007   0.662   4.795 -0.3184  0.6778 -1.8579
  307MOL0     H40493   1.890   0.776   4.727  1.1696  1.8322  0.3893
  307MOL0     H40494   1.817   0.834   4.964  1.0005 -0.0441 -1.1554
  307MOL0     H40495   1.912   0.695   5.018 -2.9876  1.7058  2.9895
  307MOL0     H40496   1.698   0.702   4.802 -0.6228 -0.6730 -1.3009
  307MOL0     H40497   1.779   0.550   4.850 -0.7800  0.6578 -1.3520
  307MOL0     H40498   1.631   0.745   5.030 -2.5627 -1.1737  1.9365
  307MOL0     H40499   1.691   0.585   5.083  0.1576 -0.9639 -2.0920
  307MOL0     H40500   1.530   0.505   4.887  0.0988  0.6098 -0.3340
  307MOL0     H40501   1.454   0.661   4.909  1.3552  2.3270  0.2037
  307MOL0     H40502   1.471   0.405   5.096 -2.0053  0.1843  0.3285
  307MOL0     H40503   1.436   0.564   5.165  0.5301  1.2389 -1.5914
  307MOL0     H40504   1.235   0.574   5.062  1.0510  0.5187 -0.4788
  307MOL0     H40505   1.248   0.409   5.120 -0.5213  0.3003  0.3225
  307MOL0     H40506   2.400   0.755   4.615  0.4866  0.2393 -0.7637
  307MOL0     H40507   2.624   0.863   4.626  0.4163 -0.7333  0.1641
  307MOL0     H40508   2.874   1.127   4.599  0.7825  1.0867 -2.4838
  307MOL0     H40509   3.121   1.190   4.568  0.2456 -0.6294  0.7456
  307MOL0     H40510   4.896   1.572   5.166  3.1765  0.5350 -3.7474
  307MOL0     H40511   5.120   1.478   5.237 -2.6128  1.4165  1.4998
  307MOL0     H40512   5.538   1.260   5.379 -0.0126  0.1856 -0.0042
  307MOL0     H40513   5.746   1.104   5.364  0.8443 -0.1966  0.9890
  307MOL0     H40514   5.813   0.857   5.407  2.3238 -0.7892  1.3975
  307MOL0     H40515   5.915   0.929   5.288 -0.2404  0.1911  2.4892
  307MOL0     H40516   5.974   0.698   5.357 -1.6307 -0.3615  1.2965
  307MOL0     H40517   5.831   0.627   5.283  1.5781 -1.8062 -2.7170
  307MOL0     H40518   5.959   0.803   5.087 -1.9939  0.3155 -0.5715
  307MOL0     H40519   5.894   0.652   5.075  0.1541 -0.5153  0.2186
  307MOL0     H40520   6.095   0.536   5.156  0.6601 -0.0852 -1.0028
  307MOL0     H40521   6.112   0.637   5.023  0.6843  0.8571  0.3936
  307MOL0     H40522   6.369   0.868   5.255 -0.4298 -1.0660  1.3552
  307MOL0     H40523   5.519   0.859   5.100 -1.0399 -1.4338  0.5302
  307MOL0     H40524   5.327   1.011   5.110  0.4810 -0.4363  0.4396
  308MOL0     O40525  11.032   4.761  10.647  0.1847  0.0339 -0.1233
  308MOL0     C40526  11.049   4.884  10.658 -0.8417 -1.1301  0.7023
  308MOL0     O40527  10.958   4.977  10.678  0.1440  0.6969 -0.4604
  308MOL0     C40528  10.828   4.925  10.696  0.2506  0.2240  0.3944
  308MOL0     C40529  10.797   4.876  10.825 -0.6997 -0.1996 -0.1188
  308MOL0     C40530  10.664   4.860  10.858  0.1792  0.0391 -0.6637
  308MOL0     C40531  10.566   4.876  10.768 -0.9139  0.5691 -0.4406
  308MOL0     O40532  10.439   4.830  10.807 -0.2838 -0.5608 -0.3855
  308MOL0     C40533  10.334   4.918  10.785 -0.9139 -1.2092 -0.3257
  308MOL0     C40534  10.263   4.925  10.914  0.4108 -0.3912 -0.2310
  308MOL0     C40535  10.135   5.008  10.901 -0.6458 -0.0613 -0.9479
  308MOL0     C40536  10.052   5.007  11.035  0.0072  0.7309 -0.4849
  308MOL0     C40537   9.903   4.987  10.994  0.2206 -0.0347  0.9879
  308MOL0     C40538   9.808   5.027  11.103 -0.8633  0.3833 -0.6631
  308MOL0     C40539   9.671   5.029  11.044 -0.9466 -0.3463  0.3962
  308MOL0     C40540   9.567   5.033  11.155  0.4663  0.3902  0.0519
  308MOL0     N40541   9.431   5.026  11.101 -0.5595 -0.6517 -0.7138
  308MOL0     C40542   9.369   4.927  11.022 -0.2247  0.3061  0.2901
  308MOL0     C40543   9.242   4.957  10.993  0.3114  0.1240  0.1488
  308MOL0     C40544   9.151   4.871  10.898 -0.1562  0.3434 -0.2212
  308MOL0     C40545   9.022   4.946  10.868  0.3986 -0.1431  0.1945
  308MOL0     C40546   8.953   4.865  10.764 -0.5125 -0.5891  0.2515
  308MOL0     C40547   8.809   4.913  10.740 -0.0272 -0.2500 -0.0600
  308MOL0     O40548   8.756   4.831  10.631  0.1623 -0.2040  0.4512
  308MOL0     C40549   8.624   4.835  10.612 -0.0997 -0.2486  0.7463
  308MOL0     C40550   8.560   4.716  10.576  0.1257 -0.7200  0.1343
  308MOL0     C40551   8.424   4.702  10.547  0.0178 -0.4532  0.1946
  308MOL0     C40552   8.342   4.819  10.566 -0.0031  1.2514  1.5418
  308MOL0     C40553   8.192   4.819  10.530 -1.0742  0.9604  0.1220
  308MOL0     O40554   8.126   4.937  10.531 -0.8716 -0.5905 -0.8176
  308MOL0     C40555   7.995   4.945  10.510  0.5166 -0.1396 -0.1668
  308MOL0     C40556   7.962   5.057  10.439 -0.2931 -0.6705  0.3057
  308MOL0     C40557   7.827   5.096  10.411  0.0438  0.0316  0.2790
  308MOL0     C40558   7.730   5.002  10.443  0.3056 -1.0738  0.4039
  308MOL0     O40559   7.596   5.037  10.413  0.1661  0.2823 -0.9964
  308MOL0     C40560   7.574   5.026  10.270 -0.8855 -0.8406 -0.8417
  308MOL0     C40561   7.483   4.903  10.240 -0.5152 -0.2163 -0.0933
  308MOL0     C40562   7.338   4.926  10.309  0.0467  0.1719  0.0627
  308MOL0     C40563   7.266   4.792  10.323  0.2380 -0.0774 -0.2173
  308MOL0     C40564   7.137   4.802  10.412 -0.0083 -0.0322 -0.3730
  308MOL0     C40565   7.071   4.667  10.427 -0.7176  0.1672 -0.6821
  308MOL0     C40566   6.935   4.665  10.487 -0.6802 -0.1398  0.4154
  308MOL0     C40567   6.868   4.531  10.453 -0.0010  0.9270  0.4764
  308MOL0    Cl40568   6.717   4.493  10.541  0.1351  0.1013 -0.1784
  308MOL0     C40569   7.761   4.896  10.520 -0.6160  0.5605 -0.0204
  308MOL0     C40570   7.896   4.856  10.548 -0.6414  0.7600  0.0431
  308MOL0     O40571   8.149   4.703  10.508 -0.4225 -0.4142  0.1123
  308MOL0     C40572   8.403   4.935  10.606 -1.0210  0.2041 -0.4743
  308MOL0     C40573   8.539   4.939  10.641  0.2226 -0.1160  0.7727
  308MOL0     N40574   9.230   5.084  11.044  0.6784 -0.3240 -1.2192
  308MOL0     N40575   9.341   5.125  11.112 -0.4347  0.7052 -0.1571
  308MOL0     C40576  10.597   4.924  10.644  1.0856 -0.1759 -0.1686
  308MOL0     C40577  10.734   4.962  10.607  0.5124  1.2106 -0.2983
  308MOL0     C40578  11.183   4.940  10.661 -1.2231  0.8604 -0.8471
  308MOL0     C40579  11.205   5.069  10.710 -0.3485 -0.4871 -0.8523
  308MOL0     C40580  11.328   5.123  10.710 -0.6416  0.0032 -0.2781
  308MOL0     C40581  11.443   5.052  10.674 -0.1608  0.5678 -0.3637
  308MOL0     O40582  11.557   5.130  10.664 -0.5573 -0.0724  0.3129
  308MOL0     C40583  11.667   5.067  10.604  0.1869 -0.2983  0.1267
  308MOL0     C40584  11.655   5.063  10.450 -0.6815 -0.2984 -0.2968
  308MOL0     C40585  11.785   5.022  10.384  0.0456  0.4263 -0.5149
  308MOL0     C40586  11.832   4.881  10.408 -0.0388 -0.4999  0.9701
  308MOL0     C40587  11.726   4.784  10.378  0.1250  0.1011  0.7284
  308MOL0     C40588  11.640   4.702  10.389  0.1176  0.7407  0.3013
  308MOL0     C40589  11.429   4.915  10.643 -0.6786  0.0706  0.1838
  308MOL0     C40590  11.296   4.860  10.631 -0.3791 -0.1856  0.8628
  308MOL0     H40591  10.867   4.858  10.906 -1.9369  0.5857  1.1693
  308MOL0     H40592  10.634   4.829  10.958 -0.2094  0.3931 -0.6692
  308MOL0     H40593  10.257   4.893  10.712  0.3121  0.6902 -2.4159
  308MOL0     H40594  10.356   5.020  10.752  0.1401 -2.3319 -3.5099
  308MOL0     H40595  10.327   4.972  10.989 -0.8761  3.0561 -1.0962
  308MOL0     H40596  10.234   4.826  10.950  0.3138  0.5679  2.5475
  308MOL0     H40597  10.082   4.963  10.817  1.8980 -1.2343 -2.0526
  308MOL0     H40598  10.159   5.111  10.872 -0.0159 -0.2247 -1.0269
  308MOL0     H40599  10.072   4.926  11.106 -1.0198  0.5637 -0.3621
  308MOL0     H40600  10.054   5.105  11.083 -1.4822  0.4275  0.2535
  308MOL0     H40601   9.890   4.885  10.958  2.2390 -0.7277  2.0246
  308MOL0     H40602   9.883   5.048  10.906 -1.5288 -1.1049  0.6140
  308MOL0     H40603   9.830   5.127  11.141  0.4279  0.2332 -0.9956
  308MOL0     H40604   9.805   4.953  11.184  0.0326  1.3621  0.2989
  308MOL0     H40605   9.667   5.116  10.978  0.0838 -0.1300  0.5926
  308MOL0     H40606   9.653   4.940  10.984  1.3785 -1.3078  0.9856
  308MOL0     H40607   9.584   5.117  11.223  1.4737 -0.6142  1.0755
  308MOL0     H40608   9.583   4.949  11.223  0.7195  0.3214 -0.0901
  308MOL0     H40609   9.415   4.835  10.988 -3.0679 -0.9399 -0.4276
  308MOL0     H40610   9.132   4.774  10.944  2.4298 -0.9808 -1.7533
  308MOL0     H40611   9.204   4.849  10.805 -3.3453  0.4691 -2.2066
  308MOL0     H40612   9.039   5.051  10.839 -2.3974  0.5475  0.7759
  308MOL0     H40613   8.953   4.937  10.952  0.0111 -2.6499 -0.3266
  308MOL0     H40614   9.016   4.876  10.675 -2.2043  2.6455 -0.6737
  308MOL0     H40615   8.938   4.765  10.807 -1.4691 -0.3026  0.6183
  308MOL0     H40616   8.818   5.018  10.711  0.0444  1.0891  4.0901
  308MOL0     H40617   8.746   4.905  10.829 -0.8130 -1.2226 -0.6865
  308MOL0     H40618   8.622   4.630  10.553 -1.5725 -1.2107 -3.3896
  308MOL0     H40619   8.385   4.606  10.515 -0.1168 -0.7432  1.1773
  308MOL0     H40620   8.045   5.116  10.401 -0.4386  2.7537  4.5761
  308MOL0     H40621   7.806   5.193  10.367 -0.3371 -0.6851 -1.2125
  308MOL0     H40622   7.670   5.017  10.219 -1.1350 -1.8148 -1.1553
  308MOL0     H40623   7.532   5.120  10.233 -0.7661  0.4812  2.1126
  308MOL0     H40624   7.531   4.813  10.280 -1.2153  0.0955  1.5524
  308MOL0     H40625   7.467   4.879  10.135  0.7470 -3.9067  0.4131
  308MOL0     H40626   7.278   4.989  10.244 -0.6159  1.0629  1.4927
  308MOL0     H40627   7.343   4.972  10.408  1.7125 -0.0337  0.1102
  308MOL0     H40628   7.247   4.740  10.228 -2.8618 -0.3262  0.4367
  308MOL0     H40629   7.342   4.730  10.372  0.1257 -0.1301 -0.1110
  308MOL0     H40630   7.066   4.877  10.376  0.8972  0.6605 -0.7409
  308MOL0     H40631   7.161   4.838  10.513 -0.7916 -0.0448 -0.1795
  308MOL0     H40632   7.126   4.606  10.499 -2.1800 -0.4511 -0.0610
  308MOL0     H40633   7.080   4.616  10.331  2.3520 -2.8466  1.0168
  308MOL0     H40634   6.938   4.680  10.595  2.0650  2.0552  0.1612
  308MOL0     H40635   6.885   4.747  10.435  1.4296 -0.1778 -1.8868
  308MOL0     H40636   6.942   4.456  10.481  0.8912  1.6070  0.0007
  308MOL0     H40637   6.851   4.513  10.347 -0.5588  0.2002  0.6809
  308MOL0     H40638   7.680   4.831  10.552 -0.7010  0.0616 -1.2129
  308MOL0     H40639   7.932   4.765  10.594  2.4505  2.5374  1.4373
  308MOL0     H40640   8.335   5.019  10.597 -5.2235 -3.0827 -3.3979
  308MOL0     H40641   8.582   5.036  10.663  1.1213 -0.1038 -0.8876
  308MOL0     H40642  10.519   4.937  10.570  1.9599 -1.4699 -1.3646
  308MOL0     H40643  10.775   5.002  10.515 -0.4915  1.8294 -0.4905
  308MOL0     H40644  11.125   5.139  10.732 -0.4191 -1.2552  1.6330
  308MOL0     H40645  11.346   5.225  10.741 -0.8306 -1.1815  4.5755
  308MOL0     H40646  11.691   4.967  10.642  1.9852  1.0618  2.7931
  308MOL0     H40647  11.740   5.146  10.621 -1.7120  2.0583 -1.9311
  308MOL0     H40648  11.569   5.008  10.410 -0.2693  0.3216 -2.1231
  308MOL0     H40649  11.636   5.169  10.430  1.8375  0.2562 -0.1011
  308MOL0     H40650  11.858   5.094  10.424  1.0706  0.7547 -2.8235
  308MOL0     H40651  11.770   5.034  10.276  1.0432 -3.1843 -1.1839
  308MOL0     H40652  11.921   4.867  10.346 -0.2405  0.3062  0.4881
  308MOL0     H40653  11.875   4.873  10.508  1.2063  2.3852  0.7497
  308MOL0     H40654  11.572   4.619  10.379  1.2345  0.1055 -4.3432
  308MOL0     H40655  11.509   4.843  10.632 -1.0717 -0.0976 -1.9725
  308MOL0     H40656  11.278   4.758  10.600  0.2299 -0.7290  2.2034
  309MOL0     O40657   7.321  10.191   5.596 -0.7853  0.4153 -0.2237
  309MOL0     C40658   7.421  10.268   5.607  0.0930  0.5336  0.2773
  309MOL0     O40659   7.424  10.390   5.652  0.3373  0.1290  0.4218
  309MOL0     C40660   7.312  10.466   5.653 -0.5857 -0.0852 -0.6990
  309MOL0     C40661   7.245  10.502   5.765  0.3312  0.5705 -0.8102
  309MOL0     C40662   7.125  10.569   5.750  0.4458  1.2129 -0.1398
  309MOL0     C40663   7.083  10.611   5.625  0.2724  0.1589  0.0369
  309MOL0     O40664   6.953  10.660   5.601  0.0297 -0.0304 -0.7083
  309MOL0     C40665   6.866  10.567   5.526  0.2080 -0.2849 -0.3602
  309MOL0     C40666   6.719  10.577   5.565  0.7527  0.2204  0.0659
  309MOL0     C40667   6.648  10.701   5.516  0.5690 -0.7335  0.4247
  309MOL0     C40668   6.496  10.688   5.542  0.1925  0.1713 -1.7171
  309MOL0     C40669   6.429  10.817   5.497  0.5943  0.4643  0.3035
  309MOL0     C40670   6.277  10.806   5.508  0.1487 -0.0046  0.4297
  309MOL0     C40671   6.205  10.917   5.428 -0.6399 -0.3447 -0.8296
  309MOL0     C40672   6.065  10.911   5.357  0.0125 -0.4131  0.4302
  309MOL0     N40673   6.029  11.030   5.283 -0.4336  0.0421  1.0176
  309MOL0     C40674   5.935  11.124   5.317 -0.4178 -0.0105  0.4643
  309MOL0     C40675   5.900  11.180   5.200  0.0117  0.0460 -0.0060
  309MOL0     C40676   5.814  11.309   5.181  0.4809  0.0393 -0.4792
  309MOL0     C40677   5.904  11.424   5.169  0.0551 -0.8292  0.6885
  309MOL0     C40678   5.822  11.550   5.146 -0.2657  0.1283  0.7737
  309MOL0     C40679   5.702  11.574   5.235  0.5455  0.7364  0.3394
  309MOL0     O40680   5.660  11.715   5.249 -0.6742  0.1994 -0.7817
  309MOL0     C40681   5.538  11.745   5.285  1.4021  0.9400  0.9655
  309MOL0     C40682   5.433  11.655   5.315 -1.4375  0.0448  0.1799
  309MOL0     C40683   5.303  11.697   5.317 -0.4842 -0.1837 -0.4425
  309MOL0     C40684   5.265  11.829   5.319  0.1884  0.2708 -0.0798
  309MOL0     C40685   5.124  11.866   5.330  0.4057  0.6960 -0.6904
  309MOL0     O40686   5.097  11.989   5.382 -0.5745  0.7382 -0.5075
  309MOL0     C40687   4.965  12.038   5.379 -0.0868  0.4270  0.1394
  309MOL0     C40688   4.871  11.986   5.469  0.0739 -0.4175  0.0639
  309MOL0     C40689   4.736  12.025   5.471  0.6037  0.1369  0.4186
  309MOL0     C40690   4.691  12.124   5.374 -0.5699  0.9620 -0.4789
  309MOL0     O40691   4.556  12.142   5.381 -0.3423  0.1356  0.7496
  309MOL0     C40692   4.484  12.184   5.269  1.0523  0.2116  0.1560
  309MOL0     C40693   4.337  12.180   5.300  0.8756  0.0481 -0.0720
  309MOL0     C40694   4.299  12.279   5.412 -1.0121  0.9162 -0.3784
  309MOL0     C40695   4.345  12.425   5.391  0.0196  0.3297  0.5818
  309MOL0     C40696   4.309  12.473   5.253  0.3418 -0.2818 -0.4105
  309MOL0     C40697   4.152  12.489   5.237 -0.1296 -0.2708 -0.6030
  309MOL0     C40698   4.100  12.512   5.100  0.5645 -0.4276 -0.0419
  309MOL0     C40699   3.967  12.574   5.111  0.0917  0.1228 -0.9219
  309MOL0    Cl40700   3.851  12.462   5.202 -0.0575 -0.4850 -0.2778
  309MOL0     C40701   4.789  12.173   5.291 -0.9453  1.1094  1.1472
  309MOL0     C40702   4.919  12.127   5.282  0.0423  0.7565 -0.0704
  309MOL0     O40703   5.041  11.786   5.293  0.1996  0.1195 -0.1802
  309MOL0     C40704   5.366  11.926   5.304  0.2360  0.8873  1.0022
  309MOL0     C40705   5.502  11.883   5.296  0.2140 -0.3230  0.4062
  309MOL0     N40706   5.979  11.126   5.097 -0.3130 -0.7095 -1.1441
  309MOL0     N40707   6.045  11.031   5.144 -0.4145  0.3870  0.6456
  309MOL0     C40708   7.169  10.594   5.520 -0.1018 -0.2988 -0.0571
  309MOL0     C40709   7.276  10.511   5.529  0.2390 -0.1510 -0.1789
  309MOL0     C40710   7.554  10.216   5.573 -0.1992  0.1834 -0.3349
  309MOL0     C40711   7.574  10.077   5.575 -0.1567 -0.0359 -0.0935
  309MOL0     C40712   7.692  10.021   5.528  0.7668  0.2613  0.2959
  309MOL0     C40713   7.800  10.106   5.487 -0.4392  0.5988  0.4487
  309MOL0     O40714   7.923  10.060   5.453 -0.0548 -0.6592 -0.7479
  309MOL0     C40715   7.967   9.924   5.485  0.3979 -0.0226  0.7594
  309MOL0     C40716   8.104   9.908   5.424 -0.8333 -0.4598 -0.3364
  309MOL0     C40717   8.212   9.954   5.520 -0.2699 -0.8864 -0.3189
  309MOL0     C40718   8.220   9.871   5.643  0.1742  0.9976 -0.8158
  309MOL0     C40719   8.190   9.728   5.632 -0.8524 -0.6875  0.0252
  309MOL0     C40720   8.158   9.614   5.614 -1.3509 -0.0560 -0.6917
  309MOL0     C40721   7.778  10.243   5.498  0.0152 -0.5400  0.5797
  309MOL0     C40722   7.657  10.302   5.533 -0.2972  0.0473 -0.2949
  309MOL0     H40723   7.292  10.461   5.855 -0.1998  2.5454  0.4188
  309MOL0     H40724   7.064  10.581   5.839 -1.7079  1.8472 -1.6129
  309MOL0     H40725   6.900  10.465   5.546 -0.4370 -0.3293  0.5760
  309MOL0     H40726   6.876  10.586   5.419  1.3735 -1.2499 -0.4491
  309MOL0     H40727   6.716  10.564   5.674 -0.5679 -0.9667 -0.0786
  309MOL0     H40728   6.660  10.493   5.526  1.7066 -0.2372 -0.4407
  309MOL0     H40729   6.657  10.703   5.407  0.3053  1.4091  0.4001
  309MOL0     H40730   6.692  10.794   5.553  0.4351 -0.4009 -0.2353
  309MOL0     H40731   6.443  10.601   5.502 -1.2658 -0.6411  1.6106
  309MOL0     H40732   6.476  10.682   5.650 -1.6301  1.4879 -1.9319
  309MOL0     H40733   6.469  10.837   5.397  0.9651  0.5834  0.4764
  309MOL0     H40734   6.451  10.888   5.577 -0.6994 -0.4642  1.5212
  309MOL0     H40735   6.245  10.806   5.612  2.7434  1.4843  1.3275
  309MOL0     H40736   6.227  10.718   5.466  0.6999  0.0191 -0.2876
  309MOL0     H40737   6.211  11.007   5.489 -0.5523 -1.8054  1.4619
  309MOL0     H40738   6.272  10.948   5.347 -0.8086  1.5852 -0.2847
  309MOL0     H40739   5.996  10.888   5.439  0.4899 -3.5973  0.0698
  309MOL0     H40740   6.047  10.825   5.291 -0.0665 -1.1800  1.4366
  309MOL0     H40741   5.899  11.159   5.414 -1.7882  0.3031 -0.1312
  309MOL0     H40742   5.748  11.325   5.267  3.8597 -0.7578  2.4955
  309MOL0     H40743   5.757  11.309   5.088 -2.0254  2.2023  0.9254
  309MOL0     H40744   5.976  11.425   5.087 -0.4229  0.9430  0.2271
  309MOL0     H40745   5.960  11.434   5.262 -0.8082  0.1704  1.1274
  309MOL0     H40746   5.889  11.634   5.163 -1.6018  1.4560 -0.2738
  309MOL0     H40747   5.797  11.566   5.041 -0.6146 -1.2655  0.6221
  309MOL0     H40748   5.710  11.527   5.333 -0.9856 -1.8074 -0.6431
  309MOL0     H40749   5.617  11.529   5.182  0.1882 -1.3872  2.5739
  309MOL0     H40750   5.456  11.549   5.316  0.4339  0.3835  2.3401
  309MOL0     H40751   5.231  11.615   5.308  1.1083 -1.7524  0.3612
  309MOL0     H40752   4.875  11.906   5.542  0.6021  0.0020  0.5025
  309MOL0     H40753   4.669  11.987   5.547  0.7913  2.1972  1.6891
  309MOL0     H40754   4.492  12.113   5.186  1.6215 -0.2965  0.6283
  309MOL0     H40755   4.521  12.281   5.235  0.0684  0.8718  0.9285
  309MOL0     H40756   4.311  12.080   5.335  2.4805 -0.0286  1.0108
  309MOL0     H40757   4.281  12.202   5.209  1.8646  2.9366 -0.0918
  309MOL0     H40758   4.337  12.245   5.508 -5.0686  0.1925  1.1620
  309MOL0     H40759   4.190  12.271   5.420 -0.7322 -3.3737  1.5339
  309MOL0     H40760   4.296  12.490   5.463 -0.9643  0.4904 -0.2096
  309MOL0     H40761   4.453  12.437   5.406 -0.2568  3.5865  0.6621
  309MOL0     H40762   4.343  12.422   5.163  0.7718  1.1967 -1.1161
  309MOL0     H40763   4.354  12.573   5.248  0.5707 -0.2938  1.0568
  309MOL0     H40764   4.130  12.576   5.299 -0.6012  0.0370 -1.1964
  309MOL0     H40765   4.108  12.402   5.286  0.3052  0.1777  0.6381
  309MOL0     H40766   4.173  12.566   5.039  1.3220 -0.8589  0.4700
  309MOL0     H40767   4.089  12.416   5.049  4.0300 -0.3336 -1.2322
  309MOL0     H40768   3.932  12.591   5.009  0.7827  2.5226 -0.8181
  309MOL0     H40769   3.960  12.668   5.166  1.4742 -0.6146  0.6012
  309MOL0     H40770   4.757  12.245   5.216 -0.9242 -1.4176 -1.4663
  309MOL0     H40771   4.995  12.168   5.215  2.1586 -1.7134  0.6260
  309MOL0     H40772   5.343  12.032   5.302  1.4151  1.5974 -6.7725
  309MOL0     H40773   5.580  11.958   5.300  1.4564 -1.6149  1.8413
  309MOL0     H40774   7.150  10.649   5.429  2.1382 -0.5921 -0.7535
  309MOL0     H40775   7.340  10.484   5.446 -1.8727  0.7699 -2.1995
  309MOL0     H40776   7.497  10.009   5.610  0.2600 -1.0263 -1.0319
  309MOL0     H40777   7.687   9.913   5.528 -1.1766  0.3223  0.3795
  309MOL0     H40778   7.899   9.849   5.444 -1.6189  0.6189  2.7171
  309MOL0     H40779   7.969   9.904   5.592  0.5293  0.4595  0.8528
  309MOL0     H40780   8.118   9.809   5.379 -0.3118 -1.5677  2.0702
  309MOL0     H40781   8.121   9.974   5.338  0.7453 -0.9490 -0.4429
  309MOL0     H40782   8.204  10.060   5.543 -0.0913 -0.5862 -1.5353
  309MOL0     H40783   8.309   9.949   5.469  0.2428  0.2339  0.5163
  309MOL0     H40784   8.323   9.879   5.679  0.0717  0.5244 -0.4037
  309MOL0     H40785   8.164   9.919   5.724  1.1830 -0.8245  1.0472
  309MOL0     H40786   8.124   9.513   5.607  0.7002 -0.7644 -1.3541
  309MOL0     H40787   7.871  10.297   5.484 -0.2708 -0.4448 -1.0980
  309MOL0     H40788   7.648  10.410   5.535  2.8215  0.4377  2.6352
  310MOL0     O40789   0.172   9.227   5.229  1.1038  0.3194  0.3739
  310MOL0     C40790   0.230   9.197   5.123  0.0902  0.2565  0.6603
  310MOL0     O40791   0.171   9.179   5.001 -0.1155 -0.6685 -0.3322
  310MOL0     C40792   0.030   9.176   4.984  0.2062 -0.3363 -0.4117
  310MOL0     C40793  -0.069   9.199   5.087  0.0886 -0.1191  0.8350
  310MOL0     C40794  -0.208   9.202   5.052  0.0305 -0.3974  0.1935
  310MOL0     C40795  -0.248   9.172   4.918 -0.1788  0.4774 -0.0061
  310MOL0     O40796  -0.379   9.151   4.889  0.2726 -0.2200  0.3902
  310MOL0     C40797  -0.416   9.087   4.766 -0.0426  0.6449  0.0073
  310MOL0     C40798  -0.564   9.106   4.756  0.2944 -0.3428  0.0183
  310MOL0     C40799  -0.643   9.037   4.866  0.0657 -0.0961 -0.5461
  310MOL0     C40800  -0.801   9.035   4.857 -0.3340  0.0512  0.3796
  310MOL0     C40801  -0.864   9.159   4.908 -0.5810  0.1398 -0.1581
  310MOL0     C40802  -1.007   9.144   4.941 -0.2569 -0.3568 -0.2121
  310MOL0     C40803  -1.096   9.180   4.825 -0.7973 -0.2678 -0.0402
  310MOL0     C40804  -1.246   9.178   4.868 -0.2268 -0.6384 -1.0393
  310MOL0     N40805  -1.333   9.127   4.760  0.2796  0.4102  0.0441
  310MOL0     C40806  -1.455   9.068   4.794 -0.3791  1.0312 -0.2771
  310MOL0     C40807  -1.519   9.065   4.676 -0.0006  0.7498  0.1384
  310MOL0     C40808  -1.659   9.013   4.675 -0.6609  0.0461 -0.1269
  310MOL0     C40809  -1.729   9.016   4.538  0.4003  0.3546 -0.3863
  310MOL0     C40810  -1.875   8.974   4.543  0.4073  0.2163 -0.3504
  310MOL0     C40811  -1.953   9.075   4.620  0.5009 -0.1345 -0.1049
  310MOL0     O40812  -2.092   9.031   4.630  0.5256 -0.3721  0.6190
  310MOL0     C40813  -2.180   9.034   4.516 -0.1277  0.7576  0.6701
  310MOL0     C40814  -2.303   8.989   4.536  0.4042  0.6659 -0.7241
  310MOL0     C40815  -2.403   8.984   4.437 -0.1134 -0.2052  0.4348
  310MOL0     C40816  -2.362   9.029   4.305  1.0176  0.0225 -1.2572
  310MOL0     C40817  -2.475   9.038   4.207 -0.7325 -0.3295 -0.2351
  310MOL0     O40818  -2.589   8.982   4.239  0.8464 -0.4735 -0.9251
  310MOL0     C40819  -2.680   8.996   4.141 -0.6952  1.0617  0.0484
  310MOL0     C40820  -2.673   8.922   4.019 -0.1593  0.1415  0.1676
  310MOL0     C40821  -2.770   8.934   3.922  0.5762  0.7177  0.5236
  310MOL0     C40822  -2.871   9.032   3.942  0.7581  0.0688  0.3994
  310MOL0     O40823  -2.983   9.023   3.857 -0.5201  0.0893  0.2462
  310MOL0     C40824  -3.086   8.951   3.930  0.7306 -0.0795  0.5935
  310MOL0     C40825  -3.190   8.905   3.828  0.2559 -0.4064 -0.1201
  310MOL0     C40826  -3.326   8.838   3.880 -0.3617 -0.8518  0.9347
  310MOL0     C40827  -3.408   8.931   3.974 -0.8491 -0.1751  0.0977
  310MOL0     C40828  -3.540   8.865   4.032  0.1293 -0.5538  0.5889
  310MOL0     C40829  -3.537   8.715   4.056 -0.5150  0.2869 -0.8182
  310MOL0     C40830  -3.677   8.677   4.107 -1.0952  0.4394 -0.0616
  310MOL0     C40831  -3.671   8.528   4.147 -0.7247  0.2337 -0.5217
  310MOL0    Cl40832  -3.816   8.498   4.261 -0.0546  0.1395  0.2561
  310MOL0     C40833  -2.877   9.105   4.056  0.1607 -0.6087  0.3858
  310MOL0     C40834  -2.777   9.089   4.156  0.1695  0.8536 -0.3624
  310MOL0     O40835  -2.449   9.092   4.102  0.2999 -0.6226 -0.1839
  310MOL0     C40836  -2.238   9.087   4.280  0.1099  0.4804  0.0673
  310MOL0     C40837  -2.142   9.084   4.390 -1.1128  0.1722  0.5421
  310MOL0     N40838  -1.439   9.118   4.581  0.0239 -0.2599  0.0201
  310MOL0     N40839  -1.331   9.162   4.634 -0.9164  0.1169 -0.0182
  310MOL0     C40840  -0.144   9.159   4.820  0.1737  0.0492  0.0800
  310MOL0     C40841  -0.008   9.168   4.850  0.4248  0.1504 -0.2366
  310MOL0     C40842   0.377   9.179   5.125 -0.5458  0.2519 -0.2437
  310MOL0     C40843   0.444   9.243   5.231  0.0983 -0.0816 -0.0034
  310MOL0     C40844   0.588   9.247   5.235 -0.0134  0.2646  0.5453
  310MOL0     C40845   0.663   9.180   5.135 -0.8837  0.2271 -1.2593
  310MOL0     O40846   0.801   9.175   5.146  0.4340 -0.1534 -0.5176
  310MOL0     C40847   0.859   9.048   5.167 -0.2168  0.4151  0.1159
  310MOL0     C40848   0.986   9.087   5.239  0.2633 -0.0190  0.0936
  310MOL0     C40849   1.094   8.980   5.254 -0.3975  0.0875 -0.1661
  310MOL0     C40850   1.216   9.029   5.324  0.5164 -0.4069 -0.6169
  310MOL0     C40851   1.187   9.029   5.473  0.5748  0.7368  0.7531
  310MOL0     C40852   1.178   9.052   5.594  0.1108 -0.1039  0.1716
  310MOL0     C40853   0.589   9.105   5.041  0.4760  0.1232 -0.2833
  310MOL0     C40854   0.452   9.117   5.032 -0.2906  0.0795  0.1375
  310MOL0     H40855  -0.045   9.216   5.191 -1.1872  1.7193  0.8730
  310MOL0     H40856  -0.283   9.225   5.127 -0.7534  0.4941 -0.8354
  310MOL0     H40857  -0.393   8.980   4.768  2.9356  1.1904  2.9238
  310MOL0     H40858  -0.380   9.128   4.671  0.9998 -1.6089 -0.6545
  310MOL0     H40859  -0.606   9.066   4.663  0.2532 -0.0038 -0.1075
  310MOL0     H40860  -0.588   9.212   4.761 -2.9031 -0.6728 -3.6747
  310MOL0     H40861  -0.607   9.073   4.963  0.3816  1.9073 -1.3576
  310MOL0     H40862  -0.619   8.930   4.867  1.4125  0.1925 -0.1337
  310MOL0     H40863  -0.816   9.011   4.751 -0.3624  3.2112 -0.4463
  310MOL0     H40864  -0.835   8.951   4.918  1.1122  0.5030  1.8946
  310MOL0     H40865  -0.847   9.244   4.842 -0.0543  0.2980  0.1735
  310MOL0     H40866  -0.824   9.194   5.004 -2.9833  0.7011  0.7087
  310MOL0     H40867  -1.018   9.218   5.022  3.1153  0.2642 -0.1595
  310MOL0     H40868  -1.026   9.046   4.986 -0.6319  0.2979  1.1269
  310MOL0     H40869  -1.066   9.271   4.774  3.2160 -2.6957 -2.5808
  310MOL0     H40870  -1.077   9.103   4.749 -0.8858 -1.0589  0.7149
  310MOL0     H40871  -1.283   9.278   4.893 -0.5077 -0.9017 -0.3706
  310MOL0     H40872  -1.250   9.118   4.959 -0.4018 -1.5933 -1.6708
  310MOL0     H40873  -1.492   9.038   4.891 -0.7684  0.6382 -0.5428
  310MOL0     H40874  -1.714   9.082   4.739 -2.8102 -1.8538  0.1824
  310MOL0     H40875  -1.651   8.918   4.728  2.8319  1.0425  1.4799
  310MOL0     H40876  -1.665   8.946   4.483 -0.3771 -1.1815  0.5835
  310MOL0     H40877  -1.730   9.111   4.484 -0.9389 -0.0526 -1.1381
  310MOL0     H40878  -1.902   8.951   4.440 -1.8157  0.9401  0.0075
  310MOL0     H40879  -1.883   8.890   4.613  1.6882  0.9039  0.6629
  310MOL0     H40880  -1.949   9.173   4.573 -3.3707  0.8032  1.1620
  310MOL0     H40881  -1.922   9.087   4.725 -0.2015 -4.1709  0.7648
  310MOL0     H40882  -2.335   8.960   4.635  1.0240  0.9682 -0.4320
  310MOL0     H40883  -2.494   8.927   4.452  1.4192 -3.6030 -1.7812
  310MOL0     H40884  -2.594   8.851   3.998 -0.2422  0.7680 -2.6162
  310MOL0     H40885  -2.770   8.859   3.843 -1.3724  2.3741 -1.1687
  310MOL0     H40886  -3.139   9.010   4.006 -1.6194 -1.6693  0.3050
  310MOL0     H40887  -3.049   8.864   3.985  0.8712 -0.2104  0.2924
  310MOL0     H40888  -3.133   8.832   3.770 -0.7545  0.9297 -2.9834
  310MOL0     H40889  -3.217   8.995   3.772  0.5197  0.8181  1.6454
  310MOL0     H40890  -3.302   8.747   3.936  0.9152 -0.9611  0.2405
  310MOL0     H40891  -3.386   8.816   3.791  2.1648 -1.3497 -0.7329
  310MOL0     H40892  -3.346   8.956   4.061  0.9270 -0.8254 -0.9180
  310MOL0     H40893  -3.414   9.028   3.922 -1.0364  0.0855  0.5975
  310MOL0     H40894  -3.618   8.888   3.958  1.4797 -1.0647 -1.0672
  310MOL0     H40895  -3.555   8.910   4.131  1.5978 -0.1382  0.6422
  310MOL0     H40896  -3.465   8.694   4.135  0.0808  0.8197 -1.2124
  310MOL0     H40897  -3.508   8.658   3.967  0.0208  0.8309 -0.9942
  310MOL0     H40898  -3.687   8.728   4.203  0.6102  1.2868 -0.2980
  310MOL0     H40899  -3.752   8.690   4.029  2.8055 -2.5620 -4.9436
  310MOL0     H40900  -3.583   8.511   4.210 -1.2292 -0.7391 -0.0672
  310MOL0     H40901  -3.666   8.454   4.067  0.7335 -2.5173  1.9018
  310MOL0     H40902  -2.965   9.166   4.076  1.1843  1.7574 -1.6528
  310MOL0     H40903  -2.787   9.142   4.251  1.2173 -0.0223  0.2667
  310MOL0     H40904  -2.219   9.138   4.186 -4.2571  0.6855 -0.8866
  310MOL0     H40905  -2.047   9.130   4.367 -0.8041  1.0591  3.2468
  310MOL0     H40906  -0.172   9.133   4.718 -2.7425 -2.2594  1.3244
  310MOL0     H40907   0.067   9.161   4.771 -0.0134 -2.7583 -0.5008
  310MOL0     H40908   0.386   9.303   5.300 -1.2670 -1.2865 -0.0663
  310MOL0     H40909   0.651   9.301   5.305  1.4379  0.6459 -0.9777
  310MOL0     H40910   0.875   8.993   5.073 -1.4995 -2.9311  1.6807
  310MOL0     H40911   0.792   8.982   5.223 -1.2020  0.4292 -1.0074
  310MOL0     H40912   1.026   9.178   5.195 -0.3398  0.2692  0.1332
  310MOL0     H40913   0.965   9.124   5.339 -0.5747 -0.0458 -0.0633
  310MOL0     H40914   1.116   8.948   5.152 -0.5844 -0.7650  0.0532
  310MOL0     H40915   1.044   8.898   5.307 -0.1791  0.1168  0.0840
  310MOL0     H40916   1.302   8.962   5.311 -0.2683 -1.8008  1.0403
  310MOL0     H40917   1.233   9.130   5.287 -0.6391  0.4467  1.0498
  310MOL0     H40918   1.145   9.087   5.690 -0.1586  1.7797 -0.5651
  310MOL0     H40919   0.637   9.045   4.965 -0.0653 -0.4131 -0.2089
  310MOL0     H40920   0.395   9.071   4.952  0.3937  1.5379 -1.2315
  311MOL0     O40921   5.306   3.000   0.319 -0.2102  0.0165 -0.2335
  311MOL0     C40922   5.374   3.060   0.398 -0.4185  0.6062  0.5340
  311MOL0     O40923   5.347   3.083   0.527 -0.3445 -0.0912 -0.2506
  311MOL0     C40924   5.228   3.034   0.580  0.2267  0.2901 -0.9749
  311MOL0     C40925   5.229   2.999   0.716 -0.4575 -0.4062 -0.0488
  311MOL0     C40926   5.110   2.949   0.774  0.1583 -0.5990  0.1527
  311MOL0     C40927   4.987   2.930   0.704 -0.3904  0.2057  0.0251
  311MOL0     O40928   4.882   2.898   0.783  0.1724 -0.0861  0.7104
  311MOL0     C40929   4.777   2.837   0.719 -0.0340 -0.1221 -0.2977
  311MOL0     C40930   4.676   2.832   0.836 -0.3304 -0.0807  0.7837
  311MOL0     C40931   4.541   2.804   0.795 -0.5757 -1.0598  0.8335
  311MOL0     C40932   4.447   2.811   0.917 -0.3550 -0.6948 -0.5893
  311MOL0     C40933   4.309   2.789   0.869 -1.1186  0.0322  0.1776
  311MOL0     C40934   4.208   2.811   0.984  0.6955 -0.1161 -0.3689
  311MOL0     C40935   4.063   2.813   0.948  0.2056 -0.4682  0.2797
  311MOL0     C40936   4.009   2.933   0.871 -0.0312 -0.3005 -0.7253
  311MOL0     N40937   3.860   2.913   0.859  0.4355 -0.3320  0.3238
  311MOL0     C40938   3.797   2.812   0.805 -0.2850  0.3543  0.6014
  311MOL0     C40939   3.664   2.846   0.807  0.1147 -0.2598 -0.6025
  311MOL0     C40940   3.557   2.745   0.776  0.1691  0.1030 -1.2117
  311MOL0     C40941   3.480   2.768   0.642  0.6339 -0.5835  0.3796
  311MOL0     C40942   3.412   2.649   0.591 -0.0398 -0.1033  0.9058
  311MOL0     C40943   3.301   2.598   0.685  0.3558 -0.3883  0.5627
  311MOL0     O40944   3.214   2.533   0.599  0.4502  0.0685 -0.0189
  311MOL0     C40945   3.116   2.463   0.650  0.7522  0.1154 -0.6690
  311MOL0     C40946   3.100   2.434   0.788  0.2328  1.2939  0.2494
  311MOL0     C40947   2.984   2.367   0.840  0.1123  0.9024 -0.5471
  311MOL0     C40948   2.875   2.330   0.754 -0.5179 -0.3844  0.0455
  311MOL0     C40949   2.752   2.276   0.802 -0.4897  0.4338 -1.0315
  311MOL0     O40950   2.675   2.198   0.718 -0.0322 -0.0993  1.0450
  311MOL0     C40951   2.560   2.136   0.759  0.7172 -0.0919  0.2526
  311MOL0     C40952   2.527   2.030   0.680  0.6994  0.2691 -0.0520
  311MOL0     C40953   2.405   1.967   0.698 -0.6724 -0.0269 -1.0406
  311MOL0     C40954   2.325   2.001   0.806  0.2108 -0.3214  0.7220
  311MOL0     O40955   2.211   1.924   0.840  0.3355 -0.0260 -0.3489
  311MOL0     C40956   2.109   1.939   0.744 -0.3785 -0.1919  0.2552
  311MOL0     C40957   1.979   1.912   0.814 -0.4499  1.1336  0.1555
  311MOL0     C40958   1.972   1.769   0.853 -0.1007 -1.0134  0.2935
  311MOL0     C40959   1.836   1.743   0.902  0.1513 -0.1263  0.7185
  311MOL0     C40960   1.816   1.605   0.968 -0.1151  0.1038 -0.9195
  311MOL0     C40961   1.666   1.570   0.956 -0.5796  1.0934 -0.1014
  311MOL0     C40962   1.652   1.419   0.994 -0.2155 -0.5405 -0.1022
  311MOL0     C40963   1.504   1.379   0.960  0.2478 -0.2314 -0.1583
  311MOL0    Cl40964   1.476   1.207   1.009 -0.1059 -0.3371  0.5328
  311MOL0     C40965   2.364   2.099   0.900 -0.8699 -0.9795  0.1209
  311MOL0     C40966   2.485   2.169   0.874 -0.3822 -0.2231 -0.6523
  311MOL0     O40967   2.729   2.297   0.921  0.1724  0.3522 -0.4505
  311MOL0     C40968   2.902   2.345   0.616 -0.0125  0.1204 -0.1901
  311MOL0     C40969   3.020   2.405   0.566 -0.1188  0.4085  0.2077
  311MOL0     N40970   3.657   2.976   0.852  0.7301 -0.2234 -0.4038
  311MOL0     N40971   3.774   3.015   0.881  0.5984  1.2460  0.0400
  311MOL0     C40972   4.989   2.977   0.568  0.3251  0.7730 -0.6034
  311MOL0     C40973   5.107   3.027   0.513  0.1240  0.5497  0.2613
  311MOL0     C40974   5.505   3.112   0.359  0.8447 -0.0768  1.0227
  311MOL0     C40975   5.564   3.079   0.242 -0.0730  0.1917  0.1838
  311MOL0     C40976   5.689   3.118   0.208 -0.1510 -0.3454 -0.8004
  311MOL0     C40977   5.747   3.231   0.281 -1.0778 -0.3707 -0.4985
  311MOL0     O40978   5.867   3.293   0.241  0.0630 -0.7266  0.3047
  311MOL0     C40979   5.949   3.247   0.124  0.3026  0.3610 -0.2989
  311MOL0     C40980   6.068   3.345   0.082  0.2858  0.1980 -0.3374
  311MOL0     C40981   6.197   3.330   0.175  0.3442 -0.5663  0.6575
  311MOL0     C40982   6.181   3.415   0.310  0.3450 -1.3186 -0.0958
  311MOL0     C40983   6.302   3.434   0.376  0.5569 -0.0891 -0.1580
  311MOL0     C40984   6.414   3.466   0.419  0.2038  0.0547 -0.1214
  311MOL0     C40985   5.689   3.272   0.401  0.0491  0.9558  0.2146
  311MOL0     C40986   5.564   3.210   0.438 -0.8043  0.0779 -0.9866
  311MOL0     H40987   5.311   3.032   0.779  0.2707 -4.0060  1.0773
  311MOL0     H40988   5.115   2.937   0.882 -0.8843 -1.5060  0.1164
  311MOL0     H40989   4.806   2.737   0.683 -0.0512  1.0658 -4.0481
  311MOL0     H40990   4.738   2.894   0.635  1.9554 -0.1336 -1.2907
  311MOL0     H40991   4.671   2.935   0.873 -1.1185  0.2719 -0.2697
  311MOL0     H40992   4.705   2.770   0.922 -0.7440  0.2038  1.1277
  311MOL0     H40993   4.547   2.702   0.755  2.0983 -0.4579 -0.6027
  311MOL0     H40994   4.517   2.875   0.715 -1.2442  0.1785  2.0932
  311MOL0     H40995   4.475   2.736   0.991  2.5949 -0.7379 -1.6257
  311MOL0     H40996   4.466   2.906   0.968 -0.1182 -0.1542 -1.6444
  311MOL0     H40997   4.310   2.692   0.818  2.3650 -0.2571  0.5252
  311MOL0     H40998   4.286   2.856   0.786  0.7586  0.9732  0.3482
  311MOL0     H40999   4.227   2.912   1.020  1.1340  0.5324 -2.3088
  311MOL0     H41000   4.225   2.736   1.062 -1.7753  0.8827  1.2415
  311MOL0     H41001   4.043   2.729   0.882  0.5226  1.5270 -2.5434
  311MOL0     H41002   4.007   2.791   1.039 -0.2988 -0.9848 -0.1465
  311MOL0     H41003   4.063   2.954   0.778  3.4342 -1.8814  0.7437
  311MOL0     H41004   4.017   3.021   0.935 -2.5849  0.7081 -1.6339
  311MOL0     H41005   3.838   2.714   0.780  3.1210  1.2404  2.2013
  311MOL0     H41006   3.483   2.739   0.856  0.5304  2.0413 -0.6908
  311MOL0     H41007   3.601   2.644   0.778 -0.9032 -0.4163  2.2939
  311MOL0     H41008   3.554   2.806   0.571  0.1174 -1.4399 -0.6373
  311MOL0     H41009   3.407   2.849   0.654  1.1107 -0.1488  0.4244
  311MOL0     H41010   3.365   2.676   0.496  0.9455 -0.7202  0.2146
  311MOL0     H41011   3.481   2.568   0.563 -0.0202  0.6808 -1.5335
  311MOL0     H41012   3.247   2.670   0.747 -1.0843 -1.6298  0.7815
  311MOL0     H41013   3.341   2.519   0.749 -3.3445 -3.2809 -0.3863
  311MOL0     H41014   3.157   2.480   0.868  2.9618 -0.5836 -0.4737
  311MOL0     H41015   2.975   2.358   0.947 -0.4707  1.2845 -0.5603
  311MOL0     H41016   2.592   2.006   0.597  1.3593  1.6186  0.0504
  311MOL0     H41017   2.381   1.880   0.636  2.3423 -1.2747 -0.6672
  311MOL0     H41018   2.118   1.864   0.665 -0.9121  2.4297 -2.5001
  311MOL0     H41019   2.116   2.030   0.683  5.8009 -1.4587 -1.6247
  311MOL0     H41020   1.898   1.942   0.746 -1.8811 -1.3148  0.6462
  311MOL0     H41021   1.968   1.981   0.899 -2.7363 -0.7574  1.5008
  311MOL0     H41022   2.048   1.738   0.926  0.7809 -3.2258 -1.4217
  311MOL0     H41023   1.996   1.706   0.766 -0.2174 -0.8263  0.1270
  311MOL0     H41024   1.806   1.825   0.967  1.4294  0.2715  0.8397
  311MOL0     H41025   1.781   1.745   0.807 -1.4120 -1.0716  1.5634
  311MOL0     H41026   1.835   1.614   1.075  0.0780 -0.0198 -0.9435
  311MOL0     H41027   1.874   1.522   0.927 -1.5496 -2.2552  1.4416
  311MOL0     H41028   1.617   1.576   0.858 -0.2676 -0.8344 -0.4192
  311MOL0     H41029   1.608   1.630   1.027 -0.9954  0.8408 -0.2231
  311MOL0     H41030   1.728   1.358   0.945  2.2556  0.9293  1.7106
  311MOL0     H41031   1.675   1.411   1.101  0.1608  1.3838 -0.0063
  311MOL0     H41032   1.489   1.384   0.852 -1.7060  2.6130  0.1337
  311MOL0     H41033   1.427   1.443   1.005 -1.3317 -1.3806 -1.1298
  311MOL0     H41034   2.304   2.128   0.985  1.5379  0.0665  1.5705
  311MOL0     H41035   2.508   2.262   0.926 -0.4611 -1.0119  0.8555
  311MOL0     H41036   2.842   2.301   0.536 -0.7855 -1.4028  1.1600
  311MOL0     H41037   3.034   2.429   0.461 -0.4827  1.7650  0.4575
  311MOL0     H41038   4.898   2.982   0.509  0.0804  1.8762 -0.1489
  311MOL0     H41039   5.094   3.063   0.412  1.1966  4.6387  1.4164
  311MOL0     H41040   5.523   2.996   0.186 -0.4485 -0.7572  1.8039
  311MOL0     H41041   5.739   3.079   0.120 -0.6719 -1.3712 -0.6521
  311MOL0     H41042   5.882   3.235   0.038 -0.8759  5.2831 -0.3546
  311MOL0     H41043   5.998   3.157   0.161 -0.0282  0.9323  1.6303
  311MOL0     H41044   6.100   3.326  -0.021 -0.4865 -1.2516 -0.3397
  311MOL0     H41045   6.033   3.448   0.089 -0.6331 -0.1633  0.7474
  311MOL0     H41046   6.282   3.367   0.117  1.0510  1.5432  2.8750
  311MOL0     H41047   6.212   3.224   0.198 -0.1889 -0.9742 -0.7385
  311MOL0     H41048   6.143   3.511   0.273 -1.5177 -1.4168  1.4468
  311MOL0     H41049   6.102   3.368   0.368  0.7555  0.1938  1.7795
  311MOL0     H41050   6.515   3.485   0.446 -0.2971  0.3185  1.7296
  311MOL0     H41051   5.731   3.364   0.441  3.0320 -0.3014  0.2808
  311MOL0     H41052   5.519   3.242   0.531  0.1806 -1.9537  0.2632
  312MOL0     O41053   7.787   1.487   1.448  0.2604  0.9251  0.6782
  312MOL0     C41054   7.795   1.499   1.569 -0.3258  0.2106 -0.3265
  312MOL0     O41055   7.703   1.456   1.659  0.0667  0.1437 -0.1351
  312MOL0     C41056   7.579   1.421   1.609  1.5511 -0.3985  0.4927
  312MOL0     C41057   7.491   1.529   1.610  0.1695  0.0582  0.1190
  312MOL0     C41058   7.352   1.514   1.587 -0.0211 -0.3942 -0.5074
  312MOL0     C41059   7.304   1.387   1.570  0.2982  0.6782  0.7197
  312MOL0     O41060   7.173   1.380   1.555 -0.2540 -0.1516 -0.8370
  312MOL0     C41061   7.105   1.257   1.546  0.3568  0.6273  1.0958
  312MOL0     C41062   6.952   1.286   1.534 -0.1218  0.9591 -0.5376
  312MOL0     C41063   6.857   1.167   1.534 -0.2334  0.2799  1.2992
  312MOL0     C41064   6.705   1.221   1.522 -0.5206  0.6038  0.3168
  312MOL0     C41065   6.597   1.104   1.498  0.1169  0.0468 -0.3881
  312MOL0     C41066   6.467   1.170   1.440  0.0338 -0.0172  0.0383
  312MOL0     C41067   6.399   1.266   1.535  0.5356 -0.3718 -0.3810
  312MOL0     C41068   6.270   1.340   1.475 -0.5515  0.1402 -0.5341
  312MOL0     N41069   6.165   1.246   1.443  0.6574 -0.0327  0.3840
  312MOL0     C41070   6.105   1.168   1.547  1.0174  0.2046  0.2336
  312MOL0     C41071   5.988   1.119   1.490  0.2180 -1.3320  0.6800
  312MOL0     C41072   5.895   1.022   1.546 -0.7674  0.2987 -0.5584
  312MOL0     C41073   5.792   1.088   1.641  0.5372 -0.3880 -0.0821
  312MOL0     C41074   5.667   1.133   1.564 -0.2811 -0.1979 -0.3706
  312MOL0     C41075   5.566   1.195   1.663  0.3611 -0.1614  0.3821
  312MOL0     O41076   5.469   1.273   1.590  1.3027  0.7558 -0.3189
  312MOL0     C41077   5.372   1.344   1.659  0.1127  0.5016  0.4756
  312MOL0     C41078   5.385   1.386   1.791  0.2266 -0.4698 -0.9582
  312MOL0     C41079   5.279   1.439   1.864  0.4203 -0.0639  0.0310
  312MOL0     C41080   5.152   1.457   1.807 -0.7188  0.2166 -0.1334
  312MOL0     C41081   5.035   1.484   1.891  0.9996  0.5078  0.1559
  312MOL0     O41082   4.911   1.525   1.830 -0.0081 -0.5748 -0.3986
  312MOL0     C41083   4.801   1.573   1.899  0.4755  0.3735  0.9064
  312MOL0     C41084   4.799   1.625   2.034  0.2581  0.1908  0.0155
  312MOL0     C41085   4.677   1.673   2.088  0.9555  0.3533 -0.1884
  312MOL0     C41086   4.554   1.666   2.014 -1.1096  0.7573  0.2388
  312MOL0     O41087   4.430   1.677   2.072 -0.0121 -0.3702  0.6369
  312MOL0     C41088   4.408   1.791   2.156 -0.1745  0.3962 -0.2742
  312MOL0     C41089   4.259   1.816   2.158 -0.5753  0.9947  0.0395
  312MOL0     C41090   4.217   1.915   2.261  0.9351 -0.1302  0.6615
  312MOL0     C41091   4.067   1.942   2.239 -0.4257  0.0023 -0.9801
  312MOL0     C41092   4.013   1.988   2.375 -0.1927  0.1729  0.2536
  312MOL0     C41093   3.860   2.029   2.343  0.4203 -0.3379 -0.4185
  312MOL0     C41094   3.784   2.050   2.481 -0.0624 -0.5256 -0.1976
  312MOL0     C41095   3.639   2.013   2.458 -0.4146  0.6791  0.2128
  312MOL0    Cl41096   3.632   1.839   2.426 -0.2679  0.2606  0.5045
  312MOL0     C41097   4.570   1.622   1.881  0.1751 -0.5593 -0.2197
  312MOL0     C41098   4.688   1.579   1.825 -0.5626 -0.1172  0.0212
  312MOL0     O41099   5.051   1.472   2.015 -0.2034 -0.8524 -0.4863
  312MOL0     C41100   5.142   1.430   1.665 -0.1352 -0.6845 -0.7186
  312MOL0     C41101   5.249   1.380   1.593  0.2660 -0.1863 -0.5666
  312MOL0     N41102   5.983   1.163   1.352 -0.2524 -0.4565 -0.5800
  312MOL0     N41103   6.088   1.240   1.330 -0.4560  0.0680  0.0728
  312MOL0     C41104   7.393   1.278   1.559 -0.0014 -0.0346 -1.1242
  312MOL0     C41105   7.529   1.286   1.581 -0.0232 -1.4333 -0.7299
  312MOL0     C41106   7.930   1.551   1.622 -0.1272  0.4593 -0.5429
  312MOL0     C41107   7.964   1.527   1.756  0.1385  0.2796 -0.5643
  312MOL0     C41108   8.086   1.564   1.806  0.6191 -0.2490  0.0955
  312MOL0     C41109   8.180   1.618   1.726 -0.1627 -0.3665  0.6774
  312MOL0     O41110   8.301   1.638   1.785 -0.6363  0.2514 -0.7543
  312MOL0     C41111   8.402   1.730   1.736  0.1383  0.2566  0.9154
  312MOL0     C41112   8.537   1.696   1.804  0.8324  1.1143 -0.2922
  312MOL0     C41113   8.635   1.799   1.761  0.9657  0.2562  0.3159
  312MOL0     C41114   8.775   1.756   1.786 -0.0972  0.9134 -0.8468
  312MOL0     C41115   8.798   1.730   1.930 -0.3902  0.0209 -0.8651
  312MOL0     C41116   8.824   1.715   2.048  0.2276  0.2829  0.5558
  312MOL0     C41117   8.152   1.656   1.590  0.0402 -0.4701  0.2479
  312MOL0     C41118   8.028   1.618   1.539  0.5200 -0.0711 -0.2285
  312MOL0     H41119   7.535   1.624   1.638  2.8454 -1.2671  0.6639
  312MOL0     H41120   7.295   1.605   1.584 -0.1418 -0.4831 -1.6771
  312MOL0     H41121   7.123   1.180   1.621 -1.2192 -0.4700  0.4011
  312MOL0     H41122   7.128   1.207   1.451 -4.3198  1.5833 -0.8247
  312MOL0     H41123   6.936   1.343   1.442 -0.1290  1.8726  0.0248
  312MOL0     H41124   6.924   1.344   1.622  0.5292  0.2551  0.1547
  312MOL0     H41125   6.874   1.112   1.627  0.6514 -0.0301  0.9621
  312MOL0     H41126   6.875   1.090   1.458 -1.1262  0.6145  0.7196
  312MOL0     H41127   6.689   1.280   1.613 -1.0248 -1.3746  1.5700
  312MOL0     H41128   6.707   1.283   1.432  0.0505 -1.0848 -0.8808
  312MOL0     H41129   6.571   1.044   1.585 -4.8979 -0.3338 -1.8395
  312MOL0     H41130   6.635   1.042   1.416 -0.0507  0.2534 -0.6227
  312MOL0     H41131   6.396   1.099   1.397  1.9254 -0.9386 -1.7334
  312MOL0     H41132   6.502   1.215   1.346  0.4714 -2.2661 -0.9328
  312MOL0     H41133   6.355   1.219   1.624  2.5960 -0.2255  0.7814
  312MOL0     H41134   6.467   1.344   1.568  0.1868  0.1806 -0.9517
  312MOL0     H41135   6.282   1.404   1.387 -0.2764 -0.1509 -0.7138
  312MOL0     H41136   6.229   1.400   1.556  1.2812  0.1305  0.4547
  312MOL0     H41137   6.144   1.161   1.648  1.3942 -2.3908 -0.0270
  312MOL0     H41138   5.951   0.952   1.608  0.0255  1.6896  0.3438
  312MOL0     H41139   5.839   0.979   1.462 -2.8630 -0.7628  1.2849
  312MOL0     H41140   5.838   1.179   1.683 -2.3149  1.3425 -0.4508
  312MOL0     H41141   5.764   1.019   1.722  1.7512  0.2167  0.8888
  312MOL0     H41142   5.684   1.192   1.474 -0.5249  1.1699  0.4460
  312MOL0     H41143   5.619   1.038   1.538  0.0138  0.4169 -3.5161
  312MOL0     H41144   5.629   1.247   1.737  2.3969 -2.6097  0.5097
  312MOL0     H41145   5.517   1.115   1.719 -0.2769  0.3360  0.5443
  312MOL0     H41146   5.475   1.377   1.850 -0.1168  0.7891 -0.2136
  312MOL0     H41147   5.301   1.465   1.967 -1.4197 -0.2175  0.4890
  312MOL0     H41148   4.893   1.637   2.087 -0.5848  1.2316  1.3084
  312MOL0     H41149   4.676   1.710   2.190 -0.2133  3.1029 -1.0857
  312MOL0     H41150   4.471   1.878   2.139  0.6661  0.2404  1.7214
  312MOL0     H41151   4.427   1.760   2.259 -0.1717 -2.8676 -1.1449
  312MOL0     H41152   4.200   1.725   2.172  1.0467 -0.3214 -1.2320
  312MOL0     H41153   4.229   1.848   2.058 -1.3105 -2.1634 -0.8512
  312MOL0     H41154   4.283   2.002   2.257 -0.0907  0.7374  1.7987
  312MOL0     H41155   4.236   1.869   2.358  2.2834  0.8456  0.8915
  312MOL0     H41156   4.053   2.016   2.160 -1.6627 -0.8921 -1.6212
  312MOL0     H41157   4.007   1.855   2.212  3.1408 -2.6897 -0.9919
  312MOL0     H41158   4.061   2.078   2.415 -0.0714  0.8199 -1.2638
  312MOL0     H41159   4.029   1.915   2.455  2.8117  0.0792 -0.2932
  312MOL0     H41160   3.811   1.947   2.291 -0.1002 -1.6605  1.9995
  312MOL0     H41161   3.858   2.118   2.280 -0.1425  0.7264  1.0409
  312MOL0     H41162   3.825   1.990   2.564  1.5423 -0.4630 -0.9122
  312MOL0     H41163   3.804   2.150   2.521  0.2278 -0.7112  0.1329
  312MOL0     H41164   3.610   2.063   2.365  1.7757  2.3521  0.3397
  312MOL0     H41165   3.575   2.051   2.539  0.2019 -1.0937  1.6024
  312MOL0     H41166   4.487   1.629   1.812 -0.8073 -1.1698  0.8795
  312MOL0     H41167   4.697   1.545   1.723 -2.6383 -2.0541  0.4138
  312MOL0     H41168   5.060   1.462   1.601 -0.5293 -1.5190 -0.6467
  312MOL0     H41169   5.247   1.366   1.485 -1.1218  1.9996 -0.8804
  312MOL0     H41170   7.357   1.190   1.508  0.7760  0.5541 -2.7668
  312MOL0     H41171   7.589   1.199   1.556  0.9807 -1.1670  0.6140
  312MOL0     H41172   7.882   1.488   1.817 -0.1925  1.2807 -0.3533
  312MOL0     H41173   8.116   1.544   1.908  0.4610 -0.9427  0.0085
  312MOL0     H41174   8.387   1.838   1.740 -0.2375  0.5855 -3.8352
  312MOL0     H41175   8.404   1.717   1.628 -2.2187  0.6403  0.7808
  312MOL0     H41176   8.524   1.701   1.912  1.0322  0.5790 -0.2407
  312MOL0     H41177   8.577   1.597   1.779  1.6973  1.4941 -0.4314
  312MOL0     H41178   8.616   1.897   1.807  1.0253  1.8293 -2.7122
  312MOL0     H41179   8.619   1.813   1.654  0.9568 -3.0406 -0.2186
  312MOL0     H41180   8.793   1.664   1.730  1.3408  0.8744 -0.3597
  312MOL0     H41181   8.844   1.837   1.759  0.7107  0.4198 -0.2991
  312MOL0     H41182   8.825   1.701   2.155 -0.9095  2.2732  0.8640
  312MOL0     H41183   8.227   1.707   1.530 -0.0246 -3.2965 -2.5137
  312MOL0     H41184   7.999   1.644   1.437  1.4772 -0.2975 -0.5689
  313MOL0     O41185   3.119   8.345   5.960  0.0548 -0.5543  0.2674
  313MOL0     C41186   3.032   8.334   5.871 -0.2701  0.6240 -0.2563
  313MOL0     O41187   3.056   8.346   5.736 -0.3867  0.3498 -0.1004
  313MOL0     C41188   3.184   8.345   5.685 -1.0796  0.0811  0.2959
  313MOL0     C41189   3.297   8.410   5.744  0.7719 -0.0473  1.0099
  313MOL0     C41190   3.418   8.398   5.690 -0.0646  0.4522 -0.4420
  313MOL0     C41191   3.437   8.337   5.569 -0.8336  0.7904 -0.0380
  313MOL0     O41192   3.551   8.323   5.490 -0.3292 -0.5058  0.4798
  313MOL0     C41193   3.666   8.407   5.512 -0.1844 -1.1793 -0.9465
  313MOL0     C41194   3.787   8.338   5.570 -0.6324  0.4595 -0.1177
  313MOL0     C41195   3.863   8.266   5.457 -0.6909  0.1716  0.1338
  313MOL0     C41196   4.000   8.204   5.506 -0.1613 -1.0336  0.6232
  313MOL0     C41197   4.073   8.127   5.392  0.6588  0.2088 -0.7643
  313MOL0     C41198   4.183   8.039   5.445 -0.4665 -0.5358  0.6324
  313MOL0     C41199   4.291   8.103   5.543 -0.8477  0.3218  1.1446
  313MOL0     C41200   4.388   7.996   5.590 -0.2596 -0.0264  0.3911
  313MOL0     N41201   4.342   7.926   5.708 -0.5492  0.7133 -0.2745
  313MOL0     C41202   4.220   7.872   5.737  0.3168  0.2472 -0.3439
  313MOL0     C41203   4.239   7.820   5.860  0.5909  0.5786 -0.3255
  313MOL0     C41204   4.144   7.730   5.941 -0.8417 -0.5021 -0.5294
  313MOL0     C41205   3.992   7.746   5.923  1.0280  0.8690 -0.5858
  313MOL0     C41206   3.916   7.683   6.047 -0.1729  0.5633  0.0611
  313MOL0     C41207   3.765   7.674   6.003  0.0637  0.0577 -0.0884
  313MOL0     O41208   3.682   7.639   6.111  0.5074 -0.4722 -0.0772
  313MOL0     C41209   3.553   7.591   6.092  0.4650 -0.4153  0.7966
  313MOL0     C41210   3.479   7.557   6.211 -0.5839 -0.1511  1.0678
  313MOL0     C41211   3.349   7.515   6.204  0.7990 -0.5653  0.6037
  313MOL0     C41212   3.289   7.506   6.070 -0.4249  0.8997  0.2303
  313MOL0     C41213   3.149   7.464   6.059 -0.8291  0.0725  0.6094
  313MOL0     O41214   3.069   7.462   6.168  0.1324 -0.7686  0.8338
  313MOL0     C41215   2.941   7.430   6.164  0.2127 -0.7273  0.3179
  313MOL0     C41216   2.848   7.508   6.234  0.0492  0.0351  0.3785
  313MOL0     C41217   2.713   7.471   6.234 -0.9307 -0.2631 -0.8279
  313MOL0     C41218   2.674   7.353   6.168 -0.1408 -1.5947  0.0464
  313MOL0     O41219   2.539   7.340   6.160 -0.0962 -0.8041  0.4143
  313MOL0     C41220   2.484   7.279   6.039  0.5789  0.1680 -1.0600
  313MOL0     C41221   2.331   7.265   6.058  0.3686 -0.2067  0.4044
  313MOL0     C41222   2.284   7.117   6.072  0.2896 -1.0101 -0.0150
  313MOL0     C41223   2.134   7.119   6.111 -0.6903  0.2710 -0.4779
  313MOL0     C41224   2.066   6.994   6.081 -0.0322  0.5023  0.4267
  313MOL0     C41225   1.927   6.977   6.126 -0.1098 -0.1843  0.8274
  313MOL0     C41226   1.836   7.092   6.080  0.9688  0.8253  0.2027
  313MOL0     C41227   1.805   7.077   5.928 -0.1634  0.4660  0.6181
  313MOL0    Cl41228   1.895   7.184   5.828 -0.1497  0.0700 -0.1224
  313MOL0     C41229   2.772   7.273   6.108  0.3167 -1.0828  0.5750
  313MOL0     C41230   2.900   7.315   6.101  0.1586  0.1297  0.5297
  313MOL0     O41231   3.118   7.430   5.945 -0.4005  0.4232 -0.3593
  313MOL0     C41232   3.367   7.536   5.952  0.3182  0.1093 -0.3518
  313MOL0     C41233   3.490   7.586   5.967  0.0241 -1.0975  0.2728
  313MOL0     N41234   4.365   7.830   5.901  0.0824  0.2300 -0.0886
  313MOL0     N41235   4.422   7.909   5.816  1.2655 -0.4892  0.5593
  313MOL0     C41236   3.325   8.276   5.503  0.1019  0.2712 -0.2279
  313MOL0     C41237   3.198   8.282   5.565 -0.6431  0.9813  0.5006
  313MOL0     C41238   2.891   8.308   5.916 -0.1178  0.8475  1.0128
  313MOL0     C41239   2.784   8.355   5.835 -0.1089  0.6855 -0.6912
  313MOL0     C41240   2.654   8.325   5.882  0.4242  0.1415  0.8711
  313MOL0     C41241   2.634   8.282   6.012  0.8963  0.6620 -0.0116
  313MOL0     O41242   2.516   8.264   6.082 -0.0681 -0.3391  0.1044
  313MOL0     C41243   2.435   8.160   6.029 -0.1872 -0.4067  0.6289
  313MOL0     C41244   2.282   8.195   6.000  0.7840  0.1289  0.2388
  313MOL0     C41245   2.182   8.171   6.116 -0.6268  0.8744  0.1764
  313MOL0     C41246   2.124   8.023   6.121 -0.7071 -0.4744  0.5191
  313MOL0     C41247   1.990   8.017   6.091  0.0975 -0.4931  0.1853
  313MOL0     C41248   1.883   8.000   6.036  0.2580 -0.5923  0.1033
  313MOL0     C41249   2.742   8.234   6.089 -0.0020 -0.1561  0.5495
  313MOL0     C41250   2.868   8.241   6.040 -0.0256 -0.6640  0.1349
  313MOL0     H41251   3.285   8.469   5.835  1.5392  2.8216 -0.6375
  313MOL0     H41252   3.497   8.434   5.755 -0.1315 -1.6727  0.9285
  313MOL0     H41253   3.657   8.484   5.589  2.1470 -1.3196 -0.4695
  313MOL0     H41254   3.692   8.460   5.420  0.0443 -1.2875 -0.9439
  313MOL0     H41255   3.764   8.264   5.648  0.4506 -0.8343 -0.9831
  313MOL0     H41256   3.854   8.407   5.622 -0.4804 -0.4144  0.8936
  313MOL0     H41257   3.890   8.339   5.380  1.7873  0.2844  1.0107
  313MOL0     H41258   3.796   8.189   5.419 -3.4442  1.9766  1.0647
  313MOL0     H41259   4.056   8.284   5.553  1.4715 -2.3408  0.9901
  313MOL0     H41260   4.001   8.128   5.584  2.7657  0.6067  2.3396
  313MOL0     H41261   4.110   8.193   5.313  0.7557  0.0814 -0.8254
  313MOL0     H41262   3.989   8.066   5.356 -0.2010  0.8987 -0.0001
  313MOL0     H41263   4.234   8.002   5.355 -0.7455 -2.5368  1.2320
  313MOL0     H41264   4.134   7.956   5.498  0.2474 -1.7077 -0.4737
  313MOL0     H41265   4.349   8.181   5.493  2.8394 -2.1267  1.2097
  313MOL0     H41266   4.246   8.153   5.629  1.7183  0.9587  2.2228
  313MOL0     H41267   4.488   8.034   5.613 -1.1579  1.7932  1.5136
  313MOL0     H41268   4.412   7.932   5.505 -0.6191  1.8931 -1.2462
  313MOL0     H41269   4.133   7.849   5.676 -0.1044 -2.5021  1.1049
  313MOL0     H41270   4.180   7.730   6.045  2.1905 -3.7687 -1.3918
  313MOL0     H41271   4.167   7.629   5.908  1.5298 -1.0098  2.2047
  313MOL0     H41272   3.967   7.689   5.832  2.3126 -0.9451  0.1349
  313MOL0     H41273   3.965   7.851   5.911  0.7707  0.9187  0.3528
  313MOL0     H41274   3.955   7.582   6.061  3.9088  1.7827 -1.2983
  313MOL0     H41275   3.936   7.733   6.142  1.4787 -3.2001  1.8820
  313MOL0     H41276   3.765   7.598   5.924 -0.2273 -0.9176  0.8155
  313MOL0     H41277   3.730   7.770   5.965 -0.3684 -0.6236 -1.4862
  313MOL0     H41278   3.540   7.575   6.299 -1.3400  0.6089  1.4501
  313MOL0     H41279   3.292   7.485   6.292 -0.3582 -2.3230 -0.6706
  313MOL0     H41280   2.879   7.597   6.288  1.6761 -0.8668  0.9940
  313MOL0     H41281   2.652   7.546   6.283  0.8792 -0.4301  1.8976
  313MOL0     H41282   2.529   7.182   6.017 -1.9517 -0.9562 -1.6606
  313MOL0     H41283   2.501   7.347   5.955  0.2362  1.7130  0.0681
  313MOL0     H41284   2.277   7.315   5.977 -0.9708 -2.4860 -0.2249
  313MOL0     H41285   2.298   7.327   6.141 -2.9183  2.4761 -2.6044
  313MOL0     H41286   2.335   7.065   6.154 -1.4183 -0.5640  1.4024
  313MOL0     H41287   2.290   7.064   5.977 -2.3546 -0.0553 -0.7988
  313MOL0     H41288   2.114   7.138   6.217 -2.0196  0.3954 -0.7344
  313MOL0     H41289   2.090   7.204   6.058  0.7643 -0.1713 -2.4874
  313MOL0     H41290   2.132   6.916   6.120  0.5604  0.8116  0.0694
  313MOL0     H41291   2.072   6.982   5.972 -1.5786  1.3411  0.2204
  313MOL0     H41292   1.922   6.975   6.235 -0.7889  0.2452  0.8044
  313MOL0     H41293   1.892   6.878   6.096 -0.2031  0.3982 -1.1653
  313MOL0     H41294   1.743   7.082   6.138  0.8128 -2.7793 -0.4200
  313MOL0     H41295   1.889   7.183   6.108  0.2737  1.2177  0.2778
  313MOL0     H41296   1.699   7.096   5.909 -0.2837 -1.5497 -0.9977
  313MOL0     H41297   1.822   6.973   5.898 -0.4252  0.6234 -0.0703
  313MOL0     H41298   2.751   7.177   6.062  2.2926 -1.5540  0.5775
  313MOL0     H41299   2.969   7.246   6.052 -1.1791 -0.7073 -0.2134
  313MOL0     H41300   3.336   7.541   5.848  0.7663 -0.2326 -0.5053
  313MOL0     H41301   3.540   7.610   5.874 -1.0856 -3.8083 -1.1041
  313MOL0     H41302   3.341   8.218   5.412  3.8503  1.1306 -0.2661
  313MOL0     H41303   3.124   8.219   5.516  1.4536 -1.4173  0.1866
  313MOL0     H41304   2.794   8.408   5.741  1.2351  2.8127  0.5766
  313MOL0     H41305   2.564   8.353   5.828  0.2709 -0.2256  0.9303
  313MOL0     H41306   2.426   8.076   6.099 -0.6007  1.1911  2.5742
  313MOL0     H41307   2.478   8.132   5.932  0.9705  2.3946  0.2356
  313MOL0     H41308   2.283   8.303   5.987  2.6387 -0.0678 -1.6359
  313MOL0     H41309   2.252   8.141   5.910 -0.6387  0.8508  0.2438
  313MOL0     H41310   2.101   8.241   6.098  1.1964  2.3960 -2.8865
  313MOL0     H41311   2.240   8.214   6.199  0.0347  3.9864 -1.7269
  313MOL0     H41312   2.180   7.961   6.050 -0.3669  0.4529 -0.0414
  313MOL0     H41313   2.133   7.984   6.223 -1.9976 -1.0580  0.4302
  313MOL0     H41314   1.789   7.993   5.985 -1.1466  1.7540  2.1633
  313MOL0     H41315   2.728   8.201   6.191  0.4731 -1.6627  0.1477
  313MOL0     H41316   2.951   8.198   6.094 -0.4694 -2.6132 -0.6211
  314MOL0     O41317   9.380   3.221  11.115 -0.1966  0.9056 -0.2887
  314MOL0     C41318   9.429   3.284  11.021  0.4692  0.8771 -0.1048
  314MOL0     O41319   9.358   3.372  10.936 -0.8685  0.5804 -0.2482
  314MOL0     C41320   9.220   3.383  10.930 -1.1651 -0.0087  0.6391
  314MOL0     C41321   9.133   3.279  10.967 -0.4361 -0.5058  0.0272
  314MOL0     C41322   8.999   3.298  10.943 -1.4255  0.1618 -0.4082
  314MOL0     C41323   8.942   3.411  10.881  0.9094  0.0994  0.7509
  314MOL0     O41324   8.803   3.422  10.859  0.6065 -0.4333 -0.0280
  314MOL0     C41325   8.769   3.521  10.766 -0.8414  1.2563  0.1683
  314MOL0     C41326   8.615   3.530  10.754  0.2796  0.9478  0.1249
  314MOL0     C41327   8.545   3.575  10.882  1.5874  0.2855  0.1434
  314MOL0     C41328   8.393   3.613  10.849  0.8331  0.2195  0.5805
  314MOL0     C41329   8.320   3.500  10.780 -0.8203  0.1940  0.3228
  314MOL0     C41330   8.179   3.517  10.789 -0.1139  0.1041 -0.4356
  314MOL0     C41331   8.110   3.432  10.899  0.0449  0.4295  0.8676
  314MOL0     C41332   7.968   3.477  10.942  0.3966  0.0301  0.4237
  314MOL0     N41333   7.968   3.622  10.964  0.0144 -0.4781 -0.5003
  314MOL0     C41334   7.876   3.708  10.899  0.2686 -0.0548 -0.0884
  314MOL0     C41335   7.890   3.824  10.965 -0.5687 -0.0601 -0.1778
  314MOL0     C41336   7.798   3.939  10.934  0.2184  0.0121  0.8658
  314MOL0     C41337   7.647   3.913  10.925 -0.8480 -0.8369  0.1685
  314MOL0     C41338   7.591   3.861  11.061  0.3041 -0.3094  0.2043
  314MOL0     C41339   7.446   3.811  11.043 -0.5180  0.0792  0.3901
  314MOL0     O41340   7.351   3.913  11.057 -0.0042  0.0240  0.6234
  314MOL0     C41341   7.221   3.881  11.043  0.5350  0.0886  0.4976
  314MOL0     C41342   7.125   3.984  11.076 -0.3574  0.2432 -0.4103
  314MOL0     C41343   6.988   3.958  11.077 -0.1012  0.0445  0.9869
  314MOL0     C41344   6.938   3.830  11.026  0.1021 -0.7014 -0.4486
  314MOL0     C41345   6.797   3.813  10.997  0.9282  0.5610  0.7030
  314MOL0     O41346   6.710   3.901  11.050  0.3895 -0.2928  0.7028
  314MOL0     C41347   6.578   3.899  10.995 -0.7114 -0.1937 -0.4900
  314MOL0     C41348   6.552   3.968  10.875 -0.5898  0.1453  0.7497
  314MOL0     C41349   6.429   3.969  10.821 -0.2037  0.3348  0.6133
  314MOL0     C41350   6.316   3.909  10.879  0.3069 -0.1693 -0.6292
  314MOL0     O41351   6.202   3.892  10.809  0.1457  0.5597  0.4958
  314MOL0     C41352   6.135   4.005  10.755  0.3184  0.5800  0.1300
  314MOL0     C41353   6.007   3.962  10.682 -0.0162  0.2163  0.2194
  314MOL0     C41354   5.911   3.893  10.785  0.3523  0.0619 -0.4559
  314MOL0     C41355   5.766   3.909  10.737  1.0243 -0.0361 -0.3671
  314MOL0     C41356   5.679   3.825  10.827 -0.0067 -0.5496 -0.0084
  314MOL0     C41357   5.527   3.858  10.804 -0.2485  0.5383  0.0621
  314MOL0     C41358   5.443   3.790  10.920  1.3701 -0.3941 -0.5056
  314MOL0     C41359   5.294   3.784  10.878  0.1765  0.1362  0.2913
  314MOL0    Cl41360   5.194   3.710  11.009 -0.0469  0.0084 -0.2474
  314MOL0     C41361   6.333   3.836  10.996 -0.9592  0.6333  0.7605
  314MOL0     C41362   6.470   3.832  11.055  0.4551  0.9580  0.5897
  314MOL0     O41363   6.766   3.712  10.934  0.3016 -0.0072 -0.5813
  314MOL0     C41364   7.034   3.724  11.003 -0.5552 -0.4148 -0.4253
  314MOL0     C41365   7.173   3.747  11.013 -0.5925 -0.5578 -0.1300
  314MOL0     N41366   7.987   3.808  11.061 -0.0821 -0.2490 -0.1133
  314MOL0     N41367   8.034   3.681  11.068 -0.2530  0.0495  0.4338
  314MOL0     C41368   9.035   3.517  10.851 -0.4692  0.9837  0.1603
  314MOL0     C41369   9.177   3.503  10.874 -0.2745 -0.0953 -1.1657
  314MOL0     C41370   9.575   3.288  11.018  0.3663 -0.1809 -0.2948
  314MOL0     C41371   9.637   3.358  10.919 -0.3645  0.4387  0.6253
  314MOL0     C41372   9.777   3.389  10.925 -0.6144 -0.0568  0.0581
  314MOL0     C41373   9.853   3.353  11.035 -0.6917  0.0601 -0.5698
  314MOL0     O41374   9.984   3.389  11.026  0.2181  0.5271 -0.0346
  314MOL0     C41375  10.074   3.370  11.132 -0.8577 -0.0851 -0.3273
  314MOL0     C41376  10.194   3.464  11.130  0.3630 -0.0746 -0.1465
  314MOL0     C41377  10.288   3.434  11.249 -0.2553  0.6789  0.4408
  314MOL0     C41378  10.365   3.300  11.226  0.8978  0.2480 -0.0149
  314MOL0     C41379  10.477   3.295  11.323  1.4722 -0.9328 -0.0085
  314MOL0     C41380  10.561   3.298  11.412 -0.5238  0.7622  0.3175
  314MOL0     C41381   9.792   3.280  11.131  0.2029  0.1546  0.8634
  314MOL0     C41382   9.654   3.246  11.125 -1.0929  0.1611 -0.7654
  314MOL0     H41383   9.167   3.189  11.019  0.4814 -0.3978 -0.3512
  314MOL0     H41384   8.933   3.213  10.961  2.1677 -3.8047 -3.6716
  314MOL0     H41385   8.798   3.489  10.666  3.2041 -1.7416  2.0449
  314MOL0     H41386   8.791   3.621  10.805 -2.9647  1.6859  0.4166
  314MOL0     H41387   8.580   3.432  10.720 -0.3139  1.1610  0.1038
  314MOL0     H41388   8.588   3.599  10.673  2.1711 -0.7595 -2.0800
  314MOL0     H41389   8.587   3.670  10.917  1.0943  0.4839  0.1969
  314MOL0     H41390   8.551   3.496  10.958  1.0767 -0.1673 -0.2817
  314MOL0     H41391   8.348   3.639  10.945  0.0259 -0.6892  0.4708
  314MOL0     H41392   8.398   3.706  10.791  1.2778  0.0621  0.3610
  314MOL0     H41393   8.335   3.402  10.827 -1.4928 -0.7700 -1.3622
  314MOL0     H41394   8.337   3.487  10.673 -0.1330  0.4887  0.3929
  314MOL0     H41395   8.119   3.485  10.704 -3.0843  1.6622  0.9408
  314MOL0     H41396   8.156   3.622  10.809 -0.3367 -0.2113  1.0715
  314MOL0     H41397   8.107   3.330  10.860  0.4270  0.7697 -0.0701
  314MOL0     H41398   8.172   3.428  10.989  2.9367 -1.1512 -1.0325
  314MOL0     H41399   7.926   3.426  11.029  0.5962 -2.1444 -0.6894
  314MOL0     H41400   7.904   3.451  10.857 -1.4192  0.9477  1.4431
  314MOL0     H41401   7.817   3.672  10.816  1.9253  0.4453 -1.5628
  314MOL0     H41402   7.827   3.998  10.847  0.3575 -1.4584 -0.1043
  314MOL0     H41403   7.801   4.007  11.020 -2.9327 -1.6745  2.4719
  314MOL0     H41404   7.633   3.836  10.849 -3.8364 -1.9541  1.6855
  314MOL0     H41405   7.603   4.006  10.888 -0.2898 -1.0412 -1.0644
  314MOL0     H41406   7.654   3.777  11.093  1.0123  0.7206  1.6004
  314MOL0     H41407   7.584   3.940  11.135 -3.2644  2.2841 -2.5646
  314MOL0     H41408   7.426   3.747  11.129 -1.2493 -0.3937 -0.1172
  314MOL0     H41409   7.435   3.751  10.953  1.6176 -0.9313  0.7662
  314MOL0     H41410   7.158   4.084  11.102  1.0038 -0.6545  1.5780
  314MOL0     H41411   6.918   4.036  11.107  0.8581  1.5345 -0.4781
  314MOL0     H41412   6.631   4.021  10.824 -1.5126  1.1741  0.3373
  314MOL0     H41413   6.414   4.032  10.735  1.0711 -0.4545 -0.2203
  314MOL0     H41414   6.196   4.067  10.688 -0.2565  2.6554  1.4662
  314MOL0     H41415   6.101   4.059  10.843  0.3996 -1.2211  1.3295
  314MOL0     H41416   6.027   3.904  10.591 -0.2998  0.9510 -0.3270
  314MOL0     H41417   5.956   4.053  10.649 -2.7590 -0.4804  2.2617
  314MOL0     H41418   5.909   3.938  10.884  0.2688  2.6036 -1.5312
  314MOL0     H41419   5.935   3.788  10.804  1.9571  0.7442  1.6527
  314MOL0     H41420   5.748   4.015  10.720  3.4174  0.3074 -1.1328
  314MOL0     H41421   5.760   3.858  10.640 -1.3140 -1.6517  0.5294
  314MOL0     H41422   5.698   3.843  10.934  0.2120  0.9210 -0.2863
  314MOL0     H41423   5.704   3.720  10.807 -2.4967 -0.9683 -1.3633
  314MOL0     H41424   5.508   3.828  10.700  1.8781 -4.0278  0.7591
  314MOL0     H41425   5.518   3.967  10.814 -0.0260  0.6526 -0.8577
  314MOL0     H41426   5.477   3.687  10.936 -1.0249 -1.2197 -0.3342
  314MOL0     H41427   5.445   3.847  11.013 -2.0945 -0.4363 -0.2921
  314MOL0     H41428   5.279   3.722  10.790 -3.6602  1.9640 -0.5812
  314MOL0     H41429   5.255   3.883  10.851 -0.8223 -1.0748 -3.1728
  314MOL0     H41430   6.253   3.779  11.041 -0.5411 -1.8053 -1.3621
  314MOL0     H41431   6.497   3.768  11.139 -0.0136 -0.2926 -0.2020
  314MOL0     H41432   7.014   3.621  10.973 -3.0991  0.1491 -0.8593
  314MOL0     H41433   7.239   3.662  11.002  1.5130  0.7186  1.9022
  314MOL0     H41434   8.987   3.594  10.792 -1.9725 -1.8063 -2.6160
  314MOL0     H41435   9.233   3.587  10.834 -2.6472  1.8886 -0.5548
  314MOL0     H41436   9.586   3.400  10.832 -0.6323  0.2611  0.6979
  314MOL0     H41437   9.826   3.435  10.839 -2.6240  1.3038 -0.4355
  314MOL0     H41438  10.113   3.268  11.128  1.2401  0.6997 -3.2147
  314MOL0     H41439  10.024   3.397  11.225  1.8389  0.2849  1.1197
  314MOL0     H41440  10.251   3.451  11.038 -1.3851 -1.8447 -1.0556
  314MOL0     H41441  10.165   3.569  11.133 -0.7032 -0.3582  2.7816
  314MOL0     H41442  10.229   3.412  11.338 -2.4266 -0.4727 -1.1977
  314MOL0     H41443  10.359   3.515  11.268  0.0649  0.0378  2.1216
  314MOL0     H41444  10.297   3.218  11.253 -0.5451  2.3193  3.2024
  314MOL0     H41445  10.402   3.285  11.124 -1.9115  2.3821 -1.4810
  314MOL0     H41446  10.634   3.282  11.489 -1.8784  0.0953  1.5104
  314MOL0     H41447   9.852   3.243  11.214  1.5540 -2.1640 -1.0009
  314MOL0     H41448   9.607   3.193  11.207 -2.3900  1.1154 -0.8709
  315MOL0     O41449   4.903   3.272   0.503  0.5230 -0.0974  0.8365
  315MOL0     C41450   4.878   3.348   0.406  0.5883  0.7098 -0.0460
  315MOL0     O41451   4.752   3.394   0.369 -0.2154  0.3612  0.5146
  315MOL0     C41452   4.634   3.339   0.409  0.0033  0.0504  0.9965
  315MOL0     C41453   4.615   3.205   0.443 -1.1395  0.1378  0.2960
  315MOL0     C41454   4.493   3.153   0.477  0.0880  0.0524 -0.6008
  315MOL0     C41455   4.380   3.234   0.474 -0.6985  0.2372  0.7069
  315MOL0     O41456   4.261   3.178   0.518 -0.7253 -0.9887 -0.5702
  315MOL0     C41457   4.137   3.248   0.486  0.5628 -0.2852  0.0472
  315MOL0     C41458   4.011   3.173   0.541  0.3938 -0.0136  0.0477
  315MOL0     C41459   3.878   3.240   0.511  0.0745 -0.5652 -0.5191
  315MOL0     C41460   3.762   3.161   0.571  0.2593 -0.1831  0.8936
  315MOL0     C41461   3.626   3.205   0.507  0.5018  0.5071 -0.0266
  315MOL0     C41462   3.505   3.141   0.570 -0.1175  0.4837  0.1809
  315MOL0     C41463   3.442   3.204   0.687  0.4351 -0.9792 -0.1274
  315MOL0     C41464   3.354   3.112   0.771  1.0765  0.1449 -0.1885
  315MOL0     N41465   3.222   3.162   0.797 -0.1170  0.1833  0.0333
  315MOL0     C41466   3.170   3.205   0.917 -0.6812  0.0292  0.3950
  315MOL0     C41467   3.043   3.240   0.879  0.1052 -0.0958 -0.1134
  315MOL0     C41468   2.931   3.279   0.984 -0.8549 -0.2231  0.2034
  315MOL0     C41469   2.873   3.147   1.042  0.3355 -0.1344 -0.7392
  315MOL0     C41470   2.734   3.171   1.100 -0.6143 -0.2300 -0.3669
  315MOL0     C41471   2.678   3.038   1.155 -1.2117 -0.2268  0.5159
  315MOL0     O41472   2.554   3.071   1.221  0.1964 -0.0457 -1.1381
  315MOL0     C41473   2.479   2.962   1.254  0.2867 -0.4028  0.4538
  315MOL0     C41474   2.359   2.957   1.184  0.2250  0.8568 -0.2373
  315MOL0     C41475   2.266   2.853   1.211  0.4233 -0.0080  0.0935
  315MOL0     C41476   2.288   2.765   1.318  0.0806 -0.3545 -0.2005
  315MOL0     C41477   2.193   2.658   1.344 -0.5441  0.6144 -0.7524
  315MOL0     O41478   2.081   2.643   1.261  0.1774  0.4797  0.1901
  315MOL0     C41479   1.972   2.583   1.309  0.3501  0.5218  0.5821
  315MOL0     C41480   1.866   2.663   1.363  0.4200 -0.0919  0.5362
  315MOL0     C41481   1.757   2.613   1.428  1.3579  0.8450 -0.0078
  315MOL0     C41482   1.737   2.465   1.422 -0.6194 -0.1266  0.3089
  315MOL0     O41483   1.637   2.393   1.488  1.0304  0.1966 -0.2000
  315MOL0     C41484   1.519   2.462   1.524  0.3558  0.5336  0.1986
  315MOL0     C41485   1.392   2.371   1.525  0.0307  0.1224  0.1019
  315MOL0     C41486   1.358   2.310   1.385  0.4816  0.5170 -0.5936
  315MOL0     C41487   1.234   2.227   1.393  0.8742 -0.6168  0.1008
  315MOL0     C41488   1.194   2.166   1.254  0.7833  0.2230  0.3560
  315MOL0     C41489   1.083   2.068   1.277 -0.0689  0.9402 -0.1146
  315MOL0     C41490   1.003   2.038   1.144 -0.3209  0.5057 -0.4219
  315MOL0     C41491   0.890   1.948   1.166  0.9901 -0.2454 -0.3767
  315MOL0    Cl41492   0.808   1.884   1.019  0.2717  0.3504 -0.4342
  315MOL0     C41493   1.830   2.391   1.339 -0.0638 -0.4824 -0.4331
  315MOL0     C41494   1.954   2.439   1.291  0.4448 -0.4250  0.1838
  315MOL0     O41495   2.198   2.611   1.459 -0.2254  0.5565 -0.2259
  315MOL0     C41496   2.401   2.790   1.401 -1.1613  0.2713 -0.4149
  315MOL0     C41497   2.500   2.886   1.362 -0.3025  0.3494 -0.7884
  315MOL0     N41498   3.022   3.219   0.739 -0.4588  0.2520  0.0526
  315MOL0     N41499   3.133   3.170   0.699 -0.6712 -0.3059  0.4666
  315MOL0     C41500   4.399   3.367   0.438  0.6528 -0.1572 -0.1782
  315MOL0     C41501   4.521   3.416   0.411 -0.2765 -0.5755 -0.0009
  315MOL0     C41502   5.006   3.381   0.329  0.2613 -0.5692  0.3013
  315MOL0     C41503   5.135   3.345   0.368  0.3740  0.4196 -0.6955
  315MOL0     C41504   5.250   3.380   0.296  0.6904  0.0044 -0.3542
  315MOL0     C41505   5.237   3.455   0.184 -0.3062  0.2907  0.0212
  315MOL0     O41506   5.348   3.494   0.113 -0.4287 -0.7754  0.2417
  315MOL0     C41507   5.475   3.440   0.142  0.3345 -0.2254 -0.5467
  315MOL0     C41508   5.568   3.490   0.037 -1.4006 -0.1103 -0.7200
  315MOL0     C41509   5.592   3.655   0.025 -0.1780 -0.2054  0.4637
  315MOL0     C41510   5.730   3.689  -0.043  0.2657 -0.6090  0.0357
  315MOL0     C41511   5.748   3.835  -0.044  0.1709 -0.6692  0.1502
  315MOL0     C41512   5.784   3.940  -0.073  0.9427  0.9614 -0.2171
  315MOL0     C41513   5.115   3.485   0.136 -0.4994 -0.5055 -0.9741
  315MOL0     C41514   4.994   3.445   0.200 -0.7088 -0.4586 -0.2346
  315MOL0     H41515   4.701   3.139   0.450 -1.7842 -0.8114 -0.4422
  315MOL0     H41516   4.482   3.050   0.510  1.1321 -0.4521 -1.7521
  315MOL0     H41517   4.130   3.258   0.377  1.6890  2.2971  0.1298
  315MOL0     H41518   4.126   3.350   0.525  0.5524  0.9534 -2.8823
  315MOL0     H41519   4.026   3.152   0.647  3.8824  3.2320  0.4058
  315MOL0     H41520   4.014   3.076   0.491 -0.2907 -0.8346  1.5580
  315MOL0     H41521   3.865   3.255   0.403 -1.2016  0.3209 -0.2658
  315MOL0     H41522   3.871   3.331   0.571  0.8185 -1.1100  0.4181
  315MOL0     H41523   3.787   3.059   0.542  4.2846  1.4155 -2.2912
  315MOL0     H41524   3.770   3.177   0.679  0.1985 -0.1006  0.8862
  315MOL0     H41525   3.626   3.175   0.401 -3.1430 -3.8912  0.9267
  315MOL0     H41526   3.623   3.315   0.507 -0.7950  0.4902  1.4504
  315MOL0     H41527   3.536   3.041   0.602  0.3516 -0.2836 -2.4626
  315MOL0     H41528   3.431   3.128   0.491 -0.4063 -1.8507  0.7610
  315MOL0     H41529   3.506   3.260   0.757 -2.0996  1.6325  0.2825
  315MOL0     H41530   3.376   3.279   0.642  1.1605 -0.3707 -0.2167
  315MOL0     H41531   3.410   3.081   0.860  0.3596 -0.1185  0.1729
  315MOL0     H41532   3.336   3.028   0.704 -0.9467 -0.5322  1.1228
  315MOL0     H41533   3.211   3.208   1.017 -0.6943 -0.0067  0.4016
  315MOL0     H41534   2.850   3.339   0.941 -1.1959 -0.0961  0.9949
  315MOL0     H41535   2.981   3.335   1.064  1.8847 -2.9573  0.6044
  315MOL0     H41536   2.937   3.104   1.119 -1.2537  0.7991  1.2184
  315MOL0     H41537   2.864   3.089   0.950 -5.3710  2.5685 -2.3620
  315MOL0     H41538   2.732   3.246   1.181 -0.2519 -1.1621  0.5249
  315MOL0     H41539   2.683   3.203   1.009 -0.0850  0.8025 -0.3203
  315MOL0     H41540   2.748   2.992   1.226 -2.7274 -0.3388  2.0212
  315MOL0     H41541   2.655   2.971   1.071 -3.5924  1.1742 -0.0574
  315MOL0     H41542   2.343   3.011   1.091  2.1782 -0.4177 -1.3974
  315MOL0     H41543   2.174   2.835   1.155  2.0042 -2.3778 -1.9752
  315MOL0     H41544   1.879   2.771   1.362  0.4345 -0.0888  0.9914
  315MOL0     H41545   1.686   2.683   1.473  0.3231  1.4570 -2.4367
  315MOL0     H41546   1.502   2.551   1.463  0.6409  1.7824  1.8917
  315MOL0     H41547   1.529   2.499   1.626 -0.3337  3.7295 -0.7922
  315MOL0     H41548   1.306   2.427   1.560 -1.4357 -2.7288  1.4240
  315MOL0     H41549   1.415   2.293   1.599  3.0595  1.1253  0.3842
  315MOL0     H41550   1.442   2.261   1.335  0.6666  0.2242 -0.0178
  315MOL0     H41551   1.325   2.397   1.329 -1.8383  1.5766  2.1795
  315MOL0     H41552   1.244   2.156   1.476 -1.1091  0.0456  0.9712
  315MOL0     H41553   1.153   2.289   1.432  0.9162  0.6648 -1.7429
  315MOL0     H41554   1.269   2.116   1.193  1.0099  0.0749  0.7528
  315MOL0     H41555   1.157   2.251   1.196  1.1975  0.4618  0.4433
  315MOL0     H41556   1.003   2.104   1.342  1.2533  1.7913  1.1016
  315MOL0     H41557   1.132   1.982   1.324  0.5818  2.2964  1.8269
  315MOL0     H41558   0.960   2.126   1.096 -3.3529 -0.5021  0.2744
  315MOL0     H41559   1.069   2.001   1.064  1.5239  0.5591  0.9966
  315MOL0     H41560   0.825   1.999   1.237 -1.2404 -2.9507 -0.3414
  315MOL0     H41561   0.919   1.858   1.220  0.0757 -1.3026 -1.6056
  315MOL0     H41562   1.789   2.292   1.323 -0.1749 -0.1140 -2.6845
  315MOL0     H41563   2.038   2.396   1.237  0.2702 -1.4719  0.7302
  315MOL0     H41564   2.408   2.745   1.500 -0.4815  0.6020 -0.3058
  315MOL0     H41565   2.586   2.905   1.424  1.3660 -3.7450 -1.5075
  315MOL0     H41566   4.314   3.434   0.440  0.0535 -0.8729  2.5483
  315MOL0     H41567   4.532   3.524   0.406 -1.8385 -0.3413  0.9099
  315MOL0     H41568   5.138   3.297   0.464  2.6249 -0.4375 -1.1444
  315MOL0     H41569   5.346   3.366   0.344 -0.1953  0.9046  1.8029
  315MOL0     H41570   5.468   3.331   0.135  1.9433 -0.3722 -0.2847
  315MOL0     H41571   5.503   3.480   0.240 -2.8529  0.8656  0.0384
  315MOL0     H41572   5.660   3.435   0.054 -0.5942  1.1339 -0.9112
  315MOL0     H41573   5.543   3.455  -0.064  0.0784  1.3840 -1.6549
  315MOL0     H41574   5.586   3.713   0.118  1.9221  0.8606  0.0010
  315MOL0     H41575   5.515   3.690  -0.045 -2.5008 -0.9099  2.5143
  315MOL0     H41576   5.808   3.654   0.025 -0.0975  0.2819  0.9376
  315MOL0     H41577   5.741   3.645  -0.142  1.3760 -3.1918  1.2388
  315MOL0     H41578   5.796   4.033  -0.124 -0.2590  2.5599  2.1965
  315MOL0     H41579   5.122   3.548   0.048  2.5713 -0.4062 -0.7634
  315MOL0     H41580   4.898   3.464   0.152 -2.1250 -2.5892  1.5303
  316MOL0     O41581   9.502   2.102   3.647 -0.5526  0.5911 -0.2802
  316MOL0     C41582   9.459   2.114   3.531  0.0991  0.0576 -0.0879
  316MOL0     O41583   9.525   2.056   3.421 -0.1359  0.4269  0.3851
  316MOL0     C41584   9.634   1.983   3.438 -0.1587  0.9141 -0.0108
  316MOL0     C41585   9.641   1.858   3.371  1.2902  0.0713 -0.5459
  316MOL0     C41586   9.744   1.771   3.404 -0.2869  0.1429  0.1487
  316MOL0     C41587   9.834   1.803   3.497 -0.6589 -0.2882  0.8140
  316MOL0     O41588   9.930   1.705   3.540  0.7077 -0.0904 -0.0701
  316MOL0     C41589  10.025   1.739   3.648  0.2745  0.1303 -0.1068
  316MOL0     C41590  10.094   1.612   3.676  0.0914  0.0666  0.8472
  316MOL0     C41591  10.018   1.488   3.721  0.4490 -0.1136  0.1131
  316MOL0     C41592  10.128   1.368   3.730  0.1815  0.4548  0.2619
  316MOL0     C41593  10.068   1.246   3.818 -0.0694 -0.6122  0.5668
  316MOL0     C41594  10.179   1.137   3.809  0.5889  0.1911 -0.6434
  316MOL0     C41595  10.127   1.012   3.890  0.2995  0.2296  0.6183
  316MOL0     C41596  10.032   0.928   3.809  0.8847  0.0582  0.4943
  316MOL0     N41597   9.994   0.807   3.878  0.0017  0.6490  0.2590
  316MOL0     C41598  10.057   0.689   3.861 -1.0815  0.0042  0.0929
  316MOL0     C41599   9.988   0.609   3.941  0.9062 -0.3381 -0.1892
  316MOL0     C41600  10.017   0.460   3.957 -1.2936  0.6135 -1.0913
  316MOL0     C41601  10.129   0.432   4.069 -0.0805 -0.4494 -0.2153
  316MOL0     C41602  10.097   0.483   4.216  1.0923 -1.2703 -0.2294
  316MOL0     C41603  10.202   0.458   4.321  0.5088 -0.3383 -0.0032
  316MOL0     O41604  10.309   0.547   4.282  0.2754 -0.3124  0.0486
  316MOL0     C41605  10.400   0.580   4.381 -0.5959 -0.6940  0.3486
  316MOL0     C41606  10.458   0.709   4.369  0.0541  1.0343 -0.2710
  316MOL0     C41607  10.546   0.758   4.476 -0.0394  0.1796  0.5138
  316MOL0     C41608  10.572   0.684   4.589  0.8643 -0.3522 -0.0420
  316MOL0     C41609  10.658   0.743   4.696  0.0541  0.1362 -0.5613
  316MOL0     O41610  10.740   0.848   4.666 -0.3748  0.4387  0.1007
  316MOL0     C41611  10.810   0.897   4.772  0.1083 -0.6118 -0.2128
  316MOL0     C41612  10.916   0.834   4.831 -0.1426 -0.2065  0.1777
  316MOL0     C41613  10.995   0.892   4.923  0.0432  0.0433 -0.2972
  316MOL0     C41614  10.964   1.021   4.986 -0.0377  0.0717  0.8338
  316MOL0     O41615  11.049   1.072   5.077  0.0655  0.2270 -0.1995
  316MOL0     C41616  11.057   1.217   5.100  0.0344 -0.4691 -0.4017
  316MOL0     C41617  11.144   1.241   5.219 -0.2374  0.0770  0.0466
  316MOL0     C41618  11.278   1.160   5.223  0.1942  0.1830 -0.6601
  316MOL0     C41619  11.372   1.168   5.100  0.1216  0.2594  0.3113
  316MOL0     C41620  11.517   1.121   5.134 -0.5023 -0.6687 -1.1731
  316MOL0     C41621  11.523   0.969   5.157 -0.8660 -0.1569 -0.6000
  316MOL0     C41622  11.662   0.924   5.138  0.2275  0.6786 -0.2466
  316MOL0     C41623  11.757   0.981   5.241 -0.1937 -0.8596  0.3202
  316MOL0    Cl41624  11.922   0.913   5.212 -0.6324  0.0497  0.2330
  316MOL0     C41625  10.849   1.084   4.932 -0.2529  0.2799 -0.5199
  316MOL0     C41626  10.776   1.025   4.820  0.0535  0.1063 -0.0555
  316MOL0     O41627  10.656   0.682   4.804 -0.0504 -0.2779  0.2189
  316MOL0     C41628  10.507   0.560   4.605 -0.4918 -0.2544 -0.5554
  316MOL0     C41629  10.420   0.504   4.505  0.2638 -0.8760  0.8073
  316MOL0     N41630   9.881   0.664   3.996  1.0215  0.2758  0.5236
  316MOL0     N41631   9.898   0.786   3.969  0.6785 -0.4381 -0.5613
  316MOL0     C41632   9.835   1.932   3.547  0.7152 -0.4775 -0.2025
  316MOL0     C41633   9.741   2.014   3.513  0.5836 -0.4673 -0.3030
  316MOL0     C41634   9.344   2.193   3.510  0.0080  0.2973 -0.0155
  316MOL0     C41635   9.272   2.165   3.387 -0.6182  0.4147  0.0651
  316MOL0     C41636   9.153   2.226   3.361  0.9479 -0.8436 -1.1544
  316MOL0     C41637   9.104   2.318   3.449 -0.3464  0.4480  1.0249
  316MOL0     O41638   8.981   2.363   3.403 -0.0016  0.0142  0.5354
  316MOL0     C41639   8.918   2.472   3.465  0.2015 -0.2977 -0.3691
  316MOL0     C41640   8.814   2.528   3.373 -0.3031 -0.0581  0.6688
  316MOL0     C41641   8.744   2.654   3.413  0.3399  0.0763  0.1652
  316MOL0     C41642   8.642   2.701   3.302 -0.5329 -0.5521  0.3328
  316MOL0     C41643   8.692   2.805   3.210 -0.0087  0.1542 -0.5455
  316MOL0     C41644   8.737   2.881   3.128  0.3162 -0.7056  0.1880
  316MOL0     C41645   9.159   2.343   3.573 -0.1214  0.4382  0.1023
  316MOL0     C41646   9.278   2.274   3.611  0.6541 -0.3087  0.6117
  316MOL0     H41647   9.572   1.824   3.295  1.9341 -1.3663 -0.5100
  316MOL0     H41648   9.747   1.668   3.371  0.8865 -0.2060  1.2514
  316MOL0     H41649   9.968   1.775   3.735  0.6902 -0.2804  0.3388
  316MOL0     H41650  10.099   1.811   3.612 -2.1975  1.8738 -2.0344
  316MOL0     H41651  10.171   1.630   3.751 -1.0887  0.5313  1.9956
  316MOL0     H41652  10.144   1.588   3.582 -1.3090  2.8506 -0.7405
  316MOL0     H41653   9.929   1.475   3.660  0.5424  1.1990 -0.3172
  316MOL0     H41654   9.983   1.506   3.823  2.1919  3.3546  0.2332
  316MOL0     H41655  10.135   1.320   3.632  0.4523  1.4009 -0.1866
  316MOL0     H41656  10.221   1.410   3.768 -0.3113  1.4148  0.4519
  316MOL0     H41657   9.967   1.213   3.792 -0.5776  0.2192  1.4011
  316MOL0     H41658  10.057   1.275   3.923 -1.6080  2.4887 -0.3288
  316MOL0     H41659  10.276   1.172   3.847 -0.5392  4.4624 -1.2140
  316MOL0     H41660  10.198   1.113   3.704  1.4051  0.6207 -0.6054
  316MOL0     H41661  10.213   0.950   3.914 -1.1099 -0.6617  3.8284
  316MOL0     H41662  10.083   1.050   3.983  2.2561  1.4513  1.1066
  316MOL0     H41663  10.079   0.896   3.715 -0.6556 -3.1177  0.6639
  316MOL0     H41664   9.949   0.991   3.776  0.3427 -1.3680 -1.0197
  316MOL0     H41665  10.147   0.656   3.811 -1.1012  1.3723 -0.9123
  316MOL0     H41666  10.057   0.425   3.861 -1.4355 -0.6612 -0.7062
  316MOL0     H41667   9.922   0.412   3.983 -1.0227  1.5922  2.0945
  316MOL0     H41668  10.227   0.466   4.036 -0.5167  0.3931 -0.6653
  316MOL0     H41669  10.147   0.324   4.080  1.0705 -0.0176  3.3686
  316MOL0     H41670  10.062   0.587   4.213  0.5950 -1.3978 -3.6459
  316MOL0     H41671  10.005   0.428   4.237  0.8983 -1.9222 -2.5153
  316MOL0     H41672  10.220   0.352   4.337 -0.2608 -0.6886 -1.2833
  316MOL0     H41673  10.162   0.492   4.417  1.3705  0.4125  0.1092
  316MOL0     H41674  10.449   0.780   4.288  1.4833  3.3438  1.4711
  316MOL0     H41675  10.588   0.858   4.474  0.6134 -0.0961 -1.1638
  316MOL0     H41676  10.951   0.747   4.775 -0.1756 -1.0785  1.4715
  316MOL0     H41677  11.085   0.837   4.951 -0.8083  0.1452  3.1499
  316MOL0     H41678  10.960   1.266   5.113 -0.0281 -0.9129  0.9197
  316MOL0     H41679  11.095   1.264   5.008 -2.8407  4.2751  0.5132
  316MOL0     H41680  11.091   1.230   5.315 -0.9401  0.9217 -0.2276
  316MOL0     H41681  11.167   1.347   5.203  0.4093  0.0262  0.6147
  316MOL0     H41682  11.258   1.056   5.251  1.4147 -0.1419 -0.9172
  316MOL0     H41683  11.336   1.200   5.307 -0.8177 -0.5215  0.3998
  316MOL0     H41684  11.333   1.099   5.025  0.3803 -0.6460  0.9823
  316MOL0     H41685  11.373   1.272   5.068 -2.5889  1.2300  2.9515
  316MOL0     H41686  11.553   1.184   5.217 -2.4455  0.0508 -0.8281
  316MOL0     H41687  11.580   1.150   5.050 -0.5856  0.7513 -0.7776
  316MOL0     H41688  11.453   0.915   5.093 -0.0770  1.3353 -2.8707
  316MOL0     H41689  11.502   0.945   5.262  0.5280  0.0733 -0.2528
  316MOL0     H41690  11.658   0.818   5.162 -2.9390  0.1931 -2.2773
  316MOL0     H41691  11.689   0.936   5.033 -0.5157 -0.9711 -0.6491
  316MOL0     H41692  11.722   0.955   5.341  1.0623 -4.1674  0.0000
  316MOL0     H41693  11.773   1.089   5.236  2.9050 -1.1653  1.5588
  316MOL0     H41694  10.816   1.177   4.978  1.4200  0.6517 -0.0010
  316MOL0     H41695  10.686   1.062   4.772 -1.0472 -1.6393  0.5654
  316MOL0     H41696  10.521   0.503   4.696  0.6871  0.7975 -0.0510
  316MOL0     H41697  10.379   0.405   4.517  0.3684 -0.7369  2.4955
  316MOL0     H41698   9.910   1.969   3.616 -0.4743 -2.4405  2.3200
  316MOL0     H41699   9.753   2.115   3.550  2.3827 -0.2487 -1.4266
  316MOL0     H41700   9.306   2.087   3.320 -0.5296 -0.1868  0.8048
  316MOL0     H41701   9.097   2.205   3.270 -2.2056  3.1910 -0.4632
  316MOL0     H41702   8.990   2.549   3.492 -0.9363 -0.4178  3.7145
  316MOL0     H41703   8.875   2.452   3.564  0.5220 -2.9064 -0.6777
  316MOL0     H41704   8.876   2.558   3.288 -1.1312  0.7964  0.3513
  316MOL0     H41705   8.738   2.456   3.339 -1.7735  2.4816 -1.7667
  316MOL0     H41706   8.811   2.731   3.452  0.1886  0.9224 -1.2061
  316MOL0     H41707   8.684   2.619   3.498  1.5107 -3.1941 -0.2176
  316MOL0     H41708   8.600   2.613   3.251  0.4649 -0.1134 -1.3013
  316MOL0     H41709   8.552   2.738   3.352 -0.9337 -0.6829 -0.2835
  316MOL0     H41710   8.763   2.956   3.056 -0.3304  0.0706  0.7407
  316MOL0     H41711   9.120   2.413   3.646 -0.0656 -2.7263  3.4540
  316MOL0     H41712   9.319   2.266   3.711 -1.9695 -1.9213  1.6671
  317MOL0     O41713  10.025   9.850   1.193  0.0949  0.1472  0.2334
  317MOL0     C41714  10.036   9.941   1.109 -0.0150 -0.2297 -0.3637
  317MOL0     O41715   9.933  10.004   1.042  0.3167 -0.1252 -0.4789
  317MOL0     C41716   9.813   9.999   1.103  0.5017  0.3542 -0.1339
  317MOL0     C41717   9.740   9.883   1.138 -0.1241 -0.2852  0.5690
  317MOL0     C41718   9.604   9.890   1.171 -0.8330 -0.0558  0.5054
  317MOL0     C41719   9.526  10.006   1.154  0.4726 -0.0501 -0.2995
  317MOL0     O41720   9.394  10.024   1.176  0.0487  0.0754 -0.1902
  317MOL0     C41721   9.313   9.910   1.217 -0.2928 -0.6088  0.4467
  317MOL0     C41722   9.170   9.946   1.200 -0.5591 -0.6364 -0.2427
  317MOL0     C41723   9.085   9.818   1.227 -0.2124 -0.0199  0.1916
  317MOL0     C41724   8.952   9.823   1.161 -0.0328 -1.0086 -0.7280
  317MOL0     C41725   8.865   9.701   1.174 -0.0640 -0.1869  0.2272
  317MOL0     C41726   8.791   9.693   1.312 -0.0867 -0.4708  0.6424
  317MOL0     C41727   8.721   9.559   1.321 -0.0655 -0.3138  0.2240
  317MOL0     C41728   8.680   9.528   1.466  0.1478  0.1622  1.0657
  317MOL0     N41729   8.585   9.417   1.469  0.2657 -0.1189 -0.0915
  317MOL0     C41730   8.491   9.404   1.566  0.3043 -0.0612  1.2630
  317MOL0     C41731   8.431   9.289   1.538  0.1980 -0.0929 -0.1325
  317MOL0     C41732   8.301   9.240   1.609  0.7697 -0.0654  0.4025
  317MOL0     C41733   8.178   9.315   1.558  1.1626 -0.1202  0.0547
  317MOL0     C41734   8.063   9.288   1.649  0.5044  0.9120  0.8652
  317MOL0     C41735   7.930   9.309   1.566 -0.6139 -0.1444 -0.1198
  317MOL0     O41736   7.832   9.314   1.667  0.0358 -0.7655 -0.0478
  317MOL0     C41737   7.713   9.287   1.623 -0.2708 -0.3275 -0.2614
  317MOL0     C41738   7.633   9.219   1.718  0.1739 -0.3090 -0.2812
  317MOL0     C41739   7.503   9.199   1.691 -0.1423  0.0140  0.2242
  317MOL0     C41740   7.444   9.243   1.580 -0.4235 -0.2205 -0.5700
  317MOL0     C41741   7.296   9.238   1.572  0.1762 -0.6651  0.1201
  317MOL0     O41742   7.237   9.309   1.465 -0.4128  0.1692 -0.2804
  317MOL0     C41743   7.097   9.306   1.454 -0.8418 -1.4771 -1.4485
  317MOL0     C41744   7.048   9.330   1.329  0.2209  0.0020  0.1440
  317MOL0     C41745   6.913   9.335   1.289 -0.3072 -0.2186  0.7546
  317MOL0     C41746   6.815   9.322   1.392 -0.0664 -0.6654  0.2901
  317MOL0     O41747   6.678   9.337   1.375  0.4975  0.5601  0.3899
  317MOL0     C41748   6.626   9.443   1.291  0.2996  0.6558  0.8246
  317MOL0     C41749   6.640   9.583   1.354  0.5862  0.3064 -0.4070
  317MOL0     C41750   6.739   9.670   1.287  0.2448  0.2412  0.2416
  317MOL0     C41751   6.735   9.812   1.345 -0.1196  0.2641 -0.3571
  317MOL0     C41752   6.817   9.915   1.277 -1.0602 -1.3163 -0.6711
  317MOL0     C41753   6.762  10.056   1.308  0.9145  0.3207 -0.1122
  317MOL0     C41754   6.834  10.154   1.218 -1.4018  0.2681  0.5633
  317MOL0     C41755   6.835  10.304   1.263  0.0864 -0.1048  0.1990
  317MOL0    Cl41756   6.674  10.364   1.298 -0.1056  0.2242 -0.1225
  317MOL0     C41757   6.868   9.278   1.520  0.4005  0.6499  0.4223
  317MOL0     C41758   7.003   9.276   1.558 -0.9929  0.2325  0.3420
  317MOL0     O41759   7.238   9.171   1.663 -0.0882 -0.3420  0.6013
  317MOL0     C41760   7.520   9.306   1.479 -0.4117  0.2438 -0.3211
  317MOL0     C41761   7.658   9.332   1.507 -0.6842  0.2132 -0.4735
  317MOL0     N41762   8.492   9.228   1.428  0.6216  0.7973 -0.7435
  317MOL0     N41763   8.586   9.304   1.389 -0.0355 -0.2206  0.2063
  317MOL0     C41764   9.603  10.122   1.116  0.3522 -0.0680  0.3727
  317MOL0     C41765   9.740  10.115   1.096 -0.7830  0.3256 -0.4541
  317MOL0     C41766  10.170  10.013   1.105  0.4397  0.3349 -0.6804
  317MOL0     C41767  10.183  10.138   1.036  0.3247  0.3511 -0.8616
  317MOL0     C41768  10.306  10.198   1.019  0.9490  0.1120 -0.2017
  317MOL0     C41769  10.418  10.148   1.080  0.0076  0.7681 -0.9842
  317MOL0     O41770  10.531  10.218   1.074 -0.2345 -0.5586  0.6648
  317MOL0     C41771  10.649  10.159   1.126 -0.0924  0.1385  0.1268
  317MOL0     C41772  10.772  10.241   1.106 -0.2007 -0.5141 -0.1619
  317MOL0     C41773  10.765  10.378   1.163 -0.1379 -0.7077 -0.4808
  317MOL0     C41774  10.908  10.425   1.165 -0.4243 -0.8326  0.3922
  317MOL0     C41775  10.923  10.566   1.211 -0.3334 -0.5660  0.9495
  317MOL0     C41776  10.937  10.674   1.260 -0.3719 -0.0648 -0.8690
  317MOL0     C41777  10.402  10.019   1.150 -0.2957 -0.5012 -0.4177
  317MOL0     C41778  10.280   9.959   1.163 -0.2626 -0.2416  0.0254
  317MOL0     H41779   9.796   9.790   1.143  1.5181  0.7213  3.0322
  317MOL0     H41780   9.557   9.794   1.189 -0.4889 -0.6983 -1.7295
  317MOL0     H41781   9.330   9.881   1.321  1.9486 -0.9931  0.0196
  317MOL0     H41782   9.321   9.831   1.142 -3.3013 -1.5498  0.9746
  317MOL0     H41783   9.153   9.968   1.094  1.9512 -2.0991 -1.0255
  317MOL0     H41784   9.138  10.036   1.253  0.3992 -0.6393  0.3687
  317MOL0     H41785   9.059   9.811   1.333 -1.6914 -2.8044 -0.2557
  317MOL0     H41786   9.136   9.724   1.203  1.6597  0.4546  2.0405
  317MOL0     H41787   8.894   9.910   1.193  1.7140  0.4145 -1.2133
  317MOL0     H41788   8.981   9.824   1.056  1.6172 -1.2125 -0.3045
  317MOL0     H41789   8.938   9.619   1.176 -2.2385 -2.3270 -1.6481
  317MOL0     H41790   8.808   9.690   1.081  1.2435 -0.0799 -0.6187
  317MOL0     H41791   8.713   9.769   1.325 -0.8871 -1.5371  2.2857
  317MOL0     H41792   8.860   9.696   1.397  1.6471 -0.0167 -0.7109
  317MOL0     H41793   8.640   9.566   1.248 -0.6483 -0.8038  0.8079
  317MOL0     H41794   8.782   9.476   1.286  0.2586 -0.4692  1.1413
  317MOL0     H41795   8.627   9.617   1.499  0.2546  1.1341 -1.2284
  317MOL0     H41796   8.772   9.498   1.518 -1.3434 -4.8984  1.3501
  317MOL0     H41797   8.463   9.479   1.639 -1.9495  1.5504 -1.0448
  317MOL0     H41798   8.321   9.259   1.715  0.7412  1.2540  0.1760
  317MOL0     H41799   8.282   9.132   1.598 -1.2160  0.4080 -1.3747
  317MOL0     H41800   8.167   9.269   1.460 -0.6704  2.1825 -0.9121
  317MOL0     H41801   8.189   9.424   1.555 -0.0311  0.1253  2.1787
  317MOL0     H41802   8.065   9.191   1.700 -3.2172  0.7061  0.8864
  317MOL0     H41803   8.064   9.351   1.739  0.1709  1.6966  0.3273
  317MOL0     H41804   7.918   9.218   1.505  1.5223 -1.2087  0.9284
  317MOL0     H41805   7.946   9.401   1.510  3.8178 -0.7930 -0.2723
  317MOL0     H41806   7.673   9.179   1.811 -0.0456 -1.5427 -0.7001
  317MOL0     H41807   7.444   9.144   1.764  1.5044 -1.3084  0.6391
  317MOL0     H41808   7.118   9.357   1.250  1.4818  0.3334  1.3395
  317MOL0     H41809   6.890   9.367   1.187  1.0850  1.5665  0.9432
  317MOL0     H41810   6.521   9.418   1.272  0.8263 -2.2145  1.1871
  317MOL0     H41811   6.683   9.434   1.198  0.4177 -3.1104  1.1170
  317MOL0     H41812   6.683   9.570   1.453 -1.1193 -2.9132  0.0547
  317MOL0     H41813   6.538   9.617   1.375 -0.5086 -2.8290  0.0167
  317MOL0     H41814   6.721   9.666   1.179 -0.0992 -0.6090  0.3220
  317MOL0     H41815   6.841   9.634   1.301  1.0755  2.3359  0.0245
  317MOL0     H41816   6.632   9.848   1.352  0.9412  3.3722  1.0215
  317MOL0     H41817   6.773   9.808   1.448 -2.5901  2.2206  0.7415
  317MOL0     H41818   6.802   9.907   1.169 -1.9183  6.1264 -1.6457
  317MOL0     H41819   6.919   9.907   1.316 -0.8044 -0.8031 -1.2247
  317MOL0     H41820   6.793  10.073   1.412  0.2403  0.7454  0.0271
  317MOL0     H41821   6.653  10.061   1.301  0.9830  1.1418 -0.7941
  317MOL0     H41822   6.939  10.123   1.226 -1.3495  0.8423  2.4777
  317MOL0     H41823   6.791  10.135   1.119 -1.4151  1.9581  0.2147
  317MOL0     H41824   6.874  10.364   1.180  0.1846  0.7361  0.8397
  317MOL0     H41825   6.902  10.327   1.346 -1.3296 -2.0705  1.9937
  317MOL0     H41826   6.790   9.257   1.592 -1.2463 -2.8868 -2.1013
  317MOL0     H41827   7.025   9.247   1.660 -0.9124  0.5817  0.4265
  317MOL0     H41828   7.465   9.344   1.393 -3.1213  0.2738  1.3212
  317MOL0     H41829   7.726   9.385   1.442 -0.1984 -0.6619 -0.6995
  317MOL0     H41830   9.548  10.215   1.113 -3.4079 -2.0912  0.8366
  317MOL0     H41831   9.800  10.196   1.056  1.7135 -1.8155 -1.3192
  317MOL0     H41832  10.097  10.186   0.990  0.6052 -0.0813 -1.8587
  317MOL0     H41833  10.321  10.289   0.962  2.2711  1.6780  2.4540
  317MOL0     H41834  10.671  10.061   1.082 -1.1513  0.0127 -0.1294
  317MOL0     H41835  10.648  10.146   1.235 -1.6082 -0.5923  0.0494
  317MOL0     H41836  10.858  10.187   1.147  0.8024  1.1248 -0.0112
  317MOL0     H41837  10.796  10.250   1.000 -0.3599 -1.3283 -0.2745
  317MOL0     H41838  10.719  10.381   1.262 -1.8121  0.3796 -1.2277
  317MOL0     H41839  10.703  10.433   1.091 -1.1784  2.4230  2.5099
  317MOL0     H41840  10.951  10.364   1.244 -0.8876 -1.2678  0.3104
  317MOL0     H41841  10.966  10.407   1.074 -1.4676 -4.1537  0.2520
  317MOL0     H41842  10.955  10.769   1.307 -0.4521 -0.9421  0.9972
  317MOL0     H41843  10.479   9.970   1.208 -1.1147 -0.9657  0.3018
  317MOL0     H41844  10.274   9.861   1.209  1.2489 -0.9858 -1.2590
  318MOL0     O41845   9.892   4.655   9.330  0.2333  0.8481  0.6792
  318MOL0     C41846   9.921   4.593   9.434 -0.4924 -1.1059  0.1896
  318MOL0     O41847   9.829   4.548   9.529 -0.7770 -0.1516 -0.7179
  318MOL0     C41848   9.700   4.530   9.510  0.1984  0.1360 -0.1481
  318MOL0     C41849   9.643   4.502   9.386 -0.4101  0.4953 -0.5043
  318MOL0     C41850   9.502   4.488   9.388 -0.2186 -0.9851  0.3052
  318MOL0     C41851   9.421   4.527   9.501 -0.0535  0.4260 -0.0402
  318MOL0     O41852   9.282   4.541   9.498 -0.6716 -0.3182 -0.5668
  318MOL0     C41853   9.204   4.453   9.421 -0.0468 -0.4752 -0.2942
  318MOL0     C41854   9.070   4.429   9.490 -0.0774  0.1760  0.0081
  318MOL0     C41855   8.990   4.324   9.429  0.9011  0.0820  0.4429
  318MOL0     C41856   8.857   4.293   9.496 -0.0727 -0.3320 -0.4277
  318MOL0     C41857   8.761   4.412   9.515 -0.7839 -0.7174 -0.6039
  318MOL0     C41858   8.666   4.439   9.406 -0.3016 -0.4405  0.2846
  318MOL0     C41859   8.562   4.542   9.430  1.0845 -0.5087 -0.2182
  318MOL0     C41860   8.457   4.530   9.314 -0.6611 -0.4197 -0.2149
  318MOL0     N41861   8.345   4.626   9.326 -0.7925 -0.0250  0.9718
  318MOL0     C41862   8.256   4.631   9.433 -0.6353  1.1553 -0.1055
  318MOL0     C41863   8.156   4.706   9.386 -0.1466  0.3272 -0.5011
  318MOL0     C41864   8.023   4.749   9.442 -0.1411 -0.0671 -0.8157
  318MOL0     C41865   7.922   4.636   9.434  0.7757  0.5196 -0.0924
  318MOL0     C41866   7.780   4.684   9.473 -0.4267  0.5642  0.1545
  318MOL0     C41867   7.685   4.573   9.442  0.4259 -0.8882 -0.3343
  318MOL0     O41868   7.558   4.608   9.508 -0.3407  0.3051 -0.4692
  318MOL0     C41869   7.438   4.576   9.444 -0.0468  0.1641 -0.5114
  318MOL0     C41870   7.408   4.457   9.381 -0.2209 -0.1306 -0.0563
  318MOL0     C41871   7.284   4.434   9.326 -0.3436 -0.3551 -0.1655
  318MOL0     C41872   7.179   4.533   9.336 -0.1182 -0.1598 -0.4211
  318MOL0     C41873   7.049   4.503   9.279  0.5785 -0.1591 -0.7455
  318MOL0     O41874   6.953   4.601   9.294  0.2583  0.0773  0.0635
  318MOL0     C41875   6.821   4.584   9.248 -0.7155  0.6461 -0.6574
  318MOL0     C41876   6.710   4.649   9.313 -0.4512 -0.6951  0.0060
  318MOL0     C41877   6.578   4.656   9.267 -0.2861  0.3177  0.2832
  318MOL0     C41878   6.542   4.594   9.150 -0.3583  0.6110  0.1964
  318MOL0     O41879   6.416   4.599   9.090 -0.0833  0.0292  0.2069
  318MOL0     C41880   6.334   4.707   9.129 -0.5262 -0.7741  0.3782
  318MOL0     C41881   6.222   4.739   9.030  0.1085 -0.2103 -1.0114
  318MOL0     C41882   6.136   4.844   9.089  0.4056  0.8492  0.1304
  318MOL0     C41883   6.044   4.876   8.969  0.2722 -0.2525 -0.3421
  318MOL0     C41884   5.935   4.974   9.011 -0.7003 -0.3955  0.0333
  318MOL0     C41885   5.866   5.010   8.880  0.2284 -0.6921  0.6927
  318MOL0     C41886   5.770   4.897   8.842 -0.4576 -0.3741 -1.1515
  318MOL0     C41887   5.634   4.945   8.801  0.2197 -0.2042  0.3568
  318MOL0    Cl41888   5.633   4.997   8.624 -0.0654 -0.1593  0.1672
  318MOL0     C41889   6.639   4.531   9.086 -0.0980  0.0228  0.1115
  318MOL0     C41890   6.781   4.521   9.125 -0.9219  0.2706  1.1122
  318MOL0     O41891   7.026   4.397   9.223 -0.3693 -0.2851  0.3677
  318MOL0     C41892   7.204   4.652   9.406 -0.9058  0.2563 -0.8564
  318MOL0     C41893   7.333   4.672   9.454 -0.0131  0.0729  0.0119
  318MOL0     N41894   8.203   4.756   9.260 -0.5150  0.2478  0.4896
  318MOL0     N41895   8.313   4.706   9.225  0.5753  0.1254  0.1304
  318MOL0     C41896   9.480   4.543   9.618  0.2394 -0.0064  0.0204
  318MOL0     C41897   9.620   4.559   9.624  0.9578  0.1345 -0.2932
  318MOL0     C41898  10.066   4.589   9.467  0.4382 -0.6941 -0.2237
  318MOL0     C41899  10.164   4.650   9.387 -0.1245 -0.7173  0.2240
  318MOL0     C41900  10.303   4.640   9.401 -0.2180  0.8259 -0.5833
  318MOL0     C41901  10.348   4.578   9.518  0.2668  0.6702 -0.0177
  318MOL0     O41902  10.470   4.564   9.569 -0.9564  0.2362 -0.6137
  318MOL0     C41903  10.581   4.595   9.484  0.1350  0.1595  0.3092
  318MOL0     C41904  10.715   4.574   9.562 -0.5688 -0.9117  0.7190
  318MOL0     C41905  10.842   4.600   9.477 -0.0667 -0.1929  0.9039
  318MOL0     C41906  10.829   4.514   9.345  0.1673 -0.6153 -0.6910
  318MOL0     C41907  10.952   4.480   9.272 -0.3494 -0.3129 -0.2278
  318MOL0     C41908  11.065   4.467   9.226 -0.0546 -0.1183  0.6665
  318MOL0     C41909  10.250   4.499   9.598 -0.3157 -0.3535  0.2976
  318MOL0     C41910  10.112   4.511   9.576 -0.6035  0.6279 -0.4651
  318MOL0     H41911   9.707   4.490   9.299  0.3708  1.0495 -0.0223
  318MOL0     H41912   9.447   4.475   9.295 -0.9893  0.9994  0.4314
  318MOL0     H41913   9.262   4.365   9.391  2.1575  0.3731  1.2257
  318MOL0     H41914   9.177   4.493   9.323  3.0036 -1.2646 -1.5634
  318MOL0     H41915   9.023   4.526   9.476  1.3796  1.0281  0.8263
  318MOL0     H41916   9.088   4.392   9.592 -1.8368 -1.0634 -0.0956
  318MOL0     H41917   9.033   4.224   9.437 -3.1856 -1.9342  0.2127
  318MOL0     H41918   8.979   4.346   9.322  2.6191 -1.1455 -0.0166
  318MOL0     H41919   8.797   4.218   9.443 -1.0805 -2.8233  3.7060
  318MOL0     H41920   8.886   4.263   9.597  1.5650  3.6982  0.4863
  318MOL0     H41921   8.810   4.507   9.539 -1.7958  0.5264 -3.1345
  318MOL0     H41922   8.694   4.381   9.595 -1.6449  4.6696  1.1775
  318MOL0     H41923   8.627   4.342   9.373  0.7684 -1.9004  3.0100
  318MOL0     H41924   8.729   4.477   9.325 -0.3699  1.9645  1.2689
  318MOL0     H41925   8.515   4.522   9.526  2.7979  0.2217  0.8245
  318MOL0     H41926   8.608   4.641   9.437 -0.6476  0.5995 -2.8654
  318MOL0     H41927   8.411   4.431   9.316 -0.5419 -0.4665  0.9883
  318MOL0     H41928   8.510   4.547   9.220 -0.1104  0.4258  0.2298
  318MOL0     H41929   8.250   4.580   9.529 -1.7736  0.5451 -0.4847
  318MOL0     H41930   7.967   4.836   9.407 -3.0070 -1.1023  0.9007
  318MOL0     H41931   8.041   4.771   9.547  1.1184  0.9452 -1.2160
  318MOL0     H41932   7.949   4.564   9.512  1.5244  1.1477  0.2385
  318MOL0     H41933   7.938   4.574   9.346 -1.3578  0.7727 -0.7303
  318MOL0     H41934   7.769   4.714   9.577 -3.1534  0.0426  0.0973
  318MOL0     H41935   7.757   4.775   9.418  3.1803  1.8265  0.4852
  318MOL0     H41936   7.720   4.473   9.470  1.5953 -0.5544 -0.5322
  318MOL0     H41937   7.688   4.572   9.333  2.9057 -1.3469 -0.3333
  318MOL0     H41938   7.484   4.379   9.373  0.9955  0.6310  2.7154
  318MOL0     H41939   7.263   4.349   9.261 -0.7393 -1.1671  0.9861
  318MOL0     H41940   6.731   4.695   9.408 -2.0316  0.2443 -0.0611
  318MOL0     H41941   6.517   4.709   9.340  0.6322  0.7531  0.7526
  318MOL0     H41942   6.390   4.796   9.157 -0.6399 -0.6398  0.1860
  318MOL0     H41943   6.288   4.687   9.226  0.2186 -2.4393  0.4114
  318MOL0     H41944   6.163   4.648   9.015 -3.8865  2.5258 -3.7890
  318MOL0     H41945   6.252   4.769   8.929 -0.3474 -0.4195 -1.2099
  318MOL0     H41946   6.193   4.934   9.115 -0.7511  1.7804 -0.4397
  318MOL0     H41947   6.069   4.803   9.164 -0.5613  0.0706 -1.1128
  318MOL0     H41948   6.109   4.928   8.899  4.0929 -2.0345  1.5495
  318MOL0     H41949   5.992   4.783   8.942  0.1103 -1.1259  2.6092
  318MOL0     H41950   5.974   5.065   9.058 -1.2232  0.1235 -0.5078
  318MOL0     H41951   5.868   4.929   9.084  1.2937 -1.0755  1.5289
  318MOL0     H41952   5.935   5.019   8.796 -2.3294  3.1923 -1.2951
  318MOL0     H41953   5.804   5.100   8.887  0.3672 -0.2582 -2.4168
  318MOL0     H41954   5.812   4.827   8.770  0.8691 -0.6236 -0.1897
  318MOL0     H41955   5.748   4.830   8.926 -1.1619 -1.3290 -2.0870
  318MOL0     H41956   5.600   5.029   8.862 -0.1638 -1.8060  2.4825
  318MOL0     H41957   5.554   4.874   8.825  0.3439 -0.0676  1.2198
  318MOL0     H41958   6.612   4.487   8.990 -0.8813  0.5521  0.0804
  318MOL0     H41959   6.861   4.472   9.070  2.6485  3.4535  2.9585
  318MOL0     H41960   7.131   4.730   9.424 -0.6791 -0.0197  1.5345
  318MOL0     H41961   7.365   4.757   9.513  0.1047 -0.5998  0.9474
  318MOL0     H41962   9.429   4.570   9.710  0.6051 -0.5768  0.4008
  318MOL0     H41963   9.659   4.606   9.714 -2.1759  0.6661  0.9436
  318MOL0     H41964  10.136   4.709   9.300  1.0699 -1.3347 -0.6150
  318MOL0     H41965  10.366   4.688   9.328 -0.8949  0.2037 -1.5972
  318MOL0     H41966  10.578   4.700   9.454 -0.0333  0.4194  1.2053
  318MOL0     H41967  10.580   4.534   9.392 -1.9713  0.4328  0.0977
  318MOL0     H41968  10.721   4.642   9.647  1.9571  0.9174 -0.8172
  318MOL0     H41969  10.718   4.472   9.602  0.1660 -1.2428 -0.1523
  318MOL0     H41970  10.934   4.579   9.533  1.8189  4.8530  0.2274
  318MOL0     H41971  10.837   4.708   9.461 -0.1061 -0.2686  0.4094
  318MOL0     H41972  10.787   4.421   9.385  1.5796 -0.3740  1.5088
  318MOL0     H41973  10.766   4.558   9.268 -0.0465 -1.3024 -0.9162
  318MOL0     H41974  11.164   4.474   9.184 -0.5628  0.9830 -0.3982
  318MOL0     H41975  10.277   4.442   9.686  0.2838 -1.8291 -0.8002
  318MOL0     H41976  10.046   4.465   9.649  2.5287  1.4552  3.2108
  319MOL0     O41977   2.844   2.376   6.702  0.5686 -0.1035  0.7888
  319MOL0     C41978   2.808   2.262   6.732 -0.7652 -0.0375  0.1315
  319MOL0     O41979   2.894   2.159   6.745  0.4495  0.2882 -0.3516
  319MOL0     C41980   3.025   2.171   6.729 -0.7016 -0.1425  0.0217
  319MOL0     C41981   3.078   2.144   6.597  0.3897 -0.2353 -0.5321
  319MOL0     C41982   3.214   2.177   6.564  0.4763  0.5862  1.1272
  319MOL0     C41983   3.298   2.222   6.675  0.3541  0.7134 -0.3560
  319MOL0     O41984   3.429   2.249   6.668 -0.0567  0.8934  0.1896
  319MOL0     C41985   3.481   2.266   6.529  0.4435  0.6078  0.3153
  319MOL0     C41986   3.622   2.301   6.543  0.9603 -0.9025  0.7414
  319MOL0     C41987   3.709   2.305   6.415 -0.1816 -0.0352  0.6993
  319MOL0     C41988   3.859   2.330   6.436  0.3281  0.5032 -0.1883
  319MOL0     C41989   3.957   2.290   6.330  0.6092  0.5113  0.9346
  319MOL0     C41990   4.096   2.302   6.399  0.4800 -0.2199  0.8762
  319MOL0     C41991   4.208   2.294   6.300 -0.4853  0.1264 -0.9352
  319MOL0     C41992   4.293   2.164   6.313 -0.1774  0.6367  0.5927
  319MOL0     N41993   4.361   2.157   6.444  0.6345  0.6054 -0.0987
  319MOL0     C41994   4.480   2.223   6.481  0.5173 -0.0704  0.0840
  319MOL0     C41995   4.528   2.147   6.585 -0.3108 -0.1416 -0.4957
  319MOL0     C41996   4.655   2.157   6.672  0.3487  0.5102 -0.1968
  319MOL0     C41997   4.663   2.297   6.732  0.1993  0.6238 -0.1471
  319MOL0     C41998   4.604   2.310   6.876 -0.0127 -0.8012 -0.2050
  319MOL0     C41999   4.625   2.452   6.926  1.2782  0.2623  0.9302
  319MOL0     O42000   4.540   2.549   6.851  0.1213  0.6996  0.4183
  319MOL0     C42001   4.408   2.562   6.879  0.0778  0.1943  0.4948
  319MOL0     C42002   4.343   2.497   6.987  0.0603  1.0543  0.0075
  319MOL0     C42003   4.205   2.498   7.003 -0.3413 -0.5375 -0.0170
  319MOL0     C42004   4.123   2.575   6.922 -0.1406 -1.5837  0.2883
  319MOL0     C42005   3.977   2.582   6.942 -0.5559  0.0879 -0.0889
  319MOL0     O42006   3.903   2.687   6.897 -0.3449 -0.4837 -0.6911
  319MOL0     C42007   3.773   2.681   6.908  0.2733 -0.1794  0.5875
  319MOL0     C42008   3.703   2.695   7.026 -0.4742  0.1982 -0.7135
  319MOL0     C42009   3.562   2.693   7.038 -0.8615  1.0283  0.8904
  319MOL0     C42010   3.493   2.662   6.917  0.1103  0.2791  0.7381
  319MOL0     O42011   3.354   2.660   6.930  0.0386  0.3572 -0.5439
  319MOL0     C42012   3.289   2.602   6.818 -0.2364 -0.1187  0.7648
  319MOL0     C42013   3.149   2.563   6.863  1.0453 -0.3166 -0.6461
  319MOL0     C42014   3.058   2.676   6.893  0.4814 -0.2257  0.0023
  319MOL0     C42015   2.918   2.641   6.938  0.0618 -0.0619  0.6882
  319MOL0     C42016   2.833   2.759   6.975  0.0706  0.8130  0.0985
  319MOL0     C42017   2.691   2.727   7.020 -0.3359 -0.0835  0.0501
  319MOL0     C42018   2.669   2.613   7.118 -1.4339  0.0841 -0.5467
  319MOL0     C42019   2.533   2.609   7.180  1.1380 -0.6985 -0.3543
  319MOL0    Cl42020   2.410   2.573   7.053 -0.1498 -0.0328 -0.1533
  319MOL0     C42021   3.566   2.656   6.796 -0.1367 -0.5133  0.1183
  319MOL0     C42022   3.707   2.672   6.787  0.0977 -0.4707  0.1182
  319MOL0     O42023   3.935   2.494   7.016 -0.4325  0.5411  0.1002
  319MOL0     C42024   4.189   2.651   6.825 -0.1366  0.5545  0.8132
  319MOL0     C42025   4.328   2.647   6.803 -0.0511  0.0449 -0.3749
  319MOL0     N42026   4.434   2.054   6.620 -0.1520  0.0517  0.4361
  319MOL0     N42027   4.338   2.052   6.532 -0.1819 -0.3460 -0.9774
  319MOL0     C42028   3.245   2.226   6.810  0.0310 -0.1673 -0.1016
  319MOL0     C42029   3.109   2.197   6.834  0.1341 -1.0545 -0.0370
  319MOL0     C42030   2.660   2.242   6.753 -0.0349  0.5634  0.3523
  319MOL0     C42031   2.574   2.351   6.778  0.2875  1.0525 -0.2537
  319MOL0     C42032   2.436   2.326   6.785  0.6033 -0.4552  0.5040
  319MOL0     C42033   2.390   2.194   6.789  0.1728 -0.1162  0.7947
  319MOL0     O42034   2.253   2.177   6.797  0.5258 -0.0397 -0.2624
  319MOL0     C42035   2.205   2.211   6.926  0.7196  1.2900 -0.2072
  319MOL0     C42036   2.093   2.316   6.903  0.1043  0.1484 -0.2063
  319MOL0     C42037   1.954   2.267   6.856  0.8862 -0.6461  0.0625
  319MOL0     C42038   1.888   2.164   6.960 -0.0209 -0.0655 -0.0024
  319MOL0     C42039   1.748   2.160   6.951  0.7273 -0.4031 -0.7060
  319MOL0     C42040   1.625   2.163   6.947  0.6332 -0.6686 -0.3311
  319MOL0     C42041   2.476   2.087   6.771  0.1001 -1.6362 -0.3727
  319MOL0     C42042   2.610   2.110   6.755 -0.2293 -0.2406  0.3132
  319MOL0     H42043   3.004   2.121   6.521  0.3299  0.2434 -0.6176
  319MOL0     H42044   3.250   2.171   6.462 -0.7402 -1.7446  0.7566
  319MOL0     H42045   3.431   2.340   6.466 -2.1141 -3.2228 -2.6511
  319MOL0     H42046   3.473   2.174   6.470  1.1047  0.3173  0.6695
  319MOL0     H42047   3.662   2.232   6.618 -0.8159 -0.3498  2.2720
  319MOL0     H42048   3.623   2.399   6.591 -0.7216 -1.1653  1.3819
  319MOL0     H42049   3.675   2.382   6.346 -1.6430  0.5585  2.0172
  319MOL0     H42050   3.701   2.205   6.370  1.8956  0.9464 -2.1131
  319MOL0     H42051   3.868   2.438   6.453 -1.9996  0.8815 -0.9612
  319MOL0     H42052   3.887   2.275   6.527 -1.4433  0.8274  0.5998
  319MOL0     H42053   3.951   2.352   6.240  0.6548 -0.8802 -0.0626
  319MOL0     H42054   3.949   2.185   6.302  1.7749  0.5544  0.3500
  319MOL0     H42055   4.093   2.237   6.487 -1.3847 -2.3285 -0.6032
  319MOL0     H42056   4.095   2.404   6.437 -1.6521 -0.4430  1.5093
  319MOL0     H42057   4.164   2.307   6.201  0.5996  3.2656 -1.0964
  319MOL0     H42058   4.268   2.383   6.318 -1.4191  0.5779  0.0779
  319MOL0     H42059   4.371   2.162   6.236 -1.9812 -2.4171 -1.3687
  319MOL0     H42060   4.232   2.074   6.303  3.4336 -1.9842  0.0879
  319MOL0     H42061   4.531   2.310   6.440  1.5522 -1.0728 -0.8402
  319MOL0     H42062   4.749   2.130   6.622  0.5174 -0.4274  0.5977
  319MOL0     H42063   4.651   2.090   6.758  1.9996 -0.3539 -0.7274
  319MOL0     H42064   4.620   2.371   6.663 -0.2842 -0.2027 -0.7608
  319MOL0     H42065   4.770   2.313   6.748 -0.0844  1.6733  0.8102
  319MOL0     H42066   4.498   2.295   6.854 -0.0960  0.0528 -0.4295
  319MOL0     H42067   4.643   2.240   6.950 -1.5156  0.8629  2.3204
  319MOL0     H42068   4.727   2.488   6.911  0.2073  3.5313  0.7606
  319MOL0     H42069   4.607   2.449   7.034  3.1052 -1.8285  1.2443
  319MOL0     H42070   4.397   2.434   7.057  0.0566  0.5180 -0.4657
  319MOL0     H42071   4.151   2.446   7.082 -0.5610  1.9627  1.6041
  319MOL0     H42072   3.766   2.702   7.114  0.4226 -0.4545 -1.2833
  319MOL0     H42073   3.522   2.706   7.138 -2.7004 -1.0681  0.4790
  319MOL0     H42074   3.340   2.512   6.782  0.0919  0.5276 -0.4470
  319MOL0     H42075   3.281   2.678   6.739 -0.9082 -0.8656  0.0986
  319MOL0     H42076   3.166   2.504   6.953 -2.8024 -1.8980 -0.7751
  319MOL0     H42077   3.109   2.502   6.782  2.5464  1.0427 -2.5018
  319MOL0     H42078   3.049   2.739   6.804 -3.1741  2.8642  2.2778
  319MOL0     H42079   3.107   2.734   6.972  0.8054  0.8328 -0.9572
  319MOL0     H42080   2.854   2.586   6.869  1.7889 -3.1079  1.3178
  319MOL0     H42081   2.939   2.574   7.022  0.2629  0.1710  0.8236
  319MOL0     H42082   2.831   2.828   6.890 -0.6600  0.8176  0.1065
  319MOL0     H42083   2.872   2.806   7.065  1.6194 -1.5549  0.7406
  319MOL0     H42084   2.631   2.694   6.935  1.3571  0.4324 -1.4061
  319MOL0     H42085   2.652   2.812   7.077  0.7177 -0.6226  1.6509
  319MOL0     H42086   2.686   2.517   7.069 -7.0346 -1.9918  0.7851
  319MOL0     H42087   2.743   2.629   7.197  0.4535  2.4512 -2.6162
  319MOL0     H42088   2.510   2.706   7.225  0.7117  0.0819 -2.1376
  319MOL0     H42089   2.537   2.539   7.263  0.2179 -0.1021  0.2114
  319MOL0     H42090   3.522   2.640   6.699  2.0642  3.0458 -1.7002
  319MOL0     H42091   3.757   2.663   6.691  0.2777  0.2731  0.1402
  319MOL0     H42092   4.141   2.723   6.760  2.2794  2.7974  1.3702
  319MOL0     H42093   4.373   2.702   6.721 -1.6038  0.1822 -1.1665
  319MOL0     H42094   3.311   2.250   6.893 -1.6979  1.5387  0.8681
  319MOL0     H42095   3.069   2.195   6.935  0.8781 -0.8225  0.2704
  319MOL0     H42096   2.613   2.451   6.795 -1.3030  1.3427  2.0940
  319MOL0     H42097   2.369   2.410   6.802  3.5372  1.8900  1.5173
  319MOL0     H42098   2.270   2.253   7.003 -1.7372  0.7925  2.3227
  319MOL0     H42099   2.163   2.119   6.969  0.0830  2.2625  1.3713
  319MOL0     H42100   2.080   2.369   6.998  2.5376 -1.8471  1.3701
  319MOL0     H42101   2.132   2.392   6.834  2.7248 -2.8703 -2.3596
  319MOL0     H42102   1.954   2.231   6.752  0.8546  0.6543 -0.4033
  319MOL0     H42103   1.896   2.359   6.864  1.3791 -0.5109  2.9024
  319MOL0     H42104   1.938   2.066   6.963  0.6915  0.2929  0.1022
  319MOL0     H42105   1.905   2.218   7.054  3.5083 -1.0935  0.1069
  319MOL0     H42106   1.520   2.180   6.948  0.9646  2.4306 -2.4831
  319MOL0     H42107   2.421   1.994   6.774 -2.2398 -0.4712 -2.8525
  319MOL0     H42108   2.675   2.030   6.721  1.0009  1.6998 -2.3209
  320MOL0     O42109   2.106   1.915   4.350 -0.1234  0.1499  0.0328
  320MOL0     C42110   2.150   1.823   4.287  0.5923  0.1319 -0.3584
  320MOL0     O42111   2.071   1.720   4.233  0.1048 -0.3434  0.0766
  320MOL0     C42112   1.937   1.710   4.268 -0.1119  0.3752  0.8076
  320MOL0     C42113   1.856   1.624   4.190  0.6250 -0.0448  0.2732
  320MOL0     C42114   1.717   1.610   4.204 -0.6021 -0.1917 -0.3132
  320MOL0     C42115   1.642   1.671   4.308 -0.7730 -0.3511 -1.2106
  320MOL0     O42116   1.504   1.659   4.323 -0.2952 -0.3492  0.2812
  320MOL0     C42117   1.434   1.558   4.261  0.5576  0.0468  0.6258
  320MOL0     C42118   1.478   1.419   4.309  0.3833  0.7490  0.0397
  320MOL0     C42119   1.391   1.311   4.244  0.3199 -0.0628 -0.2664
  320MOL0     C42120   1.253   1.308   4.309 -0.2430  0.9696 -0.8004
  320MOL0     C42121   1.151   1.226   4.216  0.1765 -0.1422  0.4466
  320MOL0     C42122   1.176   1.073   4.214  0.8763 -0.3387 -0.5894
  320MOL0     C42123   1.057   0.995   4.172 -0.1195  0.1648  0.4343
  320MOL0     C42124   1.006   1.036   4.041  0.0559 -0.3704  0.4359
  320MOL0     N42125   0.928   0.929   3.982 -0.3333  0.2119 -0.0832
  320MOL0     C42126   0.788   0.930   3.994  0.8814 -0.1977 -0.7422
  320MOL0     C42127   0.747   0.846   3.904 -0.0475  0.3277 -0.3764
  320MOL0     C42128   0.601   0.817   3.883  0.0693 -0.3358  0.5881
  320MOL0     C42129   0.550   0.678   3.912  0.1631  0.0363  1.0696
  320MOL0     C42130   0.400   0.667   3.902  0.7019 -1.2127  0.4407
  320MOL0     C42131   0.353   0.526   3.936  1.0525 -0.4293  0.3302
  320MOL0     O42132   0.220   0.545   3.987 -0.0148 -0.2388 -0.0342
  320MOL0     C42133   0.112   0.530   3.901 -0.2137  0.4233  0.1538
  320MOL0     C42134   0.121   0.510   3.768  0.6555 -0.3603  0.7431
  320MOL0     C42135   0.006   0.495   3.691  0.0676  0.5958  0.6407
  320MOL0     C42136  -0.122   0.499   3.747  0.9569  0.4920  0.1304
  320MOL0     C42137  -0.243   0.479   3.667 -0.1813 -0.3662 -0.3304
  320MOL0     O42138  -0.228   0.433   3.545  0.2152  0.3353  0.0993
  320MOL0     C42139  -0.321   0.352   3.485 -0.2652  0.2726 -0.0572
  320MOL0     C42140  -0.426   0.293   3.540 -0.1494  0.2080 -0.3878
  320MOL0     C42141  -0.524   0.229   3.462 -0.2339 -0.3622 -0.0005
  320MOL0     C42142  -0.500   0.210   3.320  0.0884  0.8023 -0.0745
  320MOL0     O42143  -0.599   0.157   3.234  0.0565  0.6342  0.3233
  320MOL0     C42144  -0.576   0.108   3.101 -0.5528  0.7803  0.2353
  320MOL0     C42145  -0.674  -0.011   3.091 -0.2078  0.4382  0.5110
  320MOL0     C42146  -0.828   0.027   3.092  0.5102  0.3053 -0.2061
  320MOL0     C42147  -0.902  -0.105   3.050  0.7197  0.2502 -1.0404
  320MOL0     C42148  -1.052  -0.101   3.083  0.7425 -0.0148 -0.6283
  320MOL0     C42149  -1.129   0.012   3.015  0.1612  0.4082 -0.0735
  320MOL0     C42150  -1.283  -0.002   3.043  0.2620 -0.0070  0.8214
  320MOL0     C42151  -1.358   0.095   2.953  0.2457  0.6165 -0.5764
  320MOL0    Cl42152  -1.528   0.048   2.979 -0.0976 -0.0732  0.3648
  320MOL0     C42153  -0.395   0.280   3.265  0.6423 -0.5342 -0.7130
  320MOL0     C42154  -0.309   0.352   3.340 -0.0472 -0.4373  0.4385
  320MOL0     O42155  -0.347   0.516   3.715  0.4431  0.6449  0.3634
  320MOL0     C42156  -0.137   0.526   3.887  0.0157 -0.3439 -0.2177
  320MOL0     C42157  -0.018   0.524   3.961 -0.0685  0.7204 -0.2753
  320MOL0     N42158   0.857   0.792   3.842 -0.3219  0.5423 -0.6272
  320MOL0     N42159   0.965   0.843   3.881 -0.0862 -0.7730  0.4645
  320MOL0     C42160   1.724   1.751   4.393 -0.0690  0.0334  0.5761
  320MOL0     C42161   1.861   1.768   4.364 -0.6316 -0.0237 -1.2626
  320MOL0     C42162   2.295   1.824   4.253  0.0815  0.5842 -1.0261
  320MOL0     C42163   2.376   1.707   4.223  0.5912 -0.1341 -0.1231
  320MOL0     C42164   2.508   1.717   4.186 -0.2050 -0.1173  0.4601
  320MOL0     C42165   2.570   1.846   4.179  0.3403  0.6532 -0.6850
  320MOL0     O42166   2.699   1.852   4.142  0.1816 -0.3513 -0.1185
  320MOL0     C42167   2.713   1.889   4.004  0.4225 -0.4628  0.1530
  320MOL0     C42168   2.861   1.931   3.969 -0.2278  0.0044  0.4051
  320MOL0     C42169   2.949   1.808   3.977 -0.2426 -0.2983 -0.4216
  320MOL0     C42170   3.091   1.845   3.926  0.8245  0.3559 -0.3131
  320MOL0     C42171   3.179   1.730   3.959  0.0168  0.6057 -0.3864
  320MOL0     C42172   3.247   1.641   4.012  0.3409 -0.5535 -0.7040
  320MOL0     C42173   2.492   1.962   4.201 -1.2738 -0.5018  0.4853
  320MOL0     C42174   2.361   1.947   4.245 -1.1232  0.5273  0.1882
  320MOL0     H42175   1.898   1.559   4.115  0.6483  2.8733 -2.4484
  320MOL0     H42176   1.662   1.549   4.133 -1.7039  2.3299 -1.7651
  320MOL0     H42177   1.455   1.558   4.153  0.1222 -0.8905  0.5360
  320MOL0     H42178   1.327   1.571   4.280 -0.4436 -0.3324 -3.7556
  320MOL0     H42179   1.472   1.408   4.418 -0.6982 -3.5476 -0.2547
  320MOL0     H42180   1.581   1.393   4.281  0.3540 -0.2812  0.8126
  320MOL0     H42181   1.434   1.212   4.259 -0.7956 -0.5843 -0.4194
  320MOL0     H42182   1.378   1.317   4.136  1.6520 -3.6283 -0.7388
  320MOL0     H42183   1.250   1.274   4.413 -0.8205  0.9286 -0.8249
  320MOL0     H42184   1.213   1.406   4.334 -0.3327  0.5897  0.6838
  320MOL0     H42185   1.160   1.270   4.116 -5.6751  1.7353  0.3719
  320MOL0     H42186   1.050   1.249   4.250 -1.3714 -1.8678 -2.5700
  320MOL0     H42187   1.210   1.036   4.312 -0.8465  2.3969  1.2100
  320MOL0     H42188   1.258   1.063   4.142  2.0096  0.1226  0.5904
  320MOL0     H42189   1.082   0.888   4.173 -2.8586 -0.5616  0.6523
  320MOL0     H42190   0.973   1.000   4.241 -0.1891 -3.1620  0.7874
  320MOL0     H42191   1.082   1.064   3.968 -0.3486  2.2149  0.8809
  320MOL0     H42192   0.942   1.126   4.045 -2.5506 -2.0757 -0.4203
  320MOL0     H42193   0.718   0.982   4.057  2.4862  0.3250  0.6981
  320MOL0     H42194   0.581   0.837   3.777  2.8950 -0.5113 -0.0480
  320MOL0     H42195   0.557   0.891   3.950  3.0611  0.6412  1.6577
  320MOL0     H42196   0.576   0.651   4.015  1.1280  3.4411  1.8606
  320MOL0     H42197   0.585   0.602   3.842 -3.0834 -0.9049  0.2940
  320MOL0     H42198   0.354   0.741   3.968  0.2079  0.2683 -1.4958
  320MOL0     H42199   0.356   0.696   3.806 -1.7234  1.1495  2.1331
  320MOL0     H42200   0.416   0.482   4.014  1.8840  1.7702  0.9742
  320MOL0     H42201   0.362   0.461   3.848  2.0680 -1.4693  1.1763
  320MOL0     H42202   0.213   0.495   3.714  0.5800  0.0914  0.4858
  320MOL0     H42203   0.009   0.470   3.585 -0.5980 -0.5226  0.8630
  320MOL0     H42204  -0.445   0.298   3.646  0.4268 -0.4281 -0.2541
  320MOL0     H42205  -0.605   0.181   3.516  0.7492 -0.9929  0.9530
  320MOL0     H42206  -0.471   0.079   3.090 -0.3459  2.0232 -1.3143
  320MOL0     H42207  -0.601   0.172   3.017 -1.6757 -1.6469 -1.4071
  320MOL0     H42208  -0.650  -0.071   3.180  0.2769 -0.8850 -0.4797
  320MOL0     H42209  -0.651  -0.066   3.000 -0.5568 -1.4410  1.5003
  320MOL0     H42210  -0.854   0.110   3.027  1.6603  3.3692  2.9052
  320MOL0     H42211  -0.865   0.059   3.190 -1.0084 -2.4070  0.2085
  320MOL0     H42212  -0.896  -0.125   2.943 -2.8270  0.9951 -1.4912
  320MOL0     H42213  -0.863  -0.191   3.107 -0.7604 -0.8132 -1.5733
  320MOL0     H42214  -1.062  -0.093   3.192  1.0830 -1.1455 -0.5033
  320MOL0     H42215  -1.093  -0.199   3.054 -0.5204  0.3382 -0.1239
  320MOL0     H42216  -1.110   0.003   2.908  0.8628  0.1257  0.0699
  320MOL0     H42217  -1.096   0.104   3.063  0.7014  0.8745 -1.2932
  320MOL0     H42218  -1.318  -0.105   3.031  2.2072 -0.8106  1.5744
  320MOL0     H42219  -1.308   0.026   3.145 -0.5801 -1.7046  1.1243
  320MOL0     H42220  -1.331   0.099   2.847  3.5551 -2.2553 -0.0131
  320MOL0     H42221  -1.333   0.196   2.988  3.7133 -0.5876  0.8349
  320MOL0     H42222  -0.375   0.274   3.158 -2.6765  1.9585 -1.6723
  320MOL0     H42223  -0.220   0.392   3.292 -1.0675  2.2693  0.6097
  320MOL0     H42224  -0.228   0.526   3.946  0.5687 -1.2446  0.6764
  320MOL0     H42225  -0.033   0.545   4.066 -0.0273 -1.3119  0.1907
  320MOL0     H42226   1.674   1.803   4.474 -0.7435  0.2974  0.0053
  320MOL0     H42227   1.905   1.839   4.433 -1.0432 -0.5720 -0.4139
  320MOL0     H42228   2.338   1.605   4.228 -1.3145  0.5941  2.0896
  320MOL0     H42229   2.577   1.634   4.178  0.0397  0.2432 -2.9876
  320MOL0     H42230   2.655   1.977   3.977  1.4282  0.0783 -0.2937
  320MOL0     H42231   2.675   1.807   3.942 -0.2432 -1.0284  1.2669
  320MOL0     H42232   2.857   1.958   3.863 -1.0555 -0.9089  0.1838
  320MOL0     H42233   2.895   2.012   4.034  1.7237 -1.3041  1.0880
  320MOL0     H42234   2.910   1.725   3.918 -0.3739 -0.1249 -0.5798
  320MOL0     H42235   2.960   1.778   4.082  2.5484 -0.7166 -0.7448
  320MOL0     H42236   3.094   1.868   3.819 -1.9710 -0.7550 -0.7181
  320MOL0     H42237   3.130   1.932   3.979  4.3192 -1.3363  0.1883
  320MOL0     H42238   3.309   1.564   4.053  0.1318  0.6306  2.0137
  320MOL0     H42239   2.526   2.063   4.183 -1.0908 -0.3598  1.5235
  320MOL0     H42240   2.306   2.035   4.273 -1.4920  1.1533 -2.2190
  321MOL0     O42241   8.871   7.676   0.547  0.4834  0.5728  0.1782
  321MOL0     C42242   8.948   7.655   0.452 -0.5201 -0.0058  0.1294
  321MOL0     O42243   8.903   7.640   0.326  0.5478  0.6079  0.3727
  321MOL0     C42244   8.769   7.656   0.310 -0.0619  0.4358 -0.5828
  321MOL0     C42245   8.724   7.786   0.288  0.5700 -0.4299  0.4280
  321MOL0     C42246   8.584   7.804   0.276  0.3742 -0.2764 -0.1611
  321MOL0     C42247   8.492   7.698   0.290 -0.0366  0.0244  0.3359
  321MOL0     O42248   8.361   7.711   0.269  0.3720  0.7156 -0.5695
  321MOL0     C42249   8.284   7.798   0.353  0.2264 -0.1165  0.3070
  321MOL0     C42250   8.140   7.786   0.300 -0.0725  0.2139 -0.0813
  321MOL0     C42251   8.049   7.905   0.350 -0.6003  0.4306 -0.3463
  321MOL0     C42252   8.089   8.037   0.270  0.3596 -0.2980  0.2731
  321MOL0     C42253   7.998   8.152   0.315 -0.1224  0.5187  0.7364
  321MOL0     C42254   8.048   8.288   0.255  0.0146 -0.0572 -0.3330
  321MOL0     C42255   7.976   8.403   0.334 -0.1344 -0.0539 -0.8147
  321MOL0     C42256   7.969   8.527   0.245 -0.0220 -0.2621 -0.8690
  321MOL0     N42257   7.904   8.641   0.310  0.1100 -0.0340 -0.1829
  321MOL0     C42258   7.773   8.670   0.315  0.4451 -0.4971 -0.3180
  321MOL0     C42259   7.756   8.798   0.356  0.1646 -0.4977  2.2379
  321MOL0     C42260   7.631   8.880   0.379 -0.4310  0.1095  1.3909
  321MOL0     C42261   7.637   8.992   0.284  0.8004 -0.7753  0.1303
  321MOL0     C42262   7.506   9.079   0.281  0.5467 -0.0791 -0.4089
  321MOL0     C42263   7.375   9.009   0.283  0.0594 -0.1916 -0.5236
  321MOL0     O42264   7.282   9.117   0.269 -0.3487  0.1028 -0.3934
  321MOL0     C42265   7.158   9.100   0.224  0.1249 -0.3639 -0.1174
  321MOL0     C42266   7.082   9.210   0.195  0.8164  0.5585  1.2437
  321MOL0     C42267   6.948   9.190   0.157 -0.4571 -0.3838 -0.1650
  321MOL0     C42268   6.897   9.064   0.132 -0.1669  0.3658  0.3023
  321MOL0     C42269   6.756   9.041   0.080  0.2274 -0.2025  0.4830
  321MOL0     O42270   6.706   8.913   0.071 -0.8458  0.0367  0.2145
  321MOL0     C42271   6.598   8.881  -0.017 -1.2607 -0.5759  0.0593
  321MOL0     C42272   6.480   8.951  -0.003 -0.0581  0.6448  0.2351
  321MOL0     C42273   6.369   8.925  -0.096 -0.7694 -0.5514 -0.0477
  321MOL0     C42274   6.384   8.835  -0.197  0.3171  0.2751  0.6578
  321MOL0     O42275   6.274   8.799  -0.278 -1.0177 -0.6645  0.6089
  321MOL0     C42276   6.277   8.666  -0.334 -0.8780  0.7855 -0.3722
  321MOL0     C42277   6.151   8.640  -0.413  0.6560 -0.0768  1.3009
  321MOL0     C42278   6.121   8.734  -0.523 -0.1680 -1.0953 -0.3572
  321MOL0     C42279   6.010   8.685  -0.623  0.0370 -0.1683  0.6161
  321MOL0     C42280   5.873   8.675  -0.552  0.1805  0.2202 -0.3539
  321MOL0     C42281   5.816   8.810  -0.505 -0.7539 -0.0480 -0.2130
  321MOL0     C42282   5.669   8.792  -0.460  0.4491  0.3956 -0.1453
  321MOL0     C42283   5.644   8.877  -0.333  0.2949  0.0089 -0.2797
  321MOL0    Cl42284   5.679   9.050  -0.360 -0.2367 -0.4196 -0.0853
  321MOL0     C42285   6.507   8.757  -0.199  0.3382 -0.0910 -0.5031
  321MOL0     C42286   6.610   8.786  -0.120 -0.4899 -0.6745  0.3041
  321MOL0     O42287   6.698   9.142   0.038  0.2341 -0.0993  0.1928
  321MOL0     C42288   6.981   8.962   0.162 -0.1313  0.4967 -0.1278
  321MOL0     C42289   7.108   8.976   0.204  0.3513 -0.4869 -0.5690
  321MOL0     N42290   7.888   8.848   0.377 -0.1106  0.2112  0.2235
  321MOL0     N42291   7.970   8.756   0.350 -0.0945  0.9914 -0.1384
  321MOL0     C42292   8.546   7.573   0.298  0.2532 -0.0143  0.3724
  321MOL0     C42293   8.681   7.544   0.307  0.4308  0.0189  0.2030
  321MOL0     C42294   9.098   7.660   0.470 -0.5828 -0.3480 -0.4186
  321MOL0     C42295   9.188   7.669   0.364 -0.1625 -0.2555  0.1192
  321MOL0     C42296   9.325   7.665   0.397 -0.1809  0.0407 -0.7722
  321MOL0     C42297   9.381   7.661   0.523 -0.2709 -0.6362  0.0611
  321MOL0     O42298   9.510   7.663   0.535 -0.6848 -0.4949 -0.3434
  321MOL0     C42299   9.579   7.664   0.661 -0.4561  0.4799  0.8938
  321MOL0     C42300   9.614   7.519   0.690 -0.0660  0.4529 -0.6110
  321MOL0     C42301   9.695   7.428   0.591 -0.7632  0.0443 -0.7926
  321MOL0     C42302   9.847   7.438   0.598  1.0658  0.0155 -0.5946
  321MOL0     C42303   9.899   7.330   0.522  0.6667 -1.0493 -0.2111
  321MOL0     C42304   9.945   7.245   0.443  0.1063 -0.7173 -1.3236
  321MOL0     C42305   9.282   7.666   0.626  0.1094  0.1952  0.8301
  321MOL0     C42306   9.142   7.647   0.601 -0.1259  0.2606 -0.5785
  321MOL0     H42307   8.792   7.871   0.288  1.5889 -1.1836  2.2786
  321MOL0     H42308   8.543   7.903   0.260 -0.3546 -0.3447  1.1588
  321MOL0     H42309   8.305   7.905   0.357 -0.8614  0.0839  2.1638
  321MOL0     H42310   8.302   7.772   0.457  1.0004 -0.3489  0.1217
  321MOL0     H42311   8.103   7.687   0.328  0.8889 -0.0176  0.4474
  321MOL0     H42312   8.136   7.797   0.191  1.4251  1.3652 -0.0569
  321MOL0     H42313   8.063   7.921   0.458 -0.0964  1.3815 -0.5417
  321MOL0     H42314   7.942   7.887   0.333 -1.2200  0.1232  3.0929
  321MOL0     H42315   8.188   8.072   0.302  1.1686  1.7819 -3.8114
  321MOL0     H42316   8.079   8.027   0.162 -1.4887  2.8323  0.0531
  321MOL0     H42317   8.002   8.153   0.424 -0.1488 -2.6077  0.8562
  321MOL0     H42318   7.897   8.123   0.283  0.7551 -4.6524  1.6539
  321MOL0     H42319   8.004   8.302   0.156 -4.0429 -0.7102  1.1394
  321MOL0     H42320   8.156   8.301   0.256 -0.0786  0.8051  0.6927
  321MOL0     H42321   7.869   8.385   0.351 -0.5383  0.8143 -2.2754
  321MOL0     H42322   8.014   8.415   0.436 -2.5369 -2.1813  0.4555
  321MOL0     H42323   7.913   8.511   0.152  0.6053 -2.7652 -0.8983
  321MOL0     H42324   8.070   8.560   0.217  1.1621 -1.8250  1.2499
  321MOL0     H42325   7.697   8.604   0.274 -0.1083  0.2732 -0.5560
  321MOL0     H42326   7.615   8.917   0.480  1.0056 -1.7449  2.3680
  321MOL0     H42327   7.551   8.806   0.366  1.3526 -1.6010 -0.6921
  321MOL0     H42328   7.663   8.967   0.181 -1.7460  2.8153 -1.5992
  321MOL0     H42329   7.721   9.052   0.320 -0.9673  0.2983  2.8003
  321MOL0     H42330   7.509   9.152   0.363 -1.8247  0.5762 -0.8326
  321MOL0     H42331   7.511   9.138   0.189 -0.4710 -0.4066 -0.6821
  321MOL0     H42332   7.354   8.950   0.373  0.8123  0.2334 -0.0562
  321MOL0     H42333   7.374   8.942   0.196  2.3050 -1.1211  0.0917
  321MOL0     H42334   7.116   9.312   0.211  3.7625 -0.0381 -0.5378
  321MOL0     H42335   6.889   9.279   0.135  0.9176 -0.1368 -3.5545
  321MOL0     H42336   6.481   9.021   0.080  0.4165  0.1466  0.6556
  321MOL0     H42337   6.284   8.988  -0.073 -0.1174 -0.1650  1.4518
  321MOL0     H42338   6.290   8.587  -0.259 -0.3442  0.5439 -0.7196
  321MOL0     H42339   6.363   8.650  -0.400 -0.0945  0.1572  0.7557
  321MOL0     H42340   6.069   8.643  -0.341  0.4345 -0.3755  1.0590
  321MOL0     H42341   6.150   8.541  -0.459 -0.1081  0.8470 -0.8065
  321MOL0     H42342   6.216   8.752  -0.576 -0.1523 -2.0517 -0.6934
  321MOL0     H42343   6.092   8.828  -0.476  0.1641 -1.7915  1.2936
  321MOL0     H42344   6.004   8.757  -0.705  2.4308 -3.5111 -2.7874
  321MOL0     H42345   6.038   8.582  -0.646  0.3618  0.3841 -1.6574
  321MOL0     H42346   5.876   8.613  -0.462 -4.9841  0.1473  0.0364
  321MOL0     H42347   5.796   8.636  -0.620  0.1972  0.1372 -0.3250
  321MOL0     H42348   5.823   8.883  -0.586 -2.5912  3.0475  2.1656
  321MOL0     H42349   5.879   8.838  -0.420 -1.5227 -2.3640  1.2264
  321MOL0     H42350   5.594   8.820  -0.534  0.0464 -0.9322 -0.2821
  321MOL0     H42351   5.631   8.693  -0.433 -2.0803  1.6879  1.4005
  321MOL0     H42352   5.700   8.834  -0.249 -0.5312 -0.0811  0.2281
  321MOL0     H42353   5.539   8.861  -0.311  0.3290  0.0309 -0.1015
  321MOL0     H42354   6.521   8.675  -0.268 -0.3758 -0.9283  0.3270
  321MOL0     H42355   6.702   8.735  -0.146  1.9366  4.1457 -1.6713
  321MOL0     H42356   6.938   8.864   0.144  2.4729 -0.8012  0.2053
  321MOL0     H42357   7.166   8.890   0.237  2.0957  1.0021  0.3955
  321MOL0     H42358   8.481   7.487   0.310  1.0960 -0.2596  5.3398
  321MOL0     H42359   8.719   7.446   0.332  1.5272  0.3438 -0.1582
  321MOL0     H42360   9.165   7.656   0.259 -0.1311  0.1029  0.0674
  321MOL0     H42361   9.397   7.664   0.316 -0.4365 -0.5068 -0.9882
  321MOL0     H42362   9.536   7.707   0.752  1.9639 -2.6940  3.7639
  321MOL0     H42363   9.665   7.729   0.645 -1.5173  1.5824 -0.7046
  321MOL0     H42364   9.682   7.527   0.775  1.9550 -1.9361 -1.8571
  321MOL0     H42365   9.520   7.470   0.716 -0.5015  1.5982  0.0520
  321MOL0     H42366   9.663   7.443   0.488 -1.1672 -2.8954 -1.1738
  321MOL0     H42367   9.675   7.323   0.613 -2.0609  0.4754  0.2150
  321MOL0     H42368   9.884   7.531   0.554 -2.9322  0.1149 -4.3728
  321MOL0     H42369   9.876   7.427   0.703 -1.1483 -2.1412 -0.1295
  321MOL0     H42370   9.986   7.179   0.370 -0.4530 -2.1159 -0.4005
  321MOL0     H42371   9.319   7.673   0.728 -2.2961  0.6260  1.7458
  321MOL0     H42372   9.077   7.630   0.686  2.9922 -3.3100  1.4008
  322MOL0     O42373   9.772   3.556   6.574  0.4342 -0.5783 -0.1105
  322MOL0     C42374   9.835   3.659   6.589  0.3068 -0.5537  0.3335
  322MOL0     O42375   9.786   3.787   6.569  0.1459  0.4471 -0.4081
  322MOL0     C42376   9.660   3.827   6.532  1.5291 -0.6557 -0.1913
  322MOL0     C42377   9.560   3.739   6.481 -0.2450  0.5420 -0.1017
  322MOL0     C42378   9.436   3.791   6.451 -0.7261 -0.4648 -0.4378
  322MOL0     C42379   9.399   3.930   6.476 -0.6234  0.0063  0.9443
  322MOL0     O42380   9.272   3.958   6.433  0.3561 -0.7564 -0.0060
  322MOL0     C42381   9.210   4.081   6.473  0.7877  0.0243 -0.5522
  322MOL0     C42382   9.054   4.087   6.470  0.5272 -0.4009  0.8538
  322MOL0     C42383   9.000   4.233   6.481 -0.4665  0.8734  0.6430
  322MOL0     C42384   8.845   4.233   6.497 -0.3952  0.0276 -0.0349
  322MOL0     C42385   8.780   4.377   6.528  0.0309 -0.0152  0.3095
  322MOL0     C42386   8.626   4.383   6.532 -0.8355 -1.5027 -0.9436
  322MOL0     C42387   8.562   4.378   6.392 -0.1760  0.1494 -0.2416
  322MOL0     C42388   8.420   4.365   6.374 -0.4831 -0.3752 -0.1930
  322MOL0     N42389   8.336   4.468   6.428  0.0809  0.1132  0.7011
  322MOL0     C42390   8.247   4.449   6.523 -0.8592 -0.6844 -0.2164
  322MOL0     C42391   8.203   4.585   6.546  1.1174 -0.6490  0.7854
  322MOL0     C42392   8.082   4.636   6.626 -0.3804  0.4914 -0.7418
  322MOL0     C42393   7.953   4.665   6.541  0.0522  0.1274  0.3198
  322MOL0     C42394   7.938   4.816   6.518 -0.7452 -0.2503 -0.5953
  322MOL0     C42395   7.815   4.851   6.439 -0.1815  0.5053 -0.0017
  322MOL0     O42396   7.703   4.785   6.504  0.0025 -0.3059  0.7213
  322MOL0     C42397   7.582   4.854   6.508 -0.1716  0.1548 -0.2038
  322MOL0     C42398   7.491   4.807   6.601 -0.2101 -0.2742  0.0443
  322MOL0     C42399   7.365   4.863   6.604 -0.3523 -0.1038  0.2028
  322MOL0     C42400   7.317   4.967   6.518 -0.3413  0.7512  0.4320
  322MOL0     C42401   7.182   5.028   6.522 -0.3886  0.8633  0.5903
  322MOL0     O42402   7.163   5.136   6.441  0.2387 -0.2728 -0.2602
  322MOL0     C42403   7.053   5.216   6.459  0.2311 -0.1210  0.2002
  322MOL0     C42404   6.980   5.243   6.344  0.3778  0.4160 -0.9794
  322MOL0     C42405   6.878   5.339   6.353 -0.4068 -0.2159 -0.5998
  322MOL0     C42406   6.826   5.386   6.478 -0.6884 -0.0842 -0.2921
  322MOL0     O42407   6.718   5.464   6.494 -0.3669 -0.3422 -0.1831
  322MOL0     C42408   6.655   5.523   6.378  0.7518  0.7807 -0.4067
  322MOL0     C42409   6.551   5.628   6.431 -0.1946 -0.6730 -0.2194
  322MOL0     C42410   6.433   5.581   6.527  0.0710  0.8008  1.4388
  322MOL0     C42411   6.343   5.480   6.454  0.4849 -0.4473  1.2961
  322MOL0     C42412   6.217   5.460   6.526 -0.2069  0.4551  0.2322
  322MOL0     C42413   6.123   5.583   6.544 -0.6087 -0.0050  0.5840
  322MOL0     C42414   6.003   5.546   6.628 -0.4526  0.0037 -0.0325
  322MOL0     C42415   5.918   5.444   6.572 -0.2528  0.4841 -0.0110
  322MOL0    Cl42416   5.777   5.439   6.675  0.1951  0.2440 -0.2697
  322MOL0     C42417   6.906   5.365   6.592  0.3467  0.2117 -0.3745
  322MOL0     C42418   7.014   5.277   6.580  0.1301 -0.6074 -0.7716
  322MOL0     O42419   7.091   4.969   6.579  0.6885  0.0234 -0.0515
  322MOL0     C42420   7.413   5.004   6.417 -0.7460 -0.2256 -0.2534
  322MOL0     C42421   7.542   4.959   6.419 -0.3796  1.0544 -0.6796
  322MOL0     N42422   8.268   4.679   6.466 -0.4336  0.5751 -0.1081
  322MOL0     N42423   8.350   4.600   6.397  0.3613  0.2191  0.0520
  322MOL0     C42424   9.494   4.009   6.530  0.1630  0.0213 -1.0891
  322MOL0     C42425   9.623   3.960   6.555 -0.3492  0.4977 -0.3778
  322MOL0     C42426   9.980   3.658   6.617 -0.3532  0.8473  0.0891
  322MOL0     C42427  10.052   3.527   6.620 -0.1778  0.2351  0.4011
  322MOL0     C42428  10.184   3.524   6.652 -0.7310  0.5098 -0.0916
  322MOL0     C42429  10.255   3.643   6.694  0.0245  0.2624  0.1519
  322MOL0     O42430  10.394   3.636   6.708 -0.7097 -0.4918  0.7268
  322MOL0     C42431  10.462   3.757   6.737 -0.2525  0.2209 -0.8339
  322MOL0     C42432  10.602   3.733   6.792 -0.6119 -0.4354  0.0607
  322MOL0     C42433  10.713   3.709   6.687  0.1182  0.1516  0.4203
  322MOL0     C42434  10.848   3.672   6.745 -1.2162 -0.6777 -0.0835
  322MOL0     C42435  10.947   3.662   6.638  0.6736 -0.2482  0.2090
  322MOL0     C42436  11.015   3.666   6.535 -0.5581 -0.2003 -1.3191
  322MOL0     C42437  10.184   3.766   6.692 -0.0355  0.1021  0.2198
  322MOL0     C42438  10.049   3.775   6.647 -0.4505  0.7677 -0.0912
  322MOL0     H42439   9.565   3.632   6.468 -2.2257  0.4442 -0.3244
  322MOL0     H42440   9.357   3.723   6.419 -1.5103  0.3303 -0.2578
  322MOL0     H42441   9.250   4.161   6.410  2.0665  1.1301  1.5509
  322MOL0     H42442   9.255   4.108   6.569 -0.2283  1.1529 -0.3725
  322MOL0     H42443   9.023   4.035   6.561  3.4333  0.7059  2.6253
  322MOL0     H42444   9.021   4.040   6.377  0.0794 -0.9673  1.2943
  322MOL0     H42445   9.035   4.287   6.393 -0.5341  1.9270  1.2404
  322MOL0     H42446   9.045   4.277   6.571 -0.4878 -1.8932  2.1166
  322MOL0     H42447   8.800   4.186   6.409 -0.6677 -2.0198  1.1569
  322MOL0     H42448   8.821   4.156   6.570  0.0968 -2.3450 -2.2581
  322MOL0     H42449   8.811   4.442   6.445  1.8917 -2.6431 -1.2334
  322MOL0     H42450   8.822   4.414   6.622  2.0743 -0.4285 -0.3736
  322MOL0     H42451   8.600   4.482   6.569 -0.3122 -1.4519 -0.7043
  322MOL0     H42452   8.596   4.308   6.606 -2.1199  1.8921  2.2961
  322MOL0     H42453   8.582   4.475   6.345  2.0533  0.3672  1.0082
  322MOL0     H42454   8.601   4.288   6.342 -2.3482 -1.8460  1.4224
  322MOL0     H42455   8.391   4.267   6.412 -2.1919 -1.7448 -4.3964
  322MOL0     H42456   8.398   4.358   6.267 -1.5744  0.4084 -0.0359
  322MOL0     H42457   8.215   4.360   6.575 -1.9046  0.9400  2.1026
  322MOL0     H42458   8.105   4.722   6.689  0.3316 -0.1255 -0.1376
  322MOL0     H42459   8.051   4.551   6.688 -1.1170 -1.8941 -4.0667
  322MOL0     H42460   7.861   4.641   6.594 -0.5246  1.2488 -0.1540
  322MOL0     H42461   7.954   4.610   6.447 -0.0676 -2.2898  1.6416
  322MOL0     H42462   7.940   4.874   6.611  0.6755  3.5957 -2.7971
  322MOL0     H42463   8.025   4.855   6.465  1.6063 -3.1653  0.7585
  322MOL0     H42464   7.827   4.822   6.334 -1.2112  0.4315 -0.1031
  322MOL0     H42465   7.810   4.960   6.433  0.5425  0.5026 -0.8926
  322MOL0     H42466   7.525   4.735   6.675  1.5265 -0.8299 -1.2217
  322MOL0     H42467   7.300   4.853   6.690  0.1449  1.2326  0.7689
  322MOL0     H42468   7.010   5.191   6.254 -0.2620 -1.2462 -0.2932
  322MOL0     H42469   6.835   5.363   6.257 -1.0844  1.4285  0.0843
  322MOL0     H42470   6.607   5.448   6.314 -1.5360  0.8880  1.1035
  322MOL0     H42471   6.734   5.582   6.330  1.4757  0.1838  0.0120
  322MOL0     H42472   6.509   5.676   6.343 -0.6582  0.5833  0.6577
  322MOL0     H42473   6.608   5.707   6.481 -1.1649 -0.2770  0.2840
  322MOL0     H42474   6.377   5.673   6.547  2.9142  2.7557  1.0264
  322MOL0     H42475   6.472   5.541   6.621 -1.2282 -0.6893  1.3833
  322MOL0     H42476   6.326   5.506   6.349  0.3694 -0.3570  1.3371
  322MOL0     H42477   6.394   5.383   6.453 -1.0054 -1.2632 -0.6688
  322MOL0     H42478   6.235   5.402   6.617 -1.7884 -2.5360 -1.2086
  322MOL0     H42479   6.156   5.394   6.463 -1.2697  2.3734 -0.8146
  322MOL0     H42480   6.098   5.619   6.444 -1.0868  0.7055  0.9467
  322MOL0     H42481   6.169   5.666   6.598  1.4184 -0.6304 -0.0832
  322MOL0     H42482   6.028   5.519   6.732  0.2112  0.3015 -0.1100
  322MOL0     H42483   5.948   5.640   6.631 -2.2887 -1.0260  1.2249
  322MOL0     H42484   5.960   5.343   6.573 -0.0968  0.5556  0.9882
  322MOL0     H42485   5.895   5.463   6.466  0.9864 -1.3436 -0.6577
  322MOL0     H42486   6.872   5.423   6.677 -0.6311  3.1400 -2.5967
  322MOL0     H42487   7.066   5.239   6.668  0.6088  0.3567 -0.6272
  322MOL0     H42488   7.390   5.077   6.340  0.5437 -0.4382 -0.8756
  322MOL0     H42489   7.610   4.992   6.341 -0.1523  1.0396 -0.4907
  322MOL0     H42490   9.473   4.115   6.539  1.8216  0.4640 -1.9710
  322MOL0     H42491   9.699   4.026   6.595 -0.8497  0.6486  0.3518
  322MOL0     H42492  10.004   3.435   6.588 -2.6741  0.8132  2.2204
  322MOL0     H42493  10.230   3.426   6.653 -0.1996  0.7495  1.1733
  322MOL0     H42494  10.410   3.811   6.816  0.2020 -2.7949  1.6991
  322MOL0     H42495  10.467   3.827   6.653  4.2297  3.3031  1.5769
  322MOL0     H42496  10.637   3.820   6.848  0.4370  0.0007 -1.2320
  322MOL0     H42497  10.592   3.642   6.852 -0.6009 -0.9657 -0.7375
  322MOL0     H42498  10.718   3.806   6.637 -1.2022 -0.1204 -0.2788
  322MOL0     H42499  10.674   3.634   6.618 -3.0929  0.1529  2.0001
  322MOL0     H42500  10.885   3.745   6.818  0.7853 -2.9200  1.2679
  322MOL0     H42501  10.853   3.579   6.802  0.7154 -0.5491  0.0229
  322MOL0     H42502  11.070   3.688   6.445  0.9028  0.1872 -0.3679
  322MOL0     H42503  10.229   3.863   6.710 -2.8721  1.5703 -0.0958
  322MOL0     H42504  10.003   3.872   6.630  2.7185  2.3974 -0.2485
  323MOL0     O42505   9.847   0.219   4.137  0.1778  0.4591 -0.0853
  323MOL0     C42506   9.844   0.163   4.247  0.0609  0.4904  0.5583
  323MOL0     O42507   9.731   0.149   4.329 -0.1046 -0.1150  0.0909
  323MOL0     C42508   9.611   0.203   4.310  0.5690 -0.1825 -0.3588
  323MOL0     C42509   9.560   0.265   4.198 -0.5257 -0.0948  0.4399
  323MOL0     C42510   9.424   0.311   4.201  0.7871  0.2707  0.6678
  323MOL0     C42511   9.341   0.302   4.309  0.5536  0.2970 -0.6037
  323MOL0     O42512   9.213   0.345   4.293  0.0112 -0.4660  0.3000
  323MOL0     C42513   9.137   0.375   4.411  0.4927 -1.0024 -0.1731
  323MOL0     C42514   8.998   0.435   4.392  0.4744 -0.5502  0.1052
  323MOL0     C42515   8.908   0.439   4.519  0.3690 -0.5238 -0.3660
  323MOL0     C42516   8.869   0.311   4.586 -0.6133  0.3106  0.4146
  323MOL0     C42517   8.734   0.328   4.655 -0.7080 -0.8815  0.4750
  323MOL0     C42518   8.612   0.335   4.568  0.0525 -0.3708 -0.0338
  323MOL0     C42519   8.491   0.355   4.665  0.1204 -0.1729  0.7015
  323MOL0     C42520   8.477   0.238   4.761  0.3181  0.3666  0.0673
  323MOL0     N42521   8.344   0.241   4.830 -0.5135  0.3316  0.8325
  323MOL0     C42522   8.222   0.212   4.769  0.4483 -0.0692  0.1878
  323MOL0     C42523   8.134   0.200   4.874 -0.2067 -1.3848  1.7190
  323MOL0     C42524   7.990   0.163   4.880  0.9383 -0.4501  0.1715
  323MOL0     C42525   7.909   0.288   4.845  0.8342  0.0391 -0.1847
  323MOL0     C42526   7.758   0.252   4.833 -0.1052  0.0088 -0.9486
  323MOL0     C42527   7.692   0.264   4.967  0.1776 -0.1079 -0.4517
  323MOL0     O42528   7.675   0.403   4.988 -0.2876  0.2192 -0.4439
  323MOL0     C42529   7.549   0.461   5.005  0.2805  0.6141 -0.5396
  323MOL0     C42530   7.431   0.392   4.994  0.0390 -0.2541  0.2273
  323MOL0     C42531   7.308   0.467   5.006  0.1581 -0.2064  0.7729
  323MOL0     C42532   7.305   0.608   5.026  0.1098 -0.2146  0.5967
  323MOL0     C42533   7.180   0.678   5.051  0.1080 -1.5860 -1.1325
  323MOL0     O42534   7.071   0.616   5.003  0.4703 -0.1162 -0.9130
  323MOL0     C42535   6.941   0.669   5.006  0.4584  0.9153  0.2689
  323MOL0     C42536   6.858   0.636   4.898  0.3905  0.4239 -0.3916
  323MOL0     C42537   6.729   0.697   4.886  0.2650  0.3104  0.1292
  323MOL0     C42538   6.692   0.789   4.983 -0.3131 -0.3485  0.1745
  323MOL0     O42539   6.571   0.854   4.965  0.1592  0.1422 -1.0429
  323MOL0     C42540   6.475   0.821   4.864  0.3583 -0.4072  0.7164
  323MOL0     C42541   6.350   0.912   4.900 -0.6457 -0.2697 -0.0875
  323MOL0     C42542   6.244   0.893   4.793  1.3765  0.2265 -1.0828
  323MOL0     C42543   6.130   1.003   4.819 -0.4420  0.1972 -0.3344
  323MOL0     C42544   6.012   0.984   4.727  0.7587 -0.6484  0.1487
  323MOL0     C42545   6.049   0.973   4.578  0.6716  1.4432  0.0475
  323MOL0     C42546   5.917   0.953   4.490  0.5332  0.4871  0.9615
  323MOL0     C42547   5.948   0.939   4.341 -0.8465 -0.5947 -0.6728
  323MOL0    Cl42548   6.019   1.092   4.280 -0.0067  0.4513 -0.1353
  323MOL0     C42549   6.766   0.832   5.086 -0.4240 -0.0970 -0.0235
  323MOL0     C42550   6.884   0.763   5.102 -0.3938 -0.1627  0.1226
  323MOL0     O42551   7.187   0.782   5.109 -0.0776  0.3654 -0.0873
  323MOL0     C42552   7.431   0.669   5.047 -0.8193 -0.0728 -0.3023
  323MOL0     C42553   7.549   0.598   5.033  0.6208 -0.6596  0.2899
  323MOL0     N42554   8.209   0.234   4.986 -0.1422 -0.7657 -0.5775
  323MOL0     N42555   8.331   0.271   4.959  0.5190 -0.3067 -0.2996
  323MOL0     C42556   9.397   0.234   4.421 -0.2126 -0.1664 -0.0950
  323MOL0     C42557   9.526   0.181   4.421 -0.4036  0.2815  0.8962
  323MOL0     C42558   9.980   0.146   4.322  0.8548  0.6584  0.8625
  323MOL0     C42559   9.986   0.164   4.462 -0.6130 -0.3218 -0.6399
  323MOL0     C42560  10.108   0.157   4.536 -0.1180 -0.5671  0.9199
  323MOL0     C42561  10.219   0.117   4.465  0.6266  0.1082  1.1170
  323MOL0     O42562  10.344   0.111   4.530  0.1597 -0.3791 -0.1532
  323MOL0     C42563  10.465   0.053   4.479 -1.1099 -0.2849 -0.6808
  323MOL0     C42564  10.574   0.082   4.580 -0.7328 -0.0223  0.0899
  323MOL0     C42565  10.704   0.025   4.522  0.5307 -0.1365  0.6084
  323MOL0     C42566  10.817   0.008   4.626 -0.0839  0.4290  0.3984
  323MOL0     C42567  10.858   0.127   4.698  0.4048  0.3523  0.7414
  323MOL0     C42568  10.889   0.234   4.745 -0.0094  0.9122  0.2602
  323MOL0     C42569  10.208   0.096   4.330 -0.6832 -0.6181 -0.7687
  323MOL0     C42570  10.092   0.105   4.256  0.6330  0.0494  0.8304
  323MOL0     H42571   9.614   0.285   4.106 -2.3026  0.7172 -0.4936
  323MOL0     H42572   9.387   0.352   4.107 -0.7801  0.7408  1.4662
  323MOL0     H42573   9.185   0.448   4.477 -2.1616  0.0349  0.7401
  323MOL0     H42574   9.121   0.283   4.468 -3.1271  1.1833  2.7878
  323MOL0     H42575   8.943   0.389   4.309 -1.4447  3.3235 -0.9752
  323MOL0     H42576   9.024   0.537   4.363  5.0172 -0.7740  2.4843
  323MOL0     H42577   8.821   0.495   4.485  0.5758 -0.1214 -0.2363
  323MOL0     H42578   8.947   0.504   4.597 -2.0781  2.3005 -1.3073
  323MOL0     H42579   8.865   0.225   4.518  1.3407  0.2733  0.2831
  323MOL0     H42580   8.940   0.290   4.667  3.8400  3.3267 -2.2655
  323MOL0     H42581   8.737   0.410   4.727 -4.4714  1.1105 -1.3475
  323MOL0     H42582   8.730   0.233   4.708 -0.3279 -1.3787 -0.3691
  323MOL0     H42583   8.607   0.245   4.506  0.5907  0.3947 -1.2270
  323MOL0     H42584   8.614   0.425   4.506 -1.5258 -0.2451  0.0594
  323MOL0     H42585   8.509   0.445   4.725 -0.8347  0.5591 -0.0872
  323MOL0     H42586   8.402   0.368   4.604  0.7567  0.8406 -0.0351
  323MOL0     H42587   8.558   0.228   4.834 -1.0090 -0.4169  1.4612
  323MOL0     H42588   8.469   0.140   4.713 -1.4431  0.5458 -0.0591
  323MOL0     H42589   8.189   0.215   4.666  0.8736  2.8075  0.0598
  323MOL0     H42590   7.955   0.144   4.982 -4.0337  2.1004 -0.7703
  323MOL0     H42591   7.962   0.086   4.807 -1.7239 -0.1869  0.8136
  323MOL0     H42592   7.944   0.312   4.744 -4.3353  3.6730 -1.5214
  323MOL0     H42593   7.934   0.362   4.921  2.9325 -0.2347 -0.5476
  323MOL0     H42594   7.717   0.313   4.752  0.8431  2.3629  0.2404
  323MOL0     H42595   7.750   0.145   4.811  1.6046 -0.5138  0.7124
  323MOL0     H42596   7.753   0.222   5.047 -3.3611 -0.5582  2.2872
  323MOL0     H42597   7.600   0.205   4.967  0.9876 -1.4816  1.4464
  323MOL0     H42598   7.417   0.286   4.979  3.9545 -1.0823  1.1372
  323MOL0     H42599   7.215   0.412   4.993  0.1585 -1.1667  3.9713
  323MOL0     H42600   6.901   0.576   4.818  1.0754  0.7322 -0.2667
  323MOL0     H42601   6.671   0.676   4.797  2.1185 -1.2854 -0.7923
  323MOL0     H42602   6.453   0.714   4.857 -1.7641  0.0077  0.2417
  323MOL0     H42603   6.509   0.853   4.764 -0.7915 -0.5358  0.2712
  323MOL0     H42604   6.386   1.015   4.898 -1.2332 -0.0729 -1.5356
  323MOL0     H42605   6.306   0.894   4.999 -2.5363  0.2981 -0.7961
  323MOL0     H42606   6.200   0.795   4.811  0.5439  0.8668  0.6475
  323MOL0     H42607   6.285   0.893   4.692 -0.9936  0.8788 -2.1223
  323MOL0     H42608   6.089   0.996   4.921 -2.4726 -3.4060 -1.2157
  323MOL0     H42609   6.170   1.103   4.800 -0.0918 -0.0655 -0.9821
  323MOL0     H42610   5.955   1.077   4.729  1.1679 -0.3103 -1.6422
  323MOL0     H42611   5.952   0.896   4.749  0.8650 -0.9105 -0.6024
  323MOL0     H42612   6.107   0.881   4.577 -0.1379  0.9113  0.7512
  323MOL0     H42613   6.121   1.052   4.552 -1.9047  3.6132 -0.9483
  323MOL0     H42614   5.861   0.866   4.525  0.4506  0.6214  1.1690
  323MOL0     H42615   5.856   1.044   4.498  1.8982  1.3680  1.8166
  323MOL0     H42616   5.856   0.914   4.286 -0.6265  0.9953 -1.8392
  323MOL0     H42617   6.028   0.866   4.336  1.5649  1.3999  3.6851
  323MOL0     H42618   6.732   0.908   5.156 -2.4251 -1.3331  0.4168
  323MOL0     H42619   6.951   0.796   5.180  1.1656 -1.8030 -0.4643
  323MOL0     H42620   7.441   0.774   5.071 -2.2417 -0.1017  0.5200
  323MOL0     H42621   7.634   0.658   5.061  0.3539 -0.7444  1.3320
  323MOL0     H42622   9.329   0.222   4.505  0.6330 -1.3189  0.4419
  323MOL0     H42623   9.561   0.116   4.501 -1.7148  0.6794  1.8405
  323MOL0     H42624   9.901   0.199   4.519 -0.5932 -2.1069  0.5888
  323MOL0     H42625  10.116   0.193   4.638 -0.7838  3.2442 -0.2011
  323MOL0     H42626  10.495   0.085   4.379 -0.4243 -0.9290 -0.6835
  323MOL0     H42627  10.456  -0.056   4.481 -1.7821 -0.2357  0.8269
  323MOL0     H42628  10.590   0.189   4.596  2.3357 -0.7612  3.0701
  323MOL0     H42629  10.563   0.037   4.679  2.1750 -0.0840  0.4518
  323MOL0     H42630  10.735   0.079   4.432 -2.1311  1.7175  0.6878
  323MOL0     H42631  10.692  -0.073   4.474  1.2282  1.2369 -2.6993
  323MOL0     H42632  10.772  -0.066   4.693 -1.5946  1.2478  0.3173
  323MOL0     H42633  10.905  -0.039   4.582  0.9903  1.6076  1.2291
  323MOL0     H42634  10.917   0.326   4.792 -1.0409  1.6448 -0.5177
  323MOL0     H42635  10.299   0.060   4.284  0.7857  1.2133  0.5729
  323MOL0     H42636  10.081   0.089   4.149  1.4661  0.1618  0.7250
  324MOL0     O42637   0.738   4.886   2.679 -0.4045 -0.2530  0.7072
  324MOL0     C42638   0.780   4.815   2.583 -0.6029 -0.1210  0.0043
  324MOL0     O42639   0.712   4.727   2.499  0.3556  0.4866 -0.4667
  324MOL0     C42640   0.598   4.673   2.545 -0.3577  0.5978 -0.1807
  324MOL0     C42641   0.578   4.639   2.685 -0.4969  0.3797  0.5472
  324MOL0     C42642   0.451   4.608   2.730  0.8297 -0.6865  0.1256
  324MOL0     C42643   0.344   4.584   2.633 -0.0049 -1.0687 -0.4460
  324MOL0     O42644   0.225   4.545   2.674 -1.0485  0.0954  0.1671
  324MOL0     C42645   0.114   4.613   2.620  0.2985  0.6547 -0.1965
  324MOL0     C42646  -0.008   4.590   2.714  0.0360 -0.2350  0.9359
  324MOL0     C42647   0.008   4.613   2.860 -0.2020 -0.3761  0.2780
  324MOL0     C42648  -0.128   4.615   2.932 -0.0412 -0.3467 -0.1919
  324MOL0     C42649  -0.114   4.616   3.082  0.3711 -0.0637 -0.3929
  324MOL0     C42650  -0.178   4.746   3.139 -0.9276  0.5885 -0.2919
  324MOL0     C42651  -0.330   4.771   3.127 -0.9591  0.4331  0.1306
  324MOL0     C42652  -0.360   4.908   3.176 -0.5138 -0.1459 -0.0151
  324MOL0     N42653  -0.499   4.911   3.221 -0.6900  0.2497 -1.0233
  324MOL0     C42654  -0.560   4.869   3.333 -0.0045  0.7045  0.0555
  324MOL0     C42655  -0.681   4.886   3.304  0.2214 -0.3454  0.7796
  324MOL0     C42656  -0.799   4.854   3.394 -0.3265  0.0629  0.1488
  324MOL0     C42657  -0.938   4.911   3.351 -1.3849  0.9291  0.1376
  324MOL0     C42658  -1.049   4.884   3.445  0.2496  0.0097 -0.9659
  324MOL0     C42659  -1.178   4.948   3.401  0.6746 -0.1771 -0.3228
  324MOL0     O42660  -1.291   4.911   3.485  0.2631  0.2104  0.6364
  324MOL0     C42661  -1.408   4.978   3.485 -0.2740  0.0483 -0.6757
  324MOL0     C42662  -1.460   5.060   3.388  1.0655  0.1991  0.1642
  324MOL0     C42663  -1.593   5.114   3.394 -0.5069  0.3984 -0.7969
  324MOL0     C42664  -1.670   5.094   3.505  0.9834 -0.0282 -0.3911
  324MOL0     C42665  -1.809   5.144   3.516 -0.2597  0.1649  1.1609
  324MOL0     O42666  -1.877   5.107   3.627 -0.2870  0.7112  0.0949
  324MOL0     C42667  -2.000   5.153   3.637  0.3631 -0.4214  0.0766
  324MOL0     C42668  -2.020   5.238   3.742 -0.4140 -0.3105  1.0730
  324MOL0     C42669  -2.151   5.291   3.767 -0.0942 -0.8509 -0.1509
  324MOL0     C42670  -2.252   5.270   3.676 -0.5771  1.0458 -0.1324
  324MOL0     O42671  -2.370   5.332   3.711 -0.0398  0.5463  0.6331
  324MOL0     C42672  -2.477   5.334   3.621 -1.0725 -0.2969 -0.8665
  324MOL0     C42673  -2.601   5.415   3.674 -0.1844  0.8007 -0.0826
  324MOL0     C42674  -2.716   5.435   3.574  0.2916 -0.0982 -0.2542
  324MOL0     C42675  -2.795   5.568   3.601  0.0123  0.7459 -0.4282
  324MOL0     C42676  -2.948   5.562   3.581 -0.0701 -0.3354 -0.5407
  324MOL0     C42677  -3.010   5.486   3.697  0.3189 -0.0677 -0.5901
  324MOL0     C42678  -3.162   5.508   3.682 -0.3638  0.4894 -0.1753
  324MOL0     C42679  -3.226   5.480   3.548 -0.4013  0.9984 -0.1639
  324MOL0    Cl42680  -3.395   5.526   3.561  0.6229  0.2915 -0.5048
  324MOL0     C42681  -2.225   5.182   3.564  0.5685 -0.1254  0.4963
  324MOL0     C42682  -2.102   5.121   3.550  0.3930  0.2367  0.5901
  324MOL0     O42683  -1.850   5.222   3.426 -0.3953  0.1857  0.1673
  324MOL0     C42684  -1.623   5.011   3.607 -0.3474  0.4860 -0.0843
  324MOL0     C42685  -1.491   4.959   3.601  0.5447  0.3014  0.1146
  324MOL0     N42686  -0.699   4.939   3.182 -0.6468  0.5135  0.0918
  324MOL0     N42687  -0.590   4.964   3.128 -0.0391  0.3428 -0.5241
  324MOL0     C42688   0.374   4.617   2.502 -0.4546 -0.1921 -0.8588
  324MOL0     C42689   0.495   4.663   2.457  0.2835  0.1526 -0.2376
  324MOL0     C42690   0.929   4.808   2.571  0.2716 -0.3585 -0.6285
  324MOL0     C42691   1.006   4.921   2.578  0.2764 -0.5232 -0.5189
  324MOL0     C42692   1.144   4.928   2.549  0.2480 -0.1852 -0.0808
  324MOL0     C42693   1.204   4.811   2.506 -1.4042  0.0675 -0.6897
  324MOL0     O42694   1.337   4.820   2.459 -0.2837  0.5185  0.2600
  324MOL0     C42695   1.448   4.870   2.536 -0.8605  0.0790 -0.5511
  324MOL0     C42696   1.498   4.772   2.641 -0.4610 -0.0710  0.7209
  324MOL0     C42697   1.642   4.754   2.648  0.6014 -0.9214 -0.0976
  324MOL0     C42698   1.696   4.655   2.546  0.0486 -0.5235  0.2389
  324MOL0     C42699   1.844   4.645   2.547  0.5082 -0.1843  0.1403
  324MOL0     C42700   1.964   4.634   2.561  0.6004 -0.2003  0.2969
  324MOL0     C42701   1.128   4.697   2.470  0.8042  1.0215 -0.8164
  324MOL0     C42702   0.995   4.695   2.522  0.4504 -0.2350  0.0759
  324MOL0     H42703   0.662   4.643   2.753  0.4268  0.1604 -0.5629
  324MOL0     H42704   0.434   4.589   2.836  0.1912  1.7482  0.5184
  324MOL0     H42705   0.084   4.578   2.521 -0.2979 -1.1699  0.5834
  324MOL0     H42706   0.139   4.719   2.627 -1.5078  1.0267  1.2683
  324MOL0     H42707  -0.031   4.486   2.690  0.5586 -0.5907  1.9270
  324MOL0     H42708  -0.085   4.663   2.687  0.8537  0.2350 -0.2260
  324MOL0     H42709   0.063   4.707   2.868 -1.1237  0.2620 -0.5429
  324MOL0     H42710   0.061   4.527   2.902 -1.3390 -0.0300  2.5990
  324MOL0     H42711  -0.170   4.708   2.895  0.6048  0.0717  0.0982
  324MOL0     H42712  -0.183   4.525   2.903  0.3885  0.0162 -2.3032
  324MOL0     H42713  -0.012   4.613   3.122  0.4551 -0.1821 -0.6165
  324MOL0     H42714  -0.163   4.524   3.115  0.4955 -0.6685 -1.8321
  324MOL0     H42715  -0.127   4.831   3.094  0.9614  0.7685  2.0098
  324MOL0     H42716  -0.145   4.743   3.243 -1.0121 -0.9889 -0.2815
  324MOL0     H42717  -0.352   4.752   3.021  0.3913 -1.6174  0.1689
  324MOL0     H42718  -0.385   4.693   3.182 -0.0270  1.6081  2.9164
  324MOL0     H42719  -0.350   4.979   3.093 -2.9901 -2.2786 -2.3882
  324MOL0     H42720  -0.296   4.935   3.260  0.8373 -3.8310  0.3393
  324MOL0     H42721  -0.514   4.819   3.417 -0.9345 -1.3268 -0.5872
  324MOL0     H42722  -0.780   4.889   3.496  0.4316  3.6480 -1.0868
  324MOL0     H42723  -0.812   4.746   3.387  1.8914 -0.1439 -4.3662
  324MOL0     H42724  -0.962   4.853   3.261  2.1976 -1.2041  0.3895
  324MOL0     H42725  -0.947   5.017   3.327  0.0847  0.9582 -0.3653
  324MOL0     H42726  -1.053   4.775   3.448  1.8998 -0.0688 -0.7757
  324MOL0     H42727  -1.032   4.899   3.552  1.1171  3.4838 -1.4626
  324MOL0     H42728  -1.208   4.929   3.298  0.4119  0.2047 -0.3215
  324MOL0     H42729  -1.164   5.057   3.409 -0.6469 -0.1249  3.0055
  324MOL0     H42730  -1.401   5.073   3.297 -0.2255  1.1591 -0.5804
  324MOL0     H42731  -1.607   5.182   3.310 -0.2173  1.9623  0.3673
  324MOL0     H42732  -1.938   5.244   3.813  2.4571 -0.1346 -2.0435
  324MOL0     H42733  -2.166   5.354   3.855 -0.0044 -2.3479  0.9764
  324MOL0     H42734  -2.505   5.228   3.610 -0.5705 -0.7467  1.6233
  324MOL0     H42735  -2.443   5.372   3.524 -0.8531  3.4167  0.5081
  324MOL0     H42736  -2.559   5.514   3.697 -0.0432  0.8976 -0.7429
  324MOL0     H42737  -2.641   5.373   3.767  0.2733  0.9417  0.1819
  324MOL0     H42738  -2.775   5.344   3.588  2.0434 -1.5806 -1.8518
  324MOL0     H42739  -2.681   5.440   3.470 -0.7958  1.7899 -0.5776
  324MOL0     H42740  -2.765   5.596   3.702 -2.7620 -1.8924  1.2932
  324MOL0     H42741  -2.764   5.648   3.533 -0.0731  1.6469  0.5700
  324MOL0     H42742  -2.975   5.507   3.491  1.1386 -1.9181  0.0095
  324MOL0     H42743  -2.978   5.667   3.578  1.9467  0.2738 -1.4586
  324MOL0     H42744  -2.969   5.522   3.792  1.1315 -1.1114 -0.5207
  324MOL0     H42745  -2.984   5.379   3.695  0.5557 -0.0246 -0.0088
  324MOL0     H42746  -3.222   5.446   3.748 -1.0070  0.2509 -0.9730
  324MOL0     H42747  -3.183   5.613   3.705 -1.2602  0.0003  1.3756
  324MOL0     H42748  -3.209   5.374   3.528 -2.6422  0.8302 -1.4811
  324MOL0     H42749  -3.180   5.531   3.463 -0.4978  0.2141 -0.6993
  324MOL0     H42750  -2.305   5.158   3.494  1.9623  0.8374 -1.5541
  324MOL0     H42751  -2.072   5.045   3.479 -0.4135  0.2804  0.1987
  324MOL0     H42752  -1.678   4.980   3.695  0.5668 -1.8578 -0.2689
  324MOL0     H42753  -1.452   4.898   3.682  0.0807 -0.1186  0.0223
  324MOL0     H42754   0.291   4.615   2.433 -2.2941 -1.3507  1.2512
  324MOL0     H42755   0.510   4.703   2.357  1.2330  1.9576  0.5833
  324MOL0     H42756   0.952   5.011   2.606  1.6651  0.9554 -2.4064
  324MOL0     H42757   1.198   5.019   2.574  0.0955 -0.9802  3.6630
  324MOL0     H42758   1.429   4.971   2.573 -1.0178  0.0423 -0.5311
  324MOL0     H42759   1.523   4.877   2.457  0.0898  1.6870  0.4637
  324MOL0     H42760   1.453   4.798   2.738  0.7325 -1.2862  1.6439
  324MOL0     H42761   1.460   4.672   2.617 -0.7338  0.3002 -0.4275
  324MOL0     H42762   1.660   4.705   2.745 -0.4403 -0.2858  0.4329
  324MOL0     H42763   1.692   4.850   2.660  0.6828 -0.9949  0.1729
  324MOL0     H42764   1.653   4.557   2.573 -3.3424  0.6015 -0.6428
  324MOL0     H42765   1.651   4.682   2.451 -2.9581  2.8425  2.3891
  324MOL0     H42766   2.071   4.644   2.570  0.3355  3.1954  1.2284
  324MOL0     H42767   1.179   4.612   2.425  1.8163  0.0179  2.0162
  324MOL0     H42768   0.954   4.594   2.524 -0.8295  0.2597  1.9905
  325MOL0     O42769  10.093   8.937   1.790  0.3993  0.0915  0.2142
  325MOL0     C42770  10.182   8.909   1.871 -0.0032  0.3358 -0.0722
  325MOL0     O42771  10.164   8.841   1.986 -0.2165 -0.4359  0.6306
  325MOL0     C42772  10.038   8.813   2.027 -0.1340  0.5353 -0.5719
  325MOL0     C42773   9.965   8.712   1.956 -0.8964 -0.6706  0.1234
  325MOL0     C42774   9.835   8.685   1.993  0.2554  0.2978  0.4361
  325MOL0     C42775   9.781   8.744   2.106  0.0063  0.1247  0.6713
  325MOL0     O42776   9.661   8.710   2.157 -0.1789 -0.3202  0.4297
  325MOL0     C42777   9.555   8.713   2.060 -0.8623  0.2094  0.6211
  325MOL0     C42778   9.418   8.687   2.111 -0.2290 -0.1261 -0.0899
  325MOL0     C42779   9.391   8.534   2.146 -0.3865  0.9921 -0.3376
  325MOL0     C42780   9.271   8.498   2.227  0.1209 -0.4694  0.9440
  325MOL0     C42781   9.139   8.552   2.155 -0.1252  0.1249 -0.7665
  325MOL0     C42782   9.017   8.529   2.234  0.0535  0.4618 -0.6753
  325MOL0     C42783   8.996   8.613   2.372  0.0198  0.3400  0.1484
  325MOL0     C42784   8.922   8.537   2.485 -0.4364 -0.1379  0.0620
  325MOL0     N42785   8.792   8.493   2.442  0.2952  0.3132  0.6441
  325MOL0     C42786   8.693   8.578   2.400  0.3811 -0.4121 -0.6193
  325MOL0     C42787   8.592   8.493   2.381 -0.5934  0.3974  0.0423
  325MOL0     C42788   8.464   8.547   2.316 -0.4412 -0.2130 -0.1899
  325MOL0     C42789   8.352   8.516   2.410 -0.3110 -0.8723 -0.1572
  325MOL0     C42790   8.385   8.588   2.545  0.7440 -0.2970  0.3102
  325MOL0     C42791   8.257   8.615   2.631 -0.8462  0.4607 -0.3852
  325MOL0     O42792   8.286   8.702   2.738 -0.0509 -0.3020 -0.7505
  325MOL0     C42793   8.179   8.748   2.808  0.5488  0.3181  0.6429
  325MOL0     C42794   8.202   8.856   2.894  0.4413 -0.3414  0.6459
  325MOL0     C42795   8.096   8.897   2.982 -0.3147 -1.5755 -0.0687
  325MOL0     C42796   7.973   8.849   2.967  0.9152 -0.8390  0.2510
  325MOL0     C42797   7.864   8.894   3.049 -0.0179 -0.8324  1.1814
  325MOL0     O42798   7.731   8.864   3.008  0.2069  0.6047 -0.3752
  325MOL0     C42799   7.629   8.903   3.085  0.6286 -0.8984  0.5633
  325MOL0     C42800   7.527   8.976   3.020  0.6620  0.0195  0.1585
  325MOL0     C42801   7.414   9.009   3.095 -0.7796 -0.3232 -0.1678
  325MOL0     C42802   7.406   8.981   3.233  0.9331  0.0427  0.6757
  325MOL0     O42803   7.299   9.015   3.302  0.2115 -0.2830 -0.2390
  325MOL0     C42804   7.226   8.905   3.357 -0.0015 -0.6444 -0.1780
  325MOL0     C42805   7.076   8.950   3.354 -0.3414  0.2697 -0.2867
  325MOL0     C42806   6.983   8.894   3.464 -0.2713  0.7747 -0.5850
  325MOL0     C42807   6.844   8.959   3.429 -0.9250 -0.6580 -0.3319
  325MOL0     C42808   6.737   8.925   3.533 -0.5960  0.1212  0.7570
  325MOL0     C42809   6.610   9.007   3.499  0.3389  0.2654 -0.6862
  325MOL0     C42810   6.490   8.984   3.592  0.4693 -0.6013 -0.4537
  325MOL0     C42811   6.379   9.066   3.550  0.1682  0.1173 -0.3816
  325MOL0    Cl42812   6.232   9.023   3.639  0.4610 -0.2765  0.1087
  325MOL0     C42813   7.505   8.905   3.290 -0.2148  0.1386  0.1898
  325MOL0     C42814   7.617   8.869   3.218 -0.1895  0.1672  0.3286
  325MOL0     O42815   7.898   8.942   3.153  0.1020 -0.1057 -0.8018
  325MOL0     C42816   7.942   8.751   2.874 -0.1025  0.3786 -0.6276
  325MOL0     C42817   8.044   8.707   2.790  0.2062  0.2396 -0.6202
  325MOL0     N42818   8.634   8.358   2.408 -0.2538 -0.4075 -0.2241
  325MOL0     N42819   8.759   8.369   2.448 -0.0805  0.3236 -0.5534
  325MOL0     C42820   9.854   8.828   2.184  0.5968 -0.1224 -0.2418
  325MOL0     C42821   9.982   8.857   2.149  0.2305  0.6755 -0.2334
  325MOL0     C42822  10.312   8.958   1.822  0.0428 -0.3480 -0.1601
  325MOL0     C42823  10.428   8.898   1.880 -0.0955 -0.1395  0.2567
  325MOL0     C42824  10.553   8.934   1.842 -0.1951  0.8892  0.7837
  325MOL0     C42825  10.573   9.042   1.750 -0.6019 -0.4701  1.0033
  325MOL0     O42826  10.697   9.086   1.698 -0.2371 -0.3509 -0.1940
  325MOL0     C42827  10.811   9.031   1.749  0.3446 -0.5525 -0.3095
  325MOL0     C42828  10.938   9.073   1.668  0.2386 -0.6115 -0.7574
  325MOL0     C42829  10.944   9.229   1.652 -0.6383  0.0723 -0.0341
  325MOL0     C42830  11.006   9.295   1.773 -0.3691 -0.2581  0.0719
  325MOL0     C42831  10.897   9.360   1.841 -0.4602  0.2999 -0.8051
  325MOL0     C42832  10.815   9.409   1.918  0.9328  0.4392 -0.0755
  325MOL0     C42833  10.459   9.112   1.702  0.3296 -0.2044 -0.0457
  325MOL0     C42834  10.332   9.067   1.732  0.2541 -0.1465 -0.2228
  325MOL0     H42835  10.000   8.670   1.862  0.7943 -1.5034  1.0786
  325MOL0     H42836   9.778   8.615   1.933  1.8958  0.5159 -1.4927
  325MOL0     H42837   9.570   8.633   1.988 -0.1260 -1.5937  2.6737
  325MOL0     H42838   9.564   8.804   2.000  4.5809 -1.3715 -1.5219
  325MOL0     H42839   9.345   8.721   2.037 -0.9210 -0.2148  0.5428
  325MOL0     H42840   9.406   8.743   2.204 -0.8110  1.1348 -0.8853
  325MOL0     H42841   9.480   8.484   2.186 -0.2649  0.7078 -0.9354
  325MOL0     H42842   9.375   8.478   2.053  0.5167  2.5032 -1.4487
  325MOL0     H42843   9.260   8.389   2.228 -0.3951 -0.4136  1.5184
  325MOL0     H42844   9.275   8.527   2.332 -0.1152  0.6150  0.6637
  325MOL0     H42845   9.134   8.518   2.051  0.7254  0.2827 -0.8653
  325MOL0     H42846   9.144   8.661   2.143 -0.0491  0.0514 -1.4414
  325MOL0     H42847   9.025   8.421   2.253  0.2378  0.4854 -0.6202
  325MOL0     H42848   8.922   8.543   2.181 -0.4469 -0.5431 -0.0757
  325MOL0     H42849   9.087   8.650   2.419 -0.7970  2.7399  0.0272
  325MOL0     H42850   8.941   8.705   2.346 -0.6070 -0.8185 -3.0389
  325MOL0     H42851   8.918   8.598   2.575  1.0961 -0.3665  0.3097
  325MOL0     H42852   8.996   8.461   2.512 -0.0024 -0.3132 -1.5240
  325MOL0     H42853   8.694   8.686   2.391  0.1190 -0.5308 -2.3693
  325MOL0     H42854   8.451   8.506   2.215  0.0708 -1.7879  0.3716
  325MOL0     H42855   8.476   8.655   2.298 -0.7736 -0.1930 -0.3105
  325MOL0     H42856   8.355   8.408   2.422 -0.7270 -1.1941 -2.5435
  325MOL0     H42857   8.260   8.542   2.358  0.3373  2.7838  0.2138
  325MOL0     H42858   8.462   8.541   2.608  0.8403  1.8682  1.9043
  325MOL0     H42859   8.413   8.689   2.516 -1.7795 -0.0526 -1.6621
  325MOL0     H42860   8.232   8.521   2.681  3.1031  0.1123  1.3229
  325MOL0     H42861   8.179   8.660   2.569 -1.0478  0.1167 -0.3846
  325MOL0     H42862   8.292   8.917   2.895 -0.3825  0.9501 -0.4840
  325MOL0     H42863   8.123   8.981   3.046  2.1087 -2.3032 -0.0602
  325MOL0     H42864   7.528   9.002   2.915 -0.4079  2.8529  0.7510
  325MOL0     H42865   7.330   9.060   3.050  0.8264  0.0684 -2.9715
  325MOL0     H42866   7.260   8.875   3.457 -0.3177 -1.5616 -0.3381
  325MOL0     H42867   7.238   8.819   3.291 -0.2367 -1.4162  0.7583
  325MOL0     H42868   7.027   8.935   3.257 -0.8421  1.4000 -0.2214
  325MOL0     H42869   7.073   9.058   3.366 -2.2389  0.0346  2.0894
  325MOL0     H42870   7.025   8.923   3.561 -0.3247  2.9124 -1.1456
  325MOL0     H42871   6.980   8.786   3.446  2.6731  0.6520 -0.8683
  325MOL0     H42872   6.852   9.068   3.430  1.1446 -0.6821  3.3180
  325MOL0     H42873   6.816   8.931   3.327 -0.8665  0.2561 -0.6080
  325MOL0     H42874   6.780   8.925   3.633  4.7675 -1.4035 -1.2024
  325MOL0     H42875   6.706   8.821   3.525 -0.3894  0.0259  1.1750
  325MOL0     H42876   6.592   8.992   3.392  1.5283  0.6492 -0.9585
  325MOL0     H42877   6.642   9.110   3.518  2.1061 -0.5327  1.0048
  325MOL0     H42878   6.468   8.877   3.591 -0.6876 -0.3732 -0.6918
  325MOL0     H42879   6.515   9.017   3.693  1.6826  2.4200 -1.6328
  325MOL0     H42880   6.355   9.062   3.444  0.3420 -2.4801 -0.3992
  325MOL0     H42881   6.405   9.172   3.558  2.6367 -0.3478 -1.3732
  325MOL0     H42882   7.481   8.875   3.392  0.8803 -1.5823 -0.0158
  325MOL0     H42883   7.698   8.805   3.250  1.0136  0.9643 -0.9919
  325MOL0     H42884   7.843   8.708   2.869 -0.0830  0.4361 -3.7587
  325MOL0     H42885   8.009   8.632   2.720 -1.5216 -2.0959  2.4836
  325MOL0     H42886   9.805   8.869   2.272 -0.1647 -1.5505  0.0195
  325MOL0     H42887  10.032   8.922   2.220 -1.8717  1.4524  0.6164
  325MOL0     H42888  10.414   8.810   1.942 -0.6909  0.6563  1.2786
  325MOL0     H42889  10.639   8.874   1.868  0.2286  0.7077 -0.9018
  325MOL0     H42890  10.812   8.922   1.751 -2.8636 -0.7270 -1.6080
  325MOL0     H42891  10.813   9.062   1.855 -1.0173 -0.9929 -0.1349
  325MOL0     H42892  11.026   9.034   1.721  0.7035 -0.2358 -1.2477
  325MOL0     H42893  10.951   9.025   1.571 -1.1242 -0.6434 -0.9457
  325MOL0     H42894  10.843   9.258   1.624 -1.2690 -0.5965  1.4511
  325MOL0     H42895  10.998   9.243   1.558  0.4741 -3.6212 -0.1032
  325MOL0     H42896  11.063   9.239   1.848  0.3507  5.3099  4.3377
  325MOL0     H42897  11.071   9.379   1.748 -1.0331  0.4524  0.6671
  325MOL0     H42898  10.737   9.448   1.981 -0.1748 -1.4956 -0.1693
  325MOL0     H42899  10.483   9.197   1.639  0.5105  1.1001  1.7118
  325MOL0     H42900  10.247   9.113   1.682  1.0341 -0.7460 -2.1896
  326MOL0     O42901   4.591   8.187   0.328  0.2686  0.3284 -0.4263
  326MOL0     C42902   4.565   8.065   0.306  0.0032  0.0745  0.2488
  326MOL0     O42903   4.437   8.002   0.310  0.4417  0.2109  1.0034
  326MOL0     C42904   4.324   8.062   0.360 -0.0362 -0.0187  0.8057
  326MOL0     C42905   4.337   8.138   0.475 -0.1137 -0.0665  0.2089
  326MOL0     C42906   4.226   8.195   0.529  1.3507  0.1410  0.3108
  326MOL0     C42907   4.097   8.174   0.475  0.1445 -0.1556  0.0854
  326MOL0     O42908   3.973   8.219   0.532 -0.2915  0.3507  0.6294
  326MOL0     C42909   3.968   8.346   0.593 -0.7361 -0.4881  0.0447
  326MOL0     C42910   3.825   8.389   0.598  0.2905  0.3613  1.1199
  326MOL0     C42911   3.799   8.518   0.671  0.4040 -0.1453 -0.1856
  326MOL0     C42912   3.689   8.589   0.595 -0.2482 -0.2191 -0.7938
  326MOL0     C42913   3.621   8.694   0.684  0.6957 -0.7366 -0.5754
  326MOL0     C42914   3.707   8.822   0.716  0.7934 -0.7595 -0.4115
  326MOL0     C42915   3.594   8.920   0.790  0.6788  0.8516  0.4919
  326MOL0     C42916   3.654   9.035   0.867 -0.3463  0.0265 -0.6577
  326MOL0     N42917   3.548   9.116   0.922 -0.0159  0.0125 -0.3334
  326MOL0     C42918   3.514   9.243   0.896 -0.6296 -0.0344 -0.8799
  326MOL0     C42919   3.403   9.263   0.971  1.1141 -0.2603 -0.0934
  326MOL0     C42920   3.310   9.385   0.969 -0.3243  0.0917 -0.7427
  326MOL0     C42921   3.220   9.390   0.850 -0.1949 -0.1654  1.1749
  326MOL0     C42922   3.105   9.293   0.859  0.2601  0.2090  0.0178
  326MOL0     C42923   2.995   9.313   0.749  0.0352 -0.3314 -0.4733
  326MOL0     O42924   2.914   9.424   0.786  0.2731  0.5080  0.5901
  326MOL0     C42925   2.816   9.472   0.699  1.3820 -0.6620 -0.5326
  326MOL0     C42926   2.740   9.576   0.752 -0.1490 -0.1807 -0.0081
  326MOL0     C42927   2.628   9.638   0.683 -1.1824  0.9431 -0.7146
  326MOL0     C42928   2.596   9.600   0.551 -0.1787 -1.0330  0.4952
  326MOL0     C42929   2.487   9.669   0.471 -2.1526 -0.2124 -0.0736
  326MOL0     O42930   2.500   9.654   0.335  0.3719  0.3683 -0.3592
  326MOL0     C42931   2.419   9.737   0.259  0.0340 -0.1655 -0.4731
  326MOL0     C42932   2.282   9.724   0.233 -0.3800  0.0302 -0.1771
  326MOL0     C42933   2.227   9.822   0.148 -0.2419 -0.5902  0.0472
  326MOL0     C42934   2.295   9.932   0.106  0.2175  0.4174  1.5364
  326MOL0     O42935   2.249  10.027   0.016  0.6401  0.7778  1.1661
  326MOL0     C42936   2.114  10.065   0.033  0.3092  0.1123 -0.2755
  326MOL0     C42937   2.085  10.153  -0.094 -0.7354  0.4048 -0.7285
  326MOL0     C42938   1.953  10.224  -0.083 -0.5418  0.0089 -0.7397
  326MOL0     C42939   1.827  10.146  -0.060 -0.4624 -0.1353 -0.3749
  326MOL0     C42940   1.705  10.220  -0.109 -0.5916  1.1768  0.3617
  326MOL0     C42941   1.585  10.119  -0.089 -0.6939  0.6254  0.3329
  326MOL0     C42942   1.454  10.176  -0.143 -1.1044 -0.2474  0.8211
  326MOL0     C42943   1.339  10.084  -0.103 -0.2105 -0.3175  0.4753
  326MOL0    Cl42944   1.370   9.915  -0.128  0.3308  0.1437  0.2842
  326MOL0     C42945   2.435   9.944   0.131 -0.6193  0.3670 -0.1272
  326MOL0     C42946   2.492   9.846   0.213 -0.4891 -0.3337 -0.3439
  326MOL0     O42947   2.409   9.735   0.533 -0.6511  0.0953 -0.0299
  326MOL0     C42948   2.673   9.494   0.496  0.3987  0.0080 -0.9075
  326MOL0     C42949   2.772   9.418   0.570  0.4770 -0.5726 -0.0846
  326MOL0     N42950   3.377   9.149   1.042  0.1181 -0.1311 -0.3473
  326MOL0     N42951   3.458   9.060   1.008 -0.0262 -0.1283  0.7735
  326MOL0     C42952   4.087   8.081   0.372  1.1593  0.0131  0.2776
  326MOL0     C42953   4.195   8.032   0.309  0.3099  0.3281 -0.2643
  326MOL0     C42954   4.683   7.983   0.258 -0.3839  0.5373 -1.0449
  326MOL0     C42955   4.661   7.851   0.212 -0.5236  0.6975  0.3015
  326MOL0     C42956   4.756   7.763   0.176  0.4841 -0.0270  0.2720
  326MOL0     C42957   4.895   7.814   0.180  0.2784  0.4616 -0.4661
  326MOL0     O42958   4.984   7.726   0.135 -0.7185 -0.0635  0.0723
  326MOL0     C42959   5.125   7.764   0.146 -0.4481  0.0916 -0.3044
  326MOL0     C42960   5.209   7.645   0.107 -0.2744 -1.0784 -0.6678
  326MOL0     C42961   5.209   7.542   0.213  0.4808 -0.4501 -0.2288
  326MOL0     C42962   5.279   7.413   0.181  0.4541  0.8490  0.8761
  326MOL0     C42963   5.423   7.440   0.144  0.7113 -0.0294 -1.1933
  326MOL0     C42964   5.539   7.475   0.126 -0.2253  1.1350  0.0914
  326MOL0     C42965   4.913   7.942   0.233  0.3794  0.1110  0.6750
  326MOL0     C42966   4.814   8.031   0.262 -0.1312 -0.1183 -0.1980
  326MOL0     H42967   4.431   8.166   0.521  0.6095 -0.2400 -1.1299
  326MOL0     H42968   4.243   8.244   0.624  1.0107  0.9621 -0.0434
  326MOL0     H42969   4.031   8.417   0.538 -1.7427  0.2721 -0.1727
  326MOL0     H42970   4.005   8.330   0.695 -0.1273  2.3507  0.3578
  326MOL0     H42971   3.762   8.308   0.635 -3.7149  1.6571 -2.1832
  326MOL0     H42972   3.800   8.405   0.493  2.4674  2.7601  0.8591
  326MOL0     H42973   3.892   8.575   0.680  1.1980 -1.5134  0.7582
  326MOL0     H42974   3.757   8.500   0.770 -1.2734  0.3866 -0.7705
  326MOL0     H42975   3.735   8.629   0.505  0.9346  1.7014  0.5951
  326MOL0     H42976   3.613   8.514   0.573 -0.0302 -0.7086  0.0770
  326MOL0     H42977   3.587   8.638   0.771 -0.6619  1.6182  0.5162
  326MOL0     H42978   3.538   8.735   0.625 -0.4883 -1.7022  0.3656
  326MOL0     H42979   3.750   8.872   0.629 -2.6021  0.8839 -1.3336
  326MOL0     H42980   3.776   8.790   0.794 -2.4542 -0.8948  2.6501
  326MOL0     H42981   3.536   8.972   0.714  0.2130 -1.0142 -0.4943
  326MOL0     H42982   3.528   8.861   0.855 -0.3221 -0.8339 -1.8924
  326MOL0     H42983   3.723   9.102   0.815 -2.3239  2.8539  0.0759
  326MOL0     H42984   3.706   8.992   0.952  1.1750  0.5269 -1.2983
  326MOL0     H42985   3.559   9.322   0.836  1.5617  0.3910  1.1532
  326MOL0     H42986   3.372   9.475   0.957  1.5711 -1.3572 -2.5907
  326MOL0     H42987   3.241   9.397   1.053 -1.0558  1.0411 -1.4552
  326MOL0     H42988   3.283   9.370   0.764  1.1137  0.0919  2.0547
  326MOL0     H42989   3.180   9.491   0.836  0.1092 -0.2905 -0.7460
  326MOL0     H42990   3.139   9.189   0.848 -0.5619  0.1625 -3.0662
  326MOL0     H42991   3.054   9.304   0.955 -1.3183  3.0858 -1.0527
  326MOL0     H42992   2.926   9.229   0.740  0.4179 -0.5022 -2.3020
  326MOL0     H42993   3.053   9.334   0.659 -1.1373 -1.7331 -1.5961
  326MOL0     H42994   2.771   9.620   0.847 -0.2809 -0.8766  0.3631
  326MOL0     H42995   2.574   9.723   0.723  0.6434  1.6106  0.4641
  326MOL0     H42996   2.218   9.645   0.271 -0.8749  0.8189  0.6767
  326MOL0     H42997   2.129   9.833   0.103 -0.2405  0.4961  0.2978
  326MOL0     H42998   2.111  10.122   0.126  0.4944 -0.0477 -0.1698
  326MOL0     H42999   2.031   9.993   0.033  1.0805 -0.8932 -2.9145
  326MOL0     H43000   2.087  10.090  -0.183 -2.1024  1.6986 -1.7342
  326MOL0     H43001   2.162  10.231  -0.091  0.7648 -1.0384  1.8785
  326MOL0     H43002   1.937  10.292  -0.167 -1.1591  0.9754  0.1354
  326MOL0     H43003   1.968  10.295  -0.001 -5.0160  0.6850 -0.2992
  326MOL0     H43004   1.833  10.058  -0.124  1.8210 -1.8634  1.9854
  326MOL0     H43005   1.829  10.111   0.044 -0.7134 -0.7833 -0.5803
  326MOL0     H43006   1.717  10.238  -0.216 -0.0130  1.5813  0.4877
  326MOL0     H43007   1.679  10.309  -0.050 -3.5296  2.6337 -2.8238
  326MOL0     H43008   1.573  10.088   0.016  0.9258 -1.8441 -0.1332
  326MOL0     H43009   1.611  10.031  -0.149 -1.7609  0.1056  0.6238
  326MOL0     H43010   1.440  10.270  -0.090  1.0677  1.1277 -0.8690
  326MOL0     H43011   1.463  10.182  -0.252 -2.8189 -1.2022  0.5962
  326MOL0     H43012   1.247  10.114  -0.154  0.0812  1.1039  0.7220
  326MOL0     H43013   1.323  10.104   0.004  2.1712  2.9942  0.3926
  326MOL0     H43014   2.496  10.029   0.101  1.6507 -0.9948  0.4100
  326MOL0     H43015   2.599   9.854   0.226 -0.3590 -1.3147 -0.7376
  326MOL0     H43016   2.654   9.461   0.394 -1.1780  1.0857 -0.9984
  326MOL0     H43017   2.835   9.339   0.530  1.2278  0.0666 -0.1902
  326MOL0     H43018   3.992   8.055   0.327  1.2079  0.6502 -0.2142
  326MOL0     H43019   4.176   7.960   0.230  0.4944  1.8904 -1.7996
  326MOL0     H43020   4.558   7.817   0.203  0.2871 -1.9381  0.2972
  326MOL0     H43021   4.726   7.659   0.178  2.5028 -0.6446  2.1666
  326MOL0     H43022   5.144   7.789   0.251  1.0504  2.3123 -1.0136
  326MOL0     H43023   5.149   7.855   0.089  0.8442 -1.4106 -2.2945
  326MOL0     H43024   5.180   7.601   0.011 -2.1265  1.3872 -1.3443
  326MOL0     H43025   5.314   7.672   0.097  0.2609 -1.6983  2.1962
  326MOL0     H43026   5.104   7.523   0.235  0.6504 -0.8067  0.2933
  326MOL0     H43027   5.268   7.571   0.301  0.4342 -2.3182  0.4662
  326MOL0     H43028   5.273   7.344   0.266 -0.7412  1.9729  1.7467
  326MOL0     H43029   5.228   7.366   0.097  3.5707 -0.9395 -0.2054
  326MOL0     H43030   5.639   7.500   0.097 -0.1495 -0.3301 -1.0155
  326MOL0     H43031   5.012   7.985   0.245  1.1308 -1.9242  2.5079
  326MOL0     H43032   4.831   8.135   0.285 -0.8991 -0.0860  0.2685
  327MOL0     O43033  10.461   4.953   9.279  0.3301  0.1120  0.1679
  327MOL0     C43034  10.523   4.902   9.185 -0.3847  0.8075 -0.7038
  327MOL0     O43035  10.460   4.812   9.096  0.6790 -0.2544 -0.4415
  327MOL0     C43036  10.329   4.830   9.065 -0.0882 -0.4803  0.8252
  327MOL0     C43037  10.243   4.721   9.054 -0.6974 -1.0888  0.7000
  327MOL0     C43038  10.104   4.738   9.022 -1.2414 -0.9996  0.2586
  327MOL0     C43039  10.047   4.860   8.992  0.4064 -0.9183  0.2171
  327MOL0     O43040   9.914   4.879   8.952 -0.4001  0.8842 -0.6364
  327MOL0     C43041   9.819   4.770   8.972 -0.6743 -0.2849 -0.4076
  327MOL0     C43042   9.675   4.821   8.972  0.0350  0.0933  1.1028
  327MOL0     C43043   9.571   4.703   8.990  0.3014 -0.4812 -0.1995
  327MOL0     C43044   9.420   4.751   9.007 -0.4901  0.2498 -0.1735
  327MOL0     C43045   9.318   4.635   9.041  0.0144 -0.8853 -0.8202
  327MOL0     C43046   9.179   4.679   9.069 -0.0752  0.5407  0.1546
  327MOL0     C43047   9.119   4.740   8.939 -0.3317  0.4493 -0.3583
  327MOL0     C43048   8.981   4.810   8.957  0.5069 -0.3356 -0.0679
  327MOL0     N43049   8.869   4.718   8.951  0.8221  0.5948  0.4975
  327MOL0     C43050   8.809   4.659   8.836 -0.1465 -0.8267 -0.9407
  327MOL0     C43051   8.721   4.571   8.882  0.8062 -0.2496 -0.3881
  327MOL0     C43052   8.618   4.501   8.804 -0.0496  0.2532  0.3872
  327MOL0     C43053   8.489   4.493   8.869  0.7316 -0.7330  0.1827
  327MOL0     C43054   8.409   4.627   8.872  0.2951  0.1228  0.4230
  327MOL0     C43055   8.267   4.596   8.915  1.4436  0.0943 -0.4461
  327MOL0     O43056   8.191   4.531   8.819 -0.1108  1.1776  0.4397
  327MOL0     C43057   8.060   4.498   8.866 -0.3359 -0.2965  0.4239
  327MOL0     C43058   7.990   4.396   8.801  0.1402 -0.0040 -0.3091
  327MOL0     C43059   7.866   4.349   8.845  0.6921  0.6247 -1.2337
  327MOL0     C43060   7.805   4.402   8.953  0.3223 -0.0691 -0.2713
  327MOL0     C43061   7.659   4.372   8.994 -0.3343 -0.0510  0.0724
  327MOL0     O43062   7.614   4.268   8.915  0.3652 -0.1841  0.1137
  327MOL0     C43063   7.485   4.213   8.932 -0.8428 -0.1061 -0.8049
  327MOL0     C43064   7.463   4.084   8.871  0.5632  0.0416 -0.4365
  327MOL0     C43065   7.342   4.025   8.862 -0.5911 -0.1775  0.0382
  327MOL0     C43066   7.227   4.097   8.915  0.3434 -0.3244 -1.2066
  327MOL0     O43067   7.105   4.043   8.893  0.2595  0.1164 -0.0497
  327MOL0     C43068   7.008   4.130   8.834  0.0928 -0.6726 -0.2384
  327MOL0     C43069   7.019   4.112   8.689 -0.3335  0.7564  0.4450
  327MOL0     C43070   6.924   4.192   8.598  0.6472 -0.4343  0.0381
  327MOL0     C43071   6.863   4.132   8.471  0.2406  0.2082  0.3212
  327MOL0     C43072   6.963   4.123   8.352  0.4972 -0.0727  0.4817
  327MOL0     C43073   6.900   4.052   8.230  0.7775  0.3467  0.0151
  327MOL0     C43074   6.869   3.902   8.237  0.1607 -0.0872  0.1442
  327MOL0     C43075   6.796   3.853   8.110 -0.2589  0.2050  0.9951
  327MOL0    Cl43076   6.652   3.946   8.084  0.1881  0.1042  0.0259
  327MOL0     C43077   7.253   4.211   8.990  0.9644  0.4144  0.1315
  327MOL0     C43078   7.376   4.266   8.990  0.2907 -0.6418 -0.0289
  327MOL0     O43079   7.604   4.425   9.093  0.2707  0.1286 -0.1360
  327MOL0     C43080   7.874   4.500   9.028 -0.9994  0.4948  0.3854
  327MOL0     C43081   7.998   4.555   8.987 -0.1945  1.7446  0.7035
  327MOL0     N43082   8.726   4.589   9.022  0.1848  1.0354  0.4449
  327MOL0     N43083   8.810   4.666   9.064 -0.4753  0.5266 -0.5683
  327MOL0     C43084  10.139   4.963   9.008 -0.2011 -0.1078 -0.1945
  327MOL0     C43085  10.271   4.952   9.037 -0.4493 -0.2339 -0.1026
  327MOL0     C43086  10.674   4.893   9.199 -0.3177 -0.5484  0.7612
  327MOL0     C43087  10.737   4.962   9.299 -0.1343  0.4949  0.1255
  327MOL0     C43088  10.872   4.963   9.324 -0.0282 -0.7570  0.2726
  327MOL0     C43089  10.957   4.880   9.245 -0.5904  0.0858 -0.1329
  327MOL0     O43090  11.090   4.894   9.228  0.1133  0.4033 -0.4250
  327MOL0     C43091  11.164   4.893   9.359  0.7453 -0.4167  0.0813
  327MOL0     C43092  11.304   4.855   9.330  0.3293  0.6337 -0.7417
  327MOL0     C43093  11.373   4.781   9.456 -0.1863  0.1642  1.4337
  327MOL0     C43094  11.499   4.708   9.411 -0.9894  0.8052  0.2471
  327MOL0     C43095  11.583   4.655   9.516 -0.2932  0.1279 -0.4251
  327MOL0     C43096  11.657   4.616   9.606  0.1821  1.3130  1.0325
  327MOL0     C43097  10.898   4.810   9.148  1.2963 -0.2444  0.1954
  327MOL0     C43098  10.759   4.813   9.120  0.0116  0.5678 -0.2643
  327MOL0     H43099  10.276   4.620   9.079 -1.1095 -1.2417  0.6397
  327MOL0     H43100  10.039   4.651   9.023 -0.1338 -1.9219 -1.7586
  327MOL0     H43101   9.836   4.722   9.069 -0.8380  1.7400  0.6785
  327MOL0     H43102   9.824   4.707   8.882 -0.9980  2.9956 -2.9069
  327MOL0     H43103   9.654   4.865   8.874 -0.8114  0.5066  1.4549
  327MOL0     H43104   9.669   4.907   9.038  2.1569  1.0463  0.1467
  327MOL0     H43105   9.603   4.660   9.085  0.3020  0.3337  0.1772
  327MOL0     H43106   9.576   4.622   8.917 -4.2543 -2.6656  1.5473
  327MOL0     H43107   9.401   4.820   9.091 -5.3406  0.6185 -1.2449
  327MOL0     H43108   9.402   4.791   8.907  3.2731 -0.0645 -1.1036
  327MOL0     H43109   9.351   4.581   9.130  0.4733 -1.1312 -1.1386
  327MOL0     H43110   9.318   4.565   8.958  2.6064 -0.7329 -1.0012
  327MOL0     H43111   9.189   4.753   9.149  1.8044  0.0535  0.4311
  327MOL0     H43112   9.129   4.590   9.109  0.7345 -0.0125 -0.0275
  327MOL0     H43113   9.187   4.816   8.901  1.0546 -0.8784 -0.6382
  327MOL0     H43114   9.107   4.658   8.867  0.5137 -0.1857  0.2116
  327MOL0     H43115   8.980   4.888   8.880 -1.3184 -1.9329 -1.7550
  327MOL0     H43116   8.993   4.862   9.053  0.9384 -0.0179 -0.2925
  327MOL0     H43117   8.823   4.697   8.735  0.3706  0.3620 -0.4523
  327MOL0     H43118   8.648   4.396   8.808  1.3084  0.6131  5.1416
  327MOL0     H43119   8.605   4.540   8.702  1.5146  2.0708  0.8271
  327MOL0     H43120   8.504   4.472   8.975 -0.1598 -1.0146  0.2627
  327MOL0     H43121   8.424   4.417   8.823 -0.3997  1.5134 -2.1644
  327MOL0     H43122   8.458   4.704   8.933  0.4580  0.0386  0.4011
  327MOL0     H43123   8.404   4.667   8.770 -0.4940 -0.9516  0.0252
  327MOL0     H43124   8.213   4.690   8.931 -2.5163 -1.9333 -0.7078
  327MOL0     H43125   8.258   4.536   9.006  1.1723  0.2456 -0.3727
  327MOL0     H43126   8.036   4.352   8.713  0.6275  0.4673 -0.2973
  327MOL0     H43127   7.805   4.272   8.799 -1.0336  1.1121  0.1417
  327MOL0     H43128   7.548   4.029   8.831  2.0526  1.8372  0.1124
  327MOL0     H43129   7.339   3.931   8.808  1.7721  0.5298 -1.5029
  327MOL0     H43130   7.011   4.234   8.870 -2.4001 -0.9521  0.9478
  327MOL0     H43131   6.904   4.114   8.861  0.2529  0.0927  0.9196
  327MOL0     H43132   6.983   4.009   8.680  2.2529 -0.3500  1.9111
  327MOL0     H43133   7.120   4.142   8.660 -0.5547  0.8895 -0.2112
  327MOL0     H43134   6.972   4.284   8.562 -0.1908  1.0115  2.3703
  327MOL0     H43135   6.840   4.232   8.655  1.3241  1.6244 -0.3152
  327MOL0     H43136   6.814   4.035   8.480 -1.3901  1.0429  0.8374
  327MOL0     H43137   6.780   4.195   8.437 -0.1828 -0.6759 -0.3288
  327MOL0     H43138   7.050   4.064   8.382  1.0476  0.4543 -0.0533
  327MOL0     H43139   7.002   4.220   8.321 -3.0126  0.6732 -2.2054
  327MOL0     H43140   6.955   4.085   8.142 -0.0988 -0.0127 -0.6761
  327MOL0     H43141   6.802   4.099   8.221  1.4203  1.4963 -1.2413
  327MOL0     H43142   6.965   3.849   8.250 -2.4004 -5.1531  0.9901
  327MOL0     H43143   6.805   3.878   8.322 -2.4460  1.6718 -1.1971
  327MOL0     H43144   6.770   3.747   8.113  1.6649 -0.2985  0.7059
  327MOL0     H43145   6.863   3.866   8.024  0.4815 -2.4885  1.0845
  327MOL0     H43146   7.173   4.256   9.048  2.8071  2.3712  1.2611
  327MOL0     H43147   7.378   4.363   9.039 -2.4173 -0.3033 -0.4182
  327MOL0     H43148   7.831   4.538   9.120  0.0083  3.8610 -0.3872
  327MOL0     H43149   8.047   4.636   9.041  4.0469 -0.0589 -0.0715
  327MOL0     H43150  10.130   5.068   8.981  2.0614  1.0741  3.0596
  327MOL0     H43151  10.344   5.032   9.039  3.7511 -3.7335  0.9316
  327MOL0     H43152  10.671   5.015   9.367 -0.6729 -0.4450  0.3525
  327MOL0     H43153  10.910   5.031   9.399 -3.0319  1.9048 -0.4148
  327MOL0     H43154  11.105   4.828   9.425 -1.4790  1.4756  0.0857
  327MOL0     H43155  11.162   4.992   9.406  2.1760 -0.5234  0.4110
  327MOL0     H43156  11.302   4.771   9.260 -2.1326  1.7313 -2.0973
  327MOL0     H43157  11.365   4.940   9.297  0.8454  1.8812  2.9556
  327MOL0     H43158  11.309   4.700   9.493  0.0503 -1.5631 -1.5704
  327MOL0     H43159  11.394   4.857   9.531 -3.1606  1.3023  1.2641
  327MOL0     H43160  11.464   4.616   9.363 -0.0485 -1.1076  2.9726
  327MOL0     H43161  11.562   4.767   9.343 -1.9751  1.9496  0.3018
  327MOL0     H43162  11.709   4.578   9.692 -2.3450 -2.6680  1.0114
  327MOL0     H43163  10.960   4.745   9.087  3.9236  2.6998 -0.5349
  327MOL0     H43164  10.731   4.766   9.027  0.1007  2.8757 -1.5344
  328MOL0     O43165  11.131   0.369   5.438 -0.4204 -0.4125  0.0745
  328MOL0     C43166  11.043   0.399   5.527  0.0317  0.3314  0.8410
  328MOL0     O43167  11.073   0.421   5.659  1.1577 -0.1408  0.1212
  328MOL0     C43168  11.200   0.444   5.704 -0.4362 -0.7020  0.4436
  328MOL0     C43169  11.247   0.562   5.766  0.2689 -0.0018  0.5934
  328MOL0     C43170  11.380   0.571   5.815 -0.0568  0.1987  0.7464
  328MOL0     C43171  11.463   0.458   5.807 -0.0730 -0.6133  0.0233
  328MOL0     O43172  11.581   0.463   5.881 -1.0008  0.9064  0.5972
  328MOL0     C43173  11.693   0.515   5.807  0.5500  0.0693 -1.0536
  328MOL0     C43174  11.830   0.458   5.838 -0.1819  0.1253  0.3999
  328MOL0     C43175  11.870   0.474   5.980 -0.8236  0.1034 -0.4723
  328MOL0     C43176  11.911   0.622   6.012  0.3295  0.7985 -0.5855
  328MOL0     C43177  11.980   0.630   6.156  0.3447  0.0572  0.6017
  328MOL0     C43178  11.991   0.774   6.208 -0.1833 -0.2924 -0.1724
  328MOL0     C43179  12.051   0.780   6.349 -0.5697 -0.2555  0.0579
  328MOL0     C43180  12.072   0.919   6.408  0.8828 -0.7006  0.6217
  328MOL0     N43181  11.952   0.977   6.470 -0.0080  0.1712 -0.8679
  328MOL0     C43182  11.829   0.922   6.489  0.0234  0.6696  0.3105
  328MOL0     C43183  11.753   1.033   6.520 -0.7377  0.2420 -0.9781
  328MOL0     C43184  11.606   1.033   6.550  0.0562 -0.4396 -0.2608
  328MOL0     C43185  11.581   1.074   6.697 -0.4510 -0.2738 -0.5842
  328MOL0     C43186  11.430   1.096   6.726 -1.1936 -0.5576 -0.2077
  328MOL0     C43187  11.336   0.984   6.738  0.4499  0.0976 -0.3591
  328MOL0     O43188  11.287   0.945   6.609  0.6363  0.4870  0.1369
  328MOL0     C43189  11.154   0.940   6.575  0.6820  0.1771 -0.4302
  328MOL0     C43190  11.042   0.992   6.650  0.4104 -0.1323 -0.0441
  328MOL0     C43191  10.909   0.975   6.600 -0.6069 -0.2381  0.9899
  328MOL0     C43192  10.886   0.901   6.485  0.2182 -0.3718 -0.5218
  328MOL0     C43193  10.751   0.873   6.438  0.0054 -0.0211  0.1616
  328MOL0     O43194  10.742   0.819   6.310  0.4533 -0.3352  0.1205
  328MOL0     C43195  10.637   0.745   6.271 -0.3408 -0.4305 -0.9321
  328MOL0     C43196  10.509   0.801   6.271  0.2566  0.3118 -0.2768
  328MOL0     C43197  10.397   0.729   6.234  0.4972 -0.0535  0.0746
  328MOL0     C43198  10.414   0.593   6.191 -0.0171  0.9315 -0.2460
  328MOL0     O43199  10.295   0.519   6.177  0.7903 -0.5647  0.3816
  328MOL0     C43200  10.294   0.381   6.134 -0.3143 -0.8568 -0.2543
  328MOL0     C43201  10.310   0.356   5.985  0.0975  0.2298  0.2575
  328MOL0     C43202  10.219   0.450   5.910  0.0499 -0.7593 -0.4751
  328MOL0     C43203  10.229   0.418   5.760  0.1018  0.8322 -0.4332
  328MOL0     C43204  10.162   0.526   5.676 -0.5872 -0.3178 -0.1454
  328MOL0     C43205  10.028   0.569   5.723  0.1031  0.7262  0.0150
  328MOL0     C43206   9.912   0.470   5.711 -0.1662 -0.1672 -0.8577
  328MOL0     C43207   9.776   0.538   5.689 -0.2759  0.8505 -0.8926
  328MOL0    Cl43208   9.650   0.406   5.700 -0.1823 -0.2313  0.0978
  328MOL0     C43209  10.543   0.540   6.177  0.6630  0.6746  0.2264
  328MOL0     C43210  10.652   0.617   6.220 -0.0090  0.3168  0.5488
  328MOL0     O43211  10.658   0.896   6.515  0.1472  0.1930  0.3382
  328MOL0     C43212  10.991   0.854   6.410  0.5711 -0.3836  0.1805
  328MOL0     C43213  11.121   0.879   6.450  0.8170 -0.2228  0.3321
  328MOL0     N43214  11.830   1.145   6.520  0.1376 -0.5152 -0.2212
  328MOL0     N43215  11.955   1.109   6.504 -0.1327  0.2476  0.3644
  328MOL0     C43216  11.407   0.342   5.744  0.0471  0.0799 -0.3759
  328MOL0     C43217  11.283   0.335   5.686 -0.8664  0.1296  0.1404
  328MOL0     C43218  10.907   0.408   5.470 -0.0629  1.0067 -0.6081
  328MOL0     C43219  10.883   0.371   5.336 -0.8138  0.5915 -0.3794
  328MOL0     C43220  10.757   0.381   5.286  0.4786  0.2222 -0.2140
  328MOL0     C43221  10.652   0.420   5.365  0.1217 -0.3019 -1.2054
  328MOL0     O43222  10.529   0.444   5.309  0.2272 -0.0809 -0.3801
  328MOL0     C43223  10.456   0.567   5.346 -0.3393 -0.0389  0.7144
  328MOL0     C43224  10.336   0.576   5.242 -0.6398  0.2284  0.2179
  328MOL0     C43225  10.254   0.700   5.274  0.1090  0.5116  0.5195
  328MOL0     C43226  10.106   0.694   5.217  0.3847 -0.3118 -0.8307
  328MOL0     C43227  10.016   0.607   5.294  0.2142 -0.5563 -0.6762
  328MOL0     C43228   9.942   0.532   5.355  0.4400 -0.1258  0.1825
  328MOL0     C43229  10.679   0.460   5.498  0.6531  0.3871  0.2326
  328MOL0     C43230  10.804   0.446   5.554  0.6957 -0.1570  0.6840
  328MOL0     H43231  11.186   0.650   5.783 -0.0821  0.0715 -0.9453
  328MOL0     H43232  11.419   0.665   5.854  2.0573  0.2470 -1.2543
  328MOL0     H43233  11.682   0.624   5.813  0.7458  0.0394 -0.0497
  328MOL0     H43234  11.683   0.497   5.699 -1.7101  0.1793 -0.9046
  328MOL0     H43235  11.907   0.505   5.776  0.5751 -0.2403  1.0504
  328MOL0     H43236  11.828   0.351   5.819  2.1140  0.1493 -0.2572
  328MOL0     H43237  11.952   0.408   6.010  2.1576  3.2294 -1.1468
  328MOL0     H43238  11.784   0.443   6.041 -0.1890 -1.2353 -0.2089
  328MOL0     H43239  11.984   0.655   5.938  0.8223 -0.4881 -0.6847
  328MOL0     H43240  11.827   0.692   6.017  1.6255  2.3163  1.5829
  328MOL0     H43241  12.076   0.577   6.149  0.7071  0.7102  0.5176
  328MOL0     H43242  11.918   0.585   6.234 -2.5813  2.8072  0.0345
  328MOL0     H43243  11.892   0.821   6.206  1.4808  3.6039 -3.0419
  328MOL0     H43244  12.046   0.840   6.141  0.0304 -1.5870 -1.3322
  328MOL0     H43245  11.995   0.723   6.424 -0.4565 -1.3013 -0.6366
  328MOL0     H43246  12.155   0.749   6.335  0.4243  2.5058  0.6424
  328MOL0     H43247  12.103   0.982   6.324 -0.2691  1.0315  1.4394
  328MOL0     H43248  12.144   0.932   6.490  1.0815 -0.4155  0.4031
  328MOL0     H43249  11.786   0.823   6.481 -0.3266  0.9550 -4.0859
  328MOL0     H43250  11.564   0.932   6.545  1.6971 -1.1030 -1.1593
  328MOL0     H43251  11.566   1.098   6.472  0.4766  0.1338  0.0030
  328MOL0     H43252  11.634   1.167   6.719 -0.0667 -0.7446  0.5713
  328MOL0     H43253  11.618   1.003   6.771  0.8262  0.4839 -0.4668
  328MOL0     H43254  11.423   1.155   6.817  1.1658 -1.4204  0.6189
  328MOL0     H43255  11.401   1.162   6.643 -2.7983 -2.7661 -1.5143
  328MOL0     H43256  11.250   0.989   6.805 -1.2394 -2.2126 -2.1912
  328MOL0     H43257  11.394   0.902   6.781  1.4637  2.0370  2.2426
  328MOL0     H43258  11.053   1.064   6.730  0.2802 -0.2314  0.0643
  328MOL0     H43259  10.827   0.999   6.667 -0.2683 -0.9369  1.6649
  328MOL0     H43260  10.508   0.905   6.303  0.5449  0.6396 -1.2974
  328MOL0     H43261  10.295   0.766   6.236 -0.4460 -2.4607  2.6339
  328MOL0     H43262  10.197   0.346   6.170 -0.6935  0.4549  0.0502
  328MOL0     H43263  10.369   0.323   6.188  1.2828  0.3077 -1.1459
  328MOL0     H43264  10.271   0.256   5.965  1.6314 -0.2358 -0.5042
  328MOL0     H43265  10.412   0.356   5.947 -0.3738 -1.9682 -1.1610
  328MOL0     H43266  10.246   0.550   5.945 -0.3603 -1.3599  1.7116
  328MOL0     H43267  10.119   0.435   5.951 -0.4112 -1.9149 -1.9581
  328MOL0     H43268  10.334   0.408   5.731 -0.3401 -1.8216 -1.3715
  328MOL0     H43269  10.184   0.319   5.746  0.7661  0.6863 -1.6428
  328MOL0     H43270  10.156   0.493   5.572 -0.9405  2.0438 -0.9238
  328MOL0     H43271  10.227   0.612   5.667 -2.2134  1.0562  0.5795
  328MOL0     H43272  10.006   0.659   5.664 -4.0292 -1.7853 -2.7637
  328MOL0     H43273  10.031   0.609   5.824 -0.0151 -2.0827  1.2106
  328MOL0     H43274   9.936   0.396   5.634  0.5938 -5.2270  3.6480
  328MOL0     H43275   9.919   0.409   5.801  2.2052  3.2567  1.5873
  328MOL0     H43276   9.770   0.576   5.587  0.3654  3.2470 -0.0989
  328MOL0     H43277   9.761   0.613   5.767  1.4602 -0.7941  1.1730
  328MOL0     H43278  10.563   0.447   6.124  2.5501  0.5998  0.9758
  328MOL0     H43279  10.749   0.572   6.205  0.2477  2.0217 -5.0510
  328MOL0     H43280  10.966   0.798   6.320  1.5806 -2.4658  1.1373
  328MOL0     H43281  11.205   0.851   6.388 -0.0717 -2.0827 -0.1217
  328MOL0     H43282  11.465   0.252   5.759 -0.7905 -0.5688 -0.9664
  328MOL0     H43283  11.253   0.250   5.625 -1.6915  1.1951 -0.9917
  328MOL0     H43284  10.960   0.334   5.269  0.1553  2.4621 -0.3560
  328MOL0     H43285  10.736   0.348   5.184  1.0702  2.7340 -1.2313
  328MOL0     H43286  10.514   0.660   5.338 -1.2378  0.5403  0.7739
  328MOL0     H43287  10.411   0.572   5.446 -0.0319  2.0465  0.7981
  328MOL0     H43288  10.360   0.568   5.135  1.6927 -1.2983  0.7742
  328MOL0     H43289  10.277   0.485   5.258 -1.9545  1.0191  0.0045
  328MOL0     H43290  10.302   0.785   5.225 -0.4180  0.1687 -0.6193
  328MOL0     H43291  10.243   0.725   5.380  1.8134  0.7210  0.6671
  328MOL0     H43292  10.065   0.795   5.209  1.7386  0.2921 -0.3728
  328MOL0     H43293  10.110   0.664   5.112 -0.1994 -2.6645 -0.2385
  328MOL0     H43294   9.880   0.457   5.399  1.3601  0.2664  2.2948
  328MOL0     H43295  10.598   0.484   5.566  1.0772  3.1011 -0.0881
  328MOL0     H43296  10.819   0.478   5.657 -2.2518  4.1188  0.0329
  329MOL0     O43297   2.288   6.672   1.875  0.1708  0.1919 -0.1746
  329MOL0     C43298   2.358   6.770   1.890  0.4981  0.4470  0.1893
  329MOL0     O43299   2.312   6.897   1.919  0.5546  0.9559 -0.3818
  329MOL0     C43300   2.177   6.925   1.942 -0.0074 -0.1054  0.0294
  329MOL0     C43301   2.142   7.060   1.936 -0.1777  0.1952  0.9700
  329MOL0     C43302   2.008   7.106   1.954  0.7387 -0.1068  0.5466
  329MOL0     C43303   1.917   7.008   1.988  0.2300 -0.8159  0.1393
  329MOL0     O43304   1.787   7.047   2.023 -0.2627 -0.4927 -0.0673
  329MOL0     C43305   1.785   7.066   2.168 -0.0449  0.5160  0.2267
  329MOL0     C43306   1.730   6.950   2.244  0.0490 -0.5211  0.3018
  329MOL0     C43307   1.580   6.939   2.215  0.6369 -0.1806 -0.1127
  329MOL0     C43308   1.513   6.845   2.323  0.4839  0.1001 -0.4962
  329MOL0     C43309   1.354   6.839   2.300  0.4473  0.4731 -0.1053
  329MOL0     C43310   1.282   6.745   2.395  0.6959  0.7161  0.0865
  329MOL0     C43311   1.123   6.751   2.389 -1.5171 -0.4516  0.2530
  329MOL0     C43312   1.066   6.616   2.440  0.2412 -0.6033  1.4229
  329MOL0     N43313   0.924   6.590   2.390 -0.5248  0.0154 -0.2881
  329MOL0     C43314   0.821   6.681   2.387 -0.8012  0.2000 -0.0264
  329MOL0     C43315   0.721   6.612   2.334  0.1473 -0.8319 -0.4277
  329MOL0     C43316   0.584   6.667   2.334 -0.1425  0.1741 -0.5863
  329MOL0     C43317   0.521   6.671   2.476  0.3411 -0.4981 -0.8456
  329MOL0     C43318   0.387   6.743   2.478 -0.7497 -0.1327  0.2915
  329MOL0     C43319   0.292   6.709   2.596  0.8882 -0.5658 -0.7932
  329MOL0     O43320   0.370   6.671   2.707  0.4098 -0.0775  0.2738
  329MOL0     C43321   0.302   6.665   2.826 -0.1800  0.1272  0.7417
  329MOL0     C43322   0.169   6.677   2.854 -0.0622 -0.5280 -0.9722
  329MOL0     C43323   0.123   6.660   2.986 -0.5346 -0.7497 -0.1794
  329MOL0     C43324   0.211   6.635   3.091 -0.3889  0.0591 -0.1293
  329MOL0     C43325   0.166   6.627   3.230 -0.7943  0.9728 -0.6778
  329MOL0     O43326   0.038   6.602   3.258 -0.3689 -0.1104 -0.0590
  329MOL0     C43327  -0.025   6.619   3.377 -0.7119  0.4026 -0.0877
  329MOL0     C43328   0.017   6.717   3.473  0.2033 -0.1708  1.0197
  329MOL0     C43329  -0.068   6.742   3.587  0.6597 -0.4074  0.2030
  329MOL0     C43330  -0.181   6.660   3.608 -0.4926  0.5599  0.5422
  329MOL0     O43331  -0.259   6.692   3.714  0.1543  0.2049 -0.7586
  329MOL0     C43332  -0.359   6.589   3.746 -0.8245  0.3854  0.5737
  329MOL0     C43333  -0.465   6.652   3.840  0.1681  0.7924  0.4150
  329MOL0     C43334  -0.585   6.568   3.854  0.9467  0.3221  0.1675
  329MOL0     C43335  -0.708   6.637   3.930  0.2328  0.9798 -0.0002
  329MOL0     C43336  -0.828   6.549   3.929  0.2141  0.2760  0.0474
  329MOL0     C43337  -0.940   6.640   3.987  0.9149 -0.2530 -0.5494
  329MOL0     C43338  -1.063   6.570   4.019  0.8077  0.6218 -0.9865
  329MOL0     C43339  -1.140   6.546   3.885  0.3033 -0.0019 -0.2637
  329MOL0    Cl43340  -1.300   6.466   3.925 -0.0354 -0.1880 -0.3956
  329MOL0     C43341  -0.213   6.566   3.507  0.0567 -1.3108 -0.3310
  329MOL0     C43342  -0.135   6.547   3.396 -0.0190 -0.3434  0.0353
  329MOL0     O43343   0.257   6.627   3.313  0.3162 -0.7256  0.0965
  329MOL0     C43344   0.346   6.634   3.057 -0.3401 -0.4291  0.0431
  329MOL0     C43345   0.392   6.646   2.923 -0.7279  0.5651  0.3940
  329MOL0     N43346   0.751   6.483   2.300 -0.2875 -0.1370  0.1122
  329MOL0     N43347   0.879   6.479   2.317 -1.2850 -0.0619  0.5681
  329MOL0     C43348   1.945   6.867   1.994 -0.3162 -0.6875  0.1152
  329MOL0     C43349   2.078   6.826   1.973  0.5248 -0.5761  0.0111
  329MOL0     C43350   2.502   6.753   1.901  0.5658 -0.0056  0.6583
  329MOL0     C43351   2.555   6.626   1.925  1.4698 -0.6545  0.1340
  329MOL0     C43352   2.690   6.606   1.907 -0.3652 -0.4152  0.0063
  329MOL0     C43353   2.777   6.706   1.888  0.8643 -1.4322  0.2943
  329MOL0     O43354   2.911   6.700   1.872 -0.1679 -0.0705  0.2856
  329MOL0     C43355   2.950   6.563   1.837  0.4920 -0.2194 -0.7652
  329MOL0     C43356   3.104   6.539   1.830 -0.5568  0.5817 -0.5206
  329MOL0     C43357   3.162   6.566   1.689  0.5302 -0.1914 -0.0720
  329MOL0     C43358   3.317   6.548   1.682  0.0413 -0.0254  0.7379
  329MOL0     C43359   3.379   6.646   1.774  0.7422  0.4604 -0.5994
  329MOL0     C43360   3.412   6.735   1.849 -0.2414 -1.0180  0.0670
  329MOL0     C43361   2.721   6.838   1.881  0.0484  0.9133 -0.1964
  329MOL0     C43362   2.589   6.869   1.898 -0.2317 -0.4497  0.0815
  329MOL0     H43363   2.223   7.125   1.905 -1.4660  0.6195 -1.8960
  329MOL0     H43364   1.987   7.212   1.945 -0.3070 -0.4831 -5.3740
  329MOL0     H43365   1.722   7.155   2.181 -2.2021 -0.3199 -3.2636
  329MOL0     H43366   1.880   7.087   2.217 -0.5803 -0.5485  1.7975
  329MOL0     H43367   1.743   6.968   2.351  2.4508 -2.2734  0.3912
  329MOL0     H43368   1.780   6.857   2.215 -1.0320 -1.1314  0.3570
  329MOL0     H43369   1.569   6.902   2.112  0.7809 -0.0713 -0.1685
  329MOL0     H43370   1.535   7.038   2.229  2.4035  0.7597 -0.8193
  329MOL0     H43371   1.554   6.743   2.325 -1.3376 -0.7089  2.4117
  329MOL0     H43372   1.530   6.888   2.422 -1.0473 -0.3228 -0.0204
  329MOL0     H43373   1.335   6.806   2.197 -1.9530 -0.1183  0.4594
  329MOL0     H43374   1.310   6.938   2.314 -0.4148  0.1673 -0.5870
  329MOL0     H43375   1.302   6.778   2.497  2.0725  5.0720 -1.3656
  329MOL0     H43376   1.314   6.641   2.389  0.6008  0.6252  1.1015
  329MOL0     H43377   1.099   6.834   2.456  0.9057  0.4571  0.0936
  329MOL0     H43378   1.081   6.760   2.289 -1.7620 -3.1583  0.0422
  329MOL0     H43379   1.080   6.616   2.548  2.5629  2.0184  1.2515
  329MOL0     H43380   1.123   6.532   2.399 -0.0036  0.7909 -2.2078
  329MOL0     H43381   0.820   6.784   2.420 -2.7790 -0.1510  1.1754
  329MOL0     H43382   0.519   6.607   2.270  0.5541 -0.4791 -0.6919
  329MOL0     H43383   0.584   6.764   2.283 -0.6850  0.8256  0.6090
  329MOL0     H43384   0.577   6.726   2.552 -1.0978 -0.3832  0.1615
  329MOL0     H43385   0.510   6.567   2.505 -0.4848 -0.1309  0.2289
  329MOL0     H43386   0.417   6.847   2.463  2.3432 -1.1190 -1.2758
  329MOL0     H43387   0.339   6.714   2.384 -0.8927  0.7477  0.0803
  329MOL0     H43388   0.231   6.628   2.555  0.0115  1.7760 -4.6374
  329MOL0     H43389   0.234   6.800   2.614  0.6701 -0.2386 -2.8804
  329MOL0     H43390   0.094   6.707   2.781  0.5193  1.5589 -0.7575
  329MOL0     H43391   0.019   6.675   3.013  0.3185 -0.0742  3.1073
  329MOL0     H43392   0.101   6.785   3.464 -0.0132  0.0245  0.4073
  329MOL0     H43393  -0.046   6.822   3.657  2.6833  1.5876 -2.5200
  329MOL0     H43394  -0.312   6.500   3.789  1.1725  0.7759 -0.7003
  329MOL0     H43395  -0.414   6.557   3.657 -0.2001 -0.7681  0.5796
  329MOL0     H43396  -0.506   6.744   3.798 -2.9448 -0.0043  1.4442
  329MOL0     H43397  -0.419   6.671   3.937  2.0511  2.4402 -0.7146
  329MOL0     H43398  -0.556   6.480   3.912 -1.1134  0.3857  1.4153
  329MOL0     H43399  -0.622   6.547   3.753 -1.5555  2.1441  0.5923
  329MOL0     H43400  -0.684   6.647   4.036  1.5878 -1.3989 -0.0047
  329MOL0     H43401  -0.725   6.740   3.898  0.7659  1.6319  1.6929
  329MOL0     H43402  -0.815   6.469   4.003  0.1310  0.7041  0.5296
  329MOL0     H43403  -0.858   6.503   3.834  0.7317 -2.2572  1.0203
  329MOL0     H43404  -0.967   6.724   3.923 -3.4044  0.1929  1.4888
  329MOL0     H43405  -0.907   6.682   4.083 -1.8105 -3.7199  2.1857
  329MOL0     H43406  -1.043   6.473   4.064 -0.6893  0.9631  0.5246
  329MOL0     H43407  -1.116   6.633   4.090  2.8076  0.2762  0.9304
  329MOL0     H43408  -1.090   6.483   3.811  1.0353 -0.4529  0.5866
  329MOL0     H43409  -1.167   6.639   3.835  0.8023 -0.3700 -1.2342
  329MOL0     H43410  -0.300   6.503   3.523 -1.0293  0.0855 -0.4855
  329MOL0     H43411  -0.168   6.467   3.331  1.3933 -0.8762 -0.0612
  329MOL0     H43412   0.414   6.631   3.141 -0.8118  1.3284  0.5199
  329MOL0     H43413   0.494   6.618   2.903 -0.2540  3.1032 -1.1533
  329MOL0     H43414   1.872   6.796   2.031 -2.0195  2.2860  2.9883
  329MOL0     H43415   2.103   6.721   1.985  5.0555  0.2606 -0.2413
  329MOL0     H43416   2.493   6.540   1.948 -1.3575  0.9483 -0.8970
  329MOL0     H43417   2.709   6.500   1.919 -1.6323 -0.5365  1.1881
  329MOL0     H43418   2.918   6.529   1.738  1.7344 -0.0812 -1.2332
  329MOL0     H43419   2.905   6.498   1.912  0.7051  3.6076  3.0911
  329MOL0     H43420   3.152   6.615   1.893 -0.6019  1.6615 -1.7460
  329MOL0     H43421   3.131   6.438   1.864  0.2534  1.6793  2.4721
  329MOL0     H43422   3.132   6.667   1.660  1.3200  0.1053  0.1221
  329MOL0     H43423   3.108   6.496   1.623 -0.5153 -1.0768  1.6521
  329MOL0     H43424   3.342   6.447   1.716 -0.0845 -0.8850 -1.4962
  329MOL0     H43425   3.358   6.577   1.585  2.1144 -2.6209  0.7431
  329MOL0     H43426   3.431   6.807   1.927 -2.1966 -1.7141  1.2712
  329MOL0     H43427   2.794   6.918   1.869  0.9741  0.3117  1.2146
  329MOL0     H43428   2.558   6.970   1.874  0.8825 -0.7161 -2.8466
  330MOL0     O43429   0.825   4.466   1.794 -0.2268 -0.7245 -0.6035
  330MOL0     C43430   0.793   4.354   1.817 -0.2377 -0.2781 -0.7037
  330MOL0     O43431   0.880   4.250   1.841  0.4051 -0.4266  0.7404
  330MOL0     C43432   1.013   4.276   1.821  0.7558 -0.8206 -0.1765
  330MOL0     C43433   1.070   4.215   1.708 -0.3623  0.0773  0.8229
  330MOL0     C43434   1.208   4.232   1.686 -0.2344 -0.3781 -0.5044
  330MOL0     C43435   1.286   4.299   1.779 -0.5168  0.2639  0.0008
  330MOL0     O43436   1.418   4.299   1.755 -0.0275 -0.4147  0.3404
  330MOL0     C43437   1.503   4.266   1.867  1.0486  0.1112  0.6093
  330MOL0     C43438   1.462   4.128   1.924  0.0708  0.8209  0.9758
  330MOL0     C43439   1.560   4.084   2.036 -0.1307 -0.2671 -0.5367
  330MOL0     C43440   1.699   4.071   1.976  0.5017 -0.3601 -0.1120
  330MOL0     C43441   1.791   4.034   2.091 -0.8194 -0.4814  0.2177
  330MOL0     C43442   1.940   4.019   2.047  1.4331 -0.2827 -0.5297
  330MOL0     C43443   2.034   3.972   2.155  0.2734  0.0570 -1.3424
  330MOL0     C43444   2.007   3.822   2.190 -0.2789  0.1984  0.0223
  330MOL0     N43445   2.117   3.776   2.266 -0.1925  0.3189 -0.4949
  330MOL0     C43446   2.237   3.729   2.217 -0.4858  1.1315 -0.4660
  330MOL0     C43447   2.307   3.691   2.333  0.4384 -1.0506  0.9171
  330MOL0     C43448   2.444   3.645   2.356  0.1981  0.3277 -0.3812
  330MOL0     C43449   2.531   3.631   2.237 -0.3019 -0.0406 -0.3340
  330MOL0     C43450   2.487   3.505   2.161 -0.3614 -0.9003  0.3555
  330MOL0     C43451   2.579   3.481   2.043  0.6454  0.5378 -0.7175
  330MOL0     O43452   2.557   3.580   1.944 -0.2911  0.4139 -0.2515
  330MOL0     C43453   2.430   3.597   1.891 -0.2202 -0.0061 -0.2486
  330MOL0     C43454   2.332   3.495   1.880 -0.4369 -0.6132  0.0762
  330MOL0     C43455   2.202   3.526   1.841 -0.2382  0.3903 -0.4363
  330MOL0     C43456   2.168   3.660   1.800 -0.1562  0.3493  0.8964
  330MOL0     C43457   2.027   3.689   1.753 -0.0021 -0.0237 -0.4854
  330MOL0     O43458   1.927   3.631   1.827 -0.4743  0.2291  0.1196
  330MOL0     C43459   1.795   3.636   1.788  0.6587  0.8109 -1.3446
  330MOL0     C43460   1.718   3.520   1.799  0.2582  1.1361 -0.3973
  330MOL0     C43461   1.587   3.524   1.746  0.4377 -0.7406  0.6171
  330MOL0     C43462   1.525   3.638   1.699 -0.4927 -0.3995  1.1879
  330MOL0     O43463   1.394   3.640   1.658  0.6550  0.3156 -0.2609
  330MOL0     C43464   1.326   3.523   1.614 -0.6782  1.1512  0.2454
  330MOL0     C43465   1.174   3.533   1.596 -0.0909  0.2479 -0.2775
  330MOL0     C43466   1.108   3.515   1.731  0.3997  0.0019 -0.3194
  330MOL0     C43467   0.953   3.518   1.733 -0.3790  0.0833 -0.2304
  330MOL0     C43468   0.896   3.411   1.643 -0.3458 -0.0598  0.1715
  330MOL0     C43469   0.748   3.434   1.621  0.2758 -0.5878  0.1187
  330MOL0     C43470   0.679   3.305   1.578  0.9645  0.2997  0.0272
  330MOL0     C43471   0.528   3.326   1.550 -0.6020 -0.2704 -0.4886
  330MOL0    Cl43472   0.445   3.176   1.586  0.7454 -0.1838  0.1785
  330MOL0     C43473   1.599   3.763   1.708 -0.2995  0.7427  0.7894
  330MOL0     C43474   1.731   3.756   1.757  0.0249 -0.7348  0.3161
  330MOL0     O43475   2.012   3.747   1.638  0.5218  0.1200  0.0458
  330MOL0     C43476   2.270   3.754   1.806  0.1582  0.1603 -0.3224
  330MOL0     C43477   2.398   3.728   1.850  0.3833  0.0335 -0.0251
  330MOL0     N43478   2.234   3.709   2.444  0.3836  0.3409 -0.9348
  330MOL0     N43479   2.120   3.756   2.401 -0.7238  0.6035 -0.6592
  330MOL0     C43480   1.233   4.357   1.889  0.8823  0.0479  0.0229
  330MOL0     C43481   1.090   4.355   1.913  0.4829  0.3050  1.3621
  330MOL0     C43482   0.651   4.315   1.805  0.0347 -0.7344  0.4030
  330MOL0     C43483   0.610   4.190   1.835  0.0221 -0.4912  0.4797
  330MOL0     C43484   0.481   4.148   1.809 -0.1121 -0.1454  0.0558
  330MOL0     C43485   0.380   4.236   1.754  0.7815 -0.9721 -0.2351
  330MOL0     O43486   0.245   4.192   1.741 -0.2804  0.4574  0.1714
  330MOL0     C43487   0.166   4.211   1.861 -0.1357  0.1175 -0.5036
  330MOL0     C43488   0.059   4.103   1.850  1.0325 -0.0760 -0.2385
  330MOL0     C43489   0.119   3.965   1.899  0.7067 -0.1749 -0.8597
  330MOL0     C43490   0.017   3.846   1.882 -1.1907 -0.8656  0.0293
  330MOL0     C43491  -0.103   3.869   1.963 -0.0798 -0.1856 -0.1361
  330MOL0     C43492  -0.198   3.874   2.040  0.1164  1.0640  0.4197
  330MOL0     C43493   0.423   4.373   1.739 -0.3908 -0.2686  0.3754
  330MOL0     C43494   0.555   4.409   1.758  0.4763 -0.8418 -0.6125
  330MOL0     H43495   1.013   4.154   1.638  0.8712  0.7334 -0.8402
  330MOL0     H43496   1.246   4.195   1.591 -4.6119 -1.6605 -1.9759
  330MOL0     H43497   1.494   4.341   1.947  2.9244 -1.1646  2.1255
  330MOL0     H43498   1.606   4.267   1.828  0.3636 -0.8441 -1.3476
  330MOL0     H43499   1.460   4.056   1.842  0.0134  0.4490  1.3034
  330MOL0     H43500   1.362   4.131   1.969  0.5878 -2.7942  2.7562
  330MOL0     H43501   1.520   4.000   2.094 -3.2602 -0.0565 -2.1335
  330MOL0     H43502   1.570   4.169   2.105  1.9293  0.1849 -1.3139
  330MOL0     H43503   1.716   4.011   1.886  0.9591 -0.4902  0.0580
  330MOL0     H43504   1.722   4.172   1.939 -0.0658 -0.8283 -1.8310
  330MOL0     H43505   1.762   3.936   2.128  1.5444 -0.4415  2.5305
  330MOL0     H43506   1.787   4.105   2.175 -3.3881 -1.5696  1.1142
  330MOL0     H43507   1.972   4.116   2.008  0.5813  0.3485  0.3058
  330MOL0     H43508   1.949   3.941   1.971  3.3789 -1.4734  0.8449
  330MOL0     H43509   2.137   3.986   2.122  1.3657  1.7080  2.2869
  330MOL0     H43510   2.018   4.029   2.247 -1.2208 -3.1683  0.5670
  330MOL0     H43511   1.998   3.769   2.094  1.7550  1.5790 -0.9977
  330MOL0     H43512   1.919   3.803   2.252 -1.0565  5.5080  1.0174
  330MOL0     H43513   2.279   3.739   2.117 -0.6349 -0.6087 -0.7398
  330MOL0     H43514   2.449   3.546   2.402 -1.1776 -1.5786 -3.9578
  330MOL0     H43515   2.488   3.714   2.429 -2.2541  0.5946  0.9556
  330MOL0     H43516   2.636   3.629   2.268  0.5316  2.6474 -2.5791
  330MOL0     H43517   2.526   3.719   2.172 -1.7078 -0.0846 -0.3276
  330MOL0     H43518   2.498   3.423   2.233 -1.3232 -0.7575  0.6769
  330MOL0     H43519   2.384   3.501   2.126  0.7951 -0.0411 -3.7356
  330MOL0     H43520   2.560   3.379   2.006  0.4085 -0.8101  2.7159
  330MOL0     H43521   2.684   3.483   2.074  0.2274  0.4294  0.7640
  330MOL0     H43522   2.353   3.394   1.914  0.0234 -1.3786 -2.2970
  330MOL0     H43523   2.130   3.445   1.835  2.0953 -1.7480 -1.8855
  330MOL0     H43524   1.760   3.426   1.835 -1.5504 -0.6534 -2.6301
  330MOL0     H43525   1.526   3.436   1.764  0.0557 -1.0232 -1.7328
  330MOL0     H43526   1.352   3.436   1.675 -0.1578  0.0099 -1.5216
  330MOL0     H43527   1.370   3.501   1.516  0.1342  2.0542  0.3916
  330MOL0     H43528   1.144   3.451   1.530 -1.1988 -1.5693  2.3044
  330MOL0     H43529   1.160   3.630   1.549  0.8876  2.1683  3.0541
  330MOL0     H43530   1.145   3.589   1.803  1.3298 -1.3041  0.6059
  330MOL0     H43531   1.142   3.420   1.774  1.8152  1.4745  2.0534
  330MOL0     H43532   0.921   3.489   1.834 -0.9745 -1.1570 -0.7532
  330MOL0     H43533   0.924   3.618   1.700  0.5300 -0.1816 -1.9144
  330MOL0     H43534   0.926   3.312   1.678  2.3183  1.0661  1.3055
  330MOL0     H43535   0.944   3.423   1.546 -0.3896  0.7020  0.2370
  330MOL0     H43536   0.732   3.512   1.546  1.6560 -1.9141 -1.6474
  330MOL0     H43537   0.702   3.470   1.713 -1.2876 -0.8685 -0.5199
  330MOL0     H43538   0.726   3.260   1.490 -0.5002 -0.2641 -0.5050
  330MOL0     H43539   0.679   3.237   1.664 -4.8690 -3.0255 -2.0213
  330MOL0     H43540   0.522   3.364   1.447  1.6009 -0.6544 -0.8034
  330MOL0     H43541   0.481   3.397   1.618 -2.7543 -1.8144 -0.2746
  330MOL0     H43542   1.549   3.854   1.677 -0.4422 -0.0251 -1.4389
  330MOL0     H43543   1.806   3.833   1.744  2.1639 -2.9317 -1.1248
  330MOL0     H43544   2.251   3.857   1.776  0.2289 -0.1122 -1.3396
  330MOL0     H43545   2.471   3.808   1.858  0.0112  0.2880  0.8885
  330MOL0     H43546   1.295   4.408   1.962 -0.4819 -0.2010  1.4229
  330MOL0     H43547   1.054   4.394   2.008  0.8816  0.6211  1.3835
  330MOL0     H43548   0.676   4.112   1.872  2.3163  0.3086 -1.6269
  330MOL0     H43549   0.456   4.043   1.813  2.4487 -0.7713  1.5117
  330MOL0     H43550   0.121   4.311   1.859  3.4042  1.8832 -0.4063
  330MOL0     H43551   0.225   4.193   1.951 -0.0281  1.4449 -0.2843
  330MOL0     H43552  -0.030   4.138   1.904 -0.3276 -1.0402 -1.7293
  330MOL0     H43553   0.024   4.095   1.746 -1.4821  0.3242  0.5109
  330MOL0     H43554   0.147   3.966   2.004  0.6247  0.3662 -0.8351
  330MOL0     H43555   0.204   3.946   1.832  0.3678 -0.0572 -1.3304
  330MOL0     H43556  -0.010   3.842   1.776  0.2884 -1.6313 -0.3462
  330MOL0     H43557   0.063   3.753   1.915  1.0323  0.6870  1.6597
  330MOL0     H43558  -0.278   3.880   2.111  0.5306  0.8524  0.9089
  330MOL0     H43559   0.357   4.456   1.715  0.1262  1.2735  3.7441
  330MOL0     H43560   0.574   4.515   1.750 -3.1175  0.3673  3.3646
  331MOL0     O43561   0.383   6.846   1.306  0.1190  0.4230 -0.6371
  331MOL0     C43562   0.465   6.823   1.216  0.1877  0.4813 -0.4134
  331MOL0     O43563   0.450   6.857   1.078 -0.2234 -0.1037 -0.3088
  331MOL0     C43564   0.324   6.836   1.034  0.7681  0.5139 -0.6023
  331MOL0     C43565   0.271   6.706   1.007  0.4318  0.8529  0.7381
  331MOL0     C43566   0.136   6.682   0.999 -0.6626 -0.8559  0.8793
  331MOL0     C43567   0.051   6.793   0.997  0.2748 -0.3104  0.1660
  331MOL0     O43568  -0.078   6.763   0.988  0.0191 -0.4370 -0.0071
  331MOL0     C43569  -0.175   6.862   1.014  0.1343 -1.1037  0.4248
  331MOL0     C43570  -0.307   6.784   1.033 -0.3386  0.5034  0.8470
  331MOL0     C43571  -0.431   6.879   1.029  0.6791  0.0456 -0.4953
  331MOL0     C43572  -0.466   6.919   0.882  0.7684 -0.9276 -0.7309
  331MOL0     C43573  -0.583   7.021   0.863 -0.2095 -0.4400 -0.3564
  331MOL0     C43574  -0.654   7.023   0.726  0.4340  0.7952 -0.0929
  331MOL0     C43575  -0.797   7.083   0.759  0.9140  0.8120  0.4374
  331MOL0     C43576  -0.904   7.092   0.650 -0.2107  0.1829  0.4426
  331MOL0     N43577  -1.037   7.144   0.703 -0.0190 -0.2800  0.3768
  331MOL0     C43578  -1.134   7.071   0.758 -0.2120  0.1602  0.2361
  331MOL0     C43579  -1.214   7.163   0.820 -0.4006  0.3628 -0.3800
  331MOL0     C43580  -1.351   7.131   0.885  0.0280  0.3816 -0.8347
  331MOL0     C43581  -1.362   7.033   1.003  0.6979 -0.1786  0.5491
  331MOL0     C43582  -1.354   7.096   1.148 -0.1478 -0.6646  0.7036
  331MOL0     C43583  -1.207   7.115   1.201 -1.4943 -0.1631  0.4768
  331MOL0     O43584  -1.127   6.996   1.178 -0.3024  0.2033  0.4418
  331MOL0     C43585  -0.996   6.999   1.225  0.4014 -0.4010 -0.8747
  331MOL0     C43586  -0.895   7.055   1.145  0.3084  0.8282 -0.6725
  331MOL0     C43587  -0.767   7.053   1.182 -0.9665  1.1530 -0.4851
  331MOL0     C43588  -0.728   7.003   1.315  0.4472  0.9758  0.3807
  331MOL0     C43589  -0.589   7.012   1.348  0.1388  0.3151  0.0429
  331MOL0     O43590  -0.548   6.937   1.457 -0.0641  0.0318  0.3583
  331MOL0     C43591  -0.413   6.937   1.487 -0.5362  0.2662 -1.3060
  331MOL0     C43592  -0.318   6.915   1.393  0.2364  0.3782 -0.1362
  331MOL0     C43593  -0.182   6.925   1.426 -0.6694  0.1585  0.4892
  331MOL0     C43594  -0.145   6.933   1.562  0.1784  0.0833 -0.4592
  331MOL0     O43595  -0.017   6.926   1.604 -0.7907 -0.2108  0.0860
  331MOL0     C43596   0.083   6.859   1.522 -0.1754 -0.1857  0.6624
  331MOL0     C43597   0.196   6.817   1.619  0.2340  0.1607  0.1672
  331MOL0     C43598   0.312   6.921   1.634  0.1685 -0.0603 -0.4997
  331MOL0     C43599   0.393   6.889   1.765 -0.4634 -0.8081 -0.1108
  331MOL0     C43600   0.515   6.976   1.783  0.3457  0.1486 -0.1946
  331MOL0     C43601   0.590   6.929   1.910 -0.5446  0.0067 -0.1503
  331MOL0     C43602   0.654   6.784   1.902  0.2208  0.0817  0.6136
  331MOL0     C43603   0.775   6.771   1.982  0.5768  0.4543  0.3198
  331MOL0    Cl43604   0.906   6.894   1.924  0.4860  0.4305  0.2870
  331MOL0     C43605  -0.242   6.942   1.661  0.1478 -0.2845  0.4140
  331MOL0     C43606  -0.379   6.966   1.622 -0.3581 -0.5307  0.0972
  331MOL0     O43607  -0.523   7.095   1.286  0.6686  0.2936  0.4894
  331MOL0     C43608  -0.832   6.961   1.399 -0.1407 -0.1553  0.1064
  331MOL0     C43609  -0.966   6.949   1.351  0.2432  0.8083 -0.0109
  331MOL0     N43610  -1.160   7.290   0.799 -0.9456  0.6207  0.4999
  331MOL0     N43611  -1.064   7.278   0.717 -0.2316 -0.3987 -0.1520
  331MOL0     C43612   0.102   6.930   1.019 -0.7524 -0.6290  0.6843
  331MOL0     C43613   0.242   6.949   1.045  0.6835 -0.5984 -0.0105
  331MOL0     C43614   0.600   6.772   1.260 -0.0996  0.1369 -0.0656
  331MOL0     C43615   0.609   6.724   1.395  0.4509 -0.7734  0.1090
  331MOL0     C43616   0.737   6.680   1.443  0.0951  0.4937 -0.9663
  331MOL0     C43617   0.853   6.696   1.364  0.0684  0.6168  0.4663
  331MOL0     O43618   0.983   6.673   1.399 -0.0207  0.2074 -0.2637
  331MOL0     C43619   1.036   6.685   1.528  0.1849 -0.4797 -0.0282
  331MOL0     C43620   1.192   6.673   1.520 -0.8835  0.4644  0.4594
  331MOL0     C43621   1.273   6.786   1.448  1.2233 -0.1457  0.6437
  331MOL0     C43622   1.279   6.759   1.290 -0.3915  0.8989  1.2349
  331MOL0     C43623   1.368   6.647   1.250  0.9929 -0.6327  0.0684
  331MOL0     C43624   1.443   6.564   1.227 -1.0239  0.3338  0.6776
  331MOL0     C43625   0.835   6.740   1.227 -0.6871  0.2613  0.2314
  331MOL0     C43626   0.710   6.781   1.179  0.5880  0.0482  0.5355
  331MOL0     H43627   0.345   6.626   0.995  1.4278  1.5265  2.1409
  331MOL0     H43628   0.102   6.580   0.981 -0.9592 -0.9204  1.7889
  331MOL0     H43629  -0.192   6.926   0.927 -0.8416 -1.2483  0.4933
  331MOL0     H43630  -0.148   6.922   1.102  0.2071 -0.9666  0.3090
  331MOL0     H43631  -0.307   6.735   1.131 -0.7813 -0.3411  0.4327
  331MOL0     H43632  -0.316   6.707   0.957 -4.5416  0.6277  0.9521
  331MOL0     H43633  -0.403   6.970   1.082 -1.6472  0.0421  0.8742
  331MOL0     H43634  -0.518   6.835   1.078  1.1114  0.1915  0.4216
  331MOL0     H43635  -0.381   6.972   0.839 -0.5922 -0.1844 -2.6360
  331MOL0     H43636  -0.478   6.824   0.828  1.2329 -0.8329 -1.0064
  331MOL0     H43637  -0.556   7.124   0.891 -1.7201 -0.1056 -0.0299
  331MOL0     H43638  -0.660   6.994   0.936 -1.1788  0.3928 -1.0399
  331MOL0     H43639  -0.668   6.919   0.696 -2.7993  0.6346  1.4831
  331MOL0     H43640  -0.606   7.069   0.640 -1.9166 -1.0221 -2.5484
  331MOL0     H43641  -0.841   7.014   0.832  1.9602 -0.6924 -0.2912
  331MOL0     H43642  -0.798   7.187   0.791 -3.5506  1.3185 -0.7773
  331MOL0     H43643  -0.931   6.994   0.609 -2.3368  0.6135  0.6948
  331MOL0     H43644  -0.876   7.158   0.567  0.4914  4.0203  3.4593
  331MOL0     H43645  -1.145   6.963   0.756  1.3207 -0.0223 -2.0612
  331MOL0     H43646  -1.413   7.077   0.813 -2.3390 -1.5334  2.3681
  331MOL0     H43647  -1.394   7.227   0.915 -0.9454  0.2464 -1.7577
  331MOL0     H43648  -1.287   6.954   0.991 -1.1991 -2.2516  1.5774
  331MOL0     H43649  -1.465   6.995   1.001 -0.7773  3.4090 -0.8711
  331MOL0     H43650  -1.403   7.192   1.134  0.0087 -0.7558 -0.6387
  331MOL0     H43651  -1.415   7.034   1.214 -1.1108 -0.8776 -0.3534
  331MOL0     H43652  -1.196   7.153   1.303 -3.2620  1.5000  0.0970
  331MOL0     H43653  -1.166   7.199   1.144  1.5979 -1.7514  0.1106
  331MOL0     H43654  -0.918   7.094   1.046  0.4727  0.1637 -0.9759
  331MOL0     H43655  -0.693   7.099   1.118  2.2943  2.4322  3.6760
  331MOL0     H43656  -0.355   6.896   1.293 -0.6035 -1.2320  0.4463
  331MOL0     H43657  -0.113   6.928   1.343 -0.6910  2.4596  0.5138
  331MOL0     H43658   0.111   6.927   1.441 -1.6180 -2.2427 -1.7004
  331MOL0     H43659   0.052   6.766   1.475  4.1750 -2.1553  1.2221
  331MOL0     H43660   0.242   6.727   1.577  0.3509  1.8518 -3.7972
  331MOL0     H43661   0.147   6.793   1.714 -0.1518 -1.9892 -0.5074
  331MOL0     H43662   0.273   7.023   1.640  0.0225 -0.0275 -1.6394
  331MOL0     H43663   0.384   6.914   1.552  1.0349  2.3832 -0.0414
  331MOL0     H43664   0.323   6.898   1.849  2.1069  0.1886  2.0664
  331MOL0     H43665   0.427   6.786   1.761 -1.3230 -1.1126  0.2658
  331MOL0     H43666   0.472   7.076   1.789  0.1722  0.0590  0.0967
  331MOL0     H43667   0.588   6.970   1.702 -0.8330  0.8319 -1.3524
  331MOL0     H43668   0.515   6.928   1.989 -1.8510  4.1098 -1.0835
  331MOL0     H43669   0.657   7.003   1.955 -2.4269  1.2300  0.8030
  331MOL0     H43670   0.578   6.712   1.934  1.0880 -1.0419  0.2115
  331MOL0     H43671   0.687   6.768   1.799 -1.6210  2.0379 -0.3564
  331MOL0     H43672   0.815   6.670   1.981 -3.1160 -1.2885  2.7474
  331MOL0     H43673   0.742   6.792   2.085 -2.0526  1.6815 -0.6668
  331MOL0     H43674  -0.216   6.949   1.766  0.4479 -0.8392  0.3780
  331MOL0     H43675  -0.443   6.975   1.709 -0.6977  0.8378 -0.2663
  331MOL0     H43676  -0.808   6.931   1.501  0.6077 -0.8730 -0.2661
  331MOL0     H43677  -1.036   6.902   1.419 -0.3717 -3.1159 -2.9839
  331MOL0     H43678   0.041   7.019   1.014  0.7270  0.3302 -2.0202
  331MOL0     H43679   0.295   7.038   1.075 -2.2768  1.6481 -1.0353
  331MOL0     H43680   0.522   6.715   1.459 -0.4416 -1.2926 -1.1269
  331MOL0     H43681   0.752   6.653   1.547 -0.0737 -0.0737 -1.0871
  331MOL0     H43682   0.993   6.616   1.601  0.2686 -2.2730 -1.6043
  331MOL0     H43683   1.015   6.785   1.568 -0.4606  0.2714 -2.1100
  331MOL0     H43684   1.217   6.669   1.627  0.3217 -3.3918  0.2180
  331MOL0     H43685   1.209   6.571   1.483 -0.5752  0.1103  1.5212
  331MOL0     H43686   1.371   6.797   1.494  0.7078 -1.8479  2.2881
  331MOL0     H43687   1.221   6.878   1.476 -2.6117 -2.3546  1.5454
  331MOL0     H43688   1.181   6.721   1.260  1.2711 -1.1862 -2.1796
  331MOL0     H43689   1.312   6.850   1.238  0.8264  0.1591  0.6604
  331MOL0     H43690   1.523   6.492   1.218  0.4374  2.0368 -0.6697
  331MOL0     H43691   0.928   6.744   1.171  1.4506 -0.6118  3.4497
  331MOL0     H43692   0.706   6.818   1.077  0.7868 -0.1573  0.4529
  332MOL0     O43693   1.821   2.079   6.471 -0.7042 -0.4162  0.2261
  332MOL0     C43694   1.895   2.086   6.369  0.6930 -0.2782 -0.1787
  332MOL0     O43695   1.850   2.114   6.247 -0.0849 -0.3302  0.3110
  332MOL0     C43696   1.729   2.178   6.217  0.3375  0.8268  0.1633
  332MOL0     C43697   1.660   2.277   6.293 -0.4344 -0.0553  0.2835
  332MOL0     C43698   1.531   2.314   6.262  0.2957  0.3154  0.5365
  332MOL0     C43699   1.472   2.274   6.144  0.3649  0.4945 -0.2643
  332MOL0     O43700   1.338   2.288   6.113  0.0855 -0.8715 -0.7155
  332MOL0     C43701   1.271   2.412   6.149 -0.2033  0.3958 -0.4100
  332MOL0     C43702   1.178   2.402   6.273  0.0036  1.3730  0.3848
  332MOL0     C43703   1.069   2.299   6.254  0.1986  0.5005  0.4030
  332MOL0     C43704   0.954   2.296   6.356  0.0242  0.1866 -0.4547
  332MOL0     C43705   0.845   2.403   6.331 -0.1206  0.5301  0.1751
  332MOL0     C43706   0.746   2.347   6.226 -0.9337  0.0170 -1.0161
  332MOL0     C43707   0.653   2.456   6.169  0.0617  0.4864 -0.7349
  332MOL0     C43708   0.581   2.538   6.279 -0.2475  0.2282 -0.0812
  332MOL0     N43709   0.473   2.457   6.326  0.3224  0.4839  0.6568
  332MOL0     C43710   0.342   2.501   6.320  0.7826 -0.1003 -0.0695
  332MOL0     C43711   0.283   2.440   6.426 -0.0434 -0.9208  0.5008
  332MOL0     C43712   0.140   2.467   6.453  1.2366  0.2118  0.0939
  332MOL0     C43713   0.044   2.347   6.441 -0.5026 -0.1384 -0.7264
  332MOL0     C43714   0.066   2.244   6.557  0.5298  0.6285 -0.3426
  332MOL0     C43715  -0.030   2.125   6.550 -0.4047  0.9790 -0.3495
  332MOL0     O43716  -0.162   2.178   6.567 -1.0666  0.2577  0.2820
  332MOL0     C43717  -0.263   2.093   6.548  0.6197 -0.3221  0.1548
  332MOL0     C43718  -0.397   2.140   6.576  0.7503  0.2203  0.8803
  332MOL0     C43719  -0.503   2.054   6.560 -0.3211 -0.3213 -0.2986
  332MOL0     C43720  -0.482   1.926   6.503  0.7230 -0.1899  0.0770
  332MOL0     C43721  -0.602   1.836   6.473  0.1344  0.5190 -0.0780
  332MOL0     O43722  -0.707   1.856   6.551  0.4260  0.2211 -0.2456
  332MOL0     C43723  -0.827   1.782   6.541 -0.2060  0.2430  0.0568
  332MOL0     C43724  -0.845   1.661   6.607  0.7766 -0.1833 -0.4583
  332MOL0     C43725  -0.953   1.581   6.583  0.1043 -0.0533  0.7366
  332MOL0     C43726  -1.056   1.628   6.502  0.6017 -0.4373 -0.9092
  332MOL0     O43727  -1.168   1.551   6.484 -0.6661 -0.0297 -0.4201
  332MOL0     C43728  -1.168   1.466   6.374  0.0355 -0.6902 -0.0566
  332MOL0     C43729  -1.220   1.322   6.414 -0.5427  0.2401 -0.2417
  332MOL0     C43730  -1.361   1.300   6.371 -0.1257  0.2808  0.3065
  332MOL0     C43731  -1.412   1.158   6.404  0.1716 -0.0095 -0.4465
  332MOL0     C43732  -1.439   1.143   6.557 -0.5671  0.2940 -0.5554
  332MOL0     C43733  -1.548   1.032   6.578  0.6605 -0.4308  0.1610
  332MOL0     C43734  -1.531   0.893   6.519 -0.2168  0.6470 -0.9715
  332MOL0     C43735  -1.400   0.837   6.558 -0.7680 -0.5803  0.9289
  332MOL0    Cl43736  -1.402   0.815   6.728 -0.2249 -0.1020  0.1328
  332MOL0     C43737  -1.046   1.746   6.429 -0.7369 -0.6700 -0.5552
  332MOL0     C43738  -0.927   1.824   6.448  0.7662  0.5155 -0.1661
  332MOL0     O43739  -0.587   1.745   6.395  0.5035  0.4835 -0.0518
  332MOL0     C43740  -0.358   1.873   6.480 -0.0135 -0.2500  0.6024
  332MOL0     C43741  -0.248   1.961   6.503  1.0129 -0.3915 -0.5721
  332MOL0     N43742   0.374   2.349   6.468  0.0560 -0.0512 -0.2226
  332MOL0     N43743   0.496   2.373   6.427 -0.3280  0.8915 -0.0660
  332MOL0     C43744   1.536   2.184   6.061  0.2075  0.0106 -0.2031
  332MOL0     C43745   1.666   2.141   6.092  0.5447  0.6093 -0.2688
  332MOL0     C43746   2.031   2.038   6.389 -0.2812  0.0351  0.3317
  332MOL0     C43747   2.091   2.021   6.514 -0.4972  0.1722  0.1546
  332MOL0     C43748   2.219   1.975   6.536 -0.5162  0.2560 -0.3112
  332MOL0     C43749   2.293   1.953   6.423 -0.3682  0.3245  0.7755
  332MOL0     O43750   2.428   1.912   6.436  0.1599 -0.2444 -0.9029
  332MOL0     C43751   2.519   2.020   6.398 -0.2274 -0.0879 -0.1657
  332MOL0     C43752   2.644   1.971   6.326  0.6896 -0.7100  0.6409
  332MOL0     C43753   2.744   2.087   6.303  0.4756 -0.5988  0.1002
  332MOL0     C43754   2.870   2.056   6.213 -0.2594 -0.2973  1.1729
  332MOL0     C43755   2.926   1.929   6.264 -0.6290 -0.8354  0.1546
  332MOL0     C43756   2.966   1.817   6.287 -0.3029  0.8641 -1.3700
  332MOL0     C43757   2.234   1.962   6.294 -0.3884  0.6230  0.8401
  332MOL0     C43758   2.109   2.007   6.282  0.2528 -0.7219  0.0162
  332MOL0     H43759   1.710   2.316   6.381 -0.4994 -0.6115  0.5681
  332MOL0     H43760   1.472   2.376   6.328 -1.3195 -2.6937  2.1399
  332MOL0     H43761   1.211   2.440   6.061 -3.8467  1.0729  2.0695
  332MOL0     H43762   1.344   2.493   6.160 -1.0302  1.2136 -0.8022
  332MOL0     H43763   1.135   2.502   6.280  0.3182  1.4621  1.1101
  332MOL0     H43764   1.246   2.381   6.356  1.5975  2.9467 -0.4595
  332MOL0     H43765   1.125   2.206   6.238 -0.5317 -0.3123  2.1874
  332MOL0     H43766   1.018   2.324   6.161  0.3872 -2.1112 -0.4921
  332MOL0     H43767   0.907   2.197   6.358  1.1640 -0.3702 -0.1737
  332MOL0     H43768   1.004   2.296   6.454  0.8345 -2.8202 -0.7468
  332MOL0     H43769   0.888   2.495   6.290  0.1875  1.4826  2.4640
  332MOL0     H43770   0.801   2.423   6.429  0.2072  1.1095  0.2096
  332MOL0     H43771   0.675   2.276   6.269 -2.3540  3.2881  2.6452
  332MOL0     H43772   0.800   2.306   6.140  0.1610  2.0598 -1.3780
  332MOL0     H43773   0.706   2.529   6.107 -0.8696  2.3917  0.6008
  332MOL0     H43774   0.585   2.407   6.099  1.2697 -1.0902 -0.8536
  332MOL0     H43775   0.544   2.629   6.231 -0.5050  1.4208  2.2102
  332MOL0     H43776   0.647   2.560   6.364 -0.2180 -1.8612  0.4834
  332MOL0     H43777   0.292   2.565   6.248 -2.7224 -2.6526 -0.1523
  332MOL0     H43778   0.095   2.530   6.376 -4.7095 -2.7195  0.6384
  332MOL0     H43779   0.140   2.502   6.557  2.5920 -0.9183  0.5045
  332MOL0     H43780   0.076   2.288   6.355  1.0071 -3.2060  1.7206
  332MOL0     H43781  -0.064   2.367   6.439 -1.2079 -3.1551  0.7634
  332MOL0     H43782   0.157   2.186   6.541 -1.0472 -1.4867 -2.0395
  332MOL0     H43783   0.065   2.287   6.658 -0.2779 -1.6993  0.7169
  332MOL0     H43784  -0.012   2.041   6.618  1.7327 -0.4359 -2.4870
  332MOL0     H43785  -0.018   2.078   6.452  0.6116  0.6982 -0.0989
  332MOL0     H43786  -0.413   2.236   6.625 -1.8187 -0.3017  1.2127
  332MOL0     H43787  -0.599   2.091   6.593  0.5930  1.1089  0.9064
  332MOL0     H43788  -0.763   1.627   6.668  0.1352 -0.0740  0.4867
  332MOL0     H43789  -0.956   1.489   6.641 -0.6864  0.3490  1.3478
  332MOL0     H43790  -1.062   1.463   6.348  0.9736  1.6211  2.9549
  332MOL0     H43791  -1.220   1.499   6.283 -1.0953 -3.0606 -0.3573
  332MOL0     H43792  -1.211   1.310   6.522 -0.7623 -0.2949 -0.2774
  332MOL0     H43793  -1.148   1.251   6.372 -0.8637 -0.1728 -0.1082
  332MOL0     H43794  -1.372   1.317   6.264  0.0421  3.7939  0.7125
  332MOL0     H43795  -1.420   1.383   6.413 -0.6364  2.9255 -4.8254
  332MOL0     H43796  -1.505   1.139   6.349  0.1989 -0.9525 -0.1786
  332MOL0     H43797  -1.341   1.080   6.377  0.3062 -0.6430  1.5979
  332MOL0     H43798  -1.473   1.236   6.603 -0.4970  1.0219 -1.9433
  332MOL0     H43799  -1.346   1.114   6.607 -0.8021 -2.5651 -1.5978
  332MOL0     H43800  -1.638   1.077   6.534  1.7080  1.8760  0.2421
  332MOL0     H43801  -1.577   1.013   6.682  1.2799  1.2511  0.6695
  332MOL0     H43802  -1.612   0.834   6.564  0.5826  0.3987  0.1863
  332MOL0     H43803  -1.540   0.899   6.410 -0.8343  2.4425 -0.8563
  332MOL0     H43804  -1.333   0.916   6.523 -1.3061  0.9105  3.0858
  332MOL0     H43805  -1.407   0.739   6.509 -2.9718 -0.9380  1.8666
  332MOL0     H43806  -1.117   1.796   6.363  0.2392  2.3285  0.4656
  332MOL0     H43807  -0.917   1.912   6.385  1.0329  0.2156 -0.5542
  332MOL0     H43808  -0.344   1.777   6.433  1.2302 -0.3385  1.0975
  332MOL0     H43809  -0.151   1.914   6.491  0.3929 -1.3950 -2.0044
  332MOL0     H43810   1.480   2.148   5.976  2.8703 -2.1840 -1.1832
  332MOL0     H43811   1.705   2.066   6.024 -2.3309 -1.7268  0.4153
  332MOL0     H43812   2.029   2.040   6.601 -4.1197  0.0953 -2.1914
  332MOL0     H43813   2.259   1.961   6.637 -0.3179  2.5005 -0.0377
  332MOL0     H43814   2.560   2.066   6.488  0.0113  0.2639 -0.4528
  332MOL0     H43815   2.470   2.097   6.338 -0.8085 -1.6216 -1.7647
  332MOL0     H43816   2.690   1.890   6.384  1.7346 -0.5804  0.0254
  332MOL0     H43817   2.602   1.930   6.234  0.8423 -1.7560  1.0148
  332MOL0     H43818   2.785   2.119   6.399  0.6020 -0.4529 -0.0008
  332MOL0     H43819   2.693   2.178   6.271  0.6973  0.3831  2.3438
  332MOL0     H43820   2.841   2.046   6.107 -0.2659  0.3756  1.1105
  332MOL0     H43821   2.941   2.136   6.233 -1.5719  0.9870  0.8592
  332MOL0     H43822   3.000   1.718   6.311  3.3914  2.4258  0.7234
  332MOL0     H43823   2.292   1.955   6.202 -1.9402  0.2584 -0.1611
  332MOL0     H43824   2.068   2.034   6.185  0.7341  0.3389  0.0936
  333MOL0     O43825   5.677   5.035   9.620  0.0130  0.7462  0.0491
  333MOL0     C43826   5.676   4.933   9.693  0.0258  0.6189  0.5789
  333MOL0     O43827   5.572   4.848   9.720  0.2554  0.2076  0.2424
  333MOL0     C43828   5.458   4.858   9.634 -0.4976 -0.5801  0.3273
  333MOL0     C43829   5.338   4.881   9.702 -0.7108 -0.1495  0.7658
  333MOL0     C43830   5.218   4.874   9.633 -0.6864  0.5938 -0.4665
  333MOL0     C43831   5.219   4.857   9.493  0.2114  0.4242 -0.7410
  333MOL0     O43832   5.091   4.881   9.445  0.0115  0.3464 -0.4368
  333MOL0     C43833   5.041   4.801   9.334  0.5530 -0.7733  0.3546
  333MOL0     C43834   5.023   4.648   9.352  0.9450  0.0745  0.1628
  333MOL0     C43835   4.878   4.619   9.401 -0.6860 -0.4375 -0.1074
  333MOL0     C43836   4.845   4.471   9.413  0.0745  0.8962  0.0587
  333MOL0     C43837   4.700   4.438   9.400 -0.5554  0.1885  0.5273
  333MOL0     C43838   4.686   4.285   9.399 -0.3125 -0.2564 -0.4501
  333MOL0     C43839   4.539   4.254   9.421  0.3928  0.0110  0.1771
  333MOL0     C43840   4.512   4.099   9.464  0.4991 -0.0603 -0.4580
  333MOL0     N43841   4.372   4.063   9.502  0.0254 -0.8350  0.6571
  333MOL0     C43842   4.280   4.026   9.418  0.3438  0.7387  0.4115
  333MOL0     C43843   4.175   3.977   9.487 -0.1834  0.4051  0.7023
  333MOL0     C43844   4.044   3.922   9.431  0.6258  0.0715  0.5264
  333MOL0     C43845   3.918   4.002   9.477  0.4816  0.3179  0.5480
  333MOL0     C43846   3.806   3.908   9.450  0.4068 -0.1122 -0.0013
  333MOL0     C43847   3.672   3.972   9.469  0.8695  0.0439  0.0256
  333MOL0     O43848   3.582   3.866   9.429  0.1233 -0.1025 -0.5178
  333MOL0     C43849   3.453   3.885   9.415 -0.3662  0.1115  0.4977
  333MOL0     C43850   3.381   3.784   9.344 -1.0085 -0.1194  0.1675
  333MOL0     C43851   3.247   3.785   9.315 -0.1002  0.4869  0.2770
  333MOL0     C43852   3.170   3.883   9.365 -0.2089 -0.5297 -0.1976
  333MOL0     C43853   3.026   3.899   9.346 -0.4154 -0.0660 -0.0349
  333MOL0     O43854   2.959   4.010   9.378 -0.0399  0.8625  0.7777
  333MOL0     C43855   2.825   4.001   9.365  0.9746  0.1243  0.1990
  333MOL0     C43856   2.760   4.046   9.251 -0.2486 -0.8320 -0.0564
  333MOL0     C43857   2.620   4.057   9.239  0.3727  0.6137 -0.1032
  333MOL0     C43858   2.542   3.997   9.342  0.4568 -0.4184  0.6613
  333MOL0     O43859   2.400   3.992   9.336 -0.1804 -0.0509  0.6212
  333MOL0     C43860   2.327   4.065   9.228 -1.1581  0.1400  0.2412
  333MOL0     C43861   2.182   4.028   9.254  0.9546 -0.7508  0.4570
  333MOL0     C43862   2.078   4.085   9.151  0.2076 -0.4828 -0.0888
  333MOL0     C43863   1.953   4.012   9.180  0.7716 -0.0380 -1.1673
  333MOL0     C43864   1.854   4.031   9.066 -0.3625 -0.0982  0.0855
  333MOL0     C43865   1.788   4.172   9.076 -1.0815 -0.3678 -0.3481
  333MOL0     C43866   1.681   4.190   8.959  0.3217 -0.6847  0.3145
  333MOL0     C43867   1.673   4.334   8.918 -0.3984  0.1430  0.1782
  333MOL0    Cl43868   1.547   4.347   8.790  0.6895  0.1319  0.2622
  333MOL0     C43869   2.602   3.950   9.459 -0.6232  0.1567  0.4853
  333MOL0     C43870   2.745   3.945   9.462  0.4426 -0.0063  0.4589
  333MOL0     O43871   2.979   3.793   9.315  0.6646  1.0106  0.4258
  333MOL0     C43872   3.237   3.982   9.444 -0.1470  0.1748  0.5038
  333MOL0     C43873   3.370   3.980   9.470  0.1049 -0.7932  0.0302
  333MOL0     N43874   4.209   3.984   9.617  0.6547  0.5398  0.4654
  333MOL0     N43875   4.327   4.036   9.628 -0.6941 -0.8816  0.5034
  333MOL0     C43876   5.338   4.842   9.423  0.1587  0.0133 -0.2863
  333MOL0     C43877   5.455   4.838   9.498 -0.2249 -0.0942  0.1635
  333MOL0     C43878   5.797   4.920   9.792  0.4106 -0.7471 -0.0775
  333MOL0     C43879   5.912   4.996   9.773  0.6200 -0.1602  0.8398
  333MOL0     C43880   6.026   4.984   9.856 -0.4728 -0.2184  0.1129
  333MOL0     C43881   6.024   4.889   9.958 -0.0049 -0.2760  0.6464
  333MOL0     O43882   6.127   4.877  10.041 -0.7272 -0.0186  0.2234
  333MOL0     C43883   6.132   4.775  10.142  0.2445  0.8134 -0.6247
  333MOL0     C43884   6.268   4.793  10.192 -0.7913  0.5944 -0.2387
  333MOL0     C43885   6.293   4.692  10.305 -0.3691  0.1577  0.7025
  333MOL0     C43886   6.440   4.661  10.330 -0.0416  0.1450 -0.2536
  333MOL0     C43887   6.510   4.761  10.417 -0.2040  0.1367  0.2381
  333MOL0     C43888   6.564   4.837  10.491  0.2173 -0.5319  0.6969
  333MOL0     C43889   5.914   4.805   9.967 -0.5367 -0.2467 -0.1191
  333MOL0     C43890   5.801   4.823   9.889 -0.6443  0.3376  0.2042
  333MOL0     H43891   5.351   4.885   9.810 -2.5118  1.0576  0.9875
  333MOL0     H43892   5.129   4.878   9.694 -1.7707 -1.5417 -1.8060
  333MOL0     H43893   5.113   4.816   9.253 -1.5292  0.0104 -1.4338
  333MOL0     H43894   4.957   4.852   9.288  1.1390 -1.5685 -1.7157
  333MOL0     H43895   5.093   4.608   9.426 -1.0674 -1.4807  1.3134
  333MOL0     H43896   5.053   4.596   9.261  2.4349 -1.2168  1.3276
  333MOL0     H43897   4.813   4.661   9.323  0.5225  1.6150 -0.0665
  333MOL0     H43898   4.837   4.668   9.490  0.5350 -0.8297  0.6910
  333MOL0     H43899   4.899   4.420   9.332  0.8022 -3.1382  2.7528
  333MOL0     H43900   4.888   4.428   9.504  2.6334  3.1187  0.0194
  333MOL0     H43901   4.675   4.483   9.303 -1.7673  1.8847  1.5662
  333MOL0     H43902   4.652   4.488   9.485  0.2856  2.7624 -0.4126
  333MOL0     H43903   4.753   4.235   9.470 -0.2990 -2.2356 -1.7870
  333MOL0     H43904   4.715   4.261   9.297  2.8935  1.1860 -0.0062
  333MOL0     H43905   4.490   4.319   9.494 -1.9991 -0.3866 -0.9572
  333MOL0     H43906   4.483   4.266   9.328  0.8280  3.1729  0.2058
  333MOL0     H43907   4.575   4.064   9.547  1.3508 -0.7989 -1.4009
  333MOL0     H43908   4.549   4.046   9.376  1.0103 -3.7652  1.7709
  333MOL0     H43909   4.294   4.031   9.310 -1.6889  1.2599  0.1295
  333MOL0     H43910   4.035   3.824   9.478 -0.5619  1.0203  2.4123
  333MOL0     H43911   4.049   3.917   9.322  1.5104  0.2012  0.5568
  333MOL0     H43912   3.919   4.090   9.412  0.1902 -0.4874 -0.5608
  333MOL0     H43913   3.929   4.036   9.581 -0.3631 -1.4440  1.2538
  333MOL0     H43914   3.803   3.860   9.351  1.3911 -1.9015  0.7764
  333MOL0     H43915   3.814   3.822   9.518 -0.5785  1.5251  2.3066
  333MOL0     H43916   3.659   4.061   9.407  1.0440  0.4298  0.5309
  333MOL0     H43917   3.657   4.004   9.573  2.4268  1.9500 -0.2795
  333MOL0     H43918   3.444   3.715   9.289  1.1824  4.3606 -3.6128
  333MOL0     H43919   3.201   3.707   9.256  1.6750 -2.3855  2.4354
  333MOL0     H43920   2.823   4.090   9.174 -0.8899 -0.6501 -0.4928
  333MOL0     H43921   2.582   4.103   9.148 -0.9768 -0.7792 -0.2847
  333MOL0     H43922   2.353   4.032   9.127 -1.6792 -1.5254  0.6107
  333MOL0     H43923   2.338   4.173   9.238 -1.8471  0.0984  1.7856
  333MOL0     H43924   2.149   4.065   9.351 -1.3660 -2.3713  0.3840
  333MOL0     H43925   2.178   3.918   9.254 -0.5852 -0.7183  0.8295
  333MOL0     H43926   2.122   4.066   9.053  1.3703  2.0138 -0.1425
  333MOL0     H43927   2.058   4.191   9.169  2.9455 -0.3883  3.5284
  333MOL0     H43928   1.963   3.903   9.189 -0.9267 -0.1059  0.4585
  333MOL0     H43929   1.914   4.037   9.279  0.8625  2.9393 -1.7979
  333MOL0     H43930   1.780   3.951   9.079  0.1710 -1.3738 -3.3921
  333MOL0     H43931   1.911   4.004   8.977 -0.5896 -1.7196  0.3915
  333MOL0     H43932   1.869   4.241   9.050 -0.2790 -1.7101 -1.5774
  333MOL0     H43933   1.756   4.182   9.180 -1.4983 -2.7290 -0.1945
  333MOL0     H43934   1.703   4.122   8.875  0.4361 -0.0156 -0.2048
  333MOL0     H43935   1.595   4.152   9.013 -0.1586 -1.6954 -1.0928
  333MOL0     H43936   1.773   4.351   8.877  0.1065  1.6981  1.9194
  333MOL0     H43937   1.668   4.404   9.002  1.6607  0.1037  0.4001
  333MOL0     H43938   2.533   3.907   9.530 -1.4632 -1.7924 -1.3883
  333MOL0     H43939   2.795   3.907   9.551  0.0780 -0.7714  0.3410
  333MOL0     H43940   3.185   4.073   9.474 -1.5571  0.1874 -1.7615
  333MOL0     H43941   3.420   4.065   9.514 -1.1284  0.6830 -1.2954
  333MOL0     H43942   5.341   4.825   9.315 -0.4603 -0.2237 -0.2699
  333MOL0     H43943   5.553   4.830   9.452 -0.1371 -0.5840  0.4393
  333MOL0     H43944   5.919   5.069   9.694 -0.9400 -2.1252 -1.2304
  333MOL0     H43945   6.118   5.039   9.842 -1.7357  2.1201  0.4200
  333MOL0     H43946   6.119   4.676  10.097  1.8443  1.2571 -2.1634
  333MOL0     H43947   6.064   4.784  10.228  3.8539 -2.1513  2.9670
  333MOL0     H43948   6.341   4.765  10.116 -0.0247 -2.9207  1.5812
  333MOL0     H43949   6.295   4.892  10.231  1.3866 -0.2654  0.5737
  333MOL0     H43950   6.230   4.604  10.283 -0.4261 -0.0465  1.6281
  333MOL0     H43951   6.250   4.734  10.396  1.2444  0.5222  1.3178
  333MOL0     H43952   6.446   4.562  10.377 -1.2554 -0.0234 -0.4028
  333MOL0     H43953   6.490   4.662  10.233  0.5641  2.0349  0.0412
  333MOL0     H43954   6.619   4.907  10.550  0.3141  1.3988 -1.5380
  333MOL0     H43955   5.929   4.724  10.037 -1.8546 -1.0822 -0.7570
  333MOL0     H43956   5.710   4.768   9.910 -1.5989  2.3576  1.8025
  334MOL0     O43957  11.247   8.665   6.796  0.3434 -1.1369 -0.0453
  334MOL0     C43958  11.208   8.744   6.883 -0.0110  0.0743 -0.0955
  334MOL0     O43959  11.079   8.745   6.932  0.1695 -1.5592 -0.5776
  334MOL0     C43960  10.986   8.663   6.877 -0.0384 -0.6710  0.1648
  334MOL0     C43961  10.922   8.562   6.945 -0.5744 -0.0667  0.1675
  334MOL0     C43962  10.815   8.485   6.891  0.8184 -0.1451  0.0406
  334MOL0     C43963  10.758   8.523   6.778  0.6953  0.6081  0.0668
  334MOL0     O43964  10.648   8.444   6.731  0.0039 -0.4139 -0.0902
  334MOL0     C43965  10.592   8.482   6.602  0.2272  0.2178  0.3898
  334MOL0     C43966  10.456   8.415   6.576 -0.0742  0.3215  0.3958
  334MOL0     C43967  10.349   8.423   6.682  0.4856 -0.6322  0.2557
  334MOL0     C43968  10.199   8.386   6.645 -0.6296 -0.0882  0.9732
  334MOL0     C43969  10.147   8.458   6.520  0.4980 -0.1509  0.1802
  334MOL0     C43970   9.987   8.460   6.523 -0.7181  0.3129 -0.3599
  334MOL0     C43971   9.925   8.509   6.392  0.0589  0.0654 -0.2402
  334MOL0     C43972   9.953   8.657   6.362  0.9727  0.3174 -0.1367
  334MOL0     N43973   9.896   8.706   6.236  0.1660  0.6344 -0.3094
  334MOL0     C43974   9.980   8.764   6.141  0.4213  0.0940 -0.1889
  334MOL0     C43975   9.903   8.787   6.037 -0.4505  0.3706  0.0322
  334MOL0     C43976   9.946   8.837   5.903  0.7093 -0.4846  0.1962
  334MOL0     C43977   9.942   8.995   5.913  0.1558  0.2264  0.4402
  334MOL0     C43978  10.083   9.045   5.965  0.2816 -0.1583  0.0424
  334MOL0     C43979  10.092   9.200   5.985 -0.3146 -0.5863  0.3074
  334MOL0     O43980  10.076   9.281   5.864  0.3730  0.4199 -0.2113
  334MOL0     C43981  10.171   9.277   5.764 -0.1208 -0.3648  0.1878
  334MOL0     C43982  10.135   9.234   5.635 -0.3470  0.0386  0.9222
  334MOL0     C43983  10.222   9.232   5.526 -0.0081 -0.2348  0.4044
  334MOL0     C43984  10.348   9.289   5.541 -0.4527 -0.1250 -0.3320
  334MOL0     C43985  10.456   9.284   5.436  0.0596 -0.2186 -0.7631
  334MOL0     O43986  10.561   9.366   5.461  0.3373  0.1711 -0.5278
  334MOL0     C43987  10.656   9.396   5.374 -0.0503  0.0150  0.4847
  334MOL0     C43988  10.658   9.386   5.232  0.1081 -0.3318  0.1364
  334MOL0     C43989  10.764   9.420   5.148 -0.7581 -0.2532 -0.6597
  334MOL0     C43990  10.877   9.471   5.207 -0.3597 -1.1847  0.1472
  334MOL0     O43991  10.985   9.503   5.127  0.0040 -0.7794 -0.7788
  334MOL0     C43992  11.121   9.529   5.192  0.8872 -0.3992  0.4437
  334MOL0     C43993  11.223   9.551   5.086  0.1387  0.1910 -0.6318
  334MOL0     C43994  11.365   9.571   5.133 -0.0031  0.0866 -0.3543
  334MOL0     C43995  11.460   9.569   5.012  0.5281  0.0895 -0.6700
  334MOL0     C43996  11.470   9.700   4.937 -0.0111 -1.1968 -0.1185
  334MOL0     C43997  11.556   9.675   4.814 -0.7174 -0.7706  0.7570
  334MOL0     C43998  11.573   9.786   4.714 -0.3833  0.1704  0.3909
  334MOL0     C43999  11.645   9.725   4.596 -0.4548 -0.2853  0.5061
  334MOL0    Cl44000  11.828   9.763   4.611  0.5419  0.1832 -0.0343
  334MOL0     C44001  10.883   9.477   5.349 -1.0062 -0.2143  0.5535
  334MOL0     C44002  10.777   9.437   5.432  0.5158  0.8233 -0.0491
  334MOL0     O44003  10.433   9.223   5.329 -0.7114 -0.1797 -0.4556
  334MOL0     C44004  10.380   9.348   5.670  0.3361  0.6070 -0.1149
  334MOL0     C44005  10.292   9.341   5.782 -0.1101 -0.8987  1.2229
  334MOL0     N44006   9.768   8.752   6.074 -0.0522  0.2955  0.1019
  334MOL0     N44007   9.770   8.705   6.190  0.0108 -0.3549  0.0750
  334MOL0     C44008  10.822   8.626   6.707  0.0118 -1.0414  0.1101
  334MOL0     C44009  10.931   8.696   6.754 -1.3480  0.1295  0.6128
  334MOL0     C44010  11.311   8.831   6.928 -0.1268 -0.2862  0.6969
  334MOL0     C44011  11.404   8.894   6.837  0.4807  0.3647  0.4704
  334MOL0     C44012  11.501   8.984   6.889  0.2863 -1.0588 -0.6674
  334MOL0     C44013  11.500   9.027   7.023 -0.3233  0.0676  0.0841
  334MOL0     O44014  11.589   9.128   7.060  0.3230 -0.3106 -0.0155
  334MOL0     C44015  11.644   9.125   7.192 -0.1116  0.4204  0.1282
  334MOL0     C44016  11.777   9.199   7.205  0.1502  0.5596  0.0503
  334MOL0     C44017  11.816   9.189   7.350  0.7955  0.1654  0.3367
  334MOL0     C44018  11.960   9.257   7.356 -0.0196  0.8820 -0.4454
  334MOL0     C44019  12.004   9.266   7.501 -0.5370  0.0155  0.1566
  334MOL0     C44020  12.019   9.292   7.612 -0.5518  0.1520  0.2228
  334MOL0     C44021  11.414   8.958   7.112 -0.7249  0.1946  0.3211
  334MOL0     C44022  11.318   8.870   7.065  0.1818  0.7500 -0.1216
  334MOL0     H44023  10.965   8.520   7.035  0.5692  1.2441  0.2680
  334MOL0     H44024  10.791   8.391   6.939  1.2638 -1.1401 -1.6091
  334MOL0     H44025  10.656   8.442   6.522 -1.9543  2.2453 -2.5573
  334MOL0     H44026  10.583   8.589   6.585 -0.4683 -0.1551 -1.9267
  334MOL0     H44027  10.466   8.307   6.564 -0.7617  0.4224 -1.3863
  334MOL0     H44028  10.416   8.440   6.477 -1.1185  1.2072  1.0151
  334MOL0     H44029  10.345   8.530   6.706  1.2558 -0.8953  1.6292
  334MOL0     H44030  10.374   8.369   6.773 -3.5836 -1.8548  0.8078
  334MOL0     H44031  10.171   8.281   6.643 -2.5913  0.4061 -0.0087
  334MOL0     H44032  10.139   8.407   6.734 -0.4916  0.4875  0.9368
  334MOL0     H44033  10.165   8.394   6.432 -0.5710  1.1365 -1.0322
  334MOL0     H44034  10.182   8.561   6.518  4.2924 -1.2940 -0.0848
  334MOL0     H44035   9.956   8.510   6.616  1.7569 -0.1394  0.7848
  334MOL0     H44036   9.949   8.359   6.537 -0.6344  0.4501  1.0082
  334MOL0     H44037   9.949   8.435   6.315 -1.2710  0.7313 -1.3185
  334MOL0     H44038   9.817   8.500   6.400  0.0746 -3.2749 -2.0308
  334MOL0     H44039  10.062   8.660   6.347  0.8501 -0.4206 -1.2358
  334MOL0     H44040   9.906   8.722   6.437 -3.4640 -1.7458 -0.8106
  334MOL0     H44041  10.081   8.803   6.148 -0.8276  3.7238 -0.2509
  334MOL0     H44042   9.881   8.812   5.819 -0.2523  3.2330 -0.3202
  334MOL0     H44043  10.047   8.800   5.880  0.2670 -1.5564 -0.1017
  334MOL0     H44044   9.855   9.024   5.972  1.4357  2.2569  1.4176
  334MOL0     H44045   9.934   9.045   5.816  3.0794  0.9514  0.4765
  334MOL0     H44046  10.111   9.001   6.061  0.0859  0.2581  0.2922
  334MOL0     H44047  10.159   9.005   5.897  0.2236  1.2318 -0.8901
  334MOL0     H44048  10.190   9.226   6.026  1.1113 -0.3053 -2.9452
  334MOL0     H44049  10.010   9.216   6.056 -0.4237 -2.2967  0.6097
  334MOL0     H44050  10.038   9.187   5.618  1.4799 -3.2139 -1.6883
  334MOL0     H44051  10.208   9.183   5.430  2.9857 -0.1524 -0.1720
  334MOL0     H44052  10.575   9.336   5.184 -0.5487  2.7386 -2.1879
  334MOL0     H44053  10.755   9.424   5.040  0.0872  1.5080 -0.7070
  334MOL0     H44054  11.155   9.441   5.246 -0.9552 -2.4291 -1.4964
  334MOL0     H44055  11.125   9.617   5.257  0.2223 -1.6994  2.3284
  334MOL0     H44056  11.189   9.634   5.024 -0.4461 -0.6727 -1.5000
  334MOL0     H44057  11.210   9.467   5.017 -2.0843  0.2321 -0.3653
  334MOL0     H44058  11.379   9.492   5.208 -2.1957 -0.5967 -0.5843
  334MOL0     H44059  11.376   9.662   5.193 -3.2729 -0.2663  1.0219
  334MOL0     H44060  11.560   9.548   5.052  1.1890  1.5730 -1.4551
  334MOL0     H44061  11.432   9.491   4.941  0.6782  0.2522 -0.9066
  334MOL0     H44062  11.523   9.767   5.005  1.0133  0.5148 -2.4592
  334MOL0     H44063  11.370   9.741   4.918  0.4256 -0.7964 -1.7030
  334MOL0     H44064  11.527   9.584   4.761  2.5354 -1.0767 -0.7377
  334MOL0     H44065  11.656   9.659   4.853 -1.1492  0.4063  2.4586
  334MOL0     H44066  11.484   9.831   4.668 -1.2578 -1.7989  0.0379
  334MOL0     H44067  11.638   9.855   4.769  1.6966 -0.9226 -0.5938
  334MOL0     H44068  11.608   9.774   4.506 -0.6598 -1.5949 -0.1548
  334MOL0     H44069  11.634   9.617   4.584 -1.0716 -0.2231  0.5031
  334MOL0     H44070  10.969   9.513   5.404  1.4548 -1.7872 -1.9540
  334MOL0     H44071  10.778   9.446   5.540 -1.0484 -0.8118  0.1484
  334MOL0     H44072  10.472   9.406   5.677  1.4260 -0.9047 -1.4644
  334MOL0     H44073  10.300   9.399   5.873  1.9501  0.8422  0.0359
  334MOL0     H44074  10.791   8.651   6.606  0.1016  1.7098  0.6896
  334MOL0     H44075  10.978   8.777   6.699 -0.5052  0.3077  1.5558
  334MOL0     H44076  11.405   8.874   6.731  0.3000 -0.2135  0.5742
  334MOL0     H44077  11.577   9.037   6.832  2.8812 -0.7537  2.7182
  334MOL0     H44078  11.662   9.020   7.216 -3.7446 -2.1930 -6.0792
  334MOL0     H44079  11.573   9.166   7.263  0.2215 -0.8904  1.2423
  334MOL0     H44080  11.848   9.152   7.136 -0.5313 -0.5662  0.1037
  334MOL0     H44081  11.767   9.306   7.180 -3.8202  1.0969  3.0097
  334MOL0     H44082  11.809   9.084   7.379  1.4053  0.1193  0.3340
  334MOL0     H44083  11.755   9.244   7.422 -1.0637 -3.3466  1.7069
  334MOL0     H44084  12.033   9.209   7.291 -0.6307 -0.5346 -0.1197
  334MOL0     H44085  11.958   9.357   7.311  1.6356  1.6493  1.0619
  334MOL0     H44086  12.034   9.313   7.716 -3.3152  0.1440  0.7054
  334MOL0     H44087  11.421   8.981   7.218  1.0243  0.1051  0.2473
  334MOL0     H44088  11.253   8.823   7.139  0.0935  1.7547  0.4514
  335MOL0     O44089   4.823   0.019  10.884  0.2541 -0.1946  0.0968
  335MOL0     C44090   4.829   0.045  10.760  0.0951 -0.8443  0.1308
  335MOL0     O44091   4.742   0.127  10.688 -0.1987 -0.2153  0.3331
  335MOL0     C44092   4.614   0.133  10.744 -0.8415 -0.1307  0.0713
  335MOL0     C44093   4.565   0.260  10.746  1.5856 -0.0136  0.9844
  335MOL0     C44094   4.439   0.277  10.805  0.0315 -0.7795  0.1654
  335MOL0     C44095   4.374   0.185  10.882 -0.0598 -0.2018  0.0804
  335MOL0     O44096   4.252   0.199  10.950  0.1846 -0.4146 -0.7333
  335MOL0     C44097   4.195   0.088  11.022 -0.2083 -0.3159 -0.3114
  335MOL0     C44098   4.073   0.152  11.096 -0.4352  0.2952  0.0629
  335MOL0     C44099   3.955   0.178  10.998  0.1162  0.6516 -0.6451
  335MOL0     C44100   3.848   0.263  11.071 -0.7014  0.3348  0.0197
  335MOL0     C44101   3.716   0.267  11.001 -0.3777 -1.0173  0.8324
  335MOL0     C44102   3.624   0.353  11.095  0.1787 -0.7597 -0.3036
  335MOL0     C44103   3.473   0.328  11.064  0.1075  0.1430 -0.7035
  335MOL0     C44104   3.383   0.358  11.184 -0.0803  0.2446 -0.1021
  335MOL0     N44105   3.252   0.286  11.164 -0.4127 -0.2286 -0.0416
  335MOL0     C44106   3.166   0.278  11.057  0.2022  0.2578  0.6677
  335MOL0     C44107   3.082   0.174  11.086  0.2257  0.5349  0.1369
  335MOL0     C44108   2.997   0.106  10.973 -0.9831  0.3507 -0.4647
  335MOL0     C44109   2.843   0.110  10.985 -0.2896  0.6779 -0.3500
  335MOL0     C44110   2.801   0.020  11.106  0.8296  0.4142  0.1759
  335MOL0     C44111   2.660  -0.046  11.099 -0.4663  0.9010  0.3647
  335MOL0     O44112   2.549   0.043  11.098 -0.1866 -0.0213  0.2842
  335MOL0     C44113   2.420  -0.002  11.106  0.0586  0.0786 -0.3491
  335MOL0     C44114   2.394  -0.140  11.120  0.6081 -0.3655 -0.0425
  335MOL0     C44115   2.255  -0.177  11.126  0.1839  0.5410  0.4079
  335MOL0     C44116   2.146  -0.088  11.109  0.3620 -0.5702  0.0640
  335MOL0     C44117   2.004  -0.128  11.095 -0.1939 -0.5246  0.8833
  335MOL0     O44118   1.909  -0.027  11.112  0.1292  0.0741  0.3112
  335MOL0     C44119   1.781  -0.068  11.089  0.0112  0.6265  0.0859
  335MOL0     C44120   1.709  -0.138  11.179 -0.1938  0.2194 -0.4137
  335MOL0     C44121   1.583  -0.175  11.155  0.0942  0.6234  0.3642
  335MOL0     C44122   1.522  -0.144  11.030  1.1677 -0.0517 -0.0490
  335MOL0     O44123   1.387  -0.179  11.012 -0.1090 -0.2434 -0.4720
  335MOL0     C44124   1.317  -0.129  10.898  0.9808  0.2194  0.1678
  335MOL0     C44125   1.175  -0.169  10.913  0.1336 -1.3589  0.1587
  335MOL0     C44126   1.085  -0.135  10.790 -0.1501 -0.4144 -1.1528
  335MOL0     C44127   0.943  -0.183  10.818 -0.2086  1.2779 -0.3880
  335MOL0     C44128   0.835  -0.132  10.726 -0.6199  0.0879  0.3007
  335MOL0     C44129   0.697  -0.202  10.745  0.5279  0.2068 -0.2256
  335MOL0     C44130   0.587  -0.147  10.656 -0.0494  0.7745 -0.4816
  335MOL0     C44131   0.443  -0.202  10.666  0.2896 -0.3389 -0.8650
  335MOL0    Cl44132   0.363  -0.165  10.828 -0.3034  0.1576 -0.7985
  335MOL0     C44133   1.588  -0.065  10.939  0.0582  0.5802  0.0662
  335MOL0     C44134   1.721  -0.041  10.961  0.0273  0.2461  0.2073
  335MOL0     O44135   1.982  -0.250  11.072 -0.2728  0.3015  0.4168
  335MOL0     C44136   2.177   0.048  11.095  0.3858  0.1610  0.2672
  335MOL0     C44137   2.316   0.091  11.105  0.1433  0.4880 -0.2567
  335MOL0     N44138   3.104   0.134  11.207  0.7315 -0.1194 -0.0042
  335MOL0     N44139   3.207   0.192  11.252 -0.7170  0.1576  0.0561
  335MOL0     C44140   4.430   0.058  10.885  0.6711  0.2129  0.1114
  335MOL0     C44141   4.542   0.027  10.807 -0.4985  0.2045 -0.4644
  335MOL0     C44142   4.938  -0.017  10.689 -0.1371 -1.2288 -0.5629
  335MOL0     C44143   4.984  -0.139  10.732  0.0115 -0.2064 -0.8355
  335MOL0     C44144   5.082  -0.207  10.665  0.8210 -0.0376 -1.0076
  335MOL0     C44145   5.142  -0.162  10.547  0.0667 -0.3835  0.6634
  335MOL0     O44146   5.237  -0.236  10.472  0.6969  0.0077  0.2743
  335MOL0     C44147   5.333  -0.172  10.396 -0.8678 -0.7725  0.2663
  335MOL0     C44148   5.448  -0.266  10.372 -0.0435 -0.0858 -0.4183
  335MOL0     C44149   5.576  -0.187  10.337 -0.2838  0.2603 -0.5666
  335MOL0     C44150   5.695  -0.288  10.322 -0.0108 -0.5827  0.5484
  335MOL0     C44151   5.695  -0.365  10.197  0.2320 -0.8679 -0.5339
  335MOL0     C44152   5.688  -0.430  10.091  1.0090 -0.7378 -0.6433
  335MOL0     C44153   5.099  -0.035  10.501 -0.9259  0.7012  0.4329
  335MOL0     C44154   5.001   0.038  10.572  0.2083 -0.2718  0.0994
  335MOL0     H44155   4.607   0.341  10.688  2.6790 -1.9939 -1.1541
  335MOL0     H44156   4.384   0.370  10.801 -0.0990 -0.8303  0.7785
  335MOL0     H44157   4.256   0.044  11.101 -1.2411 -4.1843 -1.4380
  335MOL0     H44158   4.161   0.011  10.952  0.0480  0.9546 -1.8854
  335MOL0     H44159   4.103   0.249  11.137  1.2197 -1.0494  2.2704
  335MOL0     H44160   4.040   0.092  11.181 -0.9364 -0.6375 -0.7686
  335MOL0     H44161   3.904   0.089  10.958  0.4269  1.1306 -2.1941
  335MOL0     H44162   3.988   0.226  10.905  0.0782  1.4020 -0.2813
  335MOL0     H44163   3.822   0.207  11.161 -0.1983 -1.1515 -0.7190
  335MOL0     H44164   3.893   0.358  11.100  1.5991 -0.1154 -1.7424
  335MOL0     H44165   3.673   0.171  10.972  1.2580 -0.5698 -4.0683
  335MOL0     H44166   3.711   0.333  10.913  0.3498 -1.8152  0.1841
  335MOL0     H44167   3.653   0.458  11.088 -0.9754 -0.0364  3.6166
  335MOL0     H44168   3.634   0.322  11.199 -3.0134 -2.0317 -0.2651
  335MOL0     H44169   3.444   0.378  10.970 -2.2734 -0.2285 -0.2339
  335MOL0     H44170   3.465   0.220  11.047  0.5078 -0.0977  0.5617
  335MOL0     H44171   3.380   0.467  11.192 -0.1876  0.1587  1.0888
  335MOL0     H44172   3.434   0.333  11.277 -1.8978  0.5570  1.0426
  335MOL0     H44173   3.182   0.325  10.961  0.1806 -1.0265  0.0167
  335MOL0     H44174   3.043   0.009  10.953  2.0146  1.4262  0.5996
  335MOL0     H44175   3.031   0.162  10.886  0.3812 -0.1839 -0.2960
  335MOL0     H44176   2.794   0.072  10.895 -0.5045 -1.5214  0.6419
  335MOL0     H44177   2.799   0.210  10.991  1.0694  1.4652 -2.4215
  335MOL0     H44178   2.872  -0.062  11.114  0.9916  0.5957  0.6759
  335MOL0     H44179   2.803   0.080  11.198  3.7028  0.8147 -0.0621
  335MOL0     H44180   2.647  -0.117  11.182 -3.1285  0.5419 -0.2508
  335MOL0     H44181   2.649  -0.100  11.004 -0.0067  1.9966 -0.3264
  335MOL0     H44182   2.467  -0.217  11.143 -0.1514 -1.7917 -2.0929
  335MOL0     H44183   2.231  -0.281  11.144  0.7374  0.5554  1.2901
  335MOL0     H44184   1.762  -0.180  11.264 -0.1849 -3.5867 -2.0714
  335MOL0     H44185   1.527  -0.221  11.236 -2.4361 -0.5805 -1.9150
  335MOL0     H44186   1.354  -0.170  10.804 -3.3709 -1.3202 -1.1320
  335MOL0     H44187   1.326  -0.020  10.899  0.4743  0.2678  0.0903
  335MOL0     H44188   1.139  -0.121  11.004 -1.6406 -1.8937 -0.2222
  335MOL0     H44189   1.167  -0.276  10.933  0.5907 -1.3914  0.1798
  335MOL0     H44190   1.137  -0.186  10.708  1.3021  1.7665 -1.6754
  335MOL0     H44191   1.082  -0.029  10.765 -0.0893 -0.5479 -1.7597
  335MOL0     H44192   0.940  -0.292  10.826  1.2328  1.1578 -1.1676
  335MOL0     H44193   0.908  -0.150  10.916  0.5500 -3.4537  1.7268
  335MOL0     H44194   0.870  -0.155  10.625 -3.2432  0.0069 -0.6786
  335MOL0     H44195   0.824  -0.024  10.738 -1.3920  0.4115 -2.5034
  335MOL0     H44196   0.671  -0.196  10.851  2.5402  0.6673  0.2733
  335MOL0     H44197   0.702  -0.310  10.727 -0.5372  0.3873 -1.7853
  335MOL0     H44198   0.579  -0.042  10.684  2.2310  0.2502  2.6124
  335MOL0     H44199   0.614  -0.162  10.551  2.0708  0.8725 -0.0015
  335MOL0     H44200   0.438  -0.309  10.645 -0.3041 -0.2903 -0.9887
  335MOL0     H44201   0.379  -0.157  10.589 -2.2586 -1.3805  0.4915
  335MOL0     H44202   1.544  -0.039  10.843 -0.9117 -0.6844  0.1525
  335MOL0     H44203   1.778   0.004  10.881 -0.1564 -1.2496 -0.8114
  335MOL0     H44204   2.096   0.119  11.085  1.1822  0.9490 -0.7228
  335MOL0     H44205   2.327   0.198  11.090 -0.2532  0.1530 -3.6519
  335MOL0     H44206   4.396  -0.023  10.949  2.8656 -1.5485 -0.8087
  335MOL0     H44207   4.582  -0.073  10.810  0.8468  0.7492  1.6283
  335MOL0     H44208   4.930  -0.186  10.814  0.7405 -1.0837 -0.8451
  335MOL0     H44209   5.095  -0.305  10.710 -1.1154  0.3833  0.6611
  335MOL0     H44210   5.384  -0.089  10.446 -1.4086  1.7655 -3.0380
  335MOL0     H44211   5.293  -0.134  10.302  2.6471  1.5273 -0.4662
  335MOL0     H44212   5.480  -0.311  10.466  1.2756  0.4239 -0.6005
  335MOL0     H44213   5.415  -0.341  10.299  0.1729 -0.5840 -0.0137
  335MOL0     H44214   5.603  -0.127  10.424  1.3775 -0.1251 -0.7982
  335MOL0     H44215   5.569  -0.123  10.249  1.7643  1.6372  0.2041
  335MOL0     H44216   5.791  -0.236  10.327  0.5236 -1.1759 -1.9917
  335MOL0     H44217   5.705  -0.347  10.414 -1.7563  2.2438  2.7341
  335MOL0     H44218   5.676  -0.488  10.001 -3.5507 -2.0399  0.5128
  335MOL0     H44219   5.144   0.006  10.410 -1.5537 -0.2207 -0.3091
  335MOL0     H44220   4.967   0.134  10.533 -0.4168 -0.4147  0.2831
  336MOL0     O44221   2.830  10.272   5.323  0.2831 -0.1722  0.3360
  336MOL0     C44222   2.861  10.276   5.444 -0.1077  0.0849  0.3336
  336MOL0     O44223   2.777  10.237   5.546  0.5836  0.0062 -0.4060
  336MOL0     C44224   2.646  10.205   5.540  0.5851 -0.1310  0.5467
  336MOL0     C44225   2.564  10.178   5.432 -0.0046  0.9067  0.7493
  336MOL0     C44226   2.435  10.140   5.444  0.5806 -0.2378 -0.1982
  336MOL0     C44227   2.374  10.146   5.570  0.5307  1.1038 -0.6064
  336MOL0     O44228   2.242  10.103   5.595  0.5840 -0.2482  0.6095
  336MOL0     C44229   2.148  10.109   5.481 -0.1467 -0.1686 -0.6961
  336MOL0     C44230   2.006  10.095   5.529  0.0782 -0.0682  0.4490
  336MOL0     C44231   1.910  10.077   5.417 -0.0024  0.5394  0.2070
  336MOL0     C44232   1.909   9.945   5.341 -0.9909 -0.6085 -0.2020
  336MOL0     C44233   1.808   9.940   5.226  0.6573  1.0746 -0.7936
  336MOL0     C44234   1.670   9.914   5.283 -1.1701 -0.2660 -0.7153
  336MOL0     C44235   1.560   9.903   5.182 -0.1160  0.2838  0.3701
  336MOL0     C44236   1.424   9.892   5.235  0.3324  0.3763 -0.4536
  336MOL0     N44237   1.386   9.763   5.305  0.6601  1.1018 -0.0489
  336MOL0     C44238   1.291   9.674   5.266 -0.9488  0.1369 -0.0893
  336MOL0     C44239   1.276   9.594   5.370 -0.1345  0.2531  0.3145
  336MOL0     C44240   1.183   9.475   5.360  0.6947 -0.4515  0.5712
  336MOL0     C44241   1.041   9.525   5.318  0.1888 -0.2760 -0.7318
  336MOL0     C44242   0.967   9.614   5.417  0.8221  0.8769  0.0458
  336MOL0     C44243   0.817   9.621   5.398 -0.3488 -0.8434  0.3467
  336MOL0     O44244   0.755   9.671   5.520 -0.3989 -0.1246 -0.1089
  336MOL0     C44245   0.617   9.710   5.521 -0.7090  0.8771  0.6195
  336MOL0     C44246   0.534   9.713   5.404 -0.4761  0.0705  0.5986
  336MOL0     C44247   0.402   9.757   5.412  0.1632  0.3977 -0.1346
  336MOL0     C44248   0.349   9.800   5.538 -1.3104  0.1167  0.8598
  336MOL0     C44249   0.209   9.838   5.554 -0.2889 -0.6247  0.7160
  336MOL0     O44250   0.126   9.789   5.459  0.2037  0.3180  0.4700
  336MOL0     C44251  -0.009   9.813   5.460 -0.3981  0.4217  0.1407
  336MOL0     C44252  -0.096   9.746   5.550 -0.9601  0.0805 -0.5785
  336MOL0     C44253  -0.235   9.747   5.534 -0.3575 -0.0243 -0.1849
  336MOL0     C44254  -0.292   9.812   5.431 -0.3438 -0.2714  0.1200
  336MOL0     O44255  -0.425   9.820   5.426 -0.1304 -0.2014 -0.7150
  336MOL0     C44256  -0.485   9.845   5.290  0.4725 -0.3272 -0.5416
  336MOL0     C44257  -0.641   9.818   5.292  0.5138  0.0830  0.6239
  336MOL0     C44258  -0.693   9.836   5.160 -0.5224 -0.1128  0.2525
  336MOL0     C44259  -0.844   9.809   5.159  0.9777 -0.5094  0.1653
  336MOL0     C44260  -0.876   9.661   5.153  0.6258 -0.5450  0.1172
  336MOL0     C44261  -1.023   9.643   5.129  0.1379 -0.0281 -1.3187
  336MOL0     C44262  -1.067   9.498   5.140  0.4471 -0.8047  1.2090
  336MOL0     C44263  -1.196   9.468   5.071 -0.1833  0.7520 -0.6486
  336MOL0    Cl44264  -1.265   9.337   5.180  0.3982  0.5047 -0.3142
  336MOL0     C44265  -0.206   9.881   5.326 -0.0085 -0.5564 -0.6705
  336MOL0     C44266  -0.073   9.872   5.347  0.3335 -0.2654  0.4498
  336MOL0     O44267   0.176   9.922   5.637 -0.7109  0.0695  0.1089
  336MOL0     C44268   0.435   9.794   5.649  0.5171 -0.2799 -0.0176
  336MOL0     C44269   0.567   9.746   5.642  0.4262 -0.8029  0.4865
  336MOL0     N44270   1.360   9.627   5.469  0.2548 -0.2594 -0.6911
  336MOL0     N44271   1.430   9.728   5.431  0.0756 -0.2889 -0.1106
  336MOL0     C44272   2.451  10.189   5.683 -0.6767  0.0034  0.8929
  336MOL0     C44273   2.591  10.213   5.666 -0.1259  0.8122 -0.2521
  336MOL0     C44274   2.974  10.350   5.477  0.2633  0.4603  0.4624
  336MOL0     C44275   2.973  10.432   5.591 -0.9183  0.1873 -0.1885
  336MOL0     C44276   3.083  10.508   5.619  0.7358 -0.4258  0.1532
  336MOL0     C44277   3.190  10.521   5.533 -0.2406  0.3706 -0.4277
  336MOL0     O44278   3.306  10.589   5.568 -0.9396  0.3025 -0.4731
  336MOL0     C44279   3.301  10.718   5.637  0.3951  0.5582  0.2199
  336MOL0     C44280   3.442  10.758   5.679  0.5875 -0.0048  0.6064
  336MOL0     C44281   3.545  10.765   5.556  0.1676  0.5416 -0.8951
  336MOL0     C44282   3.687  10.785   5.604 -0.6133  0.2082 -0.0805
  336MOL0     C44283   3.740  10.679   5.687  0.3732  0.8289 -0.3272
  336MOL0     C44284   3.772  10.591   5.763  0.0413  0.3323  1.0418
  336MOL0     C44285   3.200  10.438   5.421 -0.5538  0.0095  0.5288
  336MOL0     C44286   3.092  10.354   5.392  0.0254 -0.1036  0.2757
  336MOL0     H44287   2.610  10.186   5.334  1.4894 -1.5561  1.1647
  336MOL0     H44288   2.383  10.110   5.353  1.0604  3.3469 -1.8228
  336MOL0     H44289   2.170  10.029   5.410 -3.3697 -0.1132 -1.8929
  336MOL0     H44290   2.167  10.206   5.434 -2.0879  0.8595  0.5327
  336MOL0     H44291   1.979  10.184   5.586 -1.4701 -0.9476  1.1416
  336MOL0     H44292   1.993  10.011   5.597 -0.5765  1.3113  2.0826
  336MOL0     H44293   1.928  10.157   5.346  0.5400 -2.0331 -2.7834
  336MOL0     H44294   1.814  10.089   5.467 -0.0864  0.1967  0.1355
  336MOL0     H44295   2.010   9.922   5.306 -0.8290  0.3408 -0.3825
  336MOL0     H44296   1.892   9.865   5.414 -0.5359 -0.7704 -0.2747
  336MOL0     H44297   1.839   9.863   5.154 -1.2316  1.1836 -1.7816
  336MOL0     H44298   1.813  10.031   5.165 -0.9223  1.5077 -0.3118
  336MOL0     H44299   1.642   9.990   5.357 -1.9163 -0.1182 -1.1469
  336MOL0     H44300   1.678   9.823   5.342  2.3726  0.1910 -0.2594
  336MOL0     H44301   1.563   9.998   5.127  2.6616 -0.1658 -0.4245
  336MOL0     H44302   1.573   9.813   5.122  0.0762 -0.7779  1.9329
  336MOL0     H44303   1.352   9.912   5.155  0.1043  2.2478  0.1757
  336MOL0     H44304   1.406   9.968   5.311 -1.2651 -0.8361  0.4432
  336MOL0     H44305   1.250   9.662   5.166 -2.9101  0.8046  0.5860
  336MOL0     H44306   1.174   9.431   5.459  2.0463 -1.4612  0.2890
  336MOL0     H44307   1.238   9.408   5.292  2.0882  1.6313 -0.4630
  336MOL0     H44308   0.990   9.430   5.304 -0.5200  0.2311 -1.6856
  336MOL0     H44309   1.037   9.578   5.223 -0.1553  1.5530  0.2484
  336MOL0     H44310   0.968   9.574   5.519 -5.3040 -1.0453 -0.2720
  336MOL0     H44311   1.015   9.712   5.409 -0.4316  1.4400 -0.7676
  336MOL0     H44312   0.781   9.518   5.390 -2.0781 -0.3520  1.4015
  336MOL0     H44313   0.795   9.678   5.307  0.5352 -3.0058 -1.3287
  336MOL0     H44314   0.577   9.690   5.307  0.2454 -1.5633  1.2609
  336MOL0     H44315   0.340   9.758   5.323 -2.0792  1.6763  1.3404
  336MOL0     H44316  -0.054   9.701   5.640  0.8018  2.9943  0.2122
  336MOL0     H44317  -0.304   9.694   5.599 -1.6921  0.7164 -0.9602
  336MOL0     H44318  -0.442   9.775   5.218 -2.2905 -2.0708 -0.6673
  336MOL0     H44319  -0.458   9.946   5.258 -0.9099  0.2875  0.1177
  336MOL0     H44320  -0.692   9.882   5.364  0.8374 -0.8944  1.7610
  336MOL0     H44321  -0.654   9.713   5.320 -0.5235  0.1036  0.2621
  336MOL0     H44322  -0.639   9.773   5.089  0.1618  0.6969  0.0551
  336MOL0     H44323  -0.673   9.942   5.143 -3.3815  0.3895 -0.5578
  336MOL0     H44324  -0.893   9.873   5.233  0.5228  0.1349 -0.6713
  336MOL0     H44325  -0.888   9.851   5.068 -2.8961  1.9297  2.9004
  336MOL0     H44326  -0.850   9.612   5.248 -0.8388 -0.0218  0.8236
  336MOL0     H44327  -0.812   9.631   5.070  1.1866  2.6803 -0.7249
  336MOL0     H44328  -1.051   9.698   5.038  2.3806  3.9336  0.1559
  336MOL0     H44329  -1.071   9.705   5.205 -0.7007 -1.7060 -0.4261
  336MOL0     H44330  -0.989   9.444   5.085  1.6626 -0.8197  2.8892
  336MOL0     H44331  -1.043   9.467   5.242  1.8488 -1.8568  0.5945
  336MOL0     H44332  -1.163   9.412   4.983  1.7154 -1.3802  1.2788
  336MOL0     H44333  -1.260   9.550   5.039  0.8452  2.4640  1.4372
  336MOL0     H44334  -0.241   9.932   5.236 -0.2957  1.3076  0.4462
  336MOL0     H44335  -0.012   9.916   5.269 -3.7675  1.6800 -2.0057
  336MOL0     H44336   0.394   9.806   5.749  1.1386 -1.0868  0.3387
  336MOL0     H44337   0.629   9.740   5.731 -3.7975  0.0799  3.8001
  336MOL0     H44338   2.396  10.203   5.775 -1.8116 -2.4657  0.6537
  336MOL0     H44339   2.648  10.245   5.752  2.3621 -0.3214 -1.3587
  336MOL0     H44340   2.889  10.437   5.659 -0.1085 -1.0030  0.9381
  336MOL0     H44341   3.082  10.567   5.710 -4.2026 -0.2436  0.2412
  336MOL0     H44342   3.242  10.716   5.730  0.5642  1.4601  0.3561
  336MOL0     H44343   3.259  10.796   5.573  0.4016 -0.6396 -1.3006
  336MOL0     H44344   3.429  10.859   5.720  0.2423  1.4275 -2.6786
  336MOL0     H44345   3.485  10.695   5.758  1.7498  0.4334  0.3556
  336MOL0     H44346   3.526  10.863   5.511 -0.4481  0.7691 -0.1689
  336MOL0     H44347   3.528  10.683   5.486 -2.7809  3.7692 -4.3510
  336MOL0     H44348   3.752  10.779   5.517  0.0432 -1.0477  0.4556
  336MOL0     H44349   3.697  10.882   5.653 -0.1970 -0.4361  1.1793
  336MOL0     H44350   3.795  10.513   5.833  0.7852 -0.3494  0.0594
  336MOL0     H44351   3.291  10.445   5.363  0.8159 -0.8767  2.4762
  336MOL0     H44352   3.091  10.295   5.301 -0.2109 -0.4273  0.4859
  337MOL0     O44353   9.308   1.975   7.084  0.2335  0.6893 -0.1253
  337MOL0     C44354   9.353   1.982   7.199  1.0611  1.0237 -0.3421
  337MOL0     O44355   9.284   1.989   7.315  0.0145 -0.3215  0.2461
  337MOL0     C44356   9.148   1.978   7.304  0.2404  0.0898  0.3760
  337MOL0     C44357   9.082   1.870   7.363  0.1614  0.2694  0.4403
  337MOL0     C44358   8.945   1.856   7.338 -0.8910 -0.0662 -0.3682
  337MOL0     C44359   8.866   1.948   7.279 -0.0637 -0.2138 -0.3181
  337MOL0     O44360   8.734   1.924   7.271  1.0877  0.5774  0.1316
  337MOL0     C44361   8.646   2.036   7.292 -0.0260 -0.5435 -0.0974
  337MOL0     C44362   8.506   1.996   7.341 -0.4666  0.4745 -0.3001
  337MOL0     C44363   8.416   2.110   7.398 -0.0674 -0.1890  1.2425
  337MOL0     C44364   8.287   2.077   7.461  0.1429 -0.9419  0.4636
  337MOL0     C44365   8.194   2.208   7.472  0.1884 -0.3722  0.8934
  337MOL0     C44366   8.075   2.195   7.363 -0.0556 -0.1070 -0.3057
  337MOL0     C44367   7.977   2.069   7.380  0.5884  0.2059 -0.1102
  337MOL0     C44368   7.866   2.061   7.276  0.2080  0.0197  0.0078
  337MOL0     N44369   7.755   2.165   7.286  0.3339 -0.4944  0.3187
  337MOL0     C44370   7.732   2.268   7.194  0.3278 -0.5591  0.7840
  337MOL0     C44371   7.629   2.348   7.243  0.7228  0.5787  0.3638
  337MOL0     C44372   7.584   2.486   7.196 -0.1492 -0.2264  0.8003
  337MOL0     C44373   7.667   2.597   7.255  0.2299  0.2610 -0.1408
  337MOL0     C44374   7.632   2.742   7.211 -0.1466  0.8032  0.9136
  337MOL0     C44375   7.508   2.794   7.275  0.6618 -0.9751  0.4863
  337MOL0     O44376   7.506   2.939   7.258 -0.6113  0.3684  0.5528
  337MOL0     C44377   7.394   3.022   7.276  0.3297  0.8674  0.0503
  337MOL0     C44378   7.381   3.123   7.180 -0.0366  0.0329 -0.2973
  337MOL0     C44379   7.269   3.207   7.192 -0.4963 -0.1840  0.5191
  337MOL0     C44380   7.166   3.178   7.277 -0.2989  1.1780 -0.7299
  337MOL0     C44381   7.030   3.241   7.269 -0.1395 -0.0325 -0.9864
  337MOL0     O44382   6.928   3.195   7.338 -0.0733 -0.2079 -0.7956
  337MOL0     C44383   6.801   3.260   7.335 -0.2489  0.4852  0.1523
  337MOL0     C44384   6.718   3.240   7.447  0.9111 -0.3429 -0.8319
  337MOL0     C44385   6.588   3.284   7.457  0.0567  0.8997 -0.3278
  337MOL0     C44386   6.526   3.337   7.347  0.7151 -0.7052  0.4587
  337MOL0     O44387   6.400   3.401   7.343  0.4573 -0.1367  0.0085
  337MOL0     C44388   6.308   3.364   7.441  0.0521 -0.6537 -0.0415
  337MOL0     C44389   6.172   3.438   7.413 -0.4614 -0.4880  0.7211
  337MOL0     C44390   6.100   3.439   7.551 -0.4394 -0.5659  0.3879
  337MOL0     C44391   5.959   3.504   7.526  0.9565 -0.2695  0.6729
  337MOL0     C44392   5.861   3.502   7.634  0.6106 -0.1448 -0.4302
  337MOL0     C44393   5.818   3.359   7.683 -0.5231  0.6833  0.3925
  337MOL0     C44394   5.706   3.357   7.797 -0.2079 -0.5010  0.3103
  337MOL0     C44395   5.660   3.215   7.817  0.8375  0.7047 -0.7786
  337MOL0    Cl44396   5.518   3.235   7.921  0.1143 -0.1043  0.1648
  337MOL0     C44397   6.604   3.368   7.230  0.5130  0.2034 -0.3379
  337MOL0     C44398   6.742   3.325   7.224 -0.1926 -0.5964  0.0823
  337MOL0     O44399   7.029   3.335   7.195  0.2195 -0.4788  0.2807
  337MOL0     C44400   7.183   3.076   7.370 -0.2075 -0.4119 -0.7110
  337MOL0     C44401   7.293   2.990   7.367 -0.6513 -0.5439 -0.3170
  337MOL0     N44402   7.577   2.274   7.350  0.0644 -0.6367  0.1667
  337MOL0     N44403   7.652   2.172   7.378  0.5485  0.1325  0.6637
  337MOL0     C44404   8.928   2.067   7.234  0.1533  0.2620 -0.4997
  337MOL0     C44405   9.074   2.075   7.244  0.7525 -0.7218  0.5831
  337MOL0     C44406   9.504   1.968   7.213 -0.0025 -0.1892 -0.2396
  337MOL0     C44407   9.565   1.982   7.340  0.4041  0.3609  0.9805
  337MOL0     C44408   9.706   1.977   7.343  0.4730  0.4098  0.2638
  337MOL0     C44409   9.782   1.938   7.232  0.1338 -1.5453  0.5734
  337MOL0     O44410   9.913   1.950   7.248  0.0994  0.6805 -0.3123
  337MOL0     C44411   9.997   1.896   7.149 -0.4774  0.2811 -0.6421
  337MOL0     C44412  10.033   2.004   7.042  0.7112  0.1983  0.6104
  337MOL0     C44413  10.070   2.137   7.107  0.6003  0.1306  0.3018
  337MOL0     C44414  10.109   2.239   7.007  0.4755  0.3241  0.4087
  337MOL0     C44415   9.982   2.293   6.951  0.3485 -0.3549 -0.7758
  337MOL0     C44416   9.868   2.318   6.918 -0.1475 -0.5226 -0.0837
  337MOL0     C44417   9.717   1.921   7.111  0.0652  0.2692 -0.4574
  337MOL0     C44418   9.586   1.935   7.102  0.5825 -0.5594  0.7662
  337MOL0     H44419   9.131   1.794   7.423  0.0880  0.9052  1.3236
  337MOL0     H44420   8.899   1.763   7.368  1.7166 -1.7114 -1.1242
  337MOL0     H44421   8.634   2.109   7.211 -0.8274 -1.4472 -0.8235
  337MOL0     H44422   8.681   2.098   7.375 -1.0726  0.5259 -0.4259
  337MOL0     H44423   8.513   1.915   7.415  0.1070  1.4770  0.7897
  337MOL0     H44424   8.447   1.955   7.259 -1.0206  1.0892 -0.2175
  337MOL0     H44425   8.387   2.168   7.310 -1.3215 -0.4386  1.4598
  337MOL0     H44426   8.474   2.170   7.468  0.5895  0.7130 -0.0609
  337MOL0     H44427   8.243   1.994   7.405 -0.4680 -0.1044 -0.3346
  337MOL0     H44428   8.295   2.039   7.563  3.2578  2.4133  1.7083
  337MOL0     H44429   8.259   2.294   7.452  0.8589 -1.2377 -0.8556
  337MOL0     H44430   8.168   2.220   7.578 -0.4574 -3.1228  1.1222
  337MOL0     H44431   8.123   2.204   7.266 -2.1929 -1.1190 -1.5280
  337MOL0     H44432   8.010   2.281   7.381 -1.3496 -1.0585 -0.2607
  337MOL0     H44433   8.033   1.976   7.368  0.5136  0.0050  0.9665
  337MOL0     H44434   7.937   2.065   7.482  3.8376 -1.0199  1.2635
  337MOL0     H44435   7.809   1.967   7.277 -0.6552  0.4966 -1.3370
  337MOL0     H44436   7.912   2.075   7.178 -1.1721  1.0613 -0.5297
  337MOL0     H44437   7.794   2.301   7.111  1.0560  3.3306  2.6449
  337MOL0     H44438   7.478   2.491   7.222  0.0484 -1.3564  1.9637
  337MOL0     H44439   7.597   2.494   7.088 -0.1172 -1.0410  0.7375
  337MOL0     H44440   7.767   2.574   7.220  0.3170 -0.6454  0.6590
  337MOL0     H44441   7.672   2.586   7.364 -0.2991 -0.0217 -0.1419
  337MOL0     H44442   7.723   2.795   7.240  3.2196 -2.8960 -1.7465
  337MOL0     H44443   7.623   2.744   7.102 -5.1364  0.7552  1.0723
  337MOL0     H44444   7.517   2.764   7.380 -0.6458 -0.0274  0.9010
  337MOL0     H44445   7.414   2.761   7.230  1.3558  1.0003 -2.7174
  337MOL0     H44446   7.444   3.123   7.091 -3.1016 -0.8832 -2.6283
  337MOL0     H44447   7.250   3.284   7.118  4.6281  0.7679 -0.1947
  337MOL0     H44448   6.770   3.195   7.531  4.9664 -1.0477 -3.4310
  337MOL0     H44449   6.536   3.282   7.553  0.5782  1.9207 -0.0101
  337MOL0     H44450   6.344   3.391   7.540  0.3910 -3.0597  0.5394
  337MOL0     H44451   6.301   3.255   7.437  3.9225 -1.0665  0.4221
  337MOL0     H44452   6.116   3.391   7.332 -0.5448  2.8431 -1.3163
  337MOL0     H44453   6.204   3.540   7.390 -0.3979  0.1507  3.2897
  337MOL0     H44454   6.152   3.497   7.628 -1.1228 -0.3010  0.6558
  337MOL0     H44455   6.094   3.336   7.586  1.6189 -1.3832 -1.4486
  337MOL0     H44456   5.979   3.606   7.493 -1.7051 -0.0655 -0.5862
  337MOL0     H44457   5.915   3.457   7.438 -0.1488  0.9739  0.5430
  337MOL0     H44458   5.771   3.555   7.601  1.0460  2.0742  1.6601
  337MOL0     H44459   5.906   3.559   7.716 -1.0096 -0.5803  0.8021
  337MOL0     H44460   5.905   3.303   7.718 -0.2105  0.6834 -0.3706
  337MOL0     H44461   5.791   3.298   7.596 -2.5923 -2.2271  2.8666
  337MOL0     H44462   5.757   3.387   7.888  0.2363 -0.8821  0.1866
  337MOL0     H44463   5.629   3.430   7.768 -0.2691 -1.0449 -0.9473
  337MOL0     H44464   5.741   3.146   7.844  2.2622  1.6039 -2.4970
  337MOL0     H44465   5.623   3.178   7.721  1.7718 -3.1516  0.1762
  337MOL0     H44466   6.568   3.418   7.141  1.0165  0.6660 -0.2964
  337MOL0     H44467   6.803   3.335   7.135  1.0715 -1.4631  0.8205
  337MOL0     H44468   7.107   3.050   7.443  1.8455 -0.7425  1.4437
  337MOL0     H44469   7.298   2.920   7.450 -0.7262  2.0109  1.9903
  337MOL0     H44470   8.875   2.149   7.186 -0.7666 -1.3355 -2.3420
  337MOL0     H44471   9.125   2.168   7.218  0.3452 -0.3003  1.2435
  337MOL0     H44472   9.513   2.011   7.431  0.6799  0.1967  1.1944
  337MOL0     H44473   9.750   2.003   7.438 -0.0847 -2.2705  1.3191
  337MOL0     H44474   9.951   1.808   7.104 -1.0602 -0.3354  1.0640
  337MOL0     H44475  10.085   1.869   7.207 -1.4541 -0.2318  0.6557
  337MOL0     H44476  10.113   1.966   6.978 -0.6778  0.2990 -1.2653
  337MOL0     H44477   9.941   2.032   6.990 -0.2151 -0.5651  1.7923
  337MOL0     H44478  10.163   2.122   7.163  0.3101  1.1575  1.0876
  337MOL0     H44479   9.990   2.173   7.172 -2.0359 -1.5634 -1.8183
  337MOL0     H44480  10.188   2.303   7.045  3.0264 -2.4747  0.1927
  337MOL0     H44481  10.162   2.203   6.918  2.7118  3.2346  0.4350
  337MOL0     H44482   9.762   2.324   6.902 -1.0338 -1.6703  3.9851
  337MOL0     H44483   9.771   1.897   7.019 -0.6091  1.9118 -1.3178
  337MOL0     H44484   9.539   1.904   7.010  1.7246 -2.7754  0.8643
  338MOL0     O44485   9.791   5.343  10.864 -0.2524  0.0797  0.0412
  338MOL0     C44486   9.806   5.429  10.779  0.3664  0.1591 -0.0684
  338MOL0     O44487   9.712   5.489  10.699 -0.2505 -0.2181 -0.1591
  338MOL0     C44488   9.580   5.472  10.724  0.7553 -0.7658 -0.2282
  338MOL0     C44489   9.515   5.361  10.766  0.3235  1.0640  1.1210
  338MOL0     C44490   9.378   5.361  10.779  0.1447 -0.6766 -0.2126
  338MOL0     C44491   9.306   5.473  10.744  0.0322  0.6387 -0.7913
  338MOL0     O44492   9.169   5.466  10.739  0.3023 -0.0378  0.3133
  338MOL0     C44493   9.094   5.399  10.829  0.9571 -0.7262 -1.0666
  338MOL0     C44494   8.955   5.395  10.774 -0.1540  0.7684 -0.0634
  338MOL0     C44495   8.879   5.511  10.838 -0.3473  0.0643 -0.0313
  338MOL0     C44496   8.744   5.539  10.773 -1.2979 -0.4855  0.6325
  338MOL0     C44497   8.638   5.430  10.790 -0.5873 -0.2946 -0.6166
  338MOL0     C44498   8.520   5.460  10.692  0.4234 -0.1948 -0.4625
  338MOL0     C44499   8.389   5.398  10.741  0.0037 -0.3501  0.0919
  338MOL0     C44500   8.370   5.260  10.714 -0.3605 -0.0697  0.0000
  338MOL0     N44501   8.239   5.205  10.734  0.4018  0.0213 -0.0893
  338MOL0     C44502   8.125   5.252  10.680  0.3840 -0.6442  0.6623
  338MOL0     C44503   8.022   5.195  10.746 -0.3696  0.5196  0.0779
  338MOL0     C44504   7.883   5.221  10.726  0.3840 -0.2739 -0.6972
  338MOL0     C44505   7.838   5.329  10.832  0.5111 -0.4366  0.1380
  338MOL0     C44506   7.700   5.386  10.797  0.2392 -0.7717 -1.2503
  338MOL0     C44507   7.597   5.283  10.787  0.0745  1.0248 -0.4385
  338MOL0     O44508   7.474   5.362  10.802  0.5688  0.7347  0.9859
  338MOL0     C44509   7.354   5.316  10.735 -0.2362  1.0802 -0.5295
  338MOL0     C44510   7.226   5.327  10.795  0.1187 -1.0451 -0.1902
  338MOL0     C44511   7.108   5.286  10.744 -0.3891 -0.7467 -0.8165
  338MOL0     C44512   7.102   5.240  10.616 -0.2246  0.0510  0.2581
  338MOL0     C44513   6.977   5.193  10.558 -0.0884 -0.5848 -0.3957
  338MOL0     O44514   6.974   5.215  10.424 -0.6967 -0.2042 -0.3360
  338MOL0     C44515   6.874   5.172  10.344 -0.0043  0.5010  0.0573
  338MOL0     C44516   6.740   5.194  10.370  0.5553 -0.6368 -0.6161
  338MOL0     C44517   6.625   5.148  10.297 -0.0586  0.4008 -0.5866
  338MOL0     C44518   6.644   5.079  10.186  0.1409  0.7750 -0.1239
  338MOL0     O44519   6.533   5.036  10.119  0.3385  0.1364  0.8906
  338MOL0     C44520   6.530   4.986   9.980  0.3043  0.5262  0.7880
  338MOL0     C44521   6.577   5.104   9.888 -0.2707  0.4568  0.3309
  338MOL0     C44522   6.483   5.229   9.890 -0.2858 -0.1792 -0.0780
  338MOL0     C44523   6.355   5.195   9.816 -0.7005 -0.1387  0.2174
  338MOL0     C44524   6.269   5.313   9.781 -0.2858 -0.1669 -0.5623
  338MOL0     C44525   6.123   5.281   9.740  0.2762 -0.0361 -0.1684
  338MOL0     C44526   6.042   5.400   9.707 -0.2276 -0.0312 -0.2801
  338MOL0     C44527   5.895   5.371   9.702  0.2372  0.4632 -0.6948
  338MOL0    Cl44528   5.822   5.296   9.856  0.1607 -0.6294  0.0620
  338MOL0     C44529   6.781   5.052  10.148  0.6819 -0.0583  0.2343
  338MOL0     C44530   6.892   5.096  10.227 -0.1418  0.3146 -0.6720
  338MOL0     O44531   6.884   5.161  10.630  0.0847  1.0050 -0.0494
  338MOL0     C44532   7.219   5.220  10.545 -0.8583  0.1051 -1.3339
  338MOL0     C44533   7.345   5.257  10.604 -0.4745 -0.4713  0.1095
  338MOL0     N44534   8.081   5.114  10.839  0.2958  0.7288  0.6086
  338MOL0     N44535   8.210   5.116  10.835 -1.0507  0.1997 -0.0617
  338MOL0     C44536   9.364   5.587  10.705  0.5272 -0.9403  0.0945
  338MOL0     C44537   9.505   5.590  10.693 -0.1305  0.8187 -0.0063
  338MOL0     C44538   9.944   5.454  10.746  1.0741 -0.1719  0.3101
  338MOL0     C44539   9.971   5.553  10.649 -0.1914 -0.0906 -0.1875
  338MOL0     C44540  10.106   5.587  10.624  0.1278 -0.5126 -0.1750
  338MOL0     C44541  10.207   5.530  10.694 -0.2051 -1.0056 -0.3310
  338MOL0     O44542  10.339   5.550  10.661  0.1464  0.6110 -0.1758
  338MOL0     C44543  10.373   5.451  10.564  0.2512  0.6079  0.0687
  338MOL0     C44544  10.523   5.430  10.540  0.2296 -0.1276  0.6529
  338MOL0     C44545  10.590   5.554  10.486 -0.6992 -0.4657  0.4736
  338MOL0     C44546  10.722   5.517  10.420  0.1363  0.0236  0.6852
  338MOL0     C44547  10.805   5.635  10.381 -0.1077 -0.2275 -0.2018
  338MOL0     C44548  10.882   5.724  10.352 -0.6370  0.6257 -0.5780
  338MOL0     C44549  10.184   5.452  10.800  0.3359  0.0047 -0.7445
  338MOL0     C44550  10.052   5.410  10.828 -0.2944 -0.3359 -1.0206
  338MOL0     H44551   9.572   5.272  10.788 -1.7640 -0.5489  0.3969
  338MOL0     H44552   9.342   5.269  10.822  3.0522 -0.9489  1.9133
  338MOL0     H44553   9.098   5.448  10.927  0.7187 -0.7126 -1.0653
  338MOL0     H44554   9.129   5.296  10.833  0.9786 -0.6830  1.1850
  338MOL0     H44555   8.913   5.296  10.796  3.4979 -1.0908 -0.8115
  338MOL0     H44556   8.951   5.403  10.665 -0.2664 -0.6736 -0.1975
  338MOL0     H44557   8.941   5.602  10.838  2.5795 -1.7253  2.2426
  338MOL0     H44558   8.855   5.481  10.941  1.3116 -3.7455 -0.5729
  338MOL0     H44559   8.703   5.627  10.825 -2.1750  2.2850 -4.1485
  338MOL0     H44560   8.755   5.568  10.668 -2.2986 -0.7424  0.4417
  338MOL0     H44561   8.619   5.426  10.898  2.6705 -0.9815  0.0382
  338MOL0     H44562   8.674   5.332  10.758 -0.7010 -0.3172 -0.6745
  338MOL0     H44563   8.539   5.429  10.589 -2.0766  1.5779 -1.5504
  338MOL0     H44564   8.507   5.568  10.687 -1.4296 -0.3343  0.4958
  338MOL0     H44565   8.374   5.414  10.848  2.0907  3.0222  0.0368
  338MOL0     H44566   8.311   5.454  10.689 -0.7912 -0.0548  1.5630
  338MOL0     H44567   8.448   5.209  10.771  0.0954  1.5871  0.9213
  338MOL0     H44568   8.389   5.241  10.608 -2.7173 -1.3660 -0.2637
  338MOL0     H44569   8.108   5.326  10.602  0.2859  1.8123  2.8622
  338MOL0     H44570   7.825   5.129  10.739 -2.1010  1.0757 -1.6161
  338MOL0     H44571   7.864   5.270  10.630 -2.6917 -1.1736 -0.6406
  338MOL0     H44572   7.913   5.408  10.837  0.6928 -0.5384 -0.8185
  338MOL0     H44573   7.820   5.275  10.925 -0.1364  0.6007  0.6329
  338MOL0     H44574   7.675   5.440  10.889  1.7873 -2.2101  0.0816
  338MOL0     H44575   7.696   5.450  10.709 -1.3806  3.0476  1.3626
  338MOL0     H44576   7.615   5.211  10.867  1.3620  2.5762  0.7027
  338MOL0     H44577   7.605   5.216  10.700  0.4781  0.2714  0.1679
  338MOL0     H44578   7.223   5.364  10.897 -1.7625 -1.7619  0.0489
  338MOL0     H44579   7.013   5.287  10.797 -0.7658  0.2511 -1.4906
  338MOL0     H44580   6.724   5.252  10.461 -1.2846  0.7534 -1.7474
  338MOL0     H44581   6.525   5.171  10.332  0.1789 -2.3247  2.2927
  338MOL0     H44582   6.429   4.962   9.947 -0.2644  1.8898  1.4676
  338MOL0     H44583   6.601   4.902   9.983 -0.8295 -0.6273 -1.8558
  338MOL0     H44584   6.593   5.064   9.788  1.2866  0.9289  0.3568
  338MOL0     H44585   6.666   5.150   9.932  1.7856 -4.1592  1.5852
  338MOL0     H44586   6.540   5.309   9.842 -0.0551  0.2046  0.8086
  338MOL0     H44587   6.469   5.257   9.994 -0.0113  0.4034 -0.1946
  338MOL0     H44588   6.390   5.130   9.735 -0.5733 -1.1423  1.0576
  338MOL0     H44589   6.303   5.130   9.887  1.1611 -2.6563 -0.5916
  338MOL0     H44590   6.319   5.358   9.694 -1.5054 -1.7001 -2.1225
  338MOL0     H44591   6.262   5.378   9.868  3.8187 -0.4546  0.1879
  338MOL0     H44592   6.075   5.230   9.825 -0.5695  0.0950 -0.5497
  338MOL0     H44593   6.128   5.210   9.656 -0.6379 -0.0913 -0.1894
  338MOL0     H44594   6.067   5.473   9.784  0.2399  1.1328 -1.5026
  338MOL0     H44595   6.074   5.441   9.610 -1.3179 -1.1875 -1.1688
  338MOL0     H44596   5.876   5.300   9.621  0.5942  0.2110 -0.5617
  338MOL0     H44597   5.846   5.468   9.687  0.0550  0.8764  1.9793
  338MOL0     H44598   6.788   4.992  10.058 -1.5080  0.4270 -0.3140
  338MOL0     H44599   6.997   5.087  10.200  0.0828 -2.7184  0.7499
  338MOL0     H44600   7.228   5.179  10.445  0.1084  1.2003 -1.7107
  338MOL0     H44601   7.437   5.245  10.548 -0.0861  1.3246  0.2897
  338MOL0     H44602   9.296   5.665  10.671 -0.6214 -1.9543 -0.0228
  338MOL0     H44603   9.560   5.667  10.641 -1.6471  1.4651 -0.7005
  338MOL0     H44604   9.892   5.586  10.583 -1.7278 -3.2863 -0.1442
  338MOL0     H44605  10.135   5.651  10.541 -0.6045  1.6075  1.1519
  338MOL0     H44606  10.340   5.477  10.464 -0.6809  1.0077  0.4707
  338MOL0     H44607  10.333   5.356  10.601  0.2699  1.0523  1.3074
  338MOL0     H44608  10.580   5.396  10.627  2.0261 -0.4925 -0.6164
  338MOL0     H44609  10.530   5.343  10.474  1.2531 -0.2002  0.8280
  338MOL0     H44610  10.611   5.623  10.568  2.0955 -0.4574 -0.1453
  338MOL0     H44611  10.533   5.604  10.407 -0.6247 -0.7649  0.2278
  338MOL0     H44612  10.792   5.455  10.478  3.3301  0.4335 -2.3788
  338MOL0     H44613  10.692   5.451  10.338  0.7060  1.4920 -0.7454
  338MOL0     H44614  10.934   5.818  10.351 -0.0700  0.3109 -1.4538
  338MOL0     H44615  10.268   5.418  10.859  0.8973  0.4135 -1.2891
  338MOL0     H44616  10.035   5.337  10.906 -1.1083  1.6406  0.7645
  339MOL0     O44617   7.601   4.556   4.133 -0.2402  0.7697  0.1434
  339MOL0     C44618   7.700   4.538   4.060  0.2446 -0.1317 -0.3196
  339MOL0     O44619   7.705   4.567   3.927  0.8210  0.2200  0.1835
  339MOL0     C44620   7.598   4.624   3.856 -1.1912 -1.0389  0.7574
  339MOL0     C44621   7.475   4.564   3.848  0.3528 -0.4837  0.3969
  339MOL0     C44622   7.373   4.617   3.769 -0.2413  0.5615 -0.4922
  339MOL0     C44623   7.398   4.731   3.688  0.9106 -0.0489  0.0279
  339MOL0     O44624   7.302   4.794   3.609 -0.5740  0.1655  0.0376
  339MOL0     C44625   7.198   4.707   3.574  0.4450  0.5750 -1.0108
  339MOL0     C44626   7.112   4.792   3.484  0.4798 -0.7803  0.6923
  339MOL0     C44627   6.989   4.703   3.458  0.0636 -0.0135  0.6595
  339MOL0     C44628   6.889   4.765   3.360  0.0681  0.2548  0.2260
  339MOL0     C44629   6.767   4.680   3.355  0.4063  0.0421 -0.1721
  339MOL0     C44630   6.675   4.748   3.249 -0.4218 -0.9473 -0.2842
  339MOL0     C44631   6.552   4.662   3.231  0.8617 -0.6615  0.3311
  339MOL0     C44632   6.451   4.741   3.140  0.1364  0.1032  0.4421
  339MOL0     N44633   6.329   4.773   3.202 -0.4361 -0.5019 -0.1420
  339MOL0     C44634   6.248   4.685   3.267 -0.4120  0.1782  0.6351
  339MOL0     C44635   6.155   4.759   3.324 -0.4100 -0.3238 -0.7400
  339MOL0     C44636   6.042   4.697   3.405  0.5027  0.1743  0.2403
  339MOL0     C44637   5.944   4.629   3.313 -0.1126 -0.0093 -0.4237
  339MOL0     C44638   5.866   4.731   3.239 -0.3214  0.2741 -0.0426
  339MOL0     C44639   5.787   4.677   3.126 -0.7664 -0.0721 -0.4326
  339MOL0     O44640   5.711   4.784   3.068  0.0839  0.1387 -0.2325
  339MOL0     C44641   5.635   4.755   2.961  0.2177 -0.9643  1.2091
  339MOL0     C44642   5.657   4.638   2.886  0.0656 -0.5401 -0.2136
  339MOL0     C44643   5.581   4.614   2.774  1.3358 -0.3504  0.3690
  339MOL0     C44644   5.469   4.694   2.736  0.6318 -0.9717  0.7185
  339MOL0     C44645   5.386   4.665   2.616  0.1745 -0.8611 -0.3203
  339MOL0     O44646   5.299   4.762   2.579 -0.3675 -0.0322 -0.0436
  339MOL0     C44647   5.255   4.766   2.449 -0.3151  0.3093 -0.4311
  339MOL0     C44648   5.325   4.840   2.356  0.5391  0.3557 -0.0163
  339MOL0     C44649   5.280   4.840   2.228 -0.2923 -0.1811 -0.1342
  339MOL0     C44650   5.159   4.783   2.189 -1.3139  0.1951 -0.1601
  339MOL0     O44651   5.095   4.789   2.062 -0.5651 -0.1396  0.6016
  339MOL0     C44652   5.180   4.830   1.948  0.2730  0.4294 -0.5739
  339MOL0     C44653   5.090   4.817   1.820  0.3302  0.0186 -0.5345
  339MOL0     C44654   5.059   4.668   1.781  0.2401 -0.4399  0.7146
  339MOL0     C44655   4.953   4.666   1.668  1.1222  0.3532 -0.4217
  339MOL0     C44656   4.928   4.520   1.631  0.1564  0.2279 -0.6061
  339MOL0     C44657   4.808   4.497   1.537  0.1348 -0.6215  0.1813
  339MOL0     C44658   4.752   4.355   1.535 -0.4275 -0.2258 -0.4634
  339MOL0     C44659   4.617   4.355   1.462  0.8141 -0.0243 -0.5699
  339MOL0    Cl44660   4.621   4.422   1.288 -0.3941  0.1558  0.0369
  339MOL0     C44661   5.102   4.694   2.274  0.1780 -1.0949 -0.2243
  339MOL0     C44662   5.143   4.698   2.408  0.3178 -0.6246 -0.4031
  339MOL0     O44663   5.406   4.563   2.550  0.1553  0.4236  0.1496
  339MOL0     C44664   5.444   4.815   2.810 -0.8555 -0.2476  0.1190
  339MOL0     C44665   5.526   4.838   2.927 -0.8830 -0.5076  0.5886
  339MOL0     N44666   6.172   4.887   3.292 -0.1213  0.0273 -0.1419
  339MOL0     N44667   6.278   4.900   3.223 -0.0156  0.9705 -0.0487
  339MOL0     C44668   7.519   4.797   3.701  0.2297 -0.5788  0.3064
  339MOL0     C44669   7.614   4.742   3.779 -0.4242 -0.5459 -0.4960
  339MOL0     C44670   7.823   4.480   4.111  0.1345 -0.9232  0.0551
  339MOL0     C44671   7.940   4.485   4.031  0.2963  0.4108  0.3601
  339MOL0     C44672   8.066   4.471   4.087 -0.3498 -0.1119  0.3635
  339MOL0     C44673   8.078   4.444   4.225  0.1372 -0.1747  0.4067
  339MOL0     O44674   8.191   4.425   4.302  0.2840  0.1885 -0.3300
  339MOL0     C44675   8.316   4.422   4.232 -0.3828  0.4825 -0.6524
  339MOL0     C44676   8.432   4.374   4.322  0.7886 -0.2760  0.0802
  339MOL0     C44677   8.440   4.226   4.337 -0.8332 -0.3041  0.8244
  339MOL0     C44678   8.540   4.192   4.447  0.8197  0.3049  0.2022
  339MOL0     C44679   8.675   4.234   4.409 -1.0100  0.7102  0.6110
  339MOL0     C44680   8.786   4.265   4.374  0.1395 -0.1080 -0.0914
  339MOL0     C44681   7.965   4.427   4.295 -0.0985 -0.0502 -0.6005
  339MOL0     C44682   7.833   4.446   4.248  0.4223 -0.9263 -0.6600
  339MOL0     H44683   7.451   4.483   3.916  1.1422  0.2889  1.6375
  339MOL0     H44684   7.284   4.557   3.787  0.1429  0.0314 -0.3352
  339MOL0     H44685   7.147   4.685   3.668  2.0847  0.4917 -0.1061
  339MOL0     H44686   7.237   4.612   3.536 -3.8152 -1.4115 -1.0240
  339MOL0     H44687   7.166   4.819   3.393  1.2970 -0.3972  1.2832
  339MOL0     H44688   7.083   4.883   3.537 -0.5723 -1.5730  1.5273
  339MOL0     H44689   6.936   4.683   3.552 -1.0303  0.6678  0.2138
  339MOL0     H44690   7.016   4.608   3.413 -0.4086  0.9437 -1.8209
  339MOL0     H44691   6.857   4.865   3.390 -2.3660 -0.9956  2.1543
  339MOL0     H44692   6.930   4.782   3.260 -2.5717  1.8278 -0.7000
  339MOL0     H44693   6.730   4.679   3.458  1.3726  2.5562  0.2574
  339MOL0     H44694   6.787   4.578   3.319 -1.6504 -0.3576 -0.3353
  339MOL0     H44695   6.724   4.761   3.152 -2.5784  1.4075 -1.1770
  339MOL0     H44696   6.659   4.854   3.274  0.6289 -0.5837 -1.0994
  339MOL0     H44697   6.581   4.568   3.184  2.3060  0.4982 -1.2608
  339MOL0     H44698   6.503   4.654   3.328 -1.2655 -0.8595 -0.7005
  339MOL0     H44699   6.426   4.675   3.056  3.5836  1.3666 -1.7973
  339MOL0     H44700   6.494   4.836   3.107 -0.9419  1.0366  1.6059
  339MOL0     H44701   6.254   4.577   3.279  0.6382  0.3086  1.5078
  339MOL0     H44702   5.987   4.774   3.460 -1.0607 -0.0167 -0.9923
  339MOL0     H44703   6.085   4.626   3.477 -0.5534 -0.0507  0.6561
  339MOL0     H44704   5.872   4.570   3.372  2.5624 -1.7193  1.3781
  339MOL0     H44705   5.991   4.557   3.245  0.6285  0.5824 -0.5478
  339MOL0     H44706   5.807   4.766   3.324 -0.1926 -2.0146  1.0696
  339MOL0     H44707   5.925   4.807   3.188 -0.1360  0.8240  0.9590
  339MOL0     H44708   5.717   4.608   3.174 -0.2660 -0.2518  0.0568
  339MOL0     H44709   5.857   4.638   3.052  0.6067  1.3161  0.0684
  339MOL0     H44710   5.742   4.573   2.904 -0.7146 -1.4817  0.2302
  339MOL0     H44711   5.593   4.519   2.723 -1.1855  0.1089 -1.2489
  339MOL0     H44712   5.419   4.889   2.380  1.0012  0.8199 -2.5234
  339MOL0     H44713   5.329   4.912   2.163  0.3872  0.4451  1.0323
  339MOL0     H44714   5.269   4.767   1.941  1.7731  2.4086 -0.2462
  339MOL0     H44715   5.216   4.933   1.955 -0.6893  0.9864 -2.7933
  339MOL0     H44716   5.128   4.873   1.735  1.4126  0.0001 -0.0803
  339MOL0     H44717   4.994   4.863   1.848  0.3230 -1.1101  1.5321
  339MOL0     H44718   5.021   4.600   1.858  1.0505 -2.5795 -0.6804
  339MOL0     H44719   5.150   4.634   1.729 -0.5876 -1.7600  0.0764
  339MOL0     H44720   4.868   4.718   1.713  0.8891 -2.0931  2.2743
  339MOL0     H44721   4.986   4.718   1.578 -1.1285  0.7535 -1.0874
  339MOL0     H44722   4.907   4.468   1.725  2.8387  0.5795  0.2508
  339MOL0     H44723   5.015   4.476   1.582 -0.8400 -1.6858 -0.7420
  339MOL0     H44724   4.852   4.524   1.440 -0.8033 -0.8767 -0.3259
  339MOL0     H44725   4.726   4.566   1.555 -0.0091 -0.4843 -0.9110
  339MOL0     H44726   4.828   4.292   1.487  0.6127  0.4496  0.2556
  339MOL0     H44727   4.737   4.335   1.642  0.2265  2.6604  0.2578
  339MOL0     H44728   4.549   4.411   1.527 -0.3524  0.4775 -2.1525
  339MOL0     H44729   4.580   4.252   1.467 -1.0528  0.6551  0.5357
  339MOL0     H44730   5.016   4.630   2.254 -1.2597  0.5530  0.4342
  339MOL0     H44731   5.095   4.649   2.492  0.2340 -0.6444 -0.4627
  339MOL0     H44732   5.365   4.880   2.774 -2.1168 -2.4250 -1.2731
  339MOL0     H44733   5.499   4.924   2.988  1.6336  3.1804 -3.0099
  339MOL0     H44734   7.528   4.898   3.662 -0.6292  0.0849  1.7376
  339MOL0     H44735   7.712   4.788   3.773 -0.4982 -0.0305  1.5702
  339MOL0     H44736   7.930   4.512   3.926  1.3710 -4.7611 -1.3787
  339MOL0     H44737   8.152   4.492   4.025  0.4804  3.2558  2.4424
  339MOL0     H44738   8.340   4.522   4.196  0.7602  0.4765  0.0624
  339MOL0     H44739   8.311   4.356   4.145  1.5017  0.1882 -0.5733
  339MOL0     H44740   8.527   4.417   4.290  0.9733 -1.1744 -0.6031
  339MOL0     H44741   8.413   4.427   4.415  0.8391  2.8459 -1.5357
  339MOL0     H44742   8.483   4.175   4.250  0.5253 -0.4077  1.5251
  339MOL0     H44743   8.341   4.184   4.357 -0.9315  0.2364  1.5192
  339MOL0     H44744   8.514   4.249   4.536  2.2534  0.0132  0.8299
  339MOL0     H44745   8.534   4.085   4.469 -1.4663 -0.3664 -2.9449
  339MOL0     H44746   8.887   4.296   4.355 -0.2964  0.2239 -2.1085
  339MOL0     H44747   7.965   4.408   4.402 -2.0689  2.0108 -0.1692
  339MOL0     H44748   7.747   4.446   4.315  1.4354  2.3406  0.8723
  340MOL0     O44749   0.993   1.905   1.999 -0.6509  0.1465  1.2263
  340MOL0     C44750   1.115   1.913   2.027 -0.9031  0.1444  0.0016
  340MOL0     O44751   1.168   1.943   2.152  0.4578 -0.1199  0.0297
  340MOL0     C44752   1.083   1.959   2.259  0.3084  0.0194  0.5349
  340MOL0     C44753   1.064   1.855   2.358 -0.5580 -0.1640 -0.1630
  340MOL0     C44754   0.977   1.874   2.465 -0.1419 -0.0053 -0.5848
  340MOL0     C44755   0.913   2.002   2.481  0.7629 -0.1704 -0.3076
  340MOL0     O44756   0.840   2.013   2.599 -0.8289  0.6068 -0.3456
  340MOL0     C44757   0.713   2.073   2.592  0.0970  0.6445  0.1674
  340MOL0     C44758   0.718   2.208   2.662  1.0296 -0.3031 -0.3760
  340MOL0     C44759   0.725   2.192   2.817  0.2709 -0.6503 -0.5782
  340MOL0     C44760   0.674   2.326   2.889 -0.4283  0.4089  0.6904
  340MOL0     C44761   0.648   2.322   3.043 -0.0369  0.0358 -0.3247
  340MOL0     C44762   0.531   2.227   3.076  0.2446  0.2825 -0.8073
  340MOL0     C44763   0.388   2.277   3.066 -0.3033 -0.0094  0.6625
  340MOL0     C44764   0.289   2.180   3.129 -0.0937 -0.3380  0.5779
  340MOL0     N44765   0.160   2.202   3.069  1.0027 -0.5608 -0.7408
  340MOL0     C44766   0.107   2.125   2.971 -0.3247  0.2949  0.5856
  340MOL0     C44767   0.007   2.196   2.918 -0.3651 -0.2952  0.1582
  340MOL0     C44768  -0.094   2.157   2.813  0.4143 -0.0255 -0.9244
  340MOL0     C44769  -0.072   2.228   2.684  0.4578 -0.3300 -0.3858
  340MOL0     C44770  -0.087   2.378   2.689 -0.6282  0.5296  0.3531
  340MOL0     C44771  -0.218   2.432   2.748 -0.3752 -0.1077 -0.0131
  340MOL0     O44772  -0.322   2.353   2.692  1.1586 -1.0335 -1.0986
  340MOL0     C44773  -0.450   2.395   2.702 -0.4653 -0.1114  0.3536
  340MOL0     C44774  -0.530   2.364   2.595 -0.2270 -1.0564  0.3653
  340MOL0     C44775  -0.670   2.389   2.600 -0.0611  0.3640 -0.4504
  340MOL0     C44776  -0.726   2.452   2.714 -0.5958  0.1107 -0.1717
  340MOL0     C44777  -0.872   2.479   2.721 -0.1666  0.1810 -0.4308
  340MOL0     O44778  -0.919   2.562   2.826 -0.6822 -0.0095  0.1819
  340MOL0     C44779  -1.050   2.576   2.816  1.1587  0.0160 -0.3555
  340MOL0     C44780  -1.100   2.710   2.816  0.8752 -0.4290  0.0864
  340MOL0     C44781  -1.242   2.735   2.828 -0.2230  0.7484  0.6709
  340MOL0     C44782  -1.333   2.627   2.841 -0.1792  0.7557  0.4256
  340MOL0     O44783  -1.470   2.648   2.858  0.4100 -0.0289  0.8318
  340MOL0     C44784  -1.520   2.742   2.756  0.3171 -0.2411 -0.4202
  340MOL0     C44785  -1.677   2.753   2.757  0.2728 -0.0886  0.6925
  340MOL0     C44786  -1.722   2.798   2.891  0.6038 -0.3775 -0.4301
  340MOL0     C44787  -1.875   2.794   2.882 -0.0771  0.2078  1.0441
  340MOL0     C44788  -1.942   2.840   3.008 -0.1451 -0.1304 -0.4113
  340MOL0     C44789  -1.966   2.731   3.104 -0.0730 -0.2962 -0.2021
  340MOL0     C44790  -2.008   2.793   3.243 -0.2584  0.4393  0.0987
  340MOL0     C44791  -2.049   2.688   3.347 -0.8679 -0.4235  0.5073
  340MOL0    Cl44792  -1.923   2.565   3.367  0.1112  0.0034 -0.1508
  340MOL0     C44793  -1.271   2.496   2.852  0.9464 -0.2260 -0.0997
  340MOL0     C44794  -1.135   2.468   2.846  0.1039  0.9693  0.5117
  340MOL0     O44795  -0.940   2.438   2.626 -0.5944  0.0089 -0.2097
  340MOL0     C44796  -0.639   2.480   2.825  0.5351 -0.7129  0.5162
  340MOL0     C44797  -0.497   2.458   2.812  0.0411 -1.3666 -0.3344
  340MOL0     N44798   0.003   2.314   2.993  0.7699  0.9218  0.0656
  340MOL0     N44799   0.089   2.316   3.084  0.3485  0.4317 -0.4852
  340MOL0     C44800   0.940   2.110   2.401 -0.0064  0.7748 -0.0855
  340MOL0     C44801   1.014   2.075   2.283 -0.5656 -0.1560  0.3971
  340MOL0     C44802   1.210   1.910   1.917  0.0680  0.0574  0.5593
  340MOL0     C44803   1.159   1.901   1.782  0.0512 -0.4691  0.3541
  340MOL0     C44804   1.245   1.919   1.671  0.4957  0.5607 -0.0520
  340MOL0     C44805   1.374   1.949   1.692 -0.4154 -0.4003 -0.1501
  340MOL0     O44806   1.461   1.971   1.586  0.0543  0.5302 -0.7374
  340MOL0     C44807   1.588   2.041   1.604 -0.0715  1.1147 -0.0675
  340MOL0     C44808   1.672   2.071   1.481 -0.5996  0.4227  0.1262
  340MOL0     C44809   1.650   1.965   1.373 -0.3376  0.3708  0.5867
  340MOL0     C44810   1.714   2.013   1.234  0.3146 -0.6491  0.1389
  340MOL0     C44811   1.861   1.992   1.237 -0.1263 -0.1131 -0.2374
  340MOL0     C44812   1.981   1.997   1.252  0.1709  0.4501  0.7028
  340MOL0     C44813   1.425   1.950   1.829 -0.2683  0.7481 -0.2473
  340MOL0     C44814   1.348   1.937   1.947  0.3292 -0.2898  0.2799
  340MOL0     H44815   1.112   1.760   2.335  0.4148  0.9407 -3.2844
  340MOL0     H44816   0.956   1.799   2.541  0.7729  2.6527  2.5229
  340MOL0     H44817   0.639   2.007   2.638  2.7884 -2.0284  1.0059
  340MOL0     H44818   0.677   2.093   2.491 -0.2228 -0.4602  0.0575
  340MOL0     H44819   0.632   2.267   2.629  0.9758 -0.6184 -0.7997
  340MOL0     H44820   0.806   2.264   2.628 -0.5090  2.9672  0.6216
  340MOL0     H44821   0.822   2.158   2.854  0.5840  0.7019 -0.1188
  340MOL0     H44822   0.653   2.114   2.840 -2.9581  1.8961 -1.2891
  340MOL0     H44823   0.742   2.409   2.865 -0.4132  1.1465  3.0464
  340MOL0     H44824   0.585   2.368   2.843  0.9101  0.8991 -1.6179
  340MOL0     H44825   0.618   2.420   3.082 -1.4194 -0.3178 -0.4646
  340MOL0     H44826   0.739   2.289   3.094 -1.2620 -0.3771  1.7006
  340MOL0     H44827   0.540   2.207   3.183  1.3073  1.8818 -0.5555
  340MOL0     H44828   0.544   2.131   3.025 -1.7125  0.3517 -1.4952
  340MOL0     H44829   0.375   2.370   3.122  2.3605 -0.0935  1.5533
  340MOL0     H44830   0.370   2.297   2.960  0.6541 -0.7188  0.3558
  340MOL0     H44831   0.283   2.196   3.237  1.0540 -2.4120  0.9935
  340MOL0     H44832   0.326   2.080   3.106 -0.1011 -0.2736  0.2850
  340MOL0     H44833   0.142   2.034   2.924  0.4783  0.6013  0.5597
  340MOL0     H44834  -0.191   2.194   2.847  1.7191  0.6322  2.5190
  340MOL0     H44835  -0.098   2.048   2.808 -0.4261 -0.1845  1.6171
  340MOL0     H44836  -0.138   2.196   2.603  1.5595 -0.4060 -1.2703
  340MOL0     H44837   0.031   2.203   2.656  0.0028 -3.1431  0.0957
  340MOL0     H44838  -0.012   2.419   2.757  0.9212 -2.2609  0.4749
  340MOL0     H44839  -0.068   2.409   2.586  0.6125  0.0014  0.4069
  340MOL0     H44840  -0.225   2.540   2.733 -1.8401 -0.0005  1.2501
  340MOL0     H44841  -0.211   2.409   2.854  0.7476  0.3479  0.0229
  340MOL0     H44842  -0.483   2.324   2.505 -0.2957  0.5865 -0.4449
  340MOL0     H44843  -0.740   2.370   2.520  1.3345  2.5377 -2.2994
  340MOL0     H44844  -1.028   2.787   2.790 -0.3118  1.4900  2.1717
  340MOL0     H44845  -1.291   2.832   2.816  0.3950  1.0511  0.5942
  340MOL0     H44846  -1.488   2.698   2.662  1.4701 -1.1191  0.3533
  340MOL0     H44847  -1.494   2.849   2.763 -2.6583  0.4687  2.2841
  340MOL0     H44848  -1.718   2.654   2.734  4.1687 -1.0435 -3.4721
  340MOL0     H44849  -1.711   2.824   2.682  0.5098 -1.0578 -0.3529
  340MOL0     H44850  -1.689   2.898   2.922  2.4588 -0.7699 -0.9771
  340MOL0     H44851  -1.689   2.725   2.965  2.2595 -2.3874 -2.9974
  340MOL0     H44852  -1.904   2.867   2.806  0.5532  1.0170  1.5693
  340MOL0     H44853  -1.911   2.696   2.850 -1.8034  2.0487 -3.5529
  340MOL0     H44854  -2.041   2.884   2.993  0.0138  0.4366  0.1524
  340MOL0     H44855  -1.883   2.917   3.059 -0.7370  0.9936 -1.3901
  340MOL0     H44856  -1.876   2.670   3.109  0.9660  0.5046 -4.6003
  340MOL0     H44857  -2.052   2.672   3.069  0.2022 -0.7154 -0.1831
  340MOL0     H44858  -1.934   2.862   3.286 -0.4626  0.8853 -0.2534
  340MOL0     H44859  -2.102   2.842   3.215  0.0446  1.1652  0.3162
  340MOL0     H44860  -2.140   2.642   3.307 -0.8455  0.0936 -0.1541
  340MOL0     H44861  -2.062   2.744   3.440  1.0793  1.2652 -0.1531
  340MOL0     H44862  -1.337   2.410   2.848 -0.8643  1.0798  0.2527
  340MOL0     H44863  -1.098   2.367   2.848 -0.9448  0.0341 -5.6324
  340MOL0     H44864  -0.669   2.521   2.921 -1.1806 -1.2330  0.2439
  340MOL0     H44865  -0.430   2.485   2.893  0.1565  2.1110 -1.4129
  340MOL0     H44866   0.915   2.213   2.426  3.4460  2.1885 -1.8347
  340MOL0     H44867   1.039   2.148   2.207 -1.4053  0.0004  0.2569
  340MOL0     H44868   1.053   1.877   1.774 -0.1933  0.1811  1.4367
  340MOL0     H44869   1.208   1.913   1.569 -1.1203  2.1616  0.3774
  340MOL0     H44870   1.655   1.979   1.665  1.4199 -4.0723 -5.9176
  340MOL0     H44871   1.562   2.135   1.655 -1.6030  0.5312  0.2709
  340MOL0     H44872   1.626   2.164   1.444  1.0528  0.8132 -1.0856
  340MOL0     H44873   1.778   2.086   1.504 -1.0411  2.1086  1.2166
  340MOL0     H44874   1.545   1.946   1.349  0.4042 -2.2798 -0.8721
  340MOL0     H44875   1.679   1.863   1.399  1.4435 -0.3917 -3.5965
  340MOL0     H44876   1.673   1.958   1.150 -2.2525  0.8138  0.3309
  340MOL0     H44877   1.699   2.121   1.222  1.8155 -0.5349 -0.9838
  340MOL0     H44878   2.082   2.004   1.288  0.2525 -3.3190  1.5901
  340MOL0     H44879   1.531   1.967   1.850  0.0647 -0.5326 -0.8097
  340MOL0     H44880   1.375   1.945   2.051 -3.2151 -1.9983  1.5054
  341MOL0     O44881   2.884   0.651   6.273 -0.9015 -0.3663 -0.2736
  341MOL0     C44882   2.812   0.720   6.206  0.1787 -0.2085 -0.7944
  341MOL0     O44883   2.832   0.783   6.093 -0.4411 -0.2334  0.1810
  341MOL0     C44884   2.964   0.782   6.032  0.9504 -0.7105 -0.7953
  341MOL0     C44885   3.031   0.664   6.002 -0.6847 -0.0990 -0.3707
  341MOL0     C44886   3.153   0.673   5.926  0.1660  0.1124 -0.1849
  341MOL0     C44887   3.187   0.798   5.874  0.2437  0.0370 -0.3887
  341MOL0     O44888   3.308   0.818   5.797  0.2576  0.1992  0.3595
  341MOL0     C44889   3.308   0.767   5.653 -0.5647  0.0842 -0.6077
  341MOL0     C44890   3.350   0.868   5.555 -0.3324  0.5785 -0.1891
  341MOL0     C44891   3.482   0.953   5.577 -0.1470  0.0167  0.4218
  341MOL0     C44892   3.597   0.856   5.598  0.6722 -0.2818 -0.7162
  341MOL0     C44893   3.725   0.930   5.612 -0.5618  0.0830 -0.1598
  341MOL0     C44894   3.859   0.836   5.624 -0.3998 -0.1640  0.3147
  341MOL0     C44895   3.895   0.760   5.496 -0.9042 -1.3277 -0.7895
  341MOL0     C44896   3.949   0.626   5.538  0.0839 -0.2365  0.3188
  341MOL0     N44897   4.010   0.550   5.423 -0.5710 -0.4269  0.3505
  341MOL0     C44898   4.141   0.576   5.380  0.3229 -0.8831 -0.3372
  341MOL0     C44899   4.146   0.523   5.257  0.7536  0.1292  0.9106
  341MOL0     C44900   4.264   0.525   5.153 -0.1278 -0.6012 -0.1052
  341MOL0     C44901   4.389   0.463   5.225  0.5828  0.0692 -0.5595
  341MOL0     C44902   4.509   0.477   5.132  0.2248  0.5655 -0.0413
  341MOL0     C44903   4.639   0.428   5.195  0.3432  1.0298  0.0833
  341MOL0     O44904   4.641   0.282   5.212  0.0746 -0.9877  0.1565
  341MOL0     C44905   4.753   0.202   5.224 -0.3723  0.6135  0.8605
  341MOL0     C44906   4.881   0.252   5.189  0.7991 -0.1130 -0.3450
  341MOL0     C44907   4.990   0.174   5.195 -0.3774  1.0073 -0.3512
  341MOL0     C44908   4.985   0.036   5.232 -0.2206 -0.2889 -0.4301
  341MOL0     C44909   5.100  -0.053   5.234 -0.7239 -0.5766 -0.8008
  341MOL0     O44910   5.216  -0.008   5.185 -0.2424 -0.2415  0.7992
  341MOL0     C44911   5.338  -0.091   5.199 -0.4681 -0.1553  0.6855
  341MOL0     C44912   5.375  -0.172   5.310 -0.9185 -0.4586 -0.7689
  341MOL0     C44913   5.494  -0.250   5.308 -0.0379 -0.2883 -0.5651
  341MOL0     C44914   5.571  -0.249   5.188  0.2080  1.1666  0.4980
  341MOL0     O44915   5.682  -0.341   5.187  0.3518  0.4033 -0.5522
  341MOL0     C44916   5.709  -0.394   5.045  0.6250 -0.0711 -0.3035
  341MOL0     C44917   5.770  -0.535   5.055 -0.3432  0.0893 -0.0267
  341MOL0     C44918   5.869  -0.556   4.930 -0.2395  0.5966 -0.4533
  341MOL0     C44919   6.000  -0.625   4.968  0.2165 -1.1175  0.0924
  341MOL0     C44920   6.090  -0.621   4.852 -0.8355  0.3015  0.6589
  341MOL0     C44921   6.210  -0.718   4.859 -0.1282  0.0301  1.0757
  341MOL0     C44922   6.165  -0.862   4.880  0.2798  0.3737  0.2247
  341MOL0     C44923   6.254  -0.964   4.806  0.7678 -0.0587 -0.0078
  341MOL0    Cl44924   6.256  -0.926   4.628  0.4627  0.0762  0.2961
  341MOL0     C44925   5.540  -0.169   5.076  0.4284  0.3992 -0.5534
  341MOL0     C44926   5.419  -0.091   5.090 -0.4718  1.1425  0.6406
  341MOL0     O44927   5.075  -0.169   5.272  0.2113  0.5671  0.4525
  341MOL0     C44928   4.855  -0.017   5.265  1.2619  0.4652  1.6501
  341MOL0     C44929   4.739   0.063   5.249 -0.0040 -0.2876  0.8725
  341MOL0     N44930   4.022   0.459   5.232  0.1853  0.2434  0.5404
  341MOL0     N44931   3.940   0.481   5.323  0.0362  0.0713 -0.1848
  341MOL0     C44932   3.118   0.914   5.904 -0.2268 -0.6976  1.1122
  341MOL0     C44933   3.011   0.907   5.992  0.3993  0.1585 -0.1357
  341MOL0     C44934   2.670   0.733   6.259  0.0440 -0.4552 -0.3575
  341MOL0     C44935   2.654   0.715   6.395  0.1314 -0.7211 -0.0355
  341MOL0     C44936   2.528   0.723   6.445  0.6339  0.1618 -0.4604
  341MOL0     C44937   2.419   0.759   6.366  0.1442 -0.2245  0.8455
  341MOL0     O44938   2.290   0.768   6.419  0.9471 -0.5256 -0.1968
  341MOL0     C44939   2.262   0.776   6.569  1.1106  0.1508 -0.9673
  341MOL0     C44940   2.126   0.860   6.576 -0.5927 -0.2901  0.4910
  341MOL0     C44941   2.067   0.842   6.720 -0.5296  1.4410 -0.1869
  341MOL0     C44942   1.919   0.883   6.716 -0.0548  0.8669  0.3405
  341MOL0     C44943   1.894   1.019   6.673 -0.2084 -0.9720 -0.0466
  341MOL0     C44944   1.878   1.139   6.646 -0.1169 -1.0303 -0.5024
  341MOL0     C44945   2.436   0.783   6.232 -0.4904  0.2211  0.6688
  341MOL0     C44946   2.561   0.764   6.186 -0.7693 -0.6255  0.2149
  341MOL0     H44947   2.996   0.570   6.042  2.9631 -0.8202  1.5230
  341MOL0     H44948   3.207   0.584   5.896 -1.3711 -2.1587  3.1657
  341MOL0     H44949   3.215   0.722   5.615 -0.8697  0.4776 -0.3326
  341MOL0     H44950   3.362   0.672   5.654 -1.7821 -0.6639  1.5379
  341MOL0     H44951   3.268   0.941   5.561 -1.6512 -0.7478 -1.2605
  341MOL0     H44952   3.346   0.820   5.456  2.7997 -2.1361  0.8476
  341MOL0     H44953   3.474   1.014   5.667 -0.5764  0.6800 -0.0593
  341MOL0     H44954   3.501   1.019   5.492 -1.2085  1.5107  1.3020
  341MOL0     H44955   3.571   0.797   5.686 -1.0035 -0.0343 -1.0089
  341MOL0     H44956   3.605   0.782   5.519  1.0717  0.8156 -1.7337
  341MOL0     H44957   3.725   0.999   5.697  0.3019  4.0621 -3.0985
  341MOL0     H44958   3.750   0.988   5.523  3.7617 -1.3589 -0.1293
  341MOL0     H44959   3.863   0.784   5.720  1.4762  0.8300  0.8317
  341MOL0     H44960   3.940   0.907   5.642  0.2480 -1.1188  1.2355
  341MOL0     H44961   3.809   0.741   5.431 -2.4116  0.3396  0.5852
  341MOL0     H44962   3.969   0.816   5.439 -1.7106  0.9080  0.2371
  341MOL0     H44963   3.868   0.555   5.556 -1.2742 -0.3343 -4.6825
  341MOL0     H44964   4.026   0.630   5.616  0.5684  1.3079 -0.1948
  341MOL0     H44965   4.219   0.628   5.435 -1.0755 -2.3216  3.3494
  341MOL0     H44966   4.288   0.630   5.132  0.7517  0.2547  4.2362
  341MOL0     H44967   4.224   0.467   5.069 -0.7726 -1.0065  0.4730
  341MOL0     H44968   4.369   0.357   5.245  0.3809  0.2920  0.4637
  341MOL0     H44969   4.410   0.514   5.319  0.6720 -0.7788 -0.1102
  341MOL0     H44970   4.505   0.418   5.040  0.7988  0.0826  0.2383
  341MOL0     H44971   4.518   0.582   5.103 -1.9195  0.6278 -0.6277
  341MOL0     H44972   4.657   0.468   5.294  0.3451  1.6140 -0.1503
  341MOL0     H44973   4.723   0.456   5.131 -0.0091 -1.2910 -1.5438
  341MOL0     H44974   4.897   0.353   5.152  1.3920 -0.5404 -1.2766
  341MOL0     H44975   5.080   0.223   5.162 -1.7661  1.3092 -4.2607
  341MOL0     H44976   5.318  -0.169   5.402 -0.2826 -0.0899 -0.3804
  341MOL0     H44977   5.521  -0.298   5.401  1.5204  3.2816  1.0354
  341MOL0     H44978   5.768  -0.327   4.983  0.9073  0.8035  0.8722
  341MOL0     H44979   5.608  -0.415   5.007  1.0900  0.2762 -1.7542
  341MOL0     H44980   5.693  -0.610   5.074  0.6614 -0.6101  1.5514
  341MOL0     H44981   5.832  -0.552   5.143  2.1816  0.9718 -1.5175
  341MOL0     H44982   5.884  -0.457   4.888 -1.1572  1.2935  0.7898
  341MOL0     H44983   5.826  -0.624   4.855  2.2781 -1.2372 -0.3796
  341MOL0     H44984   6.053  -0.574   5.049  1.2409 -3.2243  0.8312
  341MOL0     H44985   5.976  -0.727   5.000  3.2615 -2.1286 -0.5262
  341MOL0     H44986   6.127  -0.520   4.838 -0.3756  0.2278  1.3318
  341MOL0     H44987   6.033  -0.656   4.765  0.3535  2.8039 -1.2313
  341MOL0     H44988   6.279  -0.695   4.941 -0.0565 -1.8923  1.6046
  341MOL0     H44989   6.267  -0.705   4.766 -1.5038  1.8297  0.4315
  341MOL0     H44990   6.173  -0.892   4.985 -1.0612 -1.3162 -0.1108
  341MOL0     H44991   6.058  -0.874   4.862  0.7431 -1.7493 -1.5293
  341MOL0     H44992   6.220  -1.066   4.821  1.2982 -0.3773 -0.9043
  341MOL0     H44993   6.354  -0.968   4.850  1.2067 -0.1836 -0.9848
  341MOL0     H44994   5.602  -0.178   4.987  1.0725  1.6816 -0.2501
  341MOL0     H44995   5.393  -0.022   5.010  0.6705 -0.0783 -0.8226
  341MOL0     H44996   4.842  -0.122   5.293 -0.7042 -0.6190 -2.5235
  341MOL0     H44997   4.640   0.021   5.266  0.2386 -2.1844 -1.7360
  341MOL0     H44998   3.146   1.002   5.848 -2.5110 -1.5779 -1.6848
  341MOL0     H44999   2.954   0.997   6.012  0.2748  0.5956 -2.2453
  341MOL0     H45000   2.742   0.691   6.455 -0.4516 -1.8806  0.3728
  341MOL0     H45001   2.521   0.697   6.550 -2.1970  0.1310 -0.5912
  341MOL0     H45002   2.344   0.833   6.613  1.8164 -0.6742 -1.1753
  341MOL0     H45003   2.245   0.676   6.610  1.7075 -0.7259 -2.7248
  341MOL0     H45004   2.145   0.965   6.555 -0.4843 -0.2304  0.8761
  341MOL0     H45005   2.058   0.819   6.501  1.5291  0.8886 -2.2512
  341MOL0     H45006   2.129   0.906   6.784 -0.7783 -0.6653  2.3216
  341MOL0     H45007   2.082   0.742   6.761 -3.8693  1.1523  0.5827
  341MOL0     H45008   1.862   0.822   6.645 -0.0990 -2.0614  2.6988
  341MOL0     H45009   1.870   0.862   6.811 -0.0323 -1.2285 -0.0577
  341MOL0     H45010   1.852   1.240   6.620  1.1326 -0.4698  0.3255
  341MOL0     H45011   2.348   0.808   6.173 -1.1691  0.0909  1.6189
  341MOL0     H45012   2.566   0.776   6.078 -0.8521 -2.0449  0.0342
  342MOL0     O45013   9.415   2.231  10.781  0.5534  0.8652 -0.2790
  342MOL0     C45014   9.447   2.154  10.868 -0.2248 -0.5841  0.1505
  342MOL0     O45015   9.369   2.111  10.971  0.4132 -0.2230  0.1000
  342MOL0     C45016   9.245   2.169  11.002  0.3653 -0.2778  0.8104
  342MOL0     C45017   9.219   2.305  10.977  0.3214 -0.4376 -1.0735
  342MOL0     C45018   9.097   2.361  11.014 -0.4067  0.5886  0.3106
  342MOL0     C45019   8.994   2.281  11.066  0.0183 -0.4384  0.5398
  342MOL0     O45020   8.876   2.351  11.087 -0.3712  0.7015 -0.3432
  342MOL0     C45021   8.782   2.283  11.164  0.9650 -0.2562  0.3743
  342MOL0     C45022   8.642   2.355  11.144 -0.3112 -0.6231  0.3274
  342MOL0     C45023   8.561   2.291  11.028  0.1290  0.7208  0.1429
  342MOL0     C45024   8.416   2.342  11.002 -0.1287 -0.2752 -0.3383
  342MOL0     C45025   8.325   2.325  11.122  0.1559  0.6369  0.2384
  342MOL0     C45026   8.189   2.366  11.076 -0.0790  0.2685  0.7270
  342MOL0     C45027   8.109   2.247  11.031  0.3552 -0.9684  0.6795
  342MOL0     C45028   7.966   2.302  11.016 -0.7254 -0.0979 -0.7179
  342MOL0     N45029   7.875   2.193  10.974  0.0673  0.0720  0.4659
  342MOL0     C45030   7.801   2.106  11.057  0.3437 -0.0281 -0.2100
  342MOL0     C45031   7.702   2.044  10.983 -1.5214 -0.5178  0.6105
  342MOL0     C45032   7.612   1.929  11.023  0.6841 -0.4545  0.3126
  342MOL0     C45033   7.554   1.939  11.163 -1.7898  1.4859  0.1597
  342MOL0     C45034   7.544   1.792  11.224 -0.1726 -0.4321 -0.1288
  342MOL0     C45035   7.467   1.793  11.357 -0.4944 -0.2112  0.8305
  342MOL0     O45036   7.322   1.807  11.330 -1.0196 -0.3607  0.0965
  342MOL0     C45037   7.245   1.696  11.312  0.1217 -0.1064 -0.2898
  342MOL0     C45038   7.112   1.721  11.298 -0.0888 -0.0171  0.1729
  342MOL0     C45039   7.024   1.619  11.275 -0.6973  0.0005  0.1275
  342MOL0     C45040   7.059   1.483  11.265  0.0650  0.2073 -0.2980
  342MOL0     C45041   6.967   1.370  11.250 -0.2276 -0.0643  0.2081
  342MOL0     O45042   6.842   1.390  11.301  0.7134 -0.4385  0.2301
  342MOL0     C45043   6.745   1.302  11.279 -0.0930 -0.2630 -0.0317
  342MOL0     C45044   6.762   1.162  11.285  0.4649 -0.0799  0.1272
  342MOL0     C45045   6.652   1.081  11.277  1.5458  0.1763 -0.7749
  342MOL0     C45046   6.529   1.139  11.224 -1.3236  0.0027  0.5048
  342MOL0     O45047   6.407   1.081  11.188 -0.7783  0.6515  0.1213
  342MOL0     C45048   6.404   0.941  11.171  0.2173  0.7793 -0.2489
  342MOL0     C45049   6.261   0.909  11.119  0.2836 -0.0272 -0.4436
  342MOL0     C45050   6.149   0.960  11.213  0.1488  0.2662  0.2764
  342MOL0     C45051   6.012   0.933  11.157  0.9661 -0.4553 -0.0694
  342MOL0     C45052   5.905   0.970  11.259  0.4916  0.1219  0.4203
  342MOL0     C45053   5.768   0.957  11.193 -0.2336 -0.1855  0.2870
  342MOL0     C45054   5.674   1.056  11.261 -0.1023  0.4605 -0.6809
  342MOL0     C45055   5.528   1.027  11.219  0.4738  0.6556 -0.7137
  342MOL0    Cl45056   5.414   1.121  11.323  0.0557 -0.0798 -0.0235
  342MOL0     C45057   6.513   1.272  11.201  0.0104  0.6875  0.8733
  342MOL0     C45058   6.622   1.360  11.230  0.0987  0.8061  0.2434
  342MOL0     O45059   7.009   1.273  11.187  0.0944  0.1098 -0.3645
  342MOL0     C45060   7.198   1.461  11.269  0.7441 -0.1175  0.2644
  342MOL0     C45061   7.294   1.566  11.288  0.6701  0.3486  1.0177
  342MOL0     N45062   7.711   2.096  10.861 -0.1836  0.1591 -0.3454
  342MOL0     N45063   7.808   2.180  10.850  0.7112 -0.5087  0.9871
  342MOL0     C45064   9.018   2.147  11.080  0.6999 -0.2874 -0.0661
  342MOL0     C45065   9.134   2.087  11.048 -0.9126 -0.6428  0.2748
  342MOL0     C45066   9.590   2.110  10.851  0.1552 -0.3379  0.7657
  342MOL0     C45067   9.659   2.045  10.953  0.2631 -0.0234  0.0229
  342MOL0     C45068   9.796   2.017  10.942 -0.3627  0.1466 -0.5541
  342MOL0     C45069   9.871   2.044  10.824  0.2948  0.0385 -0.1155
  342MOL0     O45070  10.003   2.024  10.842  0.4761  0.7161 -0.3657
  342MOL0     C45071  10.085   2.125  10.778 -0.2894  0.4741  0.2035
  342MOL0     C45072  10.222   2.112  10.838  0.3095  0.2892 -0.0140
  342MOL0     C45073  10.286   1.988  10.772 -0.0853 -0.4981  1.1224
  342MOL0     C45074  10.366   1.904  10.877  0.1136  0.5998  0.3880
  342MOL0     C45075  10.271   1.846  10.974 -0.6981 -0.7249 -0.2188
  342MOL0     C45076  10.184   1.821  11.055 -0.0096 -0.1735 -0.5382
  342MOL0     C45077   9.807   2.109  10.723 -0.5083 -0.4225 -0.7479
  342MOL0     C45078   9.664   2.131  10.732  0.4525  0.1792  0.7330
  342MOL0     H45079   9.291   2.375  10.937 -2.2491  1.6752 -2.3595
  342MOL0     H45080   9.082   2.466  10.993  1.3635  0.7811 -0.1623
  342MOL0     H45081   8.808   2.296  11.270  1.7977  1.1944  0.0123
  342MOL0     H45082   8.763   2.178  11.138 -1.4983 -0.6947  3.3539
  342MOL0     H45083   8.674   2.459  11.133  1.0183 -1.1893 -1.8969
  342MOL0     H45084   8.583   2.342  11.235  1.6554 -1.7143  1.5095
  342MOL0     H45085   8.557   2.185  11.054 -0.7496  0.9418  1.0068
  342MOL0     H45086   8.623   2.297  10.938 -0.9557 -1.0177 -0.7624
  342MOL0     H45087   8.409   2.443  10.961 -1.0916  0.4797  1.5780
  342MOL0     H45088   8.374   2.284  10.919  0.6568 -0.7633 -0.4009
  342MOL0     H45089   8.356   2.386  11.208 -0.5622  0.3637  0.6941
  342MOL0     H45090   8.325   2.221  11.156 -1.5352  0.2017 -0.9912
  342MOL0     H45091   8.183   2.440  10.996  0.7618 -0.7716 -0.3310
  342MOL0     H45092   8.132   2.407  11.160  0.7379 -0.4727  1.6631
  342MOL0     H45093   8.141   2.211  10.932 -0.8153 -0.0069 -0.0805
  342MOL0     H45094   8.127   2.162  11.098 -0.2228  0.1123  2.2628
  342MOL0     H45095   7.965   2.376  10.936  2.0745  1.8740  0.9069
  342MOL0     H45096   7.929   2.344  11.110 -0.8937 -1.6265 -0.0605
  342MOL0     H45097   7.833   2.103  11.160  2.9149 -4.1336 -0.9014
  342MOL0     H45098   7.683   1.846  11.024  2.0981  0.7143  0.3235
  342MOL0     H45099   7.526   1.912  10.958  1.4030 -1.7254 -0.3528
  342MOL0     H45100   7.460   1.994  11.154 -2.2322  0.7465  0.1274
  342MOL0     H45101   7.621   1.992  11.231 -1.8931 -0.9820  2.3118
  342MOL0     H45102   7.483   1.735  11.155  0.0548 -0.5952 -0.1951
  342MOL0     H45103   7.642   1.745  11.234  0.6995  1.3220  0.0773
  342MOL0     H45104   7.502   1.884  11.407 -0.7531  1.0583 -1.1846
  342MOL0     H45105   7.502   1.705  11.411  2.4472  0.3664  0.0846
  342MOL0     H45106   7.077   1.824  11.296  3.0177  1.2396  2.4695
  342MOL0     H45107   6.919   1.642  11.258  0.0636  1.2300 -3.7835
  342MOL0     H45108   6.860   1.131  11.317  0.8216  0.5286 -0.3564
  342MOL0     H45109   6.647   0.978  11.311 -1.8474  1.5466  3.7854
  342MOL0     H45110   6.419   0.891  11.267  0.3126 -0.6469 -0.9858
  342MOL0     H45111   6.485   0.917  11.101  1.1283  0.3572  0.9323
  342MOL0     H45112   6.265   0.799  11.121 -0.3345 -0.0622 -0.8300
  342MOL0     H45113   6.244   0.935  11.015 -1.6989 -2.0605 -0.7051
  342MOL0     H45114   6.152   1.069  11.229 -2.4872  0.4345 -0.0021
  342MOL0     H45115   6.170   0.916  11.311 -0.3867 -6.8307 -2.2323
  342MOL0     H45116   6.014   0.999  11.070 -0.2943 -0.0478  0.1967
  342MOL0     H45117   5.997   0.831  11.120  0.7371 -0.0865 -1.0207
  342MOL0     H45118   5.913   1.075  11.291  2.1768  0.4863 -1.0699
  342MOL0     H45119   5.908   0.908  11.349 -0.9114 -0.0976  0.3483
  342MOL0     H45120   5.727   0.856  11.204  1.8306 -0.9491  1.4772
  342MOL0     H45121   5.777   0.988  11.089  0.2065  0.7319  0.5871
  342MOL0     H45122   5.690   1.063  11.369 -1.2424  1.3033 -0.5454
  342MOL0     H45123   5.685   1.161  11.235  1.8036  0.6105  0.5373
  342MOL0     H45124   5.509   0.921  11.234  1.7505  0.7586  2.3404
  342MOL0     H45125   5.504   1.055  11.116 -1.6994  1.5230 -0.0334
  342MOL0     H45126   6.419   1.304  11.158 -1.7689 -2.1540  2.3555
  342MOL0     H45127   6.613   1.468  11.223 -0.8075  0.7657  0.6442
  342MOL0     H45128   7.227   1.357  11.260 -1.2367 -0.6916  0.0627
  342MOL0     H45129   7.400   1.546  11.300  0.5056 -1.0345  0.3901
  342MOL0     H45130   8.945   2.075  11.116  0.6018 -0.8164 -1.2807
  342MOL0     H45131   9.149   1.982  11.072 -1.0368 -0.2697  2.1806
  342MOL0     H45132   9.602   2.043  11.045 -0.6042 -2.7617 -0.4880
  342MOL0     H45133   9.839   1.980  11.035 -3.3991  0.6159  1.1909
  342MOL0     H45134  10.046   2.223  10.809 -0.0590 -0.0754  2.4091
  342MOL0     H45135  10.090   2.109  10.670 -1.8698  1.2414 -0.0151
  342MOL0     H45136  10.270   2.205  10.807 -0.2289  0.6544  0.2243
  342MOL0     H45137  10.225   2.116  10.947  1.1778  2.9022 -0.0544
  342MOL0     H45138  10.349   2.026  10.692 -4.1732  2.6817 -0.9545
  342MOL0     H45139  10.218   1.926  10.714  2.1208 -0.3773 -1.8013
  342MOL0     H45140  10.429   1.826  10.834  1.8816  2.0032  0.3326
  342MOL0     H45141  10.431   1.972  10.934  0.5617  0.1494  0.4166
  342MOL0     H45142  10.121   1.801  11.140 -1.0268  0.1312 -1.1900
  342MOL0     H45143   9.863   2.132  10.633  1.6442 -0.8754  0.4039
  342MOL0     H45144   9.621   2.156  10.636  1.6447  3.9174  0.9963
  343MOL0     O45145   5.250   5.157   9.933 -0.4806  0.0962 -0.1687
  343MOL0     C45146   5.276   5.200  10.043  0.1445 -0.2681 -0.7451
  343MOL0     O45147   5.180   5.251  10.135 -0.0082 -0.6353  0.4711
  343MOL0     C45148   5.050   5.225  10.119 -0.2569 -0.9775 -0.5684
  343MOL0     C45149   4.975   5.285  10.017  0.2509 -0.0403 -0.2367
  343MOL0     C45150   4.842   5.242   9.986  0.3754  0.8067 -0.9213
  343MOL0     C45151   4.775   5.155  10.068  0.0659  0.1117 -0.0747
  343MOL0     O45152   4.648   5.117  10.039 -0.0401  0.2634 -0.2631
  343MOL0     C45153   4.589   4.997  10.096  0.1444  0.2414  0.1686
  343MOL0     C45154   4.463   4.963  10.014  0.2689 -0.2157  0.3792
  343MOL0     C45155   4.366   4.863  10.083 -0.9854  1.1144  0.0716
  343MOL0     C45156   4.236   4.830   9.998  0.0994  0.6541 -0.5190
  343MOL0     C45157   4.148   4.744  10.085 -0.3175 -0.6951 -0.1704
  343MOL0     C45158   4.012   4.725  10.018  0.0878 -0.3546  0.0215
  343MOL0     C45159   3.918   4.648  10.106  0.0734  0.6902 -0.2832
  343MOL0     C45160   3.783   4.618  10.022 -0.1024  0.2696  0.6762
  343MOL0     N45161   3.684   4.727  10.030  0.2069 -0.3394  0.0189
  343MOL0     C45162   3.579   4.736  10.116  0.6181  0.0305  0.2995
  343MOL0     C45163   3.539   4.866  10.089 -0.1342 -1.2616 -0.7716
  343MOL0     C45164   3.433   4.951  10.166 -0.4469 -0.6392 -1.3805
  343MOL0     C45165   3.302   4.969  10.082 -0.6204  0.5979 -0.4193
  343MOL0     C45166   3.188   5.026  10.167 -0.5832 -0.2177 -0.6644
  343MOL0     C45167   3.061   5.058  10.079 -0.5539 -0.0966  0.3108
  343MOL0     O45168   3.094   5.171   9.992  0.5951  0.3124 -0.6600
  343MOL0     C45169   3.020   5.217   9.892 -0.1831  0.1506 -0.0280
  343MOL0     C45170   2.882   5.198   9.891 -0.0454  0.1408 -0.9677
  343MOL0     C45171   2.797   5.270   9.809 -0.1216  0.7160 -0.9477
  343MOL0     C45172   2.842   5.346   9.707  0.5670 -0.2754 -0.5702
  343MOL0     C45173   2.741   5.401   9.614  0.3381 -0.7255 -1.4613
  343MOL0     O45174   2.605   5.381   9.637  0.0012 -0.2004 -0.5006
  343MOL0     C45175   2.520   5.409   9.540  0.3557 -0.1652  0.6071
  343MOL0     C45176   2.525   5.349   9.411  0.9208  0.1849 -0.9026
  343MOL0     C45177   2.413   5.347   9.326  0.3892 -0.1204 -0.4665
  343MOL0     C45178   2.308   5.447   9.352 -0.4339 -0.0710 -0.0500
  343MOL0     O45179   2.208   5.482   9.260 -0.1437 -0.3816  0.0816
  343MOL0     C45180   2.193   5.420   9.127  0.1064 -0.1130 -0.0313
  343MOL0     C45181   2.045   5.399   9.086 -0.2248  0.4097  0.4833
  343MOL0     C45182   1.959   5.523   9.117  0.0609 -0.1877 -0.3238
  343MOL0     C45183   1.818   5.488   9.088 -0.7515  0.2119  0.3141
  343MOL0     C45184   1.736   5.609   9.094  0.0555 -0.0180  0.3585
  343MOL0     C45185   1.586   5.572   9.081  0.3128 -0.5406 -0.2963
  343MOL0     C45186   1.482   5.690   9.101 -0.1317  0.5931 -0.7818
  343MOL0     C45187   1.341   5.646   9.056  1.0281 -0.3734  0.0054
  343MOL0    Cl45188   1.223   5.776   9.087  0.0558 -0.7274 -0.0651
  343MOL0     C45189   2.311   5.529   9.460 -0.8723  1.4289  0.4620
  343MOL0     C45190   2.413   5.497   9.562  0.4284 -0.5445 -0.1921
  343MOL0     O45191   2.787   5.469   9.523  0.1937 -0.0671  0.6519
  343MOL0     C45192   2.977   5.363   9.693 -0.4095  0.1006  0.7393
  343MOL0     C45193   3.066   5.301   9.790 -1.1910  0.6927 -0.7093
  343MOL0     N45194   3.606   4.922   9.980 -0.5553 -0.4339  0.3971
  343MOL0     N45195   3.693   4.835   9.942 -0.2037 -0.4677 -0.4591
  343MOL0     C45196   4.848   5.099  10.178  0.3412  0.8842  0.1698
  343MOL0     C45197   4.980   5.136  10.203  0.4834  0.0708  0.6221
  343MOL0     C45198   5.415   5.194  10.094 -0.0711 -0.5278  0.0996
  343MOL0     C45199   5.446   5.235  10.222  0.5882 -0.8575 -0.5656
  343MOL0     C45200   5.568   5.239  10.270 -0.0167  0.3033 -0.4510
  343MOL0     C45201   5.671   5.176  10.193 -0.3984  0.4214  0.3183
  343MOL0     O45202   5.795   5.167  10.247 -0.0593 -0.8219 -0.2459
  343MOL0     C45203   5.911   5.120  10.172  0.6628 -1.0228  0.1348
  343MOL0     C45204   6.024   5.136  10.258 -0.5182 -0.8247 -0.7146
  343MOL0     C45205   6.070   5.273  10.279 -0.1678 -0.4078  0.0646
  343MOL0     C45206   6.191   5.271  10.366 -0.1249 -0.1659 -0.2832
  343MOL0     C45207   6.197   5.374  10.468  0.3177 -0.9005 -0.4700
  343MOL0     C45208   6.207   5.464  10.546 -1.1705 -0.3560 -0.2816
  343MOL0     C45209   5.651   5.124  10.062  0.2938 -0.7430  0.5102
  343MOL0     C45210   5.519   5.139  10.013 -0.2888  0.1519 -0.5391
  343MOL0     H45211   5.022   5.349   9.943 -1.3324 -1.3677 -2.5300
  343MOL0     H45212   4.786   5.297   9.911 -0.4568  0.2820 -0.7038
  343MOL0     H45213   4.554   5.016  10.198 -2.1204  0.5051 -0.6032
  343MOL0     H45214   4.654   4.909  10.103 -1.0213 -0.5414  4.2770
  343MOL0     H45215   4.500   4.926   9.918 -0.3568 -0.6896  0.3122
  343MOL0     H45216   4.409   5.056   9.997  0.1670 -0.7043 -2.5343
  343MOL0     H45217   4.336   4.895  10.183 -2.1590  1.0544 -0.2361
  343MOL0     H45218   4.426   4.773  10.094  0.2610  2.1826  2.9348
  343MOL0     H45219   4.194   4.921   9.956 -0.8629 -0.9214 -3.2128
  343MOL0     H45220   4.264   4.770   9.911  1.1887 -0.8963  0.8303
  343MOL0     H45221   4.132   4.798  10.179  1.9523  1.8124 -1.0983
  343MOL0     H45222   4.193   4.646  10.107 -0.5748 -0.7028  0.3520
  343MOL0     H45223   4.021   4.676   9.921 -2.9878 -2.4116  0.6455
  343MOL0     H45224   3.977   4.827  10.000 -3.4452 -1.1976  1.3074
  343MOL0     H45225   3.965   4.553  10.132  1.7250  2.3128  3.4333
  343MOL0     H45226   3.902   4.694  10.204  1.6690  1.5885 -0.4156
  343MOL0     H45227   3.742   4.529  10.070  2.4686 -0.3983  1.7994
  343MOL0     H45228   3.812   4.595   9.919 -1.2520 -0.6467  0.5382
  343MOL0     H45229   3.559   4.672  10.201 -2.3948  0.0917 -0.2634
  343MOL0     H45230   3.486   5.045  10.188  0.5391 -1.2330 -1.1640
  343MOL0     H45231   3.404   4.907  10.261 -2.5794  0.9118 -1.2349
  343MOL0     H45232   3.280   4.868  10.046  1.5285 -0.2462  0.4539
  343MOL0     H45233   3.328   5.036  10.000  0.9962  0.4721 -0.0334
  343MOL0     H45234   3.152   4.948  10.235  0.1178 -0.2365 -0.3073
  343MOL0     H45235   3.217   5.116  10.221 -0.4245  0.5024 -1.9094
  343MOL0     H45236   2.977   5.088  10.143 -0.6980 -0.3539  0.2467
  343MOL0     H45237   3.042   4.968  10.019  0.0740 -0.7061  1.0125
  343MOL0     H45238   2.832   5.131   9.961 -1.0976  2.6921  0.8815
  343MOL0     H45239   2.691   5.244   9.811  0.3162 -1.2234 -1.6759
  343MOL0     H45240   2.610   5.289   9.380 -1.8977 -3.0970 -2.9761
  343MOL0     H45241   2.417   5.284   9.239 -0.3087 -1.1184  0.1997
  343MOL0     H45242   2.248   5.325   9.134  1.6124  0.8036  1.2941
  343MOL0     H45243   2.241   5.482   9.051 -0.6698 -1.9654 -2.1279
  343MOL0     H45244   2.012   5.309   9.139  0.1525  1.5898  2.8357
  343MOL0     H45245   2.035   5.370   8.981 -0.3204 -2.8554  1.2821
  343MOL0     H45246   1.988   5.612   9.062  1.8398  0.0543  0.9042
  343MOL0     H45247   1.970   5.554   9.221 -1.4161  0.1157 -0.2431
  343MOL0     H45248   1.801   5.448   8.988  0.1692  0.5057  0.0229
  343MOL0     H45249   1.771   5.420   9.160 -1.4246  1.5252  1.1766
  343MOL0     H45250   1.758   5.674   9.009 -0.8842 -1.7864 -1.3345
  343MOL0     H45251   1.759   5.645   9.194 -2.3350 -1.0697  1.3657
  343MOL0     H45252   1.559   5.497   9.155 -0.4121 -2.7176 -2.6590
  343MOL0     H45253   1.557   5.528   8.986  0.6338 -2.1509  0.3307
  343MOL0     H45254   1.476   5.724   9.205 -0.5788 -3.0762  0.5537
  343MOL0     H45255   1.510   5.778   9.042  1.1485  0.4269 -0.4543
  343MOL0     H45256   1.302   5.562   9.114 -0.8280 -0.0084 -0.6611
  343MOL0     H45257   1.338   5.621   8.950 -1.0991 -1.6756  0.3128
  343MOL0     H45258   2.224   5.589   9.487 -1.2576  0.4213  1.5866
  343MOL0     H45259   2.403   5.532   9.664  1.1613  0.5692 -0.4817
  343MOL0     H45260   3.013   5.412   9.603  0.0562 -0.1384  0.7949
  343MOL0     H45261   3.173   5.302   9.773 -1.4514  0.3608 -2.6121
  343MOL0     H45262   4.816   5.030  10.255 -0.3456 -0.1734 -1.0355
  343MOL0     H45263   5.039   5.081  10.277 -0.8759  0.6197  2.1787
  343MOL0     H45264   5.369   5.281  10.284 -2.4363 -0.0724 -4.5432
  343MOL0     H45265   5.586   5.279  10.368 -5.3197  1.0691  0.5202
  343MOL0     H45266   5.935   5.165  10.075  0.1247  0.4970  0.6744
  343MOL0     H45267   5.895   5.013  10.158  2.0740 -1.3758  1.0504
  343MOL0     H45268   6.016   5.079  10.351  0.1448  2.1549  1.2891
  343MOL0     H45269   6.109   5.085  10.211  0.6496  1.8717 -1.7273
  343MOL0     H45270   5.993   5.337  10.322  2.0294  1.1934  1.8646
  343MOL0     H45271   6.100   5.310  10.181  2.8166 -2.9752 -0.1669
  343MOL0     H45272   6.191   5.177  10.423 -1.0192 -0.0291 -0.0434
  343MOL0     H45273   6.281   5.274  10.304 -0.3143  1.6920 -0.5022
  343MOL0     H45274   6.213   5.557  10.599  3.2238 -1.0217  0.7739
  343MOL0     H45275   5.720   5.074   9.994  0.9994  0.3801  0.3830
  343MOL0     H45276   5.498   5.103   9.913  1.1178 -0.2426 -0.7233
  344MOL0     O45277  10.703   1.837   5.842 -0.0870 -0.3068  0.2841
  344MOL0     C45278  10.742   1.816   5.961  0.2016  0.2554 -0.0120
  344MOL0     O45279  10.664   1.768   6.058 -0.0086 -0.4555 -0.4658
  344MOL0     C45280  10.532   1.735   6.028  0.3835 -0.2412 -0.0237
  344MOL0     C45281  10.502   1.627   5.944  0.4879  0.2276 -0.8019
  344MOL0     C45282  10.370   1.601   5.901 -0.1608 -0.0645  0.1325
  344MOL0     C45283  10.261   1.676   5.954  0.0017 -0.2084  0.4752
  344MOL0     O45284  10.125   1.643   5.937 -0.0020  0.4588 -0.4368
  344MOL0     C45285  10.093   1.511   5.888 -0.7038  0.5440  0.0399
  344MOL0     C45286   9.942   1.497   5.886 -0.1914  0.7072 -0.8675
  344MOL0     C45287   9.871   1.481   6.021  0.4526  0.0212  0.5009
  344MOL0     C45288   9.720   1.486   5.986  0.1667 -0.1537 -0.2070
  344MOL0     C45289   9.643   1.467   6.110  0.3254 -0.2433 -0.2744
  344MOL0     C45290   9.487   1.484   6.100 -0.7426  0.6500  1.0675
  344MOL0     C45291   9.430   1.490   6.239  0.0130 -0.0832  0.2403
  344MOL0     C45292   9.309   1.401   6.259 -0.3857  0.5553  0.0722
  344MOL0     N45293   9.185   1.478   6.266 -0.7018  0.1771 -0.5214
  344MOL0     C45294   9.113   1.506   6.381 -0.3288  0.0131  0.0167
  344MOL0     C45295   9.018   1.587   6.340 -0.2727  0.4232 -0.6800
  344MOL0     C45296   8.914   1.639   6.428 -0.2462  0.2361  0.0814
  344MOL0     C45297   8.770   1.612   6.381 -0.6224 -0.6702  0.2248
  344MOL0     C45298   8.731   1.462   6.392  0.2535 -0.2100 -0.2229
  344MOL0     C45299   8.597   1.415   6.330 -0.9287  0.4396 -1.3140
  344MOL0     O45300   8.502   1.432   6.430 -0.1390 -0.1057 -0.5696
  344MOL0     C45301   8.368   1.399   6.412  0.1872  0.3401 -0.4449
  344MOL0     C45302   8.271   1.420   6.520  0.3804  0.3935  0.1139
  344MOL0     C45303   8.133   1.396   6.503  0.0476  0.4090 -0.5410
  344MOL0     C45304   8.089   1.360   6.371  0.2293 -0.7054  0.6591
  344MOL0     C45305   7.942   1.340   6.340  0.5140 -0.4803  0.2842
  344MOL0     O45306   7.858   1.290   6.436  0.0235 -0.2233  0.4413
  344MOL0     C45307   7.732   1.238   6.401  0.1139 -0.3501 -0.3568
  344MOL0     C45308   7.719   1.148   6.293  0.2829 -0.4161  0.4373
  344MOL0     C45309   7.594   1.117   6.239  0.7901  0.2422  0.1686
  344MOL0     C45310   7.473   1.177   6.292  0.4957  0.3023 -0.2243
  344MOL0     O45311   7.348   1.176   6.226 -0.3688 -0.0634  0.0912
  344MOL0     C45312   7.224   1.195   6.297 -0.2954 -0.5847 -0.2023
  344MOL0     C45313   7.114   1.138   6.195 -0.8067  0.2804  0.2040
  344MOL0     C45314   6.966   1.164   6.247  0.9647  0.0051  0.4385
  344MOL0     C45315   6.874   1.138   6.134  0.0712  0.0530 -0.3413
  344MOL0     C45316   6.739   1.201   6.175 -0.2940 -0.4068 -0.2613
  344MOL0     C45317   6.623   1.170   6.070  0.1864 -0.3851 -0.0557
  344MOL0     C45318   6.637   1.248   5.927 -0.2713  0.3970 -0.0196
  344MOL0     C45319   6.559   1.164   5.822 -0.8768  0.7234 -0.0988
  344MOL0    Cl45320   6.381   1.157   5.859 -0.1827  0.4691 -0.4113
  344MOL0     C45321   7.491   1.254   6.419 -0.7901  0.8371 -0.2186
  344MOL0     C45322   7.622   1.273   6.471  0.0160  0.3185 -0.6344
  344MOL0     O45323   7.908   1.359   6.218 -0.6873  0.0515  0.2419
  344MOL0     C45324   8.186   1.327   6.274 -0.4082 -0.0851 -0.1299
  344MOL0     C45325   8.327   1.344   6.294 -0.6649  0.1375 -0.1003
  344MOL0     N45326   9.039   1.618   6.212  0.1284 -0.4086  0.5735
  344MOL0     N45327   9.135   1.552   6.165 -0.7083  0.3846  0.4653
  344MOL0     C45328  10.298   1.785   6.042  0.5852  0.6663  0.4564
  344MOL0     C45329  10.423   1.812   6.083 -0.1432 -0.6848  0.0724
  344MOL0     C45330  10.884   1.841   5.991  0.5556 -0.3408  0.0480
  344MOL0     C45331  10.944   1.833   6.112 -0.4571 -0.2154 -0.0319
  344MOL0     C45332  11.080   1.868   6.132 -0.1971 -0.2259 -0.0865
  344MOL0     C45333  11.163   1.901   6.024 -0.0280  1.7006  0.0554
  344MOL0     O45334  11.297   1.950   6.028 -0.0073  0.0275  0.3836
  344MOL0     C45335  11.350   1.949   6.157 -0.9890 -0.2922 -0.1301
  344MOL0     C45336  11.490   1.994   6.160 -0.6203 -0.3705  0.5155
  344MOL0     C45337  11.536   1.978   6.309 -0.2495 -0.1182  0.1940
  344MOL0     C45338  11.676   2.032   6.333  0.2685  0.9462  0.3946
  344MOL0     C45339  11.780   1.950   6.274 -0.3883 -0.3618  0.3121
  344MOL0     C45340  11.864   1.866   6.235  0.9110 -1.3742  0.4693
  344MOL0     C45341  11.106   1.896   5.899 -0.5614 -0.4901 -0.2503
  344MOL0     C45342  10.973   1.879   5.880  1.4956  0.1901  0.2137
  344MOL0     H45343  10.579   1.564   5.902 -1.9162 -3.5100 -0.0649
  344MOL0     H45344  10.348   1.512   5.844 -0.5652  0.4261 -0.4865
  344MOL0     H45345  10.131   1.429   5.949 -4.4387 -1.5903 -0.2039
  344MOL0     H45346  10.129   1.503   5.785  1.7021  1.2142  0.7807
  344MOL0     H45347   9.922   1.406   5.827  1.1128  2.1592 -3.7546
  344MOL0     H45348   9.913   1.585   5.829  1.2578  0.8474 -1.4381
  344MOL0     H45349   9.902   1.562   6.087  0.7553  1.6214 -1.5240
  344MOL0     H45350   9.891   1.377   6.050  2.5343 -0.6434 -2.7510
  344MOL0     H45351   9.699   1.586   5.945  0.3744 -0.5601 -1.3380
  344MOL0     H45352   9.701   1.408   5.912  1.5838 -3.4062  2.6092
  344MOL0     H45353   9.683   1.533   6.187 -0.1714 -0.0179 -0.2016
  344MOL0     H45354   9.658   1.368   6.154 -1.5874  0.4208  2.1576
  344MOL0     H45355   9.455   1.395   6.044 -1.1118  0.0192  2.2377
  344MOL0     H45356   9.467   1.574   6.041  0.0246  1.0740  1.4445
  344MOL0     H45357   9.509   1.457   6.307  2.7455 -2.6562 -3.6981
  344MOL0     H45358   9.403   1.593   6.261 -3.8367 -1.0684  0.7901
  344MOL0     H45359   9.306   1.333   6.345 -1.4556 -1.8361 -1.7137
  344MOL0     H45360   9.311   1.333   6.173 -1.1613  0.5288  0.0744
  344MOL0     H45361   9.133   1.469   6.481 -1.4741  2.1138  1.0767
  344MOL0     H45362   8.921   1.748   6.442 -0.7137  0.0530  2.1103
  344MOL0     H45363   8.938   1.598   6.527 -1.4384  0.6141  0.5555
  344MOL0     H45364   8.764   1.644   6.277 -0.2241 -1.4840 -0.0596
  344MOL0     H45365   8.698   1.678   6.431  0.6429  0.3392  0.7902
  344MOL0     H45366   8.815   1.410   6.347  1.9416  1.5102  0.7835
  344MOL0     H45367   8.727   1.443   6.500  1.2723  0.2102 -0.0975
  344MOL0     H45368   8.597   1.307   6.318  2.9329  0.1736 -0.3419
  344MOL0     H45369   8.577   1.461   6.233  0.9949  2.1471 -0.9767
  344MOL0     H45370   8.297   1.449   6.621  2.0014 -4.5551  1.3595
  344MOL0     H45371   8.073   1.425   6.588  1.4625 -0.4496  0.8155
  344MOL0     H45372   7.810   1.109   6.247 -0.9606 -1.6802 -1.0604
  344MOL0     H45373   7.608   1.059   6.148  3.3221 -1.0050  1.2386
  344MOL0     H45374   7.201   1.298   6.327  1.5773 -0.1867 -0.0192
  344MOL0     H45375   7.227   1.136   6.389 -0.2916  2.1809  1.7008
  344MOL0     H45376   7.135   1.031   6.187  1.5239  0.5747  1.6165
  344MOL0     H45377   7.137   1.190   6.101  0.2733 -1.8246 -0.7856
  344MOL0     H45378   6.952   1.260   6.298 -2.8650 -0.6113  0.8130
  344MOL0     H45379   6.950   1.090   6.327  3.0943 -0.7741  0.2072
  344MOL0     H45380   6.912   1.169   6.036 -2.8692  0.8361 -1.3453
  344MOL0     H45381   6.865   1.032   6.109  0.6892  0.3177 -1.7419
  344MOL0     H45382   6.752   1.308   6.195 -1.2913 -0.7298  2.6115
  344MOL0     H45383   6.712   1.165   6.274  0.8601 -0.9314 -0.1208
  344MOL0     H45384   6.533   1.218   6.111  1.4142  3.0188 -0.9691
  344MOL0     H45385   6.611   1.062   6.063 -1.7578 -0.2537  0.5245
  344MOL0     H45386   6.600   1.350   5.946 -1.7501 -0.3298  1.2227
  344MOL0     H45387   6.740   1.240   5.893 -0.6230 -3.3313 -0.5447
  344MOL0     H45388   6.591   1.060   5.832  0.4783  0.8762 -2.2342
  344MOL0     H45389   6.575   1.207   5.723 -0.2500 -1.1411 -0.8622
  344MOL0     H45390   7.413   1.301   6.478 -1.9952 -1.3411  0.0431
  344MOL0     H45391   7.636   1.337   6.558  0.8208  0.1987 -0.6656
  344MOL0     H45392   8.151   1.294   6.177  0.1283 -0.0280 -0.3441
  344MOL0     H45393   8.392   1.323   6.210 -1.5722  0.4771 -0.9138
  344MOL0     H45394  10.220   1.851   6.077 -0.9820 -0.3336 -1.0290
  344MOL0     H45395  10.438   1.893   6.154 -0.8144  0.4139 -1.0100
  344MOL0     H45396  10.880   1.811   6.197 -3.2710  2.2787 -1.3306
  344MOL0     H45397  11.096   1.878   6.239 -2.2900  1.2633  0.1469
  344MOL0     H45398  11.344   1.849   6.201 -2.7929 -1.0545 -1.9606
  344MOL0     H45399  11.283   2.012   6.216 -2.7988 -1.1671 -1.1594
  344MOL0     H45400  11.551   1.923   6.104  2.6459  3.0079 -0.6319
  344MOL0     H45401  11.493   2.094   6.116  0.3648 -0.3700  0.5617
  344MOL0     H45402  11.535   1.872   6.336  1.7985 -0.3571 -0.4901
  344MOL0     H45403  11.474   2.026   6.385 -1.5734 -0.2289 -0.7711
  344MOL0     H45404  11.688   2.132   6.293  2.3950  0.4926 -0.2313
  344MOL0     H45405  11.699   2.044   6.439 -1.4044  0.9982  0.7704
  344MOL0     H45406  11.942   1.795   6.215  1.7832 -0.4397  0.4787
  344MOL0     H45407  11.176   1.924   5.821  2.8171 -3.0632  1.5688
  344MOL0     H45408  10.925   1.897   5.784  0.4526  4.1195  1.2899
  345MOL0     O45409   0.970   0.016   2.860 -0.4216 -0.3869  0.2834
  345MOL0     C45410   0.967   0.039   2.981  0.7196 -0.5163  0.2729
  345MOL0     O45411   1.074   0.046   3.066 -0.6200  0.0664 -0.0135
  345MOL0     C45412   1.201   0.027   3.005  0.2857 -0.5805 -0.6552
  345MOL0     C45413   1.276   0.117   2.919 -0.4100 -0.1580  0.6477
  345MOL0     C45414   1.396   0.075   2.860 -0.5832 -0.1721 -1.0207
  345MOL0     C45415   1.450  -0.050   2.880  0.3811 -0.3022 -0.0097
  345MOL0     O45416   1.578  -0.094   2.839  0.1441 -0.2331 -0.5768
  345MOL0     C45417   1.661   0.005   2.787  0.6883  0.4492 -0.6067
  345MOL0     C45418   1.807  -0.040   2.807  0.1347 -0.3474 -0.5297
  345MOL0     C45419   1.895   0.050   2.715  0.0658  0.0706  0.0609
  345MOL0     C45420   2.042   0.075   2.746  0.1916  0.3112 -0.5156
  345MOL0     C45421   2.119   0.169   2.650  0.0214 -0.3338 -0.2294
  345MOL0     C45422   2.264   0.182   2.679 -0.2544 -0.7239 -0.2175
  345MOL0     C45423   2.332   0.292   2.597 -0.1487  0.2768  0.3167
  345MOL0     C45424   2.366   0.265   2.444  0.2693 -1.0001  0.2108
  345MOL0     N45425   2.513   0.244   2.437 -0.7663  0.6299  0.4693
  345MOL0     C45426   2.608   0.343   2.418 -0.0611  0.0020 -0.2998
  345MOL0     C45427   2.731   0.280   2.429 -0.0355  0.0176  0.2588
  345MOL0     C45428   2.853   0.372   2.430  0.1891 -0.2689  0.5544
  345MOL0     C45429   2.925   0.381   2.560 -0.4604 -0.5468  0.4915
  345MOL0     C45430   2.835   0.467   2.657  0.4276  0.8339 -0.0167
  345MOL0     C45431   2.873   0.452   2.801 -0.0922  0.3244 -0.7821
  345MOL0     O45432   2.805   0.555   2.865 -0.3363  0.0608  0.5653
  345MOL0     C45433   2.671   0.539   2.889 -0.5256 -0.1735  0.4961
  345MOL0     C45434   2.604   0.419   2.919  0.0999  0.1074 -0.3509
  345MOL0     C45435   2.471   0.416   2.970 -0.2123 -0.1912 -0.2774
  345MOL0     C45436   2.398   0.536   2.989 -0.0152 -0.0328 -0.1981
  345MOL0     C45437   2.256   0.536   3.024 -0.6054  0.4889  0.1450
  345MOL0     O45438   2.187   0.423   3.007  0.6187  0.1860 -0.4858
  345MOL0     C45439   2.045   0.439   3.013 -0.2976 -0.2964  0.4680
  345MOL0     C45440   1.993   0.460   3.135  0.0832  1.2782  0.8065
  345MOL0     C45441   1.856   0.468   3.157  0.4318  0.7696 -0.4396
  345MOL0     C45442   1.770   0.445   3.045 -0.4239 -0.0022  0.0314
  345MOL0     O45443   1.634   0.469   3.057  0.7328 -0.4553  0.1732
  345MOL0     C45444   1.583   0.570   3.150 -0.0579 -0.7035 -0.1988
  345MOL0     C45445   1.444   0.609   3.097 -0.0272  0.4863 -0.4726
  345MOL0     C45446   1.336   0.538   3.181 -0.5557  0.6303 -0.8385
  345MOL0     C45447   1.195   0.560   3.118  0.0290  0.5180 -0.1592
  345MOL0     C45448   1.083   0.495   3.193 -0.1308  0.5397 -0.5248
  345MOL0     C45449   0.951   0.475   3.130 -0.8463 -0.7359 -0.5279
  345MOL0     C45450   0.849   0.415   3.213  0.3976 -0.8726 -0.2853
  345MOL0     C45451   0.719   0.438   3.140 -0.1198 -0.6312  0.6904
  345MOL0    Cl45452   0.598   0.372   3.240  0.0420  0.0082 -0.1198
  345MOL0     C45453   1.826   0.414   2.918  0.2598  0.7214  1.0270
  345MOL0     C45454   1.962   0.414   2.904 -0.1299 -0.6113  0.7104
  345MOL0     O45455   2.201   0.646   3.035  0.2255 -0.3434 -0.1729
  345MOL0     C45456   2.463   0.652   2.965 -1.0992 -0.2824  0.6584
  345MOL0     C45457   2.592   0.657   2.913  0.4852  0.5887 -0.2531
  345MOL0     N45458   2.707   0.142   2.451  0.7124 -1.0397 -0.1423
  345MOL0     N45459   2.576   0.128   2.459 -0.8107  0.4278 -0.2665
  345MOL0     C45460   1.378  -0.140   2.958  0.0074 -0.5041  0.5604
  345MOL0     C45461   1.266  -0.098   3.035 -0.7714 -0.7743 -1.0945
  345MOL0     C45462   0.832   0.038   3.044 -0.6855  0.4570  0.4982
  345MOL0     C45463   0.819  -0.002   3.170  0.4504 -0.6835  0.0461
  345MOL0     C45464   0.700  -0.019   3.223  0.7886  0.2397  0.0741
  345MOL0     C45465   0.580  -0.005   3.148  0.1231  0.8987 -0.7154
  345MOL0     O45466   0.458  -0.037   3.190  0.1246 -0.3726 -0.1312
  345MOL0     C45467   0.409   0.029   3.319  0.5230 -0.4587  0.3223
  345MOL0     C45468   0.325  -0.082   3.395  0.1817 -0.4313  0.5287
  345MOL0     C45469   0.187  -0.093   3.332 -0.9486 -0.6151  0.4472
  345MOL0     C45470   0.101  -0.213   3.379 -0.8304 -0.9652  0.2103
  345MOL0     C45471  -0.043  -0.197   3.347 -0.5767 -0.2377 -0.1770
  345MOL0     C45472  -0.163  -0.184   3.340  0.8020  0.2143  0.2152
  345MOL0     C45473   0.587   0.043   3.020  0.0354  0.5050  0.5080
  345MOL0     C45474   0.716   0.065   2.967  0.1427  0.8974  0.0843
  345MOL0     H45475   1.249   0.220   2.900  1.4972  0.3458  0.4817
  345MOL0     H45476   1.438   0.157   2.802  1.1998 -0.0128  0.3742
  345MOL0     H45477   1.655   0.092   2.853  1.8940 -0.2433  0.4521
  345MOL0     H45478   1.641   0.023   2.681 -0.5851 -0.1293 -0.4767
  345MOL0     H45479   1.812  -0.146   2.778 -0.1800 -0.0541 -1.6841
  345MOL0     H45480   1.844  -0.034   2.910 -0.5164  2.3448 -0.3915
  345MOL0     H45481   1.848   0.149   2.717 -1.3076 -0.5588 -0.1964
  345MOL0     H45482   1.895   0.006   2.615  0.4260 -1.4191  0.6854
  345MOL0     H45483   2.060   0.120   2.844  1.1126  1.9925 -1.3983
  345MOL0     H45484   2.095  -0.020   2.750 -0.2607  0.1079  1.3923
  345MOL0     H45485   2.072   0.267   2.649 -0.0295 -0.3261  1.0928
  345MOL0     H45486   2.109   0.137   2.545  0.4249  1.9236 -0.9966
  345MOL0     H45487   2.315   0.090   2.650 -0.0926 -1.2527  1.5845
  345MOL0     H45488   2.285   0.206   2.784 -2.5429  1.2135 -0.1292
  345MOL0     H45489   2.286   0.388   2.622 -0.9028 -0.1884  0.7171
  345MOL0     H45490   2.428   0.296   2.651 -0.3067  1.9451  0.5236
  345MOL0     H45491   2.333   0.349   2.382 -0.8043 -2.9312 -2.0367
  345MOL0     H45492   2.306   0.186   2.397 -1.2789  0.6208 -0.6916
  345MOL0     H45493   2.597   0.450   2.406 -0.5235  0.6737  4.4135
  345MOL0     H45494   2.821   0.474   2.403  1.8886 -0.0589 -0.8882
  345MOL0     H45495   2.926   0.336   2.357  1.4961  0.1425  1.6222
  345MOL0     H45496   3.021   0.431   2.543 -0.6348 -0.2384  0.4218
  345MOL0     H45497   2.944   0.285   2.609  0.3618  0.4217  2.1993
  345MOL0     H45498   2.858   0.572   2.637  0.6607  0.6387 -0.8092
  345MOL0     H45499   2.729   0.444   2.639  0.1047  0.8001  1.7822
  345MOL0     H45500   2.978   0.475   2.821 -0.4981  1.8132 -0.2120
  345MOL0     H45501   2.846   0.351   2.832  2.9664  0.0756  1.5314
  345MOL0     H45502   2.655   0.323   2.910 -1.6287 -0.7464 -1.4990
  345MOL0     H45503   2.418   0.326   2.998 -0.7712  0.4758  0.8943
  345MOL0     H45504   2.051   0.464   3.227  0.4105 -2.5102  0.9279
  345MOL0     H45505   1.816   0.486   3.256  0.7038 -0.4942 -0.0831
  345MOL0     H45506   1.650   0.656   3.138 -0.4566 -0.7960 -4.0362
  345MOL0     H45507   1.580   0.542   3.256 -0.2588  0.8751  0.2432
  345MOL0     H45508   1.436   0.590   2.990  2.6967 -0.6655 -0.5422
  345MOL0     H45509   1.429   0.717   3.109  2.2818  1.0153 -1.7728
  345MOL0     H45510   1.332   0.578   3.283  0.1751 -1.2726 -0.0036
  345MOL0     H45511   1.365   0.433   3.193 -0.6668  0.6610 -0.2264
  345MOL0     H45512   1.170   0.665   3.099  3.0376  1.3961  0.2366
  345MOL0     H45513   1.199   0.504   3.025  0.1813  0.9230 -0.4004
  345MOL0     H45514   1.063   0.548   3.286 -3.0837 -1.2702  0.0354
  345MOL0     H45515   1.117   0.402   3.240  0.6225  0.5147 -1.1045
  345MOL0     H45516   0.966   0.421   3.036  0.7368 -1.6772  0.2110
  345MOL0     H45517   0.914   0.575   3.105 -2.2424 -1.6978 -2.4737
  345MOL0     H45518   0.870   0.309   3.228  0.2260 -0.7053  1.2769
  345MOL0     H45519   0.854   0.456   3.314  0.5272 -0.5247 -0.4324
  345MOL0     H45520   0.727   0.404   3.036  0.4725  0.8820  0.2202
  345MOL0     H45521   0.689   0.543   3.137 -1.8107 -1.1003 -2.3560
  345MOL0     H45522   1.765   0.400   2.829  0.5692 -0.3214  0.9751
  345MOL0     H45523   2.010   0.398   2.808 -1.3669  1.4167 -0.3115
  345MOL0     H45524   2.414   0.745   2.991 -0.6181  0.3355 -0.5639
  345MOL0     H45525   2.636   0.754   2.894 -1.4283  1.3097 -1.3080
  345MOL0     H45526   1.419  -0.240   2.972  3.0194  0.6961  1.2612
  345MOL0     H45527   1.226  -0.162   3.113 -2.7004  0.4910 -0.9654
  345MOL0     H45528   0.905  -0.022   3.233 -1.2216  1.6260  3.3365
  345MOL0     H45529   0.692  -0.070   3.319  4.4467  3.0427  2.1211
  345MOL0     H45530   0.354   0.123   3.312  1.7301  0.2832  0.3561
  345MOL0     H45531   0.497   0.064   3.376  1.5123  1.9159 -2.4188
  345MOL0     H45532   0.379  -0.177   3.388 -0.7221 -1.3483  3.9889
  345MOL0     H45533   0.308  -0.048   3.497  0.1597  1.4403 -0.0567
  345MOL0     H45534   0.202  -0.109   3.225 -1.2402  0.0967  0.2924
  345MOL0     H45535   0.135   0.003   3.341  3.3674  2.4036 -2.8261
  345MOL0     H45536   0.140  -0.305   3.335  0.7392 -0.1741 -0.1305
  345MOL0     H45537   0.114  -0.227   3.487 -1.2544 -2.7071  0.0636
  345MOL0     H45538  -0.267  -0.171   3.362  0.8188  0.8715 -0.0664
  345MOL0     H45539   0.493   0.063   2.969  0.9144  1.6512 -0.7334
  345MOL0     H45540   0.734   0.097   2.864  0.1920  0.1170 -0.1555
  346MOL0     O45541   1.336   0.008   6.025 -0.5226  0.3474  0.6777
  346MOL0     C45542   1.449  -0.011   6.073 -0.2721  0.0325 -0.2759
  346MOL0     O45543   1.479  -0.036   6.199  0.0202  0.3047 -0.2358
  346MOL0     C45544   1.393  -0.107   6.280  0.3345  0.3397  0.5507
  346MOL0     C45545   1.259  -0.067   6.306  0.0125  0.2739  0.3243
  346MOL0     C45546   1.172  -0.145   6.379  0.0638 -0.0546 -0.2249
  346MOL0     C45547   1.199  -0.278   6.408  0.0372 -0.6201  0.2409
  346MOL0     O45548   1.102  -0.364   6.458  0.2365 -0.1184  0.0805
  346MOL0     C45549   0.963  -0.319   6.447  0.7317 -0.1500  0.6142
  346MOL0     C45550   0.877  -0.438   6.477 -0.3377 -0.2688 -0.3046
  346MOL0     C45551   0.863  -0.465   6.631 -0.2057  0.1362 -0.4595
  346MOL0     C45552   0.767  -0.589   6.657  1.0270 -0.3977  0.0881
  346MOL0     C45553   0.770  -0.640   6.801 -0.2193  0.6355 -0.4629
  346MOL0     C45554   0.694  -0.548   6.894 -0.2152 -1.0047  0.1819
  346MOL0     C45555   0.717  -0.591   7.042 -0.7725 -0.0350  0.3053
  346MOL0     C45556   0.842  -0.517   7.107  0.0702  0.2942  0.4422
  346MOL0     N45557   0.975  -0.523   7.051 -0.3912 -0.4282 -0.1223
  346MOL0     C45558   1.025  -0.446   6.952 -0.4285 -0.5850  1.4797
  346MOL0     C45559   1.146  -0.502   6.911 -0.5805  0.5530  0.5497
  346MOL0     C45560   1.245  -0.468   6.803 -0.6581 -0.2209 -0.5889
  346MOL0     C45561   1.286  -0.325   6.786 -0.4858 -0.5029  0.1084
  346MOL0     C45562   1.435  -0.308   6.831  0.3139 -0.5914 -0.2287
  346MOL0     C45563   1.536  -0.312   6.707  0.8891  0.7168  0.0457
  346MOL0     O45564   1.678  -0.301   6.752 -0.3830  0.0359 -0.0135
  346MOL0     C45565   1.769  -0.362   6.674  0.4653 -0.1552 -0.2184
  346MOL0     C45566   1.888  -0.395   6.744 -0.3096 -0.0991  0.8385
  346MOL0     C45567   1.995  -0.464   6.674  0.2793 -0.1095 -1.3218
  346MOL0     C45568   1.989  -0.485   6.540 -0.9405 -0.1753 -0.6643
  346MOL0     C45569   2.100  -0.539   6.465  0.2646  0.7199  0.3875
  346MOL0     O45570   2.220  -0.546   6.531 -0.4180  0.2614  0.3214
  346MOL0     C45571   2.337  -0.562   6.453 -0.1432  0.6075  0.0101
  346MOL0     C45572   2.432  -0.463   6.449  0.4695 -0.5828  0.0530
  346MOL0     C45573   2.546  -0.491   6.378 -0.1763 -0.0201 -0.8674
  346MOL0     C45574   2.570  -0.617   6.308  0.1295  0.6845 -0.4909
  346MOL0     O45575   2.683  -0.659   6.238 -0.1362  0.3543 -0.3831
  346MOL0     C45576   2.813  -0.602   6.285 -0.1047  0.0033  0.6999
  346MOL0     C45577   2.919  -0.655   6.198 -0.0713  0.7984  0.3939
  346MOL0     C45578   3.059  -0.605   6.239 -1.6000  0.7521  0.4066
  346MOL0     C45579   3.174  -0.686   6.159 -0.3540 -0.0097  0.0157
  346MOL0     C45580   3.315  -0.654   6.204  0.2330  1.2264 -0.1005
  346MOL0     C45581   3.402  -0.590   6.094 -0.6972  0.0104 -0.0366
  346MOL0     C45582   3.550  -0.592   6.118 -0.2893  0.1893 -0.7833
  346MOL0     C45583   3.625  -0.728   6.135  0.3498 -0.0499  0.1981
  346MOL0    Cl45584   3.567  -0.827   6.013  0.0363 -0.5398  0.2364
  346MOL0     C45585   2.470  -0.713   6.312  0.5608 -0.0455 -0.5413
  346MOL0     C45586   2.359  -0.696   6.393 -0.5580 -0.1754 -0.0639
  346MOL0     O45587   2.076  -0.578   6.352 -0.0306 -1.1802 -0.1363
  346MOL0     C45588   1.880  -0.429   6.471 -1.0589  0.0762  0.3732
  346MOL0     C45589   1.769  -0.365   6.532  0.2205  0.0112 -0.0880
  346MOL0     N45590   1.164  -0.619   6.989 -0.0085  0.6002  0.1876
  346MOL0     N45591   1.069  -0.630   7.072 -0.0129 -0.7897 -0.2178
  346MOL0     C45592   1.332  -0.314   6.388  0.0645  0.9101  0.6118
  346MOL0     C45593   1.430  -0.235   6.325 -0.0299 -0.2301  0.2296
  346MOL0     C45594   1.560  -0.011   5.972 -0.2574  0.4005 -0.2645
  346MOL0     C45595   1.695  -0.023   6.008 -0.6986  0.8126  0.0769
  346MOL0     C45596   1.789  -0.005   5.906  0.0732  0.1987  0.5401
  346MOL0     C45597   1.746   0.007   5.771  0.0773 -0.0666  1.2164
  346MOL0     O45598   1.845   0.013   5.674  0.2465 -0.6437 -0.2227
  346MOL0     C45599   1.958   0.103   5.702  0.6376 -0.2667 -0.0994
  346MOL0     C45600   2.020   0.137   5.572  0.2756 -0.2517  0.2196
  346MOL0     C45601   2.109   0.026   5.521  0.5294 -0.1896  0.0905
  346MOL0     C45602   2.260   0.053   5.543 -0.3830  0.4441 -0.0379
  346MOL0     C45603   2.315   0.148   5.445 -0.4665  0.6117  0.0141
  346MOL0     C45604   2.374   0.236   5.389 -0.4176 -0.5639 -0.7109
  346MOL0     C45605   1.617   0.000   5.734 -0.2298 -0.9196  0.2208
  346MOL0     C45606   1.526  -0.009   5.841  0.2619  0.1574  0.1618
  346MOL0     H45607   1.220   0.031   6.283 -0.6030  0.4575  1.9961
  346MOL0     H45608   1.077  -0.097   6.403  0.9188  2.3333 -1.2830
  346MOL0     H45609   0.940  -0.291   6.344  0.8882 -3.8192 -0.5544
  346MOL0     H45610   0.935  -0.237   6.514 -0.6361  1.1968 -1.4578
  346MOL0     H45611   0.914  -0.527   6.426  1.1263  1.3085 -2.1273
  346MOL0     H45612   0.780  -0.410   6.435  0.3842  0.2805 -1.6787
  346MOL0     H45613   0.827  -0.377   6.685 -0.2466 -1.6379  2.7218
  346MOL0     H45614   0.962  -0.486   6.674 -0.2371 -0.1958 -0.5436
  346MOL0     H45615   0.670  -0.552   6.621  0.0859 -0.4439  2.3736
  346MOL0     H45616   0.789  -0.673   6.591  2.9354  0.1595 -0.0460
  346MOL0     H45617   0.871  -0.659   6.839 -0.6680 -3.3418 -0.8042
  346MOL0     H45618   0.709  -0.731   6.807 -2.1012  1.8650  0.0482
  346MOL0     H45619   0.585  -0.556   6.884 -0.3731  0.1407  0.7650
  346MOL0     H45620   0.726  -0.444   6.884  0.0000 -1.0456  0.4448
  346MOL0     H45621   0.627  -0.565   7.099 -0.2190  2.3977  0.1804
  346MOL0     H45622   0.732  -0.698   7.059 -0.5383  0.1722  1.4991
  346MOL0     H45623   0.853  -0.541   7.213  0.5447  2.4311  0.9362
  346MOL0     H45624   0.806  -0.414   7.112 -1.5252 -0.2519  0.4600
  346MOL0     H45625   0.974  -0.362   6.905  0.2699  0.5095  2.6273
  346MOL0     H45626   1.195  -0.495   6.710 -0.3095  2.4182 -1.6259
  346MOL0     H45627   1.330  -0.536   6.817  0.4389  1.5904  2.5451
  346MOL0     H45628   1.226  -0.258   6.848 -1.0238  0.5877 -1.5238
  346MOL0     H45629   1.277  -0.286   6.684 -0.6987  0.2489  0.4075
  346MOL0     H45630   1.450  -0.208   6.873 -2.4251  0.6715 -1.9090
  346MOL0     H45631   1.465  -0.382   6.905 -1.3490 -2.0532 -0.9408
  346MOL0     H45632   1.520  -0.226   6.642 -0.7200  1.7334  1.6782
  346MOL0     H45633   1.520  -0.402   6.647  0.7993 -0.0925  1.2402
  346MOL0     H45634   1.897  -0.381   6.851  0.2525 -0.4261  0.8403
  346MOL0     H45635   2.077  -0.500   6.735 -0.2370  0.7964 -0.0391
  346MOL0     H45636   2.394  -0.374   6.498  0.5476 -0.8389  0.5897
  346MOL0     H45637   2.625  -0.419   6.358 -0.2872  0.7128  1.1255
  346MOL0     H45638   2.842  -0.624   6.388  2.3502  2.5490  0.6584
  346MOL0     H45639   2.804  -0.494   6.273  0.4588  0.1004  1.1368
  346MOL0     H45640   2.894  -0.629   6.094  1.2423  2.3417  0.4369
  346MOL0     H45641   2.906  -0.764   6.204  1.7971  0.4120 -1.3998
  346MOL0     H45642   3.080  -0.625   6.344  0.4871 -2.3170 -0.4757
  346MOL0     H45643   3.069  -0.497   6.221  3.6291  0.9309  2.5382
  346MOL0     H45644   3.151  -0.791   6.180 -2.4307  0.4553  0.3620
  346MOL0     H45645   3.171  -0.677   6.050  0.9544  1.7653  0.0962
  346MOL0     H45646   3.357  -0.751   6.234 -1.8931  0.1531 -0.3842
  346MOL0     H45647   3.305  -0.588   6.291 -0.0204  1.3387 -0.2165
  346MOL0     H45648   3.366  -0.488   6.080 -3.8322 -1.0963 -0.8979
  346MOL0     H45649   3.398  -0.637   5.995 -0.9821  1.1235 -0.5637
  346MOL0     H45650   3.590  -0.537   6.033 -2.1738  2.2384 -0.4466
  346MOL0     H45651   3.562  -0.530   6.208 -2.2533  0.9085 -0.9465
  346MOL0     H45652   3.604  -0.781   6.228 -1.1056  0.7042  0.3215
  346MOL0     H45653   3.731  -0.703   6.123  0.2546  1.3942  1.8927
  346MOL0     H45654   2.496  -0.812   6.275 -0.3053 -0.7530  0.6491
  346MOL0     H45655   2.283  -0.773   6.404 -0.4484 -0.7502 -2.6826
  346MOL0     H45656   1.895  -0.438   6.364  0.3027 -0.8356  0.6001
  346MOL0     H45657   1.686  -0.320   6.480 -2.3652 -3.5891  0.5623
  346MOL0     H45658   1.365  -0.415   6.408  0.3333  0.8719 -0.0101
  346MOL0     H45659   1.536  -0.255   6.319  0.0793  0.8156 -3.1704
  346MOL0     H45660   1.733  -0.036   6.109  2.1459 -0.2421 -1.0174
  346MOL0     H45661   1.893  -0.013   5.934  0.7722  2.3120 -1.2035
  346MOL0     H45662   2.037   0.056   5.760  0.6713 -0.5988 -0.4134
  346MOL0     H45663   1.932   0.198   5.751  0.7813 -0.1832 -0.1846
  346MOL0     H45664   1.940   0.157   5.501 -0.6444 -1.6268  0.8460
  346MOL0     H45665   2.082   0.228   5.574  0.2734 -0.1987 -1.3076
  346MOL0     H45666   2.095   0.016   5.413 -0.1325  3.1705 -0.2380
  346MOL0     H45667   2.093  -0.079   5.547 -0.6533 -0.8389 -2.8259
  346MOL0     H45668   2.282   0.082   5.646 -1.4491  1.1008  0.0139
  346MOL0     H45669   2.316  -0.040   5.526  0.1372  0.9352 -1.1031
  346MOL0     H45670   2.427   0.312   5.335  1.2380 -0.7485  0.5916
  346MOL0     H45671   1.587   0.015   5.631 -0.9381  2.4194  0.7757
  346MOL0     H45672   1.423  -0.022   5.810  0.2892 -0.6659  0.4053
  347MOL0     O45673   1.337   9.284   8.634 -0.0391  0.1608 -0.9979
  347MOL0     C45674   1.401   9.228   8.545 -0.6141  0.2979  0.1348
  347MOL0     O45675   1.347   9.124   8.467  0.4864 -0.2867  0.9227
  347MOL0     C45676   1.211   9.082   8.472 -0.7236 -0.0820  0.6196
  347MOL0     C45677   1.182   8.949   8.444 -0.7176 -0.9725  0.2368
  347MOL0     C45678   1.051   8.906   8.432  0.2157  0.1534 -0.4140
  347MOL0     C45679   0.946   8.998   8.428 -0.5122 -0.6902  0.6130
  347MOL0     O45680   0.812   8.968   8.409  0.3445  0.9690 -0.5413
  347MOL0     C45681   0.769   8.874   8.503  0.3256 -0.3187 -0.1688
  347MOL0     C45682   0.616   8.907   8.542 -0.8126 -0.4955  0.1311
  347MOL0     C45683   0.614   9.034   8.638 -0.3051 -0.0145  0.6626
  347MOL0     C45684   0.470   9.074   8.671 -0.1604 -0.3809 -0.4437
  347MOL0     C45685   0.404   8.964   8.747 -0.6873  0.0387  0.9341
  347MOL0     C45686   0.260   9.006   8.761  0.4054  0.3683  0.1512
  347MOL0     C45687   0.193   8.907   8.859 -1.1217 -0.7658 -0.7871
  347MOL0     C45688   0.182   8.959   9.003 -0.1321 -0.4018  0.5442
  347MOL0     N45689   0.310   8.995   9.063 -0.7320  0.3042  0.7931
  347MOL0     C45690   0.361   9.124   9.043 -0.3336 -0.8058 -2.1329
  347MOL0     C45691   0.471   9.127   9.113  0.3709 -0.6893 -0.3475
  347MOL0     C45692   0.546   9.255   9.134  0.6903 -0.2492  0.0205
  347MOL0     C45693   0.639   9.299   9.025  0.5642 -0.7399 -0.3626
  347MOL0     C45694   0.748   9.196   9.000  0.1518 -1.0559  0.0844
  347MOL0     C45695   0.856   9.194   9.108 -0.7121  0.5313 -0.5134
  347MOL0     O45696   0.975   9.135   9.052 -0.0811  0.6821 -0.6382
  347MOL0     C45697   1.086   9.205   9.032  0.2896 -0.7832 -0.1114
  347MOL0     C45698   1.201   9.126   9.009 -0.5372  0.3486 -0.5955
  347MOL0     C45699   1.321   9.191   8.990  0.1737 -0.5965 -0.1419
  347MOL0     C45700   1.333   9.334   8.993 -0.2607 -0.3673  0.5686
  347MOL0     C45701   1.461   9.409   8.982 -0.7205  1.0892 -0.2584
  347MOL0     O45702   1.564   9.328   8.957 -0.0729 -0.7654  0.5070
  347MOL0     C45703   1.691   9.373   8.941  0.6625  0.3247  0.5726
  347MOL0     C45704   1.789   9.278   8.926 -0.8652 -0.0421 -0.5971
  347MOL0     C45705   1.917   9.312   8.886 -0.0540  0.6360  0.3894
  347MOL0     C45706   1.956   9.445   8.861 -0.0614 -0.5680 -0.1104
  347MOL0     O45707   2.083   9.487   8.831 -0.2867  0.0303  0.5572
  347MOL0     C45708   2.180   9.477   8.935  0.2145  0.3370 -0.0801
  347MOL0     C45709   2.327   9.524   8.889  0.1201 -1.2675 -0.0769
  347MOL0     C45710   2.321   9.675   8.856 -0.0032  0.6223 -0.6947
  347MOL0     C45711   2.449   9.717   8.775 -0.6769 -0.8763 -0.2540
  347MOL0     C45712   2.438   9.866   8.742 -0.1596 -0.4588 -0.7382
  347MOL0     C45713   2.391   9.956   8.850  0.7784  0.0483 -0.4576
  347MOL0     C45714   2.386  10.104   8.805  0.1817 -0.3737  0.3098
  347MOL0     C45715   2.301  10.126   8.683  0.2763  0.1339  0.1579
  347MOL0    Cl45716   2.232  10.300   8.667  0.1220  0.0534 -0.0186
  347MOL0     C45717   1.860   9.544   8.890  0.0749  0.1161 -0.4647
  347MOL0     C45718   1.734   9.508   8.924 -0.5303 -0.1673  0.2403
  347MOL0     O45719   1.462   9.529   8.990  0.1152 -0.1668 -0.1430
  347MOL0     C45720   1.222   9.410   9.019 -0.8072  0.5451  0.5927
  347MOL0     C45721   1.098   9.347   9.026  0.2368 -0.4338  0.3408
  347MOL0     N45722   0.487   9.001   9.179  0.5127  0.1362 -0.0542
  347MOL0     N45723   0.390   8.919   9.149 -0.3104 -0.5318  0.4847
  347MOL0     C45724   0.977   9.132   8.459  0.6938 -0.4157 -0.0778
  347MOL0     C45725   1.110   9.170   8.486  0.2715 -0.2830 -0.6743
  347MOL0     C45726   1.538   9.284   8.510  0.3223 -0.7150 -0.0578
  347MOL0     C45727   1.604   9.238   8.394 -0.1139  0.7039  0.0337
  347MOL0     C45728   1.733   9.284   8.368  1.0254  0.2378  1.0797
  347MOL0     C45729   1.794   9.382   8.447  0.3894  0.4916  0.7527
  347MOL0     O45730   1.918   9.420   8.410 -0.5944  0.2623 -0.3212
  347MOL0     C45731   1.942   9.528   8.319  0.6536 -0.8865 -0.5100
  347MOL0     C45732   2.080   9.600   8.353  0.4645  0.1933 -0.8232
  347MOL0     C45733   2.081   9.651   8.500 -0.3232  0.2592  0.7291
  347MOL0     C45734   2.011   9.791   8.504  0.0742  0.1712  0.3304
  347MOL0     C45735   2.011   9.832   8.645  0.5544  0.3778 -0.0944
  347MOL0     C45736   2.022   9.882   8.753  0.6056 -0.0997  0.3025
  347MOL0     C45737   1.730   9.418   8.562  0.3519 -0.2408 -0.3801
  347MOL0     C45738   1.600   9.382   8.595  0.0589  0.0799  0.2161
  347MOL0     H45739   1.269   8.885   8.432  1.1695  1.2094  1.4497
  347MOL0     H45740   1.038   8.799   8.420 -1.2454  0.4683 -2.1647
  347MOL0     H45741   0.827   8.879   8.595  1.5534  1.9871 -0.9933
  347MOL0     H45742   0.783   8.773   8.463 -0.2115 -0.7554  0.7178
  347MOL0     H45743   0.586   8.816   8.595  0.6265  0.3465  2.5531
  347MOL0     H45744   0.555   8.919   8.451  0.4651  1.0052 -0.5778
  347MOL0     H45745   0.678   9.112   8.595  0.3695 -1.2725 -0.6743
  347MOL0     H45746   0.668   9.022   8.733  3.1414  1.2389 -0.9736
  347MOL0     H45747   0.464   9.165   8.732 -0.4669 -1.0636  0.5805
  347MOL0     H45748   0.425   9.097   8.574 -0.9748  2.2892  0.4711
  347MOL0     H45749   0.459   8.941   8.839  0.5023 -1.9014 -0.2019
  347MOL0     H45750   0.416   8.863   8.707 -0.7850 -0.7757  2.8376
  347MOL0     H45751   0.218   9.002   8.660 -0.2137  2.2971  0.3033
  347MOL0     H45752   0.234   9.111   8.780 -0.8085  0.4621 -1.7945
  347MOL0     H45753   0.089   8.886   8.835 -2.0874 -0.2444  2.3992
  347MOL0     H45754   0.244   8.810   8.850 -0.7544 -0.6041 -0.4783
  347MOL0     H45755   0.135   8.878   9.060  1.1916 -4.1953 -3.2231
  347MOL0     H45756   0.117   9.046   8.992  0.9298  0.6007  1.8444
  347MOL0     H45757   0.321   9.208   8.987 -0.3664 -0.7556 -2.0358
  347MOL0     H45758   0.603   9.235   9.225  3.0053 -0.1978 -1.3452
  347MOL0     H45759   0.481   9.340   9.159 -1.4099 -2.7069  3.9908
  347MOL0     H45760   0.675   9.395   9.064 -2.1128  0.4779 -0.5980
  347MOL0     H45761   0.582   9.323   8.934  0.1062 -1.6696 -0.3369
  347MOL0     H45762   0.707   9.097   8.977 -0.3200 -1.1618  1.2897
  347MOL0     H45763   0.798   9.222   8.906 -1.4934 -2.3594 -1.2097
  347MOL0     H45764   0.820   9.141   9.197  1.7508  1.6035  1.2284
  347MOL0     H45765   0.878   9.294   9.147  2.6329 -0.6252  0.9098
  347MOL0     H45766   1.189   9.019   9.022 -0.3068  0.3820 -0.0909
  347MOL0     H45767   1.408   9.126   8.985 -0.6852 -1.7450 -0.7256
  347MOL0     H45768   1.763   9.175   8.946  0.5309 -0.2470  0.3128
  347MOL0     H45769   1.995   9.237   8.877  2.1399  2.5210  2.5514
  347MOL0     H45770   2.189   9.371   8.961 -0.9524  0.2182 -0.1080
  347MOL0     H45771   2.139   9.518   9.027  0.1362 -0.9685  0.4933
  347MOL0     H45772   2.367   9.470   8.803  0.0553 -2.5520  0.6798
  347MOL0     H45773   2.392   9.520   8.977 -0.2487  3.2884  0.6513
  347MOL0     H45774   2.300   9.733   8.946  0.0118  2.0095 -1.5543
  347MOL0     H45775   2.241   9.704   8.786  0.4539  2.2183 -0.5968
  347MOL0     H45776   2.536   9.705   8.841 -1.4964 -0.9085  0.8553
  347MOL0     H45777   2.456   9.651   8.688 -0.0293  0.7784 -1.4967
  347MOL0     H45778   2.371   9.879   8.657  1.3854  0.9513 -1.8145
  347MOL0     H45779   2.534   9.903   8.704  0.7287 -0.5336  1.2932
  347MOL0     H45780   2.469   9.949   8.927 -0.3054  1.3525  0.8283
  347MOL0     H45781   2.291   9.925   8.882  0.3119  1.5125 -0.4028
  347MOL0     H45782   2.343  10.166   8.885 -1.7608  0.7033 -1.4862
  347MOL0     H45783   2.491  10.132   8.789  0.2268 -1.8130 -2.3216
  347MOL0     H45784   2.214  10.059   8.684 -1.7192  2.3901 -3.0624
  347MOL0     H45785   2.359  10.098   8.595 -1.1724  3.6494 -2.1024
  347MOL0     H45786   1.890   9.648   8.884  1.4061 -0.3377 -2.3687
  347MOL0     H45787   1.669   9.593   8.936 -1.3029 -0.5793 -0.9049
  347MOL0     H45788   1.224   9.519   9.020  0.3484  0.5795 -1.5769
  347MOL0     H45789   1.015   9.417   9.028 -1.6560 -2.5613  0.1406
  347MOL0     H45790   0.895   9.203   8.462  2.2452  1.4448  0.2544
  347MOL0     H45791   1.142   9.273   8.502  1.1241 -0.4333 -1.3420
  347MOL0     H45792   1.563   9.156   8.335  0.2577 -0.6419  1.5936
  347MOL0     H45793   1.777   9.245   8.277 -2.2010  1.1376 -1.0513
  347MOL0     H45794   1.869   9.604   8.348  0.9027 -1.5039  1.9500
  347MOL0     H45795   1.949   9.499   8.214 -2.6673 -0.5269 -0.9309
  347MOL0     H45796   2.158   9.523   8.346 -0.4530 -0.7483 -0.7937
  347MOL0     H45797   2.109   9.675   8.279  0.7699  1.0417  0.1208
  347MOL0     H45798   2.186   9.655   8.532 -0.1086  1.9359 -0.1037
  347MOL0     H45799   2.033   9.580   8.568 -1.1772 -2.4473 -2.4614
  347MOL0     H45800   2.062   9.866   8.444 -0.8323 -1.0191 -2.0760
  347MOL0     H45801   1.913   9.791   8.456 -0.4010  2.0124  1.2039
  347MOL0     H45802   2.026   9.921   8.852  0.7942  2.5153 -0.6430
  347MOL0     H45803   1.780   9.485   8.633 -0.1647 -0.3010  0.0464
  347MOL0     H45804   1.565   9.422   8.690  2.9054  0.2368  1.3026
  348MOL0     O45805   8.793   8.214   0.675  0.5966 -0.1658  0.0922
  348MOL0     C45806   8.838   8.117   0.611 -0.4675 -0.1802 -0.0724
  348MOL0     O45807   8.770   8.012   0.576 -0.4553  0.2453  0.4956
  348MOL0     C45808   8.631   8.005   0.607 -0.5411 -0.5835 -0.1737
  348MOL0     C45809   8.604   7.889   0.677  0.3942  0.7138  0.1079
  348MOL0     C45810   8.482   7.875   0.750 -0.6357 -0.1898 -0.5013
  348MOL0     C45811   8.387   7.990   0.746 -1.7686  0.7360  0.1878
  348MOL0     O45812   8.277   7.978   0.820 -0.1218 -0.3917  0.0436
  348MOL0     C45813   8.175   8.083   0.809  0.4291 -0.1569  0.0446
  348MOL0     C45814   8.057   8.063   0.892  1.2336  0.7241  0.4100
  348MOL0     C45815   7.930   8.124   0.816 -0.3003  0.4153  0.0418
  348MOL0     C45816   7.807   8.095   0.902  0.1125 -0.4727  0.9242
  348MOL0     C45817   7.672   8.104   0.824 -0.3059  0.4793  0.4991
  348MOL0     C45818   7.562   8.064   0.931 -0.1300 -1.2304 -0.3958
  348MOL0     C45819   7.527   7.917   0.927 -0.8610  0.5963  0.6942
  348MOL0     C45820   7.424   7.892   0.814  0.4469  0.6670 -1.0159
  348MOL0     N45821   7.293   7.944   0.861 -0.0727 -1.0153  0.5976
  348MOL0     C45822   7.201   7.885   0.944  0.1699 -0.1863  0.1642
  348MOL0     C45823   7.096   7.968   0.949  0.5574 -1.0495  0.2089
  348MOL0     C45824   6.979   7.959   1.046 -0.1331  0.0259 -0.7541
  348MOL0     C45825   6.840   7.954   0.974 -0.4719  0.1133  0.4906
  348MOL0     C45826   6.751   7.861   1.057  0.1056 -0.1792 -0.5017
  348MOL0     C45827   6.735   7.886   1.206 -0.8036 -0.1184 -0.4032
  348MOL0     O45828   6.686   8.018   1.215  0.4548 -0.4141 -0.5420
  348MOL0     C45829   6.576   8.050   1.298 -0.2565  0.5041 -0.0593
  348MOL0     C45830   6.530   7.966   1.404  0.3148  0.2956  0.2883
  348MOL0     C45831   6.422   8.003   1.484  0.2003  0.1217  0.3771
  348MOL0     C45832   6.359   8.129   1.455 -0.1868  0.5991  0.7090
  348MOL0     C45833   6.248   8.176   1.542 -0.4316  1.0019  0.3016
  348MOL0     O45834   6.201   8.311   1.526  0.0066  0.7656 -0.0181
  348MOL0     C45835   6.090   8.345   1.600  0.3716 -0.0560 -0.1114
  348MOL0     C45836   6.090   8.354   1.738  0.0937 -0.0465 -0.3911
  348MOL0     C45837   5.981   8.395   1.812 -0.3288 -0.5418 -0.2826
  348MOL0     C45838   5.854   8.418   1.751 -0.2474 -0.2586  0.5809
  348MOL0     O45839   5.736   8.450   1.815  0.2057  0.0427  0.6132
  348MOL0     C45840   5.743   8.491   1.956 -0.5121  1.4934 -0.1897
  348MOL0     C45841   5.604   8.509   2.024 -0.0278  0.8899 -0.4101
  348MOL0     C45842   5.506   8.387   2.001 -0.8273  0.1251  0.6458
  348MOL0     C45843   5.372   8.399   2.059  0.6825  1.4855 -0.3389
  348MOL0     C45844   5.301   8.269   2.026  0.2580 -0.6667  0.6502
  348MOL0     C45845   5.167   8.278   2.092 -0.4497 -0.9455 -0.1870
  348MOL0     C45846   5.091   8.147   2.087 -0.1136 -0.3265 -0.2193
  348MOL0     C45847   4.965   8.151   2.169 -0.3536 -0.6718 -0.5068
  348MOL0    Cl45848   4.849   8.042   2.107  0.0471  0.0491  0.5861
  348MOL0     C45849   5.848   8.413   1.610  0.0625  0.1386  0.5114
  348MOL0     C45850   5.966   8.382   1.538  0.4490 -0.0527 -0.2372
  348MOL0     O45851   6.193   8.097   1.621 -1.2767 -0.2597 -0.0415
  348MOL0     C45852   6.403   8.205   1.342 -0.3243  0.2927 -0.1549
  348MOL0     C45853   6.517   8.174   1.281 -0.6762 -0.1491 -0.2420
  348MOL0     N45854   7.123   8.077   0.874  0.5160 -0.3246 -0.6389
  348MOL0     N45855   7.232   8.056   0.817  0.2619  0.4217 -0.1707
  348MOL0     C45856   8.419   8.103   0.665  0.3388 -0.1191 -0.5703
  348MOL0     C45857   8.540   8.113   0.591  0.3998 -0.6568 -0.6186
  348MOL0     C45858   8.986   8.120   0.578  0.6857 -0.1167  0.3020
  348MOL0     C45859   9.060   8.235   0.615 -0.2784 -0.1886 -1.1817
  348MOL0     C45860   9.198   8.229   0.619 -0.4249 -0.6110 -0.2383
  348MOL0     C45861   9.272   8.121   0.562 -0.0173 -0.3602 -0.3905
  348MOL0     O45862   9.410   8.114   0.563 -0.0551 -0.1748 -0.3225
  348MOL0     C45863   9.479   8.006   0.495  0.0349  0.9417  0.4048
  348MOL0     C45864   9.472   8.014   0.343  0.6590  0.4543 -0.1939
  348MOL0     C45865   9.561   8.131   0.285  0.1314 -0.1561  0.0452
  348MOL0     C45866   9.580   8.116   0.128 -0.3958  0.0706  0.0847
  348MOL0     C45867   9.454   8.165   0.068 -0.4332  0.1323 -0.7976
  348MOL0     C45868   9.358   8.212   0.016 -0.4519  0.0908  0.3503
  348MOL0     C45869   9.197   8.022   0.501 -0.1287  0.3355 -1.1009
  348MOL0     C45870   9.058   8.021   0.511  1.2224  0.1344  0.2067
  348MOL0     H45871   8.682   7.814   0.690 -0.7256 -0.4659  0.2625
  348MOL0     H45872   8.454   7.789   0.809  1.7644  1.4323  3.3743
  348MOL0     H45873   8.161   8.095   0.701 -0.4216  1.8129  0.3224
  348MOL0     H45874   8.215   8.178   0.845 -2.8193  1.7500 -0.9281
  348MOL0     H45875   8.072   8.117   0.986  1.6819 -2.5512  2.3653
  348MOL0     H45876   8.041   7.958   0.919 -0.8321  0.9757  0.3069
  348MOL0     H45877   7.924   8.069   0.722 -2.9438 -0.8318  0.8481
  348MOL0     H45878   7.941   8.232   0.802  2.2068  0.2771  0.4515
  348MOL0     H45879   7.815   7.993   0.940 -1.2060 -0.9304  0.0394
  348MOL0     H45880   7.815   8.165   0.986  3.3036 -0.9246  1.1391
  348MOL0     H45881   7.675   8.032   0.742 -0.1599 -5.3077  4.9380
  348MOL0     H45882   7.664   8.209   0.793 -1.3122 -0.2276 -1.8775
  348MOL0     H45883   7.474   8.125   0.909 -3.4473 -5.1289  0.9055
  348MOL0     H45884   7.603   8.086   1.030  2.8479 -0.2689 -1.7081
  348MOL0     H45885   7.619   7.859   0.911 -1.2262 -0.7668  3.0446
  348MOL0     H45886   7.492   7.879   1.024  2.6548  1.7146  2.5976
  348MOL0     H45887   7.407   7.787   0.788 -1.2668 -0.3492  3.2388
  348MOL0     H45888   7.465   7.942   0.726  2.5999 -1.3825 -1.2805
  348MOL0     H45889   7.219   7.794   0.999 -0.3690 -0.6496 -0.4036
  348MOL0     H45890   6.974   8.047   1.112  1.8065 -0.5225  0.2198
  348MOL0     H45891   7.006   7.875   1.111  0.7643 -0.8613 -2.2075
  348MOL0     H45892   6.855   7.918   0.872 -0.7017  1.5193 -0.0614
  348MOL0     H45893   6.795   8.053   0.968 -1.6711 -0.4798 -0.9126
  348MOL0     H45894   6.649   7.878   1.023  0.6270  2.3256 -0.9524
  348MOL0     H45895   6.790   7.761   1.036 -0.9233 -0.6717 -0.1619
  348MOL0     H45896   6.836   7.875   1.246 -0.8208  0.4784 -0.1799
  348MOL0     H45897   6.672   7.814   1.259  1.3960  0.3659  3.1567
  348MOL0     H45898   6.579   7.873   1.431  1.4290  1.2134  1.5608
  348MOL0     H45899   6.389   7.935   1.561  0.1339 -1.1682 -0.7457
  348MOL0     H45900   6.177   8.328   1.796  0.9744 -0.6421 -1.9057
  348MOL0     H45901   5.988   8.394   1.920  1.6244 -0.7514 -0.3794
  348MOL0     H45902   5.802   8.583   1.968  0.4741  1.0994 -1.7135
  348MOL0     H45903   5.791   8.413   2.016 -1.1107  0.1803 -1.3724
  348MOL0     H45904   5.546   8.601   2.008 -2.8884 -0.5325  1.0526
  348MOL0     H45905   5.620   8.499   2.131 -0.1448  3.3472 -0.1121
  348MOL0     H45906   5.557   8.294   2.028  1.1404  0.6930 -0.9486
  348MOL0     H45907   5.496   8.378   1.893  3.3773 -0.0776  0.1076
  348MOL0     H45908   5.394   8.404   2.166 -0.2870  0.6691 -0.0901
  348MOL0     H45909   5.322   8.484   2.012 -0.8063 -0.1099 -1.7939
  348MOL0     H45910   5.362   8.188   2.066  0.1044  0.0835  2.5194
  348MOL0     H45911   5.288   8.259   1.918 -0.2675  4.4654 -0.0187
  348MOL0     H45912   5.112   8.355   2.037  1.4622  2.1516  1.8676
  348MOL0     H45913   5.182   8.303   2.197  2.4967 -1.9949 -0.2710
  348MOL0     H45914   5.071   8.141   1.980  0.7563  1.4376 -0.5242
  348MOL0     H45915   5.153   8.066   2.126  0.9269  1.4852  2.1862
  348MOL0     H45916   4.920   8.251   2.173 -1.4470 -1.1783  0.3440
  348MOL0     H45917   4.997   8.114   2.267  1.2120  0.2787 -0.6309
  348MOL0     H45918   5.756   8.447   1.565 -0.9427 -3.9436 -0.9616
  348MOL0     H45919   5.964   8.385   1.429 -1.2482 -1.7195 -0.3191
  348MOL0     H45920   6.358   8.301   1.320  1.0352  1.0063  0.1056
  348MOL0     H45921   6.565   8.239   1.208 -2.9912 -0.0456 -1.7973
  348MOL0     H45922   8.342   8.180   0.667  0.4131 -0.0370  1.1143
  348MOL0     H45923   8.572   8.204   0.541  0.9204  1.5953  3.3537
  348MOL0     H45924   9.002   8.323   0.639 -1.0292  0.1559 -3.9690
  348MOL0     H45925   9.240   8.323   0.656 -1.4819 -0.5275  0.8163
  348MOL0     H45926   9.441   7.911   0.533  2.5556 -0.9070 -1.3586
  348MOL0     H45927   9.580   8.001   0.536 -1.2686  0.2562  3.8469
  348MOL0     H45928   9.503   7.915   0.306  0.5979 -0.2195  1.4443
  348MOL0     H45929   9.371   8.025   0.303  0.7246  3.1526  0.1920
  348MOL0     H45930   9.657   8.132   0.337  0.6305 -0.6936 -0.8555
  348MOL0     H45931   9.508   8.225   0.308 -1.6599 -0.9401 -0.6535
  348MOL0     H45932   9.666   8.170   0.087  0.4599 -1.0321  0.3840
  348MOL0     H45933   9.597   8.011   0.103  1.1787  0.6601 -1.5055
  348MOL0     H45934   9.261   8.232  -0.025 -0.7162 -1.5607  0.1177
  348MOL0     H45935   9.241   7.929   0.465  1.8589  0.1393  1.4753
  348MOL0     H45936   9.003   7.933   0.477 -0.1916  0.8642  0.5033
  349MOL0     O45937   9.860   7.106   7.462  0.0037  0.3091 -0.1464
  349MOL0     C45938   9.914   7.187   7.393 -0.1086 -0.2168  0.3555
  349MOL0     O45939   9.846   7.267   7.310 -0.2962 -0.2687  0.0561
  349MOL0     C45940   9.710   7.266   7.301 -0.0196 -0.6648  0.3234
  349MOL0     C45941   9.659   7.209   7.183 -0.0068 -0.0526  0.4637
  349MOL0     C45942   9.525   7.167   7.170  0.8559  0.9129  0.1847
  349MOL0     C45943   9.431   7.206   7.271 -0.2844  1.1002 -0.0417
  349MOL0     O45944   9.298   7.161   7.272 -0.7617 -0.6435  0.5987
  349MOL0     C45945   9.225   7.135   7.150 -0.2775 -0.1840  0.4298
  349MOL0     C45946   9.091   7.067   7.180 -0.3766  0.4985 -0.8117
  349MOL0     C45947   9.002   7.056   7.058  0.9241  0.0817 -0.2090
  349MOL0     C45948   8.885   6.963   7.101  0.0711 -0.2125 -0.1868
  349MOL0     C45949   8.798   6.924   6.989  0.6349  0.3493  0.4695
  349MOL0     C45950   8.715   6.803   7.029  0.3011 -0.8172  0.4605
  349MOL0     C45951   8.606   6.806   6.921 -0.0104 -0.2412 -0.5655
  349MOL0     C45952   8.536   6.673   6.882  0.2615  0.1950 -0.4352
  349MOL0     N45953   8.478   6.606   6.997 -0.2701 -0.0666 -0.4679
  349MOL0     C45954   8.370   6.655   7.071  0.7963 -0.1690 -0.4016
  349MOL0     C45955   8.360   6.558   7.170 -0.1404 -0.2111 -0.8401
  349MOL0     C45956   8.272   6.554   7.299 -0.5185 -0.8539  0.6095
  349MOL0     C45957   8.199   6.421   7.314 -0.9028  0.7432  0.2637
  349MOL0     C45958   8.119   6.434   7.447 -0.1943  0.6939 -1.1873
  349MOL0     C45959   7.993   6.345   7.445  0.7168  0.2549 -0.5515
  349MOL0     O45960   7.885   6.424   7.405 -0.6037 -0.9577 -0.7025
  349MOL0     C45961   7.763   6.367   7.430  0.4507  0.7525 -0.4094
  349MOL0     C45962   7.734   6.242   7.489 -0.6657 -0.2380 -0.2176
  349MOL0     C45963   7.608   6.199   7.512 -0.0459  0.1850  0.5025
  349MOL0     C45964   7.498   6.276   7.482  0.1478  0.1279 -0.3745
  349MOL0     C45965   7.372   6.244   7.525  0.2510  0.1759  0.2091
  349MOL0     O45966   7.347   6.113   7.530 -0.1006  0.3888  0.2134
  349MOL0     C45967   7.215   6.083   7.548 -0.6066  0.8012 -0.1799
  349MOL0     C45968   7.136   6.046   7.441 -0.1428 -1.4381  0.1660
  349MOL0     C45969   7.006   6.006   7.467 -0.4814  1.2125  0.2162
  349MOL0     C45970   6.955   5.998   7.598  0.4728 -0.6720  0.6325
  349MOL0     O45971   6.836   5.929   7.618 -0.1860 -0.4637 -0.1586
  349MOL0     C45972   6.777   5.929   7.746  0.5080  0.2407  0.0579
  349MOL0     C45973   6.637   5.860   7.743  0.3371 -0.8730 -0.9094
  349MOL0     C45974   6.558   5.856   7.875 -0.4281 -0.0588 -0.0020
  349MOL0     C45975   6.421   5.805   7.855  0.6172  0.0307 -0.1247
  349MOL0     C45976   6.333   5.819   7.976 -0.1017 -0.2170 -0.0108
  349MOL0     C45977   6.190   5.769   7.942 -0.1839 -0.1864 -0.3362
  349MOL0     C45978   6.177   5.613   7.945 -0.2560 -0.2297  0.0141
  349MOL0     C45979   6.029   5.583   7.945 -0.1095  0.3106 -0.0637
  349MOL0    Cl45980   5.950   5.638   7.800 -0.3385  0.4512 -0.2811
  349MOL0     C45981   7.038   6.044   7.700 -0.3791  0.0004  0.2827
  349MOL0     C45982   7.170   6.082   7.677  0.9515  0.2027  0.5019
  349MOL0     O45983   7.293   6.337   7.537  0.4254 -0.1614  0.1437
  349MOL0     C45984   7.523   6.397   7.419  0.1508  0.0193  0.2121
  349MOL0     C45985   7.650   6.436   7.404 -0.1158 -0.8577  0.3647
  349MOL0     N45986   8.462   6.467   7.152  0.3221  0.2262  0.0012
  349MOL0     N45987   8.532   6.500   7.052 -0.9439  0.8653 -0.0576
  349MOL0     C45988   9.479   7.278   7.384  0.4660 -0.0524  0.9110
  349MOL0     C45989   9.615   7.309   7.392 -0.5135  0.4680  0.2003
  349MOL0     C45990  10.058   7.163   7.361  0.7369  0.4645 -0.5635
  349MOL0     C45991  10.131   7.062   7.429  0.0128 -0.4399  0.4695
  349MOL0     C45992  10.268   7.051   7.417  0.2547  0.7337  0.8204
  349MOL0     C45993  10.346   7.142   7.338  0.2415 -0.6331 -0.1940
  349MOL0     O45994  10.476   7.133   7.336  0.0054 -0.3286 -0.3594
  349MOL0     C45995  10.515   6.992   7.309 -0.5567  0.2342  0.7142
  349MOL0     C45996  10.651   7.000   7.241  0.4174 -0.3654 -0.0742
  349MOL0     C45997  10.773   7.055   7.333  0.3464  0.3847 -0.5980
  349MOL0     C45998  10.909   7.036   7.247  0.0341 -0.1789 -0.1221
  349MOL0     C45999  11.006   7.096   7.337  0.0283 -0.0809  0.1498
  349MOL0     C46000  11.091   7.158   7.401  0.4315  0.7446 -0.3094
  349MOL0     C46001  10.273   7.239   7.261 -0.1903  1.5909 -0.5084
  349MOL0     C46002  10.133   7.245   7.267  0.3836  0.1299 -0.2723
  349MOL0     H46003   9.726   7.201   7.098 -0.5729  2.5677 -0.3233
  349MOL0     H46004   9.500   7.109   7.083 -4.0731  1.5680  0.8461
  349MOL0     H46005   9.284   7.072   7.082  4.0664  1.6756  2.0806
  349MOL0     H46006   9.215   7.234   7.105  2.0759  1.8008  3.7589
  349MOL0     H46007   9.037   7.130   7.251  0.9489  0.5273  0.2157
  349MOL0     H46008   9.108   6.973   7.234 -2.8737  0.6354  0.3483
  349MOL0     H46009   9.066   7.029   6.974  1.0866 -0.7589  0.1755
  349MOL0     H46010   8.960   7.157   7.043  0.6392  0.2562  1.5435
  349MOL0     H46011   8.936   6.878   7.147  0.9090  0.8796  0.9684
  349MOL0     H46012   8.814   7.000   7.176 -0.0314 -0.3716 -0.2053
  349MOL0     H46013   8.858   6.894   6.902 -0.5411  1.3009 -0.7220
  349MOL0     H46014   8.756   7.019   6.955  3.7107  2.6921  2.6619
  349MOL0     H46015   8.665   6.810   7.126 -1.9036  0.0754 -0.6849
  349MOL0     H46016   8.769   6.709   7.014 -1.1826 -1.9177  1.6551
  349MOL0     H46017   8.528   6.873   6.959  0.1045 -0.6530  0.4185
  349MOL0     H46018   8.660   6.835   6.830  0.7992  2.6005  0.7242
  349MOL0     H46019   8.602   6.611   6.820  1.0248  1.6576 -1.1304
  349MOL0     H46020   8.452   6.697   6.817 -1.4667  1.0853  1.9815
  349MOL0     H46021   8.303   6.740   7.057 -0.3868 -0.5082  2.3911
  349MOL0     H46022   8.198   6.633   7.282  0.3250 -0.2854 -0.6286
  349MOL0     H46023   8.333   6.589   7.383 -1.5002  1.0002  0.6171
  349MOL0     H46024   8.270   6.339   7.329 -2.4314 -0.5540  0.6555
  349MOL0     H46025   8.127   6.415   7.232 -0.8129  2.4769  0.0132
  349MOL0     H46026   8.190   6.406   7.525  1.0080  2.3903 -1.6095
  349MOL0     H46027   8.093   6.536   7.478 -1.3226  0.4521 -1.2872
  349MOL0     H46028   7.990   6.292   7.540  0.8314 -0.8145 -1.1317
  349MOL0     H46029   8.008   6.258   7.380  0.3056 -0.6670  0.5659
  349MOL0     H46030   7.809   6.164   7.497 -1.0525 -0.5303  0.7220
  349MOL0     H46031   7.602   6.099   7.553  0.5972 -0.6517 -1.3043
  349MOL0     H46032   7.181   6.035   7.343  0.2765  0.6942  0.0813
  349MOL0     H46033   6.962   5.964   7.377  1.3481  1.6189 -0.9021
  349MOL0     H46034   6.764   6.032   7.780  0.5539  0.9714 -1.9974
  349MOL0     H46035   6.834   5.868   7.817  0.8612 -0.0666 -0.4910
  349MOL0     H46036   6.651   5.760   7.701 -1.1548 -1.5658  0.1539
  349MOL0     H46037   6.571   5.910   7.670  2.1720  1.0375 -1.3528
  349MOL0     H46038   6.559   5.958   7.915  3.2975 -0.2211  0.7145
  349MOL0     H46039   6.595   5.794   7.958  0.8572  1.8131  0.8999
  349MOL0     H46040   6.363   5.867   7.786 -0.5857 -0.0065  0.8051
  349MOL0     H46041   6.433   5.698   7.837  2.5375  0.3357 -0.8929
  349MOL0     H46042   6.330   5.924   8.009  0.8213 -0.3639  0.5639
  349MOL0     H46043   6.379   5.773   8.064  0.9163  3.0078  1.3146
  349MOL0     H46044   6.158   5.815   7.848 -0.6760  0.0586 -0.0552
  349MOL0     H46045   6.119   5.801   8.019  1.3748  0.9644  0.6999
  349MOL0     H46046   6.222   5.571   7.855  0.0634 -1.9959  0.9335
  349MOL0     H46047   6.224   5.556   8.027 -0.5924  1.1549  1.2119
  349MOL0     H46048   5.976   5.626   8.031  0.1669  2.0689 -0.7195
  349MOL0     H46049   6.015   5.475   7.953  0.7736  0.3365  3.9293
  349MOL0     H46050   7.002   6.048   7.802  1.5505  1.7948  0.9653
  349MOL0     H46051   7.227   6.115   7.764 -0.6034  1.4177  1.1141
  349MOL0     H46052   7.442   6.464   7.392  0.1820  0.9873  2.3110
  349MOL0     H46053   7.658   6.536   7.361 -0.9751 -0.9379 -0.0159
  349MOL0     H46054   9.411   7.286   7.468 -0.2075  0.9698  0.2930
  349MOL0     H46055   9.654   7.355   7.481  0.3203 -1.4495  0.8885
  349MOL0     H46056  10.082   7.002   7.505  0.8898  0.5897  1.8878
  349MOL0     H46057  10.323   6.973   7.468  0.1393 -0.2273 -0.4639
  349MOL0     H46058  10.449   6.944   7.236  0.6270 -1.0439  0.4436
  349MOL0     H46059  10.518   6.928   7.398 -1.9565 -3.5568 -1.6873
  349MOL0     H46060  10.666   6.905   7.188 -0.2836 -1.5765  1.7535
  349MOL0     H46061  10.624   7.069   7.161 -1.2655 -1.7755 -0.8192
  349MOL0     H46062  10.782   6.989   7.420 -1.5379  0.9120  0.0406
  349MOL0     H46063  10.762   7.155   7.375 -0.6711 -0.2105  0.6258
  349MOL0     H46064  10.934   6.931   7.229  3.4725  0.3007  1.1366
  349MOL0     H46065  10.914   7.092   7.153 -0.8139  0.4437  0.1919
  349MOL0     H46066  11.151   7.234   7.448  0.9865 -0.3927  0.8814
  349MOL0     H46067  10.334   7.300   7.195 -1.3413 -0.6618 -3.9061
  349MOL0     H46068  10.079   7.318   7.207  0.1549  1.1384  1.0960
  350MOL0     O46069   5.932   2.997   1.494  0.0309  0.1367  0.0906
  350MOL0     C46070   5.927   3.052   1.384 -0.5154 -0.6216  0.0085
  350MOL0     O46071   5.837   3.141   1.349  0.3609 -0.3600 -0.0256
  350MOL0     C46072   5.742   3.171   1.440  0.8135 -0.4861 -0.3612
  350MOL0     C46073   5.615   3.103   1.468  0.2604  0.3730  0.3457
  350MOL0     C46074   5.526   3.156   1.553  0.2165 -0.2392 -0.7735
  350MOL0     C46075   5.550   3.278   1.621  0.2774  0.3507 -0.4103
  350MOL0     O46076   5.446   3.319   1.707 -0.1809 -0.2531 -0.7968
  350MOL0     C46077   5.494   3.406   1.816 -0.2351  0.8042  0.3911
  350MOL0     C46078   5.412   3.392   1.946  0.9245  0.7901 -0.0826
  350MOL0     C46079   5.263   3.377   1.924 -0.9233 -0.3338  0.3025
  350MOL0     C46080   5.192   3.503   1.900 -0.1710 -0.2230  1.0309
  350MOL0     C46081   5.038   3.481   1.889  0.0548  0.1733  0.7645
  350MOL0     C46082   4.975   3.619   1.852 -0.3717  0.3022 -0.6720
  350MOL0     C46083   4.821   3.627   1.864  0.4839  0.3524 -1.4495
  350MOL0     C46084   4.765   3.770   1.864 -0.2545  0.2272  0.5548
  350MOL0     N46085   4.617   3.776   1.858 -0.1771  0.3000  0.6833
  350MOL0     C46086   4.530   3.756   1.960  0.6514  0.5377 -0.5923
  350MOL0     C46087   4.417   3.811   1.923 -0.5095  0.3146 -0.3261
  350MOL0     C46088   4.300   3.833   2.009 -0.1582  0.2221 -0.1150
  350MOL0     C46089   4.258   3.982   2.014 -0.4985 -0.2970 -0.1440
  350MOL0     C46090   4.137   4.002   2.110  0.0637 -0.3415 -0.3475
  350MOL0     C46091   4.003   3.948   2.052  0.9450  0.3481  0.5778
  350MOL0     O46092   3.908   4.006   2.142 -0.4626  0.8077 -0.8179
  350MOL0     C46093   3.779   4.025   2.107  0.3114 -0.2771  0.5955
  350MOL0     C46094   3.703   3.917   2.047  0.0167 -0.0720  0.2204
  350MOL0     C46095   3.565   3.924   2.021  0.5345 -0.6837  0.7465
  350MOL0     C46096   3.497   4.052   2.033  0.0343  0.2843 -0.3563
  350MOL0     C46097   3.353   4.073   2.003  0.0557 -0.6948 -0.1679
  350MOL0     O46098   3.287   4.177   2.054 -0.3629  0.4414 -0.2129
  350MOL0     C46099   3.144   4.188   2.031 -1.4259 -0.1299 -0.1779
  350MOL0     C46100   3.088   4.294   1.960 -0.3263  0.5284 -0.3396
  350MOL0     C46101   2.946   4.307   1.958 -1.4678 -0.4309 -0.2187
  350MOL0     C46102   2.866   4.219   2.020  0.2156  0.3301  0.0969
  350MOL0     O46103   2.732   4.241   2.010 -0.1496 -0.2643 -0.1325
  350MOL0     C46104   2.646   4.131   2.048  0.2282  1.0230  0.2944
  350MOL0     C46105   2.502   4.169   2.007 -0.1761  0.0248 -0.6338
  350MOL0     C46106   2.488   4.178   1.857  0.3041  0.4801  0.2817
  350MOL0     C46107   2.346   4.227   1.822  0.3365  0.1982  0.7941
  350MOL0     C46108   2.301   4.177   1.686 -0.6267  0.0760  1.0340
  350MOL0     C46109   2.404   4.244   1.586 -0.0875  0.3750 -0.2340
  350MOL0     C46110   2.351   4.253   1.442 -0.0889  0.6264 -1.3486
  350MOL0     C46111   2.231   4.346   1.420  0.2765 -0.6290 -0.3788
  350MOL0    Cl46112   2.281   4.520   1.459 -0.2076 -0.0826  0.3437
  350MOL0     C46113   2.914   4.107   2.086 -0.4029  0.0464 -0.5337
  350MOL0     C46114   3.055   4.098   2.084  0.1847  0.3707 -0.2726
  350MOL0     O46115   3.310   4.002   1.915 -0.3907 -0.3538 -0.3648
  350MOL0     C46116   3.575   4.158   2.081  0.4712  0.0703 -0.7471
  350MOL0     C46117   3.713   4.146   2.119 -0.0762 -0.0911  0.0176
  350MOL0     N46118   4.432   3.863   1.800  0.5530  0.7874 -0.1552
  350MOL0     N46119   4.551   3.853   1.769  0.4281  0.4979  0.2188
  350MOL0     C46120   5.670   3.348   1.592 -0.2619  0.3419  0.1315
  350MOL0     C46121   5.765   3.296   1.494 -0.0479  0.1042 -0.3361
  350MOL0     C46122   6.053   3.041   1.302  0.1596  0.6265 -0.0915
  350MOL0     C46123   6.041   3.092   1.173 -1.1892 -0.2142 -0.1134
  350MOL0     C46124   6.160   3.113   1.096 -0.6011 -0.1954  0.5862
  350MOL0     C46125   6.280   3.053   1.138 -0.7724  0.3732 -0.2042
  350MOL0     O46126   6.392   3.052   1.052 -0.0130  0.2915  0.0021
  350MOL0     C46127   6.507   2.976   1.086 -0.3991 -0.5900  0.4283
  350MOL0     C46128   6.596   2.985   0.965  0.5625  0.2518  0.3119
  350MOL0     C46129   6.749   2.966   1.004 -0.4819  0.1293 -1.3814
  350MOL0     C46130   6.843   2.939   0.897  0.2438  0.7220  0.6047
  350MOL0     C46131   6.981   2.939   0.952 -0.3514 -0.3757  0.1657
  350MOL0     C46132   7.091   2.951   0.996 -0.9772  0.3935 -0.3827
  350MOL0     C46133   6.288   2.989   1.265 -0.2173  0.7105 -0.4026
  350MOL0     C46134   6.174   2.989   1.352 -0.1482 -1.1133 -0.3159
  350MOL0     H46135   5.594   3.007   1.422 -1.2147  1.8715 -2.3862
  350MOL0     H46136   5.432   3.112   1.586 -1.6988  3.8730  0.0148
  350MOL0     H46137   5.499   3.508   1.776  1.3482  0.2226 -1.0420
  350MOL0     H46138   5.596   3.380   1.844 -0.2564  1.0565  0.7046
  350MOL0     H46139   5.425   3.479   2.011 -1.4085  0.2670  1.2173
  350MOL0     H46140   5.450   3.308   2.005 -3.5050 -1.2655  0.2611
  350MOL0     H46141   5.221   3.329   2.014  0.1387 -3.2543 -0.6345
  350MOL0     H46142   5.238   3.305   1.845  0.6729  2.1801 -2.6708
  350MOL0     H46143   5.199   3.573   1.985  1.0277  0.8062  0.1190
  350MOL0     H46144   5.243   3.552   1.817 -1.5096 -0.7372 -0.1282
  350MOL0     H46145   5.007   3.437   1.984  2.2302 -1.3188  0.8527
  350MOL0     H46146   5.021   3.407   1.810  1.3025  0.1771  0.4815
  350MOL0     H46147   5.017   3.652   1.757  0.3582  1.7762  0.1220
  350MOL0     H46148   5.014   3.685   1.931  1.0500 -1.8717  0.5551
  350MOL0     H46149   4.775   3.573   1.781 -2.3088 -1.4410  1.0565
  350MOL0     H46150   4.793   3.583   1.960  0.2685  2.6526 -0.3789
  350MOL0     H46151   4.821   3.822   1.786  0.4772 -1.0959  0.1635
  350MOL0     H46152   4.801   3.821   1.953  2.3232  2.5772 -1.6430
  350MOL0     H46153   4.547   3.707   2.056  1.1121 -2.1585 -1.9683
  350MOL0     H46154   4.326   3.808   2.112 -1.4515 -0.4184  0.0726
  350MOL0     H46155   4.212   3.775   1.979 -0.3949  1.2908 -1.6055
  350MOL0     H46156   4.235   4.016   1.912  0.3340 -0.7859 -0.5070
  350MOL0     H46157   4.348   4.039   2.037 -0.4029 -0.7392  0.6020
  350MOL0     H46158   4.163   3.969   2.211 -1.2727  1.6506  0.7343
  350MOL0     H46159   4.117   4.110   2.109 -0.2806 -0.3912  0.2327
  350MOL0     H46160   3.996   3.839   2.055  0.7577  0.3488  0.2835
  350MOL0     H46161   3.996   3.971   1.945 -0.6395 -4.0562 -0.4948
  350MOL0     H46162   3.746   3.817   2.039  2.3721  0.8233  0.7032
  350MOL0     H46163   3.503   3.843   1.984  0.8820 -0.6672  0.1269
  350MOL0     H46164   3.155   4.362   1.908  0.0617  0.4416  0.0449
  350MOL0     H46165   2.900   4.394   1.913 -0.0841  0.5461  0.1982
  350MOL0     H46166   2.647   4.098   2.152 -1.4602 -1.5163 -0.3991
  350MOL0     H46167   2.684   4.044   1.994  2.4834  1.0560  1.7054
  350MOL0     H46168   2.489   4.272   2.041 -1.7079  1.1569 -4.1486
  350MOL0     H46169   2.430   4.101   2.051 -0.2181  0.3919 -0.1296
  350MOL0     H46170   2.526   4.080   1.827  0.2939  0.5298  0.1037
  350MOL0     H46171   2.560   4.252   1.820 -0.5862  1.0210 -0.4198
  350MOL0     H46172   2.275   4.173   1.885 -0.5178 -1.3794 -1.3994
  350MOL0     H46173   2.332   4.334   1.840  2.0903  0.7667 -0.9038
  350MOL0     H46174   2.201   4.220   1.678  0.2766  2.0818 -0.2831
  350MOL0     H46175   2.289   4.068   1.683 -1.3950  0.1291 -2.4162
  350MOL0     H46176   2.498   4.188   1.581  0.0397  0.2409  2.2991
  350MOL0     H46177   2.441   4.341   1.621  0.9728 -0.0257 -0.2330
  350MOL0     H46178   2.432   4.289   1.377  0.9247 -2.3190 -1.8948
  350MOL0     H46179   2.311   4.154   1.414  1.5935 -1.5291  2.9580
  350MOL0     H46180   2.145   4.321   1.484  0.2383 -1.2481 -0.6730
  350MOL0     H46181   2.189   4.348   1.319 -0.0434 -0.7034 -0.2497
  350MOL0     H46182   2.851   4.039   2.143 -0.3284 -0.9369 -1.5942
  350MOL0     H46183   3.096   4.008   2.129 -2.6708 -1.6901 -1.5080
  350MOL0     H46184   3.533   4.258   2.091  0.3792 -0.0297 -0.0999
  350MOL0     H46185   3.770   4.230   2.157 -0.2397  0.4441 -0.9021
  350MOL0     H46186   5.684   3.441   1.646  2.1367  0.3987 -0.4433
  350MOL0     H46187   5.856   3.347   1.463  1.7454 -2.7932 -0.2355
  350MOL0     H46188   5.944   3.109   1.127 -1.2512  3.7457  1.1194
  350MOL0     H46189   6.154   3.149   0.994  2.4607 -0.3418  0.2640
  350MOL0     H46190   6.485   2.869   1.097 -2.1301 -0.3588 -0.3570
  350MOL0     H46191   6.558   3.019   1.172  0.5275  1.4377 -1.0505
  350MOL0     H46192   6.579   2.913   0.884 -1.5169  3.0310 -1.9235
  350MOL0     H46193   6.591   3.083   0.918  2.6778  0.5369  0.5791
  350MOL0     H46194   6.760   2.879   1.069  0.3568  0.7391 -0.6890
  350MOL0     H46195   6.781   3.058   1.054  1.2226  0.6740 -3.3602
  350MOL0     H46196   6.811   2.843   0.856 -1.2741  1.8140 -0.9023
  350MOL0     H46197   6.843   3.008   0.812 -1.8887 -3.0438 -2.8251
  350MOL0     H46198   7.191   2.965   1.032 -0.4677 -0.2286 -1.5309
  350MOL0     H46199   6.382   2.954   1.306 -1.3424 -3.0323 -0.5719
  350MOL0     H46200   6.200   2.954   1.451  4.0197 -0.0169 -0.8054
  351MOL0     O46201  10.568  11.257   9.131  0.3430  0.1784 -0.1039
  351MOL0     C46202  10.632  11.169   9.072  0.1436  0.7215 -0.2612
  351MOL0     O46203  10.773  11.148   9.085  1.2298 -0.5875 -0.3310
  351MOL0     C46204  10.841  11.238   9.155 -0.7065  0.1780  0.2519
  351MOL0     C46205  10.842  11.233   9.290 -0.0981  0.2554  0.3129
  351MOL0     C46206  10.941  11.311   9.360  0.3167 -0.3983  0.7533
  351MOL0     C46207  11.033  11.392   9.296  1.0046  0.6347 -0.1290
  351MOL0     O46208  11.132  11.454   9.368 -0.2394  0.4740 -0.5438
  351MOL0     C46209  11.261  11.480   9.307  0.2918 -0.0751  0.3553
  351MOL0     C46210  11.357  11.517   9.416 -0.0585 -0.6977 -0.1382
  351MOL0     C46211  11.486  11.597   9.357 -0.1545 -0.4671 -0.4489
  351MOL0     C46212  11.579  11.507   9.281 -0.4688 -0.2355  0.4781
  351MOL0     C46213  11.720  11.571   9.274 -0.5906  0.6904  0.8282
  351MOL0     C46214  11.821  11.474   9.203  0.1020  0.3517  0.6499
  351MOL0     C46215  11.951  11.534   9.132  0.2882  0.2232 -0.1337
  351MOL0     C46216  11.926  11.632   9.015  0.6606  0.1439 -0.4491
  351MOL0     N46217  11.870  11.567   8.898  0.7510 -0.3678 -0.4281
  351MOL0     C46218  11.936  11.486   8.804 -0.0211 -0.1367 -0.0116
  351MOL0     C46219  11.859  11.472   8.695  0.4326 -0.0948 -0.3670
  351MOL0     C46220  11.888  11.396   8.570  0.7480 -0.0733  0.0132
  351MOL0     C46221  11.759  11.391   8.477  0.6031 -0.1459  0.0245
  351MOL0     C46222  11.638  11.303   8.520 -0.3591  0.6757  0.6549
  351MOL0     C46223  11.527  11.322   8.416 -0.0530  0.5693 -0.1086
  351MOL0     O46224  11.561  11.248   8.309  0.3164  0.0874  0.2990
  351MOL0     C46225  11.457  11.175   8.256 -0.7832  0.2386 -1.2616
  351MOL0     C46226  11.325  11.222   8.237 -0.3164 -0.4403 -0.5198
  351MOL0     C46227  11.227  11.134   8.188 -0.9399 -0.7651  0.3014
  351MOL0     C46228  11.259  11.014   8.124  0.1202  0.6650  0.2215
  351MOL0     C46229  11.161  10.944   8.047  0.5672  0.3230 -0.5783
  351MOL0     O46230  11.024  10.948   8.079  0.1225  0.7204 -0.1263
  351MOL0     C46231  10.942  10.873   8.001 -0.4409  0.2710 -0.1600
  351MOL0     C46232  10.858  10.785   8.065  0.0123  0.2717  0.0727
  351MOL0     C46233  10.756  10.713   7.998 -0.5573 -0.8229  0.3482
  351MOL0     C46234  10.757  10.721   7.861  0.1058 -0.0465 -0.1160
  351MOL0     O46235  10.669  10.634   7.800 -0.4618  0.0730 -0.0564
  351MOL0     C46236  10.676  10.627   7.663  0.0970 -0.3385 -0.3486
  351MOL0     C46237  10.573  10.526   7.607  0.2894  0.4530  0.3838
  351MOL0     C46238  10.624  10.469   7.477 -0.0377 -0.7603  0.6713
  351MOL0     C46239  10.519  10.366   7.422 -0.0778  0.7679  0.0980
  351MOL0     C46240  10.533  10.334   7.267 -0.0121 -0.3107  0.4325
  351MOL0     C46241  10.451  10.214   7.217 -1.3658 -0.8009 -0.3278
  351MOL0     C46242  10.497  10.185   7.072  0.0773 -0.1708 -0.7605
  351MOL0     C46243  10.406  10.084   7.000  0.1245  0.6460 -0.1884
  351MOL0    Cl46244  10.490   9.992   6.871 -0.1977 -0.3427  0.0104
  351MOL0     C46245  10.856  10.794   7.787 -0.6083 -0.1209 -0.3005
  351MOL0     C46246  10.945  10.876   7.862  0.7147 -0.4803  1.1220
  351MOL0     O46247  11.218  10.867   7.966 -0.5829 -0.5240  0.2199
  351MOL0     C46248  11.390  10.972   8.128  0.0909  0.2383  0.7347
  351MOL0     C46249  11.482  11.047   8.202  0.7977  1.1885  0.3241
  351MOL0     N46250  11.732  11.536   8.731 -0.1699 -0.0507  0.2648
  351MOL0     N46251  11.749  11.593   8.845  0.4288  0.5595 -0.8940
  351MOL0     C46252  11.017  11.406   9.162 -0.6431 -0.1201 -0.4488
  351MOL0     C46253  10.917  11.336   9.090 -0.4948 -0.5459  1.4490
  351MOL0     C46254  10.560  11.074   8.987  0.4011 -0.2618  0.0630
  351MOL0     C46255  10.425  11.102   8.956  0.2986  0.7959  0.0585
  351MOL0     C46256  10.346  11.007   8.883  0.2762  0.0680  0.3728
  351MOL0     C46257  10.408  10.886   8.838  0.1145  0.8818 -0.2217
  351MOL0     O46258  10.336  10.797   8.761 -0.0596  0.0551 -0.1072
  351MOL0     C46259  10.342  10.800   8.621 -0.5678  0.3278 -0.3716
  351MOL0     C46260  10.314  10.936   8.563 -0.6186 -0.2062 -0.1218
  351MOL0     C46261  10.152  10.950   8.553 -0.8489 -0.6478 -0.0607
  351MOL0     C46262  10.095  11.092   8.526  0.5051  0.0370  0.3160
  351MOL0     C46263  10.137  11.182   8.621 -0.9788 -0.2498  0.0867
  351MOL0     C46264  10.161  11.274   8.702 -0.1531  0.3459  0.7396
  351MOL0     C46265  10.540  10.860   8.863  0.1484  0.6195 -0.6927
  351MOL0     C46266  10.615  10.956   8.938  0.1063  0.0543  0.4829
  351MOL0     H46267  10.789  11.150   9.334  0.4737 -0.2883 -0.0074
  351MOL0     H46268  10.948  11.277   9.463 -2.1890 -2.3814  0.3486
  351MOL0     H46269  11.247  11.560   9.233 -1.9493 -1.1767 -0.5157
  351MOL0     H46270  11.305  11.399   9.249 -0.2941 -1.2878  1.5305
  351MOL0     H46271  11.397  11.422   9.452 -0.5561 -1.7557 -2.2362
  351MOL0     H46272  11.304  11.571   9.495  0.4209  0.4318 -0.5645
  351MOL0     H46273  11.532  11.643   9.445  0.6230  0.1477 -1.1610
  351MOL0     H46274  11.449  11.672   9.286  2.1389  0.1354 -1.0930
  351MOL0     H46275  11.593  11.416   9.340 -0.8071 -0.3188  0.4286
  351MOL0     H46276  11.533  11.489   9.184 -1.8290  1.5432  0.7356
  351MOL0     H46277  11.743  11.600   9.377  1.7178 -0.5434  0.7140
  351MOL0     H46278  11.727  11.660   9.210  2.9266 -0.1977 -0.2471
  351MOL0     H46279  11.759  11.440   9.120 -1.0039  2.4296  0.5373
  351MOL0     H46280  11.846  11.384   9.259  1.3243 -1.3729 -2.4704
  351MOL0     H46281  11.987  11.595   9.215 -0.2890  0.1958  0.1358
  351MOL0     H46282  12.018  11.451   9.106  1.5391  1.3753 -0.7291
  351MOL0     H46283  12.009  11.694   8.980 -1.4664  2.9453 -0.8731
  351MOL0     H46284  11.861  11.710   9.055  0.2780 -0.0558 -0.6780
  351MOL0     H46285  12.039  11.455   8.819  0.1462 -0.0089 -0.8228
  351MOL0     H46286  11.904  11.289   8.591 -3.0774 -1.4602 -2.9861
  351MOL0     H46287  11.981  11.436   8.530 -0.1661  0.8454 -1.2657
  351MOL0     H46288  11.792  11.353   8.380 -0.0037  0.6637 -0.5250
  351MOL0     H46289  11.718  11.493   8.475 -1.2600 -0.7571  2.4918
  351MOL0     H46290  11.667  11.198   8.522  1.8815  1.1551 -1.8130
  351MOL0     H46291  11.598  11.328   8.619  1.1071 -1.3808  1.8352
  351MOL0     H46292  11.518  11.428   8.392  1.1671  0.7379  0.1226
  351MOL0     H46293  11.445  11.274   8.471  2.0508 -2.5303  0.5903
  351MOL0     H46294  11.295  11.320   8.273  0.6054 -0.2573 -0.2259
  351MOL0     H46295  11.123  11.163   8.188 -0.8698 -0.3914  2.1667
  351MOL0     H46296  10.865  10.789   8.173  0.4015  0.7104  0.0361
  351MOL0     H46297  10.682  10.654   8.051 -0.6821 -1.5455 -0.6132
  351MOL0     H46298  10.774  10.588   7.635  2.4476  2.5592  3.0956
  351MOL0     H46299  10.649  10.721   7.613  0.5006 -1.0769 -2.0545
  351MOL0     H46300  10.480  10.582   7.600  1.1341  1.9672  0.6740
  351MOL0     H46301  10.557  10.445   7.679  2.9664 -0.1606  0.4101
  351MOL0     H46302  10.721  10.421   7.492  0.0076 -1.6432 -1.8990
  351MOL0     H46303  10.629  10.547   7.400  0.3011 -0.0376  1.4161
  351MOL0     H46304  10.539  10.267   7.464 -2.3856 -0.2831 -1.0514
  351MOL0     H46305  10.416  10.391   7.451 -0.2320 -2.3894  2.9472
  351MOL0     H46306  10.639  10.311   7.251 -0.5431 -2.8270  0.0933
  351MOL0     H46307  10.493  10.423   7.217  1.2486  0.8591  1.4158
  351MOL0     H46308  10.346  10.235   7.237 -2.0909 -3.9373 -0.3067
  351MOL0     H46309  10.474  10.126   7.278 -2.3403 -2.0027 -1.6246
  351MOL0     H46310  10.497  10.267   7.000  1.2162 -1.3841 -2.2313
  351MOL0     H46311  10.599  10.144   7.069  0.1600  0.0548 -1.0856
  351MOL0     H46312  10.319  10.126   6.949 -2.6100 -5.4435 -1.4481
  351MOL0     H46313  10.369  10.001   7.061  1.8244 -1.1646 -1.5121
  351MOL0     H46314  10.864  10.791   7.679  0.4090 -2.1416 -0.2122
  351MOL0     H46315  11.016  10.944   7.816  0.4739 -1.6542 -1.1630
  351MOL0     H46316  11.423  10.876   8.092  3.0069  1.2824  0.2795
  351MOL0     H46317  11.582  11.005   8.212 -0.1649 -1.6553 -0.9613
  351MOL0     H46318  11.080  11.484   9.121 -0.0467 -0.0177  0.6136
  351MOL0     H46319  10.892  11.353   8.986 -0.0995 -1.2062  1.2379
  351MOL0     H46320  10.370  11.190   8.988  0.6839 -0.1807  3.9347
  351MOL0     H46321  10.243  11.036   8.865  0.5982  1.5516  0.8111
  351MOL0     H46322  10.277  10.726   8.575  0.4396 -0.8200  0.0020
  351MOL0     H46323  10.440  10.766   8.587 -0.4859 -0.4056  0.5563
  351MOL0     H46324  10.355  11.021   8.617  1.5446 -0.3302 -1.4482
  351MOL0     H46325  10.350  10.935   8.459 -2.9339  0.3225 -0.9858
  351MOL0     H46326  10.116  10.925   8.653 -0.3459 -0.4802  0.1646
  351MOL0     H46327  10.117  10.879   8.478  0.0911  0.2479 -1.3957
  351MOL0     H46328  10.111  11.121   8.422 -0.1162 -0.0263  0.1973
  351MOL0     H46329   9.988  11.073   8.542 -0.0374  0.2673 -2.5489
  351MOL0     H46330  10.178  11.352   8.772 -0.0464  1.1239 -0.1306
  351MOL0     H46331  10.585  10.771   8.820  2.4139  2.1476 -1.6470
  351MOL0     H46332  10.718  10.923   8.946  0.1666  0.1902  0.2881
  352MOL0     O46333   1.745   7.594   5.064  0.8520  0.1016  0.0659
  352MOL0     C46334   1.704   7.591   5.183  1.1244  1.0724 -0.6470
  352MOL0     O46335   1.571   7.570   5.226  0.9137  0.0476  0.2431
  352MOL0     C46336   1.464   7.598   5.146  0.0226 -0.2548  0.1440
  352MOL0     C46337   1.445   7.729   5.092 -0.0239 -0.1370  0.3069
  352MOL0     C46338   1.327   7.765   5.038  0.0539 -0.2725 -1.5501
  352MOL0     C46339   1.222   7.672   5.013  0.2482 -0.0091  0.4268
  352MOL0     O46340   1.118   7.729   4.942 -0.1271 -0.0653  0.2658
  352MOL0     C46341   0.987   7.680   4.988  0.0640 -0.1162 -0.9704
  352MOL0     C46342   0.901   7.805   5.009  0.0112  0.2760  0.1249
  352MOL0     C46343   0.749   7.773   4.989  0.5536  0.2943  0.2419
  352MOL0     C46344   0.695   7.671   5.090 -0.2823  0.2317  0.5712
  352MOL0     C46345   0.546   7.634   5.071 -0.7409 -0.5193  0.1239
  352MOL0     C46346   0.455   7.755   5.042  0.5144 -0.4667  0.3012
  352MOL0     C46347   0.310   7.709   5.011 -0.8352  0.5551 -0.7436
  352MOL0     C46348   0.264   7.706   4.857  0.2484  0.0448 -0.5712
  352MOL0     N46349   0.126   7.748   4.840  0.2908 -0.1497 -0.0472
  352MOL0     C46350   0.078   7.811   4.734 -0.6093 -0.2727  0.1077
  352MOL0     C46351  -0.055   7.814   4.752  0.8254  0.3344 -0.2755
  352MOL0     C46352  -0.149   7.880   4.650  0.4893  0.0165 -0.6748
  352MOL0     C46353  -0.146   8.037   4.683  0.3554  0.9043 -0.3937
  352MOL0     C46354  -0.244   8.125   4.598  0.3062  0.3194  1.3065
  352MOL0     C46355  -0.213   8.122   4.448  0.1901 -0.1380  0.3989
  352MOL0     O46356  -0.233   7.998   4.375  0.2048  0.0373 -1.0966
  352MOL0     C46357  -0.349   7.977   4.309 -0.4349 -0.6774  0.5478
  352MOL0     C46358  -0.471   8.046   4.340  0.8626 -0.3521 -0.0954
  352MOL0     C46359  -0.594   8.030   4.273  0.1010  0.3591 -0.1338
  352MOL0     C46360  -0.601   7.939   4.162  0.2910 -0.4165  0.4038
  352MOL0     C46361  -0.733   7.905   4.103  0.6773  0.0055  0.1447
  352MOL0     O46362  -0.743   7.791   4.020 -0.0215 -0.1545  0.1799
  352MOL0     C46363  -0.855   7.750   3.953 -0.1341 -0.2771 -1.0255
  352MOL0     C46364  -0.980   7.743   4.021  0.4401  0.6636  0.8023
  352MOL0     C46365  -1.093   7.684   3.954  0.6297  0.3270 -0.7548
  352MOL0     C46366  -1.097   7.650   3.818  0.4802 -0.9755 -0.2859
  352MOL0     O46367  -1.212   7.612   3.745 -0.5856  0.6691 -0.1079
  352MOL0     C46368  -1.250   7.476   3.777 -0.2275  0.8011 -0.1234
  352MOL0     C46369  -1.394   7.461   3.834 -0.1876 -0.2798  0.3820
  352MOL0     C46370  -1.432   7.316   3.870 -0.6249 -0.3820 -0.0650
  352MOL0     C46371  -1.582   7.294   3.884  0.2026 -0.2546  0.2044
  352MOL0     C46372  -1.644   7.275   3.743 -0.2336  0.0162  0.1278
  352MOL0     C46373  -1.798   7.244   3.744  0.2272 -0.6892  0.2053
  352MOL0     C46374  -1.873   7.353   3.824 -0.1145 -0.1432  0.2209
  352MOL0     C46375  -2.016   7.368   3.774  0.9663  0.3404 -0.1220
  352MOL0    Cl46376  -2.010   7.407   3.603  0.0127 -0.4212 -0.8883
  352MOL0     C46377  -0.974   7.676   3.752  0.0214 -0.0611  1.2313
  352MOL0     C46378  -0.851   7.713   3.820 -0.9971  0.4092 -0.5781
  352MOL0     O46379  -0.825   7.983   4.125  0.2623  0.2949 -0.3567
  352MOL0     C46380  -0.484   7.884   4.117 -0.0209  0.0301  0.0662
  352MOL0     C46381  -0.364   7.894   4.196  0.0126  0.0554 -0.3825
  352MOL0     N46382  -0.083   7.774   4.880 -0.1716  0.6740 -0.4395
  352MOL0     N46383   0.021   7.726   4.932 -1.5203  0.5000  0.4835
  352MOL0     C46384   1.244   7.537   5.049  0.5528  0.2853  0.4699
  352MOL0     C46385   1.361   7.506   5.121  0.2824  0.6179  0.4526
  352MOL0     C46386   1.810   7.582   5.292 -0.5165  0.5365 -0.2623
  352MOL0     C46387   1.942   7.609   5.262  0.1871  0.3499  0.3807
  352MOL0     C46388   2.041   7.567   5.352 -0.1051 -0.2699 -0.3188
  352MOL0     C46389   2.008   7.521   5.477 -0.0473  0.8268  0.4528
  352MOL0     O46390   2.103   7.487   5.572  0.3674 -0.6136 -0.0070
  352MOL0     C46391   2.235   7.454   5.546  0.6143  0.9287 -0.5261
  352MOL0     C46392   2.277   7.320   5.616  0.9444 -0.7972  0.7247
  352MOL0     C46393   2.203   7.201   5.560 -0.4923 -0.0668  0.2060
  352MOL0     C46394   2.235   7.082   5.657 -0.0570  0.1881 -0.7570
  352MOL0     C46395   2.378   7.072   5.672  0.3940  0.3735  0.5891
  352MOL0     C46396   2.497   7.048   5.690 -0.0489  0.0264 -0.9533
  352MOL0     C46397   1.873   7.492   5.511 -0.3555 -0.0146 -1.1279
  352MOL0     C46398   1.774   7.514   5.418  0.5133 -0.6516 -0.3936
  352MOL0     H46399   1.527   7.800   5.095  2.5725 -2.7300 -2.3387
  352MOL0     H46400   1.304   7.868   5.010  1.7160  2.1166  4.2793
  352MOL0     H46401   0.998   7.632   5.085  2.5658  3.5882  0.8171
  352MOL0     H46402   0.938   7.611   4.918 -1.5297 -0.7346  0.6588
  352MOL0     H46403   0.931   7.872   4.928 -0.5867 -0.6893 -0.9148
  352MOL0     H46404   0.910   7.854   5.107 -2.9935  0.3934  0.4488
  352MOL0     H46405   0.720   7.727   4.894 -3.0492 -0.1749  1.4150
  352MOL0     H46406   0.691   7.863   5.011 -0.0345 -0.5675  2.3727
  352MOL0     H46407   0.759   7.582   5.087  2.0389  1.8293 -2.4786
  352MOL0     H46408   0.718   7.717   5.187  1.6563  1.1691 -0.2670
  352MOL0     H46409   0.502   7.596   5.163 -4.1764  0.8205 -0.8020
  352MOL0     H46410   0.536   7.555   4.996 -1.1154  0.0757 -0.4624
  352MOL0     H46411   0.483   7.816   4.956  1.8361 -0.1763  0.9053
  352MOL0     H46412   0.457   7.835   5.117  1.8759 -0.4297  0.2422
  352MOL0     H46413   0.291   7.609   5.050  1.2158 -0.2530 -1.6326
  352MOL0     H46414   0.246   7.767   5.078 -1.6563  0.4409 -1.4122
  352MOL0     H46415   0.276   7.605   4.817 -3.2134 -1.6406  2.0857
  352MOL0     H46416   0.320   7.783   4.805 -1.0128  2.2850  1.1866
  352MOL0     H46417   0.136   7.848   4.649 -2.9432  1.2639 -0.9254
  352MOL0     H46418  -0.248   7.836   4.664  0.3790  0.6400  0.6893
  352MOL0     H46419  -0.114   7.852   4.550  3.2014  0.5287  0.0594
  352MOL0     H46420  -0.041   8.066   4.671  0.4341  0.8672  0.1840
  352MOL0     H46421  -0.175   8.056   4.786 -0.5297 -2.3706  0.0705
  352MOL0     H46422  -0.351   8.107   4.615  0.3029  0.7404  1.7396
  352MOL0     H46423  -0.235   8.223   4.645  1.5900  0.8444  0.0399
  352MOL0     H46424  -0.108   8.151   4.434 -0.4817  1.0960 -2.7727
  352MOL0     H46425  -0.278   8.198   4.404  0.2058 -2.2184 -3.6744
  352MOL0     H46426  -0.481   8.108   4.429 -0.3323 -0.0166 -0.4488
  352MOL0     H46427  -0.683   8.078   4.312 -0.6309 -0.3257 -0.9404
  352MOL0     H46428  -0.976   7.778   4.124 -2.5846 -4.0401  2.8589
  352MOL0     H46429  -1.180   7.665   4.015  0.4174 -2.5486 -1.7873
  352MOL0     H46430  -1.189   7.449   3.863 -0.1626  1.3675  0.0110
  352MOL0     H46431  -1.237   7.406   3.693  1.5451 -0.3687  1.0492
  352MOL0     H46432  -1.462   7.502   3.758  1.0419 -1.6863 -1.6012
  352MOL0     H46433  -1.392   7.519   3.926  4.2182  0.8731 -0.2215
  352MOL0     H46434  -1.377   7.292   3.961  1.1892 -0.3481 -1.1054
  352MOL0     H46435  -1.392   7.241   3.801 -2.7157 -1.1348 -0.5112
  352MOL0     H46436  -1.595   7.205   3.946 -2.7601 -0.4585 -0.5771
  352MOL0     H46437  -1.623   7.387   3.925  2.3164  2.8242 -3.9093
  352MOL0     H46438  -1.597   7.186   3.700  1.1447 -0.2776  2.1526
  352MOL0     H46439  -1.616   7.358   3.678  2.2804 -0.6497  0.2651
  352MOL0     H46440  -1.827   7.150   3.792  1.1248 -1.3711 -0.5219
  352MOL0     H46441  -1.825   7.236   3.638 -2.5706  3.2433  0.4295
  352MOL0     H46442  -1.866   7.330   3.930 -2.3041 -1.7617  0.1009
  352MOL0     H46443  -1.823   7.448   3.808  0.9146 -0.8246 -0.7980
  352MOL0     H46444  -2.064   7.445   3.833 -1.1391 -1.5414  0.7505
  352MOL0     H46445  -2.079   7.280   3.790  1.0671  0.3442  0.2799
  352MOL0     H46446  -0.968   7.647   3.648  1.3088 -0.4960  1.4185
  352MOL0     H46447  -0.760   7.746   3.771  1.0616 -1.4412  1.7145
  352MOL0     H46448  -0.484   7.811   4.036  2.0969 -1.3594  1.2096
  352MOL0     H46449  -0.275   7.833   4.183  0.0859  0.1905 -0.4974
  352MOL0     H46450   1.171   7.463   5.016 -0.9404  2.2759 -0.9386
  352MOL0     H46451   1.380   7.403   5.148  0.3040 -0.4798 -3.1335
  352MOL0     H46452   1.965   7.660   5.169  0.5575  4.0198  2.2861
  352MOL0     H46453   2.147   7.587   5.338 -0.5024  0.4261 -2.6193
  352MOL0     H46454   2.306   7.531   5.579  0.9180  0.4247  0.0256
  352MOL0     H46455   2.250   7.453   5.438 -0.0545 -1.3204 -0.6320
  352MOL0     H46456   2.385   7.314   5.599  0.7400 -0.3097 -0.9465
  352MOL0     H46457   2.266   7.329   5.724  1.3379 -0.0566  0.7024
  352MOL0     H46458   2.236   7.178   5.458 -0.9041 -1.1838  0.3067
  352MOL0     H46459   2.098   7.231   5.552  0.0768  1.8048 -0.7779
  352MOL0     H46460   2.184   7.103   5.751  1.1889 -0.3932  0.0632
  352MOL0     H46461   2.184   6.992   5.620 -1.3647  0.4208  0.3900
  352MOL0     H46462   2.599   7.029   5.718 -0.6346 -1.3504  0.3783
  352MOL0     H46463   1.857   7.451   5.610 -0.4314 -3.3076 -2.3758
  352MOL0     H46464   1.674   7.485   5.449  0.9448  0.1553  1.9600
  353MOL0     O46465   8.621   7.570   6.508  0.2750  0.1395  0.6385
  353MOL0     C46466   8.733   7.590   6.534 -0.6092 -0.0995  0.0876
  353MOL0     O46467   8.775   7.690   6.611 -1.3151  0.5298  0.8530
  353MOL0     C46468   8.687   7.775   6.648 -0.0340 -0.7110  0.1657
  353MOL0     C46469   8.670   7.885   6.570  0.2546  1.3234  0.1969
  353MOL0     C46470   8.579   7.984   6.608  0.4275  0.5366  0.0859
  353MOL0     C46471   8.501   7.967   6.725  0.8175 -0.8957  0.1692
  353MOL0     O46472   8.406   8.070   6.759  0.8951  0.6739  0.1014
  353MOL0     C46473   8.289   8.030   6.833  0.7287 -0.0683  1.3028
  353MOL0     C46474   8.203   8.157   6.848 -0.0673 -0.4473 -0.4327
  353MOL0     C46475   8.083   8.135   6.947  0.0523  0.1410 -0.0076
  353MOL0     C46476   8.061   8.266   7.012 -0.5979 -0.3613  0.2524
  353MOL0     C46477   7.936   8.260   7.109 -0.7106  0.5885 -0.7339
  353MOL0     C46478   7.927   8.390   7.196  0.0682  1.5158 -0.1009
  353MOL0     C46479   8.043   8.404   7.290 -0.3042 -1.2614 -0.6729
  353MOL0     C46480   8.023   8.521   7.386 -1.2579 -0.3322  0.5100
  353MOL0     N46481   7.904   8.508   7.472 -0.5364  0.4494  0.7829
  353MOL0     C46482   7.879   8.406   7.565  0.1710 -0.3125  0.7938
  353MOL0     C46483   7.749   8.421   7.596  0.3186 -0.4775 -0.3890
  353MOL0     C46484   7.673   8.334   7.690 -0.0787 -0.1949 -0.0909
  353MOL0     C46485   7.601   8.405   7.809  0.0753  0.6175  0.2760
  353MOL0     C46486   7.510   8.305   7.885 -0.6957 -0.0787 -0.7272
  353MOL0     C46487   7.418   8.207   7.810 -0.3303  0.6749 -0.3056
  353MOL0     O46488   7.354   8.106   7.905  0.3582 -0.1999 -0.0798
  353MOL0     C46489   7.217   8.118   7.929 -0.0643  0.0119  0.7356
  353MOL0     C46490   7.131   8.217   7.881  0.4536 -0.4254  0.0063
  353MOL0     C46491   6.995   8.213   7.888  0.4843  0.2026  0.5456
  353MOL0     C46492   6.929   8.096   7.915 -0.6587  0.0036 -0.3169
  353MOL0     C46493   6.780   8.089   7.906 -0.7309 -0.2080  0.4920
  353MOL0     O46494   6.717   7.994   7.975 -0.8154 -0.6133 -0.3870
  353MOL0     C46495   6.581   8.002   7.989 -0.3046 -0.1152 -0.4851
  353MOL0     C46496   6.503   7.885   7.980 -0.4244  1.2621  0.0281
  353MOL0     C46497   6.365   7.879   7.991 -0.1144 -0.0268 -0.4518
  353MOL0     C46498   6.304   7.995   8.040  0.1320  0.4876 -0.1855
  353MOL0     O46499   6.165   7.985   8.063 -0.0441 -0.0004 -0.3332
  353MOL0     C46500   6.062   8.080   8.020 -0.5411  0.9644  0.3083
  353MOL0     C46501   5.924   8.054   8.074 -0.0325 -0.3626  0.0762
  353MOL0     C46502   5.884   7.910   8.069  0.2850 -0.7539  0.8200
  353MOL0     C46503   5.759   7.874   8.145  0.8752  0.5640  0.8776
  353MOL0     C46504   5.634   7.890   8.051 -0.0287 -0.7026 -0.5670
  353MOL0     C46505   5.505   7.880   8.128  0.2911  0.8134  0.3555
  353MOL0     C46506   5.385   7.934   8.049  0.5128  0.3840 -0.7782
  353MOL0     C46507   5.256   7.920   8.136  0.3772 -0.0568  0.2892
  353MOL0    Cl46508   5.109   7.968   8.044 -0.2945  0.1300 -0.6732
  353MOL0     C46509   6.373   8.119   8.059 -1.2278 -0.9604  0.2750
  353MOL0     C46510   6.509   8.124   8.030 -0.1599 -0.1446  0.6028
  353MOL0     O46511   6.727   8.174   7.846 -0.1844  0.1269 -0.0898
  353MOL0     C46512   7.009   7.991   7.964  0.0304  0.0853  0.4754
  353MOL0     C46513   7.151   8.006   7.976 -0.0008  0.1284 -1.0561
  353MOL0     N46514   7.692   8.532   7.531 -0.0302 -0.3946 -0.1215
  353MOL0     N46515   7.790   8.576   7.453  0.3611 -0.0605  0.6223
  353MOL0     C46516   8.511   7.843   6.795  0.1985 -0.5623  0.0156
  353MOL0     C46517   8.612   7.749   6.762 -0.1797  0.2354 -0.8012
  353MOL0     C46518   8.840   7.487   6.496 -0.6233  0.0181  0.1008
  353MOL0     C46519   8.975   7.517   6.504 -0.2767 -0.7327 -0.5248
  353MOL0     C46520   9.065   7.421   6.467  0.2029 -0.2503  0.3835
  353MOL0     C46521   9.031   7.297   6.420 -0.1351  0.5468  0.7901
  353MOL0     O46522   9.118   7.196   6.374  0.0391 -0.5490  0.3641
  353MOL0     C46523   9.262   7.214   6.371 -0.1756  0.1338 -0.8719
  353MOL0     C46524   9.298   7.255   6.226  0.1726 -0.2003 -0.6230
  353MOL0     C46525   9.451   7.287   6.214 -0.4087 -0.4345  1.0058
  353MOL0     C46526   9.500   7.319   6.072  0.3171 -0.2605  0.0634
  353MOL0     C46527   9.420   7.409   5.987 -0.8498 -0.8708  0.1958
  353MOL0     C46528   9.361   7.490   5.914  0.0597 -0.4707 -1.2054
  353MOL0     C46529   8.895   7.271   6.400 -0.2418  0.0103  0.6972
  353MOL0     C46530   8.797   7.363   6.434  0.3933 -0.0284  0.0987
  353MOL0     H46531   8.728   7.900   6.479 -0.8447 -0.2125 -0.7877
  353MOL0     H46532   8.566   8.076   6.552  0.8984  0.4248 -0.2153
  353MOL0     H46533   8.319   7.993   6.932  0.4085 -1.0690  1.0353
  353MOL0     H46534   8.238   7.954   6.773  2.6254  0.4669 -1.1658
  353MOL0     H46535   8.167   8.189   6.750 -0.3074  0.1580 -0.1565
  353MOL0     H46536   8.276   8.226   6.892 -0.8654 -0.6929  1.3726
  353MOL0     H46537   8.103   8.052   7.015  3.3659 -1.1839 -2.3589
  353MOL0     H46538   7.995   8.099   6.893  0.8438 -1.4461 -0.2971
  353MOL0     H46539   8.151   8.297   7.066 -0.9496  3.1254 -0.9122
  353MOL0     H46540   8.032   8.338   6.935 -0.4754 -1.0629 -0.4644
  353MOL0     H46541   7.952   8.180   7.182  2.8653  0.5803 -1.3549
  353MOL0     H46542   7.846   8.263   7.047 -1.9368 -0.2778  0.9168
  353MOL0     H46543   7.834   8.405   7.251  1.3450  1.0294  2.2880
  353MOL0     H46544   7.929   8.475   7.126 -0.4469  0.1519 -1.8445
  353MOL0     H46545   8.054   8.313   7.351 -0.8124 -0.8468  0.0492
  353MOL0     H46546   8.135   8.427   7.236 -0.2588  2.6666  0.7739
  353MOL0     H46547   8.018   8.609   7.321 -0.0167 -1.4002 -1.1156
  353MOL0     H46548   8.116   8.518   7.444 -0.4243 -4.6102 -0.7274
  353MOL0     H46549   7.950   8.332   7.601  1.9400  0.8894 -0.0418
  353MOL0     H46550   7.741   8.256   7.727 -2.4227 -2.3663 -0.0672
  353MOL0     H46551   7.592   8.284   7.635 -0.5554  0.4276  0.0319
  353MOL0     H46552   7.529   8.483   7.784 -2.8594 -1.3511  2.0001
  353MOL0     H46553   7.672   8.450   7.880 -2.6999  4.1548  1.0970
  353MOL0     H46554   7.579   8.243   7.942 -2.9769 -1.4892  0.6421
  353MOL0     H46555   7.455   8.359   7.962  0.9928 -0.6737  0.9627
  353MOL0     H46556   7.466   8.147   7.732 -2.8109  1.0374 -2.2335
  353MOL0     H46557   7.354   8.264   7.743  0.1932 -0.2272 -1.6087
  353MOL0     H46558   7.174   8.312   7.851 -0.4342  0.0905  0.3430
  353MOL0     H46559   6.943   8.301   7.854 -1.7764 -0.6528  1.5959
  353MOL0     H46560   6.555   7.797   7.942  0.2894  1.3946  0.6640
  353MOL0     H46561   6.317   7.787   7.960 -0.7845 -0.2176  1.0763
  353MOL0     H46562   6.057   8.083   7.910  3.3591  2.8435  0.0170
  353MOL0     H46563   6.100   8.177   8.051  0.1524  0.8438 -0.1404
  353MOL0     H46564   5.839   8.113   8.040 -0.2754 -0.2289  0.8901
  353MOL0     H46565   5.931   8.077   8.180  4.6164  0.9440 -0.2759
  353MOL0     H46566   5.966   7.852   8.114  0.5222 -1.9754 -1.0918
  353MOL0     H46567   5.878   7.878   7.965 -0.8765 -2.6308  1.4051
  353MOL0     H46568   5.780   7.770   8.169 -0.5032  0.2066  0.6148
  353MOL0     H46569   5.740   7.927   8.239  1.0917  1.0381  0.6596
  353MOL0     H46570   5.640   7.816   7.970 -1.6927 -1.3114 -0.1707
  353MOL0     H46571   5.644   7.989   8.005 -0.4635 -1.0944 -1.5281
  353MOL0     H46572   5.523   7.944   8.215  3.7683 -2.6775  2.5233
  353MOL0     H46573   5.498   7.776   8.159 -0.0453  0.7251 -0.0183
  353MOL0     H46574   5.399   8.041   8.033 -0.6560  0.5108 -1.0469
  353MOL0     H46575   5.363   7.876   7.959 -0.4380 -0.8845  0.2354
  353MOL0     H46576   5.261   7.982   8.226 -3.2784  1.0213 -0.0779
  353MOL0     H46577   5.260   7.816   8.168  0.5960  0.6972  2.9048
  353MOL0     H46578   6.310   8.201   8.090  0.5590  0.4655  0.2954
  353MOL0     H46579   6.559   8.219   8.044 -1.8115  1.0844 -1.2869
  353MOL0     H46580   6.969   7.899   8.004 -0.5959 -0.2846 -0.9302
  353MOL0     H46581   7.203   7.914   8.000 -2.8630 -0.5260  4.0572
  353MOL0     H46582   8.456   7.837   6.889  0.6871  1.8280  0.5297
  353MOL0     H46583   8.616   7.655   6.816  1.3458  0.7129 -0.0269
  353MOL0     H46584   9.005   7.608   6.557 -1.1959  0.1455 -1.4568
  353MOL0     H46585   9.169   7.451   6.473  0.0025  1.2109 -2.0532
  353MOL0     H46586   9.297   7.115   6.402 -0.9776  0.4767  1.2294
  353MOL0     H46587   9.298   7.285   6.446 -0.0953  0.6879 -1.4310
  353MOL0     H46588   9.295   7.166   6.162  2.6668 -0.5915 -0.3079
  353MOL0     H46589   9.226   7.335   6.206  0.1673  0.9641  3.2512
  353MOL0     H46590   9.514   7.207   6.254 -0.0521 -0.6592  0.0223
  353MOL0     H46591   9.461   7.377   6.276 -0.9445  1.2913 -1.2899
  353MOL0     H46592   9.599   7.364   6.078  0.3081 -0.2001 -0.2497
  353MOL0     H46593   9.511   7.230   6.009  1.2539 -0.3773  0.3796
  353MOL0     H46594   9.304   7.562   5.858  4.2703  0.7877 -4.3327
  353MOL0     H46595   8.879   7.177   6.349  0.0063 -1.4907  3.1790
  353MOL0     H46596   8.694   7.340   6.409  1.1499 -1.6443 -1.8045
  354MOL0     O46597   2.434   7.697   6.117  0.5916  0.1125  0.9135
  354MOL0     C46598   2.447   7.720   5.992  0.2013 -0.3000  0.6943
  354MOL0     O46599   2.342   7.725   5.904  0.8507 -0.7683  0.5380
  354MOL0     C46600   2.215   7.695   5.946  0.1062  0.7934 -0.4730
  354MOL0     C46601   2.107   7.752   5.882 -0.2715  0.6899  0.3958
  354MOL0     C46602   1.982   7.723   5.915  0.3639 -0.0429  0.5328
  354MOL0     C46603   1.952   7.626   6.013  0.5128  0.4191 -0.5946
  354MOL0     O46604   1.827   7.588   6.044  1.0007 -0.6395 -0.4790
  354MOL0     C46605   1.749   7.565   5.933  0.5435  0.5298  0.5778
  354MOL0     C46606   1.649   7.457   5.970  0.0148  0.4509 -0.0400
  354MOL0     C46607   1.545   7.440   5.863  0.1474  0.8682  0.9275
  354MOL0     C46608   1.447   7.322   5.880 -0.2650  0.2362  0.5097
  354MOL0     C46609   1.338   7.323   5.771 -0.6086  0.2255  0.8076
  354MOL0     C46610   1.238   7.443   5.787  0.5991  0.6309  0.1436
  354MOL0     C46611   1.120   7.418   5.680 -0.4450 -0.4212 -0.5792
  354MOL0     C46612   1.088   7.552   5.616 -0.2189 -0.4496  0.1810
  354MOL0     N46613   0.948   7.555   5.574  0.8053 -0.6206  0.7135
  354MOL0     C46614   0.839   7.600   5.654  0.1193  0.0216 -0.5122
  354MOL0     C46615   0.735   7.584   5.571 -0.4609 -0.0080  0.4758
  354MOL0     C46616   0.596   7.601   5.619  0.3853 -0.5373 -0.5223
  354MOL0     C46617   0.499   7.594   5.507  0.5232  0.2149 -0.0305
  354MOL0     C46618   0.359   7.589   5.563  0.3640  0.1350  0.5911
  354MOL0     C46619   0.244   7.582   5.468  0.3479 -0.1521 -0.6893
  354MOL0     O46620   0.123   7.581   5.544  0.1514  0.4446  0.6479
  354MOL0     C46621   0.005   7.565   5.478 -0.1856 -0.1795  0.6506
  354MOL0     C46622  -0.096   7.480   5.526 -0.1252  0.9912  0.4114
  354MOL0     C46623  -0.213   7.466   5.459 -0.0674 -0.3499  0.2728
  354MOL0     C46624  -0.257   7.552   5.347 -0.7991 -0.2257 -0.4212
  354MOL0     C46625  -0.395   7.559   5.298  0.0057  0.9135  0.5392
  354MOL0     O46626  -0.437   7.674   5.245  0.3034  0.2462  0.1527
  354MOL0     C46627  -0.560   7.680   5.175  0.1394 -0.4519 -0.1727
  354MOL0     C46628  -0.672   7.738   5.230 -0.1540  0.5168  0.0025
  354MOL0     C46629  -0.798   7.747   5.163 -0.5433 -0.4346  1.0231
  354MOL0     C46630  -0.812   7.683   5.035 -0.2019  0.1698 -0.6832
  354MOL0     O46631  -0.924   7.684   4.955 -0.1978 -0.0414  0.1342
  354MOL0     C46632  -1.013   7.798   4.960  0.0791 -0.3066  0.7273
  354MOL0     C46633  -1.120   7.774   4.857  1.1823 -0.1808 -0.5606
  354MOL0     C46634  -1.237   7.863   4.878  0.0020  0.6420  0.1001
  354MOL0     C46635  -1.330   7.871   4.760  0.3688 -0.5103 -0.0222
  354MOL0     C46636  -1.455   7.958   4.777 -0.4846  0.5368 -0.4518
  354MOL0     C46637  -1.544   7.938   4.655  0.3496  0.9168 -0.0816
  354MOL0     C46638  -1.669   8.023   4.675  0.2120  0.2122 -0.2081
  354MOL0     C46639  -1.775   8.021   4.564  0.7502  0.2247 -0.1568
  354MOL0    Cl46640  -1.853   7.863   4.570 -0.4837  0.2918 -0.2912
  354MOL0     C46641  -0.691   7.630   4.979  0.8016  0.2644 -0.2530
  354MOL0     C46642  -0.567   7.645   5.041 -0.0946  0.1059  0.1277
  354MOL0     O46643  -0.462   7.454   5.304  0.1406 -0.7415 -0.2667
  354MOL0     C46644  -0.155   7.648   5.302  0.0416  0.5030 -0.2259
  354MOL0     C46645  -0.027   7.644   5.361  0.1819  0.9269 -0.9131
  354MOL0     N46646   0.768   7.516   5.458  0.2882 -0.3504 -0.2458
  354MOL0     N46647   0.898   7.517   5.448  0.5602 -0.2666 -0.5598
  354MOL0     C46648   2.052   7.569   6.086  0.4999 -0.2888  0.3498
  354MOL0     C46649   2.183   7.597   6.049 -0.4884  0.0278 -0.4164
  354MOL0     C46650   2.584   7.736   5.934  0.5946  0.2204 -0.3227
  354MOL0     C46651   2.695   7.728   6.020  1.0450  0.4972  0.6633
  354MOL0     C46652   2.815   7.765   5.972 -0.8882 -0.7042 -0.3891
  354MOL0     C46653   2.841   7.821   5.842  0.7360 -0.3510  0.4347
  354MOL0     O46654   2.966   7.857   5.789 -0.0073  0.3999 -1.0229
  354MOL0     C46655   3.081   7.869   5.875 -0.3513  0.1140 -0.3959
  354MOL0     C46656   3.190   7.954   5.798  0.5287 -0.4806  1.0143
  354MOL0     C46657   3.327   7.896   5.802  0.2074 -0.7307  0.1311
  354MOL0     C46658   3.424   7.985   5.727  0.1528  0.6011 -0.2677
  354MOL0     C46659   3.560   7.930   5.714  0.5144  0.7512 -0.4709
  354MOL0     C46660   3.668   7.883   5.702 -0.3059 -0.2355  0.1122
  354MOL0     C46661   2.738   7.817   5.753 -0.9645 -1.2820 -0.5179
  354MOL0     C46662   2.608   7.778   5.797 -0.3414  0.3357 -1.0416
  354MOL0     H46663   2.127   7.830   5.809  1.6116 -0.5354 -0.4936
  354MOL0     H46664   1.893   7.769   5.874 -0.0925 -1.1978  0.1706
  354MOL0     H46665   1.808   7.523   5.851 -1.1379 -0.9571  0.0630
  354MOL0     H46666   1.698   7.659   5.909  0.6814  0.7059  0.9605
  354MOL0     H46667   1.604   7.474   6.068  1.9056 -0.4470  1.0443
  354MOL0     H46668   1.710   7.368   5.986  0.3323  0.0983 -2.6500
  354MOL0     H46669   1.593   7.430   5.766  0.5759 -0.1686  1.2373
  354MOL0     H46670   1.488   7.533   5.870  1.0615  1.6525 -1.3103
  354MOL0     H46671   1.512   7.235   5.870  2.5002  2.1469  0.6200
  354MOL0     H46672   1.392   7.310   5.974 -2.8978 -0.6766 -1.0242
  354MOL0     H46673   1.275   7.234   5.773 -0.6741  0.1922 -1.2194
  354MOL0     H46674   1.395   7.325   5.678  2.2051  2.5666  2.3882
  354MOL0     H46675   1.295   7.534   5.773  1.3906  0.4329  1.9072
  354MOL0     H46676   1.191   7.426   5.884 -1.2507 -0.6552 -0.8975
  354MOL0     H46677   1.137   7.344   5.601 -1.2320 -2.4477  1.0517
  354MOL0     H46678   1.034   7.372   5.728 -0.2624 -0.9025 -0.7099
  354MOL0     H46679   1.156   7.570   5.532  0.6861  1.8999  1.3317
  354MOL0     H46680   1.107   7.628   5.693  0.2998 -1.3214  0.9466
  354MOL0     H46681   0.841   7.656   5.747  0.5344  0.3662 -0.7286
  354MOL0     H46682   0.603   7.695   5.675  0.1342  0.0643 -1.4723
  354MOL0     H46683   0.575   7.529   5.699 -0.9990 -0.4499 -0.7707
  354MOL0     H46684   0.522   7.513   5.437 -0.3403 -0.4493  0.4398
  354MOL0     H46685   0.521   7.685   5.450 -0.4026 -0.3699 -1.3798
  354MOL0     H46686   0.351   7.496   5.621 -1.2671  0.1863  0.5128
  354MOL0     H46687   0.334   7.678   5.621 -0.8432 -0.6433  1.3194
  354MOL0     H46688   0.255   7.492   5.406  1.1218  0.7674 -1.9336
  354MOL0     H46689   0.247   7.667   5.399 -0.1799  0.1452 -0.3463
  354MOL0     H46690  -0.086   7.410   5.608 -2.7864  0.4403  0.3568
  354MOL0     H46691  -0.283   7.394   5.500  0.6615 -0.9218  0.5357
  354MOL0     H46692  -0.665   7.759   5.336 -0.3737  0.2928  0.0624
  354MOL0     H46693  -0.875   7.811   5.203 -1.8530 -1.9403  1.0317
  354MOL0     H46694  -0.957   7.888   4.933  4.3315 -2.2168  2.3959
  354MOL0     H46695  -1.048   7.815   5.062  1.4371  3.3317  0.7142
  354MOL0     H46696  -1.162   7.673   4.861  1.0634 -0.0794  1.4988
  354MOL0     H46697  -1.091   7.785   4.752 -1.7525  1.4196 -1.2940
  354MOL0     H46698  -1.186   7.959   4.892  0.5631  0.5109 -0.9245
  354MOL0     H46699  -1.291   7.842   4.971  1.2279 -2.6540  0.2115
  354MOL0     H46700  -1.287   7.908   4.666 -1.0656 -2.3587 -1.4710
  354MOL0     H46701  -1.361   7.769   4.734 -0.3277 -0.3622  0.2019
  354MOL0     H46702  -1.418   8.061   4.782  1.5621 -0.1819  0.1364
  354MOL0     H46703  -1.512   7.937   4.868  0.5588  1.2213  0.3864
  354MOL0     H46704  -1.568   7.832   4.637  0.0500  0.5848  2.0105
  354MOL0     H46705  -1.494   7.982   4.569 -1.1293  0.2942 -1.3130
  354MOL0     H46706  -1.711   8.001   4.773  2.5418  0.1873  0.8514
  354MOL0     H46707  -1.628   8.123   4.689 -0.0629  0.2030  0.7386
  354MOL0     H46708  -1.726   8.046   4.470  1.0144  1.1239  0.2037
  354MOL0     H46709  -1.842   8.101   4.597  0.2180 -0.6771  1.0270
  354MOL0     H46710  -0.693   7.588   4.879  1.3572  0.7538 -0.4774
  354MOL0     H46711  -0.472   7.604   5.008 -0.1242  1.3584 -1.6238
  354MOL0     H46712  -0.185   7.722   5.229 -1.3015 -0.7022 -0.9340
  354MOL0     H46713   0.045   7.707   5.311 -0.3118  0.6344 -2.0402
  354MOL0     H46714   2.024   7.511   6.173 -1.4436 -0.5425 -0.4090
  354MOL0     H46715   2.265   7.546   6.098 -1.4906  0.3088  1.6791
  354MOL0     H46716   2.690   7.691   6.122 -2.3687  1.2211  0.8864
  354MOL0     H46717   2.899   7.760   6.041 -1.4202  0.2743  0.3482
  354MOL0     H46718   3.112   7.768   5.904 -0.9832 -0.0448 -0.2679
  354MOL0     H46719   3.053   7.924   5.965  1.1190  1.9406 -1.0002
  354MOL0     H46720   3.162   7.944   5.693 -0.0611  3.7984  0.5901
  354MOL0     H46721   3.183   8.060   5.820  0.2266  0.0176 -1.2366
  354MOL0     H46722   3.336   7.792   5.769 -1.0686 -1.1742  1.0782
  354MOL0     H46723   3.338   7.896   5.911  1.7386 -1.0244 -0.0129
  354MOL0     H46724   3.392   7.984   5.622  0.6757  0.9448 -0.4387
  354MOL0     H46725   3.426   8.085   5.771  2.1814 -0.0672  1.3084
  354MOL0     H46726   3.771   7.854   5.699  0.0285  0.9781 -0.8105
  354MOL0     H46727   2.760   7.835   5.648  2.3875  1.5991  0.4916
  354MOL0     H46728   2.532   7.774   5.720  0.0591  0.5192 -1.4521
  355MOL0     O46729   2.800   6.204   9.859  0.5848 -0.2706  0.4367
  355MOL0     C46730   2.728   6.277   9.931  0.2545 -1.0148 -0.7143
  355MOL0     O46731   2.744   6.414   9.951 -0.2496  0.1592 -0.1879
  355MOL0     C46732   2.860   6.475   9.903  0.2479 -0.2516 -1.4325
  355MOL0     C46733   2.849   6.570   9.795 -0.2706  0.6798  0.3174
  355MOL0     C46734   2.961   6.638   9.751 -0.4274 -0.2901 -0.1872
  355MOL0     C46735   3.089   6.617   9.814  0.0920  0.0508  0.1160
  355MOL0     O46736   3.203   6.687   9.779  0.3910 -0.3801  0.3424
  355MOL0     C46737   3.213   6.720   9.633 -0.1031  0.7992 -0.2049
  355MOL0     C46738   3.362   6.746   9.597 -0.2870 -0.0798  0.7844
  355MOL0     C46739   3.455   6.619   9.603  1.0299  0.2120  0.1133
  355MOL0     C46740   3.595   6.653   9.554 -0.2532  0.1123  0.1908
  355MOL0     C46741   3.673   6.517   9.563  0.1147 -0.6580 -0.1507
  355MOL0     C46742   3.822   6.528   9.505  1.3800 -0.3258  0.1767
  355MOL0     C46743   3.865   6.424   9.404  0.3128 -0.2867 -0.5271
  355MOL0     C46744   3.838   6.474   9.262 -0.6853 -0.3506 -0.7409
  355MOL0     N46745   3.705   6.539   9.228  0.6385 -0.1608 -0.0107
  355MOL0     C46746   3.671   6.660   9.185 -0.5961 -0.1275 -0.0780
  355MOL0     C46747   3.539   6.670   9.173  0.0502  0.3959  0.8767
  355MOL0     C46748   3.460   6.789   9.123  1.1914  0.2929  0.2459
  355MOL0     C46749   3.459   6.794   8.974  0.4235  0.0598  0.0997
  355MOL0     C46750   3.359   6.904   8.919 -0.4536 -0.3566  0.3166
  355MOL0     C46751   3.213   6.861   8.944 -0.4615 -0.2080  1.3049
  355MOL0     O46752   3.149   6.973   9.005  0.6565 -0.2748 -0.4059
  355MOL0     C46753   3.009   6.981   9.018 -0.4672  1.2857 -0.2205
  355MOL0     C46754   2.952   7.100   9.043  0.0073 -0.2752  0.1603
  355MOL0     C46755   2.812   7.110   9.094  0.7329  0.2500  0.3524
  355MOL0     C46756   2.727   6.995   9.088 -0.7159 -0.2081  0.5319
  355MOL0     C46757   2.584   6.998   9.113  0.5052 -0.1892 -0.4050
  355MOL0     O46758   2.510   6.888   9.105 -0.1973  0.4750 -0.2805
  355MOL0     C46759   2.377   6.890   9.136 -0.0243 -0.4093  0.4468
  355MOL0     C46760   2.331   6.814   9.246 -0.2850  0.0056 -0.6381
  355MOL0     C46761   2.190   6.800   9.279 -0.9488 -0.1563  0.1972
  355MOL0     C46762   2.098   6.856   9.186 -0.6419 -0.1899  0.7338
  355MOL0     O46763   1.977   6.851   9.223  0.3560  0.1662  0.3639
  355MOL0     C46764   1.885   6.956   9.177 -0.4464 -0.4711  0.7565
  355MOL0     C46765   1.746   6.930   9.236  0.7812 -0.4487 -0.6620
  355MOL0     C46766   1.758   6.910   9.390 -0.0714 -0.6280  0.0282
  355MOL0     C46767   1.639   6.851   9.461  0.0271 -0.4590  0.4689
  355MOL0     C46768   1.659   6.806   9.609  0.1516 -0.2009 -0.2697
  355MOL0     C46769   1.539   6.752   9.682  0.3514 -0.8497  0.5494
  355MOL0     C46770   1.444   6.850   9.746  0.3992  0.2028  0.1631
  355MOL0     C46771   1.398   6.965   9.663  0.1473  0.0438 -0.8484
  355MOL0    Cl46772   1.500   7.106   9.674 -0.0123 -0.4824  0.2474
  355MOL0     C46773   2.146   6.923   9.070  0.9273 -0.4705 -0.5230
  355MOL0     C46774   2.285   6.934   9.047  1.0710 -0.4365 -0.2143
  355MOL0     O46775   2.534   7.115   9.122  0.4120  0.1016  0.1945
  355MOL0     C46776   2.782   6.874   9.045 -0.2686 -0.3710  0.5347
  355MOL0     C46777   2.919   6.865   9.013  0.4787  0.9912 -1.2501
  355MOL0     N46778   3.488   6.536   9.180  0.5824 -0.2692  0.2844
  355MOL0     N46779   3.589   6.468   9.229 -0.3831 -0.7521 -0.1776
  355MOL0     C46780   3.092   6.531   9.922  0.8425 -0.3694  0.0209
  355MOL0     C46781   2.981   6.461   9.975  0.4141 -0.0900  0.5911
  355MOL0     C46782   2.612   6.220  10.001 -0.2737 -0.0865  0.4379
  355MOL0     C46783   2.485   6.278   9.993  0.1462  0.2427 -0.0625
  355MOL0     C46784   2.376   6.202  10.024 -0.0681  0.0520 -0.4865
  355MOL0     C46785   2.390   6.074  10.081  0.6881  0.3618  0.7378
  355MOL0     O46786   2.287   5.985  10.118  0.0658 -0.2890  0.3026
  355MOL0     C46787   2.157   6.040  10.118  1.2369 -0.0706 -0.2246
  355MOL0     C46788   2.053   5.953  10.180  0.8995 -0.3362 -0.5801
  355MOL0     C46789   1.907   5.994  10.140  0.6648  0.0453 -0.7403
  355MOL0     C46790   1.871   5.957   9.998  0.2386  0.2882 -0.4753
  355MOL0     C46791   1.890   5.814   9.983  0.2361  0.3480  0.9704
  355MOL0     C46792   1.901   5.697   9.971 -0.8510  0.8525 -0.9579
  355MOL0     C46793   2.521   6.025  10.102  0.9985 -0.3931  0.3715
  355MOL0     C46794   2.637   6.094  10.061 -0.4276 -0.2962  0.6632
  355MOL0     H46795   2.754   6.590   9.746 -0.1957  0.3139  0.0119
  355MOL0     H46796   2.943   6.706   9.668 -0.7922  1.2241  1.0798
  355MOL0     H46797   3.160   6.814   9.619  0.0930  1.0692  0.7522
  355MOL0     H46798   3.178   6.642   9.565 -1.7670  0.8662  0.5433
  355MOL0     H46799   3.408   6.831   9.648  2.1443 -0.3139 -0.8442
  355MOL0     H46800   3.357   6.775   9.491  2.4650 -3.6774 -0.5204
  355MOL0     H46801   3.419   6.539   9.539 -1.3334 -0.5534  2.2567
  355MOL0     H46802   3.458   6.570   9.701  3.5297 -0.5245 -0.2519
  355MOL0     H46803   3.577   6.679   9.450 -0.0868  1.8117  0.5606
  355MOL0     H46804   3.644   6.738   9.601  0.3357 -1.2759  2.2305
  355MOL0     H46805   3.628   6.434   9.507  1.6208  0.8429 -3.9548
  355MOL0     H46806   3.686   6.491   9.668  3.4940  2.1321  0.2761
  355MOL0     H46807   3.883   6.528   9.596 -1.3266 -0.1503  2.1091
  355MOL0     H46808   3.839   6.625   9.457  4.2431 -0.8226 -0.0276
  355MOL0     H46809   3.971   6.396   9.408  0.1688 -0.7678  0.3548
  355MOL0     H46810   3.810   6.331   9.422  1.8149 -0.9629  0.8227
  355MOL0     H46811   3.843   6.389   9.192  1.1509  0.8029 -2.0693
  355MOL0     H46812   3.921   6.538   9.232 -1.8508  1.5991  0.0163
  355MOL0     H46813   3.747   6.737   9.178  1.0014 -1.3960  2.0036
  355MOL0     H46814   3.506   6.878   9.167 -0.8181  0.8496  1.3465
  355MOL0     H46815   3.355   6.792   9.152  0.5347  3.4032 -1.9494
  355MOL0     H46816   3.440   6.693   8.936 -0.7529 -0.2638  1.4665
  355MOL0     H46817   3.559   6.825   8.940 -0.3345 -0.3013 -2.6938
  355MOL0     H46818   3.383   7.002   8.961  2.6747  0.5658 -3.0498
  355MOL0     H46819   3.367   6.904   8.810 -0.9830 -3.3863  0.1797
  355MOL0     H46820   3.219   6.773   9.009  3.7283 -0.2828  1.0337
  355MOL0     H46821   3.182   6.838   8.842  2.3173  0.6774  0.1882
  355MOL0     H46822   3.015   7.188   9.044  2.0942 -1.6834 -0.7115
  355MOL0     H46823   2.769   7.206   9.123  0.3667 -0.2550  1.5092
  355MOL0     H46824   2.414   6.768   9.299  0.3447 -1.3675 -2.6820
  355MOL0     H46825   2.163   6.747   9.369 -1.1663  0.3382  0.4275
  355MOL0     H46826   1.868   6.956   9.069  0.1355  3.3176  0.5365
  355MOL0     H46827   1.925   7.052   9.213 -2.6854  0.7076  0.2522
  355MOL0     H46828   1.691   6.846   9.194  0.3720 -0.4617 -0.1138
  355MOL0     H46829   1.686   7.020   9.220 -2.5029 -2.0755  1.3730
  355MOL0     H46830   1.796   7.003   9.433  1.6828 -0.0539 -2.5620
  355MOL0     H46831   1.838   6.837   9.406  2.6765  1.8705 -1.2911
  355MOL0     H46832   1.560   6.926   9.451  0.0623 -0.2841  1.4107
  355MOL0     H46833   1.603   6.761   9.411  3.4434  0.0637 -3.4688
  355MOL0     H46834   1.703   6.893   9.658  0.4869  0.5790 -1.8705
  355MOL0     H46835   1.738   6.732   9.623  1.3297  1.4790  2.9026
  355MOL0     H46836   1.571   6.688   9.766  0.6477  0.4424  1.4507
  355MOL0     H46837   1.480   6.688   9.616  0.4890 -0.5327  0.1201
  355MOL0     H46838   1.358   6.797   9.788  0.4149 -0.0246 -0.0917
  355MOL0     H46839   1.500   6.885   9.833  1.2817 -0.4038 -0.1504
  355MOL0     H46840   1.302   7.000   9.701  0.1087 -0.5739 -0.3639
  355MOL0     H46841   1.392   6.945   9.556  0.9142  1.1033 -1.1051
  355MOL0     H46842   2.075   6.966   8.999 -0.7149  2.3139  2.5174
  355MOL0     H46843   2.326   6.985   8.960 -0.1773  0.3346 -0.3664
  355MOL0     H46844   2.719   6.788   9.025 -1.6431  0.5703  0.6540
  355MOL0     H46845   2.970   6.771   8.994  3.1125  1.4730  2.3814
  355MOL0     H46846   3.185   6.536   9.979  1.2003  0.8884 -0.6364
  355MOL0     H46847   3.000   6.393  10.058  0.9751 -2.7441 -1.5606
  355MOL0     H46848   2.460   6.375   9.951  0.1934  0.1045 -0.4127
  355MOL0     H46849   2.279   6.248  10.012  0.6303  1.9771  0.6935
  355MOL0     H46850   2.134   6.067  10.014 -1.0766  3.2713  0.9958
  355MOL0     H46851   2.162   6.137  10.169 -0.5925  0.7187 -1.4585
  355MOL0     H46852   2.068   5.849  10.149 -2.2040 -0.6664 -1.2993
  355MOL0     H46853   2.066   5.953  10.288 -0.2298 -2.8548 -0.3919
  355MOL0     H46854   1.893   6.101  10.157  3.9665  0.5324 -0.3369
  355MOL0     H46855   1.851   5.932  10.210  4.6804 -0.7394  2.1594
  355MOL0     H46856   1.763   5.975   9.994 -0.1431 -1.6976 -0.1657
  355MOL0     H46857   1.929   6.020   9.930  1.0245  0.8314  0.6667
  355MOL0     H46858   1.918   5.592   9.955  2.2922  1.1332 -0.1332
  355MOL0     H46859   2.521   5.934  10.161 -0.1265  0.0469  1.0869
  355MOL0     H46860   2.733   6.043  10.058  0.0953  0.6028  1.5928
  356MOL0     O46861   5.842   8.013   1.173 -0.3062  1.1134  0.1612
  356MOL0     C46862   5.872   8.052   1.285  0.1131 -0.4259 -0.5208
  356MOL0     O46863   5.982   8.127   1.310 -0.5933 -0.0782  0.3588
  356MOL0     C46864   6.079   8.137   1.211  0.3203  0.1955 -0.3203
  356MOL0     C46865   6.139   8.018   1.157 -0.2467 -0.9482  0.2673
  356MOL0     C46866   6.220   8.033   1.042  0.5158 -0.3834 -0.5015
  356MOL0     C46867   6.239   8.158   0.975  0.2839 -0.1118 -0.4533
  356MOL0     O46868   6.295   8.171   0.855  0.2705  0.1245  0.2065
  356MOL0     C46869   6.339   8.074   0.761  0.4988 -0.3450  0.0398
  356MOL0     C46870   6.490   8.077   0.743 -0.2588 -1.0018  0.2302
  356MOL0     C46871   6.538   8.190   0.651 -0.4762  0.2339 -0.1258
  356MOL0     C46872   6.692   8.178   0.651  0.5612 -0.7551 -0.1079
  356MOL0     C46873   6.762   8.234   0.525  0.1627  0.5392 -0.3601
  356MOL0     C46874   6.913   8.209   0.541 -0.5131 -0.1341 -0.3051
  356MOL0     C46875   6.965   8.095   0.472 -0.4764 -0.0219 -1.1920
  356MOL0     C46876   7.116   8.101   0.457 -1.6394 -0.0382 -0.0659
  356MOL0     N46877   7.170   7.981   0.399 -0.1013 -0.0364  0.7220
  356MOL0     C46878   7.189   7.853   0.450 -0.8492 -0.1176  0.1975
  356MOL0     C46879   7.209   7.769   0.344  0.0568  0.2315 -0.3208
  356MOL0     C46880   7.242   7.624   0.349  0.8366 -0.5317 -0.5512
  356MOL0     C46881   7.125   7.551   0.275  0.8800  0.2329 -1.0454
  356MOL0     C46882   7.147   7.396   0.271 -1.3342 -0.0737 -0.2452
  356MOL0     C46883   7.018   7.330   0.218 -0.2736 -1.0086  0.1824
  356MOL0     O46884   6.919   7.320   0.320 -0.4013 -0.3035  1.1811
  356MOL0     C46885   6.783   7.304   0.286 -0.2992 -0.4816 -0.1100
  356MOL0     C46886   6.730   7.317   0.157  0.4798  0.8775  0.1660
  356MOL0     C46887   6.591   7.304   0.135  0.0799 -0.1633  0.6200
  356MOL0     C46888   6.503   7.278   0.237  0.4550  0.2981 -0.5118
  356MOL0     C46889   6.358   7.266   0.204  0.0137  0.2156 -0.1111
  356MOL0     O46890   6.310   7.299   0.079  0.5182 -0.2779  0.2921
  356MOL0     C46891   6.172   7.276   0.052  0.5128  1.2240 -0.5338
  356MOL0     C46892   6.107   7.365  -0.037  0.2830  0.2029  0.3383
  356MOL0     C46893   5.973   7.341  -0.086  0.8018 -0.8128 -0.4303
  356MOL0     C46894   5.910   7.226  -0.050 -0.0267  0.2653 -0.0509
  356MOL0     O46895   5.796   7.205  -0.120  0.1024 -0.6893  0.0895
  356MOL0     C46896   5.680   7.158  -0.050  0.5301 -1.0440 -0.0217
  356MOL0     C46897   5.604   7.058  -0.147 -1.1670 -0.2716  1.1857
  356MOL0     C46898   5.514   6.955  -0.080  0.2273 -0.3797 -0.5345
  356MOL0     C46899   5.424   7.033   0.021  0.1491  0.2035 -0.2075
  356MOL0     C46900   5.302   6.965   0.079 -0.1939  0.0312  0.3078
  356MOL0     C46901   5.324   6.817   0.122 -0.4400  0.5722 -0.6185
  356MOL0     C46902   5.199   6.743   0.132  0.2307 -0.5020 -0.2567
  356MOL0     C46903   5.222   6.619   0.221  0.1211  0.3937 -0.1584
  356MOL0    Cl46904   5.056   6.570   0.264 -0.2603  0.0258 -0.1302
  356MOL0     C46905   5.975   7.138   0.031  0.5830 -0.8317  0.5188
  356MOL0     C46906   6.099   7.161   0.088  0.0612  0.4867  0.9032
  356MOL0     O46907   6.284   7.236   0.299 -0.2513  0.0523 -0.6069
  356MOL0     C46908   6.553   7.266   0.365  0.5063  0.1201  0.0232
  356MOL0     C46909   6.696   7.274   0.386  0.5142  0.6573 -0.0626
  356MOL0     N46910   7.211   7.843   0.224  0.1579  0.2841  0.6271
  356MOL0     N46911   7.181   7.959   0.260 -0.1430 -0.2333  0.7584
  356MOL0     C46912   6.190   8.275   1.046  0.7826 -0.2591  0.1825
  356MOL0     C46913   6.112   8.269   1.164 -0.1786  0.5108 -1.1620
  356MOL0     C46914   5.766   8.030   1.391  0.1511 -0.7452 -0.9507
  356MOL0     C46915   5.637   7.981   1.360 -0.0942 -0.5523  0.0194
  356MOL0     C46916   5.538   7.951   1.457 -0.4411 -0.5756 -0.4903
  356MOL0     C46917   5.575   7.969   1.594  0.4301 -0.5910 -0.8844
  356MOL0     O46918   5.473   7.947   1.686  0.1334  0.1123 -0.1566
  356MOL0     C46919   5.517   7.939   1.822  0.2483  0.0095 -0.5131
  356MOL0     C46920   5.392   7.934   1.912 -0.0267  0.0040 -0.0567
  356MOL0     C46921   5.331   7.796   1.911  0.4086 -0.4423  0.6731
  356MOL0     C46922   5.210   7.794   2.009 -0.6492 -0.2722  0.1668
  356MOL0     C46923   5.141   7.660   2.004 -0.1760  0.1329  0.5572
  356MOL0     C46924   5.079   7.556   1.997  0.1938 -0.0143  0.3100
  356MOL0     C46925   5.714   8.005   1.628  0.7310 -0.4423  0.4019
  356MOL0     C46926   5.804   8.031   1.523  0.8514 -1.2410  0.2903
  356MOL0     H46927   6.105   7.921   1.192 -1.2980 -1.0007 -0.8078
  356MOL0     H46928   6.256   7.936   1.007  0.9783 -1.3880  2.4537
  356MOL0     H46929   6.292   8.106   0.667 -1.5675  0.0086  1.1393
  356MOL0     H46930   6.307   7.976   0.798 -0.4999  0.7677  2.3299
  356MOL0     H46931   6.526   7.980   0.706 -0.0043 -1.5894  1.9292
  356MOL0     H46932   6.528   8.084   0.845  1.1095 -0.3160 -0.2927
  356MOL0     H46933   6.518   8.282   0.706  0.2714  0.8783 -0.9066
  356MOL0     H46934   6.497   8.175   0.550  1.0699 -0.2347 -0.7179
  356MOL0     H46935   6.728   8.235   0.737 -1.2038  0.2489  0.0233
  356MOL0     H46936   6.719   8.073   0.662 -0.1168 -1.0529 -1.1031
  356MOL0     H46937   6.734   8.339   0.528 -1.5521  0.1047  2.5802
  356MOL0     H46938   6.728   8.178   0.437  3.2587 -1.7597 -0.2847
  356MOL0     H46939   6.935   8.197   0.647  0.7357  0.8372 -0.4360
  356MOL0     H46940   6.970   8.300   0.518 -0.4947  0.4138  1.6953
  356MOL0     H46941   6.936   8.003   0.525  0.4783  0.7535  0.7741
  356MOL0     H46942   6.931   8.095   0.368  1.9553 -0.4993 -2.0629
  356MOL0     H46943   7.166   8.118   0.553 -0.4106  0.7754 -0.8369
  356MOL0     H46944   7.140   8.179   0.385 -3.1191 -0.3163 -0.8999
  356MOL0     H46945   7.178   7.814   0.551 -3.1017  0.8006  0.3501
  356MOL0     H46946   7.247   7.599   0.456 -3.2271  2.4638  0.5674
  356MOL0     H46947   7.330   7.606   0.286  0.5689  1.3034 -1.5038
  356MOL0     H46948   7.117   7.597   0.177 -1.7251 -0.1082 -1.0792
  356MOL0     H46949   7.033   7.563   0.334  0.6188 -2.0586 -0.8752
  356MOL0     H46950   7.236   7.378   0.211 -1.2188  2.2469 -0.8575
  356MOL0     H46951   7.171   7.355   0.370  1.0715 -1.8047 -1.4456
  356MOL0     H46952   7.050   7.230   0.187 -1.6427 -3.2988  5.1858
  356MOL0     H46953   6.979   7.381   0.130 -1.3022  2.8085  2.6292
  356MOL0     H46954   6.785   7.364   0.076 -2.0133  1.0428 -1.5351
  356MOL0     H46955   6.556   7.321   0.034 -2.0738 -5.5807  0.1118
  356MOL0     H46956   6.156   7.459  -0.059 -0.6313  1.5040  3.3646
  356MOL0     H46957   5.924   7.412  -0.151  2.6574  0.4909 -0.4785
  356MOL0     H46958   5.611   7.240  -0.029  0.3774 -0.2942 -2.9140
  356MOL0     H46959   5.702   7.107   0.044 -0.4307  0.3609  0.9983
  356MOL0     H46960   5.674   7.004  -0.211 -2.2609 -0.6057  0.2229
  356MOL0     H46961   5.538   7.118  -0.210 -0.3951  0.2089  0.8212
  356MOL0     H46962   5.567   6.881  -0.019  1.9588  1.1227 -0.1620
  356MOL0     H46963   5.451   6.903  -0.153  1.3691 -0.3650 -1.5632
  356MOL0     H46964   5.485   7.048   0.110 -1.2985  1.0230  0.6953
  356MOL0     H46965   5.395   7.135  -0.006 -3.0775 -0.0300  1.8432
  356MOL0     H46966   5.224   6.953   0.003 -1.0047 -4.1053  1.5429
  356MOL0     H46967   5.255   7.030   0.152  2.4618  2.0121  0.3830
  356MOL0     H46968   5.381   6.818   0.216 -0.1995 -1.0830 -0.7208
  356MOL0     H46969   5.393   6.772   0.050  2.7332  1.6025  1.5138
  356MOL0     H46970   5.120   6.804   0.178 -1.8461 -1.4965 -2.2951
  356MOL0     H46971   5.158   6.715   0.034 -0.3176 -1.5183  0.2390
  356MOL0     H46972   5.278   6.648   0.311  1.4891 -0.2185 -0.7860
  356MOL0     H46973   5.277   6.542   0.166  2.1797  2.2619 -0.8794
  356MOL0     H46974   5.923   7.047   0.060 -1.4909 -0.1377 -0.7785
  356MOL0     H46975   6.150   7.083   0.144 -0.4865 -0.5586 -0.0091
  356MOL0     H46976   6.487   7.254   0.450  0.2258  3.0152  0.3238
  356MOL0     H46977   6.717   7.263   0.492 -0.1177 -0.6904 -0.0498
  356MOL0     H46978   6.220   8.365   0.993  1.7611  0.3223  1.6749
  356MOL0     H46979   6.073   8.349   1.226 -0.5721 -1.9980  2.0465
  356MOL0     H46980   5.612   7.966   1.255  0.9347 -1.1964 -0.1463
  356MOL0     H46981   5.435   7.921   1.445 -0.8961 -0.9902  3.3661
  356MOL0     H46982   5.559   8.037   1.847 -1.3415  1.3077 -2.6182
  356MOL0     H46983   5.584   7.856   1.847 -1.7558 -1.3008  0.8611
  356MOL0     H46984   5.409   7.956   2.018  1.9097  0.3342 -0.3956
  356MOL0     H46985   5.316   8.007   1.883  0.4792  0.6512  0.1981
  356MOL0     H46986   5.396   7.713   1.940 -0.0723 -1.5957 -1.3608
  356MOL0     H46987   5.300   7.774   1.808  1.2279 -2.8816  0.8730
  356MOL0     H46988   5.248   7.808   2.110 -2.1986 -1.3672  0.9484
  356MOL0     H46989   5.144   7.877   1.980  0.6344  0.0309 -2.0912
  356MOL0     H46990   5.019   7.468   1.988  1.5024 -0.8263 -0.7653
  356MOL0     H46991   5.749   8.009   1.731 -0.7425 -2.2784  1.0203
  356MOL0     H46992   5.910   8.039   1.543  0.5865 -0.2310  1.4016
  357MOL0     O46993   7.860   4.886   0.574 -0.0874  0.0710  0.2210
  357MOL0     C46994   7.908   4.998   0.539  0.6534  0.5816  0.4258
  357MOL0     O46995   7.859   5.125   0.575  0.3912  0.8456 -0.8930
  357MOL0     C46996   7.739   5.106   0.643  0.2296 -0.5420  0.7314
  357MOL0     C46997   7.725   5.119   0.783  0.2018 -0.1648 -0.4012
  357MOL0     C46998   7.608   5.087   0.852  0.3675  0.0721  0.7568
  357MOL0     C46999   7.496   5.033   0.777 -0.0867 -0.6293 -0.0450
  357MOL0     O47000   7.392   4.997   0.847  0.1766  0.2823  0.1212
  357MOL0     C47001   7.288   5.095   0.860  0.1110  0.4868 -0.6507
  357MOL0     C47002   7.184   5.087   0.746  0.7845 -0.0273 -0.2635
  357MOL0     C47003   7.082   4.976   0.768  0.7327  1.0552 -0.0627
  357MOL0     C47004   6.992   4.977   0.644  0.5173 -0.7924 -0.2583
  357MOL0     C47005   6.893   4.861   0.638  0.0047 -0.0750  0.1365
  357MOL0     C47006   6.964   4.740   0.583 -0.2215  1.0600 -0.3659
  357MOL0     C47007   6.863   4.637   0.550  0.3088 -0.6472  0.4146
  357MOL0     C47008   6.910   4.541   0.441 -0.2635 -1.4567 -0.2402
  357MOL0     N47009   7.029   4.464   0.493 -0.5810 -0.1218 -0.1053
  357MOL0     C47010   7.021   4.344   0.574  0.7701 -0.1337 -0.1018
  357MOL0     C47011   7.146   4.294   0.581  0.3453 -0.5129 -0.8571
  357MOL0     C47012   7.179   4.162   0.645  0.2147  0.0986 -0.1105
  357MOL0     C47013   7.067   4.085   0.713 -0.2318  0.3910  0.4470
  357MOL0     C47014   7.094   3.936   0.749 -0.3231  0.0659  0.1297
  357MOL0     C47015   6.958   3.885   0.820 -0.0009  0.8624  0.2345
  357MOL0     O47016   6.853   3.892   0.723  0.3788 -0.2568 -0.1719
  357MOL0     C47017   6.722   3.912   0.769  0.6791 -1.2171  1.0321
  357MOL0     C47018   6.639   4.008   0.703 -0.0591  0.8102  0.0646
  357MOL0     C47019   6.511   4.019   0.731 -0.0930 -1.0203  0.7811
  357MOL0     C47020   6.447   3.931   0.830  0.9990 -0.2073  0.2286
  357MOL0     C47021   6.297   3.939   0.856 -0.2602 -0.0298  1.0467
  357MOL0     O47022   6.228   4.035   0.782 -0.6980 -0.3054 -0.4493
  357MOL0     C47023   6.099   4.055   0.824 -0.3615  0.6813  0.9371
  357MOL0     C47024   5.997   3.959   0.795 -1.0797 -1.1889 -0.4124
  357MOL0     C47025   5.868   3.975   0.845 -0.2358  0.2605 -0.4021
  357MOL0     C47026   5.834   4.094   0.912  0.2032 -0.1581  0.2123
  357MOL0     O47027   5.710   4.138   0.950  0.4511  0.3838 -0.0187
  357MOL0     C47028   5.584   4.082   0.896 -1.0280  0.8368  0.6579
  357MOL0     C47029   5.570   4.140   0.750  0.4629  0.2675  0.9708
  357MOL0     C47030   5.411   4.128   0.705 -0.2569  0.0044  0.1771
  357MOL0     C47031   5.414   4.157   0.551  0.1920  0.0141  0.6827
  357MOL0     C47032   5.283   4.122   0.494 -0.7603  0.5244 -0.2772
  357MOL0     C47033   5.158   4.170   0.575 -0.3007  1.3166 -0.3530
  357MOL0     C47034   5.033   4.152   0.498 -0.2940 -0.1553  0.4806
  357MOL0     C47035   4.916   4.203   0.579 -0.1155 -0.6756 -0.0247
  357MOL0    Cl47036   4.771   4.206   0.485  0.0683  0.1861  0.1421
  357MOL0     C47037   5.932   4.190   0.926 -0.1643 -0.7649 -0.1155
  357MOL0     C47038   6.063   4.176   0.885 -0.5602 -0.4209 -0.3007
  357MOL0     O47039   6.250   3.861   0.939 -0.1915  0.4988 -0.1439
  357MOL0     C47040   6.522   3.833   0.892  0.5682 -0.7730 -0.1656
  357MOL0     C47041   6.665   3.834   0.874 -0.8866  0.0247 -0.0477
  357MOL0     N47042   7.229   4.383   0.515  0.4733  0.1704 -0.4413
  357MOL0     N47043   7.163   4.483   0.475 -0.7460 -0.4704  0.0247
  357MOL0     C47044   7.511   5.020   0.638  0.7041 -0.5539 -0.1655
  357MOL0     C47045   7.630   5.057   0.565 -1.0520 -0.5985  0.4782
  357MOL0     C47046   8.009   4.992   0.429  0.5658 -0.8552 -0.1555
  357MOL0     C47047   8.075   4.872   0.392  0.5687  0.8362  0.4876
  357MOL0     C47048   8.175   4.869   0.299  0.1624  0.6384 -0.0286
  357MOL0     C47049   8.214   4.988   0.232 -0.2025  0.4434 -0.2370
  357MOL0     O47050   8.301   4.975   0.131  0.1415  0.2343  0.0329
  357MOL0     C47051   8.411   5.064   0.136 -1.0012  0.5607 -0.2525
  357MOL0     C47052   8.509   5.019   0.234 -0.4240 -0.3389  0.9497
  357MOL0     C47053   8.628   5.123   0.234  0.8293  0.7009  0.3158
  357MOL0     C47054   8.746   5.090   0.330  0.1764  1.0968  0.5347
  357MOL0     C47055   8.822   4.971   0.288  0.9957 -0.0218  0.5194
  357MOL0     C47056   8.891   4.879   0.270 -0.4105  0.6591 -0.6979
  357MOL0     C47057   8.150   5.115   0.262  0.4304 -0.5295  0.0398
  357MOL0     C47058   8.045   5.114   0.357  0.3479  0.2457  0.1039
  357MOL0     H47059   7.816   5.152   0.832 -0.5542 -1.2756  1.9204
  357MOL0     H47060   7.589   5.092   0.959 -0.6631  0.1471  0.5762
  357MOL0     H47061   7.333   5.194   0.869 -0.2437  0.5760  0.1428
  357MOL0     H47062   7.227   5.077   0.949  0.8201 -0.3870 -0.3185
  357MOL0     H47063   7.235   5.077   0.650 -2.4126 -0.7938 -2.0302
  357MOL0     H47064   7.135   5.185   0.741 -0.4365 -0.6770 -1.8503
  357MOL0     H47065   7.020   4.997   0.855  0.8542  3.6475 -0.5179
  357MOL0     H47066   7.119   4.873   0.766 -2.0600 -0.0900 -3.5624
  357MOL0     H47067   6.936   5.071   0.648  0.1581 -1.0204  0.1881
  357MOL0     H47068   7.054   4.992   0.555 -0.0231 -0.1869 -0.5445
  357MOL0     H47069   6.811   4.890   0.571 -0.3614 -0.4907  0.3961
  357MOL0     H47070   6.849   4.832   0.734 -0.9458  1.3413  0.1578
  357MOL0     H47071   7.030   4.703   0.662 -1.9442 -2.5990 -0.4269
  357MOL0     H47072   7.028   4.763   0.497  3.2392 -1.6157  1.2667
  357MOL0     H47073   6.838   4.585   0.642 -1.1464 -2.4407 -0.9053
  357MOL0     H47074   6.770   4.680   0.510  1.1593 -1.5064 -2.8540
  357MOL0     H47075   6.932   4.598   0.350  2.6402  0.4092  1.4712
  357MOL0     H47076   6.822   4.479   0.426 -0.1240 -2.3435  2.2023
  357MOL0     H47077   6.931   4.298   0.615  0.6829 -1.1604 -1.3794
  357MOL0     H47078   7.245   4.184   0.730 -1.9553  0.9285  1.4456
  357MOL0     H47079   7.239   4.094   0.583  0.7450  0.4197  0.0438
  357MOL0     H47080   6.974   4.113   0.663  0.1360  3.3983  1.2508
  357MOL0     H47081   7.058   4.124   0.815  0.7875  0.3798  0.5511
  357MOL0     H47082   7.115   3.864   0.670 -0.2874  0.0036  0.1963
  357MOL0     H47083   7.175   3.945   0.822 -0.3957  0.2569  0.1895
  357MOL0     H47084   6.948   3.950   0.908  0.4948  2.2627 -0.7175
  357MOL0     H47085   6.976   3.784   0.857  1.6476  1.7461  2.0692
  357MOL0     H47086   6.695   4.078   0.641  0.6342  3.2572  3.1964
  357MOL0     H47087   6.446   4.092   0.684  0.8171 -0.6734  0.0289
  357MOL0     H47088   6.033   3.870   0.745  0.2864 -1.2149  0.5816
  357MOL0     H47089   5.803   3.890   0.827  1.2377 -0.4472 -2.9632
  357MOL0     H47090   5.495   4.108   0.954 -4.6195 -2.3736 -2.7775
  357MOL0     H47091   5.572   3.973   0.904 -1.7920  1.0557  3.2599
  357MOL0     H47092   5.629   4.086   0.675  2.0134 -0.5628  2.6913
  357MOL0     H47093   5.599   4.244   0.730  0.2326  0.0805 -0.4161
  357MOL0     H47094   5.350   4.200   0.760 -3.1553 -1.6009 -0.7451
  357MOL0     H47095   5.370   4.029   0.727  1.7973 -0.9358  0.0499
  357MOL0     H47096   5.434   4.260   0.523 -1.3059  0.4244  1.0486
  357MOL0     H47097   5.487   4.107   0.487  0.1788  1.9040 -0.8754
  357MOL0     H47098   5.283   4.012   0.491  1.0147  0.5002  0.0116
  357MOL0     H47099   5.279   4.151   0.389  0.8287  1.2740 -0.1454
  357MOL0     H47100   5.167   4.277   0.596 -3.4620  1.4271  0.9204
  357MOL0     H47101   5.150   4.113   0.668  0.2773 -0.5225 -1.3817
  357MOL0     H47102   5.038   4.213   0.407 -0.0421  0.3220  0.8097
  357MOL0     H47103   5.014   4.051   0.461 -1.1847  0.1547  0.0534
  357MOL0     H47104   4.941   4.304   0.615  1.6279 -1.4770  1.1458
  357MOL0     H47105   4.908   4.131   0.660  0.1251 -1.2439 -0.5052
  357MOL0     H47106   5.906   4.286   0.970  1.1806  0.2559 -1.4036
  357MOL0     H47107   6.134   4.257   0.875 -1.6988  0.6311 -0.0946
  357MOL0     H47108   6.483   3.767   0.968  2.3616  0.2500  1.7332
  357MOL0     H47109   6.726   3.761   0.927 -2.4389 -2.8464 -1.9441
  357MOL0     H47110   7.424   4.974   0.592  0.2818 -0.7919  0.8363
  357MOL0     H47111   7.637   5.040   0.458 -0.3733 -1.0873  0.5972
  357MOL0     H47112   8.047   4.778   0.438 -1.9279  0.8477 -0.8978
  357MOL0     H47113   8.217   4.776   0.262  0.8751  0.7314  0.5487
  357MOL0     H47114   8.367   5.161   0.162 -3.1016 -0.3397 -0.2676
  357MOL0     H47115   8.446   5.079   0.034 -2.6062  1.2719 -0.7376
  357MOL0     H47116   8.459   5.003   0.330 -2.1693  0.3961  0.2140
  357MOL0     H47117   8.547   4.926   0.190  0.1272  0.4972 -0.3810
  357MOL0     H47118   8.584   5.221   0.256 -1.5675  0.4235 -2.5028
  357MOL0     H47119   8.664   5.131   0.130 -0.9902  2.6087 -0.2380
  357MOL0     H47120   8.813   5.176   0.340  0.0289  1.2834 -0.0477
  357MOL0     H47121   8.696   5.074   0.427 -1.3633 -2.0970 -0.6384
  357MOL0     H47122   8.954   4.797   0.243 -0.9380 -0.9962  2.6172
  357MOL0     H47123   8.174   5.211   0.217 -0.8792  0.4151  1.2641
  357MOL0     H47124   7.993   5.206   0.382  0.5095  0.8986 -1.7968
  358MOL0     O47125   3.599   3.990   3.583 -0.1057 -0.3277  1.2383
  358MOL0     C47126   3.661   3.993   3.477  0.6954 -0.3580 -0.1810
  358MOL0     O47127   3.604   3.999   3.349  0.0290  0.2997 -0.1569
  358MOL0     C47128   3.474   4.024   3.326  0.3376  0.5660 -0.0131
  358MOL0     C47129   3.440   4.129   3.244  0.1978 -0.4308 -0.3169
  358MOL0     C47130   3.301   4.147   3.216 -0.2249 -0.3029 -1.0620
  358MOL0     C47131   3.202   4.072   3.278 -0.8384  0.5593 -0.7547
  358MOL0     O47132   3.062   4.091   3.276 -0.1257  0.2370  0.6817
  358MOL0     C47133   3.010   4.227   3.267  0.3085 -0.2750 -0.2199
  358MOL0     C47134   2.849   4.233   3.283 -1.4938  0.3150 -0.0394
  358MOL0     C47135   2.778   4.183   3.156 -0.2608  0.1654 -0.1375
  358MOL0     C47136   2.815   4.033   3.125 -0.5832 -0.3830  0.0212
  358MOL0     C47137   2.705   3.953   3.049 -0.4293 -0.5529  0.1139
  358MOL0     C47138   2.660   4.015   2.911 -1.2969 -0.0778  0.4131
  358MOL0     C47139   2.552   3.927   2.848 -0.8344 -0.7763 -0.5956
  358MOL0     C47140   2.414   3.920   2.914 -0.3297  0.3391  0.0976
  358MOL0     N47141   2.335   4.036   2.878  0.5690  0.3253 -0.2519
  358MOL0     C47142   2.248   4.055   2.774 -0.3813  0.1911  0.1201
  358MOL0     C47143   2.189   4.175   2.792 -0.2626 -0.5378 -0.2534
  358MOL0     C47144   2.103   4.246   2.684  0.1037  1.2641  0.2022
  358MOL0     C47145   1.960   4.267   2.710 -0.2825 -0.4310  0.0393
  358MOL0     C47146   1.876   4.135   2.686 -0.0638  0.1534 -0.4221
  358MOL0     C47147   1.882   4.077   2.546  0.3626 -0.6952  0.0715
  358MOL0     O47148   1.764   4.002   2.490  0.3544  0.8734  0.0767
  358MOL0     C47149   1.661   4.073   2.444  0.2716  0.0286  0.4049
  358MOL0     C47150   1.667   4.204   2.402 -0.0920 -0.3663 -0.2052
  358MOL0     C47151   1.547   4.271   2.370 -0.3886 -0.4067  0.2817
  358MOL0     C47152   1.429   4.193   2.359 -0.1662 -0.0437 -0.8712
  358MOL0     C47153   1.301   4.252   2.316  0.6678 -0.8099  0.5585
  358MOL0     O47154   1.192   4.184   2.341 -0.8569  0.7357  0.1734
  358MOL0     C47155   1.068   4.224   2.293  0.1835 -0.1928 -0.0608
  358MOL0     C47156   0.987   4.318   2.354 -0.2723 -0.4245  0.3094
  358MOL0     C47157   0.856   4.354   2.306 -0.4441  0.2980  0.1354
  358MOL0     C47158   0.797   4.272   2.205 -0.1992 -0.2838  0.3623
  358MOL0     O47159   0.673   4.311   2.154  0.0641 -0.1118  0.7954
  358MOL0     C47160   0.570   4.351   2.232  0.2653  0.2840 -0.2911
  358MOL0     C47161   0.434   4.335   2.163  0.6550  0.2684  0.2686
  358MOL0     C47162   0.321   4.411   2.233 -0.6548 -0.4022  0.6661
  358MOL0     C47163   0.196   4.422   2.142  0.0160  0.4956  0.2459
  358MOL0     C47164   0.088   4.476   2.235 -0.5060  0.3166  0.2766
  358MOL0     C47165  -0.049   4.489   2.156 -0.0718 -0.1651  0.1577
  358MOL0     C47166  -0.152   4.565   2.239  0.3059 -0.0453  0.3116
  358MOL0     C47167  -0.131   4.716   2.253  0.1037 -0.1310 -0.5378
  358MOL0    Cl47168  -0.291   4.765   2.324  0.0858 -0.2776 -0.4766
  358MOL0     C47169   0.872   4.172   2.150  0.7626  0.4052  0.0613
  358MOL0     C47170   1.003   4.149   2.189  0.1084  0.9104  0.9170
  358MOL0     O47171   1.314   4.359   2.263 -0.4261  0.2014  0.0212
  358MOL0     C47172   1.431   4.061   2.385 -0.1315  0.4709 -0.6269
  358MOL0     C47173   1.545   4.001   2.437 -0.2623  0.2332  0.0051
  358MOL0     N47174   2.232   4.226   2.913 -0.3686  0.4450  0.2152
  358MOL0     N47175   2.311   4.143   2.963  0.0903  0.3019 -0.4581
  358MOL0     C47176   3.240   3.969   3.358  0.1345 -0.3436  0.0880
  358MOL0     C47177   3.373   3.946   3.384 -0.0186  0.0223  0.6505
  358MOL0     C47178   3.806   4.026   3.481 -0.6351  0.7291  0.2647
  358MOL0     C47179   3.886   4.025   3.362 -0.2629 -1.2389 -1.0429
  358MOL0     C47180   4.019   4.070   3.374  0.4898  0.3411 -0.0925
  358MOL0     C47181   4.082   4.096   3.487 -0.4127  0.4672  0.0817
  358MOL0     O47182   4.221   4.115   3.501  0.8364  0.6444 -0.0988
  358MOL0     C47183   4.299   4.132   3.382  0.3317 -0.0476  1.0219
  358MOL0     C47184   4.440   4.171   3.426  0.5285  0.1453 -0.3963
  358MOL0     C47185   4.509   4.040   3.464 -0.2127  0.1459 -0.1458
  358MOL0     C47186   4.636   4.074   3.548  0.0642  0.4172 -0.0994
  358MOL0     C47187   4.736   4.140   3.463  0.7779 -1.1880  0.3772
  358MOL0     C47188   4.817   4.193   3.385 -0.2703 -0.3301 -0.2296
  358MOL0     C47189   4.000   4.106   3.603  0.6852  0.9595 -0.3683
  358MOL0     C47190   3.865   4.073   3.598  0.4191  1.1270 -0.4381
  358MOL0     H47191   3.514   4.193   3.198 -0.1567  1.9913  2.2000
  358MOL0     H47192   3.269   4.232   3.157  1.1835 -1.8426 -4.3059
  358MOL0     H47193   3.027   4.271   3.168 -2.0195  0.4783 -0.3292
  358MOL0     H47194   3.062   4.293   3.338  1.3009 -0.1184 -1.0617
  358MOL0     H47195   2.823   4.337   3.308 -0.7720  0.6333 -0.5632
  358MOL0     H47196   2.827   4.174   3.372 -1.2651 -0.0966 -0.2536
  358MOL0     H47197   2.791   4.245   3.067 -1.4619 -0.1819 -0.5768
  358MOL0     H47198   2.671   4.185   3.176 -0.5993  0.9375 -1.8438
  358MOL0     H47199   2.908   4.032   3.068 -0.6780 -1.3228 -0.1362
  358MOL0     H47200   2.823   3.973   3.216  2.2392  1.0672  0.8334
  358MOL0     H47201   2.616   3.935   3.110  0.2880 -3.6737  0.3934
  358MOL0     H47202   2.749   3.855   3.028  2.9038  0.9113 -0.4111
  358MOL0     H47203   2.743   4.007   2.841 -0.0286  0.0361  1.8580
  358MOL0     H47204   2.621   4.118   2.917 -3.7700 -0.9474  0.5214
  358MOL0     H47205   2.556   3.964   2.746 -2.5398 -0.0059 -0.4228
  358MOL0     H47206   2.583   3.822   2.845 -0.0891 -0.7082  1.9724
  358MOL0     H47207   2.430   3.900   3.020  1.3432 -3.1137 -0.6567
  358MOL0     H47208   2.368   3.829   2.875 -1.0795  0.7453  0.0125
  358MOL0     H47209   2.230   3.989   2.689 -0.8229 -0.2173  0.5231
  358MOL0     H47210   2.110   4.201   2.584  1.8117 -0.8530  1.1950
  358MOL0     H47211   2.150   4.344   2.677  1.4658  0.5567 -1.2905
  358MOL0     H47212   1.930   4.344   2.640  0.9770 -1.3124 -1.5395
  358MOL0     H47213   1.951   4.300   2.814 -0.4753  0.9093 -0.3920
  358MOL0     H47214   1.887   4.051   2.755  1.2837 -0.5782 -1.4761
  358MOL0     H47215   1.778   4.184   2.694  0.9293  2.3238 -0.9020
  358MOL0     H47216   1.966   4.008   2.548  0.8868 -0.0634  1.4450
  358MOL0     H47217   1.920   4.159   2.484  1.0826  0.4277  1.8921
  358MOL0     H47218   1.762   4.256   2.391 -1.4011  1.6363 -3.7122
  358MOL0     H47219   1.548   4.378   2.355  1.1149 -0.2126  1.4433
  358MOL0     H47220   1.034   4.384   2.426 -1.1207  1.5619 -0.8943
  358MOL0     H47221   0.801   4.443   2.336  1.8572  2.0116 -0.4226
  358MOL0     H47222   0.589   4.458   2.241  2.9045 -0.0254 -1.4483
  358MOL0     H47223   0.573   4.309   2.333  1.9110  1.4702  0.1825
  358MOL0     H47224   0.416   4.227   2.167  0.0613  0.3250 -0.5905
  358MOL0     H47225   0.445   4.362   2.057 -2.8698 -1.4282 -0.6714
  358MOL0     H47226   0.345   4.514   2.260  0.6709 -0.8502  1.2596
  358MOL0     H47227   0.303   4.350   2.322  1.4513 -1.3117  0.5284
  358MOL0     H47228   0.214   4.462   2.042  1.1237 -0.3394  0.0891
  358MOL0     H47229   0.175   4.317   2.120  0.6670  0.1117  1.3754
  358MOL0     H47230   0.108   4.577   2.271  2.5771 -0.1894  0.2493
  358MOL0     H47231   0.081   4.403   2.317 -1.5093  0.7475  0.6002
  358MOL0     H47232  -0.079   4.392   2.117  1.4159  0.0911 -1.7900
  358MOL0     H47233  -0.031   4.535   2.059 -1.1173  0.7339  0.3706
  358MOL0     H47234  -0.245   4.563   2.181  0.1314  0.5000  0.5649
  358MOL0     H47235  -0.173   4.515   2.334 -1.7176 -1.6337 -0.8834
  358MOL0     H47236  -0.119   4.759   2.153  1.2854  0.7602 -0.0429
  358MOL0     H47237  -0.053   4.745   2.324 -3.4334 -2.2034  4.8032
  358MOL0     H47238   0.831   4.102   2.077 -2.1397  0.2920  1.6933
  358MOL0     H47239   1.067   4.079   2.138 -0.5041  1.1021 -0.1630
  358MOL0     H47240   1.345   3.995   2.393  0.8252 -0.6258  1.3458
  358MOL0     H47241   1.533   3.898   2.468  0.2242  0.7486  2.0797
  358MOL0     H47242   3.166   3.912   3.414  1.3667 -1.1895  0.9350
  358MOL0     H47243   3.395   3.879   3.467 -0.6076  1.4145  1.9870
  358MOL0     H47244   3.833   3.994   3.272 -0.5424  0.6039 -1.5595
  358MOL0     H47245   4.069   4.081   3.278 -2.4463  0.7738 -1.6747
  358MOL0     H47246   4.251   4.213   3.326  1.5560 -0.8677 -1.3540
  358MOL0     H47247   4.303   4.044   3.317  0.4223 -0.6984  1.8954
  358MOL0     H47248   4.496   4.221   3.346 -1.5196 -1.7072 -3.1878
  358MOL0     H47249   4.431   4.243   3.508  1.0685  0.4154 -0.5672
  358MOL0     H47250   4.526   3.992   3.367  1.1960  1.1190 -0.4033
  358MOL0     H47251   4.445   3.967   3.514 -0.5394 -1.8451 -3.2042
  358MOL0     H47252   4.626   4.133   3.640 -0.8050  2.4020 -1.3874
  358MOL0     H47253   4.664   3.971   3.572 -3.7086 -1.1363 -1.5848
  358MOL0     H47254   4.900   4.232   3.330  0.3070 -0.5421  0.4721
  358MOL0     H47255   4.061   4.137   3.687 -0.4134 -0.1243  0.8881
  358MOL0     H47256   3.810   4.080   3.691  1.0125  1.4795 -0.1086
  359MOL0     O47257   2.273   4.559   9.534  0.3245  0.5776 -0.3576
  359MOL0     C47258   2.332   4.473   9.468 -0.2941 -0.0928  1.1404
  359MOL0     O47259   2.278   4.388   9.377 -0.3033  0.0783  0.3108
  359MOL0     C47260   2.147   4.411   9.345  0.4112 -0.3769  0.1926
  359MOL0     C47261   2.047   4.380   9.440  0.0931 -0.1740  0.0770
  359MOL0     C47262   1.913   4.404   9.414  0.5351  0.6726  0.3598
  359MOL0     C47263   1.869   4.455   9.290 -0.1717 -0.1183 -0.3134
  359MOL0     O47264   1.742   4.486   9.252  0.3125  0.8328 -0.1026
  359MOL0     C47265   1.656   4.468   9.370  0.4530 -0.3341  0.2571
  359MOL0     C47266   1.521   4.526   9.343  0.2783 -0.5924 -0.2930
  359MOL0     C47267   1.415   4.437   9.278 -0.0987  0.2821  0.2210
  359MOL0     C47268   1.287   4.520   9.228 -0.4791 -0.0300 -0.6270
  359MOL0     C47269   1.202   4.591   9.339 -0.3965 -0.2457 -0.1347
  359MOL0     C47270   1.137   4.724   9.284  0.5848 -0.6437 -0.1199
  359MOL0     C47271   1.024   4.785   9.371  0.3784  0.8555  0.3811
  359MOL0     C47272   1.071   4.897   9.452  1.0986  0.4131 -0.7917
  359MOL0     N47273   0.961   4.980   9.514 -0.2378 -0.5201 -0.1530
  359MOL0     C47274   0.853   4.932   9.588  0.4326  0.7312 -0.3398
  359MOL0     C47275   0.806   5.046   9.645  0.2607  0.0501  0.3607
  359MOL0     C47276   0.691   5.064   9.743 -0.3041  0.4675  0.0858
  359MOL0     C47277   0.566   5.127   9.693 -0.9058  0.1498 -0.5464
  359MOL0     C47278   0.458   5.066   9.767  0.6669  0.5211 -0.1783
  359MOL0     C47279   0.340   5.149   9.755  0.6191 -1.3582 -0.1877
  359MOL0     O47280   0.291   5.163   9.618 -0.8133 -0.5601  0.1301
  359MOL0     C47281   0.169   5.217   9.601  0.2176  0.6407 -0.5325
  359MOL0     C47282   0.115   5.226   9.470 -1.0048 -0.6714  0.2749
  359MOL0     C47283  -0.014   5.281   9.444 -0.2148  0.1443 -0.0898
  359MOL0     C47284  -0.096   5.328   9.547  0.9161  0.9587 -0.4064
  359MOL0     C47285  -0.234   5.382   9.534 -0.7270  0.2153 -0.3998
  359MOL0     O47286  -0.276   5.403   9.404  0.3927  0.2542 -0.5351
  359MOL0     C47287  -0.411   5.407   9.383 -0.4428 -0.8366  0.0280
  359MOL0     C47288  -0.494   5.496   9.445  0.5624  0.0318 -0.7672
  359MOL0     C47289  -0.634   5.479   9.438 -0.1100 -1.5092 -0.1099
  359MOL0     C47290  -0.695   5.387   9.356  0.1625  0.3281 -0.1058
  359MOL0     O47291  -0.830   5.389   9.367  0.2640 -0.1209 -0.6999
  359MOL0     C47292  -0.900   5.293   9.293  0.5822 -0.6021  0.3405
  359MOL0     C47293  -1.037   5.268   9.367 -0.2992 -0.4210  0.6991
  359MOL0     C47294  -1.135   5.172   9.297 -0.2829 -0.1790 -0.4633
  359MOL0     C47295  -1.255   5.169   9.379  0.9763  0.1055 -0.0789
  359MOL0     C47296  -1.370   5.105   9.306  0.1932 -0.0759 -0.3808
  359MOL0     C47297  -1.440   5.025   9.407 -0.2223 -0.9301 -1.0818
  359MOL0     C47298  -1.550   4.943   9.339 -0.1492  0.5614  1.3627
  359MOL0     C47299  -1.620   4.860   9.447 -0.4292  0.1044 -0.2239
  359MOL0    Cl47300  -1.713   4.961   9.562  0.2336  0.4410 -0.1421
  359MOL0     C47301  -0.614   5.307   9.276  0.6335  0.3429 -0.0341
  359MOL0     C47302  -0.468   5.323   9.285  0.0686  0.3777  0.6911
  359MOL0     O47303  -0.299   5.380   9.634 -0.5121 -0.3677 -0.0495
  359MOL0     C47304  -0.036   5.320   9.678 -0.4011 -0.6136  0.0594
  359MOL0     C47305   0.095   5.268   9.709 -0.4129  0.5355  0.3012
  359MOL0     N47306   0.886   5.155   9.598 -0.1810  0.3649  0.5811
  359MOL0     N47307   0.982   5.113   9.525  0.3532 -0.5286  0.4415
  359MOL0     C47308   1.971   4.476   9.198  0.6808 -0.2607 -0.5100
  359MOL0     C47309   2.102   4.454   9.225  0.3175 -0.3753  0.9229
  359MOL0     C47310   2.479   4.466   9.480  0.1105 -0.4879  0.3944
  359MOL0     C47311   2.552   4.353   9.433 -0.7880 -0.3989  0.6253
  359MOL0     C47312   2.691   4.339   9.463  0.8193  0.0032  0.1265
  359MOL0     C47313   2.757   4.455   9.515 -0.4974  0.1222 -0.4397
  359MOL0     O47314   2.893   4.468   9.548  0.0010  0.1029  0.0767
  359MOL0     C47315   2.980   4.358   9.523 -0.3505  0.9216 -0.5108
  359MOL0     C47316   2.945   4.260   9.635  0.6990  0.0522  0.3694
  359MOL0     C47317   3.011   4.314   9.759 -0.2352  1.1097  0.3784
  359MOL0     C47318   3.011   4.219   9.868  0.4809 -0.2987 -0.8385
  359MOL0     C47319   2.871   4.167   9.882 -0.3076  0.3038 -0.4144
  359MOL0     C47320   2.767   4.118   9.914  0.6452  0.7668  0.4888
  359MOL0     C47321   2.683   4.561   9.552 -0.1900 -0.3241 -0.4075
  359MOL0     C47322   2.549   4.565   9.535  0.4458 -0.3610 -0.5853
  359MOL0     H47323   2.076   4.340   9.537  1.2108 -1.6262 -0.8133
  359MOL0     H47324   1.836   4.383   9.487 -2.9322  0.6053 -2.9839
  359MOL0     H47325   1.696   4.521   9.457 -2.6274 -1.0531  2.2720
  359MOL0     H47326   1.645   4.361   9.389  1.1087 -0.8896 -2.0657
  359MOL0     H47327   1.537   4.617   9.284 -0.9899  0.3000  0.6978
  359MOL0     H47328   1.482   4.571   9.435  0.6296  0.4222 -0.6256
  359MOL0     H47329   1.387   4.365   9.356 -1.9305 -1.1331 -1.6635
  359MOL0     H47330   1.456   4.376   9.198 -1.6057 -0.5194  0.0169
  359MOL0     H47331   1.324   4.595   9.158  0.3492  1.7110  1.5637
  359MOL0     H47332   1.211   4.453   9.187 -2.6075  1.1571  1.2085
  359MOL0     H47333   1.267   4.619   9.423  0.7524  1.8881 -1.6174
  359MOL0     H47334   1.127   4.524   9.382 -1.4572  0.0102 -1.5034
  359MOL0     H47335   1.095   4.710   9.184  1.1896 -0.9175 -0.3400
  359MOL0     H47336   1.221   4.790   9.261  0.8583 -1.2949 -0.9953
  359MOL0     H47337   0.951   4.818   9.296  2.0810 -0.1002 -1.8023
  359MOL0     H47338   0.975   4.710   9.435  2.4030  0.0575  1.0560
  359MOL0     H47339   1.134   4.963   9.392  1.2096  1.0925  0.0580
  359MOL0     H47340   1.130   4.853   9.533 -1.8019 -0.7719  0.8461
  359MOL0     H47341   0.827   4.828   9.605  3.5453 -0.2387 -0.9996
  359MOL0     H47342   0.721   5.122   9.831 -1.2948  2.9088 -1.1184
  359MOL0     H47343   0.666   4.963   9.780  0.3966 -0.6753 -2.3570
  359MOL0     H47344   0.546   5.111   9.587 -0.6710  0.1101 -0.5864
  359MOL0     H47345   0.580   5.235   9.693 -1.4337  0.3154 -3.8698
  359MOL0     H47346   0.447   4.965   9.726  0.3035  0.2459  0.5743
  359MOL0     H47347   0.487   5.065   9.872 -0.1615 -2.1544  0.0908
  359MOL0     H47348   0.351   5.245   9.805  1.8562 -0.2262 -2.4497
  359MOL0     H47349   0.267   5.097   9.818  0.1291 -2.2752 -1.4512
  359MOL0     H47350   0.176   5.189   9.388 -0.3150  0.9378  0.0318
  359MOL0     H47351  -0.056   5.280   9.344  0.5051 -0.9927 -0.4041
  359MOL0     H47352  -0.451   5.582   9.498  0.3462 -1.1443  1.4372
  359MOL0     H47353  -0.711   5.530   9.495  0.4256 -0.1069 -0.5944
  359MOL0     H47354  -0.842   5.200   9.288 -0.7463 -1.5443  1.7446
  359MOL0     H47355  -0.911   5.340   9.194 -1.1311  1.0377  1.2559
  359MOL0     H47356  -1.073   5.371   9.365  0.2318 -0.1898  2.2475
  359MOL0     H47357  -1.018   5.234   9.469 -1.5300  1.0690  1.4552
  359MOL0     H47358  -1.090   5.072   9.296  0.4119  0.1336 -0.5900
  359MOL0     H47359  -1.158   5.209   9.197 -1.1814  2.1842  0.5333
  359MOL0     H47360  -1.214   5.106   9.458  0.0389  0.0690  0.3883
  359MOL0     H47361  -1.287   5.264   9.423 -0.5085 -0.7946  0.8598
  359MOL0     H47362  -1.336   5.039   9.225 -0.6885  2.2676 -2.8021
  359MOL0     H47363  -1.439   5.177   9.261 -0.0189 -1.8970 -3.2238
  359MOL0     H47364  -1.482   5.105   9.469 -2.7344 -0.9944 -2.5552
  359MOL0     H47365  -1.383   4.968   9.482  0.9515 -0.7792 -1.8390
  359MOL0     H47366  -1.623   5.013   9.298  3.1858  4.5803  1.6429
  359MOL0     H47367  -1.510   4.872   9.266 -0.6703  1.9820 -0.3839
  359MOL0     H47368  -1.537   4.807   9.495 -2.9982 -2.9706  1.1468
  359MOL0     H47369  -1.695   4.789   9.412  0.2227  1.1769 -4.3663
  359MOL0     H47370  -0.646   5.244   9.194  1.7109  1.7925 -1.6141
  359MOL0     H47371  -0.401   5.268   9.220 -0.2892 -0.1412  0.7498
  359MOL0     H47372  -0.091   5.343   9.769  0.4019 -3.6328  1.4465
  359MOL0     H47373   0.139   5.266   9.808  2.0145  1.0247 -0.6910
  359MOL0     H47374   1.932   4.505   9.101 -1.2591 -0.5731  0.1320
  359MOL0     H47375   2.181   4.449   9.150 -0.1928  0.9758  0.2627
  359MOL0     H47376   2.516   4.258   9.395  2.2853 -0.1311 -3.6160
  359MOL0     H47377   2.743   4.244   9.455  1.1372  0.0823  1.0726
  359MOL0     H47378   3.083   4.390   9.538 -1.1152  2.8226  1.2408
  359MOL0     H47379   2.970   4.314   9.424 -1.4445 -1.1772  0.4637
  359MOL0     H47380   2.837   4.245   9.645  0.3999  0.2103 -2.0288
  359MOL0     H47381   2.985   4.170   9.587 -0.0078  1.5212 -3.2857
  359MOL0     H47382   2.959   4.399   9.804  2.2213  2.8612  0.1345
  359MOL0     H47383   3.115   4.347   9.747 -0.7421  2.8963  0.6794
  359MOL0     H47384   3.086   4.142   9.849  2.8390  1.8521 -0.8803
  359MOL0     H47385   3.039   4.265   9.964  2.9926 -2.0685 -0.6265
  359MOL0     H47386   2.677   4.064   9.935  1.9164 -0.8417  2.1466
  359MOL0     H47387   2.725   4.652   9.593  1.2522 -0.9789 -0.3651
  359MOL0     H47388   2.497   4.655   9.567  2.3167 -0.2300  2.4557
  360MOL0     O47389   2.702   5.396   4.874  0.4795 -0.4415  0.7086
  360MOL0     C47390   2.739   5.353   4.762 -0.7414  0.1421 -0.0069
  360MOL0     O47391   2.661   5.321   4.653  0.7049 -0.8008 -0.5484
  360MOL0     C47392   2.529   5.299   4.665  0.4467 -0.4513  0.2851
  360MOL0     C47393   2.450   5.344   4.556 -0.2263  0.1096  0.1529
  360MOL0     C47394   2.315   5.313   4.550 -0.1390  0.3984 -0.2683
  360MOL0     C47395   2.251   5.252   4.655  0.4560  0.4932  0.2434
  360MOL0     O47396   2.125   5.212   4.640  0.4542  0.0329  0.4648
  360MOL0     C47397   2.059   5.166   4.756  0.4962 -0.5121  0.4069
  360MOL0     C47398   1.904   5.174   4.715 -0.0522 -0.0966 -0.7579
  360MOL0     C47399   1.862   5.327   4.713 -0.2907  0.2096 -0.1273
  360MOL0     C47400   1.718   5.337   4.662 -0.1171  0.3077  0.3768
  360MOL0     C47401   1.687   5.489   4.646  0.8613 -0.1826 -0.2538
  360MOL0     C47402   1.534   5.510   4.603  1.0392 -0.2308  0.1962
  360MOL0     C47403   1.489   5.662   4.576  0.3871  0.4286 -0.3328
  360MOL0     C47404   1.517   5.700   4.431 -0.2034 -0.3035 -1.5232
  360MOL0     N47405   1.445   5.818   4.393  0.3566 -0.0897  0.0312
  360MOL0     C47406   1.310   5.821   4.365 -0.2828  0.9604 -0.3230
  360MOL0     C47407   1.285   5.949   4.332  0.0811 -0.8194  0.1905
  360MOL0     C47408   1.146   6.004   4.294  0.2066  0.0937  0.3508
  360MOL0     C47409   1.071   5.921   4.181 -0.6631  0.3218 -0.2065
  360MOL0     C47410   0.917   5.971   4.166  0.5174  0.0760  0.3679
  360MOL0     C47411   0.844   5.883   4.067 -0.4413  0.0846  0.1571
  360MOL0     O47412   0.830   5.747   4.104 -0.6685 -0.8357 -0.0227
  360MOL0     C47413   0.725   5.713   4.180 -0.0522  0.3728 -0.4070
  360MOL0     C47414   0.740   5.643   4.300  0.8924 -0.1426 -0.0633
  360MOL0     C47415   0.621   5.612   4.378 -0.5549 -0.2431  0.5604
  360MOL0     C47416   0.481   5.638   4.336  0.3799 -0.3076  0.6391
  360MOL0     C47417   0.368   5.591   4.414 -0.1003  0.6594  0.3788
  360MOL0     O47418   0.243   5.616   4.361  0.2795 -0.2044 -0.0180
  360MOL0     C47419   0.131   5.602   4.429  0.6781 -0.5364  0.0318
  360MOL0     C47420   0.112   5.625   4.565  0.2318 -0.0040 -0.9674
  360MOL0     C47421  -0.013   5.609   4.632 -0.5089 -0.2126  0.2562
  360MOL0     C47422  -0.130   5.575   4.556  0.1756 -0.6271 -0.2578
  360MOL0     O47423  -0.261   5.576   4.616 -0.7143 -0.0276  0.3454
  360MOL0     C47424  -0.270   5.580   4.755  0.3800 -0.6976 -0.6786
  360MOL0     C47425  -0.417   5.580   4.795 -0.2854 -0.6770  0.9104
  360MOL0     C47426  -0.485   5.461   4.720  1.0391 -0.6087  0.0822
  360MOL0     C47427  -0.619   5.424   4.764  0.4918  0.3368 -0.0862
  360MOL0     C47428  -0.673   5.313   4.672  0.2652 -0.1061 -0.0113
  360MOL0     C47429  -0.584   5.192   4.645 -0.7365 -0.3523  0.3721
  360MOL0     C47430  -0.554   5.115   4.765 -0.4382 -0.1545  0.5965
  360MOL0     C47431  -0.455   4.999   4.738 -0.4221 -0.2413 -0.0569
  360MOL0    Cl47432  -0.292   5.052   4.686 -0.0963 -0.2375  0.3299
  360MOL0     C47433  -0.112   5.549   4.423 -0.5060 -0.1403  0.4922
  360MOL0     C47434   0.019   5.551   4.366  1.3413 -0.5695  0.2457
  360MOL0     O47435   0.390   5.535   4.526 -0.6926 -0.4985  0.7589
  360MOL0     C47436   0.476   5.710   4.213  0.2269  0.8642  0.2901
  360MOL0     C47437   0.593   5.734   4.136  0.2138 -0.0612 -0.0854
  360MOL0     N47438   1.396   6.028   4.353 -0.0378  0.1752  0.1933
  360MOL0     N47439   1.495   5.947   4.379  0.3039 -0.0274 -0.1046
  360MOL0     C47440   2.329   5.207   4.753 -0.2840  0.2222 -0.5465
  360MOL0     C47441   2.462   5.233   4.768  0.0538 -0.0691  0.6683
  360MOL0     C47442   2.885   5.355   4.748  0.0219  0.5826 -0.1975
  360MOL0     C47443   2.965   5.306   4.854 -0.3278  0.1020 -0.4169
  360MOL0     C47444   3.106   5.291   4.840  0.3020 -0.0767 -0.7214
  360MOL0     C47445   3.166   5.327   4.718 -0.6734 -0.5969 -0.4453
  360MOL0     O47446   3.297   5.306   4.712  0.0144 -0.5545  0.1960
  360MOL0     C47447   3.370   5.369   4.607 -0.3062  0.1383  0.0230
  360MOL0     C47448   3.509   5.304   4.589  0.4140 -0.7983  0.6716
  360MOL0     C47449   3.590   5.392   4.501  0.1970  0.3802 -0.4411
  360MOL0     C47450   3.709   5.457   4.563 -0.4846  0.0620 -0.2343
  360MOL0     C47451   3.823   5.366   4.573 -0.0238 -0.0453  0.4128
  360MOL0     C47452   3.892   5.268   4.561  0.2799  0.4574 -0.6723
  360MOL0     C47453   3.072   5.365   4.616 -0.4661 -0.4964 -0.2369
  360MOL0     C47454   2.939   5.372   4.625  0.4424  0.4361 -0.0710
  360MOL0     H47455   2.491   5.369   4.459 -2.0915  0.2831 -0.6327
  360MOL0     H47456   2.252   5.338   4.465  0.6028  2.8882 -0.1607
  360MOL0     H47457   2.089   5.234   4.836  3.4608 -2.4119  1.0608
  360MOL0     H47458   2.084   5.064   4.787 -0.8714 -0.3747  2.1043
  360MOL0     H47459   1.844   5.116   4.786 -0.2987  2.9832  1.7933
  360MOL0     H47460   1.891   5.123   4.619 -2.6607 -1.8807  0.4185
  360MOL0     H47461   1.928   5.384   4.647 -0.3050  0.5365  0.1381
  360MOL0     H47462   1.880   5.380   4.807  2.7661  2.3641 -1.7534
  360MOL0     H47463   1.704   5.272   4.575  0.0327 -1.0960  1.3606
  360MOL0     H47464   1.651   5.304   4.742 -1.1797 -0.6090 -0.8475
  360MOL0     H47465   1.755   5.531   4.570  1.3071  0.8115  0.6626
  360MOL0     H47466   1.699   5.542   4.741  1.5883 -1.4389  0.3760
  360MOL0     H47467   1.471   5.468   4.682  2.7106  0.4637  1.9783
  360MOL0     H47468   1.515   5.445   4.517 -0.2157 -0.3334  0.5405
  360MOL0     H47469   1.384   5.676   4.604  0.9663  2.6015  1.0365
  360MOL0     H47470   1.540   5.721   4.652 -1.0836 -0.2780  1.2828
  360MOL0     H47471   1.496   5.622   4.357 -0.9292  0.0305 -1.6802
  360MOL0     H47472   1.624   5.723   4.430  0.1805 -1.9301 -0.8557
  360MOL0     H47473   1.234   5.743   4.366  1.6447 -1.0000 -0.6524
  360MOL0     H47474   1.157   6.109   4.265  0.7568 -0.2984 -0.9295
  360MOL0     H47475   1.085   5.998   4.384  0.1685 -4.2094  0.2575
  360MOL0     H47476   1.074   5.814   4.200  1.7440  0.4776  0.5823
  360MOL0     H47477   1.115   5.935   4.082 -3.6319 -2.3933 -2.0800
  360MOL0     H47478   0.860   5.974   4.259 -0.5922  1.6165 -0.3035
  360MOL0     H47479   0.917   6.078   4.142  0.3377  0.5225  2.1901
  360MOL0     H47480   0.896   5.890   3.971 -4.4148 -0.8844 -2.3141
  360MOL0     H47481   0.743   5.918   4.041  0.0486 -1.0617 -3.8768
  360MOL0     H47482   0.839   5.619   4.339  1.4487  2.1388  0.0757
  360MOL0     H47483   0.646   5.555   4.468  2.1564  0.4659  0.3396
  360MOL0     H47484   0.196   5.653   4.627 -1.4085  0.1602  1.2950
  360MOL0     H47485  -0.011   5.631   4.739  2.2556  1.0336  0.0338
  360MOL0     H47486  -0.220   5.670   4.792  0.0895 -0.5701 -0.5915
  360MOL0     H47487  -0.214   5.495   4.795 -1.4982 -1.4280  0.5481
  360MOL0     H47488  -0.458   5.676   4.762 -2.1633 -1.8063 -0.2262
  360MOL0     H47489  -0.439   5.560   4.900 -1.7148 -0.1503  0.7379
  360MOL0     H47490  -0.431   5.369   4.744 -0.9918 -1.5507  1.2897
  360MOL0     H47491  -0.490   5.483   4.613 -1.4830 -1.7804 -0.1039
  360MOL0     H47492  -0.627   5.409   4.872  1.5536  1.2330  0.1418
  360MOL0     H47493  -0.676   5.515   4.742  2.3770  1.9566  1.3340
  360MOL0     H47494  -0.699   5.353   4.574  0.0973  2.6603  1.0800
  360MOL0     H47495  -0.765   5.274   4.716 -0.6780  3.2024  1.2237
  360MOL0     H47496  -0.493   5.223   4.593 -0.2913  0.9695  1.8754
  360MOL0     H47497  -0.629   5.124   4.572 -1.1140  1.8207 -1.5516
  360MOL0     H47498  -0.518   5.176   4.849  1.2333 -0.1106 -0.1098
  360MOL0     H47499  -0.644   5.063   4.799  0.9607 -2.1692  1.3942
  360MOL0     H47500  -0.503   4.927   4.672 -1.4213  0.4192 -0.0794
  360MOL0     H47501  -0.433   4.952   4.834  0.0663  0.6269  0.2717
  360MOL0     H47502  -0.198   5.548   4.356 -3.9756  3.4459  4.2722
  360MOL0     H47503   0.029   5.529   4.260  0.2099 -0.2467  0.0588
  360MOL0     H47504   0.387   5.727   4.154 -0.0919 -1.7222 -0.0890
  360MOL0     H47505   0.572   5.779   4.039  0.9578 -3.9234 -2.2317
  360MOL0     H47506   2.290   5.161   4.844 -0.3064  0.7354 -0.2952
  360MOL0     H47507   2.514   5.183   4.849  1.6607  1.5054  0.6704
  360MOL0     H47508   2.911   5.289   4.946  2.5533  1.2019  1.6485
  360MOL0     H47509   3.157   5.260   4.932  1.2134 -0.8920 -1.4719
  360MOL0     H47510   3.371   5.477   4.625 -1.5269 -0.0221  1.2294
  360MOL0     H47511   3.323   5.349   4.511 -0.0276 -1.3446  0.1737
  360MOL0     H47512   3.558   5.299   4.687  2.1852  0.5930 -0.0863
  360MOL0     H47513   3.501   5.204   4.546  0.4559  0.3286 -2.1424
  360MOL0     H47514   3.532   5.479   4.469  3.0061  1.5587 -2.7805
  360MOL0     H47515   3.630   5.335   4.416 -0.1009  0.5255 -0.6804
  360MOL0     H47516   3.738   5.547   4.509 -1.3145  1.6321  1.7841
  360MOL0     H47517   3.689   5.491   4.665 -1.5213 -2.6666  0.5617
  360MOL0     H47518   3.931   5.169   4.569 -1.3504 -0.0731  1.8269
  360MOL0     H47519   3.110   5.379   4.515 -0.4979  0.8976 -0.0825
  360MOL0     H47520   2.883   5.384   4.532 -0.0076 -1.8283 -0.1429
  361MOL0     O47521  10.209  10.818  11.246 -1.2824 -0.2970 -0.2204
  361MOL0     C47522  10.153  10.902  11.326 -0.4965 -0.2177  0.8252
  361MOL0     O47523  10.216  10.977  11.420 -0.0969  0.0397 -0.3772
  361MOL0     C47524  10.345  10.958  11.459 -0.4503  0.6806 -0.7228
  361MOL0     C47525  10.372  10.969  11.592  0.6015 -0.4688 -0.5211
  361MOL0     C47526  10.501  10.963  11.642 -0.5041 -0.8510  0.9347
  361MOL0     C47527  10.606  10.927  11.565  0.2743  0.2293 -0.7803
  361MOL0     O47528  10.727  10.885  11.604 -0.0763 -0.2897  0.6775
  361MOL0     C47529  10.727  10.791  11.716  0.6754 -0.2129  1.3207
  361MOL0     C47530  10.856  10.719  11.717  0.4771 -0.1679 -0.2357
  361MOL0     C47531  10.880  10.643  11.584 -0.1728 -0.6971 -0.3066
  361MOL0     C47532  10.999  10.551  11.591 -0.5640  0.3145  0.0226
  361MOL0     C47533  11.031  10.478  11.461 -0.6500 -0.2738 -0.7418
  361MOL0     C47534  10.918  10.394  11.401  0.2292 -0.2609 -0.6370
  361MOL0     C47535  10.855  10.465  11.280 -0.1178 -0.2756  0.8505
  361MOL0     C47536  10.723  10.399  11.224  0.8242 -0.2543 -0.3060
  361MOL0     N47537  10.612  10.403  11.325 -0.4528 -0.0168  0.0302
  361MOL0     C47538  10.562  10.515  11.375 -0.1346 -0.6305  0.5388
  361MOL0     C47539  10.502  10.482  11.493 -0.1963  0.1535  0.5387
  361MOL0     C47540  10.430  10.564  11.599 -0.2261  0.1552  0.7047
  361MOL0     C47541  10.271  10.573  11.583 -0.0829  0.4915  0.0550
  361MOL0     C47542  10.200  10.433  11.592 -0.0896 -0.1361 -0.2073
  361MOL0     C47543  10.048  10.439  11.596  0.8587 -1.4093  0.1654
  361MOL0     O47544   9.989  10.510  11.481  0.1535  0.1952  0.3324
  361MOL0     C47545   9.858  10.498  11.458  0.3353 -0.0681  0.6636
  361MOL0     C47546   9.804  10.548  11.340  0.8784  0.0907  0.6957
  361MOL0     C47547   9.670  10.527  11.298  0.8152  0.4938  0.0617
  361MOL0     C47548   9.582  10.464  11.381 -0.9940 -1.0656  0.3594
  361MOL0     C47549   9.442  10.457  11.355 -0.2397 -0.2766 -0.7946
  361MOL0     O47550   9.402  10.533  11.248 -0.4133 -0.6441 -0.2695
  361MOL0     C47551   9.272  10.562  11.217 -1.1921 -0.0483  0.5424
  361MOL0     C47552   9.157  10.515  11.279  0.2227  0.6635  0.4586
  361MOL0     C47553   9.031  10.554  11.233 -0.3002  0.2186 -0.9561
  361MOL0     C47554   9.009  10.637  11.128  0.3978  0.1688  1.3045
  361MOL0     O47555   8.878  10.667  11.090 -0.3698  0.0436 -0.2106
  361MOL0     C47556   8.844  10.750  10.981 -0.3631 -0.2482 -0.7517
  361MOL0     C47557   8.835  10.646  10.869 -0.9044  1.0697  0.2144
  361MOL0     C47558   8.708  10.558  10.892 -0.2445 -0.3862 -0.1245
  361MOL0     C47559   8.676  10.467  10.770  0.0160  0.0110 -0.0707
  361MOL0     C47560   8.562  10.378  10.811  0.0073 -0.6986 -0.0775
  361MOL0     C47561   8.434  10.453  10.828 -0.2123 -0.4223  0.6405
  361MOL0     C47562   8.314  10.376  10.817  0.9698 -0.8633  0.1866
  361MOL0     C47563   8.248  10.370  10.684 -1.3411 -0.0023 -0.7138
  361MOL0    Cl47564   8.170  10.212  10.669  0.1702  0.0995  0.4385
  361MOL0     C47565   9.123  10.685  11.061  0.0650  0.1640  1.0791
  361MOL0     C47566   9.253  10.644  11.103 -1.1387  0.2365 -0.6209
  361MOL0     O47567   9.371  10.395  11.436  0.3718  0.4692 -0.2293
  361MOL0     C47568   9.633  10.409  11.495  0.5707 -1.5415  0.2696
  361MOL0     C47569   9.765  10.428  11.537 -0.6426  0.4682  0.3814
  361MOL0     N47570  10.516  10.342  11.503  0.0002 -0.2881  0.6969
  361MOL0     N47571  10.583  10.298  11.401 -0.3973 -0.2616  0.0017
  361MOL0     C47572  10.574  10.912  11.432  0.3540 -0.4182 -0.5516
  361MOL0     C47573  10.451  10.925  11.373 -0.6952 -0.1058 -0.0149
  361MOL0     C47574  10.009  10.907  11.319  0.3911 -0.1815  0.0279
  361MOL0     C47575   9.938  10.863  11.211  0.5315  0.8880 -0.4918
  361MOL0     C47576   9.805  10.882  11.183 -0.2908 -0.3035 -0.2964
  361MOL0     C47577   9.717  10.936  11.281  0.1434  0.4604 -0.5747
  361MOL0     O47578   9.584  10.959  11.252  0.3576 -0.3733 -0.3880
  361MOL0     C47579   9.535  10.943  11.113 -0.9984  0.0808 -0.1332
  361MOL0     C47580   9.384  10.974  11.089  0.5075 -1.2780 -0.4647
  361MOL0     C47581   9.360  11.118  11.132 -0.0679 -0.0671 -0.2828
  361MOL0     C47582   9.221  11.181  11.104  0.8342 -0.6617 -0.1903
  361MOL0     C47583   9.113  11.124  11.182  0.2085  1.2491 -0.2454
  361MOL0     C47584   9.035  11.078  11.257 -0.2595 -0.2172 -0.4837
  361MOL0     C47585   9.782  10.991  11.399  0.1656  0.0119 -0.4807
  361MOL0     C47586   9.922  10.974  11.413  0.6409 -0.3648  0.5414
  361MOL0     H47587  10.282  10.996  11.646  1.1496  1.0529 -0.3221
  361MOL0     H47588  10.519  10.987  11.747 -0.4704  1.8768  0.3601
  361MOL0     H47589  10.636  10.730  11.712  0.9900 -0.6212 -0.7345
  361MOL0     H47590  10.727  10.846  11.810 -0.7973  1.3577  0.4659
  361MOL0     H47591  10.851  10.648  11.800  1.2748  1.6743  1.4951
  361MOL0     H47592  10.930  10.797  11.736 -0.3207  0.6926 -0.5510
  361MOL0     H47593  10.886  10.714  11.500  0.0708  1.5986  1.5599
  361MOL0     H47594  10.792  10.583  11.557  0.4656 -1.2131 -1.3359
  361MOL0     H47595  11.080  10.617  11.624 -1.3680  0.1220  2.6262
  361MOL0     H47596  10.994  10.476  11.671  0.3885  2.0582  1.8105
  361MOL0     H47597  11.119  10.416  11.484  0.5393  1.4392 -0.4439
  361MOL0     H47598  11.082  10.540  11.386 -0.0058 -1.2372 -1.1155
  361MOL0     H47599  10.840  10.375  11.475  2.5219  1.1895  2.3697
  361MOL0     H47600  10.956  10.295  11.375  2.5308  0.0220  1.3008
  361MOL0     H47601  10.837  10.567  11.312  1.2454 -0.4882  2.4325
  361MOL0     H47602  10.931  10.469  11.200  1.0136 -2.4645  1.7213
  361MOL0     H47603  10.742  10.295  11.195  1.4894 -0.9664  2.3395
  361MOL0     H47604  10.695  10.456  11.135 -2.6720 -2.8657 -1.1111
  361MOL0     H47605  10.563  10.616  11.337 -2.2786 -0.3554  1.0759
  361MOL0     H47606  10.475  10.662  11.616  1.6499 -0.6577  0.7332
  361MOL0     H47607  10.451  10.507  11.690  2.6814  0.7808  0.5379
  361MOL0     H47608  10.248  10.625  11.489  0.4218  2.5512  0.9994
  361MOL0     H47609  10.234  10.634  11.666 -0.1812 -1.3277  1.3970
  361MOL0     H47610  10.232  10.371  11.507  1.0701  1.8676 -1.3163
  361MOL0     H47611  10.237  10.385  11.683 -0.5109  1.3701  0.8061
  361MOL0     H47612  10.017  10.482  11.692 -1.6278 -0.7726 -0.8306
  361MOL0     H47613  10.008  10.337  11.598 -2.1037 -0.3368  0.3794
  361MOL0     H47614   9.879  10.591  11.275  0.3406  1.5151  0.9619
  361MOL0     H47615   9.627  10.569  11.207 -2.3788  0.2111  1.3407
  361MOL0     H47616   9.158  10.443  11.360 -1.3748  0.6390  0.4959
  361MOL0     H47617   8.936  10.532  11.281 -0.1561 -0.7336 -1.0869
  361MOL0     H47618   8.916  10.832  10.970  0.4316 -0.8053  0.0926
  361MOL0     H47619   8.753  10.809  10.993  0.0762  0.4045 -0.5952
  361MOL0     H47620   8.926  10.585  10.867  0.3006  2.6780  1.8065
  361MOL0     H47621   8.832  10.695  10.772  2.1277  0.4769 -0.2874
  361MOL0     H47622   8.622  10.625  10.906  0.1059 -0.2876  1.7561
  361MOL0     H47623   8.719  10.496  10.981  1.9544 -1.7506 -1.2716
  361MOL0     H47624   8.643  10.533  10.688  0.2865 -2.1880 -2.0511
  361MOL0     H47625   8.763  10.411  10.737  1.7972  2.2825  0.5008
  361MOL0     H47626   8.579  10.332  10.909  0.0844  0.7068  0.6078
  361MOL0     H47627   8.553  10.297  10.739  2.9459  0.4729 -1.9710
  361MOL0     H47628   8.422  10.537  10.759 -1.0002 -0.1652  1.0848
  361MOL0     H47629   8.439  10.495  10.929  1.8949 -0.1955  0.4845
  361MOL0     H47630   8.328  10.274  10.855  0.8855 -0.7440  0.5400
  361MOL0     H47631   8.241  10.412  10.890  0.7934  1.4228 -1.0580
  361MOL0     H47632   8.318  10.379  10.601 -2.0325  2.3154 -1.1103
  361MOL0     H47633   8.175  10.449  10.668 -0.2437  0.8557 -1.6403
  361MOL0     H47634   9.105  10.751  10.976 -0.6823  1.3448  2.1091
  361MOL0     H47635   9.338  10.688  11.051 -0.4930  1.7109  1.5458
  361MOL0     H47636   9.565  10.368  11.568 -0.3425  1.6293  1.3239
  361MOL0     H47637   9.806  10.378  11.625 -0.6292 -0.5249 -0.1761
  361MOL0     H47638  10.656  10.892  11.364  0.4509 -3.5318  0.3046
  361MOL0     H47639  10.443  10.909  11.266 -1.0910  0.1282 -0.0207
  361MOL0     H47640   9.989  10.813  11.130  0.6257  0.3280 -0.0966
  361MOL0     H47641   9.771  10.852  11.085  2.0433  0.1462 -1.3221
  361MOL0     H47642   9.549  10.838  11.088 -0.1140  0.1410  0.0840
  361MOL0     H47643   9.587  11.015  11.049  0.4000 -0.0152  0.8395
  361MOL0     H47644   9.361  10.960  10.983  0.7390  1.0125 -0.8709
  361MOL0     H47645   9.336  10.900  11.153 -1.3623 -0.4458 -0.8419
  361MOL0     H47646   9.435  11.181  11.082 -1.7572  0.7528 -1.9207
  361MOL0     H47647   9.382  11.127  11.238  0.8677  2.4357 -0.5995
  361MOL0     H47648   9.218  11.288  11.126 -1.0709 -0.0126 -3.1150
  361MOL0     H47649   9.185  11.178  11.001 -2.0739  1.2690  0.6584
  361MOL0     H47650   8.969  11.043  11.334  1.5252  0.8431  1.6294
  361MOL0     H47651   9.718  11.046  11.468 -6.4972 -1.5933 -4.4340
  361MOL0     H47652   9.968  11.014  11.503 -0.4526  1.5710  0.3041
  362MOL0     O47653   1.199   5.124   6.145  0.2594 -0.0453 -0.9972
  362MOL0     C47654   1.246   5.074   6.251 -0.5017 -0.1181 -0.0810
  362MOL0     O47655   1.188   4.972   6.327 -0.2608 -0.0050  0.4916
  362MOL0     C47656   1.053   4.954   6.302 -0.4377 -0.5421  1.1444
  362MOL0     C47657   0.951   4.983   6.393  0.6126 -0.7261  0.3383
  362MOL0     C47658   0.820   4.954   6.354 -0.3067 -0.0635  0.7971
  362MOL0     C47659   0.786   4.902   6.230 -0.0251 -0.2523 -0.1166
  362MOL0     O47660   0.665   4.867   6.178  0.4766  0.6633  0.0500
  362MOL0     C47661   0.544   4.888   6.259  0.3038  0.4547 -0.6580
  362MOL0     C47662   0.427   4.822   6.186  0.0008 -0.0231  0.0639
  362MOL0     C47663   0.288   4.858   6.252  0.4238  0.2074 -0.9767
  362MOL0     C47664   0.240   5.005   6.230  0.3724 -0.8469 -0.3914
  362MOL0     C47665   0.113   5.036   6.317 -0.2224 -0.1234 -0.4507
  362MOL0     C47666   0.062   5.178   6.273  0.1827 -0.4320 -0.5831
  362MOL0     C47667   0.001   5.199   6.132  0.8566 -0.6033 -0.2377
  362MOL0     C47668  -0.047   5.349   6.132 -0.3052 -0.6601  0.4886
  362MOL0     N47669  -0.168   5.368   6.208  0.2688 -0.2617  0.0080
  362MOL0     C47670  -0.287   5.341   6.150 -0.4232 -0.4206 -0.5847
  362MOL0     C47671  -0.379   5.391   6.225  1.4077 -0.6885 -0.7743
  362MOL0     C47672  -0.528   5.398   6.190  0.7521  0.8209 -0.5961
  362MOL0     C47673  -0.585   5.538   6.176  0.1409 -0.2015 -0.0357
  362MOL0     C47674  -0.724   5.527   6.115 -1.2404  0.5477 -0.1930
  362MOL0     C47675  -0.788   5.660   6.107  0.2690  0.1063  0.1828
  362MOL0     O47676  -0.920   5.645   6.061  0.4323  0.2406 -0.1336
  362MOL0     C47677  -1.006   5.746   6.079 -0.1981 -0.4293 -0.1044
  362MOL0     C47678  -1.144   5.723   6.062  0.3083 -0.4650  0.5544
  362MOL0     C47679  -1.241   5.820   6.086  0.3210 -1.0531  0.2820
  362MOL0     C47680  -1.198   5.951   6.117  0.7423 -0.3707  0.2528
  362MOL0     C47681  -1.297   6.061   6.146  0.9512 -0.5728  0.0473
  362MOL0     O47682  -1.270   6.193   6.122 -0.2624  0.3484  0.2117
  362MOL0     C47683  -1.358   6.291   6.142 -0.1690  0.1831 -0.9053
  362MOL0     C47684  -1.307   6.398   6.219 -0.4709 -0.2274  0.4818
  362MOL0     C47685  -1.380   6.509   6.237 -0.0965 -0.0896 -0.6403
  362MOL0     C47686  -1.510   6.520   6.191  0.4039 -0.4532 -0.7291
  362MOL0     O47687  -1.588   6.632   6.227  0.1214  0.0390 -0.1436
  362MOL0     C47688  -1.690   6.674   6.137  0.8682  0.5119  0.5770
  362MOL0     C47689  -1.683   6.830   6.137  0.0121 -0.2778  0.7557
  362MOL0     C47690  -1.786   6.900   6.043 -0.5372 -0.6458  0.0564
  362MOL0     C47691  -1.926   6.841   6.063 -0.2500 -0.6220  0.7403
  362MOL0     C47692  -2.026   6.903   5.959 -0.3270  0.3749  1.0658
  362MOL0     C47693  -2.169   6.847   5.978  0.0246  0.6911  1.2039
  362MOL0     C47694  -2.261   6.867   5.858 -1.0248  0.2501 -0.7554
  362MOL0     C47695  -2.401   6.824   5.900 -0.8076 -0.1628 -0.1775
  362MOL0    Cl47696  -2.472   6.933   6.019 -0.2601  0.3227  0.2504
  362MOL0     C47697  -1.563   6.403   6.126 -0.0349 -0.6941 -0.1976
  362MOL0     C47698  -1.489   6.288   6.098  0.9066 -0.1285  0.5092
  362MOL0     O47699  -1.403   6.023   6.203 -0.5977  0.7712  0.0662
  362MOL0     C47700  -1.063   5.981   6.131 -0.2748  0.2221  0.8027
  362MOL0     C47701  -0.965   5.879   6.107  0.2101 -0.8236 -0.5594
  362MOL0     N47702  -0.316   5.442   6.336  0.1991  0.1645  0.2504
  362MOL0     N47703  -0.190   5.426   6.332  0.7603 -0.9682 -0.2405
  362MOL0     C47704   0.898   4.873   6.144  0.3030 -0.0019  0.4071
  362MOL0     C47705   1.024   4.901   6.181  0.4649 -0.2450 -0.2564
  362MOL0     C47706   1.384   5.118   6.296 -0.1628  0.0769  0.2967
  362MOL0     C47707   1.481   5.175   6.211  0.3716  0.0075 -0.1038
  362MOL0     C47708   1.609   5.212   6.259 -0.0797 -0.1499  0.9483
  362MOL0     C47709   1.634   5.205   6.394 -0.4463  0.0508  0.6951
  362MOL0     O47710   1.757   5.229   6.458  0.2537  0.1309 -0.7801
  362MOL0     C47711   1.869   5.212   6.374 -1.3957  0.1886 -0.0568
  362MOL0     C47712   1.917   5.340   6.322  0.7987  0.3517 -0.3491
  362MOL0     C47713   1.936   5.447   6.437  0.1444  0.4525  0.0596
  362MOL0     C47714   2.037   5.413   6.547  0.5386 -0.3144  0.2617
  362MOL0     C47715   2.176   5.366   6.510 -0.4369  0.2159 -0.2322
  362MOL0     C47716   2.281   5.328   6.453  0.4000 -0.7527 -0.1333
  362MOL0     C47717   1.541   5.146   6.485  1.2518 -0.2634 -0.7555
  362MOL0     C47718   1.418   5.106   6.433 -0.1828  0.0130 -0.0060
  362MOL0     H47719   0.981   5.038   6.482 -0.5801  0.6390 -0.0600
  362MOL0     H47720   0.742   4.969   6.429 -0.6905  0.1082  0.3682
  362MOL0     H47721   0.535   4.996   6.272 -0.5752  0.3231 -0.0362
  362MOL0     H47722   0.552   4.848   6.361 -1.2151  1.6198 -0.0251
  362MOL0     H47723   0.439   4.713   6.183  0.6529 -0.1080  3.0159
  362MOL0     H47724   0.426   4.847   6.079 -3.0049 -1.6966 -0.4393
  362MOL0     H47725   0.303   4.851   6.360 -1.1013 -1.6589 -0.8275
  362MOL0     H47726   0.206   4.789   6.228 -1.7147  1.7560  1.3317
  362MOL0     H47727   0.316   5.080   6.254  1.9662 -3.4162  3.5708
  362MOL0     H47728   0.209   5.023   6.126 -0.0971  0.9371  0.0118
  362MOL0     H47729   0.136   5.039   6.424  1.2825 -1.3341 -0.7016
  362MOL0     H47730   0.041   4.954   6.312  0.6859 -0.9254 -0.6606
  362MOL0     H47731   0.141   5.253   6.289  1.1012 -1.1991 -1.3930
  362MOL0     H47732  -0.017   5.204   6.344  2.2172  0.8961  1.3335
  362MOL0     H47733   0.071   5.178   6.051  0.4271  1.1691 -1.1177
  362MOL0     H47734  -0.078   5.128   6.106  1.7160 -1.4065 -0.7130
  362MOL0     H47735  -0.056   5.385   6.029  1.1633 -2.5219 -0.3467
  362MOL0     H47736   0.029   5.415   6.175 -0.5202  0.0571 -0.1965
  362MOL0     H47737  -0.302   5.313   6.047 -3.2447  1.4611 -0.8219
  362MOL0     H47738  -0.575   5.342   6.272  2.7180  0.2222  0.1909
  362MOL0     H47739  -0.552   5.342   6.099 -1.4273  0.7694 -0.0245
  362MOL0     H47740  -0.535   5.613   6.113 -0.6599  1.7714  1.5538
  362MOL0     H47741  -0.581   5.579   6.277 -1.2218 -0.8889  0.3187
  362MOL0     H47742  -0.719   5.486   6.014 -0.7535  0.6356 -0.2081
  362MOL0     H47743  -0.790   5.460   6.170 -3.0783  1.5026 -1.1095
  362MOL0     H47744  -0.730   5.730   6.047 -0.6408 -0.4399 -1.3761
  362MOL0     H47745  -0.801   5.704   6.207 -0.0992 -0.3211  0.3248
  362MOL0     H47746  -1.174   5.625   6.025 -2.0990 -0.4275  2.1986
  362MOL0     H47747  -1.343   5.794   6.058  0.8952 -0.8764 -2.2672
  362MOL0     H47748  -1.207   6.407   6.259  0.6468  1.5566 -2.3948
  362MOL0     H47749  -1.337   6.595   6.287  1.2247 -0.5886 -0.8924
  362MOL0     H47750  -1.788   6.635   6.165  2.2978 -2.3122  1.9843
  362MOL0     H47751  -1.677   6.643   6.033  1.5512  1.0175  0.5020
  362MOL0     H47752  -1.582   6.861   6.109 -1.1888  3.3531 -0.1105
  362MOL0     H47753  -1.693   6.871   6.238  1.2254  2.8113 -0.2684
  362MOL0     H47754  -1.756   6.891   5.938  0.6196  1.9974  0.0752
  362MOL0     H47755  -1.795   7.006   6.071 -0.9568 -0.6722  0.0130
  362MOL0     H47756  -1.924   6.735   6.036 -1.2133 -0.1701 -1.2671
  362MOL0     H47757  -1.965   6.856   6.164 -2.4708  1.2051 -0.3048
  362MOL0     H47758  -1.985   6.869   5.863 -1.4780  0.6826  0.4436
  362MOL0     H47759  -2.034   7.012   5.968  0.6021  0.7350 -1.5790
  362MOL0     H47760  -2.199   6.882   6.077  0.4768  0.4380  1.4294
  362MOL0     H47761  -2.171   6.741   6.003  0.9112  0.8559  2.0245
  362MOL0     H47762  -2.270   6.975   5.842 -3.6075  0.2693  0.4652
  362MOL0     H47763  -2.236   6.809   5.768  0.2985 -0.0158 -0.2374
  362MOL0     H47764  -2.395   6.724   5.945  0.9732 -0.0374 -0.0655
  362MOL0     H47765  -2.473   6.811   5.818 -1.1721  1.7263 -0.2012
  362MOL0     H47766  -1.666   6.384   6.100  0.2317 -1.0132 -1.0821
  362MOL0     H47767  -1.517   6.202   6.038 -0.2509  1.2578 -1.0242
  362MOL0     H47768  -1.037   6.083   6.160  2.7002 -1.0034  3.0046
  362MOL0     H47769  -0.859   5.901   6.115  0.4424 -2.3167  0.7754
  362MOL0     H47770   0.887   4.834   6.043 -0.4962  1.2160 -0.0017
  362MOL0     H47771   1.106   4.870   6.117  2.7468  2.3218  1.2157
  362MOL0     H47772   1.455   5.175   6.106 -3.2414 -2.1693  0.6040
  362MOL0     H47773   1.676   5.239   6.178 -1.4417  1.4297  0.2892
  362MOL0     H47774   1.852   5.131   6.302 -1.7392 -0.1602  0.4109
  362MOL0     H47775   1.954   5.179   6.435 -1.3719  1.1340  0.4433
  362MOL0     H47776   2.008   5.327   6.261  0.7438 -2.5262  0.0519
  362MOL0     H47777   1.832   5.366   6.259 -1.1001 -2.1252  0.9982
  362MOL0     H47778   1.846   5.469   6.495  1.2501  0.7502  1.7269
  362MOL0     H47779   1.963   5.541   6.387  1.7807 -1.2614 -2.5787
  362MOL0     H47780   2.056   5.507   6.600  0.3650 -1.1870  1.9264
  362MOL0     H47781   1.996   5.346   6.623  2.1258 -2.0511 -0.3279
  362MOL0     H47782   2.373   5.303   6.403 -0.0938 -0.3290 -1.2773
  362MOL0     H47783   1.543   5.128   6.592 -1.0600  2.7557 -0.1044
  362MOL0     H47784   1.354   5.045   6.496  0.8603 -0.8244  0.2558
  363MOL0     O47785   3.250   7.223   0.268 -0.2000 -0.5879 -0.1322
  363MOL0     C47786   3.361   7.229   0.317 -1.0613 -0.9805 -0.1892
  363MOL0     O47787   3.389   7.298   0.429  0.0210  0.0033  0.2529
  363MOL0     C47788   3.297   7.366   0.510 -0.4599  0.2369 -0.2953
  363MOL0     C47789   3.328   7.390   0.647 -1.3384  0.0361  0.4456
  363MOL0     C47790   3.242   7.471   0.720  0.0695 -0.1983  0.4564
  363MOL0     C47791   3.123   7.525   0.660  0.0406 -0.3763 -0.6387
  363MOL0     O47792   3.057   7.597   0.745  0.3815 -0.5192  0.2429
  363MOL0     C47793   2.947   7.679   0.700 -0.6498 -0.1199  0.3654
  363MOL0     C47794   2.818   7.584   0.730 -0.4331 -0.9165 -0.2384
  363MOL0     C47795   2.682   7.657   0.744 -0.1820 -0.2659 -0.6491
  363MOL0     C47796   2.635   7.719   0.624  0.6445 -0.8894  0.0879
  363MOL0     C47797   2.487   7.761   0.641  0.1275  0.7110 -0.7563
  363MOL0     C47798   2.443   7.869   0.544  0.4530  0.2115 -0.2882
  363MOL0     C47799   2.295   7.889   0.552 -0.3249 -0.3635  0.0554
  363MOL0     C47800   2.254   8.028   0.494  0.1020  0.3430 -0.1783
  363MOL0     N47801   2.119   8.068   0.553  0.0804  0.6334  0.2553
  363MOL0     C47802   2.091   8.139   0.672 -0.1387 -0.5382 -0.0782
  363MOL0     C47803   1.961   8.176   0.655  0.1231 -0.7229  0.1399
  363MOL0     C47804   1.884   8.267   0.746  1.2618 -0.0983  0.4383
  363MOL0     C47805   1.736   8.229   0.739 -0.1974  0.3686  0.5606
  363MOL0     C47806   1.638   8.320   0.812  0.4763 -0.3915  0.0637
  363MOL0     C47807   1.490   8.294   0.784 -0.0733 -0.7953  0.4266
  363MOL0     O47808   1.405   8.403   0.833 -0.6117  0.6286 -0.0242
  363MOL0     C47809   1.270   8.388   0.824 -0.1434  0.6602  0.5077
  363MOL0     C47810   1.202   8.481   0.898  0.8177 -0.4827  0.4234
  363MOL0     C47811   1.055   8.481   0.901 -0.1358  0.5442 -0.5934
  363MOL0     C47812   0.985   8.367   0.840 -0.1575  0.0874  0.1129
  363MOL0     C47813   0.840   8.369   0.853 -0.2140  0.1176 -0.4601
  363MOL0     O47814   0.770   8.274   0.797  0.6246  0.1403 -0.9061
  363MOL0     C47815   0.630   8.277   0.815  0.4234  0.4603 -0.0755
  363MOL0     C47816   0.569   8.193   0.914  0.6340 -0.5973 -0.3661
  363MOL0     C47817   0.435   8.193   0.943 -0.5372  0.0940  0.3531
  363MOL0     C47818   0.356   8.273   0.866 -0.2461  0.2619  0.4374
  363MOL0     O47819   0.223   8.284   0.891  0.1288  0.6152  0.2899
  363MOL0     C47820   0.137   8.313   0.782  0.2623  0.2322 -0.0668
  363MOL0     C47821  -0.009   8.324   0.831  0.1410 -0.0081  0.8102
  363MOL0     C47822  -0.038   8.405   0.961 -0.6673  0.1108  0.3744
  363MOL0     C47823  -0.176   8.376   1.019  0.0499 -1.0134  0.5354
  363MOL0     C47824  -0.231   8.481   1.108 -0.4339  0.1081  1.3260
  363MOL0     C47825  -0.148   8.504   1.238  0.0122 -0.3586 -0.2032
  363MOL0     C47826  -0.207   8.609   1.330  0.3710 -0.5345 -0.2424
  363MOL0     C47827  -0.182   8.744   1.272 -0.0026 -0.4997  0.3735
  363MOL0    Cl47828  -0.253   8.874   1.381  0.4057 -0.0393 -0.4328
  363MOL0     C47829   0.413   8.358   0.762  0.2743  0.0632  0.3744
  363MOL0     C47830   0.551   8.350   0.734  0.1279 -0.1676  0.7458
  363MOL0     O47831   0.786   8.458   0.920  0.1765  0.3520  0.3810
  363MOL0     C47832   1.062   8.280   0.769 -0.5955 -0.5858  1.0774
  363MOL0     C47833   1.202   8.289   0.762  0.2642  0.3690 -0.2763
  363MOL0     N47834   1.910   8.119   0.543  0.5313  0.4560  0.0003
  363MOL0     N47835   2.005   8.058   0.477 -0.2552  0.3266  0.2527
  363MOL0     C47836   3.092   7.490   0.529 -0.1235  1.1279 -1.2379
  363MOL0     C47837   3.174   7.410   0.455  0.1536  0.7968 -0.2211
  363MOL0     C47838   3.471   7.137   0.255  0.3158 -0.8321  0.1911
  363MOL0     C47839   3.440   7.061   0.140 -1.0260  0.5062  0.2109
  363MOL0     C47840   3.542   6.971   0.093 -0.5999  0.0613  0.3997
  363MOL0     C47841   3.673   6.980   0.149 -0.8365 -0.4486  0.3550
  363MOL0     O47842   3.787   6.924   0.099 -0.4193  0.0978  0.1630
  363MOL0     C47843   3.780   6.833  -0.009 -0.2020 -0.2821  0.3428
  363MOL0     C47844   3.919   6.797  -0.043  0.1461 -0.1602  0.0021
  363MOL0     C47845   3.988   6.913  -0.119  0.1215  1.0305 -0.8764
  363MOL0     C47846   4.096   6.863  -0.208 -0.7931  0.0028 -0.6144
  363MOL0     C47847   4.199   6.804  -0.123  0.2838  0.0348 -0.4784
  363MOL0     C47848   4.291   6.771  -0.054 -0.0532 -0.0525  0.2655
  363MOL0     C47849   3.701   7.055   0.268  0.6685 -0.0116  0.7658
  363MOL0     C47850   3.597   7.122   0.321 -0.1460 -0.3872 -0.3825
  363MOL0     H47851   3.409   7.352   0.709 -0.4844  2.9395  1.2791
  363MOL0     H47852   3.263   7.499   0.822  1.3737 -3.2489  1.1376
  363MOL0     H47853   2.947   7.710   0.595  0.0644  0.2613  0.4743
  363MOL0     H47854   2.944   7.774   0.756  0.9393  0.3859 -0.3557
  363MOL0     H47855   2.839   7.537   0.827 -0.1824  1.3373  0.8752
  363MOL0     H47856   2.809   7.509   0.651  2.3738  0.3131 -1.8449
  363MOL0     H47857   2.672   7.730   0.826  1.1758  1.1420 -1.6894
  363MOL0     H47858   2.613   7.581   0.782  0.6765 -0.0565  1.4669
  363MOL0     H47859   2.697   7.805   0.597  1.4349 -0.3036  3.4345
  363MOL0     H47860   2.652   7.648   0.542  2.3640  1.0286 -1.3205
  363MOL0     H47861   2.480   7.800   0.743  0.9254 -0.3455 -0.2813
  363MOL0     H47862   2.421   7.674   0.639 -2.8136  2.5526  2.8169
  363MOL0     H47863   2.480   7.851   0.443 -0.1099 -0.1887 -0.4270
  363MOL0     H47864   2.485   7.964   0.579  0.3295 -0.2509  1.1774
  363MOL0     H47865   2.239   7.805   0.510  0.5143 -1.5072  1.1531
  363MOL0     H47866   2.265   7.883   0.657 -2.4712  0.3561 -0.4461
  363MOL0     H47867   2.255   8.016   0.385 -0.8582 -0.0572 -0.1504
  363MOL0     H47868   2.322   8.109   0.520 -1.6298  0.3995  5.5680
  363MOL0     H47869   2.159   8.160   0.754  0.6652  0.7368 -1.0166
  363MOL0     H47870   1.897   8.368   0.706 -1.9957 -0.3626 -1.5768
  363MOL0     H47871   1.926   8.252   0.846  0.6038  1.6369  0.9999
  363MOL0     H47872   1.728   8.130   0.784  1.8274 -0.1572 -0.1231
  363MOL0     H47873   1.707   8.230   0.633  1.6417 -1.1913 -0.0087
  363MOL0     H47874   1.646   8.313   0.921 -1.3256  0.8430  0.3100
  363MOL0     H47875   1.659   8.425   0.790  2.4496 -0.9627 -1.0260
  363MOL0     H47876   1.470   8.198   0.833 -0.0091 -1.8944 -1.6218
  363MOL0     H47877   1.473   8.283   0.677 -2.2478  0.3576  0.5976
  363MOL0     H47878   1.263   8.542   0.964  0.2950  0.7991 -0.2613
  363MOL0     H47879   1.002   8.549   0.967  0.8147 -0.6855  1.5072
  363MOL0     H47880   0.641   8.127   0.959  1.9577 -0.4469 -2.1490
  363MOL0     H47881   0.400   8.129   1.024  2.7497 -1.8941  0.3953
  363MOL0     H47882   0.144   8.250   0.694 -2.7694  1.2543 -1.1932
  363MOL0     H47883   0.160   8.411   0.739 -0.8152  0.7198  0.4240
  363MOL0     H47884  -0.054   8.225   0.849 -1.7524  0.4408 -1.0432
  363MOL0     H47885  -0.066   8.373   0.752 -0.2251 -2.3553 -0.4962
  363MOL0     H47886  -0.037   8.512   0.939  1.6262  0.1742  0.6041
  363MOL0     H47887   0.032   8.381   1.041 -1.6914 -2.2889  0.6441
  363MOL0     H47888  -0.254   8.357   0.944  0.8099 -0.7249 -0.3569
  363MOL0     H47889  -0.160   8.283   1.075  4.5912 -1.0721 -0.4193
  363MOL0     H47890  -0.332   8.447   1.133 -0.8075 -0.4625 -0.7451
  363MOL0     H47891  -0.246   8.578   1.061 -0.8131 -0.7369 -0.3814
  363MOL0     H47892  -0.044   8.535   1.224 -0.0230  0.0031  0.2866
  363MOL0     H47893  -0.141   8.408   1.290  0.8979  0.2530  0.8477
  363MOL0     H47894  -0.315   8.608   1.348 -0.0940 -2.7669 -2.6189
  363MOL0     H47895  -0.154   8.611   1.426 -1.7703  1.8537  1.0271
  363MOL0     H47896  -0.224   8.743   1.170 -0.4981 -0.1130  0.5655
  363MOL0     H47897  -0.074   8.761   1.268 -0.0092 -0.5404 -2.3862
  363MOL0     H47898   0.348   8.432   0.714 -0.4376 -0.6904  0.1505
  363MOL0     H47899   0.594   8.406   0.652 -0.8065 -2.2249 -1.2506
  363MOL0     H47900   1.017   8.198   0.714 -2.3734  0.6932  0.5170
  363MOL0     H47901   1.247   8.213   0.699  2.2370  1.4002 -0.1697
  363MOL0     H47902   3.007   7.535   0.478 -1.6226  1.9288  1.7026
  363MOL0     H47903   3.146   7.402   0.350  3.0081  0.1859 -1.0470
  363MOL0     H47904   3.345   7.070   0.088 -3.1139  2.8137  3.9846
  363MOL0     H47905   3.518   6.912   0.006 -1.3979  0.8420  0.0677
  363MOL0     H47906   3.719   6.874  -0.090 -1.7712  1.0028  2.0896
  363MOL0     H47907   3.734   6.741   0.030  0.1197  0.2321  2.0260
  363MOL0     H47908   3.966   6.771   0.052  2.3861  2.9036 -0.1204
  363MOL0     H47909   3.916   6.722  -0.123  0.5740  2.6157 -2.8465
  363MOL0     H47910   4.028   6.987  -0.049  1.8474  0.0966 -0.8355
  363MOL0     H47911   3.915   6.968  -0.179 -0.6310  0.5893 -0.3741
  363MOL0     H47912   4.058   6.788  -0.278 -0.0423  1.0374 -2.1901
  363MOL0     H47913   4.138   6.944  -0.268 -1.2728  1.5824  1.1026
  363MOL0     H47914   4.360   6.744   0.024  1.2743 -1.0258 -1.1763
  363MOL0     H47915   3.796   7.042   0.319  0.3399 -1.7038  1.0060
  363MOL0     H47916   3.632   7.166   0.414 -0.8026 -0.3837 -0.1247
  364MOL0     O47917   3.575   0.380   9.435 -0.2477  0.3901 -0.1980
  364MOL0     C47918   3.666   0.457   9.410  0.0663 -0.0752  1.1161
  364MOL0     O47919   3.655   0.556   9.319 -0.0562 -0.2401 -0.8557
  364MOL0     C47920   3.526   0.580   9.273  0.0802  0.5567  0.8657
  364MOL0     C47921   3.430   0.655   9.342 -0.1706 -0.7353  0.5029
  364MOL0     C47922   3.307   0.675   9.283  0.0216 -0.4802 -0.3170
  364MOL0     C47923   3.292   0.632   9.153  0.4348  0.9399 -0.2066
  364MOL0     O47924   3.177   0.646   9.072  0.1223  0.3313 -0.2498
  364MOL0     C47925   3.059   0.630   9.150 -0.5511  0.0187  0.6497
  364MOL0     C47926   2.944   0.585   9.055 -0.0931  0.2513  0.0095
  364MOL0     C47927   2.813   0.600   9.132  0.3660  0.2618  0.7537
  364MOL0     C47928   2.685   0.593   9.050 -0.8203  1.4630 -0.1872
  364MOL0     C47929   2.568   0.656   9.118 -0.5521 -0.5819 -0.0861
  364MOL0     C47930   2.427   0.660   9.041  0.3930  0.2517  0.0339
  364MOL0     C47931   2.329   0.755   9.104  0.8850  0.7409  0.3965
  364MOL0     C47932   2.261   0.687   9.224  0.1540  0.2457  0.1088
  364MOL0     N47933   2.156   0.775   9.269  0.4300  0.8261  0.9618
  364MOL0     C47934   2.052   0.815   9.187  0.5046 -0.4403 -0.4167
  364MOL0     C47935   1.986   0.908   9.260 -0.1917  0.1146  0.4209
  364MOL0     C47936   1.862   0.974   9.227 -0.5587  0.0161 -0.7377
  364MOL0     C47937   1.749   0.874   9.189 -0.2186 -0.1586 -0.5900
  364MOL0     C47938   1.606   0.935   9.188  0.7737  0.9540 -1.4218
  364MOL0     C47939   1.504   0.833   9.138 -0.2631  0.0956  0.1399
  364MOL0     O47940   1.372   0.869   9.185  0.1006 -0.1721  0.4219
  364MOL0     C47941   1.256   0.825   9.115 -0.2984 -1.3013 -0.1442
  364MOL0     C47942   1.135   0.875   9.168 -0.1597  1.6401  0.0060
  364MOL0     C47943   1.015   0.867   9.103 -0.8298  0.4360  0.5639
  364MOL0     C47944   1.009   0.800   8.976  0.2625 -0.2115  0.1766
  364MOL0     C47945   0.875   0.789   8.912 -0.4613 -0.3867  0.7249
  364MOL0     O47946   0.881   0.744   8.781 -0.5252 -0.0082  0.2867
  364MOL0     C47947   0.760   0.752   8.720 -0.6709 -0.3370  0.3264
  364MOL0     C47948   0.655   0.660   8.745 -0.1529 -0.1501  0.3005
  364MOL0     C47949   0.545   0.658   8.667 -0.1260 -0.4627 -0.5327
  364MOL0     C47950   0.528   0.747   8.556  0.9089  0.5652  0.2253
  364MOL0     O47951   0.421   0.741   8.466 -0.1771 -0.3112 -0.1156
  364MOL0     C47952   0.328   0.643   8.488 -0.3423 -0.7807 -0.3766
  364MOL0     C47953   0.205   0.666   8.398 -0.0906 -0.0470 -0.3597
  364MOL0     C47954   0.087   0.565   8.423 -0.6786  1.0587  0.7990
  364MOL0     C47955   0.130   0.421   8.381 -0.3319 -0.1876  0.2836
  364MOL0     C47956  -0.004   0.330   8.398 -0.6087 -0.1931  0.6367
  364MOL0     C47957  -0.113   0.361   8.290 -0.4249 -0.5373  0.1275
  364MOL0     C47958  -0.233   0.268   8.318 -0.6638 -0.5086 -0.6466
  364MOL0     C47959  -0.358   0.287   8.231 -0.0036 -0.0207  0.5910
  364MOL0    Cl47960  -0.437   0.443   8.246  0.3243  0.4796 -0.3278
  364MOL0     C47961   0.623   0.844   8.544  0.4879  0.8221 -0.2225
  364MOL0     C47962   0.745   0.845   8.616  0.1825 -0.6011 -0.1991
  364MOL0     O47963   0.778   0.841   8.965  0.2455  0.2498  0.3186
  364MOL0     C47964   1.130   0.738   8.931  0.0708  0.2482  0.6331
  364MOL0     C47965   1.250   0.740   8.999  0.8011  0.7738  0.1553
  364MOL0     N47966   2.052   0.917   9.384  0.1093 -0.3302 -0.6696
  364MOL0     N47967   2.159   0.854   9.378 -0.1706  0.6844  0.4682
  364MOL0     C47968   3.392   0.566   9.082  0.3542 -0.5838 -0.5704
  364MOL0     C47969   3.514   0.552   9.138 -0.3627  0.2962  0.2992
  364MOL0     C47970   3.795   0.433   9.482 -0.6893 -0.2331 -0.3745
  364MOL0     C47971   3.905   0.521   9.468  1.5644 -0.0164  0.4594
  364MOL0     C47972   4.024   0.510   9.546  0.5619 -0.2141 -0.1018
  364MOL0     C47973   4.042   0.400   9.626 -0.2814  0.7000  0.0243
  364MOL0     O47974   4.159   0.376   9.692  0.7489  0.2030 -0.0945
  364MOL0     C47975   4.247   0.480   9.737 -0.2697 -0.3831 -0.1311
  364MOL0     C47976   4.361   0.436   9.825  0.5308  0.1048 -0.6103
  364MOL0     C47977   4.453   0.340   9.741 -0.3405  0.6771 -0.4071
  364MOL0     C47978   4.560   0.265   9.823 -0.5809  0.7536  0.0944
  364MOL0     C47979   4.680   0.349   9.859 -0.2570  0.4446 -0.1461
  364MOL0     C47980   4.763   0.432   9.858  0.2895 -0.9613  0.1753
  364MOL0     C47981   3.944   0.307   9.639  0.3011  0.3607 -0.4714
  364MOL0     C47982   3.821   0.326   9.573  0.4295 -0.1420 -0.3359
  364MOL0     H47983   3.451   0.688   9.443  2.8144 -3.0866  0.7875
  364MOL0     H47984   3.232   0.733   9.335  0.2624 -0.4812  0.0299
  364MOL0     H47985   3.044   0.730   9.192  0.3603  1.6414 -2.5525
  364MOL0     H47986   3.072   0.562   9.234 -0.6179 -0.8993 -0.0704
  364MOL0     H47987   2.968   0.485   9.018  2.9902  1.7075 -2.4610
  364MOL0     H47988   2.948   0.652   8.969  0.9969  1.0700  0.6666
  364MOL0     H47989   2.805   0.705   9.162  0.5698  0.4524  0.1610
  364MOL0     H47990   2.821   0.537   9.221  0.8997 -0.3620  0.2752
  364MOL0     H47991   2.702   0.647   8.957  0.8318 -0.8199 -1.3027
  364MOL0     H47992   2.676   0.487   9.026  0.7641  1.0414  0.8997
  364MOL0     H47993   2.598   0.756   9.150  1.3681 -2.0093  3.0777
  364MOL0     H47994   2.553   0.613   9.218 -2.0031 -2.1589 -0.9327
  364MOL0     H47995   2.397   0.555   9.045 -1.1696  0.6866  0.2197
  364MOL0     H47996   2.434   0.681   8.934 -2.6016 -1.9725 -0.7317
  364MOL0     H47997   2.376   0.847   9.141  1.0955  1.1831 -0.9105
  364MOL0     H47998   2.264   0.800   9.027  0.9230  2.7109  1.4549
  364MOL0     H47999   2.338   0.688   9.303 -0.9685  0.6343  1.2292
  364MOL0     H48000   2.227   0.583   9.220  0.5109  0.1587 -1.0036
  364MOL0     H48001   2.044   0.776   9.086  0.9855  1.8044 -1.3683
  364MOL0     H48002   1.882   1.035   9.137 -1.0773  0.0360 -0.8400
  364MOL0     H48003   1.837   1.035   9.314  3.3211  2.0001 -0.7695
  364MOL0     H48004   1.761   0.785   9.252 -1.9475  0.0566  0.1090
  364MOL0     H48005   1.772   0.846   9.086 -0.3563  2.2378 -1.3438
  364MOL0     H48006   1.573   0.969   9.286 -0.8978 -0.6204 -1.3866
  364MOL0     H48007   1.599   1.026   9.129  0.7420  1.6507 -0.3648
  364MOL0     H48008   1.518   0.738   9.189  1.5884  1.2248  1.9004
  364MOL0     H48009   1.521   0.826   9.030 -1.4018 -1.0867  0.0120
  364MOL0     H48010   1.141   0.929   9.262 -1.7055  0.2801  0.9592
  364MOL0     H48011   0.939   0.929   9.148  0.3372  2.8619 -0.6261
  364MOL0     H48012   0.680   0.580   8.814  0.0729  0.0560  0.4629
  364MOL0     H48013   0.477   0.574   8.670 -2.4088  1.1410 -3.1073
  364MOL0     H48014   0.297   0.647   8.593  4.4445  3.2559  1.3266
  364MOL0     H48015   0.370   0.545   8.465  0.3896 -0.5988  0.1225
  364MOL0     H48016   0.246   0.656   8.297 -1.2710 -1.5957 -0.7167
  364MOL0     H48017   0.160   0.764   8.418 -1.6941 -0.2948 -2.3789
  364MOL0     H48018  -0.006   0.599   8.377  0.0609 -0.7133 -2.2388
  364MOL0     H48019   0.067   0.567   8.531  0.7344 -0.6869  1.1474
  364MOL0     H48020   0.162   0.412   8.277 -3.6410 -3.1520 -0.7193
  364MOL0     H48021   0.214   0.377   8.435  1.0128 -0.2308 -1.7372
  364MOL0     H48022  -0.053   0.332   8.495 -1.4839 -2.7730  0.3053
  364MOL0     H48023   0.012   0.222   8.393 -0.0685 -0.0947  0.0639
  364MOL0     H48024  -0.071   0.353   8.190  0.4111 -0.8944  0.5014
  364MOL0     H48025  -0.147   0.461   8.319  1.2519 -0.2638  1.2897
  364MOL0     H48026  -0.203   0.163   8.316  0.6711 -0.1496 -3.0496
  364MOL0     H48027  -0.253   0.289   8.424  1.6353  0.9783 -0.4285
  364MOL0     H48028  -0.421   0.205   8.268  2.0610 -3.2622 -2.3810
  364MOL0     H48029  -0.329   0.270   8.126  1.2055 -0.0454  0.9160
  364MOL0     H48030   0.602   0.929   8.479 -1.6981 -0.3624 -1.1841
  364MOL0     H48031   0.822   0.921   8.608 -1.1223  1.2445  2.8203
  364MOL0     H48032   1.131   0.691   8.834  1.8348 -2.6936  1.9411
  364MOL0     H48033   1.338   0.688   8.964 -1.1127 -2.5979 -0.1761
  364MOL0     H48034   3.383   0.525   8.982  3.3270 -1.1190 -0.7341
  364MOL0     H48035   3.587   0.504   9.074 -0.9325 -0.9038  0.5139
  364MOL0     H48036   3.899   0.609   9.405  1.7266  0.6760  1.3846
  364MOL0     H48037   4.097   0.589   9.533 -0.8106  0.7967 -2.4556
  364MOL0     H48038   4.194   0.561   9.790  1.5709  0.2952  0.7692
  364MOL0     H48039   4.292   0.518   9.645  0.5465 -2.9299 -0.8494
  364MOL0     H48040   4.424   0.523   9.846  3.4208 -1.9169 -0.3689
  364MOL0     H48041   4.317   0.382   9.909 -3.3591  0.3680 -2.2587
  364MOL0     H48042   4.504   0.396   9.662 -1.1223  2.1084  0.0513
  364MOL0     H48043   4.373   0.273   9.709 -0.6277  0.8186  0.0014
  364MOL0     H48044   4.510   0.223   9.911 -2.3478 -2.1230 -2.0977
  364MOL0     H48045   4.595   0.174   9.774 -2.6895 -1.0145  1.6801
  364MOL0     H48046   4.843   0.502   9.847  0.4066 -1.0321  0.5659
  364MOL0     H48047   3.952   0.226   9.711 -0.6861  1.3342  0.7775
  364MOL0     H48048   3.731   0.268   9.588 -1.6565  2.7679 -0.5492
  365MOL0     O48049   2.060   5.923  10.818 -0.2399 -0.5236 -0.8177
  365MOL0     C48050   2.116   5.843  10.899 -0.0336  0.8158 -0.0970
  365MOL0     O48051   2.217   5.872  10.989 -0.2981  0.0833  0.2515
  365MOL0     C48052   2.307   5.973  10.964  0.7642  0.1811  0.1519
  365MOL0     C48053   2.329   6.076  11.063  0.2075  0.8367  0.1198
  365MOL0     C48054   2.429   6.171  11.051  0.5106  0.1089  0.6172
  365MOL0     C48055   2.512   6.162  10.938  0.3095 -0.3585  0.5798
  365MOL0     O48056   2.618   6.253  10.927  0.2804  0.6804 -0.6307
  365MOL0     C48057   2.745   6.188  10.952 -0.4634  0.4594 -0.6513
  365MOL0     C48058   2.862   6.289  10.944 -0.1956  0.4972  0.0053
  365MOL0     C48059   2.831   6.413  10.867  0.3800  0.4346  0.0846
  365MOL0     C48060   2.948   6.501  10.826  0.8026  0.5058 -0.3127
  365MOL0     C48061   3.030   6.440  10.707  1.1324 -0.1295 -0.0603
  365MOL0     C48062   2.939   6.394  10.586 -0.2235  0.0969 -0.6914
  365MOL0     C48063   3.016   6.376  10.452  0.2898 -0.1991 -0.1277
  365MOL0     C48064   3.127   6.283  10.464 -0.3128  0.2224 -0.2226
  365MOL0     N48065   3.186   6.229  10.341 -0.3423  0.1207  0.5868
  365MOL0     C48066   3.119   6.164  10.240 -0.1802  0.4846 -0.7041
  365MOL0     C48067   3.221   6.122  10.149  0.3475  0.5236 -0.8275
  365MOL0     C48068   3.188   6.034  10.037 -0.2288 -0.0389  0.4269
  365MOL0     C48069   3.150   6.120   9.912  0.6477 -0.8691 -0.0391
  365MOL0     C48070   3.275   6.197   9.854 -0.4502 -0.2925 -0.3927
  365MOL0     C48071   3.255   6.245   9.717  0.1802  0.3112  0.9692
  365MOL0     O48072   3.250   6.146   9.607 -0.8972 -0.7920 -0.9190
  365MOL0     C48073   3.167   6.161   9.501  0.5031 -0.3471 -0.5653
  365MOL0     C48074   3.120   6.047   9.436 -0.2960  0.5124  0.0301
  365MOL0     C48075   3.041   6.062   9.318 -0.5278 -0.3123 -0.4808
  365MOL0     C48076   2.986   6.186   9.281 -0.3783 -0.3470  0.2889
  365MOL0     C48077   2.890   6.201   9.175 -0.3878  0.9589 -0.4011
  365MOL0     O48078   2.806   6.309   9.181 -0.2059 -0.2705  0.1139
  365MOL0     C48079   2.701   6.333   9.090 -0.1061  0.1570  0.7697
  365MOL0     C48080   2.616   6.229   9.042 -0.4146 -0.2040  0.4137
  365MOL0     C48081   2.497   6.274   8.971 -0.6720  1.0401  1.5616
  365MOL0     C48082   2.471   6.410   8.952  1.0099 -0.8157  1.0533
  365MOL0     O48083   2.364   6.441   8.881 -0.5764 -0.6811  0.1228
  365MOL0     C48084   2.285   6.547   8.922  0.5760 -0.2396 -0.2194
  365MOL0     C48085   2.144   6.497   8.968  0.0210  0.1497  0.6265
  365MOL0     C48086   2.144   6.448   9.117  0.4662  0.1231  0.6443
  365MOL0     C48087   2.005   6.384   9.140  0.3345  0.0858  0.1654
  365MOL0     C48088   1.946   6.413   9.283 -0.5545  0.1069  0.6579
  365MOL0     C48089   1.846   6.314   9.335  0.4624  0.1129 -0.3983
  365MOL0     C48090   1.768   6.375   9.452 -0.3281  0.2761 -0.1895
  365MOL0     C48091   1.647   6.291   9.482  0.6188  0.1033  0.2528
  365MOL0    Cl48092   1.545   6.387   9.596 -0.0322  0.3420  0.3378
  365MOL0     C48093   2.565   6.508   8.990  1.0196  0.1091  0.2486
  365MOL0     C48094   2.673   6.472   9.069  0.3171 -0.4103  0.4923
  365MOL0     O48095   2.884   6.110   9.092 -0.1718  0.1519  0.1274
  365MOL0     C48096   3.024   6.300   9.355 -0.4998 -0.0207 -0.5984
  365MOL0     C48097   3.118   6.289   9.463  0.5891  0.0465  0.2364
  365MOL0     N48098   3.344   6.169  10.188 -0.8148 -0.0171  0.0650
  365MOL0     N48099   3.325   6.230  10.304 -0.3114 -0.4164 -0.9732
  365MOL0     C48100   2.485   6.071  10.837 -0.8192  0.0895 -0.5302
  365MOL0     C48101   2.378   5.984  10.847  0.7396  0.4420  0.8429
  365MOL0     C48102   2.039   5.720  10.925  0.3658 -0.1552 -0.5136
  365MOL0     C48103   1.902   5.728  10.950  0.9764  0.1385  0.4599
  365MOL0     C48104   1.832   5.612  10.983  0.0245 -0.5833  0.6347
  365MOL0     C48105   1.899   5.488  11.003 -0.1580 -0.3909 -0.4454
  365MOL0     O48106   1.824   5.383  11.041 -1.1768 -0.2875  0.0784
  365MOL0     C48107   1.880   5.260  11.078  0.2152  0.7031  0.6281
  365MOL0     C48108   1.772   5.159  11.099  0.2398 -0.2943 -0.4614
  365MOL0     C48109   1.835   5.025  11.151  0.1429  0.1272  0.5067
  365MOL0     C48110   1.718   4.951  11.225  0.1039 -0.3747 -0.3692
  365MOL0     C48111   1.613   4.913  11.127 -0.7024 -0.4328 -0.5221
  365MOL0     C48112   1.521   4.867  11.064 -0.2269 -0.6420  0.3924
  365MOL0     C48113   2.039   5.481  10.976  0.0210  0.4163 -0.9317
  365MOL0     C48114   2.105   5.597  10.940 -0.0638 -0.2724 -0.0056
  365MOL0     H48115   2.265   6.079  11.151 -0.0898 -0.0951 -0.0524
  365MOL0     H48116   2.439   6.238  11.136 -1.1488 -1.5271  2.2039
  365MOL0     H48117   2.780   6.117  10.876  6.0709 -0.1924  2.2336
  365MOL0     H48118   2.752   6.151  11.055  0.7624  2.2560 -0.0463
  365MOL0     H48119   2.956   6.244  10.909  1.2894  2.2838  1.4362
  365MOL0     H48120   2.873   6.327  11.047  0.5887 -1.4266  0.6676
  365MOL0     H48121   2.755   6.475  10.916  0.7198 -0.3886  1.7183
  365MOL0     H48122   2.773   6.382  10.779 -0.5996 -0.8163  1.1462
  365MOL0     H48123   2.906   6.600  10.807 -1.3639  0.1913  2.2546
  365MOL0     H48124   3.020   6.514  10.907  2.6865  0.8325 -1.9551
  365MOL0     H48125   3.085   6.349  10.732  2.7904  0.6157 -0.8673
  365MOL0     H48126   3.112   6.507  10.678 -0.2020  1.7314  0.2744
  365MOL0     H48127   2.863   6.469  10.560  0.3835  0.3570 -1.8012
  365MOL0     H48128   2.881   6.308  10.619 -1.7010  1.3255  0.0343
  365MOL0     H48129   2.950   6.338  10.373 -0.1451 -0.7825  0.5108
  365MOL0     H48130   3.053   6.474  10.421 -2.7211  1.3520  0.8194
  365MOL0     H48131   3.089   6.199  10.523 -0.5635  0.4319 -0.0844
  365MOL0     H48132   3.210   6.334  10.514  1.1389 -0.4145 -1.8687
  365MOL0     H48133   3.018   6.124  10.252  0.9770 -1.7728  3.4855
  365MOL0     H48134   3.108   5.966  10.068 -1.5316  0.8579 -0.8044
  365MOL0     H48135   3.269   5.964  10.013 -1.7617 -1.6254 -0.3704
  365MOL0     H48136   3.060   6.179   9.933 -0.8963 -1.0615 -4.9539
  365MOL0     H48137   3.119   6.046   9.838  1.4706  0.0479 -1.3347
  365MOL0     H48138   3.307   6.276   9.922 -2.4236 -0.0666  0.3594
  365MOL0     H48139   3.356   6.123   9.858 -1.9157 -1.9664 -0.0972
  365MOL0     H48140   3.340   6.312   9.698  2.6203 -1.4730  4.3983
  365MOL0     H48141   3.158   6.295   9.726 -0.3728 -0.2926 -1.1510
  365MOL0     H48142   3.134   5.952   9.486 -1.7713  1.1086  1.6878
  365MOL0     H48143   3.016   5.970   9.266  2.1402 -1.0623 -0.5745
  365MOL0     H48144   2.644   6.124   9.041  2.1653  0.4137 -0.5397
  365MOL0     H48145   2.422   6.200   8.944  1.9267 -2.8939  4.1171
  365MOL0     H48146   2.270   6.612   8.835  0.8352 -0.2605 -0.2806
  365MOL0     H48147   2.327   6.604   9.005  0.6853  0.4917 -0.7608
  365MOL0     H48148   2.102   6.427   8.895 -1.2391  2.5689 -1.1207
  365MOL0     H48149   2.076   6.582   8.955  0.0299 -0.2781 -4.1897
  365MOL0     H48150   2.160   6.530   9.187  1.5294  1.7357 -1.3933
  365MOL0     H48151   2.226   6.378   9.138  1.7884  1.4492  0.1022
  365MOL0     H48152   1.929   6.411   9.066 -0.2738 -1.3105  0.2594
  365MOL0     H48153   2.028   6.277   9.137  0.7305  0.1915 -1.2696
  365MOL0     H48154   1.901   6.513   9.277 -0.6738  0.0874  1.1711
  365MOL0     H48155   2.023   6.434   9.358  0.2153  1.8891 -0.5355
  365MOL0     H48156   1.899   6.224   9.369  0.9877  0.4877 -0.2164
  365MOL0     H48157   1.771   6.289   9.259  1.5714 -0.2561 -1.4072
  365MOL0     H48158   1.828   6.385   9.543 -2.2044 -0.3460  1.1635
  365MOL0     H48159   1.744   6.481   9.437 -1.8574 -0.1991 -1.2922
  365MOL0     H48160   1.672   6.197   9.532  0.3738  0.7792  1.6989
  365MOL0     H48161   1.574   6.284   9.400 -0.3056  1.9385  0.8690
  365MOL0     H48162   2.541   6.614   8.980  2.3494  0.4506  0.4113
  365MOL0     H48163   2.731   6.553   9.112 -1.7684 -0.0426  2.8582
  365MOL0     H48164   2.997   6.402   9.333  1.6296  0.5972 -0.6104
  365MOL0     H48165   3.138   6.374   9.528  0.1135 -0.1546  0.6562
  365MOL0     H48166   2.552   6.067  10.752  2.8978  0.9758  2.1351
  365MOL0     H48167   2.361   5.920  10.761  0.8475 -0.8868  1.7834
  365MOL0     H48168   1.850   5.823  10.958  2.6356  1.6348 -3.7950
  365MOL0     H48169   1.724   5.619  10.988 -0.2728  3.7555 -3.7245
  365MOL0     H48170   1.935   5.276  11.171  1.7104  2.5800 -0.5076
  365MOL0     H48171   1.944   5.227  10.995  0.3908  1.5983  0.3982
  365MOL0     H48172   1.699   5.201  11.168  2.0759  1.7213  0.3816
  365MOL0     H48173   1.721   5.148  11.003  1.7146  0.9566 -1.4295
  365MOL0     H48174   1.918   5.042  11.220  0.9912  0.3636 -0.5596
  365MOL0     H48175   1.876   4.970  11.066 -1.5026 -0.0694 -0.2114
  365MOL0     H48176   1.754   4.865  11.282  1.7006  1.3274  1.3586
  365MOL0     H48177   1.666   5.012  11.299  1.5629  0.7913 -0.2543
  365MOL0     H48178   1.449   4.815  11.005  1.1602 -2.5045  0.2540
  365MOL0     H48179   2.097   5.390  10.978  0.0772  0.4600 -0.5257
  365MOL0     H48180   2.211   5.603  10.919  0.2040 -0.4476  1.2658
  366MOL0     O48181   4.777   5.251   4.987  0.1977 -0.6138  0.2850
  366MOL0     C48182   4.731   5.365   5.022 -0.4077 -0.1206  0.2400
  366MOL0     O48183   4.741   5.426   5.141  0.4029  0.3283  0.6745
  366MOL0     C48184   4.830   5.359   5.222 -0.8149 -0.3029  0.1442
  366MOL0     C48185   4.973   5.359   5.187 -0.3149 -0.3674  0.0092
  366MOL0     C48186   5.078   5.322   5.273  0.1543  0.2148 -0.2932
  366MOL0     C48187   5.042   5.274   5.400 -0.7853 -0.1685 -0.1028
  366MOL0     O48188   5.154   5.228   5.478  0.6130  0.0954 -0.4263
  366MOL0     C48189   5.165   5.280   5.612 -0.1070  0.3731 -0.0709
  366MOL0     C48190   5.229   5.412   5.624 -0.1006  0.0611  0.4726
  366MOL0     C48191   5.380   5.396   5.618  0.6752 -0.4156  0.0184
  366MOL0     C48192   5.448   5.277   5.689  0.1368 -0.3448  1.0691
  366MOL0     C48193   5.604   5.283   5.676  0.6775 -0.8295 -0.4630
  366MOL0     C48194   5.676   5.219   5.797 -0.3641 -0.1407 -0.6133
  366MOL0     C48195   5.827   5.242   5.805 -0.9331 -0.1677  0.0292
  366MOL0     C48196   5.896   5.145   5.899  0.8420  0.0144  0.3348
  366MOL0     N48197   5.886   5.177   6.043  0.6169 -1.1890  0.6593
  366MOL0     C48198   5.780   5.149   6.128  0.6527  0.4268  0.5394
  366MOL0     C48199   5.831   5.163   6.253  0.9298  0.1937 -0.0885
  366MOL0     C48200   5.781   5.141   6.393  0.5743 -0.1367 -0.3976
  366MOL0     C48201   5.630   5.118   6.393 -0.1373 -0.3361  1.0908
  366MOL0     C48202   5.589   5.107   6.545 -0.2226 -0.3453  0.0697
  366MOL0     C48203   5.439   5.087   6.558 -0.4473 -0.4838  0.2917
  366MOL0     O48204   5.402   4.962   6.510  0.1609  0.5653  0.5244
  366MOL0     C48205   5.268   4.938   6.487 -0.0472  0.3305 -0.2245
  366MOL0     C48206   5.163   5.013   6.530 -0.3477 -0.5818 -0.2696
  366MOL0     C48207   5.038   4.976   6.500  0.5622  0.4065 -0.5750
  366MOL0     C48208   5.001   4.867   6.415  0.2900 -1.1341  1.3277
  366MOL0     C48209   4.857   4.821   6.387  0.0517 -0.1172  0.1380
  366MOL0     O48210   4.840   4.690   6.342  1.0246  1.0855 -0.3194
  366MOL0     C48211   4.713   4.641   6.314 -0.9135  0.0165  0.6615
  366MOL0     C48212   4.620   4.716   6.240  0.2395 -0.6351  0.7611
  366MOL0     C48213   4.493   4.662   6.214 -0.0341 -0.3320  0.4328
  366MOL0     C48214   4.469   4.526   6.222 -0.8141  0.4625 -0.7970
  366MOL0     O48215   4.356   4.485   6.169 -0.7876  0.0105  0.2394
  366MOL0     C48216   4.268   4.407   6.253 -0.7407  0.0409 -0.0946
  366MOL0     C48217   4.146   4.396   6.168  1.0233 -0.0723  0.3095
  366MOL0     C48218   4.059   4.526   6.158 -0.2419  0.0405 -0.3706
  366MOL0     C48219   3.942   4.506   6.060  0.2538 -0.7354  0.0672
  366MOL0     C48220   3.841   4.617   6.060 -0.2588 -0.2282 -0.3151
  366MOL0     C48221   3.734   4.606   5.956  0.5513 -0.0122 -0.2707
  366MOL0     C48222   3.635   4.726   5.964  0.3802  0.4217  0.3987
  366MOL0     C48223   3.520   4.714   5.859  0.0146  0.4127  0.1799
  366MOL0    Cl48224   3.408   4.593   5.894 -0.3626 -0.3459 -0.0485
  366MOL0     C48225   4.562   4.448   6.298 -0.8102  0.0465  0.3746
  366MOL0     C48226   4.680   4.506   6.345 -0.9593 -0.0561 -0.1797
  366MOL0     O48227   4.773   4.901   6.414  0.6287  0.5957  0.0761
  366MOL0     C48228   5.114   4.795   6.361  0.5120 -0.1063 -0.3017
  366MOL0     C48229   5.243   4.831   6.401  0.1366 -0.2924  0.5204
  366MOL0     N48230   5.959   5.206   6.244  0.0391  0.4325  0.2765
  366MOL0     N48231   5.991   5.209   6.119 -0.0641  0.0151 -0.0706
  366MOL0     C48232   4.905   5.278   5.441  0.7469  0.2591  0.2003
  366MOL0     C48233   4.800   5.318   5.351  0.5787 -0.4195 -0.5207
  366MOL0     C48234   4.651   5.431   4.924  0.8047 -0.4956  0.5244
  366MOL0     C48235   4.645   5.392   4.787  0.0721  0.6597 -0.7947
  366MOL0     C48236   4.560   5.444   4.686 -0.2727 -0.0376 -0.2591
  366MOL0     C48237   4.474   5.544   4.724  0.4638  0.9077 -0.0105
  366MOL0     O48238   4.380   5.583   4.626  0.5630 -0.3064 -0.4439
  366MOL0     C48239   4.327   5.719   4.647 -0.0850 -1.0021  0.6466
  366MOL0     C48240   4.264   5.780   4.526 -0.1788 -0.9742 -0.1297
  366MOL0     C48241   4.157   5.680   4.470 -0.0323  0.1641 -0.2001
  366MOL0     C48242   4.089   5.738   4.350  0.8407  0.4209 -0.3019
  366MOL0     C48243   3.990   5.641   4.308 -0.5025  0.5363  0.2914
  366MOL0     C48244   3.912   5.552   4.288 -0.0547  0.2380  0.5049
  366MOL0     C48245   4.483   5.603   4.856 -0.4345 -0.0590 -0.1419
  366MOL0     C48246   4.557   5.540   4.953  0.0911 -0.4217  0.8479
  366MOL0     H48247   5.006   5.398   5.092 -0.7457  3.8048  1.3739
  366MOL0     H48248   5.182   5.328   5.244 -0.4068 -0.8939 -2.8324
  366MOL0     H48249   5.220   5.206   5.671  0.6487 -0.1148 -1.3274
  366MOL0     H48250   5.070   5.290   5.665  0.9656 -0.3828  2.1211
  366MOL0     H48251   5.197   5.449   5.721  0.2722  0.7951  0.3171
  366MOL0     H48252   5.194   5.495   5.562  0.7773  0.8723  1.0522
  366MOL0     H48253   5.416   5.488   5.665  0.0484 -0.9277  1.5432
  366MOL0     H48254   5.404   5.380   5.512 -2.3190 -0.0475 -0.8026
  366MOL0     H48255   5.426   5.289   5.795  0.9485  0.2080  1.1821
  366MOL0     H48256   5.418   5.176   5.657  1.6141  0.2388 -2.7395
  366MOL0     H48257   5.630   5.389   5.683  4.0096 -1.4388 -1.9154
  366MOL0     H48258   5.654   5.252   5.584 -0.6321 -0.0895 -1.4583
  366MOL0     H48259   5.669   5.110   5.786 -1.1314 -0.1926  0.2412
  366MOL0     H48260   5.631   5.244   5.893  0.8983 -1.5521  0.4048
  366MOL0     H48261   5.865   5.234   5.703  0.0012  0.9695  0.2601
  366MOL0     H48262   5.851   5.345   5.836 -0.2847 -0.8426  1.9331
  366MOL0     H48263   6.004   5.138   5.883  0.6006 -4.4402 -0.7025
  366MOL0     H48264   5.858   5.046   5.873  0.1246  0.8237 -1.9103
  366MOL0     H48265   5.678   5.120   6.104 -0.2382  0.3991  3.9468
  366MOL0     H48266   5.818   5.220   6.458  3.1499 -1.9345  0.5055
  366MOL0     H48267   5.817   5.045   6.432 -1.3718 -2.0405 -2.9118
  366MOL0     H48268   5.607   5.029   6.333 -1.6743 -0.5671  1.9393
  366MOL0     H48269   5.579   5.202   6.345  3.2755  0.5280 -1.3464
  366MOL0     H48270   5.634   5.021   6.596  0.6271 -1.3291 -2.1841
  366MOL0     H48271   5.626   5.198   6.593  2.3089  0.1561 -2.5338
  366MOL0     H48272   5.382   5.166   6.510  0.7874 -0.1021 -0.6021
  366MOL0     H48273   5.418   5.077   6.665 -3.4682 -3.9478 -0.4369
  366MOL0     H48274   5.170   5.089   6.607  1.0202 -0.7882 -0.1656
  366MOL0     H48275   4.961   5.033   6.550 -1.5187 -0.1111 -3.0053
  366MOL0     H48276   4.656   4.813   6.210  3.0238 -0.7726  3.1729
  366MOL0     H48277   4.423   4.724   6.160  1.0201 -1.1507 -2.0256
  366MOL0     H48278   4.257   4.471   6.341  4.5568  0.8153  0.2994
  366MOL0     H48279   4.305   4.305   6.266 -1.7694 -0.6406 -2.0411
  366MOL0     H48280   4.086   4.319   6.217 -1.7525  2.8017  1.8314
  366MOL0     H48281   4.173   4.370   6.066  0.0523  0.9213 -0.2277
  366MOL0     H48282   4.110   4.613   6.117 -1.1399 -0.5600 -2.9156
  366MOL0     H48283   4.035   4.557   6.261  3.5668  2.7050 -0.0935
  366MOL0     H48284   3.983   4.471   5.965 -0.9171 -1.8133 -0.0653
  366MOL0     H48285   3.882   4.424   6.101  1.4403 -0.4057  2.6936
  366MOL0     H48286   3.893   4.707   6.026  1.2693 -0.0261  2.3218
  366MOL0     H48287   3.796   4.623   6.159 -0.9799 -0.6288 -0.6091
  366MOL0     H48288   3.674   4.517   5.971 -1.6765  1.3884 -0.4106
  366MOL0     H48289   3.784   4.603   5.859  3.3560  0.4609  1.0512
  366MOL0     H48290   3.591   4.716   6.064  0.7158  1.2921  0.6442
  366MOL0     H48291   3.687   4.822   5.955 -0.9607  1.0637 -0.8922
  366MOL0     H48292   3.567   4.683   5.765  0.0414 -0.4760  0.4834
  366MOL0     H48293   3.470   4.811   5.851 -1.6903 -0.2800  1.9324
  366MOL0     H48294   4.551   4.344   6.328  0.5755 -0.5557 -1.0785
  366MOL0     H48295   4.749   4.436   6.392 -1.3673 -4.3412 -5.0169
  366MOL0     H48296   5.082   4.708   6.304  2.8906 -2.3702  1.5654
  366MOL0     H48297   5.317   4.770   6.349 -0.8634 -1.6366  0.6051
  366MOL0     H48298   4.877   5.267   5.545 -1.3406  0.7796 -0.2547
  366MOL0     H48299   4.700   5.322   5.393  2.1541  2.4963  3.6307
  366MOL0     H48300   4.707   5.311   4.751 -1.2314 -1.0359  0.6558
  366MOL0     H48301   4.552   5.407   4.585  0.7636 -2.8427  0.5759
  366MOL0     H48302   4.410   5.788   4.664 -1.4728  2.3155 -3.9819
  366MOL0     H48303   4.264   5.729   4.736  1.2349  0.6322  1.4558
  366MOL0     H48304   4.211   5.873   4.548 -0.1549 -0.9488 -0.1795
  366MOL0     H48305   4.346   5.800   4.457 -0.3026 -3.1069 -0.9691
  366MOL0     H48306   4.086   5.661   4.551 -0.3857  1.4121 -0.1925
  366MOL0     H48307   4.203   5.584   4.445 -0.3008  0.9928 -4.8749
  366MOL0     H48308   4.034   5.827   4.381  0.7556 -0.3600  1.9948
  366MOL0     H48309   4.163   5.762   4.274  0.0369 -1.8110 -1.8805
  366MOL0     H48310   3.839   5.480   4.256  0.2299 -0.0087  0.4046
  366MOL0     H48311   4.431   5.693   4.889  0.9382  0.3748  0.9504
  366MOL0     H48312   4.551   5.579   5.053 -0.9734  0.0479  0.6123
  367MOL0     O48313   0.565   3.515   3.599  0.1563  0.3548  0.0394
  367MOL0     C48314   0.489   3.567   3.673  0.9431  0.7152 -0.1697
  367MOL0     O48315   0.516   3.613   3.799 -0.1125 -0.1302  0.2243
  367MOL0     C48316   0.640   3.575   3.843 -0.3568 -0.0674 -0.9230
  367MOL0     C48317   0.767   3.610   3.793 -0.5476  0.4900 -0.5157
  367MOL0     C48318   0.889   3.574   3.852 -0.0168 -0.5173 -0.2897
  367MOL0     C48319   0.884   3.501   3.973  0.9586  0.3277  0.5351
  367MOL0     O48320   0.992   3.461   4.043 -0.4692 -0.0194 -0.0478
  367MOL0     C48321   1.116   3.434   3.969  0.6341  0.9380 -0.3158
  367MOL0     C48322   1.201   3.333   4.040  0.5378  0.1896  0.2478
  367MOL0     C48323   1.239   3.395   4.174  0.2203  0.4792 -0.5591
  367MOL0     C48324   1.369   3.328   4.225 -0.4839  0.1914 -0.4868
  367MOL0     C48325   1.387   3.330   4.380  0.4697 -0.3587  0.8343
  367MOL0     C48326   1.515   3.277   4.436 -0.3666 -0.2552  0.4828
  367MOL0     C48327   1.647   3.310   4.364  1.2141  0.2210 -0.2087
  367MOL0     C48328   1.774   3.236   4.409 -0.0690 -0.1925 -0.2038
  367MOL0     N48329   1.803   3.117   4.325  0.3222  0.2221 -0.1424
  367MOL0     C48330   1.871   3.004   4.367 -0.6913 -0.1853 -0.4813
  367MOL0     C48331   1.867   2.926   4.254 -0.8485 -0.4001  0.4987
  367MOL0     C48332   1.946   2.798   4.242 -0.3156 -0.3603  0.4416
  367MOL0     C48333   2.058   2.802   4.131  0.2910  0.5381 -0.1421
  367MOL0     C48334   2.113   2.663   4.100 -0.3653  0.6676 -0.4139
  367MOL0     C48335   2.207   2.688   3.983 -0.1688 -0.1776  0.4742
  367MOL0     O48336   2.219   2.568   3.907  0.4128  0.2769  0.2058
  367MOL0     C48337   2.338   2.503   3.918 -0.2561  0.6876 -0.1402
  367MOL0     C48338   2.337   2.394   4.004 -0.2231  0.1372  0.3853
  367MOL0     C48339   2.461   2.331   4.035  0.6808 -0.7928 -0.3847
  367MOL0     C48340   2.574   2.355   3.964 -0.6762  0.7832  0.1095
  367MOL0     C48341   2.697   2.274   3.988  0.5715  0.0085  0.7229
  367MOL0     O48342   2.788   2.276   3.881 -0.3100 -0.3584  0.7810
  367MOL0     C48343   2.924   2.253   3.893  0.2210 -0.2059 -0.1087
  367MOL0     C48344   3.003   2.221   3.785  0.8330  0.3176 -0.4773
  367MOL0     C48345   3.138   2.188   3.790  0.5149 -0.3634  0.7294
  367MOL0     C48346   3.195   2.203   3.913  0.2189  0.0338  0.1875
  367MOL0     O48347   3.332   2.191   3.930  0.2015  0.0191  0.2168
  367MOL0     C48348   3.399   2.273   3.833  0.8619 -0.6834  0.1765
  367MOL0     C48349   3.526   2.304   3.900 -0.3525  0.0102  0.3946
  367MOL0     C48350   3.633   2.206   3.889  0.1764 -0.0794 -0.2400
  367MOL0     C48351   3.739   2.214   3.999 -0.1006  0.2609 -0.3647
  367MOL0     C48352   3.847   2.327   3.965  0.3090 -0.6645  0.4191
  367MOL0     C48353   3.930   2.334   3.833  0.2648  0.3248 -0.1501
  367MOL0     C48354   3.986   2.199   3.806  0.1754  0.7682 -0.0477
  367MOL0     C48355   4.070   2.145   3.919 -0.2743  0.5467 -0.2450
  367MOL0    Cl48356   4.183   2.272   3.965  0.0053 -0.4282  0.3859
  367MOL0     C48357   3.115   2.238   4.026 -0.3463 -0.1934 -0.2869
  367MOL0     C48358   2.984   2.267   4.012  0.2505  0.7954 -0.2712
  367MOL0     O48359   2.711   2.227   4.096  1.1112  0.3303  0.4206
  367MOL0     C48360   2.570   2.456   3.867 -0.9755  0.4139  0.2320
  367MOL0     C48361   2.457   2.538   3.850  0.1718  0.9852 -0.0854
  367MOL0     N48362   1.817   2.992   4.145  0.6858 -0.1709  0.3584
  367MOL0     N48363   1.762   3.102   4.193  0.4617  0.4738  0.4316
  367MOL0     C48364   0.758   3.447   4.010  0.7158 -0.2896 -0.4023
  367MOL0     C48365   0.641   3.490   3.953  0.7492  0.6923 -0.3387
  367MOL0     C48366   0.345   3.592   3.635  0.6806  0.3793 -0.1107
  367MOL0     C48367   0.297   3.536   3.515  0.1502  0.0062 -0.0809
  367MOL0     C48368   0.160   3.524   3.485 -0.1577 -0.0610  0.4163
  367MOL0     C48369   0.066   3.596   3.567  0.6940 -0.4986 -0.4363
  367MOL0     O48370  -0.074   3.613   3.544 -0.6558  0.1116 -0.7154
  367MOL0     C48371  -0.129   3.553   3.425  0.1611  0.3588 -0.0160
  367MOL0     C48372  -0.279   3.588   3.405 -0.2144 -0.2387 -0.0699
  367MOL0     C48373  -0.368   3.553   3.521  1.0265  0.9865  0.2074
  367MOL0     C48374  -0.522   3.575   3.498  0.3998  0.1723  0.6845
  367MOL0     C48375  -0.592   3.560   3.631  0.3595 -0.5322 -0.0698
  367MOL0     C48376  -0.637   3.531   3.734  1.0027 -0.9637 -0.1339
  367MOL0     C48377   0.112   3.657   3.681 -0.0692  0.7623 -0.4701
  367MOL0     C48378   0.250   3.657   3.716 -0.5638 -0.5607 -0.1549
  367MOL0     H48379   0.766   3.668   3.701  1.3042 -0.5539 -1.2452
  367MOL0     H48380   0.976   3.604   3.795 -0.9252  0.1658 -1.3640
  367MOL0     H48381   1.162   3.532   3.950 -1.6672  2.2323  0.4184
  367MOL0     H48382   1.096   3.391   3.870 -1.3582  0.2648  0.3326
  367MOL0     H48383   1.286   3.315   3.974  0.7160  1.9122 -0.0395
  367MOL0     H48384   1.153   3.237   4.061  0.0617  0.7777  2.0391
  367MOL0     H48385   1.157   3.376   4.243 -0.1531 -2.2117 -1.6348
  367MOL0     H48386   1.253   3.503   4.157 -0.1074  1.1709  2.9371
  367MOL0     H48387   1.374   3.224   4.190  0.1117  0.1113 -0.1787
  367MOL0     H48388   1.456   3.377   4.179  1.6230 -0.5769  2.3617
  367MOL0     H48389   1.307   3.270   4.423  1.3750 -3.7725 -1.8308
  367MOL0     H48390   1.375   3.435   4.409 -2.8547  0.4590 -2.6485
  367MOL0     H48391   1.499   3.170   4.452  2.8236 -0.5341  2.6455
  367MOL0     H48392   1.530   3.330   4.530 -1.7684 -0.3973  0.8051
  367MOL0     H48393   1.617   3.301   4.260  2.1742 -1.6908 -0.3656
  367MOL0     H48394   1.670   3.414   4.388  1.3159  0.1079  0.2115
  367MOL0     H48395   1.759   3.207   4.513  2.1072 -2.6707 -0.4764
  367MOL0     H48396   1.856   3.308   4.399 -1.4696  1.4214 -0.5012
  367MOL0     H48397   1.924   2.999   4.462  0.5394 -0.9833 -1.1832
  367MOL0     H48398   1.885   2.711   4.215 -0.4149 -0.1965  0.1427
  367MOL0     H48399   1.988   2.766   4.338  1.4325 -1.4093 -0.6053
  367MOL0     H48400   2.135   2.873   4.163 -2.1308  3.4893 -0.3791
  367MOL0     H48401   2.012   2.846   4.042 -0.3423 -3.2428 -1.8539
  367MOL0     H48402   2.173   2.619   4.180 -1.7844  0.7995  0.7733
  367MOL0     H48403   2.021   2.605   4.089 -1.4958  2.2251  0.3120
  367MOL0     H48404   2.307   2.723   4.011  0.1964 -0.6772 -0.1863
  367MOL0     H48405   2.170   2.766   3.917  0.0670 -0.5223 -0.0746
  367MOL0     H48406   2.246   2.385   4.063  0.9113  2.0108  2.6122
  367MOL0     H48407   2.470   2.260   4.116 -2.0528 -0.0341  0.6721
  367MOL0     H48408   2.939   2.221   3.698 -1.3158  0.8822  1.0053
  367MOL0     H48409   3.196   2.147   3.708  0.3539 -0.3421  0.6067
  367MOL0     H48410   3.346   2.368   3.826 -2.1717 -1.9703  3.0478
  367MOL0     H48411   3.421   2.225   3.738  1.6159 -0.8226  0.4101
  367MOL0     H48412   3.501   2.318   4.005  0.6465 -0.3469  0.6865
  367MOL0     H48413   3.570   2.396   3.861 -1.2868  0.1398 -0.4145
  367MOL0     H48414   3.676   2.209   3.788 -1.0825 -1.1997 -0.8251
  367MOL0     H48415   3.582   2.109   3.893 -0.9662  0.4530 -1.3060
  367MOL0     H48416   3.694   2.238   4.096 -1.0340  4.9198 -1.7158
  367MOL0     H48417   3.789   2.118   4.014  1.2547  0.8000 -1.2816
  367MOL0     H48418   3.927   2.334   4.039 -0.6542  2.1585  1.3091
  367MOL0     H48419   3.798   2.423   3.983  2.4084  0.2335  1.8143
  367MOL0     H48420   4.012   2.407   3.837  1.1337 -0.6871  1.4364
  367MOL0     H48421   3.864   2.367   3.752  0.2923 -0.4066 -0.4826
  367MOL0     H48422   3.905   2.127   3.791  0.0548  0.6268  1.2272
  367MOL0     H48423   4.042   2.200   3.712 -0.5836  1.1688 -0.5151
  367MOL0     H48424   4.111   2.050   3.883  2.6435  1.5246  0.2054
  367MOL0     H48425   4.004   2.108   3.998  0.9794 -0.2184  0.4782
  367MOL0     H48426   3.173   2.264   4.114  0.9372  0.3073 -1.2636
  367MOL0     H48427   2.931   2.301   4.100 -0.7778  0.9743 -0.9423
  367MOL0     H48428   2.659   2.471   3.808 -1.2229 -2.6641 -1.1524
  367MOL0     H48429   2.464   2.633   3.800  2.0168  1.5485  1.1370
  367MOL0     H48430   0.739   3.393   4.102  2.1313  1.5085  1.0269
  367MOL0     H48431   0.545   3.462   3.996 -0.0721  2.5670 -0.8109
  367MOL0     H48432   0.366   3.490   3.445 -1.7066 -1.7156 -0.8949
  367MOL0     H48433   0.127   3.473   3.395  0.9856  0.2752 -0.2097
  367MOL0     H48434  -0.114   3.445   3.429  2.3242  0.6207  0.1321
  367MOL0     H48435  -0.059   3.577   3.345 -1.5178  0.6001 -1.4713
  367MOL0     H48436  -0.284   3.695   3.382  2.5241  0.6107  2.4806
  367MOL0     H48437  -0.318   3.527   3.324 -0.3475  0.4772 -0.5505
  367MOL0     H48438  -0.347   3.603   3.617  0.2147 -0.4662  1.1801
  367MOL0     H48439  -0.351   3.446   3.530 -0.3044  0.8285  1.2618
  367MOL0     H48440  -0.537   3.678   3.465  2.3491  0.9295  2.0530
  367MOL0     H48441  -0.569   3.502   3.430 -0.2316 -0.0898  1.3940
  367MOL0     H48442  -0.685   3.510   3.827 -3.1274  0.0380 -1.8389
  367MOL0     H48443   0.042   3.719   3.737  0.3307  1.4823 -0.7400
  367MOL0     H48444   0.283   3.731   3.789 -2.1981  0.7071 -0.6426
  368MOL0     O48445   7.217   7.193  10.431 -0.3962 -0.6715  0.1862
  368MOL0     C48446   7.257   7.289  10.364 -0.5113 -0.0986 -0.4293
  368MOL0     O48447   7.178   7.391  10.328 -0.1088 -1.1429 -0.8628
  368MOL0     C48448   7.046   7.388  10.370 -0.3054  0.7773  0.2720
  368MOL0     C48449   7.008   7.433  10.491 -0.0052  0.2350 -0.2760
  368MOL0     C48450   6.870   7.425  10.522  0.5509 -1.4690 -0.3590
  368MOL0     C48451   6.777   7.372  10.439 -0.1883  0.1597 -0.1690
  368MOL0     O48452   6.643   7.375  10.464  0.1708  0.2685 -0.7406
  368MOL0     C48453   6.587   7.504  10.427 -0.5448 -0.4632  0.2514
  368MOL0     C48454   6.450   7.526  10.496  0.6129  0.5493  0.1937
  368MOL0     C48455   6.329   7.442  10.441  0.0855  0.7074 -0.6290
  368MOL0     C48456   6.344   7.288  10.426 -0.3922  0.4679 -0.9416
  368MOL0     C48457   6.214   7.220  10.416 -0.2871 -0.2944  0.1099
  368MOL0     C48458   6.227   7.075  10.396 -0.4722 -0.1497  0.0966
  368MOL0     C48459   6.222   6.998  10.528 -0.5062 -0.6329  0.4417
  368MOL0     C48460   6.240   6.853  10.530 -0.1304 -0.3641 -0.3208
  368MOL0     N48461   6.381   6.822  10.525 -0.5554 -0.2176  0.0248
  368MOL0     C48462   6.461   6.837  10.634  0.0749  0.4955  0.8341
  368MOL0     C48463   6.580   6.851  10.573  0.3110  0.4730  0.1347
  368MOL0     C48464   6.709   6.880  10.648  0.8739 -0.1166  0.5765
  368MOL0     C48465   6.776   6.995  10.580  0.2733 -0.1072 -0.3479
  368MOL0     C48466   6.911   7.030  10.650  1.0221 -0.4074  0.4289
  368MOL0     C48467   7.021   6.953  10.595  0.7403  0.7750  0.0879
  368MOL0     O48468   7.145   6.976  10.662 -0.2938  0.2195 -0.7429
  368MOL0     C48469   7.263   6.937  10.613  0.3885 -1.0332  0.1358
  368MOL0     C48470   7.284   6.873  10.484  0.0672 -0.2639 -0.1770
  368MOL0     C48471   7.411   6.820  10.434 -0.6574 -0.2855  0.2146
  368MOL0     C48472   7.525   6.852  10.510  0.2016 -0.4358  0.4726
  368MOL0     C48473   7.657   6.804  10.470  0.1992 -0.2114  0.0500
  368MOL0     O48474   7.757   6.812  10.568 -0.2951  0.0031  0.2582
  368MOL0     C48475   7.891   6.782  10.542  0.3311 -0.3399  0.0187
  368MOL0     C48476   7.972   6.745  10.648 -0.2285 -0.8139 -0.3878
  368MOL0     C48477   8.118   6.743  10.645  0.0303  0.4193  0.6003
  368MOL0     C48478   8.177   6.798  10.529  0.0518 -0.3001 -1.1957
  368MOL0     O48479   8.313   6.795  10.533 -0.0489  0.3894 -0.4031
  368MOL0     C48480   8.380   6.718  10.430  1.0676 -0.0592  0.1962
  368MOL0     C48481   8.534   6.712  10.457 -0.2195  0.0288 -0.5113
  368MOL0     C48482   8.598   6.632  10.349  0.2918  0.6944 -0.9201
  368MOL0     C48483   8.650   6.708  10.229 -0.8258 -0.6087 -0.1541
  368MOL0     C48484   8.735   6.628  10.140  0.1394  0.0570 -0.3078
  368MOL0     C48485   8.836   6.706  10.062  0.0935  0.6309  0.9050
  368MOL0     C48486   8.911   6.622   9.964  1.6473 -0.3035  0.1532
  368MOL0     C48487   8.991   6.514  10.031 -0.7257 -0.1527 -0.2420
  368MOL0    Cl48488   9.074   6.412   9.917  0.0810  0.1020  0.2240
  368MOL0     C48489   8.101   6.832  10.407 -0.6476 -0.8933 -0.5409
  368MOL0     C48490   7.955   6.825  10.421 -0.7482 -0.1734  0.1141
  368MOL0     O48491   7.672   6.740  10.366 -0.0521 -0.2292  0.6711
  368MOL0     C48492   7.509   6.923  10.633 -1.0368 -0.5863  0.4370
  368MOL0     C48493   7.387   6.966  10.679  0.3489  0.1481 -0.1400
  368MOL0     N48494   6.566   6.845  10.439 -1.1933 -0.1649  0.8210
  368MOL0     N48495   6.446   6.831  10.410  0.2248  0.5818 -0.2387
  368MOL0     C48496   6.814   7.322  10.316  0.7060 -0.3918  0.1012
  368MOL0     C48497   6.950   7.325  10.282 -0.1829 -0.7403  0.0880
  368MOL0     C48498   7.393   7.299  10.311  0.0910 -0.1909  0.2084
  368MOL0     C48499   7.484   7.190  10.335 -0.1724 -0.0935  1.5410
  368MOL0     C48500   7.615   7.194  10.266  0.3619 -0.1676  0.4977
  368MOL0     C48501   7.655   7.307  10.190  0.5549 -0.0687 -0.3323
  368MOL0     O48502   7.776   7.334  10.126  0.0824 -0.4421 -0.4913
  368MOL0     C48503   7.858   7.231  10.085 -0.1530  0.3896 -0.1192
  368MOL0     C48504   7.932   7.278   9.960 -0.7209 -0.1022 -0.2463
  368MOL0     C48505   7.852   7.269   9.832  0.0931  0.2689  0.5539
  368MOL0     C48506   7.763   7.386   9.813 -0.3184 -0.8514 -0.6046
  368MOL0     C48507   7.699   7.401   9.684  0.0706 -1.4191  0.4819
  368MOL0     C48508   7.649   7.428   9.572  0.4629 -0.8783 -0.3587
  368MOL0     C48509   7.576   7.419  10.208  1.3902 -0.2292 -0.6259
  368MOL0     C48510   7.445   7.416  10.264 -0.1678 -0.9520  0.5564
  368MOL0     H48511   7.077   7.486  10.556  0.7332 -3.1329  1.9932
  368MOL0     H48512   6.825   7.469  10.610  0.7204 -2.3939  0.2041
  368MOL0     H48513   6.568   7.503  10.319 -0.7793 -1.3471  0.2895
  368MOL0     H48514   6.654   7.588  10.444  1.0905 -1.9740  1.6178
  368MOL0     H48515   6.426   7.626  10.458  1.0367  0.3057 -0.7368
  368MOL0     H48516   6.460   7.523  10.605  1.9165 -1.4279  0.0711
  368MOL0     H48517   6.307   7.483  10.342  1.5336 -0.7045 -1.5883
  368MOL0     H48518   6.258   7.452  10.523  1.1411 -1.3289  0.6317
  368MOL0     H48519   6.404   7.268  10.337  0.2193  0.4860 -0.5397
  368MOL0     H48520   6.391   7.241  10.513 -0.0872  0.3152 -1.1860
  368MOL0     H48521   6.150   7.272  10.344  0.8708  0.3008 -0.5126
  368MOL0     H48522   6.183   7.223  10.521  3.1304 -4.4241  1.5359
  368MOL0     H48523   6.310   7.047  10.330 -1.2535 -1.9910 -0.1758
  368MOL0     H48524   6.137   7.046  10.341  0.6089 -2.7556 -0.4576
  368MOL0     H48525   6.289   7.027  10.610 -2.0649  1.9980  0.9275
  368MOL0     H48526   6.126   7.025  10.573 -0.4145  1.8036 -0.6538
  368MOL0     H48527   6.187   6.802  10.449 -0.3360  4.1530 -3.3363
  368MOL0     H48528   6.185   6.816  10.618  0.9223 -0.2913  0.3889
  368MOL0     H48529   6.426   6.859  10.734 -0.9205  0.1129  0.5919
  368MOL0     H48530   6.766   6.787  10.651 -3.3696 -3.2052 -2.5298
  368MOL0     H48531   6.680   6.907  10.750 -0.6146  1.3992 -0.1867
  368MOL0     H48532   6.711   7.082  10.569 -1.1034 -0.9028  1.1875
  368MOL0     H48533   6.798   6.974  10.474  1.1334  0.8073 -0.3738
  368MOL0     H48534   6.925   7.138  10.637  0.4888 -0.4214 -0.3796
  368MOL0     H48535   6.897   7.010  10.756  1.4810 -0.9618  0.3921
  368MOL0     H48536   7.029   6.970  10.487  3.7274 -1.1241 -0.1014
  368MOL0     H48537   6.986   6.850  10.606 -1.3645  1.3079 -0.9539
  368MOL0     H48538   7.201   6.852  10.418 -0.3585 -1.2824  0.6656
  368MOL0     H48539   7.404   6.774  10.336 -0.7341  0.5239 -0.1624
  368MOL0     H48540   7.913   6.719  10.734 -2.1215  2.8301 -0.3968
  368MOL0     H48541   8.170   6.687  10.723  0.4965 -2.9013 -1.8606
  368MOL0     H48542   8.363   6.768  10.334  2.0780 -0.9187 -0.4547
  368MOL0     H48543   8.342   6.616  10.419 -0.9513  0.8618 -2.4053
  368MOL0     H48544   8.557   6.666  10.554 -1.7861  3.5000  1.7080
  368MOL0     H48545   8.581   6.810  10.464 -0.4641  0.2247 -1.4543
  368MOL0     H48546   8.530   6.555  10.312  1.4145 -0.4291 -0.7184
  368MOL0     H48547   8.687   6.583  10.391 -0.3195 -1.7865 -2.3088
  368MOL0     H48548   8.562   6.733  10.169  1.2274  0.6294 -2.9061
  368MOL0     H48549   8.705   6.801  10.250  2.0735 -2.1406 -0.4289
  368MOL0     H48550   8.668   6.568  10.078  1.7038 -0.3330 -1.7085
  368MOL0     H48551   8.788   6.559  10.206 -1.1997  1.2469  2.1127
  368MOL0     H48552   8.900   6.740  10.143 -1.0076 -4.2936  4.2830
  368MOL0     H48553   8.792   6.788  10.005 -0.0822  0.1241  0.2931
  368MOL0     H48554   8.842   6.570   9.897  0.6610  0.4403  0.5726
  368MOL0     H48555   8.978   6.683   9.902  2.0404 -1.2478 -0.3784
  368MOL0     H48556   8.928   6.445  10.087  0.7613 -0.3520  1.2703
  368MOL0     H48557   9.064   6.560  10.098  0.6216 -1.1546 -0.9725
  368MOL0     H48558   8.146   6.863  10.313  0.9300 -2.5994 -0.4250
  368MOL0     H48559   7.907   6.866  10.333  2.7538  0.4101 -1.7334
  368MOL0     H48560   7.605   6.951  10.676  0.5471 -3.0605 -1.2155
  368MOL0     H48561   7.382   7.003  10.781  0.2779 -0.5023  0.0963
  368MOL0     H48562   6.734   7.285  10.252 -2.2886  2.9404  1.5774
  368MOL0     H48563   6.961   7.285  10.182 -3.1568  1.8148 -1.4482
  368MOL0     H48564   7.448   7.107  10.395 -2.4859 -2.1231 -2.2744
  368MOL0     H48565   7.694   7.122  10.284 -0.1486 -0.6948  0.6617
  368MOL0     H48566   7.809   7.138  10.057 -2.5820  1.6260 -0.2036
  368MOL0     H48567   7.927   7.206  10.167  0.4248  0.4256 -0.5889
  368MOL0     H48568   7.973   7.378   9.973 -0.4870 -0.3103  0.6980
  368MOL0     H48569   8.012   7.205   9.949 -1.2706 -0.8712  0.6208
  368MOL0     H48570   7.788   7.180   9.836  2.1415 -1.2756  0.8543
  368MOL0     H48571   7.921   7.258   9.748 -0.6677  0.3148 -0.0969
  368MOL0     H48572   7.688   7.377   9.893 -0.6478  0.7731 -0.6848
  368MOL0     H48573   7.815   7.476   9.848  1.4057 -2.6256  1.7212
  368MOL0     H48574   7.607   7.459   9.478 -0.2481 -0.7330 -0.0004
  368MOL0     H48575   7.606   7.514  10.165  0.6787  0.3181  0.0642
  368MOL0     H48576   7.390   7.509  10.259  2.8572  0.9580 -0.4884
  369MOL0     O48577   7.652   7.019   5.477  0.2351  0.0260 -0.8065
  369MOL0     C48578   7.637   6.947   5.380 -0.5921  0.6801 -1.0651
  369MOL0     O48579   7.535   6.947   5.297  0.3381  0.5254 -0.2290
  369MOL0     C48580   7.414   6.975   5.351  0.0117  0.9380 -0.5853
  369MOL0     C48581   7.379   6.970   5.486  0.0290 -0.7631 -0.3388
  369MOL0     C48582   7.248   6.999   5.531  0.3478 -0.0649  0.1764
  369MOL0     C48583   7.147   7.021   5.432  0.2893 -0.2643 -0.0557
  369MOL0     O48584   7.015   7.048   5.467 -0.0232  1.1093  0.5886
  369MOL0     C48585   6.939   6.926   5.496  0.7297  0.5510 -0.2410
  369MOL0     C48586   6.789   6.958   5.470  0.1601  0.6446 -0.1582
  369MOL0     C48587   6.694   6.844   5.523 -0.0431 -0.3871 -0.4925
  369MOL0     C48588   6.557   6.905   5.509 -0.4361 -0.5417 -0.0423
  369MOL0     C48589   6.452   6.800   5.525 -0.7854 -0.3596 -0.9165
  369MOL0     C48590   6.309   6.842   5.509 -0.7682  0.2554  0.0101
  369MOL0     C48591   6.198   6.736   5.513 -0.5263 -0.7298  0.3872
  369MOL0     C48592   6.220   6.605   5.436  1.0427 -0.2577 -0.5673
  369MOL0     N48593   6.114   6.513   5.462  0.9994  0.8005  0.6640
  369MOL0     C48594   6.085   6.433   5.572  0.8051  0.1992 -1.0747
  369MOL0     C48595   5.966   6.377   5.546 -0.0375  0.2427 -0.0398
  369MOL0     C48596   5.887   6.302   5.647  0.1807  0.8467 -0.0049
  369MOL0     C48597   5.795   6.397   5.727 -0.0592  0.1409  0.7738
  369MOL0     C48598   5.725   6.331   5.847  0.4673  0.4444  0.4333
  369MOL0     C48599   5.594   6.401   5.895  0.1073 -0.5792  0.3094
  369MOL0     O48600   5.489   6.389   5.795 -0.0379  0.4195 -0.1628
  369MOL0     C48601   5.363   6.433   5.826 -0.3848 -1.1040 -0.0952
  369MOL0     C48602   5.261   6.400   5.737 -0.8207 -0.4796 -0.0635
  369MOL0     C48603   5.131   6.454   5.748 -1.2293  0.3871  0.1792
  369MOL0     C48604   5.097   6.542   5.852  0.0222 -0.1042  0.6914
  369MOL0     C48605   4.970   6.612   5.849  0.0424 -0.6545  0.5369
  369MOL0     O48606   4.966   6.736   5.899 -0.1982 -0.3797 -1.0715
  369MOL0     C48607   4.859   6.811   5.881 -0.0485  0.6821 -0.6440
  369MOL0     C48608   4.814   6.848   5.755 -0.2343 -0.1217 -0.0660
  369MOL0     C48609   4.689   6.900   5.735  0.6244 -0.3470  0.6116
  369MOL0     C48610   4.608   6.931   5.839 -0.7875  0.0974  0.3937
  369MOL0     O48611   4.480   6.964   5.812 -0.3465 -0.1523 -0.8395
  369MOL0     C48612   4.380   6.867   5.850 -0.8578  0.7611 -0.2383
  369MOL0     C48613   4.270   6.881   5.752 -0.2265 -0.7515  0.9758
  369MOL0     C48614   4.148   6.811   5.805  0.7244 -0.2155  0.0314
  369MOL0     C48615   4.017   6.851   5.732  0.1714  0.0229  0.8400
  369MOL0     C48616   4.022   6.815   5.582 -0.8201 -0.4157 -0.2558
  369MOL0     C48617   4.030   6.671   5.544 -0.0272 -0.9035 -0.1896
  369MOL0     C48618   3.917   6.588   5.608 -0.6681  0.0756  0.2103
  369MOL0     C48619   3.922   6.442   5.572  0.0621 -0.3791  0.9061
  369MOL0    Cl48620   3.774   6.371   5.630  0.3866 -0.0027 -0.0994
  369MOL0     C48621   4.650   6.905   5.974  0.2979 -0.8310 -0.1209
  369MOL0     C48622   4.771   6.843   5.989  0.3980  0.0781  0.6141
  369MOL0     O48623   4.872   6.549   5.796 -0.1377 -0.4549 -0.3382
  369MOL0     C48624   5.196   6.572   5.941 -1.3949 -0.3048 -0.1759
  369MOL0     C48625   5.331   6.525   5.935  1.3768  0.7201  0.3740
  369MOL0     N48626   5.932   6.407   5.416 -0.0548  0.2732 -1.1386
  369MOL0     N48627   6.014   6.487   5.371  0.7427 -0.0605 -0.3083
  369MOL0     C48628   7.182   7.026   5.295  0.1251  0.5805 -0.3069
  369MOL0     C48629   7.323   7.002   5.257 -0.3088 -0.6439  0.0417
  369MOL0     C48630   7.747   6.842   5.354 -0.0935  0.7586 -0.4025
  369MOL0     C48631   7.857   6.822   5.447  1.0098  0.1167 -0.3162
  369MOL0     C48632   7.946   6.719   5.423  0.5031  0.0859  0.5784
  369MOL0     C48633   7.928   6.627   5.321 -0.2748 -0.6431  0.2849
  369MOL0     O48634   8.005   6.509   5.319  1.0428 -0.6381 -0.9356
  369MOL0     C48635   8.101   6.486   5.426  0.7158  0.0936 -0.5598
  369MOL0     C48636   8.231   6.566   5.398  0.5593  0.5897  0.0364
  369MOL0     C48637   8.345   6.536   5.488 -0.0210  0.4443  0.6887
  369MOL0     C48638   8.444   6.647   5.477  0.9313 -0.2016 -0.4157
  369MOL0     C48639   8.554   6.613   5.562 -0.0549 -0.4955  0.5012
  369MOL0     C48640   8.647   6.601   5.640 -0.0964  0.3582 -0.0996
  369MOL0     C48641   7.822   6.646   5.229 -0.3703  0.0579 -0.0730
  369MOL0     C48642   7.740   6.761   5.246 -0.6972  0.6982  0.9650
  369MOL0     H48643   7.437   6.911   5.557  0.9663 -1.9145 -1.9938
  369MOL0     H48644   7.223   6.996   5.636 -0.3770 -1.6019 -0.0085
  369MOL0     H48645   6.942   6.896   5.601 -1.3614  1.8256  0.2641
  369MOL0     H48646   6.974   6.839   5.440 -2.0079 -2.8228  2.7278
  369MOL0     H48647   6.785   6.970   5.362 -0.5737 -1.0174 -0.3486
  369MOL0     H48648   6.767   7.051   5.524 -1.1441  1.6011 -2.2043
  369MOL0     H48649   6.715   6.826   5.629  1.2991 -0.7536 -0.7989
  369MOL0     H48650   6.703   6.753   5.464  1.2584 -1.1037  0.7322
  369MOL0     H48651   6.533   6.991   5.571 -0.5702 -1.5858  1.4031
  369MOL0     H48652   6.555   6.944   5.407  0.7668  1.6012  0.7113
  369MOL0     H48653   6.459   6.773   5.630 -1.8051  4.6710  0.7157
  369MOL0     H48654   6.466   6.716   5.456  0.2211 -1.0906  0.1554
  369MOL0     H48655   6.300   6.882   5.407  2.7280 -1.2139 -0.9966
  369MOL0     H48656   6.295   6.925   5.578 -1.5718  1.3722 -1.4237
  369MOL0     H48657   6.190   6.705   5.617 -1.1315 -0.6068  0.3814
  369MOL0     H48658   6.095   6.764   5.490 -0.8420 -0.3698  2.1248
  369MOL0     H48659   6.313   6.549   5.450 -0.2811 -1.7759  5.1310
  369MOL0     H48660   6.238   6.638   5.334  0.6480  5.0515  0.7952
  369MOL0     H48661   6.123   6.440   5.673 -0.9058 -0.8800 -0.3136
  369MOL0     H48662   5.957   6.279   5.728  0.1355  1.2551  0.1532
  369MOL0     H48663   5.814   6.229   5.610 -2.3376  2.6320  1.1394
  369MOL0     H48664   5.719   6.446   5.665  2.2788  2.2338 -0.6329
  369MOL0     H48665   5.860   6.479   5.760  0.2895  0.6183 -0.9923
  369MOL0     H48666   5.707   6.226   5.823  0.5808  0.1937  1.3763
  369MOL0     H48667   5.801   6.335   5.926 -0.4022 -1.0669  1.3980
  369MOL0     H48668   5.614   6.503   5.930 -2.7525  0.2478 -0.1358
  369MOL0     H48669   5.558   6.355   5.987  0.9094 -0.2685  0.7828
  369MOL0     H48670   5.278   6.333   5.653 -2.4539 -1.9380  0.7088
  369MOL0     H48671   5.060   6.421   5.673 -0.8269 -0.6754  0.2514
  369MOL0     H48672   4.869   6.808   5.670 -0.3890 -0.7269  0.1099
  369MOL0     H48673   4.649   6.918   5.636 -0.1857  3.0631  1.4296
  369MOL0     H48674   4.356   6.886   5.955 -0.9970  0.6043 -0.2427
  369MOL0     H48675   4.420   6.766   5.852  0.6483  1.2997 -1.1824
  369MOL0     H48676   4.307   6.849   5.654  2.9242  0.7270  1.5494
  369MOL0     H48677   4.243   6.987   5.746 -3.4597 -1.5624 -1.4594
  369MOL0     H48678   4.137   6.853   5.906 -1.5679 -0.4719 -0.0695
  369MOL0     H48679   4.156   6.703   5.818  0.6779 -0.0353  1.8149
  369MOL0     H48680   3.923   6.819   5.778 -0.9881  2.0080 -0.0098
  369MOL0     H48681   4.016   6.961   5.734  1.7321  0.0699  0.3528
  369MOL0     H48682   4.102   6.871   5.533 -2.7426  0.8577 -2.1182
  369MOL0     H48683   3.934   6.858   5.535 -0.3836  3.3208  1.9619
  369MOL0     H48684   4.130   6.633   5.567  0.0227 -2.7302 -2.9771
  369MOL0     H48685   4.017   6.671   5.435  0.7718  0.9898 -0.3254
  369MOL0     H48686   3.927   6.601   5.716 -2.5075  2.2996  0.1796
  369MOL0     H48687   3.817   6.628   5.587  0.0506  2.3054  0.7628
  369MOL0     H48688   4.003   6.383   5.615 -0.3557 -1.8314 -0.2385
  369MOL0     H48689   3.924   6.441   5.463  2.6300 -1.7328  0.8957
  369MOL0     H48690   4.587   6.924   6.060  1.4281  0.3101  0.4888
  369MOL0     H48691   4.801   6.819   6.091 -2.4283 -0.5220  1.4029
  369MOL0     H48692   5.180   6.640   6.024  0.6738 -1.1236  0.9610
  369MOL0     H48693   5.404   6.560   6.007  1.1069 -0.5864  1.3134
  369MOL0     H48694   7.110   7.026   5.214  0.9066 -3.3032 -1.2169
  369MOL0     H48695   7.360   7.003   5.155  2.1347  3.1776  0.7567
  369MOL0     H48696   7.875   6.882   5.536  0.1799 -0.1231  0.0229
  369MOL0     H48697   8.029   6.714   5.494  1.1197 -0.9564 -0.1872
  369MOL0     H48698   8.113   6.377   5.427 -0.1431 -0.0324 -1.6982
  369MOL0     H48699   8.061   6.514   5.523 -0.8894  0.3221 -1.2435
  369MOL0     H48700   8.255   6.536   5.296 -0.2872 -1.8918  0.5073
  369MOL0     H48701   8.213   6.674   5.399 -4.2092  0.0245 -0.5621
  369MOL0     H48702   8.393   6.438   5.479  0.6276  0.7476  0.7782
  369MOL0     H48703   8.310   6.543   5.591 -3.3700  2.1334 -0.4075
  369MOL0     H48704   8.490   6.646   5.378 -2.8166 -0.0449 -2.3422
  369MOL0     H48705   8.400   6.745   5.497 -3.2560 -1.9562 -0.0094
  369MOL0     H48706   8.723   6.574   5.711 -0.7661  0.4220  0.6584
  369MOL0     H48707   7.807   6.587   5.138  0.2145  1.1474 -0.9011
  369MOL0     H48708   7.659   6.769   5.175  0.1383 -1.9080 -0.4253
  370MOL0     O48709   2.312   2.197   0.040 -0.5093 -0.0789 -0.4863
  370MOL0     C48710   2.381   2.109   0.093  0.4571  0.7602 -0.7174
  370MOL0     O48711   2.338   2.027   0.191  0.2099 -0.4105  1.1696
  370MOL0     C48712   2.205   2.040   0.232 -0.3888 -0.3394  0.2399
  370MOL0     C48713   2.102   1.988   0.156 -0.0879 -0.4233 -0.1034
  370MOL0     C48714   1.970   2.001   0.204 -0.7381 -0.7010 -0.4650
  370MOL0     C48715   1.947   2.075   0.321 -0.4883  0.7217 -0.6846
  370MOL0     O48716   1.822   2.096   0.377 -0.2649  0.2560 -0.4042
  370MOL0     C48717   1.703   2.043   0.306 -0.3304 -0.4417  0.3256
  370MOL0     C48718   1.577   2.094   0.392 -0.1117  0.3463  0.2372
  370MOL0     C48719   1.461   2.004   0.364  0.2139 -0.3821  0.7661
  370MOL0     C48720   1.333   2.073   0.410  0.2944 -0.3215 -0.7854
  370MOL0     C48721   1.220   1.969   0.386 -0.3845  0.3861 -0.0996
  370MOL0     C48722   1.179   1.940   0.238  0.4309  0.6280  0.1495
  370MOL0     C48723   1.031   1.883   0.235  0.5989 -0.2995  0.9398
  370MOL0     C48724   0.999   1.804   0.104 -0.0364 -0.4993 -0.4758
  370MOL0     N48725   0.872   1.737   0.110  0.6122  0.4081  0.6111
  370MOL0     C48726   0.861   1.612   0.160 -0.0780  0.6189 -0.2176
  370MOL0     C48727   0.732   1.597   0.188  0.3809 -0.3529 -1.0975
  370MOL0     C48728   0.674   1.462   0.223  0.1869 -0.2702 -0.1755
  370MOL0     C48729   0.694   1.432   0.369 -0.0564 -1.0249  0.5517
  370MOL0     C48730   0.639   1.543   0.461 -0.0955 -0.2340 -0.1141
  370MOL0     C48731   0.621   1.509   0.607 -0.7385 -0.5441 -0.0068
  370MOL0     O48732   0.726   1.460   0.678 -0.5982 -0.2875  0.8138
  370MOL0     C48733   0.842   1.544   0.695  0.2628 -0.3868  0.2885
  370MOL0     C48734   0.845   1.684   0.679  0.0937 -0.3109  0.5123
  370MOL0     C48735   0.962   1.753   0.709 -0.6979 -0.0210 -0.3290
  370MOL0     C48736   1.077   1.688   0.766 -1.3158 -0.1311  0.2728
  370MOL0     C48737   1.201   1.776   0.807  0.1701  0.7628  0.2442
  370MOL0     O48738   1.195   1.911   0.810  0.6348 -0.2853  0.1161
  370MOL0     C48739   1.312   1.987   0.840  0.1047  0.2977  0.1951
  370MOL0     C48740   1.299   2.114   0.885 -0.0340  0.4441  0.4741
  370MOL0     C48741   1.403   2.197   0.911  0.8746  0.8267 -0.1993
  370MOL0     C48742   1.535   2.160   0.881  0.3044  0.8303 -0.2245
  370MOL0     O48743   1.623   2.261   0.895  0.2156 -0.3745  0.6023
  370MOL0     C48744   1.753   2.233   0.855  0.1354  0.6318 -0.0952
  370MOL0     C48745   1.846   2.358   0.857  0.2663 -0.2326 -0.7466
  370MOL0     C48746   1.987   2.329   0.812  0.1783 -0.1347 -0.0887
  370MOL0     C48747   2.081   2.442   0.829 -1.2249 -0.2496 -0.1014
  370MOL0     C48748   2.223   2.429   0.768 -0.8132  0.5891 -0.1676
  370MOL0     C48749   2.225   2.392   0.621  0.1561  0.6234  0.4802
  370MOL0     C48750   2.369   2.375   0.565 -0.1865  0.1107 -0.0136
  370MOL0     C48751   2.427   2.506   0.529 -1.1586  0.2335  0.8371
  370MOL0    Cl48752   2.581   2.478   0.437  0.3523 -0.4004  0.1512
  370MOL0     C48753   1.553   2.028   0.842 -0.0301 -0.0065 -0.2227
  370MOL0     C48754   1.442   1.948   0.820 -0.2237 -0.0042 -0.2039
  370MOL0     O48755   1.294   1.699   0.841 -0.7687 -0.1868 -0.0412
  370MOL0     C48756   1.063   1.547   0.791 -0.3949  0.1705 -1.5176
  370MOL0     C48757   0.950   1.478   0.750 -0.1490  0.3152  0.3094
  370MOL0     N48758   0.669   1.717   0.175  0.3368 -0.8471  0.1072
  370MOL0     N48759   0.745   1.796   0.109 -0.0370  0.2525  0.2884
  370MOL0     C48760   2.050   2.111   0.405 -0.2673  0.6607 -0.4147
  370MOL0     C48761   2.180   2.100   0.357  0.9500  0.6720 -0.3088
  370MOL0     C48762   2.518   2.087   0.045  0.4116 -0.1205  0.0553
  370MOL0     C48763   2.609   2.013   0.117  1.0000 -0.3161  0.5706
  370MOL0     C48764   2.736   1.974   0.064 -0.3781 -0.0477  0.4491
  370MOL0     C48765   2.764   2.018  -0.064  0.5267 -0.4144  1.5168
  370MOL0     O48766   2.870   1.956  -0.116  0.0589 -0.0382 -0.3416
  370MOL0     C48767   2.965   2.040  -0.182  0.2083 -0.2308  0.3885
  370MOL0     C48768   3.105   2.017  -0.122 -0.3355 -0.0386  0.8186
  370MOL0     C48769   3.167   1.877  -0.155 -0.1340 -0.0552 -0.4603
  370MOL0     C48770   3.296   1.853  -0.074 -0.1002 -0.4920 -0.6644
  370MOL0     C48771   3.389   1.966  -0.047 -0.4309  0.5690  0.3788
  370MOL0     C48772   3.486   2.040  -0.027 -0.9307 -0.0467  0.0626
  370MOL0     C48773   2.669   2.090  -0.141  0.3817 -0.1230  0.2301
  370MOL0     C48774   2.548   2.132  -0.083 -0.1129 -0.2842  0.1534
  370MOL0     H48775   2.119   1.929   0.067  1.3427  1.0275 -0.8619
  370MOL0     H48776   1.890   1.957   0.145 -2.2261  1.3121 -0.0600
  370MOL0     H48777   1.717   1.935   0.302  0.0979 -0.3555 -1.1402
  370MOL0     H48778   1.700   2.080   0.203 -0.7558  0.8715  0.7828
  370MOL0     H48779   1.573   2.202   0.377  1.2944  0.1531 -1.9852
  370MOL0     H48780   1.606   2.080   0.497  1.3113  0.0411 -0.1717
  370MOL0     H48781   1.473   1.912   0.423  3.2965  1.3034  3.0496
  370MOL0     H48782   1.452   1.986   0.257  0.5345  2.3616  0.2062
  370MOL0     H48783   1.350   2.098   0.515 -1.1123 -0.6369 -0.4581
  370MOL0     H48784   1.308   2.170   0.366 -3.1190 -1.5627 -1.9379
  370MOL0     H48785   1.126   2.003   0.432 -0.2858  0.1469  0.2898
  370MOL0     H48786   1.248   1.871   0.428  0.7178  0.5247 -0.4793
  370MOL0     H48787   1.251   1.869   0.197 -0.9757 -0.5018 -0.4200
  370MOL0     H48788   1.183   2.031   0.177  2.2517  0.9687  0.7099
  370MOL0     H48789   1.013   1.818   0.321 -2.5582 -2.9521 -1.4363
  370MOL0     H48790   0.977   1.978   0.237  1.9211  0.5224 -0.4684
  370MOL0     H48791   1.078   1.729   0.095 -0.5874 -1.4617  1.9018
  370MOL0     H48792   1.012   1.880   0.027 -0.1598  1.1066  1.0214
  370MOL0     H48793   0.927   1.526   0.157  1.7058  1.8496  1.5255
  370MOL0     H48794   0.719   1.380   0.166 -1.1937 -1.2511  0.1223
  370MOL0     H48795   0.566   1.470   0.208  0.3633  4.4887 -0.5582
  370MOL0     H48796   0.801   1.429   0.390  0.0979  0.2582  0.0325
  370MOL0     H48797   0.653   1.337   0.406 -2.0091 -0.3177  0.3478
  370MOL0     H48798   0.685   1.641   0.451 -2.1010  1.0844  2.2013
  370MOL0     H48799   0.532   1.548   0.439 -1.3090 -0.9662  4.5003
  370MOL0     H48800   0.534   1.443   0.614 -2.6296  1.6657 -1.3716
  370MOL0     H48801   0.585   1.596   0.662 -2.1830 -0.7074 -0.6476
  370MOL0     H48802   0.765   1.738   0.630  0.3922 -0.9397 -0.6909
  370MOL0     H48803   0.955   1.861   0.702 -1.0987  0.1055  1.5561
  370MOL0     H48804   1.199   2.146   0.915 -0.7812  1.8173 -3.0206
  370MOL0     H48805   1.391   2.295   0.956  1.0519  0.5018  0.5703
  370MOL0     H48806   1.757   2.203   0.750  3.6771 -2.2697  0.6593
  370MOL0     H48807   1.793   2.150   0.915 -1.7222 -2.0686 -2.3504
  370MOL0     H48808   1.860   2.392   0.960  1.4089 -1.5172 -0.4610
  370MOL0     H48809   1.794   2.429   0.792 -1.6585 -1.8161 -1.0284
  370MOL0     H48810   1.983   2.309   0.704  0.9726  3.0977 -0.8325
  370MOL0     H48811   2.017   2.232   0.853 -0.5464 -0.3509 -0.0606
  370MOL0     H48812   2.032   2.532   0.791 -1.9238  0.8981  3.1679
  370MOL0     H48813   2.099   2.469   0.934  0.4619  2.1439 -0.9039
  370MOL0     H48814   2.272   2.350   0.826 -1.0379  0.8475  0.3710
  370MOL0     H48815   2.286   2.517   0.784  7.5067 -3.9643 -1.8413
  370MOL0     H48816   2.179   2.475   0.568  0.9060  1.1242  0.5843
  370MOL0     H48817   2.155   2.311   0.600  1.0452 -0.2192  0.6979
  370MOL0     H48818   2.448   2.333   0.628 -1.7056 -2.8202  0.1066
  370MOL0     H48819   2.356   2.310   0.477  0.7231 -2.3831  1.5785
  370MOL0     H48820   2.454   2.565   0.617 -1.6343 -0.3414  1.3874
  370MOL0     H48821   2.366   2.565   0.460 -2.4240 -1.9851 -0.0689
  370MOL0     H48822   1.655   1.992   0.831  0.8715  1.4509  2.3905
  370MOL0     H48823   1.453   1.848   0.779 -1.3150  0.5189 -1.8451
  370MOL0     H48824   1.144   1.498   0.843 -2.3009 -0.5882  0.9183
  370MOL0     H48825   0.958   1.370   0.761  2.0357  0.1633 -1.8627
  370MOL0     H48826   2.024   2.145   0.505 -1.0013 -0.9921 -0.0074
  370MOL0     H48827   2.269   2.133   0.410 -0.8320  1.0202  2.6572
  370MOL0     H48828   2.571   1.981   0.213 -1.9124  0.8381 -0.1014
  370MOL0     H48829   2.809   1.925   0.128  1.2080 -0.1256 -1.3519
  370MOL0     H48830   2.945   2.147  -0.172 -0.3591 -0.4420  1.5779
  370MOL0     H48831   2.967   2.021  -0.290  2.9873  1.3269  0.0478
  370MOL0     H48832   3.169   2.086  -0.177  0.4435 -1.8369 -0.6250
  370MOL0     H48833   3.101   2.035  -0.014 -1.3650  0.3036  0.7418
  370MOL0     H48834   3.186   1.869  -0.263  0.0407  1.7619 -0.5911
  370MOL0     H48835   3.090   1.804  -0.129 -0.1195  0.6301  1.6335
  370MOL0     H48836   3.266   1.795   0.014 -0.2010  1.0030  0.3158
  370MOL0     H48837   3.351   1.781  -0.135 -0.6099 -0.3439 -1.3107
  370MOL0     H48838   3.569   2.100   0.004 -1.3691  0.8469 -0.4773
  370MOL0     H48839   2.677   2.127  -0.243 -1.0848  1.9666  0.8015
  370MOL0     H48840   2.479   2.175  -0.156  0.2186  1.2302  0.6957
  371MOL0     O48841   8.104   7.698   8.489 -0.3563 -0.7743  0.0028
  371MOL0     C48842   8.151   7.592   8.518  0.5717  0.0603  0.6162
  371MOL0     O48843   8.084   7.498   8.581 -0.1787  0.3236  0.3859
  371MOL0     C48844   7.968   7.526   8.643 -0.6219 -0.0403  0.5682
  371MOL0     C48845   7.953   7.626   8.745  0.1788 -0.7149 -0.7355
  371MOL0     C48846   7.827   7.633   8.804  0.2112  0.3743  0.8617
  371MOL0     C48847   7.720   7.544   8.767  0.1997 -0.0599 -0.1185
  371MOL0     O48848   7.601   7.575   8.842 -0.3473 -0.3561  0.5691
  371MOL0     C48849   7.482   7.506   8.806  0.0994  0.3107 -0.4686
  371MOL0     C48850   7.360   7.550   8.876  0.3892 -0.0191  0.5776
  371MOL0     C48851   7.235   7.465   8.829  0.1755 -0.5181  0.6540
  371MOL0     C48852   7.116   7.480   8.930  0.3265 -0.8361  0.7355
  371MOL0     C48853   6.981   7.387   8.894 -0.3037 -0.2784  0.3273
  371MOL0     C48854   7.011   7.250   8.951 -0.6017 -0.1331 -0.3834
  371MOL0     C48855   6.920   7.145   8.901  0.6255  0.3183  0.1560
  371MOL0     C48856   6.923   7.010   8.965 -0.5296 -0.2235 -0.4184
  371MOL0     N48857   6.837   6.914   8.892 -0.1780 -0.4972 -0.5964
  371MOL0     C48858   6.723   6.952   8.815  0.4064  0.7535 -0.3381
  371MOL0     C48859   6.691   6.842   8.746  0.1797 -0.9183  0.4317
  371MOL0     C48860   6.593   6.832   8.627 -0.1420 -0.2844 -0.9702
  371MOL0     C48861   6.451   6.795   8.670  0.3712  0.1474 -0.2267
  371MOL0     C48862   6.435   6.637   8.663  0.8784  0.2170  0.4333
  371MOL0     C48863   6.319   6.586   8.757  0.5053 -0.8293 -0.3122
  371MOL0     O48864   6.192   6.645   8.706  0.3237  0.4778 -0.3044
  371MOL0     C48865   6.074   6.603   8.761 -0.6519 -0.1712 -0.0541
  371MOL0     C48866   5.968   6.675   8.711 -0.1524 -0.7760 -0.4096
  371MOL0     C48867   5.829   6.657   8.744  0.2784 -0.7360 -0.3837
  371MOL0     C48868   5.801   6.558   8.839 -0.4737  0.3662 -1.0093
  371MOL0     C48869   5.662   6.524   8.883  0.7220 -0.1479 -0.3204
  371MOL0     O48870   5.567   6.616   8.856  0.4952  0.9430  0.1148
  371MOL0     C48871   5.437   6.585   8.892 -0.1346  0.8883 -0.5230
  371MOL0     C48872   5.362   6.668   8.980 -0.0455  0.3620  0.2332
  371MOL0     C48873   5.221   6.648   8.989 -0.6464 -0.4803  0.0352
  371MOL0     C48874   5.153   6.545   8.921  0.2808 -0.4597  0.4845
  371MOL0     O48875   5.023   6.515   8.944  0.0591 -0.0629 -0.0809
  371MOL0     C48876   4.944   6.485   8.826  0.3501  0.6307 -0.1138
  371MOL0     C48877   4.796   6.510   8.871  0.0044  0.1365  0.3355
  371MOL0     C48878   4.692   6.479   8.757 -0.3782  0.2520 -0.4110
  371MOL0     C48879   4.559   6.529   8.805 -0.8708  0.0214 -0.9615
  371MOL0     C48880   4.502   6.443   8.921 -0.1721 -0.4745 -0.4422
  371MOL0     C48881   4.359   6.494   8.977  0.1435  0.5892  0.3579
  371MOL0     C48882   4.248   6.497   8.869  0.2145  0.0728 -0.3156
  371MOL0     C48883   4.109   6.499   8.932  0.0121 -0.7053  0.2695
  371MOL0    Cl48884   4.078   6.346   9.011 -0.2423 -0.0825 -0.2150
  371MOL0     C48885   5.232   6.462   8.841  0.6082 -0.3464 -0.9759
  371MOL0     C48886   5.369   6.478   8.820 -0.7267  1.2095 -0.0854
  371MOL0     O48887   5.647   6.410   8.920 -0.5960  0.5955 -0.8610
  371MOL0     C48888   5.914   6.486   8.893 -0.0744  0.8050  0.1990
  371MOL0     C48889   6.050   6.512   8.861  0.8856  0.3141 -0.6788
  371MOL0     N48890   6.771   6.743   8.787 -0.5858  0.2085  0.5712
  371MOL0     N48891   6.863   6.785   8.868  0.0663 -0.6377  0.4049
  371MOL0     C48892   7.738   7.443   8.675 -0.4554 -1.0127  0.5199
  371MOL0     C48893   7.859   7.446   8.612  0.1881  0.6136 -0.2282
  371MOL0     C48894   8.274   7.542   8.449 -0.4283 -0.1259  0.5430
  371MOL0     C48895   8.314   7.409   8.458  0.4860 -0.2849  0.2197
  371MOL0     C48896   8.423   7.347   8.399  0.7134  1.1410  0.3919
  371MOL0     C48897   8.508   7.425   8.329 -0.5066  0.3447  0.3506
  371MOL0     O48898   8.621   7.373   8.271 -0.2184 -0.2382 -0.0917
  371MOL0     C48899   8.693   7.267   8.329  0.7178  0.3590 -0.8114
  371MOL0     C48900   8.826   7.235   8.263  0.0192  0.1382  0.3302
  371MOL0     C48901   8.807   7.221   8.113  0.0330 -0.3739  0.2420
  371MOL0     C48902   8.910   7.134   8.032 -0.6377  0.8688  0.0799
  371MOL0     C48903   9.050   7.144   8.081 -0.4289  0.8557 -0.2745
  371MOL0     C48904   9.170   7.156   8.110 -0.9657 -0.6382  0.1658
  371MOL0     C48905   8.481   7.560   8.318  0.0861 -0.3764  0.5629
  371MOL0     C48906   8.367   7.622   8.383 -0.6952  0.2233  0.0071
  371MOL0     H48907   8.035   7.693   8.768 -1.0581  0.8203 -0.6122
  371MOL0     H48908   7.801   7.708   8.877 -2.4384  0.5816 -0.1951
  371MOL0     H48909   7.491   7.398   8.796  0.7436  0.3248 -0.1027
  371MOL0     H48910   7.459   7.545   8.706 -3.3084 -0.2072 -0.0136
  371MOL0     H48911   7.349   7.659   8.877 -0.6644 -0.1187  2.0327
  371MOL0     H48912   7.371   7.515   8.979  0.2511 -1.6551  0.0699
  371MOL0     H48913   7.275   7.363   8.822  3.1691  0.6559 -3.0596
  371MOL0     H48914   7.206   7.494   8.728 -1.4900  0.0323  1.2617
  371MOL0     H48915   7.156   7.459   9.030 -0.8513 -1.2695  1.1410
  371MOL0     H48916   7.080   7.583   8.923 -0.9274 -1.2099  1.4324
  371MOL0     H48917   6.950   7.390   8.789  0.6895  0.2061  0.0418
  371MOL0     H48918   6.896   7.426   8.951 -0.6070  0.3097 -0.5038
  371MOL0     H48919   7.021   7.256   9.060  0.4555  0.8926 -0.5083
  371MOL0     H48920   7.107   7.224   8.905  0.6102  2.9632  0.1781
  371MOL0     H48921   6.818   7.185   8.903  0.5213  0.3582 -2.6358
  371MOL0     H48922   6.946   7.132   8.796 -4.7433 -2.8878 -1.1502
  371MOL0     H48923   6.893   7.009   9.070 -2.9314  1.7379 -1.0096
  371MOL0     H48924   7.027   6.982   8.944 -0.1344  1.4259 -0.7799
  371MOL0     H48925   6.677   7.049   8.799 -0.5592  0.4653  0.5907
  371MOL0     H48926   6.623   6.762   8.548  2.8867  0.6117 -0.7141
  371MOL0     H48927   6.593   6.926   8.571  0.2483  0.5661  0.4051
  371MOL0     H48928   6.377   6.842   8.604 -1.8783  0.3055  2.2201
  371MOL0     H48929   6.436   6.832   8.772  2.6108 -0.6787  0.4641
  371MOL0     H48930   6.399   6.604   8.565 -3.8530  1.7212  1.3818
  371MOL0     H48931   6.523   6.579   8.691  1.9036  1.8332  0.7065
  371MOL0     H48932   6.355   6.615   8.857  0.9549 -4.4069  0.6866
  371MOL0     H48933   6.325   6.477   8.751  1.7714 -0.7428 -0.8004
  371MOL0     H48934   5.973   6.760   8.644  0.5646  1.1950  2.0151
  371MOL0     H48935   5.749   6.717   8.701 -2.7054 -1.4974  3.6034
  371MOL0     H48936   5.413   6.750   9.029  0.6985  0.3664 -0.5385
  371MOL0     H48937   5.162   6.710   9.056 -1.6428 -2.1706  0.7996
  371MOL0     H48938   4.955   6.383   8.789 -1.7335  0.3820 -0.1840
  371MOL0     H48939   4.962   6.554   8.743 -0.4483  2.7954  1.4147
  371MOL0     H48940   4.791   6.618   8.888 -0.8313  0.3036 -0.8402
  371MOL0     H48941   4.774   6.457   8.965  0.9112 -0.1767  0.3782
  371MOL0     H48942   4.687   6.372   8.740 -0.9801  0.5414 -2.2001
  371MOL0     H48943   4.739   6.524   8.669  0.5855 -0.7566 -0.4301
  371MOL0     H48944   4.573   6.630   8.845 -1.3252 -0.1198 -0.4363
  371MOL0     H48945   4.493   6.532   8.717  0.9052 -1.4720 -2.4160
  371MOL0     H48946   4.572   6.444   9.006  0.7627  2.0495 -1.1423
  371MOL0     H48947   4.485   6.339   8.894 -1.4433 -0.6593  0.9060
  371MOL0     H48948   4.374   6.594   9.020  2.2361  1.0582 -1.3217
  371MOL0     H48949   4.328   6.426   9.057  1.5450 -2.2316 -1.3342
  371MOL0     H48950   4.253   6.589   8.810 -0.2438 -1.4514 -2.8401
  371MOL0     H48951   4.253   6.417   8.795 -0.7336  2.0432 -2.6415
  371MOL0     H48952   4.035   6.505   8.852  1.1692 -0.5178 -0.8244
  371MOL0     H48953   4.095   6.586   8.998 -5.3731 -1.6470  0.7971
  371MOL0     H48954   5.187   6.374   8.797 -0.3442 -0.5553  0.3256
  371MOL0     H48955   5.417   6.399   8.763 -1.4490 -0.3098  1.3229
  371MOL0     H48956   5.903   6.403   8.963  1.8842  0.8859  0.6516
  371MOL0     H48957   6.132   6.465   8.913  1.2507  1.9547  0.2744
  371MOL0     H48958   7.652   7.385   8.644 -3.5759  1.4003  3.7499
  371MOL0     H48959   7.873   7.359   8.548  2.0178  1.1049 -0.5390
  371MOL0     H48960   8.250   7.337   8.507 -2.1566 -0.0042 -2.4821
  371MOL0     H48961   8.439   7.241   8.416 -2.9770  0.4507  0.4311
  371MOL0     H48962   8.638   7.173   8.320  0.3684  0.5810 -1.0031
  371MOL0     H48963   8.710   7.280   8.436  0.1502  0.2763 -0.7055
  371MOL0     H48964   8.896   7.317   8.284  0.6375  0.2163 -1.8053
  371MOL0     H48965   8.855   7.141   8.309 -2.6836 -1.0680 -0.2407
  371MOL0     H48966   8.799   7.321   8.070  2.4528 -0.3990 -0.4565
  371MOL0     H48967   8.712   7.179   8.080  1.2956 -1.5291 -2.2038
  371MOL0     H48968   8.876   7.031   8.048  0.5574  0.3915 -0.2769
  371MOL0     H48969   8.911   7.159   7.926 -2.5398 -3.0752 -1.0815
  371MOL0     H48970   9.274   7.172   8.130 -1.2359  0.7452  0.6068
  371MOL0     H48971   8.541   7.620   8.250  1.0937 -1.1493  0.7448
  371MOL0     H48972   8.353   7.729   8.370  3.0638  0.7125 -1.1550
  372MOL0     O48973   2.481   5.086   8.561  0.4618 -0.5091 -0.8608
  372MOL0     C48974   2.523   5.198   8.546  0.4401 -1.1694  0.3274
  372MOL0     O48975   2.461   5.307   8.487 -0.5522 -0.2139  0.1671
  372MOL0     C48976   2.329   5.315   8.463 -0.3940 -0.7456  0.2263
  372MOL0     C48977   2.293   5.412   8.368 -0.2916  0.8967 -0.1886
  372MOL0     C48978   2.159   5.442   8.353  0.1967  0.9891  0.5405
  372MOL0     C48979   2.051   5.359   8.404 -0.7604 -0.6776 -0.5459
  372MOL0     O48980   1.925   5.394   8.372  0.7269 -0.0194  0.0796
  372MOL0     C48981   1.829   5.283   8.367  0.4135 -0.0986 -0.2012
  372MOL0     C48982   1.731   5.319   8.256  0.5209 -0.6006 -0.1142
  372MOL0     C48983   1.644   5.214   8.195  0.3178  0.0519 -0.1712
  372MOL0     C48984   1.537   5.265   8.100  0.2606  0.7142 -0.2658
  372MOL0     C48985   1.439   5.368   8.166  0.2801  0.1517  0.4215
  372MOL0     C48986   1.311   5.407   8.094 -0.4560  0.3572 -0.0947
  372MOL0     C48987   1.257   5.528   8.168 -0.2054 -0.9412  0.2563
  372MOL0     C48988   1.126   5.577   8.107 -0.2410 -0.0424 -0.0974
  372MOL0     N48989   1.109   5.719   8.127 -0.6338 -0.5446 -0.5444
  372MOL0     C48990   1.145   5.817   8.029 -0.1920  0.4063 -0.5521
  372MOL0     C48991   1.091   5.935   8.078  0.6419  0.8128  0.9426
  372MOL0     C48992   1.102   6.076   8.042 -0.2956  0.4017  0.1304
  372MOL0     C48993   0.961   6.132   8.049  0.1264  0.2166  0.2302
  372MOL0     C48994   0.958   6.284   8.017  0.8964  0.5316 -0.1924
  372MOL0     C48995   0.815   6.356   8.055  0.2139 -0.1949 -0.8754
  372MOL0     O48996   0.792   6.339   8.197 -0.3618  0.0761 -1.0708
  372MOL0     C48997   0.675   6.376   8.253  0.2248 -0.2355 -0.5391
  372MOL0     C48998   0.659   6.354   8.392  0.2077 -0.2393  0.0263
  372MOL0     C48999   0.542   6.381   8.456  1.1601 -0.1071 -0.2798
  372MOL0     C49000   0.439   6.445   8.377  0.5737 -0.8137  0.2675
  372MOL0     C49001   0.314   6.494   8.441 -0.9512 -0.0796  0.1030
  372MOL0     O49002   0.263   6.603   8.396 -0.5899  0.3919 -0.5756
  372MOL0     C49003   0.138   6.651   8.433  0.0836 -0.6326  0.0365
  372MOL0     C49004   0.114   6.787   8.457  0.0105 -0.4035  0.5183
  372MOL0     C49005  -0.006   6.839   8.505 -0.0959  0.2112  0.7317
  372MOL0     C49006  -0.118   6.748   8.518  0.2941  0.0321 -0.1019
  372MOL0     O49007  -0.241   6.794   8.575 -0.6399  0.8123  0.9902
  372MOL0     C49008  -0.369   6.722   8.559 -0.2499  0.0923  0.0450
  372MOL0     C49009  -0.477   6.804   8.643 -0.5249  0.4561  0.2863
  372MOL0     C49010  -0.615   6.736   8.626  0.3499  0.0920 -0.3113
  372MOL0     C49011  -0.715   6.795   8.725  0.1949  0.0720 -0.0765
  372MOL0     C49012  -0.789   6.672   8.779  0.8756  0.1721 -0.4946
  372MOL0     C49013  -0.911   6.727   8.856 -0.2011  0.4405 -0.7235
  372MOL0     C49014  -1.024   6.616   8.876  0.0502  0.3061 -1.0143
  372MOL0     C49015  -1.141   6.672   8.952  0.1538  0.0104 -0.1451
  372MOL0    Cl49016  -1.250   6.541   9.016 -0.1535 -0.1517  0.2018
  372MOL0     C49017  -0.097   6.616   8.489  0.0490  0.9567  0.8779
  372MOL0     C49018   0.023   6.574   8.428  0.4066  0.4833  0.6193
  372MOL0     O49019   0.272   6.422   8.527 -0.1736 -0.4890 -0.0150
  372MOL0     C49020   0.453   6.473   8.242  0.8022  0.3629  0.7509
  372MOL0     C49021   0.570   6.425   8.174 -0.5423 -0.9750 -0.0368
  372MOL0     N49022   1.035   5.909   8.204  0.3649 -0.4733 -0.4784
  372MOL0     N49023   1.042   5.777   8.228 -0.1977 -0.7398 -0.0068
  372MOL0     C49024   2.092   5.243   8.485 -0.2272 -0.1222  0.3480
  372MOL0     C49025   2.232   5.229   8.513  0.5533 -0.5680 -0.5701
  372MOL0     C49026   2.656   5.220   8.599 -0.4727 -0.4871  0.4881
  372MOL0     C49027   2.707   5.346   8.616  0.8155  0.0124 -0.3570
  372MOL0     C49028   2.836   5.364   8.663 -0.5379 -0.4628 -0.4045
  372MOL0     C49029   2.915   5.263   8.710  0.1665 -0.0584  1.0717
  372MOL0     O49030   3.042   5.289   8.762  0.1493 -0.2466 -0.0925
  372MOL0     C49031   3.082   5.422   8.801 -0.8714 -0.2802  0.1980
  372MOL0     C49032   3.204   5.456   8.710  0.6205  0.1671 -0.3747
  372MOL0     C49033   3.147   5.484   8.571 -0.2983 -0.2973 -0.0867
  372MOL0     C49034   3.245   5.551   8.479 -0.9266  0.6724  0.1411
  372MOL0     C49035   3.357   5.462   8.446 -0.9167  0.0373  0.7029
  372MOL0     C49036   3.443   5.388   8.418 -0.5597  0.6552 -0.0541
  372MOL0     C49037   2.868   5.129   8.691 -0.1784 -0.5073  1.1434
  372MOL0     C49038   2.735   5.109   8.631 -0.6254  0.3146 -0.1225
  372MOL0     H49039   2.378   5.467   8.329  1.5552  0.1512  2.5295
  372MOL0     H49040   2.121   5.517   8.285  0.5607  0.7529  0.0687
  372MOL0     H49041   1.789   5.279   8.468  1.2830 -0.3141  0.1372
  372MOL0     H49042   1.874   5.184   8.356  3.3668  1.2688 -1.6769
  372MOL0     H49043   1.786   5.369   8.175  1.4602 -1.2023  0.1362
  372MOL0     H49044   1.664   5.393   8.300 -0.2882 -0.6457 -1.2311
  372MOL0     H49045   1.589   5.179   8.283  0.2180  3.0444  1.0733
  372MOL0     H49046   1.707   5.135   8.154 -0.3986 -0.0973 -1.0341
  372MOL0     H49047   1.593   5.296   8.011  1.5549 -0.7666  0.0043
  372MOL0     H49048   1.483   5.180   8.056  0.1198 -0.7182  2.4796
  372MOL0     H49049   1.492   5.463   8.176 -0.9340  1.0875 -1.4849
  372MOL0     H49050   1.412   5.335   8.267  0.2156  2.0940  1.0685
  372MOL0     H49051   1.241   5.322   8.093  0.0838 -0.1419  1.3607
  372MOL0     H49052   1.328   5.442   7.992 -1.0118  1.1377  0.0704
  372MOL0     H49053   1.247   5.518   8.277 -2.2573 -0.1225  0.1895
  372MOL0     H49054   1.329   5.609   8.149 -0.2102 -0.9230  0.3139
  372MOL0     H49055   1.047   5.511   8.145  0.4093 -0.8047 -0.0439
  372MOL0     H49056   1.132   5.557   8.000  0.1678  2.3873 -0.5875
  372MOL0     H49057   1.195   5.791   7.937  1.1811  0.3084  0.1982
  372MOL0     H49058   1.156   6.087   7.948  0.3741  1.5134  0.6164
  372MOL0     H49059   1.169   6.120   8.117  1.1462 -2.8985  0.9704
  372MOL0     H49060   0.920   6.126   8.150  1.2936  0.7876  0.7554
  372MOL0     H49061   0.898   6.079   7.977  4.2554 -2.0297 -2.1030
  372MOL0     H49062   1.040   6.329   8.073  2.7226 -3.5857  0.8581
  372MOL0     H49063   0.981   6.289   7.910  0.3378  1.5451 -0.2763
  372MOL0     H49064   0.743   6.308   7.988 -0.2623  1.8422 -1.9150
  372MOL0     H49065   0.816   6.466   8.048 -0.2494  0.0854  2.2820
  372MOL0     H49066   0.741   6.308   8.447 -0.6079  0.9883  2.4134
  372MOL0     H49067   0.535   6.361   8.562 -2.2536  2.1752  0.1031
  372MOL0     H49068   0.197   6.852   8.433 -0.7292 -0.0142 -1.1148
  372MOL0     H49069  -0.024   6.944   8.525 -1.6395  0.1383 -0.1398
  372MOL0     H49070  -0.372   6.620   8.597  2.6578 -1.1189 -2.5258
  372MOL0     H49071  -0.402   6.714   8.455 -3.3356 -5.6704  1.0841
  372MOL0     H49072  -0.477   6.903   8.596 -0.1071  1.6008  2.5406
  372MOL0     H49073  -0.444   6.796   8.747 -0.9757 -2.2671  0.2896
  372MOL0     H49074  -0.609   6.628   8.639  3.1115  0.3739  1.7260
  372MOL0     H49075  -0.654   6.758   8.526  0.3929  1.5427 -0.0322
  372MOL0     H49076  -0.669   6.842   8.812 -1.2026 -1.2456  1.4513
  372MOL0     H49077  -0.776   6.872   8.677  0.2818  0.1759 -0.0205
  372MOL0     H49078  -0.721   6.612   8.840  0.4752  1.2140  1.0356
  372MOL0     H49079  -0.829   6.609   8.699  1.8181  0.3686 -1.1329
  372MOL0     H49080  -0.967   6.808   8.808  0.9397  0.6336 -1.7858
  372MOL0     H49081  -0.878   6.765   8.954  4.3172 -0.5168 -1.6179
  372MOL0     H49082  -1.050   6.568   8.781 -2.6493  0.1597 -0.2802
  372MOL0     H49083  -0.987   6.543   8.949  0.0528  0.5553 -0.7637
  372MOL0     H49084  -1.198   6.732   8.881 -0.6794  0.8635  1.2180
  372MOL0     H49085  -1.104   6.734   9.034  0.6680  2.0207 -1.8235
  372MOL0     H49086  -0.178   6.545   8.505 -0.3216  1.6104  2.0353
  372MOL0     H49087   0.035   6.472   8.391  3.8095  1.2814 -0.8566
  372MOL0     H49088   0.380   6.520   8.176  1.6664 -1.9390 -2.0667
  372MOL0     H49089   0.588   6.435   8.067 -1.0704 -2.7800 -0.3403
  372MOL0     H49090   2.030   5.166   8.530 -3.3410  1.1340 -1.4229
  372MOL0     H49091   2.268   5.160   8.589 -0.7144  1.8391  2.4417
  372MOL0     H49092   2.648   5.434   8.590  0.7025  0.5329  1.4873
  372MOL0     H49093   2.862   5.470   8.671  2.7392 -0.8232 -3.6860
  372MOL0     H49094   3.121   5.416   8.903  3.0115 -0.7571 -1.1269
  372MOL0     H49095   3.008   5.500   8.784 -2.0647 -1.9569 -3.1463
  372MOL0     H49096   3.249   5.548   8.748  0.1508  1.2148 -2.2405
  372MOL0     H49097   3.288   5.386   8.706  0.8890  0.5287 -1.5319
  372MOL0     H49098   3.069   5.559   8.583  1.8695  1.8653  1.6615
  372MOL0     H49099   3.119   5.388   8.527  2.2502 -0.2537 -2.0776
  372MOL0     H49100   3.178   5.572   8.395  1.0603  0.0787 -1.6804
  372MOL0     H49101   3.276   5.652   8.509  1.2322 -0.1840  1.0390
  372MOL0     H49102   3.516   5.313   8.397 -0.1745  0.8913  0.4283
  372MOL0     H49103   2.918   5.039   8.724  0.4708 -0.0120  1.5275
  372MOL0     H49104   2.711   5.004   8.617  2.7093 -0.3001 -2.5510
  373MOL0     O49105   5.949   8.104   7.451 -0.1345  0.3951 -0.3586
  373MOL0     C49106   6.001   8.042   7.551  0.2246 -0.2574  0.7229
  373MOL0     O49107   5.927   8.026   7.673 -0.2571 -0.2413 -0.1118
  373MOL0     C49108   5.791   8.065   7.667  0.1305  0.1201  0.1695
  373MOL0     C49109   5.702   7.979   7.728 -0.0948 -0.3519  0.3347
  373MOL0     C49110   5.570   8.015   7.749 -0.5427 -0.2020  0.1070
  373MOL0     C49111   5.523   8.149   7.723  0.6841  0.0406  0.4582
  373MOL0     O49112   5.398   8.182   7.772  0.0048 -0.4088  0.0069
  373MOL0     C49113   5.356   8.322   7.755  0.0328  0.7968 -0.0773
  373MOL0     C49114   5.210   8.329   7.796 -0.5756  0.0526 -0.7004
  373MOL0     C49115   5.129   8.225   7.725  0.9135  0.0842 -0.1366
  373MOL0     C49116   4.980   8.260   7.732  0.3473  0.4948  0.3606
  373MOL0     C49117   4.893   8.160   7.653 -0.0817  0.5953 -0.2118
  373MOL0     C49118   4.913   8.174   7.502  0.3106  0.8519  0.3166
  373MOL0     C49119   4.841   8.068   7.412  0.4861  0.1951 -0.3755
  373MOL0     C49120   4.850   8.091   7.259  0.8878 -0.4098  0.2140
  373MOL0     N49121   4.763   8.204   7.227  0.1913 -0.3110 -0.1281
  373MOL0     C49122   4.632   8.198   7.208  0.1693 -0.0405 -0.3419
  373MOL0     C49123   4.597   8.318   7.140 -1.1385 -0.7171 -0.2479
  373MOL0     C49124   4.459   8.346   7.089 -0.0079  0.3263  0.6757
  373MOL0     C49125   4.365   8.384   7.196  0.5311 -0.9642 -1.0588
  373MOL0     C49126   4.217   8.387   7.157 -0.0075 -0.1819  0.4814
  373MOL0     C49127   4.122   8.387   7.274  0.6737 -0.4908  0.5723
  373MOL0     O49128   4.011   8.319   7.214 -0.0440 -0.3940 -0.2138
  373MOL0     C49129   3.906   8.285   7.294 -0.1471 -0.2027  0.1847
  373MOL0     C49130   3.887   8.332   7.424  0.9694 -0.0912 -0.1434
  373MOL0     C49131   3.776   8.286   7.496 -0.4175 -0.0275  0.2945
  373MOL0     C49132   3.684   8.184   7.444 -0.1139  0.4830 -0.0848
  373MOL0     C49133   3.562   8.133   7.514  0.3107  0.0964  0.4993
  373MOL0     O49134   3.545   8.182   7.637 -0.0591  0.1199  0.4142
  373MOL0     C49135   3.417   8.173   7.693 -0.2819 -0.3771  0.0227
  373MOL0     C49136   3.290   8.165   7.620 -0.8371  0.0119  0.1764
  373MOL0     C49137   3.162   8.160   7.681 -0.4103  0.2322  0.9377
  373MOL0     C49138   3.157   8.172   7.814 -0.8350  0.0839 -0.2096
  373MOL0     O49139   3.033   8.166   7.866 -0.1929  1.0089 -0.4348
  373MOL0     C49140   2.995   8.255   7.970 -0.6921  0.1501  0.8369
  373MOL0     C49141   2.850   8.265   7.987  0.2779 -0.3896  0.9724
  373MOL0     C49142   2.788   8.123   7.977 -0.6810 -0.4378  0.2799
  373MOL0     C49143   2.644   8.140   8.019  0.0443  0.0548 -0.1222
  373MOL0     C49144   2.573   8.009   7.984 -0.7995 -0.3456  0.4238
  373MOL0     C49145   2.438   8.006   8.044 -0.4672  0.7179 -0.5338
  373MOL0     C49146   2.372   7.883   7.988  0.6255 -0.1849  0.4923
  373MOL0     C49147   2.232   7.858   8.058  0.3754  0.0697  0.7252
  373MOL0    Cl49148   2.122   7.991   8.025  0.2299 -0.2769 -0.0610
  373MOL0     C49149   3.274   8.191   7.890 -0.1810  1.5477 -0.0026
  373MOL0     C49150   3.403   8.186   7.827 -0.3758 -0.9796 -0.3062
  373MOL0     O49151   3.487   8.049   7.454  0.1311  0.0216 -0.2218
  373MOL0     C49152   3.707   8.148   7.309  0.0379 -0.1221 -0.1539
  373MOL0     C49153   3.816   8.197   7.234  0.6765  0.7373 -1.1542
  373MOL0     N49154   4.709   8.401   7.124  0.7343  1.1793  0.2590
  373MOL0     N49155   4.812   8.327   7.176  0.7996 -0.2658  0.1019
  373MOL0     C49156   5.620   8.244   7.680  0.6954 -0.0592  0.2408
  373MOL0     C49157   5.749   8.200   7.644 -0.7063  1.2345 -0.3324
  373MOL0     C49158   6.141   8.002   7.540  0.1017  0.0275  0.1698
  373MOL0     C49159   6.198   7.951   7.417 -0.6905  0.3256 -0.6198
  373MOL0     C49160   6.334   7.925   7.409 -0.3774 -0.0160 -0.3585
  373MOL0     C49161   6.419   7.933   7.524 -0.0247  0.8517  0.1140
  373MOL0     O49162   6.553   7.900   7.499  0.6196 -0.4095  0.1375
  373MOL0     C49163   6.651   7.894   7.597  0.3153 -0.5630  0.3015
  373MOL0     C49164   6.774   7.851   7.524  0.0920  0.1819 -0.1984
  373MOL0     C49165   6.908   7.871   7.600 -0.6171  0.4283  0.5449
  373MOL0     C49166   7.028   7.819   7.522  1.1382  0.0649 -0.1821
  373MOL0     C49167   7.156   7.859   7.581  0.5037  0.0715  0.6928
  373MOL0     C49168   7.267   7.874   7.626  0.5135  0.1929  0.2780
  373MOL0     C49169   6.359   7.987   7.636  0.1869  0.4688 -0.9726
  373MOL0     C49170   6.229   8.030   7.647  0.1728  0.1557 -0.2936
  373MOL0     H49171   5.734   7.877   7.749 -1.4670 -1.3107 -1.8901
  373MOL0     H49172   5.491   7.945   7.776  1.0511 -2.3030 -0.4157
  373MOL0     H49173   5.364   8.351   7.650  0.2808 -6.7749 -2.7163
  373MOL0     H49174   5.406   8.385   7.830  0.3289  1.7711 -1.0650
  373MOL0     H49175   5.175   8.430   7.775 -0.0515  0.2455 -0.6697
  373MOL0     H49176   5.187   8.301   7.900 -1.6909 -0.3860 -1.0489
  373MOL0     H49177   5.156   8.131   7.774  1.9197  0.6176  0.3538
  373MOL0     H49178   5.140   8.214   7.616 -4.3603  0.7743 -1.0169
  373MOL0     H49179   4.954   8.254   7.838  1.4817  0.4784  0.6573
  373MOL0     H49180   4.958   8.363   7.703  2.0947  0.4349 -1.3928
  373MOL0     H49181   4.788   8.184   7.675  0.6825  2.1807  2.1390
  373MOL0     H49182   4.910   8.057   7.684  1.9156  0.9934  0.1361
  373MOL0     H49183   5.017   8.159   7.473 -0.1420 -1.1242 -0.4566
  373MOL0     H49184   4.887   8.276   7.471  1.9638  0.6043 -2.1626
  373MOL0     H49185   4.886   7.969   7.421 -1.0465 -0.5827 -0.9303
  373MOL0     H49186   4.739   8.062   7.451  0.9854  0.5956  1.0617
  373MOL0     H49187   4.805   8.005   7.208  1.7135 -0.7845  0.0971
  373MOL0     H49188   4.950   8.117   7.225 -0.7520  2.2126 -3.2565
  373MOL0     H49189   4.561   8.116   7.216 -0.5124  0.6653  1.1011
  373MOL0     H49190   4.420   8.250   7.054  2.4947 -0.6420  0.3391
  373MOL0     H49191   4.455   8.429   7.017  0.6527  0.0287  0.2944
  373MOL0     H49192   4.376   8.479   7.250 -3.6308 -0.9353  0.1429
  373MOL0     H49193   4.377   8.306   7.271  2.4597 -1.7799 -2.1642
  373MOL0     H49194   4.204   8.479   7.099  1.0937  0.7565  1.6688
  373MOL0     H49195   4.192   8.296   7.102 -0.0548 -0.6279  1.2374
  373MOL0     H49196   4.086   8.488   7.299  3.8869  0.8682  0.1595
  373MOL0     H49197   4.154   8.335   7.364  0.5320 -1.1491  0.2509
  373MOL0     H49198   3.955   8.399   7.475 -1.2951  0.9227  1.7491
  373MOL0     H49199   3.772   8.327   7.596  1.2726  0.6716  0.1149
  373MOL0     H49200   3.283   8.168   7.512 -1.5740  0.8132  0.2305
  373MOL0     H49201   3.072   8.157   7.621  0.0616  1.1674  0.1511
  373MOL0     H49202   3.036   8.354   7.947 -1.0945 -0.2935 -2.2714
  373MOL0     H49203   3.045   8.219   8.060 -0.9331 -2.7956 -0.1133
  373MOL0     H49204   2.819   8.336   7.910 -2.6306 -0.4395  1.9746
  373MOL0     H49205   2.825   8.312   8.083  4.0726  1.6159  1.1783
  373MOL0     H49206   2.835   8.046   8.039 -0.8679  0.7940  1.9979
  373MOL0     H49207   2.804   8.084   7.876 -0.5188 -2.1289  0.9253
  373MOL0     H49208   2.640   8.163   8.126 -0.1338 -3.2970  0.6782
  373MOL0     H49209   2.592   8.212   7.954 -3.1789 -2.7167 -0.8927
  373MOL0     H49210   2.629   7.925   8.026 -0.5480 -0.6731 -0.5513
  373MOL0     H49211   2.572   7.998   7.875 -1.8999  0.6711  0.3069
  373MOL0     H49212   2.374   8.092   8.020  0.2255  1.9873  1.8119
  373MOL0     H49213   2.440   7.993   8.152  1.3305  0.3932 -0.5814
  373MOL0     H49214   2.355   7.888   7.880  1.0350  1.0894  0.4655
  373MOL0     H49215   2.440   7.803   8.017  0.1814  0.0934  2.3881
  373MOL0     H49216   2.235   7.837   8.165  0.3881  1.0587  0.9273
  373MOL0     H49217   2.191   7.770   8.008  0.2752  1.8459 -2.6209
  373MOL0     H49218   3.265   8.210   7.996  1.1545  0.9907  0.2406
  373MOL0     H49219   3.479   8.203   7.903 -3.1536  0.7380  2.2826
  373MOL0     H49220   3.628   8.098   7.255 -1.5683  0.0897  1.8735
  373MOL0     H49221   3.822   8.167   7.130  0.1764 -1.4685 -0.6243
  373MOL0     H49222   5.603   8.350   7.663  1.8488  0.0618 -0.2418
  373MOL0     H49223   5.814   8.285   7.626 -0.0188  1.3813  2.3125
  373MOL0     H49224   6.141   7.952   7.324 -2.0336  2.8040  0.1378
  373MOL0     H49225   6.380   7.899   7.315 -2.6808  0.0784 -1.5873
  373MOL0     H49226   6.620   7.821   7.672  0.2552  0.8551  1.6997
  373MOL0     H49227   6.670   7.990   7.645  0.9222 -1.3980  1.8055
  373MOL0     H49228   6.761   7.747   7.493  0.6298  0.3054 -0.8755
  373MOL0     H49229   6.779   7.913   7.434 -0.4683 -0.0201 -0.3751
  373MOL0     H49230   6.914   7.817   7.695  1.6958 -1.0474 -0.3515
  373MOL0     H49231   6.910   7.979   7.617 -2.1812  1.3563 -3.8654
  373MOL0     H49232   7.026   7.710   7.518  1.0986  0.0411  0.3805
  373MOL0     H49233   7.018   7.855   7.419  0.7171  2.3054  0.5757
  373MOL0     H49234   7.369   7.888   7.654  0.5228 -1.7304  1.4514
  373MOL0     H49235   6.412   7.999   7.729  0.4793 -0.5933 -0.9908
  373MOL0     H49236   6.204   8.080   7.740 -2.5424 -2.5933  0.6361
  374MOL0     O49237   7.845   2.513   5.802 -0.7410 -0.1095 -0.0175
  374MOL0     C49238   7.862   2.596   5.711 -0.1016 -0.2154 -0.3136
  374MOL0     O49239   7.756   2.657   5.642  0.5823 -0.5881 -0.5947
  374MOL0     C49240   7.636   2.591   5.655 -0.0231  1.1495 -0.1145
  374MOL0     C49241   7.517   2.637   5.727  0.1809  0.3654 -0.1787
  374MOL0     C49242   7.396   2.552   5.731  0.2910  0.0348 -0.6066
  374MOL0     C49243   7.392   2.432   5.660 -0.7059  0.1922  0.4126
  374MOL0     O49244   7.275   2.360   5.656 -0.3081 -0.0052 -0.3089
  374MOL0     C49245   7.280   2.218   5.669 -0.8418  0.5185 -0.1364
  374MOL0     C49246   7.178   2.161   5.579  0.0599  0.9475  0.6406
  374MOL0     C49247   7.041   2.183   5.612 -0.3403  0.7486  0.4721
  374MOL0     C49248   6.951   2.080   5.537  0.1707 -0.2434  0.8679
  374MOL0     C49249   6.806   2.114   5.566 -0.2092  0.1373  0.1024
  374MOL0     C49250   6.719   2.030   5.476 -0.2845 -0.3592  0.3060
  374MOL0     C49251   6.571   2.072   5.496  0.2462  0.3415  0.6122
  374MOL0     C49252   6.534   2.190   5.405  0.8414 -0.6890  0.0629
  374MOL0     N49253   6.396   2.241   5.408  0.0932  0.0984  0.6577
  374MOL0     C49254   6.287   2.160   5.393 -0.2639 -0.7062 -0.3360
  374MOL0     C49255   6.178   2.242   5.407 -0.1201 -0.8590 -0.1769
  374MOL0     C49256   6.033   2.222   5.392  0.3278  0.1288 -0.1865
  374MOL0     C49257   5.964   2.353   5.345 -0.1163  0.1798  0.5645
  374MOL0     C49258   5.985   2.384   5.202  0.3306 -0.9886 -0.0397
  374MOL0     C49259   5.993   2.533   5.176 -0.1030 -0.2403 -0.1050
  374MOL0     O49260   5.858   2.579   5.174 -0.0961 -0.4156  0.3922
  374MOL0     C49261   5.819   2.709   5.161  0.7101 -0.3366 -0.9057
  374MOL0     C49262   5.900   2.823   5.144  0.4278  0.1325  0.7494
  374MOL0     C49263   5.840   2.948   5.154 -0.3203  0.0005 -0.2832
  374MOL0     C49264   5.708   2.973   5.185  0.2993 -0.1289  0.0437
  374MOL0     C49265   5.649   3.103   5.215 -0.7339 -0.2821 -0.8266
  374MOL0     O49266   5.550   3.106   5.298 -0.5542  0.0490  0.0877
  374MOL0     C49267   5.465   3.208   5.306  1.2886  1.1545  0.4949
  374MOL0     C49268   5.403   3.228   5.427 -0.2258  1.0091 -0.6192
  374MOL0     C49269   5.338   3.346   5.458 -0.2857 -0.0964 -0.3220
  374MOL0     C49270   5.320   3.439   5.359 -0.0643 -0.5240 -0.6927
  374MOL0     O49271   5.254   3.558   5.390 -0.4582  0.3986 -0.2208
  374MOL0     C49272   5.232   3.590   5.528  0.1476  0.4902  0.1830
  374MOL0     C49273   5.171   3.734   5.539 -0.0538  0.0841  0.8355
  374MOL0     C49274   5.011   3.733   5.562  0.0575  0.3265  0.0659
  374MOL0     C49275   4.935   3.693   5.435  0.7275  0.3693  0.5092
  374MOL0     C49276   4.786   3.701   5.472  0.1859 -0.0911 -0.5043
  374MOL0     C49277   4.698   3.667   5.346 -0.5589 -0.9585  0.7116
  374MOL0     C49278   4.706   3.770   5.231  0.5090  0.4789  0.6113
  374MOL0     C49279   4.571   3.789   5.149 -0.2284  0.0564 -0.2696
  374MOL0    Cl49280   4.512   3.634   5.090  0.2045  0.1715 -0.5263
  374MOL0     C49281   5.357   3.414   5.233 -0.0734 -0.1398  0.2225
  374MOL0     C49282   5.428   3.298   5.200 -0.3757  0.3671  0.0640
  374MOL0     O49283   5.686   3.194   5.137  0.0921 -0.3082  0.0573
  374MOL0     C49284   5.629   2.858   5.208 -0.2850  0.5352 -0.5324
  374MOL0     C49285   5.681   2.728   5.195 -0.4493  0.0452 -0.3049
  374MOL0     N49286   6.230   2.363   5.444 -0.2149 -0.3368  0.9226
  374MOL0     N49287   6.356   2.368   5.442 -0.2193 -0.1509  0.5175
  374MOL0     C49288   7.502   2.384   5.592 -0.4507  0.5538  0.4984
  374MOL0     C49289   7.622   2.462   5.594  0.3241  0.9148  0.3420
  374MOL0     C49290   8.009   2.642   5.680  0.5867  0.1438  0.5134
  374MOL0     C49291   8.120   2.559   5.704 -0.0644 -0.0149  0.2977
  374MOL0     C49292   8.253   2.615   5.690 -0.1066 -0.4519 -0.0803
  374MOL0     C49293   8.267   2.749   5.647  0.2579  0.7198 -0.2211
  374MOL0     O49294   8.384   2.815   5.630  0.0231  0.0718  0.0864
  374MOL0     C49295   8.434   2.896   5.740 -0.0895  0.0544 -0.1637
  374MOL0     C49296   8.341   3.006   5.778 -1.1016  0.0950  0.2667
  374MOL0     C49297   8.242   2.970   5.886  0.9163 -0.0720 -0.1783
  374MOL0     C49298   8.107   3.037   5.856  0.4476  0.6313  0.3879
  374MOL0     C49299   8.118   3.174   5.900 -0.9292 -1.7510 -0.2824
  374MOL0     C49300   8.125   3.291   5.929  1.0569 -0.2137 -0.0328
  374MOL0     C49301   8.154   2.813   5.598 -0.5408 -0.3675 -0.1944
  374MOL0     C49302   8.032   2.768   5.623  0.4205  1.2957 -0.5459
  374MOL0     H49303   7.526   2.741   5.757 -1.5406  0.9391 -1.4924
  374MOL0     H49304   7.306   2.585   5.784 -1.5170 -0.4749 -3.1796
  374MOL0     H49305   7.253   2.194   5.772  1.8821  1.0962  0.8050
  374MOL0     H49306   7.373   2.167   5.643 -1.3751 -1.1225  1.0500
  374MOL0     H49307   7.192   2.052   5.578 -1.1435  0.7756  0.7822
  374MOL0     H49308   7.198   2.204   5.481 -0.3729 -0.2559 -0.0020
  374MOL0     H49309   7.019   2.284   5.578 -3.0687  0.8464  2.2074
  374MOL0     H49310   7.028   2.172   5.720  1.0045 -2.7746  0.3957
  374MOL0     H49311   6.972   2.088   5.430  0.1495  2.6648  0.9975
  374MOL0     H49312   6.977   1.981   5.575  0.9889 -0.6841 -0.7698
  374MOL0     H49313   6.785   2.220   5.554 -0.9725 -0.0393 -0.1916
  374MOL0     H49314   6.770   2.095   5.667  1.2504 -2.7229  0.2011
  374MOL0     H49315   6.731   1.924   5.500 -0.3298 -0.3522  0.3584
  374MOL0     H49316   6.742   2.043   5.370  1.6532 -1.1713  0.5885
  374MOL0     H49317   6.524   1.980   5.458  3.5171 -1.5113  0.6674
  374MOL0     H49318   6.551   2.092   5.601  1.3496 -1.2434  1.1626
  374MOL0     H49319   6.552   2.178   5.297 -2.3540  0.1502 -0.6654
  374MOL0     H49320   6.609   2.266   5.427  2.3361 -1.7275 -1.1855
  374MOL0     H49321   6.289   2.056   5.364 -0.0008 -0.6623 -0.4793
  374MOL0     H49322   5.997   2.184   5.488  0.2578  0.4097 -0.1002
  374MOL0     H49323   6.010   2.146   5.317 -0.5611 -1.2540  1.4274
  374MOL0     H49324   5.988   2.428   5.422  0.4050 -1.8347  2.4728
  374MOL0     H49325   5.858   2.338   5.368 -0.5567  1.0285 -0.8123
  374MOL0     H49326   6.080   2.351   5.157  1.9214 -0.5439  2.7551
  374MOL0     H49327   5.905   2.338   5.143  0.5532 -0.9740 -0.3567
  374MOL0     H49328   6.031   2.546   5.074 -0.0992  1.1290  0.0518
  374MOL0     H49329   6.058   2.583   5.248  0.9299 -0.1274 -1.0868
  374MOL0     H49330   6.008   2.822   5.128  0.2550  2.4302 -1.1674
  374MOL0     H49331   5.903   3.031   5.123  1.9890 -1.9286 -1.0960
  374MOL0     H49332   5.420   3.153   5.503  0.5520  0.1736 -1.5860
  374MOL0     H49333   5.304   3.362   5.560 -2.1754  1.2409 -1.1117
  374MOL0     H49334   5.327   3.582   5.581  0.5925  0.4252 -0.6200
  374MOL0     H49335   5.170   3.514   5.577  1.1064 -0.7026 -0.4065
  374MOL0     H49336   5.196   3.803   5.459  1.9363 -0.5919  0.8203
  374MOL0     H49337   5.214   3.784   5.626  0.8826  2.3390 -0.8315
  374MOL0     H49338   4.974   3.834   5.582  1.0914  0.2468  2.7984
  374MOL0     H49339   4.996   3.666   5.647  1.6756  0.3599  0.4179
  374MOL0     H49340   4.939   3.767   5.355 -4.7384  0.3907 -0.1570
  374MOL0     H49341   4.963   3.595   5.395 -0.9813  0.6673 -1.6203
  374MOL0     H49342   4.761   3.804   5.496  1.2440  0.2075 -0.6605
  374MOL0     H49343   4.754   3.638   5.556  0.3997  0.2151 -0.1931
  374MOL0     H49344   4.595   3.663   5.383 -1.2456  2.1734 -0.5773
  374MOL0     H49345   4.721   3.570   5.302  2.1330 -1.4994  2.9882
  374MOL0     H49346   4.734   3.871   5.265 -4.1601  2.2230 -0.0397
  374MOL0     H49347   4.788   3.741   5.165  0.8878  2.8185 -0.0482
  374MOL0     H49348   4.571   3.863   5.069  0.2190 -0.8065 -1.0929
  374MOL0     H49349   4.503   3.836   5.220 -0.9515 -1.1192 -0.1497
  374MOL0     H49350   5.334   3.494   5.164 -2.8646 -1.8174 -0.9907
  374MOL0     H49351   5.449   3.270   5.097  0.4113 -3.2161  1.0357
  374MOL0     H49352   5.525   2.870   5.237  0.3415  1.2104  1.6286
  374MOL0     H49353   5.619   2.640   5.206 -0.5681  0.2003  0.2865
  374MOL0     H49354   7.502   2.285   5.548  0.7196  0.8780 -0.2764
  374MOL0     H49355   7.714   2.418   5.556  0.9919  2.4433  0.1215
  374MOL0     H49356   8.099   2.455   5.727 -1.4380 -0.6429 -3.1365
  374MOL0     H49357   8.339   2.550   5.705 -1.7839 -2.5955  0.8466
  374MOL0     H49358   8.530   2.940   5.713  0.0932 -1.9702 -3.3634
  374MOL0     H49359   8.453   2.834   5.828  2.4892  3.2315  1.7222
  374MOL0     H49360   8.405   3.084   5.820  1.0010 -1.3050 -0.1790
  374MOL0     H49361   8.295   3.061   5.696 -2.7166  1.0483  1.7281
  374MOL0     H49362   8.275   2.989   5.989  0.8182 -0.6012 -0.0461
  374MOL0     H49363   8.216   2.864   5.888 -1.1087  0.4079  0.3694
  374MOL0     H49364   8.085   3.036   5.748  0.0436  0.1861  0.4722
  374MOL0     H49365   8.029   2.976   5.903 -1.4850  0.9152 -2.2123
  374MOL0     H49366   8.119   3.396   5.950  0.7370 -0.4608  1.2140
  374MOL0     H49367   8.158   2.915   5.562  0.0467 -0.6009 -0.8049
  374MOL0     H49368   7.947   2.832   5.601 -2.5898 -1.9082  1.0069
  375MOL0     O49369   9.924   7.393   1.570 -0.4341 -0.3650  0.0101
  375MOL0     C49370  10.021   7.349   1.510  0.5567  0.9162 -0.3654
  375MOL0     O49371  10.044   7.369   1.372  0.7969 -0.7251  0.0353
  375MOL0     C49372   9.961   7.427   1.285  0.7080  0.5905 -0.6725
  375MOL0     C49373  10.036   7.475   1.182  0.4109  0.1359  0.1166
  375MOL0     C49374   9.975   7.554   1.086 -0.0057  0.4816  0.5423
  375MOL0     C49375   9.840   7.595   1.105  0.3268 -0.2502  0.1995
  375MOL0     O49376   9.758   7.669   1.023 -0.5335  0.0531 -0.0509
  375MOL0     C49377   9.739   7.808   1.067  0.6942 -0.5781  0.3074
  375MOL0     C49378   9.621   7.886   0.992 -0.1376  0.1416 -1.2782
  375MOL0     C49379   9.482   7.862   1.057 -0.1049  0.1539  0.5956
  375MOL0     C49380   9.385   7.927   0.960  0.7115 -0.0199  0.0069
  375MOL0     C49381   9.246   7.941   1.014  0.1017 -0.2894 -0.0993
  375MOL0     C49382   9.164   8.044   0.936  1.0320  0.1063  0.9665
  375MOL0     C49383   9.012   8.027   0.953 -0.2840  0.5302 -0.1269
  375MOL0     C49384   8.959   8.026   1.104  0.0936  0.0392  0.6963
  375MOL0     N49385   8.812   8.025   1.128 -0.1288 -0.7139 -0.2369
  375MOL0     C49386   8.717   7.942   1.062  0.7357  0.0966  0.2165
  375MOL0     C49387   8.599   7.990   1.125  0.4065 -0.0155  0.6045
  375MOL0     C49388   8.458   7.939   1.118  0.4779 -0.2947 -0.5096
  375MOL0     C49389   8.423   7.803   1.174  0.5798 -0.2558  0.4131
  375MOL0     C49390   8.278   7.770   1.134 -0.2826 -0.4316 -0.0286
  375MOL0     C49391   8.175   7.864   1.209 -0.2173  1.1261  0.3564
  375MOL0     O49392   8.048   7.800   1.173  0.0001  0.0933  0.0158
  375MOL0     C49393   7.932   7.868   1.210 -0.2125  0.3514 -0.2278
  375MOL0     C49394   7.812   7.803   1.185  0.3963  1.1652 -0.1698
  375MOL0     C49395   7.687   7.863   1.221 -0.2092  0.6207 -0.3722
  375MOL0     C49396   7.677   7.993   1.269  1.3205  0.0953  0.1590
  375MOL0     C49397   7.539   8.033   1.311 -1.1833  0.7733  0.4142
  375MOL0     O49398   7.438   7.944   1.350  0.5611 -0.0552  0.1407
  375MOL0     C49399   7.319   7.997   1.400 -0.1135  0.0288 -0.6971
  375MOL0     C49400   7.289   7.987   1.538  0.3118  0.0418  0.0994
  375MOL0     C49401   7.157   8.038   1.574 -0.0233  0.4382 -0.4872
  375MOL0     C49402   7.086   8.119   1.487  0.0609 -0.2711  0.6705
  375MOL0     O49403   6.985   8.189   1.529  0.0895 -0.0023 -0.2741
  375MOL0     C49404   6.923   8.285   1.444 -0.2874 -1.1971 -0.2909
  375MOL0     C49405   6.821   8.366   1.520  0.3322 -0.5140 -0.2875
  375MOL0     C49406   6.708   8.290   1.583 -0.2406 -0.0137  0.9039
  375MOL0     C49407   6.578   8.364   1.618 -0.6681 -0.7930 -0.7899
  375MOL0     C49408   6.607   8.473   1.717  0.0488  0.7996 -1.1227
  375MOL0     C49409   6.469   8.523   1.771  0.2164 -0.9464 -0.7762
  375MOL0     C49410   6.491   8.614   1.893 -0.4078 -0.3173  0.7564
  375MOL0     C49411   6.382   8.723   1.884 -0.1324 -0.1087 -0.3265
  375MOL0    Cl49412   6.223   8.656   1.869 -0.1182  0.0548 -0.2666
  375MOL0     C49413   7.130   8.127   1.352  1.1386 -0.2509 -0.6283
  375MOL0     C49414   7.245   8.066   1.306 -0.3398  1.0592 -1.3328
  375MOL0     O49415   7.534   8.153   1.311 -0.0874  1.1159 -0.8874
  375MOL0     C49416   7.800   8.062   1.290  0.6049  0.0881 -0.2494
  375MOL0     C49417   7.927   7.998   1.269  0.2715  0.3392  0.2862
  375MOL0     N49418   8.629   8.074   1.226  0.1929 -1.3990 -0.5867
  375MOL0     N49419   8.757   8.107   1.225  0.1667 -0.2456 -0.6622
  375MOL0     C49420   9.761   7.541   1.209 -0.3501 -0.6797  0.1683
  375MOL0     C49421   9.822   7.453   1.299 -0.7904  0.1156 -0.1946
  375MOL0     C49422  10.136   7.290   1.593 -0.1933 -0.0662  0.2394
  375MOL0     C49423  10.257   7.250   1.538 -0.7324  0.1654  1.4547
  375MOL0     C49424  10.367   7.198   1.616 -0.0005 -1.0261 -0.2876
  375MOL0     C49425  10.340   7.184   1.755 -1.1214 -0.2211  0.3134
  375MOL0     O49426  10.437   7.150   1.844  0.3762  1.1062 -0.0504
  375MOL0     C49427  10.423   7.025   1.911  0.4451 -0.5078 -0.0909
  375MOL0     C49428  10.480   6.916   1.831 -0.2241 -0.3317  0.1621
  375MOL0     C49429  10.456   6.778   1.917  0.5643 -1.0645  1.4050
  375MOL0     C49430  10.468   6.654   1.833  0.5894 -0.6947  0.2916
  375MOL0     C49431  10.594   6.665   1.758 -1.2070 -0.9199  0.6111
  375MOL0     C49432  10.706   6.700   1.719 -0.3960 -0.9471  1.8488
  375MOL0     C49433  10.212   7.210   1.804 -0.6239 -0.3059 -0.5844
  375MOL0     C49434  10.117   7.276   1.729 -0.4457  0.1406 -0.4458
  375MOL0     H49435  10.140   7.445   1.181  0.7605  1.3020 -0.8757
  375MOL0     H49436  10.032   7.591   1.001 -0.0898  0.6954  0.5805
  375MOL0     H49437   9.830   7.861   1.038  0.1239  0.3682  0.2259
  375MOL0     H49438   9.729   7.824   1.174  1.5350  0.8822  0.1840
  375MOL0     H49439   9.618   7.857   0.887 -2.4531  0.9287 -1.4698
  375MOL0     H49440   9.644   7.993   1.004  0.2720 -0.1867  1.7560
  375MOL0     H49441   9.487   7.923   1.148  0.3853  2.0046 -0.6197
  375MOL0     H49442   9.468   7.756   1.083  1.9285 -0.9011 -2.1230
  375MOL0     H49443   9.428   8.027   0.944  1.4768 -0.5773 -1.5729
  375MOL0     H49444   9.386   7.873   0.865 -0.0047 -1.9666  1.0697
  375MOL0     H49445   9.247   7.964   1.121 -0.6022 -1.3153  0.1382
  375MOL0     H49446   9.205   7.840   1.009 -1.4586  0.2851  0.2491
  375MOL0     H49447   9.187   8.040   0.829 -0.7978  0.4802  0.5239
  375MOL0     H49448   9.193   8.142   0.976  2.2194  1.9023 -3.6071
  375MOL0     H49449   8.970   8.112   0.899  0.2922  0.9276  0.0510
  375MOL0     H49450   8.985   7.931   0.908  1.6208 -1.3852  2.5294
  375MOL0     H49451   9.004   8.112   1.155  1.1405  0.6512 -1.1618
  375MOL0     H49452   9.000   7.938   1.153  1.6687  1.9821  3.1039
  375MOL0     H49453   8.740   7.858   0.997  0.3243  0.3246 -0.2321
  375MOL0     H49454   8.424   7.947   1.015  1.7939 -3.4641 -1.3025
  375MOL0     H49455   8.409   8.012   1.183  0.2076 -0.2773 -0.7358
  375MOL0     H49456   8.440   7.804   1.282 -1.5782 -4.1544  0.9797
  375MOL0     H49457   8.492   7.732   1.126  0.0917  0.0542 -0.7751
  375MOL0     H49458   8.270   7.776   1.026  1.6087  0.6062 -0.1524
  375MOL0     H49459   8.263   7.666   1.163  3.4091 -0.5542  2.1336
  375MOL0     H49460   8.189   7.962   1.164 -4.2258  0.7500 -2.2218
  375MOL0     H49461   8.189   7.853   1.317 -2.0263  1.0265  0.6215
  375MOL0     H49462   7.819   7.702   1.148 -1.6889  1.6815 -2.2360
  375MOL0     H49463   7.605   7.795   1.201  1.1303 -1.2838  0.3966
  375MOL0     H49464   7.362   7.944   1.606  0.9782  0.6624 -0.2142
  375MOL0     H49465   7.111   8.020   1.671  1.5779  2.3676  0.7276
  375MOL0     H49466   6.871   8.236   1.361  2.0852  1.2593 -3.5152
  375MOL0     H49467   7.001   8.350   1.402 -0.0969 -0.7293  0.7730
  375MOL0     H49468   6.765   8.433   1.454 -0.1688  0.2771  0.9125
  375MOL0     H49469   6.874   8.427   1.594 -2.2765  0.3313  0.9786
  375MOL0     H49470   6.742   8.220   1.660 -0.6542 -0.9631  0.2369
  375MOL0     H49471   6.665   8.226   1.506 -2.8679  1.1897  1.2406
  375MOL0     H49472   6.529   8.412   1.532 -2.2075 -1.1907 -0.1655
  375MOL0     H49473   6.503   8.301   1.666 -2.2120  1.0051 -0.7159
  375MOL0     H49474   6.655   8.557   1.666  1.2760 -0.1017 -1.5092
  375MOL0     H49475   6.675   8.430   1.791 -3.7168 -0.5824  1.8421
  375MOL0     H49476   6.409   8.437   1.801  2.8529 -2.4018  0.7228
  375MOL0     H49477   6.423   8.573   1.686 -0.4493  4.0176  2.1108
  375MOL0     H49478   6.474   8.544   1.976 -1.1816 -2.3398 -1.0129
  375MOL0     H49479   6.591   8.657   1.892 -0.3821 -0.3931 -0.1160
  375MOL0     H49480   6.390   8.797   1.803 -1.0130  1.2793  0.8197
  375MOL0     H49481   6.386   8.772   1.981  0.5554 -1.0829  0.1590
  375MOL0     H49482   7.077   8.186   1.278 -0.7091 -0.0033  0.8154
  375MOL0     H49483   7.274   8.076   1.202  0.6752 -1.2491 -1.3208
  375MOL0     H49484   7.807   8.160   1.336  1.0103 -0.4609  0.9159
  375MOL0     H49485   8.013   8.055   1.302  1.8888 -1.4425 -0.6734
  375MOL0     H49486   9.655   7.554   1.226 -0.3455 -0.5428  0.0976
  375MOL0     H49487   9.764   7.409   1.379  1.9177 -1.5490  1.0183
  375MOL0     H49488  10.281   7.250   1.432 -2.3187 -1.5802  1.0389
  375MOL0     H49489  10.459   7.161   1.571 -1.0610 -2.8698 -1.0385
  375MOL0     H49490  10.317   7.002   1.926  0.6538 -0.1172  2.4261
  375MOL0     H49491  10.476   7.020   2.007 -1.1552 -1.8220  0.7767
  375MOL0     H49492  10.438   6.921   1.730 -0.7302 -0.2427  0.3710
  375MOL0     H49493  10.585   6.941   1.812 -1.0986  1.4763 -3.2124
  375MOL0     H49494  10.354   6.773   1.958  0.3488  2.6422  1.6720
  375MOL0     H49495  10.508   6.776   2.013 -0.5135 -1.4314  1.9998
  375MOL0     H49496  10.466   6.569   1.901 -1.5815 -0.1099  1.0563
  375MOL0     H49497  10.380   6.638   1.770  1.1934  0.2084 -0.8228
  375MOL0     H49498  10.801   6.723   1.675 -0.8192  1.1428  1.9241
  375MOL0     H49499  10.194   7.195   1.910  0.6906 -1.7614 -0.5266
  375MOL0     H49500  10.026   7.307   1.779  0.1991  2.6377 -0.6603
  376MOL0     O49501   3.364   7.769   1.610  0.5655  0.1272  0.4613
  376MOL0     C49502   3.370   7.762   1.733  0.1120  0.1917 -0.6604
  376MOL0     O49503   3.270   7.782   1.826 -0.2017 -0.5637 -0.2485
  376MOL0     C49504   3.138   7.781   1.789  0.0249 -0.2554  1.0196
  376MOL0     C49505   3.042   7.858   1.857  0.0721 -0.4201  0.4033
  376MOL0     C49506   2.908   7.865   1.825 -0.0005  0.0009  0.1470
  376MOL0     C49507   2.859   7.780   1.725 -0.3736  0.4095 -0.4856
  376MOL0     O49508   2.720   7.787   1.708 -0.4025  0.5573 -0.0875
  376MOL0     C49509   2.674   7.743   1.579  0.0653 -0.7205 -0.7224
  376MOL0     C49510   2.522   7.721   1.599 -0.8779  0.0989 -0.3134
  376MOL0     C49511   2.452   7.849   1.581  0.0241  0.3572  0.6276
  376MOL0     C49512   2.306   7.805   1.587  0.3794 -0.0356 -1.1459
  376MOL0     C49513   2.213   7.928   1.551  0.8413  0.4040  0.0886
  376MOL0     C49514   2.214   7.958   1.401 -0.0371  0.0847 -0.2266
  376MOL0     C49515   2.104   8.057   1.365 -0.5286 -0.0448 -0.2440
  376MOL0     C49516   1.968   7.992   1.355 -0.4030  0.1705  0.2613
  376MOL0     N49517   1.877   8.077   1.280  0.0430 -1.2876 -0.9077
  376MOL0     C49518   1.783   8.160   1.337 -0.1334 -0.9498  1.2032
  376MOL0     C49519   1.700   8.203   1.235 -0.2965  0.4525  0.6016
  376MOL0     C49520   1.580   8.294   1.253  0.1917  0.0691  0.7476
  376MOL0     C49521   1.618   8.439   1.204 -0.7460  0.3693  0.6396
  376MOL0     C49522   1.535   8.550   1.278 -0.7038  0.3918  0.2144
  376MOL0     C49523   1.391   8.538   1.268 -0.1198  0.7270 -0.0625
  376MOL0     O49524   1.319   8.629   1.359  0.1251 -0.0505 -0.6932
  376MOL0     C49525   1.180   8.626   1.365 -0.0244  0.2992  0.0695
  376MOL0     C49526   1.114   8.687   1.477  0.2081  0.7423 -0.0120
  376MOL0     C49527   0.971   8.680   1.476 -0.7203  0.7792 -0.2167
  376MOL0     C49528   0.901   8.627   1.368 -1.0632 -0.4487 -0.1275
  376MOL0     C49529   0.752   8.605   1.373  0.7240  0.6470 -0.0584
  376MOL0     O49530   0.704   8.515   1.274  0.5864 -1.0455 -1.2863
  376MOL0     C49531   0.571   8.467   1.287 -0.4431 -0.2891  0.9165
  376MOL0     C49532   0.517   8.424   1.405  0.3820 -0.7124 -0.0753
  376MOL0     C49533   0.395   8.370   1.416  0.8891  0.1317 -0.6903
  376MOL0     C49534   0.315   8.345   1.311  0.8674  0.8330 -0.3235
  376MOL0     O49535   0.183   8.297   1.318  0.4232  0.5583 -0.0748
  376MOL0     C49536   0.172   8.152   1.322 -0.1081  0.2391  0.9970
  376MOL0     C49537   0.030   8.110   1.290  0.6050 -0.0447 -0.5176
  376MOL0     C49538  -0.065   8.144   1.409  0.3581  0.5673  0.8789
  376MOL0     C49539  -0.217   8.138   1.371 -0.9118 -0.1592  1.1972
  376MOL0     C49540  -0.298   8.187   1.486  0.8081  0.1515 -0.0966
  376MOL0     C49541  -0.269   8.106   1.610  0.2418  0.0570  0.3748
  376MOL0     C49542  -0.376   8.112   1.717 -0.2032 -0.1513  0.2060
  376MOL0     C49543  -0.316   8.101   1.863 -0.4920 -0.7337 -0.2185
  376MOL0    Cl49544  -0.186   8.218   1.913 -0.0802 -0.1123 -0.3627
  376MOL0     C49545   0.363   8.397   1.191 -0.7195  0.4483  0.0732
  376MOL0     C49546   0.492   8.441   1.177 -0.3495  0.0444 -0.0721
  376MOL0     O49547   0.683   8.655   1.459  0.4248 -0.4060 -0.1033
  376MOL0     C49548   0.970   8.565   1.255 -0.6448 -0.0955  0.4175
  376MOL0     C49549   1.109   8.564   1.263 -0.4704  0.0700  0.2382
  376MOL0     N49550   1.743   8.131   1.120 -0.2609 -0.0315  0.2311
  376MOL0     N49551   1.836   8.054   1.154 -0.4879  0.5854 -0.5280
  376MOL0     C49552   2.956   7.697   1.660  0.5795  1.0729 -0.1752
  376MOL0     C49553   3.085   7.698   1.696  0.2195  0.5412  0.0370
  376MOL0     C49554   3.506   7.749   1.786 -0.7828 -0.2693  0.5751
  376MOL0     C49555   3.545   7.818   1.901 -0.8008 -1.3255 -0.7655
  376MOL0     C49556   3.680   7.802   1.944  0.4661  0.0122  0.0860
  376MOL0     C49557   3.764   7.713   1.877  0.5302 -0.1552  0.1958
  376MOL0     O49558   3.895   7.714   1.921 -0.2464 -0.7293 -0.5601
  376MOL0     C49559   3.996   7.645   1.848 -0.4201  0.3762  0.0452
  376MOL0     C49560   4.116   7.615   1.932  0.2866  0.1432  0.0258
  376MOL0     C49561   4.200   7.503   1.853 -0.6817  0.8638 -0.4255
  376MOL0     C49562   4.220   7.372   1.939 -0.5448 -0.2865 -0.3278
  376MOL0     C49563   4.284   7.260   1.876  0.2568  0.1634  0.1419
  376MOL0     C49564   4.355   7.170   1.852 -0.0777  0.4905 -0.3844
  376MOL0     C49565   3.717   7.646   1.762 -0.2548 -0.5231 -0.0558
  376MOL0     C49566   3.589   7.657   1.715  0.2171  0.5937  0.5487
  376MOL0     H49567   3.082   7.917   1.939  0.1412 -1.2359  0.9655
  376MOL0     H49568   2.848   7.937   1.878 -1.7440 -2.5193  1.8217
  376MOL0     H49569   2.717   7.648   1.545 -0.1875 -1.6959  1.5038
  376MOL0     H49570   2.677   7.825   1.507 -0.8610  0.0381  0.0753
  376MOL0     H49571   2.505   7.681   1.699 -3.4769 -0.5456 -0.9468
  376MOL0     H49572   2.485   7.653   1.522  1.8776 -0.1350 -1.5735
  376MOL0     H49573   2.466   7.883   1.478  3.1473  0.7148  1.0603
  376MOL0     H49574   2.462   7.938   1.643 -3.3491  3.9465 -3.3242
  376MOL0     H49575   2.283   7.725   1.517 -0.5286 -3.0156  2.2627
  376MOL0     H49576   2.273   7.765   1.683 -0.7312 -0.5599 -1.7222
  376MOL0     H49577   2.233   8.008   1.623 -1.7334 -1.8714  3.6535
  376MOL0     H49578   2.112   7.896   1.577 -0.0175  2.3203 -0.6933
  376MOL0     H49579   2.212   7.874   1.331  0.0640  0.9757 -1.3262
  376MOL0     H49580   2.302   8.022   1.390 -1.5742  1.8842 -3.5066
  376MOL0     H49581   2.110   8.149   1.424  0.1286  0.7120 -1.4532
  376MOL0     H49582   2.134   8.080   1.263 -0.2515 -2.1012 -0.6671
  376MOL0     H49583   1.919   7.962   1.448 -1.6568  2.0815  0.2806
  376MOL0     H49584   1.971   7.907   1.286  0.2065  0.6154 -0.2740
  376MOL0     H49585   1.772   8.186   1.442  0.7284 -1.9086  1.5419
  376MOL0     H49586   1.546   8.288   1.357  0.0542 -0.5107  0.6731
  376MOL0     H49587   1.498   8.244   1.201  1.4352 -2.2406  0.8358
  376MOL0     H49588   1.609   8.461   1.097  1.7001  0.6078  0.4234
  376MOL0     H49589   1.723   8.464   1.221  0.3955 -2.5000 -1.3651
  376MOL0     H49590   1.565   8.552   1.383  0.2848 -2.3525  0.0741
  376MOL0     H49591   1.561   8.640   1.221  0.0883 -0.7658 -1.3201
  376MOL0     H49592   1.358   8.442   1.308  2.2060  0.5299  1.6460
  376MOL0     H49593   1.374   8.542   1.160  2.5303  1.0060 -0.5431
  376MOL0     H49594   1.165   8.739   1.559  0.1087  1.8985 -0.6558
  376MOL0     H49595   0.927   8.715   1.569  0.8994  2.9950 -0.2012
  376MOL0     H49596   0.589   8.439   1.485  4.2808  1.8413 -3.6049
  376MOL0     H49597   0.365   8.327   1.511  1.7945  1.7656  0.3850
  376MOL0     H49598   0.202   8.125   1.424 -1.0975  2.3303  1.9193
  376MOL0     H49599   0.227   8.103   1.242 -1.7129  1.6113 -1.0430
  376MOL0     H49600   0.015   8.008   1.253  0.7593 -0.2933  0.0900
  376MOL0     H49601   0.006   8.161   1.196 -1.1426 -0.0334 -0.1096
  376MOL0     H49602  -0.048   8.248   1.438  0.7888  1.2932 -1.7646
  376MOL0     H49603  -0.047   8.084   1.498 -0.2710 -0.5194  0.2966
  376MOL0     H49604  -0.248   8.205   1.290 -2.5088  0.2650  2.1073
  376MOL0     H49605  -0.249   8.035   1.352  0.2098 -0.5271  1.2400
  376MOL0     H49606  -0.402   8.179   1.453  0.4576 -2.0221  1.3240
  376MOL0     H49607  -0.261   8.287   1.511  1.0040 -0.0602  0.4738
  376MOL0     H49608  -0.177   8.145   1.655  2.0967  0.6461 -3.5752
  376MOL0     H49609  -0.267   8.002   1.577  0.3505  0.2107 -0.1091
  376MOL0     H49610  -0.432   8.206   1.713 -2.4251 -1.3453  1.2628
  376MOL0     H49611  -0.451   8.035   1.697 -1.2384  1.0652 -0.7155
  376MOL0     H49612  -0.274   8.002   1.887  1.5447 -0.3874 -2.0892
  376MOL0     H49613  -0.395   8.122   1.936  1.8371  1.6381  1.8309
  376MOL0     H49614   0.302   8.389   1.101  1.4382 -1.7735 -1.3117
  376MOL0     H49615   0.541   8.475   1.086  0.3167 -0.4871  0.0839
  376MOL0     H49616   0.914   8.493   1.196 -1.2100  1.0872 -0.5357
  376MOL0     H49617   1.164   8.517   1.182  1.6803 -0.0026  1.6506
  376MOL0     H49618   2.931   7.620   1.587 -0.1220 -0.6436  1.7591
  376MOL0     H49619   3.156   7.631   1.650 -0.7231  0.3362 -1.1498
  376MOL0     H49620   3.477   7.887   1.950  0.7862  1.0353 -1.7100
  376MOL0     H49621   3.713   7.854   2.033  0.9003 -0.2913  0.1039
  376MOL0     H49622   4.021   7.708   1.762  1.7702 -0.8059 -0.2683
  376MOL0     H49623   3.955   7.554   1.803  0.1634  0.3509 -0.4475
  376MOL0     H49624   4.168   7.711   1.938 -0.4740  1.1136 -4.8607
  376MOL0     H49625   4.081   7.578   2.029  1.4166  1.5716  1.0331
  376MOL0     H49626   4.298   7.548   1.831 -0.2282 -0.1549 -0.6069
  376MOL0     H49627   4.169   7.478   1.751  1.0773  0.6301 -0.9522
  376MOL0     H49628   4.292   7.391   2.018 -0.1081 -0.9178 -0.5604
  376MOL0     H49629   4.126   7.352   1.990 -0.4333  0.7630  0.3037
  376MOL0     H49630   4.404   7.083   1.814 -0.4763  0.5287 -1.0060
  376MOL0     H49631   3.780   7.582   1.702  4.7539  2.5900  1.2327
  376MOL0     H49632   3.553   7.602   1.629  0.6249 -1.0962  1.4191
  377MOL0     O49633   1.081   4.921   7.324 -0.4076  0.0888 -0.0503
  377MOL0     C49634   1.132   4.864   7.423 -0.0827 -0.2950 -0.8983
  377MOL0     O49635   1.077   4.863   7.551 -0.0535  0.5084 -0.0858
  377MOL0     C49636   0.944   4.880   7.583 -0.4192  0.2093  0.7955
  377MOL0     C49637   0.920   4.899   7.721  1.1534 -0.0723  0.6913
  377MOL0     C49638   0.790   4.906   7.758  0.1789  0.0727  0.2419
  377MOL0     C49639   0.678   4.915   7.669 -0.8382  0.2438 -0.5136
  377MOL0     O49640   0.547   4.924   7.706 -0.6866 -0.3323 -0.0608
  377MOL0     C49641   0.529   4.965   7.843  0.4183  0.4385 -0.6742
  377MOL0     C49642   0.381   4.979   7.871  0.8679 -0.5512 -0.1905
  377MOL0     C49643   0.304   4.850   7.850 -0.0092  0.4058 -0.3800
  377MOL0     C49644   0.151   4.865   7.871  1.3740 -0.1784 -0.6174
  377MOL0     C49645   0.085   4.958   7.769  0.3095 -0.2095 -0.0481
  377MOL0     C49646   0.058   4.878   7.638 -0.0715 -0.9937 -0.9520
  377MOL0     C49647  -0.008   4.985   7.550  0.3741 -0.6312  0.9398
  377MOL0     C49648  -0.059   4.944   7.409  0.8785  0.6169  0.2104
  377MOL0     N49649  -0.110   5.062   7.333  0.5069  0.4281 -0.1291
  377MOL0     C49650  -0.225   5.140   7.362 -1.1319  0.1011 -0.6085
  377MOL0     C49651  -0.198   5.257   7.295 -1.0217 -0.5374 -1.0088
  377MOL0     C49652  -0.265   5.391   7.290 -0.0409  0.8246 -0.2468
  377MOL0     C49653  -0.410   5.368   7.255 -1.0083  0.3710 -0.2194
  377MOL0     C49654  -0.473   5.505   7.247  0.7056  0.4850  0.1748
  377MOL0     C49655  -0.625   5.504   7.244  0.1331 -0.4190  0.0787
  377MOL0     O49656  -0.674   5.474   7.375 -0.0237 -0.5904 -0.6070
  377MOL0     C49657  -0.805   5.453   7.396  0.3842  0.0271  0.1855
  377MOL0     C49658  -0.856   5.448   7.523 -0.2677  0.2106  0.8273
  377MOL0     C49659  -0.982   5.407   7.551  0.0445 -0.4997  0.0164
  377MOL0     C49660  -1.079   5.371   7.453  0.2275 -0.6528  0.0616
  377MOL0     C49661  -1.224   5.338   7.481 -0.1741  0.0876  0.2137
  377MOL0     O49662  -1.274   5.380   7.596 -0.9572  0.2838  0.4258
  377MOL0     C49663  -1.409   5.368   7.634 -0.5235  0.4392  0.2952
  377MOL0     C49664  -1.519   5.380   7.550 -0.2997 -0.0214  0.4241
  377MOL0     C49665  -1.649   5.359   7.604 -0.1555 -0.6757 -0.1078
  377MOL0     C49666  -1.688   5.317   7.739  0.2168 -0.1791  0.0050
  377MOL0     O49667  -1.811   5.306   7.793 -0.0749  0.0848  0.5501
  377MOL0     C49668  -1.926   5.322   7.719  0.0233 -0.0073  0.1218
  377MOL0     C49669  -1.968   5.472   7.710 -0.6886 -0.3290  0.3419
  377MOL0     C49670  -2.114   5.500   7.669  0.1190 -0.2396  0.1373
  377MOL0     C49671  -2.210   5.433   7.776 -0.0499 -0.0289  0.4313
  377MOL0     C49672  -2.353   5.482   7.746 -0.0771 -0.3631  0.0670
  377MOL0     C49673  -2.454   5.409   7.843  0.2089  0.6464  0.0182
  377MOL0     C49674  -2.601   5.442   7.823 -0.4901 -0.5083 -0.2138
  377MOL0     C49675  -2.676   5.317   7.777  0.6020 -1.1010 -1.2626
  377MOL0    Cl49676  -2.615   5.262   7.618 -0.2216 -0.3817 -0.1119
  377MOL0     C49677  -1.567   5.303   7.817 -0.0305  0.2812  0.6984
  377MOL0     C49678  -1.438   5.330   7.761  0.4652 -0.4786 -0.1209
  377MOL0     O49679  -1.284   5.284   7.394  0.4365  0.1994 -0.1023
  377MOL0     C49680  -1.027   5.378   7.323 -0.0184  0.1166 -0.7391
  377MOL0     C49681  -0.891   5.417   7.296  0.6303  0.8748  0.8113
  377MOL0     N49682  -0.076   5.241   7.227  0.5161  0.2123 -0.7702
  377MOL0     N49683  -0.016   5.132   7.264 -0.3202  0.2589  0.5785
  377MOL0     C49684   0.707   4.894   7.531  0.1548 -0.0380 -0.2044
  377MOL0     C49685   0.839   4.882   7.489 -0.4261  0.1272 -0.9824
  377MOL0     C49686   1.273   4.826   7.407 -0.7288  0.2371  0.3276
  377MOL0     C49687   1.311   4.760   7.296 -0.0688 -1.0738 -0.0572
  377MOL0     C49688   1.446   4.742   7.265 -0.3435 -0.5010 -0.1887
  377MOL0     C49689   1.547   4.776   7.361 -0.4568  0.2297 -0.4205
  377MOL0     O49690   1.674   4.746   7.331 -0.4937  0.2626  0.9840
  377MOL0     C49691   1.769   4.710   7.432 -0.2776  0.9200  0.3916
  377MOL0     C49692   1.870   4.600   7.377 -0.1516  1.1585 -0.0023
  377MOL0     C49693   1.959   4.675   7.284  0.2702  0.8182 -0.1543
  377MOL0     C49694   1.898   4.680   7.146  1.3167 -0.1980  1.0623
  377MOL0     C49695   1.995   4.724   7.049  0.5062  0.0399  0.3601
  377MOL0     C49696   2.092   4.752   6.989 -0.2085  0.0848  0.9830
  377MOL0     C49697   1.507   4.830   7.484  0.0607  0.7269 -0.2136
  377MOL0     C49698   1.371   4.852   7.501  0.2940  0.0489  0.2202
  377MOL0     H49699   1.003   4.908   7.791  2.0123  0.3550 -0.3513
  377MOL0     H49700   0.773   4.915   7.864  0.9565 -1.0904  0.4753
  377MOL0     H49701   0.572   5.064   7.860 -0.1537  0.4023  1.2532
  377MOL0     H49702   0.583   4.904   7.916  0.6065  0.1453 -1.0590
  377MOL0     H49703   0.341   5.059   7.808  1.7558 -0.3739 -0.5368
  377MOL0     H49704   0.375   5.023   7.970  2.1675 -0.2828 -0.2106
  377MOL0     H49705   0.335   4.781   7.929 -1.1831  0.1287 -0.1515
  377MOL0     H49706   0.324   4.802   7.754 -2.9182  0.0721 -0.8935
  377MOL0     H49707   0.109   4.764   7.867  2.1342 -0.5001 -0.7085
  377MOL0     H49708   0.129   4.911   7.967 -0.4041  0.7033 -1.3928
  377MOL0     H49709   0.149   5.045   7.751  1.0084 -0.6994  0.0536
  377MOL0     H49710  -0.012   4.991   7.806  0.7747 -1.4885  2.4679
  377MOL0     H49711  -0.002   4.787   7.649  0.2682 -1.0020  1.4418
  377MOL0     H49712   0.159   4.863   7.598  0.4389  1.6473 -0.8449
  377MOL0     H49713  -0.090   5.036   7.602  0.1433 -1.1793  1.1255
  377MOL0     H49714   0.068   5.062   7.535  1.2216 -1.3930  1.2122
  377MOL0     H49715  -0.137   4.868   7.413  0.9259  0.6179  1.4161
  377MOL0     H49716   0.025   4.901   7.354  0.0718 -0.3501 -0.2883
  377MOL0     H49717  -0.314   5.125   7.423  0.5072  0.4422  2.0254
  377MOL0     H49718  -0.223   5.456   7.213 -0.3073 -3.8658 -4.9294
  377MOL0     H49719  -0.251   5.446   7.384  1.8094  2.0277 -1.1750
  377MOL0     H49720  -0.469   5.309   7.325 -0.2987  0.1911  0.2420
  377MOL0     H49721  -0.415   5.321   7.157  0.5652 -1.9838  0.7348
  377MOL0     H49722  -0.454   5.561   7.339 -0.4502 -0.6773  1.1585
  377MOL0     H49723  -0.442   5.562   7.159  2.2438 -0.6252 -0.0274
  377MOL0     H49724  -0.657   5.429   7.171  0.3465 -0.8549  0.4198
  377MOL0     H49725  -0.665   5.601   7.213 -1.6114 -1.3137 -0.6149
  377MOL0     H49726  -0.785   5.465   7.603 -0.6609  0.9423  1.0230
  377MOL0     H49727  -1.019   5.401   7.653  0.3776 -0.2154  0.1565
  377MOL0     H49728  -1.509   5.424   7.451 -0.9542  0.1041  0.4075
  377MOL0     H49729  -1.736   5.363   7.539  0.0565 -1.4712 -0.4666
  377MOL0     H49730  -2.002   5.262   7.771 -1.9885  2.8505  0.7491
  377MOL0     H49731  -1.929   5.290   7.615  2.6489 -4.8895  1.2765
  377MOL0     H49732  -1.918   5.524   7.628 -0.6608 -0.6280  0.1661
  377MOL0     H49733  -1.944   5.521   7.805 -0.4996  0.3068 -0.0331
  377MOL0     H49734  -2.133   5.442   7.579  1.4533 -1.1756  0.4356
  377MOL0     H49735  -2.139   5.606   7.663  0.1394 -0.2445 -0.0221
  377MOL0     H49736  -2.214   5.324   7.780  2.4626 -0.2245 -0.3462
  377MOL0     H49737  -2.177   5.472   7.873 -2.3878  0.9217  0.9104
  377MOL0     H49738  -2.385   5.461   7.644  0.2798  1.4450 -0.4631
  377MOL0     H49739  -2.358   5.591   7.757 -1.0687 -0.3443 -0.4834
  377MOL0     H49740  -2.419   5.434   7.944  2.5146 -0.8142 -0.3506
  377MOL0     H49741  -2.433   5.302   7.844 -0.9306  0.4085 -0.0004
  377MOL0     H49742  -2.651   5.474   7.915  0.2301  1.7882 -0.5530
  377MOL0     H49743  -2.621   5.521   7.751  0.6849  1.0561  1.1034
  377MOL0     H49744  -2.784   5.331   7.771  0.4969 -0.9694  0.5950
  377MOL0     H49745  -2.669   5.242   7.857 -1.2005  0.6287  0.6176
  377MOL0     H49746  -1.585   5.271   7.919 -1.4230  0.5909  0.5607
  377MOL0     H49747  -1.355   5.338   7.830 -0.7788  0.2176  1.3373
  377MOL0     H49748  -1.097   5.330   7.255 -2.6209  0.7706  1.3109
  377MOL0     H49749  -0.872   5.418   7.189 -1.6758 -3.0657  0.1665
  377MOL0     H49750   0.628   4.889   7.456  1.8689 -0.2002 -2.0952
  377MOL0     H49751   0.855   4.862   7.383  3.5413 -2.1718 -0.1751
  377MOL0     H49752   1.242   4.731   7.218  0.8273 -0.4963 -1.1004
  377MOL0     H49753   1.478   4.701   7.170 -0.5017 -0.5211 -0.2324
  377MOL0     H49754   1.724   4.665   7.521  0.5238 -0.1527  0.2833
  377MOL0     H49755   1.819   4.800   7.470  0.1208 -0.4675  3.5138
  377MOL0     H49756   1.934   4.559   7.455 -1.6405  0.0073  0.6680
  377MOL0     H49757   1.812   4.529   7.316  0.9687 -0.5888  0.8942
  377MOL0     H49758   2.049   4.613   7.285  1.3786  2.3921  0.2271
  377MOL0     H49759   1.995   4.774   7.313 -2.2350  1.8575 -0.3107
  377MOL0     H49760   1.873   4.580   7.111  1.2619 -0.3850  1.6378
  377MOL0     H49761   1.816   4.753   7.147  0.3613 -1.1792 -0.6607
  377MOL0     H49762   2.181   4.761   6.930 -2.7357 -0.8504 -3.3882
  377MOL0     H49763   1.578   4.852   7.562  0.7084  0.4840 -0.7261
  377MOL0     H49764   1.344   4.898   7.596 -0.9304  2.2614 -1.1130
  378MOL0     O49765   7.775   1.137   4.880  0.0945  0.1126  0.7576
  378MOL0     C49766   7.796   1.081   4.772  0.9941 -0.2653  0.0610
  378MOL0     O49767   7.712   0.998   4.709  0.3462  0.2062  0.0874
  378MOL0     C49768   7.577   1.024   4.724 -0.1403  0.8182  0.2341
  378MOL0     C49769   7.494   0.905   4.730  0.5982 -0.1344  0.3588
  378MOL0     C49770   7.354   0.910   4.733 -0.0184  0.1386  0.1948
  378MOL0     C49771   7.303   1.033   4.739 -0.1352 -0.6170 -0.1517
  378MOL0     O49772   7.166   1.052   4.740 -0.4856  0.1300  0.6108
  378MOL0     C49773   7.091   1.038   4.860  0.0825 -0.1138  0.4964
  378MOL0     C49774   6.944   1.052   4.820 -0.2431  0.5224  0.5144
  378MOL0     C49775   6.913   1.181   4.752  1.2727  0.1838  0.5501
  378MOL0     C49776   6.785   1.178   4.665  0.1539  0.3023 -0.2007
  378MOL0     C49777   6.663   1.121   4.740 -0.7415 -0.1708  0.3313
  378MOL0     C49778   6.541   1.142   4.650  0.0703  0.4195  0.6555
  378MOL0     C49779   6.473   1.273   4.679 -0.3461  0.2405  0.1900
  378MOL0     C49780   6.361   1.302   4.579 -0.4748 -0.7292  0.2476
  378MOL0     N49781   6.251   1.368   4.650 -0.4881  0.5681  0.3900
  378MOL0     C49782   6.121   1.343   4.625 -0.5996  0.8322  0.3987
  378MOL0     C49783   6.054   1.426   4.702  0.5897  0.1567 -0.5585
  378MOL0     C49784   5.908   1.453   4.677  0.3154 -0.1935 -0.1474
  378MOL0     C49785   5.822   1.324   4.702 -0.8677 -0.2682 -1.1786
  378MOL0     C49786   5.671   1.356   4.691  0.0797 -0.5073 -0.0134
  378MOL0     C49787   5.622   1.355   4.844  0.7986 -0.7757 -0.0217
  378MOL0     O49788   5.481   1.343   4.830 -0.9034  0.0943  0.1249
  378MOL0     C49789   5.410   1.451   4.862  0.1291  0.1097 -0.4674
  378MOL0     C49790   5.453   1.583   4.851  0.5587 -0.9135  0.4325
  378MOL0     C49791   5.361   1.681   4.900 -0.3928 -0.1444 -0.2220
  378MOL0     C49792   5.226   1.666   4.931  0.2296  0.9046  0.2919
  378MOL0     C49793   5.140   1.786   4.964 -0.7446 -0.7361  0.6555
  378MOL0     O49794   5.202   1.898   4.993  0.0115 -0.7724  0.7507
  378MOL0     C49795   5.139   2.016   5.021  0.5891 -0.0831 -0.0276
  378MOL0     C49796   5.190   2.086   5.135  0.4455 -0.0986 -0.0759
  378MOL0     C49797   5.133   2.205   5.171  0.0304  0.2650 -0.6730
  378MOL0     C49798   5.035   2.269   5.102 -0.0805  0.9153 -0.3544
  378MOL0     O49799   4.983   2.381   5.157 -0.2013 -0.4090 -0.1202
  378MOL0     C49800   4.963   2.480   5.054  0.2206 -0.6985 -0.2158
  378MOL0     C49801   4.914   2.599   5.143 -0.2672 -0.3696 -1.2804
  378MOL0     C49802   4.879   2.727   5.064  0.8583 -0.5540  0.8166
  378MOL0     C49803   4.831   2.845   5.137 -0.6836 -0.7167  0.3259
  378MOL0     C49804   4.687   2.837   5.189  0.1130 -0.5617 -0.7068
  378MOL0     C49805   4.589   2.871   5.074  0.2102  0.4291 -0.1500
  378MOL0     C49806   4.436   2.844   5.112  0.3304 -0.8437  0.0088
  378MOL0     C49807   4.421   2.686   5.136  0.0052 -0.2830  0.7368
  378MOL0    Cl49808   4.456   2.577   5.000  0.3589 -0.0449 -0.2784
  378MOL0     C49809   4.988   2.206   4.979  0.0019  0.4679  0.3922
  378MOL0     C49810   5.024   2.070   4.949  0.0617 -0.8326  0.1940
  378MOL0     O49811   5.020   1.783   4.947 -0.3063  1.0980  0.3327
  378MOL0     C49812   5.179   1.530   4.925 -0.1546  1.4730  0.2233
  378MOL0     C49813   5.278   1.424   4.908  0.9610  0.2044 -0.1741
  378MOL0     N49814   6.138   1.490   4.792 -0.3047  0.0868 -0.1635
  378MOL0     N49815   6.259   1.453   4.756 -0.4015  0.7842 -0.6982
  378MOL0     C49816   7.381   1.153   4.741 -0.3309  0.5493 -0.8460
  378MOL0     C49817   7.516   1.148   4.740 -0.7505 -0.3944 -0.0143
  378MOL0     C49818   7.936   1.071   4.716 -0.4424 -1.2459 -0.7104
  378MOL0     C49819   7.969   1.004   4.605 -0.3186 -1.6502  0.0648
  378MOL0     C49820   8.094   1.007   4.547 -0.1897  0.1384 -1.4209
  378MOL0     C49821   8.198   1.076   4.612 -0.0329  0.3892  0.4671
  378MOL0     O49822   8.327   1.092   4.559  0.8503  0.3189 -0.0940
  378MOL0     C49823   8.361   1.032   4.433 -0.0964  0.5416  0.4269
  378MOL0     C49824   8.494   1.081   4.391 -1.1308  0.3497  0.1371
  378MOL0     C49825   8.600   1.100   4.502 -0.1015  0.2371 -1.0359
  378MOL0     C49826   8.718   1.192   4.461 -0.0170  0.6031  0.4176
  378MOL0     C49827   8.820   1.122   4.380  0.9250  0.0991  0.0471
  378MOL0     C49828   8.899   1.065   4.309  1.2188 -1.1135 -0.2468
  378MOL0     C49829   8.168   1.154   4.729 -0.0373  1.1835 -0.2023
  378MOL0     C49830   8.041   1.136   4.782 -0.6505 -0.7708 -1.5952
  378MOL0     H49831   7.534   0.807   4.706 -2.0807 -0.9387 -1.3218
  378MOL0     H49832   7.285   0.826   4.734  1.0765 -0.8079  2.1845
  378MOL0     H49833   7.129   1.107   4.936 -0.3453 -1.3397  1.8601
  378MOL0     H49834   7.103   0.941   4.909 -1.1507 -0.4153  0.2271
  378MOL0     H49835   6.885   1.045   4.912 -1.5650  2.0590 -0.1747
  378MOL0     H49836   6.922   0.960   4.765  1.6519 -0.1474  0.7634
  378MOL0     H49837   6.996   1.217   4.692  2.7412 -0.6781  1.9865
  378MOL0     H49838   6.898   1.257   4.829 -1.5402 -0.0857  0.3764
  378MOL0     H49839   6.765   1.277   4.623  0.1206  0.0445 -0.8025
  378MOL0     H49840   6.803   1.122   4.573 -4.1209  1.7917 -2.2051
  378MOL0     H49841   6.649   1.153   4.843  0.9671 -4.0913  1.9819
  378MOL0     H49842   6.677   1.013   4.731  0.0608 -0.0684  0.2738
  378MOL0     H49843   6.467   1.064   4.674  0.0895 -0.2516 -1.2922
  378MOL0     H49844   6.566   1.138   4.544  3.2432 -4.7357  1.2181
  378MOL0     H49845   6.438   1.281   4.783 -2.2447  3.7857 -0.5732
  378MOL0     H49846   6.548   1.352   4.669  2.6388 -2.4333 -0.5454
  378MOL0     H49847   6.324   1.218   4.520  2.6509  0.0310 -3.1342
  378MOL0     H49848   6.397   1.370   4.502 -0.3792 -1.1305 -0.0597
  378MOL0     H49849   6.072   1.293   4.542  1.4105  1.9599 -1.5914
  378MOL0     H49850   5.889   1.474   4.571 -0.0176 -0.6474 -0.1797
  378MOL0     H49851   5.885   1.547   4.729 -1.4840  1.3722 -3.4266
  378MOL0     H49852   5.852   1.290   4.801  1.7299  1.5639 -1.2371
  378MOL0     H49853   5.847   1.240   4.637 -0.0015 -0.8763 -0.1010
  378MOL0     H49854   5.646   1.450   4.642  2.1454 -0.2578 -0.6849
  378MOL0     H49855   5.611   1.289   4.629 -3.3907  3.0249 -0.8552
  378MOL0     H49856   5.648   1.447   4.898 -0.8539  0.9883 -2.0784
  378MOL0     H49857   5.660   1.269   4.900  0.4588 -0.2857  0.9943
  378MOL0     H49858   5.550   1.619   4.819  0.5345 -1.2468 -0.0155
  378MOL0     H49859   5.387   1.787   4.899 -2.3975  0.4052 -2.0584
  378MOL0     H49860   5.270   2.045   5.195 -0.5363  1.1423  2.2395
  378MOL0     H49861   5.165   2.240   5.268  0.0086 -0.0094 -0.5641
  378MOL0     H49862   4.887   2.447   4.983 -1.4175  1.3705  0.4711
  378MOL0     H49863   5.055   2.501   4.999  0.3361 -1.1867 -0.2069
  378MOL0     H49864   4.999   2.617   5.208 -2.2214  0.8671  1.0808
  378MOL0     H49865   4.838   2.566   5.215 -0.9234 -1.7448 -2.5446
  378MOL0     H49866   4.817   2.693   4.980  3.0951 -2.6015 -0.1334
  378MOL0     H49867   4.964   2.769   5.008  0.8621  2.0048  2.5895
  378MOL0     H49868   4.903   2.858   5.219  3.3675 -3.3171 -2.4115
  378MOL0     H49869   4.842   2.941   5.084  2.3574 -0.3852  1.3700
  378MOL0     H49870   4.674   2.914   5.266  1.5588  2.3067 -3.1086
  378MOL0     H49871   4.669   2.738   5.232  2.0287 -0.2843  0.8750
  378MOL0     H49872   4.610   2.809   4.986  2.0333 -3.3961  2.6931
  378MOL0     H49873   4.599   2.977   5.048  1.6070 -0.1524 -2.2253
  378MOL0     H49874   4.414   2.893   5.208 -0.0553 -1.0229  0.0098
  378MOL0     H49875   4.370   2.873   5.030 -0.5272 -3.3910 -0.2643
  378MOL0     H49876   4.313   2.680   5.155 -0.7627  2.2442 -2.0224
  378MOL0     H49877   4.471   2.648   5.225  0.2752  0.8689  1.0973
  378MOL0     H49878   4.908   2.245   4.917  0.1484  1.6613  0.9065
  378MOL0     H49879   4.982   2.022   4.862 -4.0662 -0.0465  1.5120
  378MOL0     H49880   5.073   1.512   4.941 -0.1627  0.1257 -1.1230
  378MOL0     H49881   5.246   1.321   4.895  0.7968 -0.0847  2.0635
  378MOL0     H49882   7.328   1.247   4.758  0.8686  0.9292  0.9453
  378MOL0     H49883   7.570   1.242   4.740 -0.5707 -0.4577  1.7081
  378MOL0     H49884   7.894   0.947   4.550 -1.2301 -2.3130  1.9292
  378MOL0     H49885   8.110   0.950   4.456  2.3585 -0.1391 -0.8895
  378MOL0     H49886   8.286   1.053   4.356 -1.2440 -0.3027  1.2676
  378MOL0     H49887   8.362   0.923   4.442 -0.4948  0.4154 -0.8776
  378MOL0     H49888   8.528   1.009   4.315  1.4497  0.9894  0.5775
  378MOL0     H49889   8.481   1.181   4.349  0.5074  1.2326  1.6064
  378MOL0     H49890   8.660   1.009   4.515 -1.1045 -0.6379 -2.3197
  378MOL0     H49891   8.557   1.137   4.596  0.0741  1.8858 -1.5738
  378MOL0     H49892   8.690   1.280   4.402  2.3002  1.0366 -0.1185
  378MOL0     H49893   8.774   1.221   4.550 -0.2883 -1.3996  1.2787
  378MOL0     H49894   8.957   1.009   4.239 -0.3721 -3.6055  0.3086
  378MOL0     H49895   8.256   1.201   4.772  0.6325  0.4390 -0.7344
  378MOL0     H49896   8.016   1.190   4.873  0.2872 -1.5479 -0.8531
  379MOL0     O49897   6.221   9.005   2.530 -0.4275  0.1343  0.1079
  379MOL0     C49898   6.274   9.108   2.571  0.3333 -0.0508 -0.6969
  379MOL0     O49899   6.209   9.240   2.580 -0.4255  0.1751  0.1531
  379MOL0     C49900   6.081   9.242   2.547 -0.8219 -0.4074 -0.7665
  379MOL0     C49901   6.048   9.233   2.415  0.6353 -0.6648  0.1568
  379MOL0     C49902   5.908   9.239   2.379 -0.3546 -0.5666 -0.2562
  379MOL0     C49903   5.814   9.228   2.481 -0.7795  0.0529  1.0186
  379MOL0     O49904   5.679   9.205   2.459 -0.0815 -0.3931  0.3245
  379MOL0     C49905   5.574   9.273   2.537  0.3084  0.4983  0.0059
  379MOL0     C49906   5.438   9.200   2.520  0.2726  0.6594  0.5070
  379MOL0     C49907   5.380   9.167   2.377 -0.2088 -1.1541  0.0381
  379MOL0     C49908   5.266   9.061   2.386 -0.8675  0.9296 -0.4552
  379MOL0     C49909   5.128   9.123   2.330 -0.2930  1.0415  0.0993
  379MOL0     C49910   5.071   9.229   2.424 -0.3977 -0.1872 -0.0825
  379MOL0     C49911   4.918   9.237   2.401 -0.0033  0.1743  1.2002
  379MOL0     C49912   4.850   9.354   2.469 -0.0824  0.6494  0.4943
  379MOL0     N49913   4.802   9.335   2.605  0.1479 -0.7371  0.4824
  379MOL0     C49914   4.692   9.265   2.635 -0.1604  1.0397  0.6633
  379MOL0     C49915   4.668   9.298   2.761  0.6247 -0.6734 -0.1362
  379MOL0     C49916   4.532   9.289   2.831 -0.1830  0.0648  0.3815
  379MOL0     C49917   4.538   9.208   2.965 -0.9174 -0.0162 -0.0182
  379MOL0     C49918   4.415   9.213   3.054  1.1358  0.0635 -0.5038
  379MOL0     C49919   4.368   9.352   3.078 -0.0663 -0.3313  0.1344
  379MOL0     O49920   4.288   9.362   3.191 -0.3181  0.3836  0.1189
  379MOL0     C49921   4.164   9.304   3.200 -0.4285  0.6100  0.6043
  379MOL0     C49922   4.120   9.275   3.322 -0.2604 -0.0239 -0.1115
  379MOL0     C49923   4.004   9.208   3.341  0.4374  1.3450  0.7033
  379MOL0     C49924   3.928   9.168   3.222  0.5556  0.1147  0.8105
  379MOL0     C49925   3.807   9.095   3.245 -0.9952  0.5919 -0.9077
  379MOL0     O49926   3.749   9.101   3.370 -0.3360  0.3781 -0.1352
  379MOL0     C49927   3.616   9.071   3.386  0.8755 -0.0695 -0.2845
  379MOL0     C49928   3.592   8.971   3.482 -0.3726  0.6090 -0.2052
  379MOL0     C49929   3.462   8.922   3.497  0.1190  0.6136  1.0026
  379MOL0     C49930   3.355   8.982   3.428 -0.6058  0.3837  0.2546
  379MOL0     O49931   3.227   8.940   3.459  0.7612  0.4787 -0.1229
  379MOL0     C49932   3.203   8.806   3.499  0.1841 -0.1263  0.2208
  379MOL0     C49933   3.052   8.775   3.471 -0.1864 -0.0687  0.1694
  379MOL0     C49934   3.025   8.788   3.321 -0.0715  0.8870  0.6155
  379MOL0     C49935   2.889   8.738   3.270 -0.1697  0.7341 -0.4423
  379MOL0     C49936   2.863   8.759   3.118 -0.1511  0.1919  0.1666
  379MOL0     C49937   2.982   8.744   3.025  0.5197 -0.2302 -0.5523
  379MOL0     C49938   2.948   8.783   2.882 -0.7391  0.4763 -0.6221
  379MOL0     C49939   3.049   8.732   2.780  0.0386 -0.6848  0.0448
  379MOL0    Cl49940   3.063   8.551   2.784  0.2816 -0.1270  0.0401
  379MOL0     C49941   3.375   9.080   3.329 -0.3285 -0.4196 -0.6212
  379MOL0     C49942   3.507   9.124   3.319  0.1368 -0.7341 -0.1638
  379MOL0     O49943   3.747   9.042   3.147 -0.3268 -0.3312 -0.8432
  379MOL0     C49944   3.973   9.198   3.092  0.0809  0.0437  0.1459
  379MOL0     C49945   4.098   9.260   3.077  0.1693 -0.5223 -0.1356
  379MOL0     N49946   4.772   9.386   2.805  0.0995  0.3621  0.3720
  379MOL0     N49947   4.856   9.401   2.709 -0.2224 -0.2876  0.2288
  379MOL0     C49948   5.854   9.221   2.612  0.4707 -0.0187 -0.5582
  379MOL0     C49949   5.987   9.236   2.647 -0.3105  0.3254  0.1828
  379MOL0     C49950   6.422   9.114   2.572 -0.3074  0.4935  0.0475
  379MOL0     C49951   6.487   9.219   2.518  0.6970 -0.1685 -0.4032
  379MOL0     C49952   6.624   9.223   2.509 -1.4565  0.9420  0.1070
  379MOL0     C49953   6.705   9.119   2.548  0.9163  0.4826  0.2128
  379MOL0     O49954   6.841   9.134   2.539  0.4902 -0.0621  0.4446
  379MOL0     C49955   6.910   9.014   2.505 -0.1338  0.3951  0.6300
  379MOL0     C49956   6.997   8.973   2.628  0.3023  0.4112  0.0549
  379MOL0     C49957   7.061   8.845   2.601 -0.0806  0.4254  0.5531
  379MOL0     C49958   7.156   8.821   2.715  0.0429 -0.6801 -0.1504
  379MOL0     C49959   7.255   8.717   2.684  0.3620  0.1660  0.6857
  379MOL0     C49960   7.342   8.626   2.664  0.8478  0.7417 -0.0525
  379MOL0     C49961   6.637   9.006   2.608 -0.7085 -0.3161  0.2624
  379MOL0     C49962   6.499   9.008   2.624 -0.0237 -0.9503  0.2650
  379MOL0     H49963   6.117   9.254   2.334  0.6608 -0.1116  0.3169
  379MOL0     H49964   5.870   9.243   2.278  0.4967  1.0219 -0.5485
  379MOL0     H49965   5.567   9.379   2.510  4.4768  1.4276  1.9073
  379MOL0     H49966   5.593   9.274   2.644  0.0146  1.4539  0.0542
  379MOL0     H49967   5.363   9.250   2.581 -1.5129 -2.3932  1.0479
  379MOL0     H49968   5.446   9.096   2.555 -1.8773 -0.9199 -3.0652
  379MOL0     H49969   5.458   9.127   2.311  2.5080 -0.5159  2.6138
  379MOL0     H49970   5.350   9.266   2.343  1.6479 -0.6789 -0.3352
  379MOL0     H49971   5.295   8.975   2.325 -0.6177 -0.6472  1.7574
  379MOL0     H49972   5.261   9.013   2.484  0.4247 -3.4733 -2.3031
  379MOL0     H49973   5.058   9.039   2.324  0.1082  0.2047  4.0933
  379MOL0     H49974   5.134   9.159   2.227 -1.5955  0.8124 -0.0820
  379MOL0     H49975   5.115   9.325   2.394  1.0603 -0.6001  0.6773
  379MOL0     H49976   5.092   9.214   2.530  1.2402  0.8494 -0.2300
  379MOL0     H49977   4.898   9.237   2.293 -1.2505  0.9561  1.4077
  379MOL0     H49978   4.865   9.145   2.427  2.4943 -1.2201  1.6820
  379MOL0     H49979   4.769   9.377   2.400  0.4479  1.7854  0.2211
  379MOL0     H49980   4.919   9.439   2.463 -0.9600  1.3805  0.5409
  379MOL0     H49981   4.627   9.206   2.571  0.4738  1.6496 -0.5700
  379MOL0     H49982   4.467   9.237   2.760  2.0414 -0.4854 -1.3444
  379MOL0     H49983   4.490   9.387   2.859  2.3882  0.3321  4.0552
  379MOL0     H49984   4.625   9.249   3.018 -1.7316  1.5363  0.1989
  379MOL0     H49985   4.564   9.103   2.951  0.4573  0.2860  0.0511
  379MOL0     H49986   4.333   9.156   3.008  2.3847 -1.4226 -0.9631
  379MOL0     H49987   4.427   9.157   3.147 -4.0761 -1.9668 -0.6894
  379MOL0     H49988   4.330   9.400   2.987 -0.0895 -1.2642 -0.3597
  379MOL0     H49989   4.450   9.419   3.106  1.2266  0.6719 -5.0233
  379MOL0     H49990   4.193   9.295   3.400  0.7519  0.7240 -1.2177
  379MOL0     H49991   3.958   9.177   3.434 -1.6969  2.5266  0.1055
  379MOL0     H49992   3.677   8.924   3.531  1.1707  2.1538 -1.2804
  379MOL0     H49993   3.442   8.841   3.567 -2.2709  0.6539  0.4741
  379MOL0     H49994   3.232   8.795   3.604  0.8041 -1.4279 -0.0574
  379MOL0     H49995   3.263   8.730   3.448 -0.1579  0.1646 -0.6284
  379MOL0     H49996   2.980   8.835   3.527 -0.1760 -1.4032  1.7040
  379MOL0     H49997   3.034   8.670   3.495  1.2788  0.1302  2.4658
  379MOL0     H49998   3.099   8.729   3.265 -0.6888  0.7675 -0.1055
  379MOL0     H49999   3.022   8.893   3.292  0.9197  0.5529 -0.8184
  379MOL0     H50000   2.881   8.632   3.296 -3.2684  1.0056  0.1004
  379MOL0     H50001   2.804   8.787   3.319 -1.0236 -1.5216  0.4636
  379MOL0     H50002   2.823   8.861   3.111  0.9728  0.5904 -0.6453
  379MOL0     H50003   2.781   8.695   3.083 -0.5103  0.7248  0.0238
  379MOL0     H50004   3.023   8.642   3.025  0.9771 -0.0697  0.9213
  379MOL0     H50005   3.064   8.806   3.062  1.2712 -1.7478  0.4537
  379MOL0     H50006   2.852   8.734   2.861 -0.3531 -1.3252  1.4464
  379MOL0     H50007   2.926   8.890   2.875 -3.4987  0.0193 -0.2847
  379MOL0     H50008   3.144   8.778   2.808 -0.6685 -0.0882  1.5984
  379MOL0     H50009   3.024   8.763   2.679 -0.3756 -0.2218  0.2860
  379MOL0     H50010   3.302   9.119   3.259  0.7761  0.2594 -1.4511
  379MOL0     H50011   3.518   9.180   3.226 -3.3935 -2.0223 -1.5195
  379MOL0     H50012   3.908   9.173   3.010 -1.1113 -0.8805  1.3309
  379MOL0     H50013   4.142   9.298   2.985  2.8183  3.5396  2.4292
  379MOL0     H50014   5.787   9.238   2.696  0.1883  1.6072 -1.0827
  379MOL0     H50015   6.015   9.241   2.751  0.8201 -0.6262 -0.0586
  379MOL0     H50016   6.434   9.306   2.479  2.9173  1.4669  0.0076
  379MOL0     H50017   6.677   9.304   2.460  1.4045  0.0322  1.4486
  379MOL0     H50018   6.963   9.029   2.411 -0.4863 -2.4615 -0.0902
  379MOL0     H50019   6.842   8.932   2.480  0.0452  0.1874  0.8245
  379MOL0     H50020   7.071   9.050   2.651 -3.8512  4.7059  0.3770
  379MOL0     H50021   6.934   8.967   2.717 -0.6770  1.8272 -0.5206
  379MOL0     H50022   7.105   8.836   2.501 -0.2939 -2.2769  0.6416
  379MOL0     H50023   6.978   8.775   2.609  0.1102  0.1871  0.4546
  379MOL0     H50024   7.218   8.910   2.730  0.0652 -0.4612 -1.4509
  379MOL0     H50025   7.115   8.812   2.816  1.1685 -0.1714  0.3658
  379MOL0     H50026   7.398   8.535   2.663  1.8152  1.0311  4.5144
  379MOL0     H50027   6.707   8.935   2.651 -0.8744  0.1361  1.3130
  379MOL0     H50028   6.448   8.922   2.666  0.0461 -0.8086  0.6458
  380MOL0     O50029   9.322   7.161   5.178 -0.2929 -0.3884  0.2243
  380MOL0     C50030   9.405   7.072   5.148 -0.7877  0.4003 -0.0730
  380MOL0     O50031   9.386   6.978   5.050  0.3005  0.0868 -0.2861
  380MOL0     C50032   9.272   6.995   4.969  0.4772 -0.1760 -0.0345
  380MOL0     C50033   9.287   7.028   4.826  0.2263  0.3371 -0.1250
  380MOL0     C50034   9.180   7.060   4.749 -0.7183  0.8430  0.0051
  380MOL0     C50035   9.052   7.051   4.805 -0.2711  0.3154 -0.3141
  380MOL0     O50036   8.930   7.067   4.741  0.0325 -0.1982  0.0497
  380MOL0     C50037   8.936   7.143   4.614 -0.2895  0.5019  0.3468
  380MOL0     C50038   8.789   7.144   4.563 -1.0069 -0.4923 -0.1091
  380MOL0     C50039   8.777   7.199   4.412 -0.5944  0.1705 -0.3314
  380MOL0     C50040   8.635   7.167   4.348 -0.7252 -0.7373  0.7985
  380MOL0     C50041   8.514   7.208   4.426  0.4778 -0.2082  0.7408
  380MOL0     C50042   8.379   7.211   4.338  0.3846  0.6487 -0.2398
  380MOL0     C50043   8.313   7.072   4.317 -0.6751 -0.3053 -0.6782
  380MOL0     C50044   8.185   7.070   4.243  0.1814 -0.8001 -0.2845
  380MOL0     N50045   8.078   7.150   4.309  0.8314 -0.8114 -0.4697
  380MOL0     C50046   8.047   7.140   4.447 -0.2913 -0.2151  0.0143
  380MOL0     C50047   7.969   7.239   4.462  0.7706  0.1483 -0.6903
  380MOL0     C50048   7.921   7.311   4.598  0.0817  0.5023  0.8062
  380MOL0     C50049   7.759   7.315   4.600 -0.6282  0.1554  0.5346
  380MOL0     C50050   7.695   7.376   4.726 -0.1188 -0.5394  0.0388
  380MOL0     C50051   7.703   7.289   4.853  0.1935  0.2757 -0.1116
  380MOL0     O50052   7.630   7.343   4.962 -0.1895  0.1918  0.4922
  380MOL0     C50053   7.504   7.315   4.982 -0.8222  1.3647 -0.0842
  380MOL0     C50054   7.435   7.370   5.095 -0.8439 -0.3244 -0.2213
  380MOL0     C50055   7.308   7.335   5.129 -0.5167 -0.0377 -0.8068
  380MOL0     C50056   7.232   7.268   5.038 -0.3997  0.2611  0.0492
  380MOL0     C50057   7.080   7.249   5.059 -0.0404 -0.1589 -0.3062
  380MOL0     O50058   7.014   7.325   5.152  0.0449  0.9961  0.3939
  380MOL0     C50059   6.880   7.317   5.151 -0.4108 -0.3222 -0.1413
  380MOL0     C50060   6.805   7.358   5.041  0.7903 -0.2833  0.0404
  380MOL0     C50061   6.669   7.363   5.051 -0.7923 -0.1771 -0.9001
  380MOL0     C50062   6.604   7.337   5.171  0.0467 -0.4770 -1.3128
  380MOL0     O50063   6.466   7.350   5.193  0.0291 -0.6895  0.1113
  380MOL0     C50064   6.389   7.398   5.085  0.4053  0.2240 -0.2455
  380MOL0     C50065   6.241   7.406   5.093 -0.1383 -0.4123  1.0665
  380MOL0     C50066   6.198   7.521   5.188  0.7447 -0.7015 -0.1265
  380MOL0     C50067   6.055   7.574   5.175  1.0115 -0.6900  0.2650
  380MOL0     C50068   6.019   7.682   5.284 -0.6746  0.4801  0.2318
  380MOL0     C50069   5.995   7.613   5.425 -0.0448 -0.0059  0.3242
  380MOL0     C50070   5.993   7.718   5.527  0.3433  0.5623  0.6550
  380MOL0     C50071   5.959   7.663   5.661  0.7456  0.6528 -0.7460
  380MOL0    Cl50072   5.884   7.781   5.759  0.1955  0.2082 -0.6051
  380MOL0     C50073   6.677   7.296   5.279  0.4534 -0.0316  0.0430
  380MOL0     C50074   6.813   7.287   5.271 -0.3199 -0.2237 -0.0652
  380MOL0     O50075   7.032   7.171   4.975  1.0041 -0.7508  0.4545
  380MOL0     C50076   7.295   7.212   4.921  0.7463 -0.1819 -0.0327
  380MOL0     C50077   7.425   7.233   4.889  0.1501 -0.4269 -0.8158
  380MOL0     N50078   7.941   7.308   4.340 -0.4820  0.2638 -0.3732
  380MOL0     N50079   8.002   7.245   4.250  0.2969  0.2834 -0.4719
  380MOL0     C50080   9.035   6.974   4.927  0.6281 -0.3275 -1.1274
  380MOL0     C50081   9.145   6.967   5.020  1.1516 -0.3017  0.2524
  380MOL0     C50082   9.532   7.063   5.230 -0.2367 -0.5568 -0.1067
  380MOL0     C50083   9.566   7.164   5.319  0.7396 -1.2381  0.4054
  380MOL0     C50084   9.681   7.162   5.398 -0.1493  0.0670  0.6381
  380MOL0     C50085   9.769   7.058   5.385 -0.0440  1.4280 -0.3843
  380MOL0     O50086   9.884   7.037   5.462  0.5873 -0.4270 -0.0581
  380MOL0     C50087   9.931   7.158   5.529  0.0622 -0.5320  0.6943
  380MOL0     C50088  10.063   7.141   5.597  0.3722  0.6612 -0.0892
  380MOL0     C50089  10.175   7.161   5.512  0.3059  0.4505  1.3046
  380MOL0     C50090  10.295   7.131   5.600  0.3804  0.1747  0.3104
  380MOL0     C50091  10.404   7.210   5.550  1.0798 -0.8107  0.2097
  380MOL0     C50092  10.490   7.265   5.485  1.6848 -0.0723 -0.1951
  380MOL0     C50093   9.736   6.952   5.302 -0.6416  0.1453  1.0581
  380MOL0     C50094   9.613   6.951   5.231 -0.1394  0.7421 -0.8488
  380MOL0     H50095   9.390   7.034   4.791 -0.0821  1.0541 -0.9292
  380MOL0     H50096   9.199   7.089   4.646 -0.9775 -0.6557 -0.4903
  380MOL0     H50097   8.990   7.086   4.538 -0.4792 -0.5074  0.9516
  380MOL0     H50098   8.984   7.241   4.622  1.2467  0.1276 -2.7944
  380MOL0     H50099   8.734   7.213   4.629  1.6970  1.2460  0.5161
  380MOL0     H50100   8.747   7.044   4.555 -1.4064 -0.1684 -3.4325
  380MOL0     H50101   8.855   7.144   4.359 -2.1384 -2.1695 -0.3358
  380MOL0     H50102   8.799   7.306   4.417  0.2243 -0.0546  1.6822
  380MOL0     H50103   8.636   7.232   4.260 -0.0525 -1.7068  0.0777
  380MOL0     H50104   8.617   7.065   4.315  2.0295 -0.7125 -0.9954
  380MOL0     H50105   8.536   7.308   4.466  1.5614  0.3710 -1.1579
  380MOL0     H50106   8.508   7.141   4.512 -0.1787  2.3978  2.8744
  380MOL0     H50107   8.386   7.269   4.246  0.2282 -1.9502 -1.9834
  380MOL0     H50108   8.310   7.267   4.403 -1.6720  0.0286 -1.7833
  380MOL0     H50109   8.383   7.007   4.264  0.4209  1.1251 -1.0455
  380MOL0     H50110   8.301   7.034   4.419  2.6089 -0.2744 -0.1726
  380MOL0     H50111   8.157   6.964   4.241  2.3210 -1.5028  2.2408
  380MOL0     H50112   8.196   7.118   4.146 -1.5340  1.3071  0.4736
  380MOL0     H50113   8.099   7.083   4.523  3.0827 -0.8369 -2.5474
  380MOL0     H50114   7.956   7.414   4.605 -2.5450  1.4176  1.6656
  380MOL0     H50115   7.955   7.247   4.680  0.1891 -0.5612 -0.0494
  380MOL0     H50116   7.721   7.214   4.583  1.7801 -0.8650  0.7481
  380MOL0     H50117   7.722   7.374   4.516  0.5474  3.0880  1.9035
  380MOL0     H50118   7.740   7.475   4.738  0.9140 -0.7042 -2.0396
  380MOL0     H50119   7.593   7.393   4.689  0.9933  1.2725 -2.5074
  380MOL0     H50120   7.807   7.278   4.885 -1.2081 -1.6267  4.8064
  380MOL0     H50121   7.657   7.192   4.831 -1.6771  0.6658  1.7183
  380MOL0     H50122   7.498   7.428   5.162 -2.1574 -2.0670  2.7399
  380MOL0     H50123   7.254   7.366   5.218  1.4489 -1.2222  0.8810
  380MOL0     H50124   6.848   7.376   4.943 -2.2247  1.1136 -1.1823
  380MOL0     H50125   6.618   7.390   4.959 -0.7983 -1.4019 -1.2837
  380MOL0     H50126   6.417   7.330   5.004 -0.0924  0.0760 -0.2958
  380MOL0     H50127   6.436   7.495   5.069 -0.6412  0.6434 -0.8454
  380MOL0     H50128   6.196   7.312   5.126 -1.9439 -0.6778 -1.8281
  380MOL0     H50129   6.200   7.444   4.999 -1.0370  0.5654  1.8370
  380MOL0     H50130   6.253   7.612   5.165 -1.7863  0.9461 -0.0158
  380MOL0     H50131   6.223   7.501   5.293 -1.2939  1.0261  0.7634
  380MOL0     H50132   6.040   7.607   5.072  0.1350 -1.6527  0.0655
  380MOL0     H50133   5.987   7.490   5.190  0.0412  0.0548  0.1267
  380MOL0     H50134   5.925   7.728   5.251 -0.2190  1.2454 -0.0136
  380MOL0     H50135   6.100   7.754   5.278  1.6375 -1.6323  3.2798
  380MOL0     H50136   6.066   7.534   5.448 -0.4416  0.0787  1.9273
  380MOL0     H50137   5.899   7.561   5.417  0.7531 -1.6177  0.8813
  380MOL0     H50138   6.086   7.775   5.529 -1.5964  3.9719  0.9056
  380MOL0     H50139   5.914   7.781   5.487  1.0261  0.6337 -0.6440
  380MOL0     H50140   6.052   7.627   5.706  0.1971  0.2485  0.0724
  380MOL0     H50141   5.892   7.578   5.646 -0.4874  1.4184  0.2031
  380MOL0     H50142   6.619   7.268   5.366  0.7139  1.9330  0.8931
  380MOL0     H50143   6.880   7.246   5.345  0.1778 -0.9670 -0.9119
  380MOL0     H50144   7.239   7.143   4.858 -0.8824  0.2534  0.8932
  380MOL0     H50145   7.461   7.202   4.792  0.4553  0.8419 -1.1201
  380MOL0     H50146   8.933   6.950   4.956  1.2693  0.8542  2.6194
  380MOL0     H50147   9.128   6.928   5.120 -2.1101 -1.5057 -0.6216
  380MOL0     H50148   9.512   7.256   5.337  1.0780 -0.9867  0.1541
  380MOL0     H50149   9.705   7.249   5.458  4.2931  1.0686 -2.0716
  380MOL0     H50150   9.853   7.188   5.600 -0.6697  0.9693 -0.6730
  380MOL0     H50151   9.940   7.237   5.454 -1.5714 -1.3414 -0.4293
  380MOL0     H50152  10.052   7.218   5.674  0.2706 -2.4638  3.3271
  380MOL0     H50153  10.067   7.046   5.651 -1.7610 -1.0200 -2.6112
  380MOL0     H50154  10.168   7.264   5.476  0.2630  0.4086  1.1919
  380MOL0     H50155  10.173   7.099   5.421  0.7028  0.1623  1.4884
  380MOL0     H50156  10.276   7.171   5.700 -0.2795  2.1509 -0.5428
  380MOL0     H50157  10.329   7.027   5.605 -0.0527  0.0061 -0.2146
  380MOL0     H50158  10.557   7.315   5.419  0.8532 -1.0319 -1.8158
  380MOL0     H50159   9.804   6.868   5.295 -1.5006 -0.4307 -2.8903
  380MOL0     H50160   9.579   6.870   5.168 -1.1174 -2.3081  3.1377
  381MOL0     O50161   2.956   9.592   9.210 -0.0859  0.2161 -0.2595
  381MOL0     C50162   3.061   9.610   9.150 -0.3872 -0.1917  1.2082
  381MOL0     O50163   3.077   9.698   9.050 -0.4817  0.1273  0.5206
  381MOL0     C50164   2.987   9.796   9.016 -0.1289 -0.1387 -0.0582
  381MOL0     C50165   3.047   9.892   8.926  0.2409 -0.4302 -0.1233
  381MOL0     C50166   2.965   9.986   8.862 -0.8569  0.1597 -0.6540
  381MOL0     C50167   2.818   9.999   8.895 -1.3676 -0.0511  0.3107
  381MOL0     O50168   2.727  10.082   8.826  0.2919  0.3386  0.0638
  381MOL0     C50169   2.763  10.216   8.795 -0.1137 -0.1938  0.8189
  381MOL0     C50170   2.784  10.303   8.924 -0.1736  0.3540 -0.1155
  381MOL0     C50171   2.656  10.306   9.008  0.7628  0.1112 -0.0822
  381MOL0     C50172   2.565  10.427   8.980  0.1069 -0.2179  0.9497
  381MOL0     C50173   2.440  10.412   9.064  0.7052 -0.5683 -0.4934
  381MOL0     C50174   2.345  10.537   9.055 -0.4309  0.3158 -0.0651
  381MOL0     C50175   2.238  10.526   9.166 -0.3355  0.3172  0.1326
  381MOL0     C50176   2.146  10.401   9.150 -0.6290  0.1855 -0.3102
  381MOL0     N50177   2.019  10.418   9.217 -0.3776 -0.1711  0.3436
  381MOL0     C50178   1.913  10.478   9.160  0.0669 -0.1901 -0.8934
  381MOL0     C50179   1.813  10.472   9.253 -1.0132  0.1126  0.2838
  381MOL0     C50180   1.668  10.511   9.222  0.1283  0.0836 -0.8035
  381MOL0     C50181   1.571  10.449   9.324  0.5040 -0.4470 -0.3627
  381MOL0     C50182   1.438  10.497   9.288 -0.3154 -0.3306  0.4023
  381MOL0     C50183   1.339  10.415   9.367  0.3333 -0.2528  1.5650
  381MOL0     O50184   1.242  10.347   9.277  0.2101 -0.6588 -0.8176
  381MOL0     C50185   1.141  10.272   9.334  0.0080  0.1208  0.1290
  381MOL0     C50186   1.010  10.302   9.307 -0.6893 -0.0626 -0.2538
  381MOL0     C50187   0.909  10.221   9.348 -0.6291 -0.1841  0.7860
  381MOL0     C50188   0.933  10.118   9.437 -0.2304 -0.1586 -0.3120
  381MOL0     C50189   0.821  10.033   9.485 -0.1820 -1.3386  0.8395
  381MOL0     O50190   0.692  10.074   9.472  0.2688 -0.3194 -0.0720
  381MOL0     C50191   0.585  10.008   9.534 -0.4410 -0.3751  0.1606
  381MOL0     C50192   0.471   9.973   9.464 -0.3447 -0.2457 -0.4993
  381MOL0     C50193   0.362   9.922   9.527 -0.6002 -0.0841  0.8262
  381MOL0     C50194   0.370   9.879   9.662  0.3933 -0.0835  0.4749
  381MOL0     O50195   0.258   9.842   9.733 -0.0178  0.3662 -0.0753
  381MOL0     C50196   0.266   9.713   9.803 -0.2645 -0.2319 -0.6127
  381MOL0     C50197   0.130   9.655   9.839  0.8324  0.2570 -0.5019
  381MOL0     C50198   0.029   9.643   9.712 -0.0480 -0.1689 -0.7546
  381MOL0     C50199  -0.031   9.773   9.650 -0.2827 -0.2458  0.3884
  381MOL0     C50200  -0.153   9.754   9.564 -0.3995  0.3419  0.7222
  381MOL0     C50201  -0.137   9.653   9.445  0.5241  0.5126 -0.7679
  381MOL0     C50202  -0.273   9.600   9.397 -0.2430 -0.4225 -0.4224
  381MOL0     C50203  -0.340   9.487   9.489  0.5456 -0.1096  0.3000
  381MOL0    Cl50204  -0.482   9.418   9.383  0.2831 -0.4017 -0.2555
  381MOL0     C50205   0.483   9.912   9.731  0.3726  0.3553 -1.1488
  381MOL0     C50206   0.593   9.979   9.671 -0.1095  1.0278  0.7916
  381MOL0     O50207   0.858   9.932   9.541 -0.3717 -1.1714 -0.2680
  381MOL0     C50208   1.072  10.091   9.470 -0.2042 -0.3661 -0.0216
  381MOL0     C50209   1.176  10.162   9.409  0.1305  0.1446 -0.0264
  381MOL0     N50210   1.865  10.414   9.370 -0.6473 -0.7889 -0.3771
  381MOL0     N50211   1.990  10.381   9.341 -0.2360 -0.3801  0.6305
  381MOL0     C50212   2.776   9.917   8.995  0.5994  0.3394 -0.3968
  381MOL0     C50213   2.851   9.815   9.056  0.1890  0.3582 -0.0836
  381MOL0     C50214   3.176   9.525   9.184  0.0510 -0.3858 -0.4066
  381MOL0     C50215   3.304   9.565   9.139 -0.1226 -0.1251 -0.2908
  381MOL0     C50216   3.419   9.496   9.175 -0.2865 -0.2895  0.9612
  381MOL0     C50217   3.412   9.387   9.254  0.9073  0.1971 -0.6958
  381MOL0     O50218   3.519   9.318   9.301  1.1053 -0.1144  0.6093
  381MOL0     C50219   3.639   9.324   9.213  0.3850  0.2561  0.1596
  381MOL0     C50220   3.766   9.270   9.287  0.4090  0.9930  0.1842
  381MOL0     C50221   3.905   9.297   9.222  0.4896 -0.4026  0.0606
  381MOL0     C50222   4.020   9.270   9.318  0.0514 -1.1651 -0.8001
  381MOL0     C50223   4.141   9.276   9.239 -0.4901 -0.5739  0.0118
  381MOL0     C50224   4.243   9.280   9.166  0.5112  0.1009 -0.2562
  381MOL0     C50225   3.289   9.357   9.321  0.2247  0.8392 -0.6826
  381MOL0     C50226   3.169   9.419   9.282  0.1987  0.1317  0.5639
  381MOL0     H50227   3.152   9.887   8.898  0.1662  2.4507 -1.2951
  381MOL0     H50228   3.003  10.035   8.772  1.4964  0.7573  0.5563
  381MOL0     H50229   2.671  10.253   8.748  0.3419  1.5995  1.2674
  381MOL0     H50230   2.853  10.226   8.734  1.0892  0.0315  2.5526
  381MOL0     H50231   2.823  10.403   8.903 -0.8889  0.9925  1.3752
  381MOL0     H50232   2.852  10.251   8.992 -1.3857 -1.0028  0.1094
  381MOL0     H50233   2.681  10.315   9.114 -2.9651  0.4071  0.8959
  381MOL0     H50234   2.596  10.217   8.982  1.6204  0.0640 -2.1241
  381MOL0     H50235   2.622  10.515   9.010  0.2791 -0.3055  0.8777
  381MOL0     H50236   2.536  10.424   8.874  0.9502 -0.8971  0.7273
  381MOL0     H50237   2.474  10.409   9.168 -1.0492  1.2225  0.1900
  381MOL0     H50238   2.385  10.324   9.030 -0.0583 -0.1810 -0.2836
  381MOL0     H50239   2.299  10.547   8.957 -1.5541  0.1752  0.4365
  381MOL0     H50240   2.403  10.628   9.076  0.5071 -0.1284 -0.6472
  381MOL0     H50241   2.292  10.508   9.259 -0.6829 -2.7308 -0.1606
  381MOL0     H50242   2.187  10.622   9.175 -1.2336 -0.2562  1.4209
  381MOL0     H50243   2.199  10.315   9.191 -0.1080  1.3696  1.6484
  381MOL0     H50244   2.124  10.379   9.046  2.2247  1.6463 -1.3311
  381MOL0     H50245   1.901  10.510   9.057  1.1889  1.6490 -0.4973
  381MOL0     H50246   1.635  10.475   9.125  0.5447 -1.5859 -0.3493
  381MOL0     H50247   1.653  10.620   9.225 -1.6868 -0.1420  0.1017
  381MOL0     H50248   1.599  10.469   9.428  1.1119  1.3247 -0.8329
  381MOL0     H50249   1.573  10.341   9.305 -1.5763 -0.2018 -2.2886
  381MOL0     H50250   1.427  10.604   9.307 -1.0242 -0.2335 -0.4861
  381MOL0     H50251   1.423  10.488   9.180 -0.1238 -2.3515  0.5132
  381MOL0     H50252   1.280  10.474   9.438 -0.9096  0.5884 -0.1088
  381MOL0     H50253   1.395  10.345   9.430  1.5315  0.2224  1.0556
  381MOL0     H50254   0.994  10.387   9.241 -0.4379 -1.4998 -2.2544
  381MOL0     H50255   0.814  10.233   9.297 -0.1921  0.5947  0.1374
  381MOL0     H50256   0.469   9.995   9.358 -0.0549  1.2851 -0.2085
  381MOL0     H50257   0.269   9.915   9.471 -0.4633  0.2905  0.5501
  381MOL0     H50258   0.318   9.732   9.898 -2.1179 -1.1314  0.6300
  381MOL0     H50259   0.317   9.632   9.749  1.0534  0.6721 -0.7959
  381MOL0     H50260   0.093   9.722   9.917 -0.1816  0.9956 -1.5845
  381MOL0     H50261   0.133   9.555   9.883 -1.2644  0.0873 -0.6720
  381MOL0     H50262  -0.065   9.594   9.739 -1.7754  3.0618 -0.3054
  381MOL0     H50263   0.079   9.587   9.633  0.0895  1.8041 -2.1381
  381MOL0     H50264  -0.062   9.841   9.731 -0.5539 -0.7209  0.6879
  381MOL0     H50265   0.053   9.810   9.591  0.4206 -1.1913  0.7831
  381MOL0     H50266  -0.173   9.856   9.529 -1.2596  0.2818  1.0029
  381MOL0     H50267  -0.239   9.735   9.629  0.5912 -1.1398  1.6696
  381MOL0     H50268  -0.082   9.567   9.483 -0.4718 -0.4887 -1.5424
  381MOL0     H50269  -0.078   9.701   9.366  1.5755 -0.5693 -0.6663
  381MOL0     H50270  -0.345   9.682   9.400 -0.5512 -0.6043 -1.8251
  381MOL0     H50271  -0.250   9.558   9.298  1.4529  0.8508 -0.6264
  381MOL0     H50272  -0.374   9.520   9.587  1.0484 -2.5987  1.3942
  381MOL0     H50273  -0.267   9.406   9.503  0.5041 -0.5914 -1.8848
  381MOL0     H50274   0.496   9.896   9.837  1.9994 -0.1218 -1.3965
  381MOL0     H50275   0.678  10.012   9.730 -0.2097  0.4420  1.2717
  381MOL0     H50276   1.098   9.999   9.521  3.1705  1.0202  1.0184
  381MOL0     H50277   1.278  10.134   9.435 -0.5327 -2.2507  0.2325
  381MOL0     H50278   2.668   9.920   9.010 -0.1531 -0.7718 -4.2788
  381MOL0     H50279   2.799   9.759   9.133 -1.2322  1.0529 -0.5023
  381MOL0     H50280   3.308   9.655   9.078 -0.8142  0.2397  0.1883
  381MOL0     H50281   3.512   9.525   9.129  0.9342 -2.4167  1.9454
  381MOL0     H50282   3.664   9.429   9.196 -3.5403  1.1321 -1.3033
  381MOL0     H50283   3.606   9.267   9.125 -3.2259 -1.8108  2.5956
  381MOL0     H50284   3.778   9.311   9.388 -0.0626  0.9845  0.2433
  381MOL0     H50285   3.750   9.162   9.301  1.3313  0.9533  1.0621
  381MOL0     H50286   3.903   9.397   9.177 -0.1896 -0.6007 -0.3661
  381MOL0     H50287   3.905   9.219   9.146 -4.1000 -1.6851  1.0904
  381MOL0     H50288   4.017   9.342   9.400  1.0409 -0.7630 -1.1083
  381MOL0     H50289   4.006   9.176   9.371 -0.5891  0.3283  1.8453
  381MOL0     H50290   4.336   9.277   9.113  1.1133 -0.4504  0.7890
  381MOL0     H50291   3.287   9.283   9.400  0.8377  0.0851 -1.3594
  381MOL0     H50292   3.078   9.400   9.338 -1.5125  2.9778 -0.9880
  382MOL0     O50293   2.222   8.091   1.001 -0.0463 -0.1826 -0.0480
  382MOL0     C50294   2.310   8.129   1.074 -0.4554  0.1010  0.3305
  382MOL0     O50295   2.332   8.261   1.097 -0.3281 -0.2333  0.0356
  382MOL0     C50296   2.235   8.349   1.047 -0.1375  0.8248  0.7895
  382MOL0     C50297   2.099   8.336   1.082  0.0610  0.1892 -0.2225
  382MOL0     C50298   2.008   8.423   1.022  0.1872  0.3509  0.6611
  382MOL0     C50299   2.045   8.522   0.926 -0.1503  0.1089  0.1495
  382MOL0     O50300   1.953   8.619   0.877  0.7886 -0.1231  0.0088
  382MOL0     C50301   1.824   8.620   0.936  0.1887 -0.4780 -0.5096
  382MOL0     C50302   1.740   8.708   0.850 -0.5804 -0.5946 -0.5140
  382MOL0     C50303   1.600   8.729   0.898  1.0916 -1.0565  0.5703
  382MOL0     C50304   1.521   8.829   0.810  0.3028  0.5119 -0.7840
  382MOL0     C50305   1.374   8.828   0.834  0.5536 -0.0872 -0.4646
  382MOL0     C50306   1.309   8.918   0.726  0.0550 -0.2105  1.0835
  382MOL0     C50307   1.157   8.933   0.733 -0.3810 -0.1211 -0.4958
  382MOL0     C50308   1.111   9.062   0.668  0.2755 -0.6078  0.6315
  382MOL0     N50309   0.974   9.091   0.685 -0.7256  0.8714  0.2396
  382MOL0     C50310   0.908   9.128   0.798 -0.5131  0.3729 -0.4324
  382MOL0     C50311   0.779   9.111   0.770 -0.1195 -0.8603  0.7085
  382MOL0     C50312   0.662   9.134   0.854  0.4415 -0.3098  0.4937
  382MOL0     C50313   0.544   9.197   0.757 -1.0335 -0.4147  0.6228
  382MOL0     C50314   0.428   9.247   0.837  0.5822  0.5526 -0.1522
  382MOL0     C50315   0.312   9.277   0.747  0.4896 -0.4379 -0.2001
  382MOL0     O50316   0.187   9.314   0.819 -0.6652 -0.3756  0.0182
  382MOL0     C50317   0.082   9.361   0.740  0.7152  0.4129  0.5312
  382MOL0     C50318  -0.013   9.444   0.801  0.6304  0.1591  0.7234
  382MOL0     C50319  -0.139   9.485   0.741  1.1234  0.6678  0.0258
  382MOL0     C50320  -0.174   9.432   0.623 -0.9347 -0.7712 -0.1102
  382MOL0     C50321  -0.314   9.467   0.574 -0.5479  0.2963  0.3576
  382MOL0     O50322  -0.348   9.387   0.473  0.5561  0.0954 -0.5854
  382MOL0     C50323  -0.476   9.363   0.431 -0.8086  0.3971 -0.2606
  382MOL0     C50324  -0.599   9.403   0.488  1.1551 -0.7304  0.4208
  382MOL0     C50325  -0.712   9.384   0.418 -0.1867 -0.2456 -0.5647
  382MOL0     C50326  -0.716   9.328   0.288  0.9600 -0.1746  0.1028
  382MOL0     O50327  -0.842   9.306   0.231  0.0474 -0.0118 -0.1501
  382MOL0     C50328  -0.850   9.304   0.086  0.4894  0.5882  1.3918
  382MOL0     C50329  -0.981   9.230   0.029 -0.1095  0.1223  0.6187
  382MOL0     C50330  -1.104   9.258   0.115  0.5204  0.1746  0.0712
  382MOL0     C50331  -1.232   9.197   0.053 -0.6438  0.7829  0.6852
  382MOL0     C50332  -1.353   9.230   0.132  0.6066 -0.0689 -0.5435
  382MOL0     C50333  -1.476   9.142   0.094  1.3667  0.2091 -0.3857
  382MOL0     C50334  -1.591   9.197   0.181 -0.4541 -0.2508  0.2630
  382MOL0     C50335  -1.723   9.164   0.124  0.9971 -0.0756 -0.1722
  382MOL0    Cl50336  -1.741   8.982   0.146 -0.1134  0.0624  0.4423
  382MOL0     C50337  -0.591   9.272   0.234 -0.0733 -0.1573 -0.1005
  382MOL0     C50338  -0.477   9.293   0.306  0.5227 -0.5618  0.1984
  382MOL0     O50339  -0.383   9.570   0.610 -0.5227 -0.5238 -0.0338
  382MOL0     C50340  -0.093   9.352   0.549 -1.3701  0.3292 -0.1634
  382MOL0     C50341   0.038   9.322   0.606 -0.5360  0.0510  0.3584
  382MOL0     N50342   0.770   9.066   0.637 -0.1999 -0.0093  0.3499
  382MOL0     N50343   0.885   9.052   0.594 -0.4397  0.1636 -0.6246
  382MOL0     C50344   2.181   8.526   0.893 -0.8290  0.2001 -0.1951
  382MOL0     C50345   2.272   8.442   0.949  0.0633  0.1030  0.6862
  382MOL0     C50346   2.409   8.037   1.129 -0.5981 -0.2312 -0.1761
  382MOL0     C50347   2.509   8.075   1.223 -0.1381 -0.2028  2.1612
  382MOL0     C50348   2.603   7.975   1.264 -0.8639  0.6683 -0.7964
  382MOL0     C50349   2.599   7.840   1.225  0.0705 -0.0642  0.3823
  382MOL0     O50350   2.695   7.748   1.266 -0.2570 -0.3971 -0.9223
  382MOL0     C50351   2.833   7.768   1.210  0.4736  0.0067 -0.5594
  382MOL0     C50352   2.876   7.628   1.178 -0.5626 -0.7261 -1.1168
  382MOL0     C50353   3.026   7.632   1.162 -0.2563  0.9621  1.3821
  382MOL0     C50354   3.085   7.493   1.136  1.1854  1.3415  0.5617
  382MOL0     C50355   3.229   7.501   1.129 -0.1922 -0.3960 -0.0975
  382MOL0     C50356   3.349   7.517   1.137 -1.0641  0.6455  0.2392
  382MOL0     C50357   2.494   7.801   1.144 -0.3638  0.0505 -0.9264
  382MOL0     C50358   2.404   7.896   1.089 -0.8196 -0.2991  0.4444
  382MOL0     H50359   2.079   8.270   1.166 -1.4027  0.5714 -0.2482
  382MOL0     H50360   1.908   8.417   1.064 -0.1970  1.6620 -0.0312
  382MOL0     H50361   1.834   8.666   1.034 -0.9317 -2.1306  0.4330
  382MOL0     H50362   1.772   8.524   0.948 -1.0587  0.3710  1.1689
  382MOL0     H50363   1.740   8.677   0.745  2.9422  1.6882 -1.3903
  382MOL0     H50364   1.790   8.806   0.854 -0.1716 -0.8233  0.1132
  382MOL0     H50365   1.600   8.770   0.999  0.2558  1.2889 -0.3198
  382MOL0     H50366   1.547   8.634   0.906  1.3739 -1.0977  2.1752
  382MOL0     H50367   1.571   8.923   0.836 -0.2044  0.3500  0.8839
  382MOL0     H50368   1.531   8.799   0.706 -3.4958 -0.8401 -0.9164
  382MOL0     H50369   1.354   8.868   0.934  2.0103  2.0088 -0.9399
  382MOL0     H50370   1.319   8.736   0.813  0.4811 -0.0867 -0.2817
  382MOL0     H50371   1.334   8.862   0.635 -1.5262 -2.1980  1.7962
  382MOL0     H50372   1.362   9.014   0.722 -0.4486  0.0511 -1.5906
  382MOL0     H50373   1.102   8.843   0.701 -1.0462 -0.7010  2.0466
  382MOL0     H50374   1.133   8.939   0.839  0.7076 -2.2796 -0.0560
  382MOL0     H50375   1.140   9.050   0.564  0.5155 -1.1522  0.7566
  382MOL0     H50376   1.170   9.152   0.690  0.5703 -0.0503 -2.1662
  382MOL0     H50377   0.955   9.157   0.891  1.8474  0.1838 -1.4919
  382MOL0     H50378   0.695   9.198   0.937 -0.2919  0.9682 -0.1748
  382MOL0     H50379   0.635   9.033   0.886  0.5598 -0.2588  0.7610
  382MOL0     H50380   0.513   9.127   0.680 -1.5458  1.5892 -1.0856
  382MOL0     H50381   0.583   9.277   0.693  0.5774 -0.3794  1.5935
  382MOL0     H50382   0.390   9.164   0.897  0.8329  1.7237  1.7338
  382MOL0     H50383   0.463   9.331   0.898  0.5109 -0.1224  0.8390
  382MOL0     H50384   0.295   9.199   0.672  0.4371  1.4773 -2.2842
  382MOL0     H50385   0.339   9.371   0.698 -0.8661  1.3644  2.2904
  382MOL0     H50386  -0.004   9.483   0.902 -0.0888 -0.5102  1.0615
  382MOL0     H50387  -0.210   9.544   0.799  1.8606  0.8177  0.8026
  382MOL0     H50388  -0.620   9.464   0.575 -3.8896  1.5398 -1.9463
  382MOL0     H50389  -0.806   9.409   0.467 -0.5804  1.2737 -1.9840
  382MOL0     H50390  -0.762   9.260   0.040 -0.1995 -0.0958  0.7010
  382MOL0     H50391  -0.857   9.409   0.058 -1.4063  0.7174  2.1928
  382MOL0     H50392  -0.956   9.124   0.024 -0.7454  0.0175 -0.8276
  382MOL0     H50393  -1.006   9.261  -0.073 -1.2241  0.5436  1.0064
  382MOL0     H50394  -1.098   9.365   0.136 -0.6636 -0.1054  2.1332
  382MOL0     H50395  -1.092   9.213   0.214 -2.5694  1.5409  1.1911
  382MOL0     H50396  -1.246   9.228  -0.051 -1.5470 -0.6992  0.3226
  382MOL0     H50397  -1.226   9.088   0.038 -0.6018  0.6408  1.6528
  382MOL0     H50398  -1.369   9.336   0.109  1.2243 -0.4795 -3.2188
  382MOL0     H50399  -1.328   9.203   0.235 -2.1896 -3.4226 -0.5616
  382MOL0     H50400  -1.451   9.038   0.116  0.5124  0.1632  0.4371
  382MOL0     H50401  -1.498   9.138  -0.013  1.5282  1.6737 -0.5016
  382MOL0     H50402  -1.568   9.158   0.280  2.4340 -0.4720 -0.4198
  382MOL0     H50403  -1.579   9.305   0.193  1.3551 -0.5257  1.2556
  382MOL0     H50404  -1.729   9.195   0.019  0.1941  0.1895 -0.0484
  382MOL0     H50405  -1.799   9.209   0.189  1.2409 -1.5158  1.1619
  382MOL0     H50406  -0.581   9.211   0.145 -0.2228  1.1832 -1.0579
  382MOL0     H50407  -0.381   9.265   0.265  0.9209  0.8714  0.0959
  382MOL0     H50408  -0.139   9.312   0.459 -1.4150 -0.9508  0.4064
  382MOL0     H50409   0.087   9.244   0.547  2.8623  1.1647  1.4934
  382MOL0     H50410   2.217   8.601   0.824  0.5007  0.0633  0.3143
  382MOL0     H50411   2.377   8.439   0.921  0.2995 -2.6494  1.5247
  382MOL0     H50412   2.508   8.179   1.256 -1.8411  1.2611 -1.8399
  382MOL0     H50413   2.676   7.998   1.340  1.6195 -4.4500 -1.2068
  382MOL0     H50414   2.907   7.816   1.275 -1.1667  1.9003  0.0204
  382MOL0     H50415   2.827   7.824   1.116 -1.5779  1.3592  0.2861
  382MOL0     H50416   2.857   7.564   1.264  0.1179  3.2543  2.3179
  382MOL0     H50417   2.835   7.582   1.087 -1.2308 -0.6604 -0.8509
  382MOL0     H50418   3.066   7.662   1.260 -2.5803 -0.1869  2.7802
  382MOL0     H50419   3.049   7.696   1.076 -2.4337  0.0798  0.0647
  382MOL0     H50420   3.056   7.422   1.215 -0.8004  0.9526 -0.4392
  382MOL0     H50421   3.054   7.453   1.039  1.0267 -0.5972  1.3744
  382MOL0     H50422   3.456   7.512   1.143 -1.2115 -2.2832  4.0246
  382MOL0     H50423   2.488   7.695   1.120  1.5919 -1.0184  2.6075
  382MOL0     H50424   2.325   7.874   1.019 -2.1861  2.0178  1.1541
  383MOL0     O50425   1.201  10.857   9.894  0.7014 -0.1445  0.4099
  383MOL0     C50426   1.164  10.956   9.963  0.5120  0.5988  0.2648
  383MOL0     O50427   1.248  11.032  10.037  0.3032 -0.4308 -0.4612
  383MOL0     C50428   1.376  11.025  10.013 -0.3318 -0.6474  0.4312
  383MOL0     C50429   1.440  11.020   9.884 -0.3948 -1.2709 -0.0577
  383MOL0     C50430   1.578  11.041   9.864 -0.6664  1.5507 -0.5209
  383MOL0     C50431   1.655  11.046   9.976  1.2955 -0.2458  0.5411
  383MOL0     O50432   1.792  11.049   9.945 -0.3915  0.6516  0.0255
  383MOL0     C50433   1.869  11.139  10.026 -0.3511 -0.8707  0.5979
  383MOL0     C50434   2.007  11.154   9.954  0.4986 -0.5724 -0.4508
  383MOL0     C50435   2.064  11.014   9.944 -0.3252 -0.0538  0.1266
  383MOL0     C50436   2.179  11.002   9.837 -0.2669  0.1940  0.5200
  383MOL0     C50437   2.230  10.861   9.807 -0.3076 -0.3285  0.1532
  383MOL0     C50438   2.288  10.804   9.929  0.0760  0.4209 -0.1940
  383MOL0     C50439   2.393  10.695   9.875  0.4852  0.2143 -0.7055
  383MOL0     C50440   2.431  10.598   9.994  0.0217  0.0217 -0.4937
  383MOL0     N50441   2.494  10.666  10.114  0.2729  0.2861  0.4052
  383MOL0     C50442   2.603  10.752  10.101 -0.5733  0.0474 -0.6298
  383MOL0     C50443   2.633  10.794  10.226  0.5128  0.2566  0.5249
  383MOL0     C50444   2.747  10.885  10.255  0.7169 -0.6257 -0.3803
  383MOL0     C50445   2.721  11.033  10.221  0.8098 -0.6807 -0.1131
  383MOL0     C50446   2.797  11.130  10.323  0.7755 -0.4525  0.5714
  383MOL0     C50447   2.941  11.124  10.304  0.4347  0.8840  0.2367
  383MOL0     O50448   2.999  11.255  10.348 -0.1197  0.4721 -0.1657
  383MOL0     C50449   3.058  11.261  10.463  0.4652 -0.2003 -0.4885
  383MOL0     C50450   3.026  11.189  10.576  0.0062  0.2926  0.2554
  383MOL0     C50451   3.119  11.192  10.680  0.5342 -0.1064 -0.1935
  383MOL0     C50452   3.231  11.275  10.679  0.1246 -0.0333  0.3121
  383MOL0     C50453   3.323  11.275  10.789 -0.8239  0.1381 -0.6853
  383MOL0     O50454   3.356  11.159  10.861 -0.0645 -0.0428 -0.2054
  383MOL0     C50455   3.466  11.161  10.947 -0.3030 -0.0677  0.0761
  383MOL0     C50456   3.443  11.213  11.067  0.6217 -0.1377 -0.3476
  383MOL0     C50457   3.537  11.215  11.171  0.0462  0.7050  0.1259
  383MOL0     C50458   3.668  11.172  11.142  0.6595  0.0947 -0.3583
  383MOL0     O50459   3.774  11.199  11.219  0.3325 -0.2712  0.2555
  383MOL0     C50460   3.752  11.205  11.365  0.1300 -0.1517 -0.2784
  383MOL0     C50461   3.888  11.203  11.441  0.0320  0.6554 -0.3480
  383MOL0     C50462   3.956  11.070  11.416  0.8123  0.0586  0.0321
  383MOL0     C50463   4.104  11.078  11.456 -0.1178 -0.2929  0.1093
  383MOL0     C50464   4.188  10.958  11.411  0.1934 -0.0717 -0.4672
  383MOL0     C50465   4.341  10.998  11.436  0.1880 -0.1228  0.6277
  383MOL0     C50466   4.419  10.862  11.419 -0.7486  0.3437  0.3844
  383MOL0     C50467   4.564  10.896  11.385 -0.3210 -0.4623 -0.5621
  383MOL0    Cl50468   4.652  10.750  11.347 -0.6056 -0.0607 -0.3746
  383MOL0     C50469   3.691  11.127  11.015  0.3106  0.7322  0.4196
  383MOL0     C50470   3.595  11.111  10.913  0.1911  0.3449  0.0229
  383MOL0     O50471   3.388  11.381  10.801 -0.3784 -0.6064 -0.0600
  383MOL0     C50472   3.247  11.366  10.571 -0.4064  0.1400 -0.0386
  383MOL0     C50473   3.166  11.348  10.460  0.5931  0.0735 -0.3632
  383MOL0     N50474   2.535  10.751  10.312  0.1006  0.5252 -0.4859
  383MOL0     N50475   2.448  10.676  10.245  0.4048 -0.6118  0.0277
  383MOL0     C50476   1.607  11.049  10.102  0.7463  0.3243 -1.3609
  383MOL0     C50477   1.468  11.043  10.124 -0.5028  0.3366  0.1117
  383MOL0     C50478   1.017  10.990   9.957 -0.4891 -0.1542  1.0014
  383MOL0     C50479   0.941  10.967   9.833  0.5510 -0.3129 -0.4506
  383MOL0     C50480   0.805  10.997   9.841 -0.5554 -0.2119 -0.5495
  383MOL0     C50481   0.737  11.060   9.955 -0.9261 -1.2797 -0.0096
  383MOL0     O50482   0.604  11.086   9.965 -0.5990 -0.0673 -0.2640
  383MOL0     C50483   0.521  11.021   9.871 -0.1204  0.4347  0.5870
  383MOL0     C50484   0.370  11.059   9.888 -0.4103  1.1376  0.2634
  383MOL0     C50485   0.283  10.984   9.784  0.5098 -0.2579  0.0601
  383MOL0     C50486   0.127  10.984   9.800 -0.8169  0.5162 -0.2293
  383MOL0     C50487   0.053  11.103   9.776  0.5764  0.0100  0.6370
  383MOL0     C50488  -0.017  11.192   9.748  0.2182 -0.4235  0.2797
  383MOL0     C50489   0.824  11.073  10.067  0.9059  0.7126 -0.7712
  383MOL0     C50490   0.956  11.045  10.066  0.7494 -0.7049 -0.2815
  383MOL0     H50491   1.384  10.993   9.795  2.1744 -2.1529 -1.4960
  383MOL0     H50492   1.629  11.025   9.769 -0.2376 -2.9459  0.2130
  383MOL0     H50493   1.877  11.104  10.129 -1.0234  1.8166  1.6451
  383MOL0     H50494   1.836  11.243  10.039 -0.6158 -1.2488  3.6493
  383MOL0     H50495   2.081  11.206  10.015  1.0888 -1.1146 -0.6885
  383MOL0     H50496   1.985  11.203   9.860 -1.5628  1.1332  0.8315
  383MOL0     H50497   1.984  10.942   9.930 -1.0428  0.4307  1.5553
  383MOL0     H50498   2.111  10.991  10.041 -0.0499  0.4472  0.1167
  383MOL0     H50499   2.145  11.032   9.738 -2.8819  1.8116  1.7911
  383MOL0     H50500   2.267  11.060   9.866  1.9581 -2.4782 -0.4252
  383MOL0     H50501   2.290  10.877   9.717 -2.0459  4.6230 -0.4766
  383MOL0     H50502   2.154  10.790   9.774  0.0211 -0.1817 -0.9827
  383MOL0     H50503   2.205  10.757   9.982  0.4041  1.2436  1.0977
  383MOL0     H50504   2.333  10.885   9.988  1.6833 -1.4020  1.2075
  383MOL0     H50505   2.348  10.631   9.799  0.9116 -2.4989  1.1400
  383MOL0     H50506   2.479  10.745   9.830  0.1963  1.4126  0.0277
  383MOL0     H50507   2.495  10.518   9.955 -2.3731 -0.7380 -3.2078
  383MOL0     H50508   2.347  10.538  10.030  1.0340 -0.7704  0.6194
  383MOL0     H50509   2.663  10.772  10.012  0.8880  0.7157  0.4772
  383MOL0     H50510   2.837  10.850  10.202  1.5047 -2.8914  2.2237
  383MOL0     H50511   2.764  10.865  10.361 -0.8577 -2.6615 -0.4530
  383MOL0     H50512   2.613  11.048  10.216  0.6714 -1.1056  1.1226
  383MOL0     H50513   2.770  11.054  10.126  1.1988  0.4564  0.3219
  383MOL0     H50514   2.753  11.225  10.295  1.7774  0.2722  1.3746
  383MOL0     H50515   2.769  11.125  10.429 -2.1053  0.6832 -0.0391
  383MOL0     H50516   2.965  11.107  10.199  1.8964  0.2633  0.6357
  383MOL0     H50517   2.987  11.038  10.354 -2.2317 -1.0274 -0.3819
  383MOL0     H50518   2.944  11.120  10.586  0.6393 -0.2750  1.7215
  383MOL0     H50519   3.109  11.130  10.768  0.8769 -0.1425 -0.1792
  383MOL0     H50520   3.339  11.233  11.089  0.6663 -0.3505  0.0657
  383MOL0     H50521   3.496  11.269  11.256 -2.5927 -1.0608  0.0899
  383MOL0     H50522   3.702  11.117  11.407 -1.1639  1.0589  0.8237
  383MOL0     H50523   3.691  11.292  11.392  0.0400 -0.1770 -0.3996
  383MOL0     H50524   3.888  11.238  11.545  0.6264 -0.4800  0.0456
  383MOL0     H50525   3.943  11.283  11.391 -1.6896  0.7622 -2.1866
  383MOL0     H50526   3.961  11.049  11.308  3.8239  0.1192  0.0647
  383MOL0     H50527   3.914  10.988  11.475 -0.2464 -0.0933 -0.8978
  383MOL0     H50528   4.142  11.170  11.411 -0.2857 -0.4026 -0.2653
  383MOL0     H50529   4.099  11.089  11.565  1.0499 -3.2211  0.5541
  383MOL0     H50530   4.172  10.942  11.304 -0.8466 -0.2349 -0.2957
  383MOL0     H50531   4.169  10.873  11.477 -2.4356  0.7224 -0.0571
  383MOL0     H50532   4.343  11.052  11.531 -0.6353 -1.2856  1.3382
  383MOL0     H50533   4.359  11.067  11.354 -1.9471 -0.8152 -0.4922
  383MOL0     H50534   4.398  10.805  11.510  1.0854 -0.1062  0.5627
  383MOL0     H50535   4.389  10.812  11.325 -0.3102  0.8407 -0.0225
  383MOL0     H50536   4.607  10.935  11.478  1.3152  0.0842 -1.5104
  383MOL0     H50537   4.572  10.973  11.309  2.1691 -0.9008 -0.8431
  383MOL0     H50538   3.792  11.092  10.994 -0.6519 -2.7750  0.9249
  383MOL0     H50539   3.616  11.071  10.815 -1.7394  2.0542 -1.1834
  383MOL0     H50540   3.323  11.444  10.566 -0.2948  0.0669  0.4488
  383MOL0     H50541   3.195  11.410  10.377  1.9459 -0.4014 -0.2648
  383MOL0     H50542   1.684  11.059  10.178  2.3470  4.0893 -3.2131
  383MOL0     H50543   1.438  11.057  10.227 -2.1393 -1.0546 -0.1340
  383MOL0     H50544   0.991  10.924   9.747 -0.8116 -2.1799 -0.3788
  383MOL0     H50545   0.761  10.980   9.744  0.9349  3.1243 -1.9718
  383MOL0     H50546   0.511  10.914   9.892 -1.1108  0.3509 -0.2473
  383MOL0     H50547   0.548  11.044   9.767 -2.0568  1.8346  0.3415
  383MOL0     H50548   0.346  11.038   9.993 -0.8862  0.9944  0.1271
  383MOL0     H50549   0.359  11.165   9.864 -0.3251  0.9401 -0.6795
  383MOL0     H50550   0.311  10.879   9.779 -1.1454 -0.8044  1.1665
  383MOL0     H50551   0.299  11.033   9.688  1.7058  0.8935  0.8027
  383MOL0     H50552   0.083  10.900   9.746  0.5430 -1.9084  2.1744
  383MOL0     H50553   0.102  10.959   9.903  0.3072  0.9845  0.1731
  383MOL0     H50554  -0.062  11.286   9.721 -2.0216 -1.1989  1.1496
  383MOL0     H50555   0.771  11.096  10.160 -1.5329 -3.9517 -0.7416
  383MOL0     H50556   1.015  11.053  10.157 -3.0969 -1.4709  2.5448
  384MOL0     O50557   6.075   7.737  10.194 -0.1846 -0.8167 -0.4223
  384MOL0     C50558   6.149   7.690  10.104  0.1365  0.0054 -0.2652
  384MOL0     O50559   6.104   7.644   9.983  0.4367 -0.2700 -0.3286
  384MOL0     C50560   5.972   7.634   9.966 -0.1777  0.0232 -0.4465
  384MOL0     C50561   5.892   7.542  10.048  0.1581  0.2451  0.1689
  384MOL0     C50562   5.756   7.542  10.032 -0.3745 -0.5093  0.7765
  384MOL0     C50563   5.690   7.624   9.935  0.7507  0.7871 -0.0250
  384MOL0     O50564   5.557   7.616   9.919 -0.0646  0.1081 -0.1473
  384MOL0     C50565   5.482   7.732   9.888  1.1391  0.0331  0.0030
  384MOL0     C50566   5.351   7.701   9.955  0.5062 -0.2851 -0.6888
  384MOL0     C50567   5.243   7.788   9.892 -0.1487  0.2768 -0.9671
  384MOL0     C50568   5.107   7.756   9.936 -0.3873 -0.3639  1.0870
  384MOL0     C50569   4.998   7.847   9.882  0.0796 -0.7985 -0.8562
  384MOL0     C50570   4.988   7.866   9.732  0.1998 -0.3678  0.4931
  384MOL0     C50571   4.855   7.925   9.684  0.2627 -0.4832 -0.1370
  384MOL0     C50572   4.852   7.918   9.532 -0.1671 -0.2494  0.5748
  384MOL0     N50573   4.734   7.976   9.468 -0.1463 -0.6254  0.2520
  384MOL0     C50574   4.732   8.097   9.402  0.6784  0.3410 -0.2163
  384MOL0     C50575   4.603   8.094   9.352 -0.4120  0.2766 -0.4074
  384MOL0     C50576   4.542   8.205   9.267 -0.3892 -0.2552 -0.9130
  384MOL0     C50577   4.393   8.210   9.273 -0.3732 -0.6574  1.3030
  384MOL0     C50578   4.338   8.122   9.165 -0.4268 -0.3012 -0.1733
  384MOL0     C50579   4.197   8.066   9.187 -0.4524  0.4164  0.8644
  384MOL0     O50580   4.100   8.171   9.183 -0.7500 -0.8634 -0.0862
  384MOL0     C50581   3.972   8.148   9.219  0.0189 -0.2889 -0.0627
  384MOL0     C50582   3.920   8.033   9.291 -0.0221 -0.1911 -0.2434
  384MOL0     C50583   3.792   8.044   9.340 -0.4971  0.4790  0.1192
  384MOL0     C50584   3.705   8.142   9.297  0.2763 -0.5652  0.0964
  384MOL0     C50585   3.576   8.152   9.359 -0.1545 -0.5289  0.0139
  384MOL0     O50586   3.472   8.213   9.282 -0.4183  0.0040  0.4526
  384MOL0     C50587   3.341   8.194   9.307  0.5223 -0.3448  0.4627
  384MOL0     C50588   3.250   8.302   9.301  0.6344  0.0826  0.0237
  384MOL0     C50589   3.111   8.278   9.300  0.5774  0.8797 -0.1643
  384MOL0     C50590   3.060   8.148   9.289  0.4859  1.0531 -1.0690
  384MOL0     O50591   2.936   8.112   9.263  0.5476  0.6375  0.1098
  384MOL0     C50592   2.845   8.205   9.214  0.0724  0.0945  0.3286
  384MOL0     C50593   2.714   8.137   9.173  0.2010  0.0286 -0.1532
  384MOL0     C50594   2.650   8.105   9.306 -0.0890  0.1401 -1.1592
  384MOL0     C50595   2.526   8.016   9.274  0.3271 -0.5323 -0.4413
  384MOL0     C50596   2.408   8.038   9.369  0.3252 -0.1105  0.0343
  384MOL0     C50597   2.327   8.163   9.335 -0.1916  0.4308  0.2463
  384MOL0     C50598   2.260   8.206   9.465  0.6825  0.2926 -0.0215
  384MOL0     C50599   2.156   8.101   9.506  0.9431  0.1325 -0.1920
  384MOL0    Cl50600   2.077   8.169   9.657  0.0866  0.1571 -0.1473
  384MOL0     C50601   3.154   8.049   9.280 -0.1674 -0.0852  0.0057
  384MOL0     C50602   3.292   8.063   9.292  0.8029 -0.2696  0.3103
  384MOL0     O50603   3.552   8.105   9.469 -0.1573  0.1130 -0.1702
  384MOL0     C50604   3.746   8.256   9.220 -0.1836 -0.4410  0.1465
  384MOL0     C50605   3.879   8.259   9.185 -0.0235  0.7444 -0.3017
  384MOL0     N50606   4.544   7.978   9.382  0.3570  0.1114 -0.2716
  384MOL0     N50607   4.624   7.910   9.454  0.9245  0.6631  0.2758
  384MOL0     C50608   5.774   7.697   9.853  0.2032  0.2246  1.2733
  384MOL0     C50609   5.908   7.704   9.866 -0.7795  0.4283  0.5488
  384MOL0     C50610   6.297   7.695  10.123 -0.7872 -0.2273 -0.0207
  384MOL0     C50611   6.346   7.773  10.225 -0.5402  0.5368  0.6533
  384MOL0     C50612   6.485   7.777  10.236 -0.7290  1.3139 -0.0872
  384MOL0     C50613   6.573   7.704  10.152 -0.1413  0.2593  0.3808
  384MOL0     O50614   6.708   7.726  10.173  0.4556  0.3487  0.5193
  384MOL0     C50615   6.802   7.643  10.106  0.5229  0.5355 -0.1142
  384MOL0     C50616   6.940   7.695  10.153 -0.1321  0.0033  0.2399
  384MOL0     C50617   7.045   7.632  10.053  0.6385 -0.4126  0.4316
  384MOL0     C50618   7.181   7.668  10.118  0.6208  0.1159  0.4001
  384MOL0     C50619   7.288   7.655  10.028  0.4811  0.4923  0.5855
  384MOL0     C50620   7.384   7.646   9.953  0.1063 -0.9706  1.1897
  384MOL0     C50621   6.515   7.626  10.052  0.1791  0.2306  0.2568
  384MOL0     C50622   6.377   7.622  10.032  0.9451 -1.1304 -0.4891
  384MOL0     H50623   5.938   7.470  10.115 -1.7533 -1.5557 -0.3603
  384MOL0     H50624   5.685   7.487  10.092 -3.2535  1.4344 -0.5821
  384MOL0     H50625   5.469   7.743   9.780  1.2675 -0.0003 -0.0163
  384MOL0     H50626   5.536   7.821   9.922  0.4564  0.4151  0.0911
  384MOL0     H50627   5.345   7.721  10.062  0.9322 -1.8193 -0.3530
  384MOL0     H50628   5.325   7.597   9.934 -3.0121  0.1247  0.8254
  384MOL0     H50629   5.236   7.776   9.783 -4.5390  0.7002 -0.9244
  384MOL0     H50630   5.260   7.892   9.919 -0.0709 -0.6669  3.2418
  384MOL0     H50631   5.085   7.651   9.911  2.4260 -0.7621 -0.0876
  384MOL0     H50632   5.094   7.785  10.041  1.9166  6.1515  0.0136
  384MOL0     H50633   5.019   7.947   9.922 -3.1580 -1.1373  2.2766
  384MOL0     H50634   4.897   7.817   9.914 -0.8567  1.9867 -0.8853
  384MOL0     H50635   5.004   7.770   9.682  0.7063 -0.3534  0.6296
  384MOL0     H50636   5.069   7.933   9.704  2.5764 -2.5650  1.7274
  384MOL0     H50637   4.759   7.894   9.727  0.5295  0.5118  1.2590
  384MOL0     H50638   4.872   8.027   9.721  1.2680 -0.7056  0.0581
  384MOL0     H50639   4.853   7.812   9.504  1.8871  0.0626 -0.6898
  384MOL0     H50640   4.948   7.956   9.498  0.8838  0.7324  4.2274
  384MOL0     H50641   4.819   8.158   9.383  0.3367  0.4715 -1.4325
  384MOL0     H50642   4.582   8.184   9.168  3.9661  2.2417  0.0508
  384MOL0     H50643   4.588   8.299   9.299 -1.4853 -0.4528  1.4516
  384MOL0     H50644   4.366   8.309   9.237 -2.8890 -2.6982 -3.3672
  384MOL0     H50645   4.352   8.184   9.371 -0.9106 -1.6204  0.8423
  384MOL0     H50646   4.332   8.193   9.083  0.1213  0.8236  0.7226
  384MOL0     H50647   4.407   8.043   9.132 -1.4705 -0.2573 -2.6705
  384MOL0     H50648   4.188   8.019   9.286 -0.6166 -1.2666  0.0867
  384MOL0     H50649   4.178   7.995   9.107  1.4789  1.8607 -0.9783
  384MOL0     H50650   3.994   7.960   9.321 -0.5761 -0.9967 -0.7963
  384MOL0     H50651   3.765   7.969   9.414  1.2029  1.7222  2.0931
  384MOL0     H50652   3.295   8.401   9.303 -0.0117  0.4072  2.2515
  384MOL0     H50653   3.048   8.367   9.305 -1.4050 -0.4391 -0.6483
  384MOL0     H50654   2.891   8.254   9.128  1.7697 -0.0791  1.0924
  384MOL0     H50655   2.828   8.291   9.280  2.3780  3.2599 -2.8095
  384MOL0     H50656   2.745   8.048   9.117  1.7669  1.9127 -2.4678
  384MOL0     H50657   2.648   8.201   9.115  3.4553  3.9139 -0.0006
  384MOL0     H50658   2.625   8.203   9.347  0.0110  0.1084 -1.0205
  384MOL0     H50659   2.715   8.064   9.385 -1.4657  0.0931 -0.0082
  384MOL0     H50660   2.488   8.034   9.173 -2.7568 -1.1952  0.4717
  384MOL0     H50661   2.555   7.911   9.287  1.1597 -0.0703  1.7698
  384MOL0     H50662   2.436   8.038   9.475 -0.8019 -0.9507  0.3624
  384MOL0     H50663   2.345   7.948   9.362  1.5435 -0.9095 -1.1157
  384MOL0     H50664   2.254   8.141   9.257  1.1598 -0.4610 -0.8161
  384MOL0     H50665   2.392   8.238   9.289  2.2414 -1.2526  0.7207
  384MOL0     H50666   2.325   8.216   9.552 -0.8763  0.9217  1.1173
  384MOL0     H50667   2.212   8.302   9.446 -0.3207 -0.2049 -0.1090
  384MOL0     H50668   2.207   8.008   9.530  0.9488  0.0238 -0.6313
  384MOL0     H50669   2.080   8.081   9.431 -1.9102 -2.3694  3.0193
  384MOL0     H50670   3.117   7.948   9.268  0.5643 -0.4378  0.6069
  384MOL0     H50671   3.358   7.977   9.300  0.2402 -0.9921 -2.0740
  384MOL0     H50672   3.678   8.334   9.188  0.7505 -0.3553 -1.7632
  384MOL0     H50673   3.913   8.347   9.132 -0.8693  0.7369 -0.8780
  384MOL0     H50674   5.723   7.748   9.771 -0.0446  0.9977  1.8959
  384MOL0     H50675   5.967   7.777   9.811  0.4111  0.6575  2.0688
  384MOL0     H50676   6.276   7.835  10.280 -0.2339  0.2015  1.4231
  384MOL0     H50677   6.534   7.844  10.307 -4.6094  1.8609  2.3648
  384MOL0     H50678   6.796   7.639   9.997  0.9688 -1.0771 -0.1082
  384MOL0     H50679   6.800   7.541  10.147 -0.3517  0.8091  0.5600
  384MOL0     H50680   6.948   7.804  10.152  0.0672 -0.0066 -0.8916
  384MOL0     H50681   6.955   7.653  10.252 -1.0721  0.9696  0.8072
  384MOL0     H50682   7.028   7.675   9.954 -0.8733  0.9501  1.2429
  384MOL0     H50683   7.039   7.523  10.046  0.7067 -0.3492 -1.0389
  384MOL0     H50684   7.172   7.774  10.144  0.0861  0.1635  0.0353
  384MOL0     H50685   7.196   7.611  10.210  0.6895 -0.0719  0.2728
  384MOL0     H50686   7.473   7.640   9.895 -0.3975 -0.4913  0.3462
  384MOL0     H50687   6.567   7.562   9.981 -2.7687 -0.2413 -1.6694
  384MOL0     H50688   6.336   7.561   9.952  1.9417  0.6256 -2.4415
  385MOL0     O50689   9.361   6.271   0.177  0.0002  0.2649 -0.2761
  385MOL0     C50690   9.406   6.181   0.103 -0.2985  0.1748  0.2073
  385MOL0     O50691   9.363   6.054   0.079  0.2932 -0.3302  0.3805
  385MOL0     C50692   9.261   5.996   0.153  0.0218 -0.7375  0.4460
  385MOL0     C50693   9.263   5.858   0.161 -0.0623 -0.5217  0.3520
  385MOL0     C50694   9.161   5.790   0.232  0.3727  0.4469  0.7611
  385MOL0     C50695   9.065   5.854   0.314 -0.7300  0.0881  0.6422
  385MOL0     O50696   8.983   5.791   0.400 -0.2633 -0.6810 -0.2206
  385MOL0     C50697   8.863   5.759   0.340  0.4254  0.4759  0.9487
  385MOL0     C50698   8.760   5.720   0.449  0.1002 -0.2858 -0.1448
  385MOL0     C50699   8.615   5.681   0.390 -0.5037  0.4870  0.5992
  385MOL0     C50700   8.600   5.538   0.333  0.6649 -0.1605  0.7313
  385MOL0     C50701   8.464   5.513   0.270 -0.3793  0.4092  0.1821
  385MOL0     C50702   8.340   5.523   0.361 -0.3392 -0.4005  0.8966
  385MOL0     C50703   8.328   5.411   0.468 -0.0710 -0.1208 -0.5947
  385MOL0     C50704   8.371   5.430   0.613 -0.3559 -0.9260  0.6573
  385MOL0     N50705   8.342   5.317   0.703  0.5395 -0.1581 -0.4561
  385MOL0     C50706   8.229   5.237   0.712  1.0985 -0.2208  0.5059
  385MOL0     C50707   8.246   5.152   0.816  0.1865 -0.6830  0.7664
  385MOL0     C50708   8.149   5.055   0.873 -0.3894 -0.4813  0.1127
  385MOL0     C50709   8.184   4.913   0.810  0.2739 -0.9762 -0.0219
  385MOL0     C50710   8.076   4.811   0.823  0.8801 -0.2213  0.4829
  385MOL0     C50711   8.064   4.750   0.961  0.4654 -0.6577  0.1118
  385MOL0     O50712   8.021   4.847   1.056 -0.3399  0.9482 -0.1349
  385MOL0     C50713   7.891   4.857   1.094  0.8964 -0.2853 -0.2733
  385MOL0     C50714   7.781   4.832   1.008  0.3997  0.3908 -0.2337
  385MOL0     C50715   7.644   4.854   1.052 -0.0350 -0.4891  0.0907
  385MOL0     C50716   7.616   4.913   1.180  0.3586 -0.0351  0.9812
  385MOL0     C50717   7.473   4.908   1.230 -0.5142  0.5916  0.2391
  385MOL0     O50718   7.366   4.895   1.149 -0.1023 -0.4313  0.3138
  385MOL0     C50719   7.256   4.840   1.208 -0.3642  0.0653 -0.0320
  385MOL0     C50720   7.137   4.899   1.195  0.1583 -0.0478 -0.5554
  385MOL0     C50721   7.022   4.844   1.260  0.7608 -0.2258  0.8625
  385MOL0     C50722   7.028   4.737   1.350  0.7790 -0.0609 -0.3913
  385MOL0     O50723   6.913   4.692   1.406 -0.3803  0.5634  0.7406
  385MOL0     C50724   6.862   4.753   1.518 -0.3676 -0.2989 -0.0413
  385MOL0     C50725   6.726   4.708   1.572  0.3330  0.4446  0.1323
  385MOL0     C50726   6.605   4.718   1.472  0.2206  0.4439 -0.9888
  385MOL0     C50727   6.497   4.623   1.504 -0.7886  0.1140 -0.0580
  385MOL0     C50728   6.378   4.620   1.413  0.1051 -0.4011 -0.6836
  385MOL0     C50729   6.270   4.504   1.445  0.1455 -0.2240 -0.1681
  385MOL0     C50730   6.158   4.502   1.339 -0.7324  0.0204 -0.6753
  385MOL0     C50731   6.201   4.496   1.202  0.0280 -0.6721  0.2373
  385MOL0    Cl50732   6.070   4.540   1.091 -0.2375  0.6136  0.0295
  385MOL0     C50733   7.156   4.665   1.352  0.7096 -0.5206  0.2407
  385MOL0     C50734   7.266   4.715   1.287 -0.2651 -0.7112  0.3665
  385MOL0     O50735   7.467   4.923   1.352 -0.0363  0.1353 -0.7697
  385MOL0     C50736   7.726   4.938   1.267  0.3451 -0.2148  0.4184
  385MOL0     C50737   7.860   4.929   1.214 -0.3221  0.5657 -0.0097
  385MOL0     N50738   8.372   5.184   0.871  0.7267 -0.8088  0.6329
  385MOL0     N50739   8.423   5.276   0.807  0.4552 -0.0771  0.3843
  385MOL0     C50740   9.069   5.993   0.308  1.3135 -0.7259  0.5546
  385MOL0     C50741   9.154   6.067   0.223 -0.7784 -0.2698  1.0438
  385MOL0     C50742   9.516   6.219   0.016 -0.0981 -0.4748  1.2114
  385MOL0     C50743   9.590   6.120  -0.058  0.5789  1.0926  0.1299
  385MOL0     C50744   9.696   6.167  -0.120  0.2427 -0.3934  0.3283
  385MOL0     C50745   9.729   6.303  -0.138 -0.2530  0.2079  0.1507
  385MOL0     O50746   9.836   6.362  -0.207 -0.0009  0.7101  0.7412
  385MOL0     C50747   9.930   6.266  -0.257 -0.6457 -0.4636 -0.1864
  385MOL0     C50748  10.014   6.341  -0.370  0.7035  0.0895  0.0623
  385MOL0     C50749  10.141   6.254  -0.386 -0.3827 -1.3085  0.2456
  385MOL0     C50750  10.209   6.324  -0.503 -0.7516 -0.4332 -0.5104
  385MOL0     C50751  10.354   6.284  -0.509 -0.3825 -0.6088  0.5478
  385MOL0     C50752  10.470   6.244  -0.523  0.2265  0.3365  0.2864
  385MOL0     C50753   9.650   6.396  -0.070  1.3699 -0.5382  0.1070
  385MOL0     C50754   9.555   6.360   0.015 -0.8073  0.2898  0.5579
  385MOL0     H50755   9.322   5.800   0.090 -0.5123  1.5926 -1.9072
  385MOL0     H50756   9.162   5.682   0.223 -1.7680  0.3291  1.2409
  385MOL0     H50757   8.885   5.674   0.276 -2.2233  0.6817 -0.3682
  385MOL0     H50758   8.822   5.839   0.278  0.4303  0.2802  0.6935
  385MOL0     H50759   8.734   5.805   0.514  0.1756 -0.6563  0.3708
  385MOL0     H50760   8.789   5.630   0.503 -3.1931 -0.5633  1.4425
  385MOL0     H50761   8.576   5.753   0.318 -1.0431 -1.1215 -0.8006
  385MOL0     H50762   8.549   5.687   0.477 -0.0309 -0.7939  1.0746
  385MOL0     H50763   8.691   5.525   0.274  1.5992 -2.3181  2.4593
  385MOL0     H50764   8.626   5.454   0.399  2.3168 -0.0336  0.2949
  385MOL0     H50765   8.467   5.417   0.217  0.4156  0.2418  0.5119
  385MOL0     H50766   8.447   5.590   0.194 -3.4677 -0.9664 -0.7076
  385MOL0     H50767   8.256   5.512   0.292  1.0279 -1.2040 -0.7054
  385MOL0     H50768   8.332   5.626   0.398  2.1688 -0.0853  0.7640
  385MOL0     H50769   8.227   5.370   0.477  0.5492 -1.2921  2.0327
  385MOL0     H50770   8.393   5.331   0.431 -1.4273 -0.6914 -1.8686
  385MOL0     H50771   8.319   5.519   0.651 -0.7486 -0.4891 -0.8624
  385MOL0     H50772   8.479   5.424   0.624 -0.2093  0.0620 -0.1016
  385MOL0     H50773   8.143   5.247   0.645  1.5915 -0.9489 -0.2639
  385MOL0     H50774   8.046   5.084   0.851 -0.0998 -1.3134 -2.6858
  385MOL0     H50775   8.168   5.051   0.981 -1.3214 -1.5435  0.2583
  385MOL0     H50776   8.281   4.880   0.850  0.9532  1.7005  0.7293
  385MOL0     H50777   8.189   4.931   0.702  0.8586  1.2951  0.3347
  385MOL0     H50778   7.976   4.845   0.792  1.9341  2.6118 -0.1999
  385MOL0     H50779   8.108   4.737   0.750 -0.2387  0.2680 -0.5613
  385MOL0     H50780   8.163   4.713   0.991  1.2145  0.2108 -1.1989
  385MOL0     H50781   7.988   4.672   0.949 -1.0685  0.8571 -0.3908
  385MOL0     H50782   7.798   4.793   0.908  2.0175  0.0140  0.1552
  385MOL0     H50783   7.560   4.844   0.984 -0.5200  0.4985  0.5310
  385MOL0     H50784   7.126   4.986   1.131  1.6011  1.3162  0.9608
  385MOL0     H50785   6.920   4.879   1.248  0.7527 -0.8602 -1.2722
  385MOL0     H50786   6.859   4.859   1.494  3.1406 -0.0562  0.1213
  385MOL0     H50787   6.939   4.737   1.594 -0.7543 -2.5484 -0.0526
  385MOL0     H50788   6.696   4.776   1.653 -0.7592  1.2294 -0.8931
  385MOL0     H50789   6.720   4.611   1.622 -0.7427  0.0958 -0.6455
  385MOL0     H50790   6.643   4.689   1.374 -0.2666  0.6423 -1.2399
  385MOL0     H50791   6.564   4.819   1.468 -2.9869 -0.7215 -0.6780
  385MOL0     H50792   6.546   4.525   1.505 -0.0464  0.4327 -1.9355
  385MOL0     H50793   6.464   4.651   1.604  1.4779 -0.5746  0.9440
  385MOL0     H50794   6.429   4.602   1.318 -2.2601 -1.7876 -1.7746
  385MOL0     H50795   6.315   4.710   1.415 -2.2805 -1.9888  1.2346
  385MOL0     H50796   6.230   4.512   1.547  1.5673  0.6725  0.3418
  385MOL0     H50797   6.330   4.413   1.433 -1.0758 -1.2479  1.0697
  385MOL0     H50798   6.095   4.421   1.376  0.7946 -0.2105  1.6203
  385MOL0     H50799   6.102   4.596   1.351 -0.7585  0.1780 -1.8388
  385MOL0     H50800   6.229   4.392   1.180 -2.7788 -1.0491 -2.2801
  385MOL0     H50801   6.281   4.567   1.178 -2.1589  1.8676  0.0110
  385MOL0     H50802   7.139   4.572   1.405 -1.9140  0.4715  1.2792
  385MOL0     H50803   7.360   4.661   1.284 -0.3513 -0.8629 -2.5408
  385MOL0     H50804   7.721   4.974   1.369  2.5845 -2.9798  1.6340
  385MOL0     H50805   7.940   4.971   1.273  0.8386  1.5633 -2.1633
  385MOL0     H50806   8.990   6.043   0.363  0.0563  0.5183 -2.2075
  385MOL0     H50807   9.152   6.175   0.231 -1.7400 -0.0308 -1.4356
  385MOL0     H50808   9.578   6.012  -0.062  1.1759  1.0536 -2.5256
  385MOL0     H50809   9.753   6.090  -0.172  0.1705  1.1654 -2.2647
  385MOL0     H50810   9.886   6.189  -0.321 -2.3901  0.7046 -0.4677
  385MOL0     H50811   9.992   6.237  -0.172 -2.9745  1.5993  2.4152
  385MOL0     H50812   9.961   6.362  -0.463  0.6544  2.7340  0.6109
  385MOL0     H50813  10.040   6.437  -0.325 -1.2351 -0.8237  3.4489
  385MOL0     H50814  10.111   6.150  -0.399 -0.6088 -1.0155 -1.8525
  385MOL0     H50815  10.203   6.259  -0.296 -1.7732 -0.3202  1.1937
  385MOL0     H50816  10.168   6.313  -0.604  1.6392 -0.1109 -1.5869
  385MOL0     H50817  10.214   6.433  -0.494  0.8328 -0.4107 -1.2647
  385MOL0     H50818  10.570   6.204  -0.530 -0.1956 -1.2900  2.3177
  385MOL0     H50819   9.684   6.499  -0.080  0.7488 -0.4677 -1.4948
  385MOL0     H50820   9.498   6.433   0.071 -1.2606  0.8428 -0.5864
  386MOL0     O50821   9.887   4.593   7.971 -0.2778 -0.5947 -0.3226
  386MOL0     C50822   9.933   4.653   8.075 -0.0108  0.1606  0.2570
  386MOL0     O50823   9.860   4.695   8.179  0.5490 -0.1375  0.5953
  386MOL0     C50824   9.728   4.667   8.161 -0.5721  0.6465 -1.1428
  386MOL0     C50825   9.633   4.768   8.149 -0.1935 -0.3301  0.5543
  386MOL0     C50826   9.505   4.737   8.152 -0.2890  0.0716 -0.2558
  386MOL0     C50827   9.468   4.601   8.174  0.1562 -0.1098  0.1991
  386MOL0     O50828   9.335   4.569   8.183 -0.0113 -0.7929  0.2501
  386MOL0     C50829   9.246   4.599   8.070 -0.5841 -0.5633 -0.6289
  386MOL0     C50830   9.106   4.551   8.100 -1.0212  1.0262 -0.6164
  386MOL0     C50831   9.016   4.594   7.984  0.7553  1.2199  0.0138
  386MOL0     C50832   8.877   4.523   7.987 -0.3759 -0.0256 -0.2981
  386MOL0     C50833   8.800   4.535   7.854  0.2309  0.2847 -0.2158
  386MOL0     C50834   8.654   4.476   7.883 -0.1881 -0.5394  0.2650
  386MOL0     C50835   8.580   4.458   7.739 -0.4194  0.2599 -0.1257
  386MOL0     C50836   8.548   4.580   7.654 -0.7539 -0.4124  0.0613
  386MOL0     N50837   8.412   4.580   7.601  0.4287  0.2981 -0.2594
  386MOL0     C50838   8.378   4.526   7.486  0.7094 -0.2417 -0.3561
  386MOL0     C50839   8.242   4.544   7.484 -0.0557  0.3752  0.6452
  386MOL0     C50840   8.154   4.500   7.362 -0.0566 -0.0539 -0.2255
  386MOL0     C50841   8.043   4.608   7.347 -0.4934 -0.3040 -0.6034
  386MOL0     C50842   8.098   4.745   7.322 -0.0633  0.5546 -0.4782
  386MOL0     C50843   8.001   4.847   7.263 -0.8124 -0.1836 -0.2762
  386MOL0     O50844   7.952   4.805   7.135 -0.0203 -0.0383 -0.5362
  386MOL0     C50845   7.882   4.902   7.066  0.2145 -0.5342 -0.4068
  386MOL0     C50846   7.862   4.885   6.933 -0.0796  0.9935 -0.0797
  386MOL0     C50847   7.780   4.967   6.851 -0.7830 -0.1401  0.1308
  386MOL0     C50848   7.723   5.086   6.906  0.3076  0.8178 -0.0241
  386MOL0     C50849   7.621   5.171   6.831  0.0668  0.7773  0.6976
  386MOL0     O50850   7.637   5.177   6.694 -0.1491 -0.8682  0.6649
  386MOL0     C50851   7.558   5.265   6.613 -0.1337  0.1984  0.2630
  386MOL0     C50852   7.628   5.324   6.501 -0.4470  0.1279  0.0727
  386MOL0     C50853   7.569   5.417   6.410  0.4008  0.3850 -0.4599
  386MOL0     C50854   7.430   5.441   6.430  0.4162  0.2379 -0.3720
  386MOL0     O50855   7.370   5.543   6.367 -0.8562  0.3351  0.2160
  386MOL0     C50856   7.446   5.662   6.333  0.4062  0.0289  0.4049
  386MOL0     C50857   7.344   5.767   6.275  0.3753  0.7101  0.0240
  386MOL0     C50858   7.238   5.718   6.168 -0.0589 -0.8225 -0.0659
  386MOL0     C50859   7.149   5.836   6.123 -0.4129 -0.0775  0.9857
  386MOL0     C50860   7.018   5.796   6.032  0.4328  0.2496 -0.1721
  386MOL0     C50861   6.943   5.689   6.107 -0.0515 -0.2899 -0.5113
  386MOL0     C50862   6.806   5.674   6.041 -0.5787 -0.0832 -0.0713
  386MOL0     C50863   6.802   5.619   5.902 -0.6231  0.0181  0.3839
  386MOL0    Cl50864   6.877   5.463   5.891  0.2995 -0.3711  0.2327
  386MOL0     C50865   7.361   5.377   6.528 -0.1292  0.2512  0.4096
  386MOL0     C50866   7.422   5.290   6.631 -0.0608 -0.0204 -0.0154
  386MOL0     O50867   7.542   5.232   6.895  0.1009 -0.3909  0.6899
  386MOL0     C50868   7.767   5.120   7.036  0.1072 -1.0479  0.4859
  386MOL0     C50869   7.833   5.026   7.119 -0.8296 -1.3285  0.4419
  386MOL0     N50870   8.193   4.606   7.594 -0.1887 -0.0069 -0.0805
  386MOL0     N50871   8.297   4.621   7.667 -0.1339 -0.4599 -0.1288
  386MOL0     C50872   9.566   4.504   8.199 -0.1529 -0.4027  0.2603
  386MOL0     C50873   9.696   4.532   8.193 -0.5385 -0.3087  0.1026
  386MOL0     C50874  10.083   4.665   8.071 -0.0040  0.0161 -0.7761
  386MOL0     C50875  10.155   4.607   7.968  0.6520  0.1780  0.0815
  386MOL0     C50876  10.291   4.621   7.973  0.0304 -0.0661  0.4947
  386MOL0     C50877  10.356   4.701   8.064  0.3535 -0.1889  0.5098
  386MOL0     O50878  10.491   4.696   8.056  0.1843  0.2009 -0.3934
  386MOL0     C50879  10.561   4.749   7.936  0.1744  0.2244  0.3035
  386MOL0     C50880  10.709   4.795   7.956  0.0544  0.3713  0.3313
  386MOL0     C50881  10.779   4.867   7.844  0.0289  0.1649 -0.0278
  386MOL0     C50882  10.922   4.893   7.893 -0.4998  0.7496 -0.0307
  386MOL0     C50883  11.000   4.769   7.922 -1.1983 -0.2739  0.8323
  386MOL0     C50884  11.077   4.680   7.933  0.8414  0.2265 -0.3859
  386MOL0     C50885  10.279   4.765   8.155  0.3081  0.0947 -0.1014
  386MOL0     C50886  10.145   4.749   8.164  0.2008  0.2974 -0.3352
  386MOL0     H50887   9.673   4.863   8.117  0.8137 -0.1495  2.2160
  386MOL0     H50888   9.421   4.806   8.147 -0.2565  0.1085 -0.2863
  386MOL0     H50889   9.286   4.544   7.984  0.4400 -0.9395  0.0726
  386MOL0     H50890   9.235   4.706   8.048 -2.1142 -1.1569 -3.2880
  386MOL0     H50891   9.074   4.589   8.198  0.3322  1.1108 -0.1838
  386MOL0     H50892   9.119   4.444   8.120  0.2028  1.3209  0.3456
  386MOL0     H50893   9.057   4.573   7.885  0.3774 -0.4993  0.1962
  386MOL0     H50894   9.007   4.700   8.008  1.9574  1.1623  0.7757
  386MOL0     H50895   8.893   4.416   8.001  0.2735 -0.1361 -1.6735
  386MOL0     H50896   8.816   4.567   8.066  0.5344  1.1268 -0.2085
  386MOL0     H50897   8.855   4.483   7.775 -1.8446 -0.3456 -1.3098
  386MOL0     H50898   8.787   4.636   7.816  1.7315  1.1135  1.3116
  386MOL0     H50899   8.602   4.553   7.939  1.1943  0.7803 -0.2084
  386MOL0     H50900   8.652   4.382   7.940 -2.6855 -1.4264 -1.0976
  386MOL0     H50901   8.634   4.383   7.679  1.3428  0.9470  0.5416
  386MOL0     H50902   8.481   4.416   7.760 -2.1209  2.7588 -2.4488
  386MOL0     H50903   8.626   4.595   7.579  1.1304 -0.6854  1.8649
  386MOL0     H50904   8.548   4.674   7.710  2.5723 -0.3290  0.1392
  386MOL0     H50905   8.441   4.480   7.410  3.0289  0.7457  0.8791
  386MOL0     H50906   8.110   4.404   7.388 -0.4350  0.2828  0.3946
  386MOL0     H50907   8.214   4.489   7.271  0.0966  1.5277 -0.3342
  386MOL0     H50908   7.973   4.606   7.431  0.7018 -2.5691  0.4019
  386MOL0     H50909   7.972   4.594   7.265  1.0105 -0.2639 -1.9549
  386MOL0     H50910   8.141   4.783   7.415 -0.3955 -1.5813  0.6135
  386MOL0     H50911   8.181   4.743   7.250 -0.3701  3.2122 -1.0178
  386MOL0     H50912   8.065   4.936   7.256  1.7331 -1.9700 -1.4114
  386MOL0     H50913   7.923   4.861   7.338 -0.3726  0.7640  0.0224
  386MOL0     H50914   7.909   4.801   6.883  0.8901  0.8236  1.0673
  386MOL0     H50915   7.759   4.950   6.746  1.3249  2.4137 -0.8375
  386MOL0     H50916   7.733   5.300   6.488 -0.4738  0.4886 -0.8782
  386MOL0     H50917   7.627   5.460   6.328  3.8341 -0.2331  1.4681
  386MOL0     H50918   7.515   5.637   6.251 -0.0701  1.8148 -0.5950
  386MOL0     H50919   7.497   5.712   6.416  1.5446 -0.0518 -0.2164
  386MOL0     H50920   7.404   5.848   6.233  2.9546 -2.5594 -3.1313
  386MOL0     H50921   7.294   5.809   6.363 -0.1777 -0.7857  0.4541
  386MOL0     H50922   7.180   5.636   6.210 -1.2475 -0.0052 -0.0494
  386MOL0     H50923   7.296   5.666   6.092  0.4729 -3.2367  1.8657
  386MOL0     H50924   7.110   5.885   6.213  1.4478 -2.0951  2.9978
  386MOL0     H50925   7.202   5.912   6.064  1.1252 -1.7166  0.1585
  386MOL0     H50926   7.049   5.742   5.942 -1.4381 -0.6859 -0.3052
  386MOL0     H50927   6.960   5.886   6.008 -1.2485 -0.4054  1.2262
  386MOL0     H50928   6.941   5.725   6.210 -1.4763 -2.6666  0.3949
  386MOL0     H50929   6.997   5.594   6.103  2.2599  0.9900 -1.9868
  386MOL0     H50930   6.746   5.609   6.106 -2.3221  2.3302  0.8795
  386MOL0     H50931   6.761   5.774   6.048 -1.3427 -0.4105 -0.2266
  386MOL0     H50932   6.860   5.683   5.834  0.9544 -0.6243  1.0680
  386MOL0     H50933   6.698   5.620   5.869 -0.8638  3.9338  0.8050
  386MOL0     H50934   7.257   5.401   6.543 -0.9056 -3.7865  2.8983
  386MOL0     H50935   7.364   5.250   6.714 -0.6999  3.8031  1.6244
  386MOL0     H50936   7.715   5.206   7.078 -1.1100 -0.4712 -2.0550
  386MOL0     H50937   7.851   5.043   7.225  0.3415 -0.3084  0.1010
  386MOL0     H50938   9.534   4.400   8.199 -3.0697  0.3847 -1.2498
  386MOL0     H50939   9.777   4.461   8.207  1.7777  2.0817 -0.2863
  386MOL0     H50940  10.097   4.559   7.890  2.0648 -0.7830 -0.4280
  386MOL0     H50941  10.338   4.564   7.894 -1.9969  0.3421 -1.0945
  386MOL0     H50942  10.505   4.838   7.905  0.9086  1.1384  1.5276
  386MOL0     H50943  10.560   4.683   7.849  0.7665  3.6058 -2.4791
  386MOL0     H50944  10.707   4.860   8.044  3.4851  0.6331  0.3662
  386MOL0     H50945  10.777   4.717   7.993  2.6011  2.3998  0.1990
  386MOL0     H50946  10.742   4.969   7.828  0.5910  0.2521 -0.8763
  386MOL0     H50947  10.783   4.813   7.749  0.8407  0.9790 -0.4812
  386MOL0     H50948  10.979   4.946   7.816  0.8833 -3.0357 -1.8531
  386MOL0     H50949  10.914   4.955   7.983 -1.5730  0.0598  0.3715
  386MOL0     H50950  11.131   4.589   7.953  1.0905  0.1618 -1.2867
  386MOL0     H50951  10.340   4.820   8.226 -0.4206  3.0644 -1.6235
  386MOL0     H50952  10.094   4.794   8.249 -0.3979  0.8923 -1.0055
  387MOL0     O50953   4.094   5.741  10.430 -0.2445  0.5835  0.7971
  387MOL0     C50954   4.172   5.802  10.355  0.7764  0.7043 -0.4945
  387MOL0     O50955   4.250   5.910  10.386 -0.3294 -0.3509 -0.3724
  387MOL0     C50956   4.237   5.982  10.502 -0.1747 -0.6378 -0.1600
  387MOL0     C50957   4.330   6.088  10.523 -1.0465  0.5641 -1.3993
  387MOL0     C50958   4.336   6.164  10.642  0.1297 -0.1165  0.3582
  387MOL0     C50959   4.264   6.118  10.755  0.7858  0.5794 -0.0363
  387MOL0     O50960   4.278   6.162  10.884 -0.1953  0.2642  0.9579
  387MOL0     C50961   4.305   6.298  10.907 -0.1665  0.0514  0.0192
  387MOL0     C50962   4.190   6.387  10.883 -0.0724 -0.6084  0.3484
  387MOL0     C50963   4.065   6.352  10.964 -0.4723  1.2876 -0.0443
  387MOL0     C50964   3.970   6.465  10.956  0.0858  0.7645  0.3363
  387MOL0     C50965   3.829   6.424  10.997  0.3947 -0.1870  0.4448
  387MOL0     C50966   3.733   6.547  10.992 -0.0644 -0.4555  0.5378
  387MOL0     C50967   3.654   6.542  10.861 -0.2022 -0.8250  0.1826
  387MOL0     C50968   3.535   6.649  10.874 -0.8081  0.6727  0.8810
  387MOL0     N50969   3.449   6.618  10.987 -0.4533 -0.3086  0.0146
  387MOL0     C50970   3.395   6.499  11.022 -0.2581 -0.6783  0.4175
  387MOL0     C50971   3.355   6.528  11.152  0.3702  0.9747 -0.4792
  387MOL0     C50972   3.281   6.441  11.248  0.3782 -0.6404  0.3170
  387MOL0     C50973   3.147   6.502  11.292 -0.1279 -0.6170 -0.7763
  387MOL0     C50974   3.097   6.443  11.413 -0.4209 -1.0429 -0.7638
  387MOL0     C50975   2.983   6.522  11.487 -0.0015  0.4363 -0.6083
  387MOL0     O50976   2.879   6.571  11.394  0.2551  0.6829  0.8585
  387MOL0     C50977   2.751   6.536  11.410  0.2385 -0.4969 -0.1511
  387MOL0     C50978   2.685   6.494  11.527  0.0254 -0.1942  0.3224
  387MOL0     C50979   2.555   6.451  11.530 -0.4878  0.1150 -0.1195
  387MOL0     C50980   2.479   6.443  11.416  0.6667  0.8470  0.2898
  387MOL0     C50981   2.347   6.388  11.420  0.5203  0.1907  0.5617
  387MOL0     O50982   2.279   6.399  11.536  0.1187 -0.5173 -0.6895
  387MOL0     C50983   2.145   6.365  11.561  0.7075  0.3609  0.2408
  387MOL0     C50984   2.085   6.250  11.510  0.6859  0.2825 -0.7645
  387MOL0     C50985   1.951   6.223  11.541  0.7229  0.1206  0.2758
  387MOL0     C50986   1.872   6.316  11.606 -0.5841 -0.0292  1.0426
  387MOL0     O50987   1.741   6.284  11.622  0.2046 -0.2172 -0.1103
  387MOL0     C50988   1.658   6.387  11.651  0.4147 -0.8858  0.0223
  387MOL0     C50989   1.525   6.320  11.644 -0.0543  0.2781 -0.0301
  387MOL0     C50990   1.415   6.408  11.706 -0.0974 -0.3313 -0.2244
  387MOL0     C50991   1.285   6.339  11.695 -0.4278 -0.3349  0.3127
  387MOL0     C50992   1.165   6.417  11.755  1.0302  0.4308  0.0267
  387MOL0     C50993   1.048   6.321  11.804 -0.1007 -0.2659 -0.2854
  387MOL0     C50994   0.994   6.218  11.693  0.1168 -0.7837 -0.1271
  387MOL0     C50995   0.888   6.139  11.762  0.6032 -0.4039 -0.1083
  387MOL0    Cl50996   0.781   6.060  11.638 -0.3626 -0.0146 -0.1249
  387MOL0     C50997   1.934   6.436  11.649  0.6366 -0.2654  0.2155
  387MOL0     C50998   2.063   6.466  11.622 -0.0588 -0.4345 -0.3666
  387MOL0     O50999   2.304   6.344  11.314  0.5624 -0.1701  0.1801
  387MOL0     C51000   2.542   6.484  11.292 -0.2473 -0.2918  0.7673
  387MOL0     C51001   2.680   6.533  11.295  0.2314  1.1798 -0.2538
  387MOL0     N51002   3.372   6.662  11.188  0.8237 -0.4934 -1.0686
  387MOL0     N51003   3.431   6.710  11.089 -0.0741 -0.0588 -0.4787
  387MOL0     C51004   4.170   6.025  10.735 -0.3600  0.8818  0.5926
  387MOL0     C51005   4.146   5.962  10.608  0.1307 -0.0361  0.0380
  387MOL0     C51006   4.156   5.771  10.210 -0.4424 -0.3459  0.2052
  387MOL0     C51007   4.241   5.834  10.122 -1.0696  0.5297 -0.1374
  387MOL0     C51008   4.225   5.819   9.980  0.9857  0.4320  0.7388
  387MOL0     C51009   4.113   5.744   9.931 -1.7150 -0.3484  0.7248
  387MOL0     O51010   4.078   5.733   9.794  0.2985  0.2610  0.4477
  387MOL0     C51011   4.153   5.813   9.695  0.0810  0.1180 -0.7085
  387MOL0     C51012   4.112   5.956   9.710 -0.4697  0.5302  0.7259
  387MOL0     C51013   3.969   5.974   9.647 -0.2233 -0.0474 -1.3202
  387MOL0     C51014   3.893   6.072   9.730 -0.4267 -1.1960 -0.7311
  387MOL0     C51015   3.769   6.114   9.669 -0.1789 -0.6547 -0.4214
  387MOL0     C51016   3.664   6.154   9.618 -0.1307 -0.3046 -0.3149
  387MOL0     C51017   4.032   5.685  10.022 -0.0384  0.1650 -0.8183
  387MOL0     C51018   4.051   5.697  10.159  0.6413 -0.0475 -0.1890
  387MOL0     H51019   4.409   6.114  10.453  1.3842 -0.7731  0.6962
  387MOL0     H51020   4.407   6.246  10.648  2.2467 -1.8842  0.6642
  387MOL0     H51021   4.392   6.329  10.848 -0.5208 -0.5353 -0.8264
  387MOL0     H51022   4.338   6.296  11.012  0.8219 -1.2194 -0.2974
  387MOL0     H51023   4.162   6.382  10.778  1.9457  2.2385 -0.4544
  387MOL0     H51024   4.216   6.491  10.907 -0.0243 -0.5519  0.0439
  387MOL0     H51025   4.094   6.316  11.063 -2.2505  1.6326  0.6387
  387MOL0     H51026   4.024   6.267  10.910  2.0837 -0.4106  0.5093
  387MOL0     H51027   4.003   6.554  11.010  0.8012  0.5896  0.1918
  387MOL0     H51028   3.964   6.492  10.850  1.4580 -0.7648 -0.1644
  387MOL0     H51029   3.828   6.378  11.097 -0.9395 -2.5570 -0.5788
  387MOL0     H51030   3.796   6.351  10.922  2.9647 -0.0591 -0.9361
  387MOL0     H51031   3.791   6.640  10.991 -0.1839 -0.3815  0.1331
  387MOL0     H51032   3.671   6.543  11.082  0.2013 -0.0724  0.7384
  387MOL0     H51033   3.719   6.569  10.777 -0.5098 -1.6255 -0.3246
  387MOL0     H51034   3.616   6.443  10.836 -4.1306  0.5327  0.1623
  387MOL0     H51035   3.482   6.635  10.779  0.2549 -0.5130  0.4369
  387MOL0     H51036   3.578   6.749  10.886 -0.8228  0.8881 -0.6319
  387MOL0     H51037   3.378   6.408  10.965  0.9723 -0.4331 -0.3668
  387MOL0     H51038   3.347   6.431  11.334  3.9865  2.8158 -1.7183
  387MOL0     H51039   3.267   6.339  11.209  1.4896  0.0879 -2.2438
  387MOL0     H51040   3.075   6.481  11.212  0.8121 -2.8591 -1.1145
  387MOL0     H51041   3.154   6.610  11.311  1.8526 -0.2106 -3.2492
  387MOL0     H51042   3.059   6.344  11.385  1.0604 -2.0084  0.5197
  387MOL0     H51043   3.176   6.441  11.488  1.9750  3.0844 -2.7942
  387MOL0     H51044   3.030   6.613  11.525 -0.6666  0.2673  0.6801
  387MOL0     H51045   2.949   6.454  11.566  0.9436 -0.5149 -0.9885
  387MOL0     H51046   2.738   6.510  11.621 -1.9446  1.9353  1.1864
  387MOL0     H51047   2.525   6.408  11.626  1.1095 -1.7537 -0.3941
  387MOL0     H51048   2.128   6.169  11.453 -2.4435 -1.6654 -0.6368
  387MOL0     H51049   1.894   6.134  11.513  1.9838 -0.7700  0.4497
  387MOL0     H51050   1.660   6.479  11.592 -0.0420  0.2936  1.7583
  387MOL0     H51051   1.665   6.436  11.749  0.7999  0.5069 -0.6740
  387MOL0     H51052   1.537   6.227  11.701 -1.7173 -0.4658 -0.8353
  387MOL0     H51053   1.511   6.280  11.543 -0.3181 -1.9971  0.8598
  387MOL0     H51054   1.400   6.507  11.662 -1.0985 -0.6473 -0.6263
  387MOL0     H51055   1.439   6.432  11.810  1.9062 -1.8199 -0.2823
  387MOL0     H51056   1.258   6.324  11.589  1.4109  1.3530 -0.4594
  387MOL0     H51057   1.293   6.249  11.756  2.4977  1.3241  2.6079
  387MOL0     H51058   1.139   6.509  11.701  0.5440 -0.6647 -1.6566
  387MOL0     H51059   1.202   6.458  11.850  1.0856 -3.2202  1.7668
  387MOL0     H51060   0.966   6.387  11.835 -0.4811 -0.7495 -0.2432
  387MOL0     H51061   1.091   6.270  11.891 -1.3001 -0.9687 -0.0770
  387MOL0     H51062   0.945   6.269  11.610  0.7143 -0.5956 -0.3717
  387MOL0     H51063   1.068   6.148  11.651  1.3277 -0.6758  1.7300
  387MOL0     H51064   0.837   6.198  11.839 -1.7777 -2.4549  0.0163
  387MOL0     H51065   0.935   6.066  11.829  0.3638 -1.1153 -0.7101
  387MOL0     H51066   1.875   6.509  11.704 -1.3412 -1.7475  0.1323
  387MOL0     H51067   2.105   6.565  11.638  0.0652 -0.3230 -1.3214
  387MOL0     H51068   2.488   6.475  11.199 -1.8633  0.1882  1.6063
  387MOL0     H51069   2.726   6.572  11.204 -0.4557  0.0758 -1.1025
  387MOL0     H51070   4.107   6.007  10.822  1.3173 -0.6947  1.5548
  387MOL0     H51071   4.078   5.877  10.603  0.4363 -0.2176 -2.4748
  387MOL0     H51072   4.319   5.899  10.160 -0.9154 -1.0807  2.4953
  387MOL0     H51073   4.295   5.866   9.912 -1.4222  0.4061 -1.9862
  387MOL0     H51074   4.133   5.755   9.604  1.8888 -3.3179  0.8909
  387MOL0     H51075   4.261   5.823   9.710  0.3686 -2.8172 -0.1622
  387MOL0     H51076   4.109   5.985   9.815 -2.5237  3.1952  0.0352
  387MOL0     H51077   4.179   6.019   9.650 -1.1625 -0.0034 -0.6451
  387MOL0     H51078   3.925   5.875   9.661  3.2712 -1.6038 -0.2090
  387MOL0     H51079   3.991   5.998   9.542 -0.7862 -2.5990 -2.0787
  387MOL0     H51080   3.874   6.044   9.834  0.7800 -0.9635 -0.4328
  387MOL0     H51081   3.957   6.160   9.742  0.7173 -2.1944  1.0984
  387MOL0     H51082   3.566   6.168   9.577 -0.8100  1.1236  1.6159
  387MOL0     H51083   3.954   5.617   9.990  1.4611 -2.5052  0.7789
  387MOL0     H51084   3.988   5.649  10.233  1.1263 -2.3472 -1.1948
  388MOL0     O51085   3.794  11.012   2.333 -0.0306  0.5960 -0.2201
  388MOL0     C51086   3.866  11.108   2.356 -1.0719  0.2575  0.6265
  388MOL0     O51087   3.822  11.238   2.351 -0.0170 -0.1464 -0.2232
  388MOL0     C51088   3.684  11.254   2.335 -0.7085 -0.1947 -0.5308
  388MOL0     C51089   3.626  11.333   2.235 -0.4106 -0.8736 -0.4561
  388MOL0     C51090   3.480  11.340   2.222 -0.4049  0.2569 -0.3722
  388MOL0     C51091   3.395  11.295   2.320 -1.3416  0.3187  0.1212
  388MOL0     O51092   3.261  11.300   2.302  0.2263 -0.9269 -0.4823
  388MOL0     C51093   3.181  11.192   2.351  0.4934 -0.1946  0.4062
  388MOL0     C51094   3.035  11.236   2.326 -0.2715 -0.5476  0.7016
  388MOL0     C51095   3.000  11.232   2.175 -0.8096 -0.0185  0.9157
  388MOL0     C51096   2.874  11.308   2.145 -0.3598 -0.6205  0.0116
  388MOL0     C51097   2.860  11.316   1.994 -0.1463  0.2281  0.0755
  388MOL0     C51098   2.730  11.379   1.939 -0.1055  0.6841  0.6958
  388MOL0     C51099   2.608  11.316   1.994  1.1816 -0.8756  0.0481
  388MOL0     C51100   2.558  11.398   2.118  0.0036 -0.5212  0.2832
  388MOL0     N51101   2.468  11.511   2.075  0.3133 -0.2613 -0.3501
  388MOL0     C51102   2.334  11.504   2.031 -0.4356  0.7901  0.0567
  388MOL0     C51103   2.279  11.623   2.033  0.2809 -0.4632  0.0597
  388MOL0     C51104   2.149  11.667   1.990  0.6050 -0.6774  0.0246
  388MOL0     C51105   2.030  11.589   2.054 -0.5678 -0.2972 -0.3563
  388MOL0     C51106   2.039  11.584   2.206 -1.0054 -0.1578 -0.5387
  388MOL0     C51107   2.056  11.719   2.276 -0.4140 -1.2091 -0.5093
  388MOL0     O51108   2.022  11.706   2.416 -0.4996 -0.6368  0.3358
  388MOL0     C51109   1.890  11.721   2.438  0.6326 -0.9451  0.6583
  388MOL0     C51110   1.815  11.612   2.492 -1.0590 -1.2418 -0.1580
  388MOL0     C51111   1.689  11.632   2.537 -0.1425 -0.4171 -0.8950
  388MOL0     C51112   1.616  11.745   2.501 -0.2115 -0.3301 -0.3806
  388MOL0     C51113   1.470  11.754   2.541  0.4047 -0.1927 -0.0607
  388MOL0     O51114   1.416  11.645   2.602  0.9744  0.3232  0.4531
  388MOL0     C51115   1.286  11.645   2.643 -0.1524  0.4991 -0.4570
  388MOL0     C51116   1.208  11.527   2.616  0.1147 -0.1360 -0.1546
  388MOL0     C51117   1.066  11.522   2.653  0.2980  0.4177 -0.1644
  388MOL0     C51118   1.011  11.631   2.720 -0.9182 -0.2468  0.4523
  388MOL0     O51119   0.883  11.637   2.768  0.6601 -0.0329 -0.2534
  388MOL0     C51120   0.776  11.587   2.680  0.5750 -0.1094  0.3859
  388MOL0     C51121   0.647  11.611   2.752  0.5138 -0.2150 -0.2094
  388MOL0     C51122   0.550  11.521   2.679  0.8225 -0.4833 -1.0240
  388MOL0     C51123   0.408  11.529   2.739 -0.1665  0.2194 -0.5373
  388MOL0     C51124   0.304  11.478   2.630 -0.0981  0.4429 -0.3997
  388MOL0     C51125   0.313  11.333   2.599 -0.3334 -0.3822  0.2765
  388MOL0     C51126   0.210  11.287   2.497  0.3044  0.7915 -0.1672
  388MOL0     C51127   0.060  11.296   2.560 -0.2910  0.4271 -0.2334
  388MOL0    Cl51128  -0.064  11.211   2.469  0.5967  0.1127  0.3213
  388MOL0     C51129   1.091  11.745   2.749  0.5048 -0.6951  0.3174
  388MOL0     C51130   1.230  11.752   2.719  0.3299 -0.2193  0.4445
  388MOL0     O51131   1.416  11.861   2.524  0.3247 -0.3434 -0.2773
  388MOL0     C51132   1.681  11.856   2.440  0.8194  0.0141  0.0535
  388MOL0     C51133   1.819  11.842   2.420  0.0317 -0.7873  0.1733
  388MOL0     N51134   2.377  11.712   2.076  0.1480  0.5610 -0.9634
  388MOL0     N51135   2.482  11.646   2.111 -0.7564  1.0171 -0.0580
  388MOL0     C51136   3.466  11.236   2.426  0.5528 -0.1174 -1.1182
  388MOL0     C51137   3.600  11.217   2.438  0.4793 -0.3199  0.9942
  388MOL0     C51138   4.005  11.073   2.398 -0.1954  1.0410  0.3142
  388MOL0     C51139   4.049  10.934   2.395 -0.7394 -0.4011 -0.4729
  388MOL0     C51140   4.183  10.903   2.434  0.2449  0.4008  0.6295
  388MOL0     C51141   4.271  11.013   2.459 -0.0529 -0.0048 -0.2350
  388MOL0     O51142   4.403  10.991   2.485 -0.0655 -0.2101  0.5883
  388MOL0     C51143   4.470  10.866   2.455  0.0632 -0.0230 -0.8794
  388MOL0     C51144   4.465  10.831   2.308 -0.1226  0.2415 -0.6050
  388MOL0     C51145   4.567  10.725   2.281 -0.4121  0.4674 -0.0548
  388MOL0     C51146   4.709  10.780   2.262 -0.0335 -0.4943 -1.1367
  388MOL0     C51147   4.793  10.667   2.259  0.0087  0.1243  0.3402
  388MOL0     C51148   4.870  10.567   2.265  0.0986  0.1843  0.6690
  388MOL0     C51149   4.231  11.142   2.457  0.4524 -0.2077  0.5006
  388MOL0     C51150   4.095  11.169   2.431 -0.0465 -0.1720 -0.2864
  388MOL0     H51151   3.687  11.373   2.155  1.3652  4.7526  3.1726
  388MOL0     H51152   3.430  11.390   2.140 -0.9250  1.3764  0.6099
  388MOL0     H51153   3.201  11.169   2.456 -2.9138 -0.8998  1.0394
  388MOL0     H51154   3.200  11.105   2.288  1.5540  0.4803 -0.2315
  388MOL0     H51155   3.016  11.336   2.365  1.1903 -0.2952  0.8254
  388MOL0     H51156   2.966  11.165   2.373 -0.5767 -0.4965  0.3351
  388MOL0     H51157   2.993  11.133   2.128  2.3118  0.4506 -0.8263
  388MOL0     H51158   3.082  11.270   2.113 -0.5725 -0.7474  0.7693
  388MOL0     H51159   2.798  11.258   2.205  0.5062 -0.4641  1.2822
  388MOL0     H51160   2.877  11.409   2.187 -0.3911 -0.0373 -1.3405
  388MOL0     H51161   2.867  11.214   1.955 -1.2994 -0.0639  0.5895
  388MOL0     H51162   2.945  11.374   1.958  0.4576  0.1343  1.2949
  388MOL0     H51163   2.724  11.357   1.832  1.1903 -0.3844  0.8078
  388MOL0     H51164   2.730  11.488   1.947  0.9169  0.6406  1.4305
  388MOL0     H51165   2.532  11.308   1.915 -1.0965  1.6736  1.7759
  388MOL0     H51166   2.634  11.216   2.030 -3.7176 -2.3152  0.3630
  388MOL0     H51167   2.646  11.454   2.151 -0.8144  1.5846 -0.8510
  388MOL0     H51168   2.522  11.349   2.209  0.7686  0.8121  1.3466
  388MOL0     H51169   2.278  11.426   1.980 -0.4454  1.0639 -0.3540
  388MOL0     H51170   2.149  11.669   1.881  0.9984 -2.1309 -0.0314
  388MOL0     H51171   2.141  11.767   2.033  2.8339 -0.8814  1.0520
  388MOL0     H51172   2.025  11.488   2.013 -0.3482  0.7796 -3.2824
  388MOL0     H51173   1.935  11.639   2.033 -1.7140 -2.3186 -0.2188
  388MOL0     H51174   1.945  11.541   2.241 -1.8480  2.1500  0.2654
  388MOL0     H51175   2.117  11.518   2.244  0.0164  1.7440  0.8030
  388MOL0     H51176   2.001  11.802   2.231  2.3586  1.3420  0.4726
  388MOL0     H51177   2.157  11.757   2.260 -1.7657  1.6116 -3.4167
  388MOL0     H51178   1.864  11.516   2.505 -1.6546 -1.3709  1.2988
  388MOL0     H51179   1.653  11.560   2.610 -1.3457  2.0349  1.0911
  388MOL0     H51180   1.253  11.439   2.570  0.9601 -0.5142  1.3118
  388MOL0     H51181   1.010  11.430   2.642  1.1805 -0.3808  1.6008
  388MOL0     H51182   0.787  11.479   2.667 -2.4347 -0.5314  0.7197
  388MOL0     H51183   0.781  11.638   2.583 -3.2276 -1.8328 -0.9239
  388MOL0     H51184   0.618  11.716   2.749 -0.4512 -0.4996 -2.4670
  388MOL0     H51185   0.663  11.584   2.857  0.1823  0.8193  0.1193
  388MOL0     H51186   0.592  11.420   2.665  2.6826  0.2629 -1.1525
  388MOL0     H51187   0.529  11.558   2.579  2.0438 -1.4469 -1.6636
  388MOL0     H51188   0.406  11.478   2.836 -2.5865  0.1658 -0.5729
  388MOL0     H51189   0.381  11.633   2.761  1.1692  0.3253  0.7956
  388MOL0     H51190   0.322  11.528   2.534 -0.9927 -0.0638 -0.8401
  388MOL0     H51191   0.202  11.502   2.661 -0.1133  0.1918 -0.2579
  388MOL0     H51192   0.298  11.277   2.692  1.5678 -1.5279 -0.0683
  388MOL0     H51193   0.412  11.303   2.563 -0.5256 -0.1329 -0.4988
  388MOL0     H51194   0.210  11.342   2.403  2.8596  1.4555  0.1399
  388MOL0     H51195   0.246  11.190   2.463  1.8928  1.2025  0.2658
  388MOL0     H51196   0.031  11.401   2.571 -0.1729  0.3373  1.0159
  388MOL0     H51197   0.064  11.254   2.661 -2.2815 -1.7857 -0.9810
  388MOL0     H51198   1.051  11.823   2.813 -0.5144 -2.2788  1.7057
  388MOL0     H51199   1.285  11.832   2.769 -1.1498 -0.6572  2.9498
  388MOL0     H51200   1.636  11.951   2.413  3.9507  0.9514 -2.5712
  388MOL0     H51201   1.870  11.929   2.381 -0.1519 -0.7254  0.0761
  388MOL0     H51202   3.413  11.187   2.508  1.8884  0.3055  0.0291
  388MOL0     H51203   3.632  11.169   2.531  0.3107  0.6887  1.5861
  388MOL0     H51204   3.978  10.858   2.362 -1.4883  0.4671 -0.8991
  388MOL0     H51205   4.203  10.797   2.443 -1.3407 -0.0450 -0.7775
  388MOL0     H51206   4.429  10.780   2.509 -1.5942  1.1556 -0.1704
  388MOL0     H51207   4.576  10.877   2.479  0.0863  1.0476 -1.4320
  388MOL0     H51208   4.363  10.801   2.280 -0.0038 -0.3607 -0.4026
  388MOL0     H51209   4.501  10.915   2.248  4.0484 -0.4916  0.5429
  388MOL0     H51210   4.552  10.673   2.185  1.6048 -0.2763 -0.0320
  388MOL0     H51211   4.569  10.646   2.356  0.2334 -1.6861 -2.1794
  388MOL0     H51212   4.722  10.848   2.177  0.5258 -1.1357 -1.5724
  388MOL0     H51213   4.721  10.847   2.347 -4.1663  0.3731 -1.0320
  388MOL0     H51214   4.940  10.486   2.265  2.1580  1.8584 -1.3326
  388MOL0     H51215   4.309  11.215   2.475  2.4419 -2.8369  3.6642
  388MOL0     H51216   4.054  11.270   2.426 -3.1776 -1.3114 -0.3001
  389MOL0     O51217   5.996   6.519   4.258 -0.0340  0.4427 -0.6363
  389MOL0     C51218   5.975   6.460   4.364  0.1162 -0.1025 -0.2480
  389MOL0     O51219   5.850   6.441   4.428 -1.0526 -0.0537 -0.3001
  389MOL0     C51220   5.732   6.499   4.381 -0.2068 -0.7854  0.2617
  389MOL0     C51221   5.729   6.628   4.326 -0.6639  0.1648 -0.0332
  389MOL0     C51222   5.611   6.679   4.270 -0.6365  0.2677  0.5852
  389MOL0     C51223   5.485   6.610   4.279 -0.1366 -0.0225 -1.1719
  389MOL0     O51224   5.362   6.646   4.243  0.1886  0.0520 -0.1654
  389MOL0     C51225   5.337   6.778   4.184  0.5543  0.3750  0.7793
  389MOL0     C51226   5.323   6.894   4.284  0.2745  0.1963  0.5993
  389MOL0     C51227   5.184   6.908   4.344  0.2990  0.5505 -0.1206
  389MOL0     C51228   5.196   6.973   4.483  0.8459 -0.2385  0.4033
  389MOL0     C51229   5.067   6.926   4.559  0.6921 -0.6675 -0.4995
  389MOL0     C51230   4.932   6.958   4.494 -0.3793  0.0909 -0.2777
  389MOL0     C51231   4.816   6.913   4.578 -0.1191 -0.1755  1.1585
  389MOL0     C51232   4.684   6.959   4.528 -0.1407  0.6539  0.3013
  389MOL0     N51233   4.569   6.945   4.624 -0.2236 -0.1696  0.4024
  389MOL0     C51234   4.537   7.036   4.717 -0.1194 -0.1375  0.6531
  389MOL0     C51235   4.420   6.981   4.777  0.6276 -0.0722  0.6721
  389MOL0     C51236   4.334   7.054   4.876 -0.0309  0.3468 -0.0049
  389MOL0     C51237   4.190   7.011   4.862  0.1723 -1.0802 -0.1200
  389MOL0     C51238   4.114   7.077   4.747  0.1074  0.0720  0.5757
  389MOL0     C51239   3.962   7.048   4.766 -0.1385  0.3166 -0.0568
  389MOL0     O51240   3.881   7.174   4.775  0.2228 -1.2007  0.1475
  389MOL0     C51241   3.745   7.158   4.757  0.2109 -0.3472 -0.1077
  389MOL0     C51242   3.672   7.039   4.740 -0.2236 -0.5137 -0.0077
  389MOL0     C51243   3.531   7.042   4.745 -0.0709 -0.4298 -0.4153
  389MOL0     C51244   3.466   7.159   4.774  0.4564 -0.7495  0.2993
  389MOL0     C51245   3.313   7.169   4.788 -0.0364 -0.5036 -0.6899
  389MOL0     O51246   3.262   7.287   4.813  0.2987  0.7115 -0.0024
  389MOL0     C51247   3.134   7.326   4.789 -0.2853  0.6430 -0.0112
  389MOL0     C51248   3.103   7.451   4.734 -0.6699  0.8970  0.0063
  389MOL0     C51249   2.978   7.490   4.690  0.7912  0.6370 -0.0552
  389MOL0     C51250   2.869   7.413   4.712 -0.3170  0.0942  1.0643
  389MOL0     O51251   2.751   7.466   4.671  0.4636  0.1862  0.0479
  389MOL0     C51252   2.662   7.356   4.638 -0.9160  0.0019  0.3053
  389MOL0     C51253   2.550   7.409   4.552  0.0310 -0.7612 -0.4038
  389MOL0     C51254   2.463   7.296   4.500 -0.6721  0.6984  0.8975
  389MOL0     C51255   2.367   7.257   4.607  0.9250  0.2376 -1.5221
  389MOL0     C51256   2.270   7.135   4.584  0.2103 -0.8853 -0.3530
  389MOL0     C51257   2.189   7.106   4.709  0.3400 -0.7906 -0.7356
  389MOL0     C51258   2.073   7.011   4.671  0.3839 -0.2022 -0.9215
  389MOL0     C51259   2.045   6.919   4.788 -0.3612 -1.0105  0.2103
  389MOL0    Cl51260   1.882   6.838   4.765 -0.3036 -0.1587 -0.1612
  389MOL0     C51261   2.895   7.285   4.775 -0.1656 -0.4911  0.3855
  389MOL0     C51262   3.023   7.247   4.811  0.0012  0.0689 -0.1224
  389MOL0     O51263   3.250   7.072   4.750  0.4155  0.5727 -0.1721
  389MOL0     C51264   3.542   7.274   4.775  0.3201  0.5855  0.0060
  389MOL0     C51265   3.682   7.275   4.752  0.5296 -1.2884  0.0729
  389MOL0     N51266   4.396   6.862   4.721  0.5098  0.4032 -0.8003
  389MOL0     N51267   4.481   6.843   4.627  0.1813 -0.4233  0.4782
  389MOL0     C51268   5.494   6.485   4.349  0.0797 -0.3271 -0.9476
  389MOL0     C51269   5.615   6.430   4.394 -0.1220  0.6847  0.4927
  389MOL0     C51270   6.091   6.401   4.430  0.2020 -0.5349 -0.3836
  389MOL0     C51271   6.210   6.380   4.367  0.5558 -0.4026  0.3305
  389MOL0     C51272   6.318   6.318   4.429  0.2324  0.3459  0.4684
  389MOL0     C51273   6.313   6.272   4.563 -0.8896  0.4024 -0.0071
  389MOL0     O51274   6.404   6.180   4.611  0.4806 -0.5306  0.2196
  389MOL0     C51275   6.513   6.132   4.528 -0.1718  0.0556 -0.4843
  389MOL0     C51276   6.633   6.233   4.525  0.3111 -0.4848  0.3102
  389MOL0     C51277   6.755   6.154   4.488 -0.9245 -0.4690 -0.2116
  389MOL0     C51278   6.891   6.230   4.518 -0.9649 -0.7626 -0.0419
  389MOL0     C51279   7.005   6.157   4.456 -1.5235  0.3873  0.4778
  389MOL0     C51280   7.104   6.105   4.405 -0.2084 -0.3575 -0.2276
  389MOL0     C51281   6.202   6.311   4.633 -0.0242  1.0837 -0.4665
  389MOL0     C51282   6.094   6.372   4.571  0.5448 -0.5405  0.4168
  389MOL0     H51283   5.822   6.682   4.330  0.4082 -1.6418  1.8278
  389MOL0     H51284   5.613   6.767   4.208 -0.0980 -1.6075 -2.2495
  389MOL0     H51285   5.244   6.759   4.130  0.1213  1.4752  1.1088
  389MOL0     H51286   5.418   6.803   4.115  0.0814 -1.7034 -0.6494
  389MOL0     H51287   5.362   6.988   4.243 -0.6192  0.4782  0.3891
  389MOL0     H51288   5.396   6.871   4.363  0.2296 -1.5562  0.1609
  389MOL0     H51289   5.135   6.810   4.350  1.2128  0.1409  1.0659
  389MOL0     H51290   5.117   6.968   4.283 -0.8188  0.0977  0.6189
  389MOL0     H51291   5.279   6.944   4.548  2.2205  1.3747 -0.5357
  389MOL0     H51292   5.198   7.083   4.481  1.1775 -0.2492  0.0087
  389MOL0     H51293   5.062   6.975   4.657 -1.6132 -3.0479  0.6974
  389MOL0     H51294   5.092   6.821   4.576  0.3196 -0.3267  2.9760
  389MOL0     H51295   4.933   6.905   4.398  0.6348  1.3637 -0.9979
  389MOL0     H51296   4.923   7.065   4.476  1.7270  0.6603  1.6066
  389MOL0     H51297   4.802   6.804   4.584  0.6983 -0.5006 -1.6252
  389MOL0     H51298   4.826   6.958   4.677 -0.4871  0.7744  0.7709
  389MOL0     H51299   4.664   6.903   4.436  0.0227  1.8727 -0.5033
  389MOL0     H51300   4.674   7.063   4.497 -0.1802  0.5791  0.0580
  389MOL0     H51301   4.579   7.135   4.729 -1.1630  0.1321  2.4066
  389MOL0     H51302   4.337   7.163   4.864  1.3438  0.4366  0.8787
  389MOL0     H51303   4.370   7.027   4.976  0.7698 -1.4004 -0.7243
  389MOL0     H51304   4.143   7.054   4.950  0.2612 -1.5146  0.1428
  389MOL0     H51305   4.174   6.904   4.876  0.3520 -0.7958  2.8717
  389MOL0     H51306   4.128   7.186   4.743 -2.0749  0.4034  0.8931
  389MOL0     H51307   4.157   7.043   4.652  2.4866  1.1009  1.1836
  389MOL0     H51308   3.942   6.984   4.853  3.5353  0.2540  0.8841
  389MOL0     H51309   3.935   6.991   4.677 -1.2376 -0.2200  0.5981
  389MOL0     H51310   3.726   6.945   4.732 -3.0202 -2.2538  0.1397
  389MOL0     H51311   3.471   6.956   4.718 -0.0430 -0.6968  0.3337
  389MOL0     H51312   3.184   7.524   4.724 -0.0885  0.2114 -0.3498
  389MOL0     H51313   2.974   7.588   4.644 -3.5495  0.5106 -0.4046
  389MOL0     H51314   2.619   7.312   4.728  0.1797  1.4984  1.6056
  389MOL0     H51315   2.724   7.290   4.575  0.9498  1.2527  0.7421
  389MOL0     H51316   2.607   7.465   4.477  1.5476 -0.6510  0.7749
  389MOL0     H51317   2.478   7.472   4.604 -1.3668 -1.9304 -0.8565
  389MOL0     H51318   2.524   7.207   4.483 -3.7028 -1.5608  1.0103
  389MOL0     H51319   2.410   7.336   4.412 -1.0489 -1.5295  0.0448
  389MOL0     H51320   2.424   7.226   4.695 -0.7301 -1.0048 -0.8184
  389MOL0     H51321   2.307   7.340   4.645  3.9087  0.1714  4.3190
  389MOL0     H51322   2.325   7.045   4.556  0.4726 -0.4361 -1.3083
  389MOL0     H51323   2.205   7.160   4.500 -2.0334  2.3398  2.0903
  389MOL0     H51324   2.139   7.198   4.741 -0.2045 -1.0331 -0.8864
  389MOL0     H51325   2.243   7.063   4.795  1.5164  1.9587  0.0078
  389MOL0     H51326   1.986   7.072   4.645  0.4526  0.3878  0.1943
  389MOL0     H51327   2.093   6.946   4.585  0.4028  1.0785 -1.9234
  389MOL0     H51328   2.051   6.978   4.880 -1.3332  2.0293 -1.5365
  389MOL0     H51329   2.127   6.848   4.801  1.3166  1.0172  1.3309
  389MOL0     H51330   2.824   7.209   4.805 -1.6062 -0.3229 -2.3070
  389MOL0     H51331   3.035   7.151   4.861  0.0563 -0.4755 -1.1486
  389MOL0     H51332   3.502   7.372   4.796  0.7827  0.7943 -0.0790
  389MOL0     H51333   3.728   7.373   4.752 -5.0759  1.7176  0.2765
  389MOL0     H51334   5.398   6.437   4.362  0.0271 -0.0205 -0.1732
  389MOL0     H51335   5.622   6.328   4.430 -0.4307 -0.3315 -2.0766
  389MOL0     H51336   6.229   6.407   4.264 -0.0963  1.2317  0.5994
  389MOL0     H51337   6.398   6.308   4.356 -0.9941 -2.1863 -0.6350
  389MOL0     H51338   6.485   6.103   4.426  0.8204  1.5517 -1.2151
  389MOL0     H51339   6.547   6.037   4.569  0.8882  2.1585  4.1458
  389MOL0     H51340   6.594   6.321   4.472 -2.9999 -0.7617  1.9867
  389MOL0     H51341   6.653   6.262   4.629  1.3781  1.7666 -0.4491
  389MOL0     H51342   6.747   6.125   4.383  0.3453  3.8629 -1.7236
  389MOL0     H51343   6.764   6.060   4.545  0.3805 -0.1250  0.1782
  389MOL0     H51344   6.894   6.328   4.470  4.3223 -1.3549 -1.4521
  389MOL0     H51345   6.902   6.227   4.626 -1.2103 -3.0816 -0.0306
  389MOL0     H51346   7.185   6.054   4.357 -0.0646  0.6257 -1.0581
  389MOL0     H51347   6.174   6.275   4.731  2.1214  1.8530  0.4902
  389MOL0     H51348   6.014   6.406   4.636 -0.6575 -2.9822  0.3189
  390MOL0     O51349   9.110   9.066   5.788 -0.2800 -1.0414  0.5245
  390MOL0     C51350   9.089   9.057   5.909 -0.0035  1.0366  0.0575
  390MOL0     O51351   8.963   9.044   5.966 -0.2835  0.4107 -0.2128
  390MOL0     C51352   8.846   9.055   5.879  0.1301  0.2168  1.1096
  390MOL0     C51353   8.822   8.990   5.755  0.3143  0.7142  0.1683
  390MOL0     C51354   8.700   9.006   5.686 -0.9428 -0.0025 -0.3954
  390MOL0     C51355   8.603   9.085   5.745  0.8314 -0.1950 -0.0930
  390MOL0     O51356   8.492   9.115   5.669 -0.1873 -0.6302  0.4882
  390MOL0     C51357   8.410   9.000   5.659 -0.0947 -0.1873 -1.0171
  390MOL0     C51358   8.277   9.039   5.600 -0.7224  0.4217  0.4315
  390MOL0     C51359   8.201   9.139   5.684  0.0745  0.6188 -0.7961
  390MOL0     C51360   8.056   9.175   5.640  0.0560  0.1419  0.3419
  390MOL0     C51361   7.992   9.283   5.732 -0.3388 -0.6434 -0.6274
  390MOL0     C51362   7.853   9.341   5.683 -0.5282  0.1947 -0.5442
  390MOL0     C51363   7.798   9.447   5.781  0.6452  0.0917 -0.2545
  390MOL0     C51364   7.769   9.392   5.922 -0.3980 -1.2652  0.0712
  390MOL0     N51365   7.683   9.278   5.915 -0.0975 -0.3732  0.4611
  390MOL0     C51366   7.546   9.286   5.938 -0.2089  0.6739 -0.1380
  390MOL0     C51367   7.500   9.160   5.952 -0.8686  1.1149  0.2993
  390MOL0     C51368   7.359   9.122   5.993  0.8508 -1.2944 -0.2564
  390MOL0     C51369   7.282   9.080   5.870 -0.0141  0.1924 -0.5055
  390MOL0     C51370   7.133   9.085   5.913  0.3099 -0.2118 -0.1091
  390MOL0     C51371   7.042   8.981   5.854 -0.6140  0.5511  0.0016
  390MOL0     O51372   6.920   8.967   5.925  0.3999  0.0096  0.1999
  390MOL0     C51373   6.820   9.061   5.905 -0.4826  0.1112  0.3763
  390MOL0     C51374   6.828   9.155   5.803 -0.2434  0.0091 -0.7504
  390MOL0     C51375   6.729   9.250   5.781 -0.3413  0.4549 -0.3371
  390MOL0     C51376   6.619   9.246   5.876 -0.8879 -0.6457  0.4696
  390MOL0     C51377   6.507   9.361   5.871 -0.3505  0.3748 -0.0997
  390MOL0     O51378   6.539   9.476   5.823 -0.3132  0.0719  0.9007
  390MOL0     C51379   6.442   9.574   5.771 -0.2744  0.4193 -0.3225
  390MOL0     C51380   6.311   9.546   5.727 -0.3102  0.4819  0.9441
  390MOL0     C51381   6.220   9.641   5.669 -0.7475 -0.2232 -0.2538
  390MOL0     C51382   6.262   9.777   5.663  0.2722 -0.2718 -0.2570
  390MOL0     O51383   6.167   9.869   5.629 -0.3429 -0.8359  0.0387
  390MOL0     C51384   6.209   9.991   5.581  0.2243 -0.2927 -0.3660
  390MOL0     C51385   6.090  10.053   5.502  0.5846  0.2194 -0.5813
  390MOL0     C51386   5.979  10.092   5.597  0.4907  0.1009  0.6908
  390MOL0     C51387   5.846  10.088   5.522  1.6559 -0.5279 -0.7525
  390MOL0     C51388   5.738  10.145   5.619  0.5218 -0.6947  0.2250
  390MOL0     C51389   5.615  10.158   5.533  0.1043 -0.5388 -0.5058
  390MOL0     C51390   5.493  10.225   5.595  0.3714 -0.0770 -0.4068
  390MOL0     C51391   5.381  10.255   5.493 -0.5845 -0.2166  1.3872
  390MOL0    Cl51392   5.253  10.313   5.582 -0.5204  0.4112  0.0262
  390MOL0     C51393   6.396   9.809   5.711  0.1072 -0.5100 -0.4526
  390MOL0     C51394   6.482   9.709   5.759  0.4428  0.4036 -0.4298
  390MOL0     O51395   6.393   9.335   5.906 -0.1830 -0.8530  0.1831
  390MOL0     C51396   6.598   9.133   5.955  0.2023  0.2319  0.2578
  390MOL0     C51397   6.699   9.040   5.973  0.2570 -0.5518 -0.4821
  390MOL0     N51398   7.612   9.077   5.927 -0.8103 -0.8662  0.1055
  390MOL0     N51399   7.721   9.148   5.908  0.0369 -0.2771  0.0956
  390MOL0     C51400   8.619   9.136   5.875  0.4093  0.6851 -0.0732
  390MOL0     C51401   8.742   9.125   5.938 -0.5650  1.1248 -0.5305
  390MOL0     C51402   9.205   9.068   5.995 -0.2651  1.5798 -1.4014
  390MOL0     C51403   9.197   9.119   6.125  0.5879  0.3346 -0.3815
  390MOL0     C51404   9.309   9.131   6.216  0.3630 -0.1092 -0.0940
  390MOL0     C51405   9.436   9.098   6.173  0.1924 -0.1693  0.0166
  390MOL0     O51406   9.534   9.127   6.257  0.1118  0.5787 -0.5865
  390MOL0     C51407   9.666   9.080   6.229  0.2579 -0.0387  0.0109
  390MOL0     C51408   9.773   9.128   6.328  0.2783 -0.3155 -0.2196
  390MOL0     C51409   9.762   9.099   6.475 -0.5672  0.0646  0.0461
  390MOL0     C51410   9.878   9.132   6.556  1.0423  0.6317  0.3009
  390MOL0     C51411   9.934   9.265   6.539  0.5304 -0.5229  0.6306
  390MOL0     C51412   9.980   9.378   6.533 -0.8196 -0.0087 -0.0080
  390MOL0     C51413   9.446   9.053   6.036  0.2192 -0.2114  0.0042
  390MOL0     C51414   9.332   9.033   5.952 -0.2936 -0.1026  0.2293
  390MOL0     H51415   8.907   8.944   5.706  0.8121  1.2623  0.5054
  390MOL0     H51416   8.683   8.965   5.587  1.4498 -0.8718 -0.5201
  390MOL0     H51417   8.399   8.950   5.755  2.2574  1.6677  0.3397
  390MOL0     H51418   8.448   8.926   5.589 -1.7100 -1.4338 -0.6529
  390MOL0     H51419   8.222   8.946   5.586 -0.6836  0.4200  0.2898
  390MOL0     H51420   8.299   9.084   5.503 -0.7070  0.6306  0.5292
  390MOL0     H51421   8.260   9.231   5.694 -0.3212  1.1005 -2.4903
  390MOL0     H51422   8.189   9.108   5.788 -2.2781  2.3672 -0.4598
  390MOL0     H51423   8.063   9.221   5.541  1.2479  1.4052  0.9795
  390MOL0     H51424   7.990   9.088   5.629 -0.0433  0.3726 -0.9995
  390MOL0     H51425   8.064   9.364   5.747 -1.1508 -0.2592  1.5264
  390MOL0     H51426   7.978   9.237   5.830 -0.0210  0.3170 -0.1217
  390MOL0     H51427   7.779   9.261   5.674  0.4780 -1.0309  1.4387
  390MOL0     H51428   7.872   9.376   5.581 -0.1273  1.0180 -0.1991
  390MOL0     H51429   7.874   9.525   5.788  0.0357  0.5294  2.7723
  390MOL0     H51430   7.706   9.496   5.749  1.7782  0.9615 -2.3935
  390MOL0     H51431   7.723   9.474   5.979  1.0262 -1.2930  1.3273
  390MOL0     H51432   7.861   9.360   5.972  0.1415 -0.0272 -0.0796
  390MOL0     H51433   7.481   9.367   5.969 -0.6649 -0.0606  0.8887
  390MOL0     H51434   7.312   9.209   6.039  2.0709 -2.0640  2.6623
  390MOL0     H51435   7.355   9.048   6.073 -2.7237 -1.1217 -0.1131
  390MOL0     H51436   7.303   8.974   5.853 -1.0532 -0.7278  3.0829
  390MOL0     H51437   7.309   9.138   5.781 -0.6808  1.0949 -0.1343
  390MOL0     H51438   7.126   9.073   6.021  0.0314 -0.0233 -0.1034
  390MOL0     H51439   7.096   9.186   5.891 -0.3416  0.0837  2.1153
  390MOL0     H51440   7.088   8.883   5.862 -2.1854 -0.2324 -0.0883
  390MOL0     H51441   7.035   8.991   5.746  0.8015  0.2072 -0.1375
  390MOL0     H51442   6.921   9.169   5.747  0.5521 -1.0179  0.2795
  390MOL0     H51443   6.738   9.328   5.706  0.0592 -2.5400 -3.6262
  390MOL0     H51444   6.272   9.445   5.725  0.9097 -0.1741 -3.9585
  390MOL0     H51445   6.119   9.618   5.635 -1.8505  0.4357  2.3799
  390MOL0     H51446   6.289   9.980   5.508 -0.5215 -2.0230 -0.9671
  390MOL0     H51447   6.250  10.060   5.656  0.3767  0.0481 -0.7561
  390MOL0     H51448   6.051   9.976   5.435  1.4442  0.4250 -1.3329
  390MOL0     H51449   6.124  10.137   5.442  2.8616 -0.4598 -0.3209
  390MOL0     H51450   6.008  10.191   5.633  1.9053  0.3164 -0.9273
  390MOL0     H51451   5.970  10.014   5.674 -2.1093  0.8618  1.2566
  390MOL0     H51452   5.859  10.140   5.427  2.3977 -1.5571 -1.2283
  390MOL0     H51453   5.822   9.984   5.501  1.1249 -0.0051 -2.8899
  390MOL0     H51454   5.774  10.235   5.671 -2.6515  0.0250  1.4507
  390MOL0     H51455   5.706  10.064   5.685 -4.0379 -0.6203 -1.5002
  390MOL0     H51456   5.570  10.066   5.495 -1.9207  0.3191 -0.2853
  390MOL0     H51457   5.655  10.217   5.450  0.8531 -0.8321 -0.3597
  390MOL0     H51458   5.450  10.169   5.677 -0.7333 -0.4138 -1.1968
  390MOL0     H51459   5.531  10.320   5.634  1.1130 -0.2487 -0.6943
  390MOL0     H51460   5.349  10.167   5.436 -3.3045 -0.0122  2.4632
  390MOL0     H51461   5.433  10.323   5.424 -1.0262 -0.6518  0.6014
  390MOL0     H51462   6.436   9.910   5.708  2.9867 -1.5703 -1.4433
  390MOL0     H51463   6.582   9.737   5.790 -0.2565  1.7036  0.7736
  390MOL0     H51464   6.505   9.136   6.011  0.4323  0.2658  0.6477
  390MOL0     H51465   6.698   8.947   6.030 -1.6825  0.0264  0.5155
  390MOL0     H51466   8.548   9.209   5.915 -0.3460 -0.4391  0.6896
  390MOL0     H51467   8.766   9.182   6.027  2.1148  0.3154 -0.6549
  390MOL0     H51468   9.099   9.154   6.156 -1.0178  0.2698 -4.7899
  390MOL0     H51469   9.290   9.185   6.308 -1.1211  0.0965 -0.4950
  390MOL0     H51470   9.697   9.118   6.131  2.8616  0.8524  1.0885
  390MOL0     H51471   9.659   8.971   6.238 -1.2732 -0.1781 -2.2432
  390MOL0     H51472   9.867   9.085   6.292  0.7584  0.5581 -0.0503
  390MOL0     H51473   9.798   9.231   6.301 -1.2275  0.1642  0.1244
  390MOL0     H51474   9.740   8.994   6.496  1.3156 -0.1107  1.3992
  390MOL0     H51475   9.681   9.164   6.509  1.2976  2.2608  0.5543
  390MOL0     H51476   9.851   9.111   6.660  0.6530  1.0248  0.2825
  390MOL0     H51477   9.958   9.059   6.539  1.9858  1.5065  0.8320
  390MOL0     H51478  10.025   9.475   6.524  2.1872 -1.3975 -1.2496
  390MOL0     H51479   9.543   9.021   5.998  1.2530 -0.7260  2.8359
  390MOL0     H51480   9.341   8.986   5.855  0.0425 -0.2880  0.3473
  391MOL0     O51481   0.440   3.748   1.861 -0.1041  0.0349 -0.2440
  391MOL0     C51482   0.495   3.764   1.748  0.7190 -0.5105 -0.1019
  391MOL0     O51483   0.625   3.796   1.728  0.5706 -0.1901  0.0942
  391MOL0     C51484   0.732   3.813   1.815  0.4627  0.6973  0.1254
  391MOL0     C51485   0.838   3.876   1.751 -0.2632  0.0279 -0.2124
  391MOL0     C51486   0.961   3.896   1.815  1.2650 -0.6338 -0.4796
  391MOL0     C51487   0.979   3.839   1.940 -0.4218 -0.0157  0.6964
  391MOL0     O51488   1.107   3.842   1.992  0.1711 -0.5542 -0.2957
  391MOL0     C51489   1.159   3.785   2.108 -0.4682 -0.5981 -0.5602
  391MOL0     C51490   1.309   3.774   2.088 -0.5894  0.3344 -0.3345
  391MOL0     C51491   1.374   3.687   2.199 -0.8099  0.0002  0.4450
  391MOL0     C51492   1.524   3.662   2.154 -0.4716 -0.4489 -0.0213
  391MOL0     C51493   1.592   3.601   2.269 -0.6505 -0.6738  0.6022
  391MOL0     C51494   1.708   3.516   2.224  0.0964  0.9825  0.1581
  391MOL0     C51495   1.797   3.489   2.344  0.7407 -0.5608 -0.4490
  391MOL0     C51496   1.930   3.424   2.316  0.4259 -0.1545  0.9352
  391MOL0     N51497   1.923   3.323   2.213  0.8142  0.2218 -0.5323
  391MOL0     C51498   1.886   3.194   2.236  0.7879  0.0728  0.6336
  391MOL0     C51499   1.884   3.133   2.117 -0.5337 -0.1174 -0.4221
  391MOL0     C51500   1.820   2.987   2.101 -0.1774  0.3431 -0.1675
  391MOL0     C51501   1.710   2.976   1.990  0.2290  0.1553 -0.4253
  391MOL0     C51502   1.606   3.074   2.026  0.0641  0.1621  0.1255
  391MOL0     C51503   1.584   3.196   1.932 -0.0332 -0.7504 -0.2008
  391MOL0     O51504   1.466   3.272   1.978  0.8686 -1.1687  0.0699
  391MOL0     C51505   1.334   3.232   1.957  0.2920 -0.8636 -0.6559
  391MOL0     C51506   1.287   3.150   1.860 -0.3183  0.7514  0.3719
  391MOL0     C51507   1.152   3.123   1.849  0.2849 -0.4123 -0.4630
  391MOL0     C51508   1.051   3.177   1.935  0.4813  0.2551 -0.2431
  391MOL0     C51509   0.911   3.135   1.919 -0.0949  0.6516  0.1792
  391MOL0     O51510   0.824   3.229   1.968 -0.2359  0.1849  0.0501
  391MOL0     C51511   0.679   3.208   1.963 -0.2990 -0.0842 -0.0911
  391MOL0     C51512   0.607   3.095   1.936  0.7461 -0.8073  0.3711
  391MOL0     C51513   0.466   3.099   1.949  0.0200 -1.4171 -0.2163
  391MOL0     C51514   0.396   3.217   1.978 -0.1765  0.6195 -0.0078
  391MOL0     O51515   0.262   3.220   1.970  0.7667 -0.2254 -0.7165
  391MOL0     C51516   0.200   3.141   1.867 -0.0431 -0.4082 -0.3563
  391MOL0     C51517   0.064   3.212   1.832 -0.9642 -0.3810  0.0367
  391MOL0     C51518  -0.047   3.185   1.929 -0.7321  0.1903  0.5751
  391MOL0     C51519  -0.185   3.249   1.890  0.2631  0.0225  0.3755
  391MOL0     C51520  -0.258   3.191   1.770  0.3305  0.4063  0.9251
  391MOL0     C51521  -0.387   3.270   1.727  0.0803  0.3758  0.3137
  391MOL0     C51522  -0.493   3.262   1.845  0.0303 -1.2025  0.4597
  391MOL0     C51523  -0.630   3.279   1.781  0.6691 -0.4183  0.6010
  391MOL0    Cl51524  -0.622   3.446   1.710 -0.7014 -0.4884 -0.5210
  391MOL0     C51525   0.469   3.328   2.012 -0.0030  0.0909  0.0612
  391MOL0     C51526   0.606   3.324   2.004 -0.5375  0.5954 -0.3169
  391MOL0     O51527   0.884   3.021   1.877 -0.0113 -0.5228 -0.1012
  391MOL0     C51528   1.099   3.267   2.035 -0.1202  0.1632  0.9384
  391MOL0     C51529   1.236   3.292   2.037 -0.4947 -0.5176 -0.3905
  391MOL0     N51530   1.931   3.220   2.019  0.5392 -0.4881 -0.4480
  391MOL0     N51531   1.945   3.343   2.081  0.6540  0.2598 -0.3093
  391MOL0     C51532   0.874   3.765   2.000 -0.4873 -0.3250 -0.7208
  391MOL0     C51533   0.746   3.753   1.942 -0.5720 -0.2151 -0.1675
  391MOL0     C51534   0.419   3.736   1.629  0.2158  0.0210  0.4968
  391MOL0     C51535   0.281   3.702   1.633 -1.0066 -0.0844 -0.1448
  391MOL0     C51536   0.210   3.691   1.516 -0.3672  0.5325 -0.0089
  391MOL0     C51537   0.266   3.704   1.389  0.2677  0.3052 -0.3897
  391MOL0     O51538   0.187   3.696   1.278 -0.4962 -0.5873 -0.2058
  391MOL0     C51539   0.209   3.803   1.186 -0.2966  0.4019  0.1379
  391MOL0     C51540   0.098   3.788   1.074 -0.3089 -0.6897  0.4789
  391MOL0     C51541   0.120   3.898   0.967  0.3566 -0.2461  0.7916
  391MOL0     C51542   0.072   4.034   1.020  0.0855 -0.5596 -0.6763
  391MOL0     C51543  -0.073   4.029   1.053 -0.3989 -0.0957 -0.0230
  391MOL0     C51544  -0.186   4.014   1.075 -0.3852 -0.0711 -0.2883
  391MOL0     C51545   0.406   3.719   1.384  0.6472  1.1182  0.2019
  391MOL0     C51546   0.480   3.741   1.502  0.0793  0.2589 -0.1120
  391MOL0     H51547   0.817   3.925   1.656 -1.1125  0.6193  0.2653
  391MOL0     H51548   1.049   3.946   1.775  1.3141 -1.1364 -1.0076
  391MOL0     H51549   1.116   3.685   2.117  0.4306 -0.8424  1.8066
  391MOL0     H51550   1.132   3.851   2.192  0.4010 -0.8035 -0.1068
  391MOL0     H51551   1.347   3.877   2.096  0.4855 -0.1372  1.0465
  391MOL0     H51552   1.325   3.739   1.986 -0.9809  1.7687 -0.9164
  391MOL0     H51553   1.328   3.589   2.212  2.1442 -1.7917 -1.3848
  391MOL0     H51554   1.365   3.751   2.287 -1.1450 -0.8419  1.0388
  391MOL0     H51555   1.524   3.583   2.079 -1.8559  0.6809 -1.2831
  391MOL0     H51556   1.572   3.748   2.107 -0.6040  1.1395  2.5540
  391MOL0     H51557   1.524   3.542   2.331 -0.4192  0.6853  2.2192
  391MOL0     H51558   1.623   3.694   2.317 -0.4391 -0.0324 -0.7288
  391MOL0     H51559   1.765   3.573   2.149  0.7390  0.9123  0.5838
  391MOL0     H51560   1.679   3.425   2.171 -0.3330  0.6678  0.9194
  391MOL0     H51561   1.815   3.589   2.383 -0.3204 -1.2768  2.0978
  391MOL0     H51562   1.749   3.427   2.420 -0.5555 -1.3080 -1.8272
  391MOL0     H51563   1.955   3.373   2.409  1.9216 -1.5151 -0.1553
  391MOL0     H51564   2.010   3.497   2.300 -1.2810  1.6064  0.0599
  391MOL0     H51565   1.847   3.146   2.325 -0.7426 -1.8215 -0.9555
  391MOL0     H51566   1.778   2.960   2.199 -0.8902  0.2137 -0.5040
  391MOL0     H51567   1.907   2.922   2.087  0.5101  1.2601 -0.2304
  391MOL0     H51568   1.657   2.880   1.983 -0.1650  0.3849 -0.6758
  391MOL0     H51569   1.761   3.005   1.897 -0.8863 -0.5934 -1.3017
  391MOL0     H51570   1.511   3.021   2.021  0.1931  0.0614 -1.7621
  391MOL0     H51571   1.614   3.104   2.131  0.5550 -2.8378  1.0568
  391MOL0     H51572   1.581   3.168   1.826  1.5188 -1.0206 -0.2010
  391MOL0     H51573   1.671   3.260   1.950 -2.0885  1.6247  2.1079
  391MOL0     H51574   1.349   3.107   1.782 -0.6934  0.4496  0.2393
  391MOL0     H51575   1.127   3.067   1.759  1.4240 -2.1139  0.2319
  391MOL0     H51576   0.653   3.000   1.907  0.4583 -0.5027 -1.1947
  391MOL0     H51577   0.407   3.009   1.940 -1.9431 -0.2672  0.5585
  391MOL0     H51578   0.184   3.033   1.879 -0.0887 -0.5167 -1.2733
  391MOL0     H51579   0.262   3.146   1.777 -1.4100  2.0488 -1.2365
  391MOL0     H51580   0.031   3.180   1.733  1.0189 -0.9958 -0.4644
  391MOL0     H51581   0.063   3.322   1.826 -5.2540 -0.3052 -1.7822
  391MOL0     H51582  -0.014   3.233   2.022 -0.6874  2.8190 -0.7126
  391MOL0     H51583  -0.067   3.078   1.938 -1.3096  0.1880 -0.5473
  391MOL0     H51584  -0.259   3.235   1.970  1.7010  2.5353  2.3055
  391MOL0     H51585  -0.173   3.357   1.881  0.9518 -0.0945 -0.1701
  391MOL0     H51586  -0.291   3.090   1.794  2.7629 -1.1378 -1.6289
  391MOL0     H51587  -0.197   3.184   1.680 -2.3359  0.9651 -1.0783
  391MOL0     H51588  -0.432   3.229   1.636  1.3212 -2.5193  0.8949
  391MOL0     H51589  -0.363   3.376   1.714  1.1549  0.4078  2.1834
  391MOL0     H51590  -0.490   3.166   1.897  3.6138 -0.6062  1.5836
  391MOL0     H51591  -0.495   3.335   1.926 -4.3227 -2.3860  1.7445
  391MOL0     H51592  -0.705   3.272   1.860 -1.6576  0.5428 -1.3985
  391MOL0     H51593  -0.658   3.209   1.702  2.6490  1.0655 -1.5266
  391MOL0     H51594   0.423   3.423   2.040 -1.4728  0.2568 -2.5700
  391MOL0     H51595   0.671   3.400   2.046 -0.7792  0.0988  0.9994
  391MOL0     H51596   1.025   3.301   2.106  0.5775  2.0452  0.8292
  391MOL0     H51597   1.276   3.364   2.108 -1.5581  0.6034 -0.8886
  391MOL0     H51598   0.894   3.722   2.098 -3.4780  0.4538  0.3175
  391MOL0     H51599   0.663   3.704   1.991  0.4896  0.5316  2.5644
  391MOL0     H51600   0.239   3.673   1.729 -0.4826 -1.0826 -0.2021
  391MOL0     H51601   0.105   3.665   1.520 -0.6666 -0.1154 -5.1727
  391MOL0     H51602   0.309   3.797   1.140 -0.6880 -0.0811 -0.6866
  391MOL0     H51603   0.203   3.897   1.240 -0.1352 -0.3841  1.5640
  391MOL0     H51604   0.112   3.694   1.018  1.6208 -0.2920  0.2119
  391MOL0     H51605  -0.003   3.789   1.117 -0.6621  1.4437 -0.2811
  391MOL0     H51606   0.051   3.859   0.892  1.5152 -4.4288  1.6423
  391MOL0     H51607   0.224   3.897   0.934  1.3283 -2.9277  3.4227
  391MOL0     H51608   0.134   4.062   1.105 -0.1122 -1.6030 -0.1667
  391MOL0     H51609   0.085   4.102   0.936  1.7047 -0.9997 -0.8223
  391MOL0     H51610  -0.291   4.001   1.091 -0.2042 -2.1836 -0.4709
  391MOL0     H51611   0.459   3.720   1.289 -1.6262 -1.0792 -1.2240
  391MOL0     H51612   0.586   3.761   1.489  0.2379  2.1308  3.0219
  392MOL0     O51613   5.915   3.706   0.302 -0.3090  0.3352  0.2692
  392MOL0     C51614   5.977   3.763   0.394 -0.7863  0.3857  0.6542
  392MOL0     O51615   5.923   3.801   0.511 -0.4732  1.0004 -0.0296
  392MOL0     C51616   5.801   3.754   0.539  0.2801 -0.6692 -0.6631
  392MOL0     C51617   5.687   3.801   0.468 -0.4095 -0.0579 -0.7742
  392MOL0     C51618   5.554   3.780   0.520  0.1806 -0.5981  0.1268
  392MOL0     C51619   5.534   3.705   0.640 -0.5139 -0.2061  0.0899
  392MOL0     O51620   5.404   3.677   0.666  0.3186  0.1058  0.3135
  392MOL0     C51621   5.359   3.709   0.797  0.8576 -1.5639  0.6467
  392MOL0     C51622   5.201   3.699   0.800 -0.3592 -0.0021  0.8160
  392MOL0     C51623   5.149   3.559   0.743 -0.8931  0.1450 -0.4438
  392MOL0     C51624   5.196   3.448   0.834  0.4194  1.1219 -0.5806
  392MOL0     C51625   5.100   3.329   0.839 -1.2537  1.1712 -0.3074
  392MOL0     C51626   4.970   3.366   0.917 -1.3092 -1.0838  0.1161
  392MOL0     C51627   4.853   3.364   0.821  0.2353  0.1081 -0.6862
  392MOL0     C51628   4.791   3.229   0.804  0.3252 -0.5797  0.2687
  392MOL0     N51629   4.648   3.241   0.862 -0.3441 -0.1756  0.2432
  392MOL0     C51630   4.537   3.298   0.801  0.0284  0.6794  0.1172
  392MOL0     C51631   4.434   3.272   0.884  0.2060 -1.0115 -0.2375
  392MOL0     C51632   4.285   3.311   0.859 -0.9902  0.6463 -0.1506
  392MOL0     C51633   4.250   3.452   0.885 -0.3261 -0.8929  0.4525
  392MOL0     C51634   4.113   3.491   0.829  0.7053  0.6671 -0.5421
  392MOL0     C51635   3.991   3.409   0.875  0.8171 -0.3065  0.3208
  392MOL0     O51636   3.937   3.462   0.996 -0.1458 -0.3012 -0.0359
  392MOL0     C51637   3.820   3.416   1.057  0.0450 -0.5266 -0.7693
  392MOL0     C51638   3.731   3.332   1.006  0.2484  0.2343  0.8214
  392MOL0     C51639   3.614   3.301   1.066  0.1867  1.1718 -0.7308
  392MOL0     C51640   3.578   3.360   1.191 -1.0294  0.3040 -0.2589
  392MOL0     C51641   3.457   3.335   1.271 -0.2483 -0.3209 -0.1576
  392MOL0     O51642   3.355   3.270   1.206  0.0697  0.4258 -0.9746
  392MOL0     C51643   3.232   3.289   1.265 -0.0877 -0.2757  0.7169
  392MOL0     C51644   3.160   3.408   1.251 -0.8050 -0.9457  0.7173
  392MOL0     C51645   3.035   3.426   1.322  0.3680 -0.5353  0.3725
  392MOL0     C51646   2.988   3.336   1.403  0.4382  0.8743 -0.2697
  392MOL0     O51647   2.867   3.361   1.466 -0.3745  0.1089  0.6301
  392MOL0     C51648   2.859   3.343   1.610  1.4032  0.5714 -1.0622
  392MOL0     C51649   2.716   3.363   1.670  0.7699  0.0295  1.0606
  392MOL0     C51650   2.618   3.255   1.627  1.0118 -1.0022 -0.3280
  392MOL0     C51651   2.485   3.271   1.696 -0.3906 -0.1543 -0.1826
  392MOL0     C51652   2.410   3.144   1.669  0.0663  0.5074 -0.8869
  392MOL0     C51653   2.267   3.163   1.724  0.6692  1.2098 -0.4765
  392MOL0     C51654   2.196   3.031   1.698  0.0373  0.4286 -0.7692
  392MOL0     C51655   2.048   3.029   1.749 -0.0188 -0.3430 -0.3327
  392MOL0    Cl51656   1.983   2.870   1.715  0.1679 -0.0740  0.0616
  392MOL0     C51657   3.065   3.216   1.421 -0.7747 -0.4994  0.3393
  392MOL0     C51658   3.185   3.187   1.344 -0.5312 -0.2661  0.5713
  392MOL0     O51659   3.455   3.372   1.391  0.4115  0.4844 -1.0365
  392MOL0     C51660   3.681   3.441   1.248 -0.3005  1.3232  0.0264
  392MOL0     C51661   3.794   3.476   1.182 -0.9941 -0.3042  0.3113
  392MOL0     N51662   4.484   3.209   1.002  0.5137 -0.4045  0.2978
  392MOL0     N51663   4.612   3.183   0.974  0.9354 -0.0455 -0.0042
  392MOL0     C51664   5.646   3.660   0.712 -0.4647 -0.5579  0.0424
  392MOL0     C51665   5.779   3.691   0.667  0.2834  0.3843  0.8911
  392MOL0     C51666   6.106   3.815   0.361  0.4056 -0.1650  0.7019
  392MOL0     C51667   6.137   3.865   0.231  0.2729 -0.3167  0.3445
  392MOL0     C51668   6.262   3.920   0.193 -0.3440  1.6662  0.7875
  392MOL0     C51669   6.364   3.914   0.293  0.7626  0.1480  1.0723
  392MOL0     O51670   6.474   3.981   0.245 -0.6379 -0.3780  0.1612
  392MOL0     C51671   6.602   3.953   0.320  0.5711  0.0156  0.0377
  392MOL0     C51672   6.655   3.819   0.277 -0.2655  0.3582 -0.2754
  392MOL0     C51673   6.676   3.803   0.121 -0.1698  0.0863 -1.1674
  392MOL0     C51674   6.783   3.696   0.091  0.3339  0.1785 -0.3757
  392MOL0     C51675   6.746   3.561   0.158 -0.1697  0.2824 -0.2603
  392MOL0     C51676   6.711   3.455   0.210 -0.6298 -0.5878 -0.2554
  392MOL0     C51677   6.343   3.860   0.421  0.2212 -0.4168  0.0431
  392MOL0     C51678   6.210   3.806   0.453 -0.4245  0.1478  0.1381
  392MOL0     H51679   5.703   3.882   0.398  1.3321  0.5231  0.2407
  392MOL0     H51680   5.471   3.829   0.471 -0.2939 -2.8003 -1.4432
  392MOL0     H51681   5.397   3.807   0.828 -1.7185 -0.8083  1.7341
  392MOL0     H51682   5.393   3.637   0.872  2.4061  0.9645  2.5244
  392MOL0     H51683   5.145   3.768   0.736 -0.2332 -1.9460 -1.5231
  392MOL0     H51684   5.177   3.710   0.906 -0.4439 -5.0670  1.5625
  392MOL0     H51685   5.182   3.538   0.640 -0.9520  2.2204 -0.9321
  392MOL0     H51686   5.040   3.561   0.738 -1.1179  1.4523  2.6837
  392MOL0     H51687   5.298   3.418   0.808  0.6231 -0.4505  1.7194
  392MOL0     H51688   5.201   3.486   0.936 -1.2602  1.9273 -0.7528
  392MOL0     H51689   5.144   3.253   0.904 -0.3412  1.2116 -0.8646
  392MOL0     H51690   5.084   3.281   0.742 -0.0033 -3.2902  1.4793
  392MOL0     H51691   4.981   3.468   0.954 -1.0120 -0.4894 -1.5180
  392MOL0     H51692   4.966   3.307   1.009  0.5686 -0.4663  0.6496
  392MOL0     H51693   4.779   3.435   0.860 -2.4546 -2.2633 -1.1774
  392MOL0     H51694   4.873   3.406   0.722 -0.3684  1.6795 -0.1788
  392MOL0     H51695   4.839   3.152   0.864  1.9633  1.1948  1.3483
  392MOL0     H51696   4.797   3.190   0.702  2.6607 -1.3217  0.6238
  392MOL0     H51697   4.529   3.341   0.702  0.5748  0.8438  0.1400
  392MOL0     H51698   4.232   3.252   0.935 -1.2423  0.0785 -0.7530
  392MOL0     H51699   4.258   3.289   0.756 -3.1983 -0.1995  0.5524
  392MOL0     H51700   4.333   3.506   0.838 -0.3854  0.7509  2.1423
  392MOL0     H51701   4.261   3.472   0.992 -0.4458  2.3051 -0.0387
  392MOL0     H51702   4.096   3.594   0.864  0.4065  0.4966 -0.1914
  392MOL0     H51703   4.115   3.499   0.720 -1.0549  0.5743 -0.6037
  392MOL0     H51704   4.017   3.303   0.882 -3.3565 -1.5245 -0.2683
  392MOL0     H51705   3.912   3.425   0.801 -0.3168 -0.3053  1.5072
  392MOL0     H51706   3.744   3.308   0.901  2.1697  5.0405 -0.2999
  392MOL0     H51707   3.547   3.227   1.022  0.6424  0.4477 -0.2230
  392MOL0     H51708   3.196   3.493   1.193 -0.5801  0.3174  2.5838
  392MOL0     H51709   2.972   3.514   1.305 -0.2177 -0.8951  0.6447
  392MOL0     H51710   2.931   3.418   1.646 -1.0995  2.3879  0.4817
  392MOL0     H51711   2.884   3.240   1.638 -1.4303 -0.2335 -1.2132
  392MOL0     H51712   2.685   3.458   1.626 -2.2549 -2.2463 -2.2367
  392MOL0     H51713   2.717   3.355   1.779 -0.8031  1.9049  1.2711
  392MOL0     H51714   2.654   3.157   1.660  0.6954 -0.3787  2.0852
  392MOL0     H51715   2.610   3.251   1.518 -0.4799  0.4306 -0.3229
  392MOL0     H51716   2.498   3.272   1.805  1.0822 -2.5813 -0.2652
  392MOL0     H51717   2.433   3.364   1.671 -0.9594  0.0074  1.4972
  392MOL0     H51718   2.451   3.058   1.723 -1.0384  1.3232  1.3633
  392MOL0     H51719   2.405   3.119   1.563  1.7558 -0.1247 -0.8543
  392MOL0     H51720   2.212   3.244   1.675  0.4740  0.0943 -2.1497
  392MOL0     H51721   2.266   3.175   1.833  1.5212 -3.4002  0.2450
  392MOL0     H51722   2.190   3.013   1.590  0.8408  1.7873 -1.0535
  392MOL0     H51723   2.250   2.949   1.746 -0.0003  0.4684 -0.6592
  392MOL0     H51724   1.999   3.109   1.692  4.5885  1.7009 -1.8804
  392MOL0     H51725   2.036   3.052   1.855 -5.0201 -1.0938 -0.4657
  392MOL0     H51726   3.037   3.138   1.491 -1.9252  0.0578  0.5249
  392MOL0     H51727   3.236   3.092   1.354 -1.1937 -0.6554  0.3272
  392MOL0     H51728   3.663   3.491   1.342 -2.2138 -0.0489  0.4514
  392MOL0     H51729   3.870   3.539   1.226 -0.9152  0.8929 -1.4317
  392MOL0     H51730   5.621   3.613   0.806  1.0769 -0.5257  0.4889
  392MOL0     H51731   5.868   3.660   0.722  0.8733 -1.7302 -1.1119
  392MOL0     H51732   6.063   3.870   0.152  1.8805  0.8079 -1.1381
  392MOL0     H51733   6.289   3.952   0.093  0.9535  3.0253  1.5315
  392MOL0     H51734   6.579   3.939   0.426 -1.4182  0.6970 -0.2700
  392MOL0     H51735   6.677   4.032   0.326 -1.4359  1.9142  3.7501
  392MOL0     H51736   6.747   3.809   0.335 -1.3560  2.1433  1.8938
  392MOL0     H51737   6.594   3.736   0.313 -1.5742  0.9461 -1.0645
  392MOL0     H51738   6.712   3.901   0.087  1.1613  0.1110  0.1898
  392MOL0     H51739   6.594   3.766   0.060 -0.0920 -0.5084 -0.9167
  392MOL0     H51740   6.777   3.679  -0.016 -2.4616  0.4537 -0.3531
  392MOL0     H51741   6.883   3.731   0.117 -0.2759 -0.9554  4.6581
  392MOL0     H51742   6.701   3.358   0.253  1.0579  0.7197  3.5905
  392MOL0     H51743   6.414   3.878   0.502  2.1016  0.2959 -1.6948
  392MOL0     H51744   6.188   3.743   0.539  1.4400 -1.0918 -0.2309
  393MOL0     O51745   3.493   0.177   8.962  0.5367  0.5069  0.3605
  393MOL0     C51746   3.419   0.084   8.925 -0.6350 -0.5458  0.1148
  393MOL0     O51747   3.318   0.094   8.843  0.3679  0.0138 -0.7101
  393MOL0     C51748   3.265   0.208   8.786  0.5486 -0.2760 -0.3562
  393MOL0     C51749   3.249   0.327   8.860  0.8208  0.4449  0.2043
  393MOL0     C51750   3.185   0.438   8.805  0.2126  0.3642  0.4026
  393MOL0     C51751   3.145   0.438   8.673 -0.4583 -1.2292  1.0741
  393MOL0     O51752   3.072   0.542   8.632  0.7280 -0.1108  0.4799
  393MOL0     C51753   2.990   0.531   8.518  0.1154 -0.0203  0.2627
  393MOL0     C51754   2.869   0.446   8.557 -0.0170 -0.4677  0.7578
  393MOL0     C51755   2.766   0.527   8.628 -1.1075 -0.3545 -0.1187
  393MOL0     C51756   2.633   0.448   8.638  0.8275 -0.9712 -0.5876
  393MOL0     C51757   2.511   0.544   8.647 -0.0562 -0.7304  1.2564
  393MOL0     C51758   2.377   0.471   8.671 -1.2565 -0.5448  0.7735
  393MOL0     C51759   2.275   0.583   8.663  0.5833 -0.2493 -0.4191
  393MOL0     C51760   2.127   0.534   8.680  0.3392  0.5942  0.4524
  393MOL0     N51761   2.094   0.494   8.815  0.5745  0.0306  0.5086
  393MOL0     C51762   2.130   0.380   8.874  0.1504  0.3455 -0.4515
  393MOL0     C51763   2.082   0.395   8.999 -0.4537 -0.3193 -0.8602
  393MOL0     C51764   2.103   0.283   9.100 -0.3530 -0.7481 -1.2021
  393MOL0     C51765   2.053   0.146   9.031  0.3105  0.0962  0.0556
  393MOL0     C51766   2.013   0.048   9.144  0.1894 -1.2264 -0.4659
  393MOL0     C51767   1.985  -0.086   9.081  0.5288  0.1243 -1.1108
  393MOL0     O51768   1.888  -0.090   8.972 -0.0465 -0.4512  0.0441
  393MOL0     C51769   1.751  -0.089   8.994 -0.3289 -0.3031  0.3259
  393MOL0     C51770   1.670  -0.066   8.889 -0.3343 -0.5243  0.4732
  393MOL0     C51771   1.532  -0.066   8.903  0.9326  0.0416 -0.3719
  393MOL0     C51772   1.477  -0.092   9.024 -0.1581 -0.3402 -0.1124
  393MOL0     C51773   1.330  -0.110   9.029  0.1938  0.5481 -0.4389
  393MOL0     O51774   1.252  -0.036   8.952  0.3079 -0.5691  0.2448
  393MOL0     C51775   1.118  -0.055   8.958  0.1666 -0.3518  0.2827
  393MOL0     C51776   1.045  -0.108   8.844 -0.1726 -0.8486 -0.3577
  393MOL0     C51777   0.902  -0.103   8.855 -0.2986  0.6592 -0.0222
  393MOL0     C51778   0.837  -0.083   8.978  0.1474 -0.6400 -0.4751
  393MOL0     O51779   0.701  -0.080   8.994 -0.1058  0.2931 -0.0268
  393MOL0     C51780   0.615  -0.150   8.906  0.3043  0.3064 -0.4550
  393MOL0     C51781   0.479  -0.151   8.962 -0.0009 -0.9162 -1.4333
  393MOL0     C51782   0.381  -0.248   8.881 -0.2822 -0.0536  0.5647
  393MOL0     C51783   0.262  -0.289   8.963  0.8558  0.3660  0.4941
  393MOL0     C51784   0.163  -0.361   8.861 -0.1686 -0.1470  0.1977
  393MOL0     C51785   0.032  -0.390   8.939 -0.2496 -0.4214  0.3956
  393MOL0     C51786  -0.068  -0.468   8.856 -0.2382 -0.0405 -0.5194
  393MOL0     C51787  -0.204  -0.471   8.919 -0.1437  0.6684  0.0611
  393MOL0    Cl51788  -0.339  -0.554   8.819  0.0444 -0.2110  0.0256
  393MOL0     C51789   0.915  -0.046   9.089 -0.4166 -0.3735 -0.5512
  393MOL0     C51790   1.051  -0.020   9.070 -0.0135  0.3939 -0.1994
  393MOL0     O51791   1.282  -0.188   9.116 -0.7868  0.1958  0.4293
  393MOL0     C51792   1.549  -0.123   9.132  0.1629  1.2460 -0.2592
  393MOL0     C51793   1.694  -0.121   9.118  0.5395  0.4623  0.8665
  393MOL0     N51794   2.030   0.525   9.024 -0.0774  0.4208 -0.0908
  393MOL0     N51795   2.029   0.580   8.901 -0.1050  0.0634  0.1050
  393MOL0     C51796   3.164   0.317   8.601  0.1345 -0.2439  0.2606
  393MOL0     C51797   3.218   0.201   8.660 -0.0566  0.8321  0.4969
  393MOL0     C51798   3.443  -0.060   8.975  0.4940  0.5546 -0.0673
  393MOL0     C51799   3.356  -0.168   8.939  0.5410 -0.4283  0.0594
  393MOL0     C51800   3.376  -0.293   8.999 -0.3845 -0.6632  1.5081
  393MOL0     C51801   3.480  -0.311   9.092  0.6751  0.3733  0.0742
  393MOL0     O51802   3.488  -0.442   9.133  0.2332  0.1914 -0.4332
  393MOL0     C51803   3.581  -0.476   9.234 -1.0432  0.4317  0.7911
  393MOL0     C51804   3.624  -0.618   9.252 -0.1073  0.5433  0.1757
  393MOL0     C51805   3.504  -0.717   9.284  0.0191  0.1838 -1.0696
  393MOL0     C51806   3.556  -0.862   9.287  0.4094 -0.4168  0.2603
  393MOL0     C51807   3.453  -0.961   9.327  0.2461 -0.0936  0.2379
  393MOL0     C51808   3.360  -1.037   9.351  0.1595 -0.6485  0.4817
  393MOL0     C51809   3.562  -0.204   9.124 -0.1017 -0.2465  0.2539
  393MOL0     C51810   3.540  -0.074   9.070  0.7688  0.2607 -0.2673
  393MOL0     H51811   3.292   0.333   8.960  0.7521 -2.3250  0.4914
  393MOL0     H51812   3.182   0.533   8.856  0.7322 -0.0784  1.2774
  393MOL0     H51813   3.045   0.487   8.435 -0.0186 -0.0433  0.1869
  393MOL0     H51814   2.963   0.633   8.492  1.8963  0.3859 -0.1224
  393MOL0     H51815   2.886   0.362   8.625  0.2436 -2.1248 -1.2527
  393MOL0     H51816   2.808   0.413   8.473 -1.9602 -0.8026  2.2344
  393MOL0     H51817   2.748   0.628   8.591 -0.5513 -0.0728  0.3612
  393MOL0     H51818   2.799   0.536   8.732 -3.1177 -2.6000  0.7946
  393MOL0     H51819   2.617   0.388   8.548  3.3495 -0.0993 -1.6890
  393MOL0     H51820   2.652   0.390   8.728 -1.2179 -1.2749 -0.3048
  393MOL0     H51821   2.500   0.613   8.563 -2.1043  1.1294  2.9493
  393MOL0     H51822   2.525   0.610   8.733 -1.6239  0.7806  0.3931
  393MOL0     H51823   2.380   0.424   8.770  3.8013 -2.7815 -0.1173
  393MOL0     H51824   2.355   0.405   8.587 -3.1228 -0.2462  1.0019
  393MOL0     H51825   2.292   0.648   8.749 -0.6771 -2.3813  1.5525
  393MOL0     H51826   2.275   0.635   8.567 -1.0030 -3.3353 -2.2520
  393MOL0     H51827   2.113   0.441   8.625 -1.1524 -0.9671  3.2474
  393MOL0     H51828   2.063   0.618   8.651  0.9569  0.7548 -0.5005
  393MOL0     H51829   2.182   0.297   8.828  2.6079 -0.0908  2.7351
  393MOL0     H51830   2.055   0.290   9.199  0.1864 -0.7540 -0.9346
  393MOL0     H51831   2.209   0.282   9.129 -0.6387 -3.2150 -0.0546
  393MOL0     H51832   2.133   0.102   8.971  0.4687 -0.8567  0.9469
  393MOL0     H51833   1.959   0.165   8.978  0.0570  0.8819  0.7550
  393MOL0     H51834   2.091   0.040   9.220  0.1650  2.7019  0.2235
  393MOL0     H51835   1.929   0.096   9.195  0.5205  0.5514 -1.5011
  393MOL0     H51836   1.958  -0.154   9.162  0.0661  1.6216  0.0440
  393MOL0     H51837   2.075  -0.123   9.030  0.4214 -1.6897 -0.0627
  393MOL0     H51838   1.723  -0.042   8.797  1.0062  1.0519  1.5866
  393MOL0     H51839   1.464  -0.059   8.819  0.3750  0.0716  0.0728
  393MOL0     H51840   1.102  -0.147   8.760 -0.0702 -0.9412 -0.2465
  393MOL0     H51841   0.844  -0.127   8.767 -0.1476 -1.4878  0.4066
  393MOL0     H51842   0.643  -0.255   8.902 -1.2589 -0.3509  2.4572
  393MOL0     H51843   0.611  -0.097   8.811  1.4891 -1.6760 -1.6702
  393MOL0     H51844   0.441  -0.049   8.962  1.3256 -0.3967 -0.2183
  393MOL0     H51845   0.489  -0.191   9.063 -0.7306  0.0882 -0.9575
  393MOL0     H51846   0.432  -0.338   8.843 -2.4945  0.2753 -3.8026
  393MOL0     H51847   0.351  -0.199   8.788 -0.4321 -1.0254  0.0837
  393MOL0     H51848   0.291  -0.369   9.033  0.7037  1.7240  2.1679
  393MOL0     H51849   0.227  -0.201   9.017  1.8835  1.8713 -1.1993
  393MOL0     H51850   0.209  -0.453   8.825  0.2795  0.8067 -1.8010
  393MOL0     H51851   0.143  -0.288   8.782 -0.1915 -1.4660 -1.0703
  393MOL0     H51852  -0.009  -0.291   8.961  1.2102  0.6563 -1.4358
  393MOL0     H51853   0.028  -0.442   9.035  0.4517 -0.2478  0.5203
  393MOL0     H51854  -0.071  -0.427   8.755 -0.4700  0.5311 -0.2826
  393MOL0     H51855  -0.036  -0.573   8.849  0.3700  0.1843 -1.1865
  393MOL0     H51856  -0.225  -0.364   8.929 -1.2174  0.2696  3.5844
  393MOL0     H51857  -0.194  -0.508   9.022 -0.2240  1.6237  0.4314
  393MOL0     H51858   0.862  -0.012   9.177  1.6193 -1.7287  1.3082
  393MOL0     H51859   1.110   0.022   9.151 -2.4304  0.4585  1.6385
  393MOL0     H51860   1.508  -0.150   9.229  1.4104 -0.5826 -0.1884
  393MOL0     H51861   1.747  -0.144   9.209  0.1085  0.3031  1.0789
  393MOL0     H51862   3.138   0.312   8.496 -0.8864 -1.8412  0.5533
  393MOL0     H51863   3.237   0.111   8.602 -0.8747  1.2234 -0.3985
  393MOL0     H51864   3.271  -0.152   8.873 -1.3307 -4.8793  0.9712
  393MOL0     H51865   3.313  -0.374   8.965 -2.4687  1.7950 -1.0327
  393MOL0     H51866   3.539  -0.445   9.330  1.1457 -1.3720  2.4476
  393MOL0     H51867   3.675  -0.423   9.213 -1.0898  0.3374  0.3367
  393MOL0     H51868   3.659  -0.661   9.157 -3.0687 -2.2744  0.1721
  393MOL0     H51869   3.704  -0.637   9.324 -0.4461 -1.2268  0.1381
  393MOL0     H51870   3.420  -0.701   9.215  0.5953 -0.0232 -1.8324
  393MOL0     H51871   3.460  -0.688   9.380 -3.1433 -0.9907 -2.0449
  393MOL0     H51872   3.598  -0.897   9.192 -1.3420 -0.3383 -0.5853
  393MOL0     H51873   3.646  -0.865   9.350  1.3093  0.1313 -0.9443
  393MOL0     H51874   3.283  -1.111   9.365  0.5508 -1.4093 -1.0874
  393MOL0     H51875   3.650  -0.206   9.187  1.5882  3.0062 -1.6942
  393MOL0     H51876   3.602   0.005   9.112  0.9275 -1.3373  2.7789
  394MOL0     O51877   2.197   7.066   2.538 -0.9246  0.2399  0.1690
  394MOL0     C51878   2.166   7.069   2.658 -0.2925  0.3941  0.2816
  394MOL0     O51879   2.049   7.112   2.715  0.1305  0.2983 -0.4812
  394MOL0     C51880   1.945   7.155   2.634 -0.9566  0.2526 -0.9329
  394MOL0     C51881   1.807   7.140   2.667 -0.1332  0.1542  0.4490
  394MOL0     C51882   1.699   7.203   2.593 -0.3162 -0.2435 -0.2912
  394MOL0     C51883   1.730   7.272   2.480 -0.2238  0.1438  0.3954
  394MOL0     O51884   1.624   7.299   2.404  0.2117  0.1332 -0.9498
  394MOL0     C51885   1.640   7.393   2.303  0.1202  0.2719 -0.6868
  394MOL0     C51886   1.506   7.441   2.245  0.4053  0.2909  0.0946
  394MOL0     C51887   1.433   7.341   2.160  0.9105  1.0067 -0.1439
  394MOL0     C51888   1.307   7.393   2.099  1.0248  0.0168  0.2379
  394MOL0     C51889   1.169   7.341   2.154  0.4601  0.6930  0.5774
  394MOL0     C51890   1.137   7.193   2.121 -1.7246  1.2315 -0.7687
  394MOL0     C51891   1.009   7.156   2.201 -0.1257 -0.4456 -0.7709
  394MOL0     C51892   1.039   7.092   2.335  0.5733 -0.0312 -0.3239
  394MOL0     N51893   0.933   7.117   2.435 -0.4030 -0.5438 -0.9838
  394MOL0     C51894   0.922   7.234   2.511 -0.3737 -0.1939  1.1670
  394MOL0     C51895   0.809   7.218   2.579  0.8546  1.6091 -0.6696
  394MOL0     C51896   0.751   7.313   2.678 -0.8828 -0.6432 -0.5268
  394MOL0     C51897   0.695   7.433   2.597 -0.1713 -0.0910  0.2569
  394MOL0     C51898   0.555   7.471   2.637  1.0996 -1.4176  0.7489
  394MOL0     C51899   0.446   7.355   2.609 -1.6531  0.2722 -0.4054
  394MOL0     O51900   0.321   7.395   2.672 -0.1542  0.0764 -0.2879
  394MOL0     C51901   0.207   7.317   2.660 -0.8498 -0.8791  0.4748
  394MOL0     C51902   0.102   7.361   2.726  0.6222  0.1248  0.8349
  394MOL0     C51903  -0.022   7.297   2.734 -0.4636 -0.1717 -0.2868
  394MOL0     C51904  -0.041   7.173   2.674 -1.3642  0.7113  0.6266
  394MOL0     C51905  -0.169   7.108   2.671  0.1828 -0.1391  0.8027
  394MOL0     O51906  -0.267   7.168   2.748  0.2395 -0.4856  0.0514
  394MOL0     C51907  -0.397   7.118   2.749 -0.3004 -0.0374  0.0471
  394MOL0     C51908  -0.437   7.030   2.852  0.3830  1.3955 -1.0300
  394MOL0     C51909  -0.569   6.973   2.853  0.7247 -0.6385  0.0964
  394MOL0     C51910  -0.665   7.016   2.750 -0.3444  0.0275 -0.1644
  394MOL0     O51911  -0.793   6.960   2.759  1.1352 -0.3287 -0.1039
  394MOL0     C51912  -0.902   7.063   2.738  0.7927  0.2050  1.2014
  394MOL0     C51913  -1.038   7.004   2.784  0.6202 -0.6991  0.6301
  394MOL0     C51914  -1.151   7.114   2.787 -0.6830 -0.4756 -0.4301
  394MOL0     C51915  -1.218   7.120   2.651  0.5758 -0.7512 -0.1800
  394MOL0     C51916  -1.332   7.224   2.640  0.0293  0.5354 -0.1760
  394MOL0     C51917  -1.452   7.203   2.739 -0.0446 -0.4194 -0.6289
  394MOL0     C51918  -1.562   7.298   2.702  0.7116  0.2127 -1.0966
  394MOL0     C51919  -1.673   7.291   2.804  0.2787 -0.5380  0.2268
  394MOL0    Cl51920  -1.820   7.257   2.729  0.0765 -0.4828  0.0632
  394MOL0     C51921  -0.618   7.105   2.657 -0.9475  0.1234  0.1604
  394MOL0     C51922  -0.490   7.152   2.659  0.3359  0.7463  0.4348
  394MOL0     O51923  -0.180   7.003   2.608 -0.2929  0.0645 -0.2998
  394MOL0     C51924   0.078   7.115   2.618 -0.1662  0.3367 -0.0851
  394MOL0     C51925   0.203   7.185   2.607 -0.2128  0.3873  0.2559
  394MOL0     N51926   0.742   7.102   2.541 -0.7706  1.0185  0.2884
  394MOL0     N51927   0.822   7.037   2.453  0.1576 -1.1271  0.1699
  394MOL0     C51928   1.869   7.293   2.451  0.6590  0.3912  0.1050
  394MOL0     C51929   1.972   7.240   2.528 -1.0149 -0.2940  0.4588
  394MOL0     C51930   2.247   6.993   2.750 -0.4696 -0.4901 -0.6013
  394MOL0     C51931   2.364   6.937   2.707  0.0701 -0.5077  0.3543
  394MOL0     C51932   2.464   6.887   2.794  0.4461  0.0265 -0.2974
  394MOL0     C51933   2.444   6.887   2.933 -0.2678 -0.0633  0.7627
  394MOL0     O51934   2.528   6.831   3.025  0.1253  0.3659  0.2947
  394MOL0     C51935   2.599   6.930   3.103  0.0486  0.2259 -0.7128
  394MOL0     C51936   2.677   7.048   3.041 -0.2455 -0.7258 -0.1412
  394MOL0     C51937   2.793   6.998   2.954 -0.0614 -1.2346 -0.1349
  394MOL0     C51938   2.855   7.117   2.885 -0.4644 -0.2168 -0.1563
  394MOL0     C51939   2.982   7.088   2.822 -0.0252  0.7575 -0.1383
  394MOL0     C51940   3.080   7.069   2.757  0.2501  0.7282  0.0820
  394MOL0     C51941   2.318   6.943   2.975  0.2546  0.3724 -0.1314
  394MOL0     C51942   2.226   7.002   2.885  0.7194 -0.0593  0.2756
  394MOL0     H51943   1.777   7.098   2.763  1.3140 -0.1241  0.8073
  394MOL0     H51944   1.599   7.188   2.631 -0.0605  0.2519  0.6267
  394MOL0     H51945   1.691   7.351   2.216  3.4909 -0.1906  1.3543
  394MOL0     H51946   1.690   7.484   2.338 -1.0943  1.8448 -2.7498
  394MOL0     H51947   1.545   7.527   2.190  0.5193  1.4784  1.9585
  394MOL0     H51948   1.436   7.478   2.321  0.0958 -2.3045  1.1916
  394MOL0     H51949   1.398   7.256   2.219  0.8720 -0.6112 -2.3359
  394MOL0     H51950   1.498   7.303   2.080 -0.0913 -1.6609  0.2224
  394MOL0     H51951   1.308   7.502   2.099 -2.9082  0.2328 -1.9738
  394MOL0     H51952   1.305   7.360   1.994  1.4992 -0.0387  0.2432
  394MOL0     H51953   1.096   7.403   2.101  1.2867 -0.8316 -2.6319
  394MOL0     H51954   1.163   7.360   2.262  2.1228  1.6650  0.5270
  394MOL0     H51955   1.222   7.135   2.157 -2.2453  0.2705 -1.0707
  394MOL0     H51956   1.114   7.168   2.017 -3.1296  1.7791 -0.6197
  394MOL0     H51957   0.942   7.240   2.221  1.7799  1.3540 -1.5102
  394MOL0     H51958   0.958   7.081   2.139 -3.6195  0.4559  0.8189
  394MOL0     H51959   1.137   7.116   2.378  1.2827  0.4947 -2.1524
  394MOL0     H51960   1.044   6.985   2.315  2.4312  0.3501 -2.2232
  394MOL0     H51961   0.985   7.322   2.513 -0.5025 -0.0783  0.2334
  394MOL0     H51962   0.835   7.351   2.736  0.3888  1.0709 -3.2597
  394MOL0     H51963   0.676   7.260   2.737  0.7440 -0.2471  2.0325
  394MOL0     H51964   0.703   7.415   2.490  3.0652 -5.2263  1.0093
  394MOL0     H51965   0.757   7.519   2.624 -1.1338  0.6253  0.2171
  394MOL0     H51966   0.540   7.502   2.740  0.3690  0.5445  0.1012
  394MOL0     H51967   0.539   7.557   2.571  0.6354 -1.1420  1.2161
  394MOL0     H51968   0.480   7.260   2.652 -0.8532  0.1547 -1.2791
  394MOL0     H51969   0.437   7.344   2.501  0.3439  0.3565 -0.6104
  394MOL0     H51970   0.093   7.464   2.761  1.0327  0.2032  0.7071
  394MOL0     H51971  -0.106   7.341   2.787  0.7973 -0.5435  2.1530
  394MOL0     H51972  -0.374   7.013   2.939  0.0501 -0.9669 -1.1801
  394MOL0     H51973  -0.594   6.891   2.919 -2.5702  1.1401  1.2516
  394MOL0     H51974  -0.902   7.093   2.632  2.1770 -4.2900 -0.3026
  394MOL0     H51975  -0.886   7.158   2.789 -1.8629  1.5659 -0.2574
  394MOL0     H51976  -1.013   6.965   2.883 -0.9379 -1.5593  0.7234
  394MOL0     H51977  -1.070   6.927   2.714 -0.5384  1.6329 -1.5776
  394MOL0     H51978  -1.099   7.206   2.814 -0.2214 -0.7722 -0.2908
  394MOL0     H51979  -1.224   7.087   2.863  2.1174  1.4746  3.2833
  394MOL0     H51980  -1.139   7.135   2.577  0.4588 -0.1643 -0.1952
  394MOL0     H51981  -1.260   7.020   2.634 -0.4529 -0.3258 -0.2369
  394MOL0     H51982  -1.373   7.208   2.540  0.2370 -0.7717 -0.0679
  394MOL0     H51983  -1.289   7.325   2.638  1.6885 -0.1514 -0.5288
  394MOL0     H51984  -1.426   7.227   2.842 -1.3273  1.7120 -0.7519
  394MOL0     H51985  -1.490   7.100   2.738  2.4902 -1.4509 -0.2187
  394MOL0     H51986  -1.525   7.401   2.698  0.1166  0.7487  2.8396
  394MOL0     H51987  -1.607   7.287   2.603 -5.3581  0.2769  1.2381
  394MOL0     H51988  -1.671   7.379   2.868 -2.1115 -0.7369  0.6791
  394MOL0     H51989  -1.658   7.202   2.867  0.9771  0.3012  1.2773
  394MOL0     H51990  -0.685   7.145   2.582 -0.8976  1.6349  0.8800
  394MOL0     H51991  -0.466   7.224   2.581  3.9109  2.6443  2.9914
  394MOL0     H51992   0.074   7.012   2.583 -0.0702 -0.5799  2.4120
  394MOL0     H51993   0.285   7.136   2.555 -1.3926  1.2376 -2.6423
  394MOL0     H51994   1.887   7.344   2.356 -0.2593 -2.0677 -1.4817
  394MOL0     H51995   2.067   7.285   2.503 -0.9622 -1.0740 -0.8326
  394MOL0     H51996   2.392   6.937   2.602 -0.6676  3.9569 -0.0467
  394MOL0     H51997   2.547   6.843   2.740 -0.1753  0.4025 -1.6167
  394MOL0     H51998   2.674   6.871   3.156  0.0984 -0.8974 -1.9875
  394MOL0     H51999   2.525   6.965   3.175  0.3830 -2.0484  0.8146
  394MOL0     H52000   2.612   7.119   2.988  1.4026  0.8437 -0.1729
  394MOL0     H52001   2.715   7.106   3.126 -1.2288  3.5033 -2.3319
  394MOL0     H52002   2.760   6.937   2.870 -1.3805  0.9299 -1.2894
  394MOL0     H52003   2.869   6.940   3.008 -0.1871  0.1466  1.6184
  394MOL0     H52004   2.789   7.160   2.809 -0.1899 -0.3873 -0.4912
  394MOL0     H52005   2.869   7.189   2.966 -0.6087 -1.3890  0.9515
  394MOL0     H52006   3.167   7.037   2.703  1.1089  0.8312  1.3487
  394MOL0     H52007   2.293   6.955   3.080  2.2329 -1.8182  0.6779
  394MOL0     H52008   2.145   7.051   2.938  0.2854 -0.7712  0.2816
  395MOL0     O52009   4.165   5.053   3.578  0.0173 -0.2384 -0.2822
  395MOL0     C52010   4.273   5.023   3.631 -0.0255  0.0986  0.5935
  395MOL0     O52011   4.308   5.037   3.762 -0.0683 -0.2987  0.2589
  395MOL0     C52012   4.206   5.040   3.853  0.3613 -0.3363 -0.7211
  395MOL0     C52013   4.119   5.151   3.859 -0.4522  0.4794  0.3973
  395MOL0     C52014   3.996   5.155   3.921 -0.9557 -0.1248  0.6990
  395MOL0     C52015   3.961   5.044   3.990  0.2287  0.0633 -1.1261
  395MOL0     O52016   3.869   5.051   4.084  0.3654  0.0483 -0.0005
  395MOL0     C52017   3.736   5.085   4.049  0.2553 -0.4039  1.1619
  395MOL0     C52018   3.654   5.062   4.175  0.1316  0.8434  1.3682
  395MOL0     C52019   3.506   5.056   4.157  0.2250 -0.6472  0.2169
  395MOL0     C52020   3.430   5.089   4.291  0.4523  0.2014 -0.3397
  395MOL0     C52021   3.297   5.021   4.299  0.4435  0.4892  0.1002
  395MOL0     C52022   3.233   5.040   4.438  0.0877 -0.2701 -0.0933
  395MOL0     C52023   3.087   4.984   4.438 -0.6649  0.5085 -0.6761
  395MOL0     C52024   3.005   5.081   4.341 -0.5734  0.4883 -0.3732
  395MOL0     N52025   2.859   5.053   4.348 -0.2028 -1.1788 -0.4527
  395MOL0     C52026   2.771   5.151   4.297  0.2011  0.6481  0.1609
  395MOL0     C52027   2.642   5.101   4.311  0.4781 -0.3002 -0.7878
  395MOL0     C52028   2.519   5.163   4.260  0.6024  0.2047  0.4597
  395MOL0     C52029   2.395   5.101   4.316 -0.3779 -0.5007  0.1463
  395MOL0     C52030   2.359   4.967   4.261 -0.6799  1.0680  0.2477
  395MOL0     C52031   2.292   4.970   4.120 -0.0454  0.5209 -0.2840
  395MOL0     O52032   2.258   4.839   4.073  0.3938  0.2808  0.0006
  395MOL0     C52033   2.228   4.824   3.944  0.3184  0.7656 -0.0672
  395MOL0     C52034   2.284   4.889   3.837 -0.5844  0.4265 -0.2932
  395MOL0     C52035   2.234   4.855   3.705 -0.4191  0.1857  0.2606
  395MOL0     C52036   2.132   4.761   3.687 -0.6790 -0.6988 -0.0325
  395MOL0     C52037   2.079   4.744   3.552  0.7490 -0.2513  0.3776
  395MOL0     O52038   2.009   4.629   3.533  0.7228 -0.7199  0.0770
  395MOL0     C52039   1.965   4.604   3.403  0.1095 -0.6158 -0.1306
  395MOL0     C52040   1.862   4.674   3.347  0.3729  0.3348  0.2401
  395MOL0     C52041   1.809   4.639   3.221 -0.0407  0.6462  0.5050
  395MOL0     C52042   1.874   4.539   3.139  0.1235  0.0199  0.2893
  395MOL0     O52043   1.850   4.510   3.009  0.8744 -0.0281 -0.3142
  395MOL0     C52044   1.706   4.516   2.967 -1.2624 -0.0813  0.2315
  395MOL0     C52045   1.616   4.422   3.044 -0.0298 -0.0199 -0.3062
  395MOL0     C52046   1.473   4.421   2.992  0.2415 -0.0623 -1.3235
  395MOL0     C52047   1.460   4.344   2.864  0.2684  0.0628  0.9045
  395MOL0     C52048   1.309   4.343   2.807 -0.0907 -1.0299 -0.6416
  395MOL0     C52049   1.279   4.261   2.680  0.1889  0.0676  0.6275
  395MOL0     C52050   1.147   4.198   2.683 -0.5293  0.4024 -0.3451
  395MOL0     C52051   1.148   4.054   2.645 -0.4225  0.6815  0.8502
  395MOL0    Cl52052   1.245   3.977   2.769  0.1747  0.6382 -0.0623
  395MOL0     C52053   1.968   4.464   3.197  0.2683 -0.4158 -0.3141
  395MOL0     C52054   2.012   4.492   3.327 -0.8291 -0.4649 -0.6774
  395MOL0     O52055   2.091   4.832   3.469 -0.0939 -0.0296  0.2010
  395MOL0     C52056   2.094   4.676   3.788 -0.7654 -0.4019 -0.0683
  395MOL0     C52057   2.144   4.709   3.919  0.2644 -1.7016  0.1955
  395MOL0     N52058   2.663   4.973   4.370  0.2505 -0.7356  0.5062
  395MOL0     N52059   2.790   4.943   4.392  0.2305 -0.1418  0.0062
  395MOL0     C52060   4.045   4.929   3.991 -0.3877 -0.6905 -0.0373
  395MOL0     C52061   4.162   4.927   3.909 -0.5931  0.3443 -0.8049
  395MOL0     C52062   4.372   4.978   3.534 -0.0287 -0.2100 -0.1128
  395MOL0     C52063   4.350   4.973   3.395  0.4316  0.4956  0.7912
  395MOL0     C52064   4.454   4.927   3.307 -0.6545 -0.3984  0.1788
  395MOL0     C52065   4.582   4.894   3.357 -0.7976 -0.0307  0.6583
  395MOL0     O52066   4.693   4.858   3.285 -0.4468  0.6992 -0.0198
  395MOL0     C52067   4.740   4.964   3.204 -0.7351  0.2518 -0.3361
  395MOL0     C52068   4.879   4.917   3.143  0.4236 -0.3772 -0.2582
  395MOL0     C52069   4.934   5.032   3.061  0.3122  0.4755 -0.0942
  395MOL0     C52070   5.058   4.979   2.987 -0.2529 -0.1398  0.5738
  395MOL0     C52071   5.026   4.904   2.867  0.8028  0.5712  0.4651
  395MOL0     C52072   4.979   4.857   2.768 -0.1942 -0.3792  0.6893
  395MOL0     C52073   4.604   4.911   3.496 -0.6261  0.3610  0.1796
  395MOL0     C52074   4.498   4.940   3.579  0.3077  0.9928 -0.6591
  395MOL0     H52075   4.168   5.234   3.809 -0.0751  0.9290  1.4740
  395MOL0     H52076   3.935   5.244   3.913 -2.1134 -0.5977  3.2452
  395MOL0     H52077   3.689   5.027   3.969 -2.8500  1.6415  1.3427
  395MOL0     H52078   3.743   5.189   4.015  0.9834 -0.8045  0.0489
  395MOL0     H52079   3.677   5.146   4.242 -4.9094  2.5191  1.4264
  395MOL0     H52080   3.692   4.969   4.217 -0.1909 -2.7053 -4.9695
  395MOL0     H52081   3.479   4.956   4.123  1.6003 -0.7890 -0.5154
  395MOL0     H52082   3.473   5.118   4.074  0.6749 -1.9675 -0.9802
  395MOL0     H52083   3.488   5.064   4.380 -1.4133  0.4485  0.9999
  395MOL0     H52084   3.420   5.198   4.290  1.0499  0.2775  0.7673
  395MOL0     H52085   3.320   4.916   4.277  1.4525  0.9526 -1.1235
  395MOL0     H52086   3.242   5.062   4.214  0.3249  1.6125  0.6988
  395MOL0     H52087   3.225   5.147   4.457 -2.3013 -0.4068 -0.1013
  395MOL0     H52088   3.296   5.006   4.522  0.1370  2.0918  0.8857
  395MOL0     H52089   3.089   4.883   4.396  4.0516  0.2989 -0.5081
  395MOL0     H52090   3.040   4.976   4.536  0.9116 -0.3914  0.0462
  395MOL0     H52091   3.050   5.055   4.245 -0.5329  2.7044 -0.9946
  395MOL0     H52092   3.019   5.184   4.374  0.9957  0.1444  0.1135
  395MOL0     H52093   2.797   5.249   4.260  0.7432  0.5121  0.1682
  395MOL0     H52094   2.532   5.144   4.153  0.2671  1.2092  0.2338
  395MOL0     H52095   2.518   5.271   4.277 -3.4838  0.3747  0.0227
  395MOL0     H52096   2.309   5.163   4.290 -0.6750 -0.7564  0.5066
  395MOL0     H52097   2.410   5.089   4.423  2.9499 -1.0817 -0.2734
  395MOL0     H52098   2.450   4.906   4.264  0.1587  2.1375 -1.5982
  395MOL0     H52099   2.296   4.925   4.340  0.7353 -1.3773  0.2081
  395MOL0     H52100   2.369   5.012   4.054  0.5894 -0.0027  0.1118
  395MOL0     H52101   2.205   5.036   4.128 -0.6034 -0.3347  1.1137
  395MOL0     H52102   2.348   4.976   3.853 -0.1742  0.1996 -0.6930
  395MOL0     H52103   2.262   4.915   3.619  2.6358  1.3945  1.9502
  395MOL0     H52104   1.807   4.750   3.402 -1.8696  0.3515 -1.8787
  395MOL0     H52105   1.729   4.692   3.172  0.8345 -0.2746 -2.1311
  395MOL0     H52106   1.702   4.484   2.862  2.4140  0.1056 -0.0830
  395MOL0     H52107   1.677   4.622   2.964  0.3837  0.4020  0.3672
  395MOL0     H52108   1.619   4.435   3.152  1.2672 -0.4245 -0.2764
  395MOL0     H52109   1.656   4.323   3.022  2.0366  0.5055  0.8328
  395MOL0     H52110   1.446   4.527   2.996  1.0038  0.1227 -0.9567
  395MOL0     H52111   1.401   4.370   3.057  1.2206 -0.2203 -0.3437
  395MOL0     H52112   1.527   4.365   2.781  0.0496 -0.0826  0.6853
  395MOL0     H52113   1.487   4.238   2.874  4.2581  0.7923 -0.5175
  395MOL0     H52114   1.278   4.448   2.796  0.2544 -0.4716  2.5289
  395MOL0     H52115   1.258   4.299   2.893  0.5136 -2.2079 -0.8688
  395MOL0     H52116   1.362   4.190   2.675  0.3289  0.3039 -0.8726
  395MOL0     H52117   1.293   4.317   2.587  3.5749  1.2478  1.7043
  395MOL0     H52118   1.104   4.214   2.782  1.9042  3.5731  0.3647
  395MOL0     H52119   1.079   4.252   2.616 -0.1060  2.8134  1.0717
  395MOL0     H52120   1.195   4.043   2.547  1.0535 -1.0790  1.7187
  395MOL0     H52121   1.051   4.005   2.655  0.2983 -0.7345  1.0903
  395MOL0     H52122   2.003   4.378   3.140 -1.5621 -2.0643  0.9066
  395MOL0     H52123   2.099   4.441   3.369 -1.4062  0.9819  2.6002
  395MOL0     H52124   2.016   4.602   3.782 -3.7703  2.5609 -0.5783
  395MOL0     H52125   2.105   4.654   4.003 -0.6979 -1.5068 -0.1120
  395MOL0     H52126   4.025   4.844   4.056  0.3174 -0.2382  0.8041
  395MOL0     H52127   4.230   4.843   3.904  0.2741  0.9647  0.1391
  395MOL0     H52128   4.254   4.995   3.349  0.5350  0.2826  0.4732
  395MOL0     H52129   4.445   4.936   3.200 -0.9680  2.0212  0.3598
  395MOL0     H52130   4.745   5.063   3.250 -2.0418 -0.2358  0.9443
  395MOL0     H52131   4.676   4.975   3.116 -0.4732 -0.7962 -0.6730
  395MOL0     H52132   4.939   4.883   3.228 -2.0264  1.0177  2.2212
  395MOL0     H52133   4.848   4.846   3.066 -1.3299  1.6233 -1.5070
  395MOL0     H52134   4.953   5.124   3.117  0.3483 -0.0642  0.7907
  395MOL0     H52135   4.854   5.053   2.989  1.1832  0.5966 -1.0520
  395MOL0     H52136   5.105   5.071   2.950 -2.3017  0.5579 -0.4871
  395MOL0     H52137   5.120   4.921   3.055 -2.2258  1.1912  3.7696
  395MOL0     H52138   4.935   4.797   2.691  1.0469 -0.4051 -0.0441
  395MOL0     H52139   4.704   4.885   3.527  1.2728  1.6438 -4.1161
  395MOL0     H52140   4.514   4.947   3.687  1.7099  3.0745 -0.9373
  396MOL0     O52141   2.952   4.722  10.432 -0.3335  0.1641  1.3923
  396MOL0     C52142   2.937   4.811  10.519  0.1218 -0.5218 -0.3632
  396MOL0     O52143   2.830   4.881  10.557  0.4404  0.2078  0.4865
  396MOL0     C52144   2.719   4.828  10.497 -0.2159 -0.2030  0.7337
  396MOL0     C52145   2.658   4.878  10.379 -0.0962  0.5538  0.2904
  396MOL0     C52146   2.540   4.823  10.323  0.3985 -0.0465  0.1730
  396MOL0     C52147   2.467   4.715  10.387 -1.2867 -0.8560 -0.9131
  396MOL0     O52148   2.365   4.649  10.337  0.1604  0.0839 -0.1310
  396MOL0     C52149   2.282   4.719  10.245 -0.3120  0.1064 -0.4075
  396MOL0     C52150   2.156   4.633  10.245 -0.0575 -1.3269 -0.1500
  396MOL0     C52151   2.120   4.593  10.104 -0.9390  0.9308 -0.2799
  396MOL0     C52152   2.064   4.711  10.021 -0.1056  0.3160  0.4984
  396MOL0     C52153   2.030   4.679   9.876 -0.9676  0.0153  0.0505
  396MOL0     C52154   1.977   4.805   9.809 -0.5635  0.0133 -0.3872
  396MOL0     C52155   1.997   4.793   9.656 -0.0024  0.1205  0.4311
  396MOL0     C52156   1.914   4.678   9.593 -0.0874 -0.0071  0.4892
  396MOL0     N52157   1.768   4.706   9.615 -0.6173 -0.5933 -0.7170
  396MOL0     C52158   1.687   4.817   9.592  0.8722  1.2454 -0.4948
  396MOL0     C52159   1.565   4.781   9.640  0.1739  0.4542 -0.3349
  396MOL0     C52160   1.435   4.851   9.616  0.1114 -0.0638  0.3315
  396MOL0     C52161   1.449   4.992   9.685 -0.3481  0.0598 -0.8070
  396MOL0     C52162   1.323   5.070   9.672 -0.8133 -0.1404  0.2196
  396MOL0     C52163   1.337   5.206   9.744 -0.3504 -0.4316 -0.2097
  396MOL0     O52164   1.368   5.201   9.886  0.7116  0.1881  0.6212
  396MOL0     C52165   1.266   5.158   9.971  0.5228 -0.7689 -0.4361
  396MOL0     C52166   1.129   5.149   9.942  0.6338  0.0458 -0.6557
  396MOL0     C52167   1.035   5.128  10.044 -0.0896 -0.2932 -0.7229
  396MOL0     C52168   1.069   5.101  10.176 -0.0423 -0.0321 -0.1858
  396MOL0     C52169   0.970   5.055  10.280 -0.1986 -0.4664 -0.5331
  396MOL0     O52170   1.008   5.073  10.412  0.6016  0.1792  0.1358
  396MOL0     C52171   0.923   5.022  10.504 -0.5897  0.4571 -0.0661
  396MOL0     C52172   0.935   4.891  10.563 -0.9043 -0.1704  0.4697
  396MOL0     C52173   0.851   4.854  10.664 -0.4653 -0.9295 -0.1804
  396MOL0     C52174   0.756   4.941  10.720 -0.7092 -0.5899  0.8032
  396MOL0     O52175   0.678   4.918  10.832  0.5613  0.3111 -0.6199
  396MOL0     C52176   0.702   4.795  10.889 -0.1886  0.1478 -0.4399
  396MOL0     C52177   0.633   4.786  11.019 -0.0829 -0.2466 -0.2814
  396MOL0     C52178   0.479   4.799  11.018  0.5613 -0.7016 -0.1168
  396MOL0     C52179   0.399   4.675  10.968 -0.1544 -0.0333 -0.1039
  396MOL0     C52180   0.244   4.698  10.976  0.7603  0.7658  0.7180
  396MOL0     C52181   0.182   4.814  11.040  0.2824  1.1500  0.7952
  396MOL0     C52182   0.032   4.804  11.064 -0.1738 -0.7831 -0.0000
  396MOL0     C52183  -0.041   4.698  11.153 -0.1781  0.5726  0.3019
  396MOL0    Cl52184   0.030   4.698  11.314 -0.1815 -0.2344 -0.4510
  396MOL0     C52185   0.751   5.067  10.671 -0.4839 -0.5639  0.7248
  396MOL0     C52186   0.823   5.107  10.562 -0.4227 -1.1538  0.6630
  396MOL0     O52187   0.859   5.019  10.235  0.0911  0.3147 -0.3218
  396MOL0     C52188   1.206   5.109  10.208 -1.0121 -0.1974 -0.0850
  396MOL0     C52189   1.303   5.135  10.105  0.1892  0.4105 -0.7128
  396MOL0     N52190   1.572   4.660   9.706  0.3504 -1.1752 -0.6850
  396MOL0     N52191   1.692   4.620   9.698 -0.9448 -0.8282 -0.2095
  396MOL0     C52192   2.523   4.669  10.504 -0.5304  0.1972  0.0282
  396MOL0     C52193   2.647   4.724  10.558  0.8869  0.4447 -0.5577
  396MOL0     C52194   3.064   4.862  10.585  0.3891 -0.3495  0.4125
  396MOL0     C52195   3.065   4.926  10.710 -0.1047 -0.8756  0.6505
  396MOL0     C52196   3.184   4.949  10.776  0.1028  0.2845 -0.3839
  396MOL0     C52197   3.307   4.918  10.729 -0.4722 -0.3859  0.5161
  396MOL0     O52198   3.418   4.944  10.805  0.1044  1.2254 -0.3661
  396MOL0     C52199   3.552   4.945  10.750 -0.5129  0.1490 -0.2648
  396MOL0     C52200   3.627   5.063  10.812  0.7065  0.6280 -0.0910
  396MOL0     C52201   3.786   5.055  10.817  0.2588  0.3415  1.0788
  396MOL0     C52202   3.849   5.137  10.917 -0.3741  0.1850 -1.2588
  396MOL0     C52203   3.993   5.110  10.933  0.9769  0.6284 -0.4656
  396MOL0     C52204   4.103   5.083  10.958  0.5399 -0.5091 -1.1577
  396MOL0     C52205   3.309   4.864  10.602 -0.2547  0.0629  0.2398
  396MOL0     C52206   3.191   4.836  10.528  0.5278 -0.4896  0.2108
  396MOL0     H52207   2.709   4.947  10.313  0.1809  0.5210  0.4715
  396MOL0     H52208   2.502   4.861  10.228 -1.5610  1.3535  1.4364
  396MOL0     H52209   2.323   4.727  10.144  0.9092  0.3920  0.0986
  396MOL0     H52210   2.253   4.823  10.266 -1.3330 -0.3687  0.6843
  396MOL0     H52211   2.072   4.697  10.274  1.6702  1.1690 -0.3191
  396MOL0     H52212   2.170   4.545  10.308  2.3124  0.6213  2.2426
  396MOL0     H52213   2.059   4.502  10.101  1.6108 -0.8920 -2.3322
  396MOL0     H52214   2.210   4.545  10.064 -1.3095  0.7264 -0.8803
  396MOL0     H52215   1.970   4.734  10.072  0.1133  0.1789  0.9689
  396MOL0     H52216   2.131   4.797  10.027  1.0788 -0.2104 -2.8444
  396MOL0     H52217   1.953   4.602   9.871  0.7057 -1.9272  2.1251
  396MOL0     H52218   2.112   4.636   9.818 -0.7380  0.6596 -0.1133
  396MOL0     H52219   2.027   4.896   9.842 -2.9086  1.0105  0.7104
  396MOL0     H52220   1.869   4.817   9.825 -0.9134 -1.4206 -1.4341
  396MOL0     H52221   1.952   4.887   9.624 -2.4241 -1.0491  0.1134
  396MOL0     H52222   2.102   4.784   9.628  0.0321  1.8406 -0.1321
  396MOL0     H52223   1.937   4.576   9.624 -2.2713 -1.1558 -1.3412
  396MOL0     H52224   1.929   4.677   9.485 -0.6975 -0.8360  0.4014
  396MOL0     H52225   1.706   4.899   9.524 -1.6589  0.8098 -1.8393
  396MOL0     H52226   1.345   4.802   9.652 -0.7516  0.9113 -0.4355
  396MOL0     H52227   1.417   4.875   9.511 -0.3790  0.3749  0.5098
  396MOL0     H52228   1.530   5.053   9.646  1.9151 -2.6371 -0.6985
  396MOL0     H52229   1.456   4.971   9.793 -1.5084  2.1336 -0.2773
  396MOL0     H52230   1.303   5.100   9.569 -2.0981  0.6427  0.6826
  396MOL0     H52231   1.233   5.019   9.707 -0.3450 -0.0766  1.5841
  396MOL0     H52232   1.255   5.275   9.723  0.3223  0.0420 -1.3604
  396MOL0     H52233   1.419   5.265   9.702  0.1646 -0.5644  0.5885
  396MOL0     H52234   1.094   5.164   9.841  0.2778  0.2986 -0.4964
  396MOL0     H52235   0.932   5.107  10.016 -0.2117  0.2710 -0.7158
  396MOL0     H52236   0.997   4.810  10.525 -1.8632 -0.3120 -0.8615
  396MOL0     H52237   0.871   4.751  10.692  1.4480 -0.3794  0.6526
  396MOL0     H52238   0.811   4.790  10.900 -0.1796  0.7351 -0.2250
  396MOL0     H52239   0.670   4.705  10.837  0.6816 -0.2917 -0.2281
  396MOL0     H52240   0.669   4.863  11.088 -1.3205  0.2990 -0.2119
  396MOL0     H52241   0.646   4.685  11.060 -0.2246 -0.3669 -0.5292
  396MOL0     H52242   0.453   4.892  10.967  1.5357 -1.6943 -2.5714
  396MOL0     H52243   0.457   4.804  11.125 -0.7921  2.8800 -0.4214
  396MOL0     H52244   0.411   4.661  10.861  0.2853 -1.0058  0.0625
  396MOL0     H52245   0.437   4.591  11.027 -2.8631  0.9834  3.5074
  396MOL0     H52246   0.203   4.610  11.027  1.9444  0.1265  0.5794
  396MOL0     H52247   0.200   4.721  10.879 -2.8313  1.8335  2.4278
  396MOL0     H52248   0.205   4.904  10.983  0.8225  1.0292  0.8142
  396MOL0     H52249   0.230   4.831  11.137  3.0221 -1.0984 -0.0287
  396MOL0     H52250   0.013   4.900  11.112 -2.9093 -0.6096 -1.2073
  396MOL0     H52251  -0.012   4.821  10.965  3.5418  2.1809 -1.4066
  396MOL0     H52252  -0.029   4.598  11.112 -1.6659 -0.2883  1.8612
  396MOL0     H52253  -0.148   4.711  11.173 -0.3033 -2.4147  2.2023
  396MOL0     H52254   0.685   5.136  10.723 -1.6845 -0.9994 -0.1934
  396MOL0     H52255   0.808   5.205  10.517 -1.3565 -1.7673 -0.4144
  396MOL0     H52256   1.248   5.085  10.305  0.3929  0.4478 -0.5003
  396MOL0     H52257   1.407   5.127  10.135  0.0635  3.7075  1.1274
  396MOL0     H52258   2.475   4.589  10.560  0.5184 -0.5500 -0.1108
  396MOL0     H52259   2.681   4.680  10.652  0.5050 -1.6228 -1.3307
  396MOL0     H52260   2.969   4.959  10.748 -0.6679  0.5004 -1.7977
  396MOL0     H52261   3.168   4.998  10.871 -0.1281 -0.0216 -0.2664
  396MOL0     H52262   3.544   4.956  10.641 -0.8800 -1.8694 -0.4927
  396MOL0     H52263   3.614   4.855  10.760  0.5979  0.6117 -2.3434
  396MOL0     H52264   3.602   5.154  10.755 -0.4428 -0.8306 -2.0382
  396MOL0     H52265   3.595   5.083  10.915 -0.4182 -0.5163 -0.2011
  396MOL0     H52266   3.833   5.068  10.719 -2.4988 -1.6441 -0.6758
  396MOL0     H52267   3.807   4.949  10.835  2.8930  0.6559  0.1933
  396MOL0     H52268   3.825   5.239  10.887  1.7236  0.9008 -0.6572
  396MOL0     H52269   3.801   5.127  11.015 -0.6688  2.3573 -1.1493
  396MOL0     H52270   4.206   5.055  10.971 -0.1547 -3.0223 -0.4662
  396MOL0     H52271   3.402   4.846  10.549 -0.6865  1.2324 -0.9785
  396MOL0     H52272   3.185   4.777  10.437 -2.2432  3.7567 -2.7430
  397MOL0     O52273   9.730   8.696   2.732  0.2100 -0.1816 -0.0157
  397MOL0     C52274   9.738   8.681   2.612 -1.1441 -0.9143  0.3118
  397MOL0     O52275   9.634   8.659   2.534 -0.9067 -0.1700 -0.3469
  397MOL0     C52276   9.521   8.599   2.595 -0.5443 -0.0997 -0.5634
  397MOL0     C52277   9.394   8.659   2.578  0.6240  0.4056  0.1901
  397MOL0     C52278   9.283   8.596   2.637  1.0855 -1.0743 -0.7506
  397MOL0     C52279   9.284   8.465   2.695  0.1569  0.0587  0.6644
  397MOL0     O52280   9.167   8.404   2.733  0.5929 -0.6590 -0.3869
  397MOL0     C52281   9.171   8.284   2.810  0.7623 -0.5246  0.0529
  397MOL0     C52282   9.036   8.262   2.868  0.3183 -0.4160  0.0471
  397MOL0     C52283   8.926   8.238   2.771  0.4339  0.0878  0.8040
  397MOL0     C52284   8.798   8.217   2.836 -0.6654  0.0319 -0.1701
  397MOL0     C52285   8.676   8.249   2.751 -0.1360 -0.3164  0.0852
  397MOL0     C52286   8.543   8.196   2.809 -0.3748  0.0554  0.0684
  397MOL0     C52287   8.417   8.253   2.736 -0.3664  1.5274 -0.3602
  397MOL0     C52288   8.276   8.193   2.793 -0.4895 -0.9829  0.3323
  397MOL0     N52289   8.159   8.251   2.736 -0.3253 -0.0430  0.1453
  397MOL0     C52290   8.121   8.241   2.602  0.6695  0.5982 -0.2529
  397MOL0     C52291   8.001   8.312   2.596 -0.2193 -0.3253 -0.6233
  397MOL0     C52292   7.920   8.343   2.472  0.8290  0.3509 -0.7598
  397MOL0     C52293   7.843   8.472   2.470  0.2375 -0.1919  0.2871
  397MOL0     C52294   7.717   8.463   2.377  0.1180  0.2398 -0.8157
  397MOL0     C52295   7.593   8.386   2.440  0.6534 -0.0068  0.4156
  397MOL0     O52296   7.482   8.387   2.351 -0.5169  1.2111 -0.4855
  397MOL0     C52297   7.367   8.369   2.425  0.2772 -0.6453  0.3885
  397MOL0     C52298   7.344   8.291   2.537  0.5739  0.4919 -0.3939
  397MOL0     C52299   7.217   8.284   2.600  0.2611  0.7882  0.2994
  397MOL0     C52300   7.112   8.358   2.549 -0.0966  0.0640  0.4375
  397MOL0     C52301   6.988   8.369   2.606  0.5938  0.1837 -0.8280
  397MOL0     O52302   6.882   8.444   2.554 -0.4450  0.0048  0.6413
  397MOL0     C52303   6.758   8.434   2.607  0.0360 -0.3963  0.1617
  397MOL0     C52304   6.694   8.309   2.631  0.2876 -0.2859  0.6670
  397MOL0     C52305   6.569   8.303   2.698 -0.0962 -0.2016  0.5558
  397MOL0     C52306   6.505   8.425   2.732 -0.0947  0.5957  0.0827
  397MOL0     O52307   6.386   8.441   2.801 -0.1056 -0.6719 -0.1516
  397MOL0     C52308   6.337   8.328   2.869 -0.9174 -0.1346 -0.3050
  397MOL0     C52309   6.254   8.383   2.985  0.4828  0.8049 -0.7378
  397MOL0     C52310   6.205   8.271   3.079 -0.1156  1.0816 -0.2069
  397MOL0     C52311   6.090   8.335   3.153  0.5069 -1.3009 -0.6729
  397MOL0     C52312   5.952   8.305   3.092 -0.4450 -0.0026 -1.2317
  397MOL0     C52313   5.847   8.393   3.166  0.1368  0.4549 -0.1126
  397MOL0     C52314   5.723   8.406   3.067  0.2234 -0.3915 -0.0106
  397MOL0     C52315   5.729   8.510   2.962  0.2091  0.1973  0.4270
  397MOL0    Cl52316   5.595   8.496   2.845  0.2305 -0.1751  0.0180
  397MOL0     C52317   6.565   8.538   2.701 -0.9587  0.0909 -0.6076
  397MOL0     C52318   6.685   8.547   2.628  0.7527 -0.3906 -0.4332
  397MOL0     O52319   6.989   8.305   2.711 -0.1776 -0.8088  0.2981
  397MOL0     C52320   7.136   8.430   2.428  0.4584  0.2961 -0.7252
  397MOL0     C52321   7.258   8.432   2.370  0.2222 -1.8079 -0.6203
  397MOL0     N52322   7.980   8.373   2.722  0.0988  0.9378 -0.1393
  397MOL0     N52323   8.077   8.336   2.801  0.0830 -0.2345 -0.1356
  397MOL0     C52324   9.411   8.409   2.714 -0.3296 -0.0483  0.2744
  397MOL0     C52325   9.526   8.480   2.674  0.4605  0.5538 -0.0990
  397MOL0     C52326   9.879   8.696   2.546 -0.3694 -0.5937 -0.2715
  397MOL0     C52327   9.906   8.633   2.419 -0.0569 -0.2978 -1.0278
  397MOL0     C52328  10.030   8.639   2.374 -0.1028 -0.0438  0.6216
  397MOL0     C52329  10.137   8.695   2.434 -0.6250 -0.2141 -0.3462
  397MOL0     O52330  10.252   8.699   2.361 -0.5964  0.7848 -0.5718
  397MOL0     C52331  10.379   8.711   2.431  0.1513 -0.1919  0.8181
  397MOL0     C52332  10.502   8.722   2.343  0.7791  0.3748 -0.3590
  397MOL0     C52333  10.522   8.608   2.240  0.9259 -0.0357  0.3278
  397MOL0     C52334  10.551   8.469   2.298  0.6327 -0.5571  0.2573
  397MOL0     C52335  10.675   8.449   2.376 -1.0809 -1.2345 -0.1451
  397MOL0     C52336  10.784   8.452   2.439  0.8896 -0.0174 -0.5120
  397MOL0     C52337  10.113   8.738   2.564 -0.1533 -0.5017  0.1271
  397MOL0     C52338   9.988   8.749   2.618 -0.5475 -0.1646 -0.4870
  397MOL0     H52339   9.391   8.753   2.524 -0.8039  1.3280  1.7879
  397MOL0     H52340   9.188   8.648   2.620  0.0466 -3.3670 -2.4439
  397MOL0     H52341   9.246   8.293   2.888 -0.4759 -1.0226  1.3572
  397MOL0     H52342   9.197   8.193   2.755  3.7775 -0.1035  0.6074
  397MOL0     H52343   9.011   8.351   2.927 -0.6896 -0.6019 -0.0808
  397MOL0     H52344   9.045   8.170   2.927 -0.0484  0.3164  1.3020
  397MOL0     H52345   8.956   8.145   2.721 -0.8246 -0.5455  1.2033
  397MOL0     H52346   8.911   8.314   2.694 -3.3006 -2.0924 -0.8950
  397MOL0     H52347   8.800   8.111   2.865  1.1710  0.6104  2.0548
  397MOL0     H52348   8.783   8.280   2.923 -0.5350 -0.8948  0.5384
  397MOL0     H52349   8.690   8.207   2.651  1.5057  0.5736 -0.0902
  397MOL0     H52350   8.650   8.355   2.737 -2.3263 -0.4959  2.0506
  397MOL0     H52351   8.538   8.198   2.918 -2.1905 -2.7988  0.1357
  397MOL0     H52352   8.547   8.089   2.790 -2.2151  0.1750 -1.2472
  397MOL0     H52353   8.421   8.360   2.758 -1.1209  1.3801  0.6041
  397MOL0     H52354   8.422   8.223   2.632  2.4049 -0.2857  0.1848
  397MOL0     H52355   8.277   8.193   2.902  0.5625 -0.2469  0.3432
  397MOL0     H52356   8.290   8.091   2.755  2.8124 -0.1901 -0.9542
  397MOL0     H52357   8.166   8.175   2.529  0.5351 -1.2080  1.2291
  397MOL0     H52358   7.851   8.259   2.469 -1.6587  2.2469  0.2024
  397MOL0     H52359   7.975   8.323   2.379 -1.7448  0.0339 -2.2956
  397MOL0     H52360   7.900   8.559   2.437 -0.3708 -0.4924 -1.6915
  397MOL0     H52361   7.823   8.503   2.572 -0.3046 -0.9413  0.4165
  397MOL0     H52362   7.685   8.565   2.356  1.2004  0.6468 -0.5602
  397MOL0     H52363   7.742   8.412   2.284  0.0872 -1.8714  0.2632
  397MOL0     H52364   7.577   8.447   2.530  0.7641 -2.3907  2.1573
  397MOL0     H52365   7.631   8.289   2.476 -0.0932 -0.9602 -1.2655
  397MOL0     H52366   7.429   8.240   2.582  0.5885  1.2060  0.3976
  397MOL0     H52367   7.226   8.222   2.689  1.7579 -0.9917 -1.0350
  397MOL0     H52368   6.744   8.217   2.601 -0.5982 -0.1175 -1.5497
  397MOL0     H52369   6.535   8.215   2.752  1.8942 -1.9352 -0.8491
  397MOL0     H52370   6.408   8.259   2.915 -1.9233 -0.4926  0.7564
  397MOL0     H52371   6.278   8.270   2.798 -0.6618 -1.5947  0.6250
  397MOL0     H52372   6.173   8.434   2.931 -0.1986 -1.3145 -1.8266
  397MOL0     H52373   6.309   8.457   3.043  0.2409 -1.7281  3.0579
  397MOL0     H52374   6.289   8.239   3.141 -1.4290 -1.4513  0.4372
  397MOL0     H52375   6.166   8.184   3.026 -2.7182  0.0472  3.0434
  397MOL0     H52376   6.098   8.286   3.250  1.3875 -1.1461 -0.6608
  397MOL0     H52377   6.099   8.443   3.166 -2.1039 -1.3096  2.3854
  397MOL0     H52378   5.926   8.200   3.105  1.8536 -0.5562 -0.6856
  397MOL0     H52379   5.955   8.321   2.984  0.1278 -2.0609 -1.5583
  397MOL0     H52380   5.896   8.486   3.198  0.0752  1.6317 -3.0790
  397MOL0     H52381   5.823   8.343   3.260  0.2057  1.1902  0.3087
  397MOL0     H52382   5.717   8.305   3.026  2.3711 -0.6586  0.1732
  397MOL0     H52383   5.637   8.429   3.130 -0.9289  0.6105 -1.8656
  397MOL0     H52384   5.829   8.509   2.918  0.3217 -1.5285  0.6684
  397MOL0     H52385   5.723   8.615   2.995 -0.9310  1.3547 -2.9976
  397MOL0     H52386   6.514   8.629   2.732  1.1074  1.6546 -1.5790
  397MOL0     H52387   6.716   8.647   2.599 -1.0599  0.6997  1.1809
  397MOL0     H52388   7.061   8.496   2.386  1.1680  2.5540  1.3797
  397MOL0     H52389   7.284   8.500   2.289 -1.2951 -0.4391 -0.0054
  397MOL0     H52390   9.431   8.314   2.762 -0.8136 -0.9604 -1.2506
  397MOL0     H52391   9.624   8.439   2.697  0.0692 -0.2466  0.1876
  397MOL0     H52392   9.838   8.589   2.347 -0.4188  0.5919 -1.2426
  397MOL0     H52393  10.042   8.601   2.272 -0.4696  2.2776 -0.3387
  397MOL0     H52394  10.382   8.618   2.489  0.7071 -0.1065  0.9250
  397MOL0     H52395  10.364   8.790   2.506 -2.1274  1.5630 -1.3207
  397MOL0     H52396  10.502   8.813   2.282  2.3711 -0.2418 -1.3536
  397MOL0     H52397  10.592   8.725   2.405  0.9320  0.0078 -0.5604
  397MOL0     H52398  10.607   8.630   2.176 -1.0092  2.3213 -1.6416
  397MOL0     H52399  10.438   8.608   2.170 -1.0158  2.4979  2.4435
  397MOL0     H52400  10.466   8.443   2.364 -0.6007  1.1617 -0.5896
  397MOL0     H52401  10.555   8.406   2.209 -0.8971  0.8968 -0.9038
  397MOL0     H52402  10.875   8.437   2.492 -0.0593 -1.1719  0.8595
  397MOL0     H52403  10.193   8.783   2.623  0.1072 -0.9045  0.0818
  397MOL0     H52404   9.981   8.798   2.715 -0.4065  4.0590 -2.4105
  398MOL0     O52405   4.858   3.954   4.733  0.0002 -0.0560  0.5536
  398MOL0     C52406   4.848   3.957   4.613  0.4730  0.3193  0.4982
  398MOL0     O52407   4.945   4.000   4.522  0.2711  0.3346 -0.3251
  398MOL0     C52408   5.073   4.041   4.571  0.3765  0.4300  0.1629
  398MOL0     C52409   5.164   4.101   4.483 -0.8093  1.5876 -0.0779
  398MOL0     C52410   5.296   4.136   4.513  1.4325  0.7717  0.2398
  398MOL0     C52411   5.344   4.117   4.641  0.0560  1.0790 -0.5863
  398MOL0     O52412   5.472   4.151   4.671 -0.3818 -0.3862 -0.3781
  398MOL0     C52413   5.517   4.133   4.808  0.3794  0.0070  0.5008
  398MOL0     C52414   5.657   4.174   4.789  0.7243  0.2824  0.6982
  398MOL0     C52415   5.734   4.112   4.899 -0.3549  0.7737 -0.1047
  398MOL0     C52416   5.890   4.138   4.882  0.6425  0.2699 -0.1617
  398MOL0     C52417   5.980   4.047   4.974 -0.1571 -0.5108  0.2732
  398MOL0     C52418   6.131   4.075   4.938  0.7210  0.0546 -0.0739
  398MOL0     C52419   6.193   3.947   4.863  0.1967 -0.6028 -0.2594
  398MOL0     C52420   6.191   3.814   4.943  0.4468 -0.1852 -0.1606
  398MOL0     N52421   6.073   3.728   4.930  0.2739 -0.0720 -0.2629
  398MOL0     C52422   6.017   3.650   5.028 -0.5297  0.5711  0.2244
  398MOL0     C52423   5.911   3.596   4.961 -0.6712  0.3976 -0.8131
  398MOL0     C52424   5.834   3.484   5.026 -0.0448 -0.9301 -0.4128
  398MOL0     C52425   5.689   3.535   5.056  0.6231 -0.0195  0.5241
  398MOL0     C52426   5.688   3.623   5.169 -0.5124 -0.2753  0.5264
  398MOL0     C52427   5.709   3.776   5.127  0.3868 -0.3432 -0.7281
  398MOL0     O52428   5.595   3.851   5.169  0.5827 -0.0777  0.0632
  398MOL0     C52429   5.478   3.816   5.106  0.0560 -1.0380  0.9947
  398MOL0     C52430   5.468   3.801   4.968  0.2612  0.0605  0.5722
  398MOL0     C52431   5.349   3.759   4.910  0.0542 -0.2005 -0.0076
  398MOL0     C52432   5.238   3.741   4.991  0.4740 -0.4176  0.3041
  398MOL0     C52433   5.107   3.702   4.926 -0.6707  0.0220 -0.3711
  398MOL0     O52434   5.117   3.688   4.788  0.1573 -0.2122  0.1278
  398MOL0     C52435   5.004   3.642   4.723 -0.5456  0.1564 -0.3725
  398MOL0     C52436   4.908   3.548   4.762 -0.2863  0.2186 -0.6832
  398MOL0     C52437   4.822   3.492   4.675  0.0830 -0.0201 -0.0787
  398MOL0     C52438   4.823   3.524   4.537  0.2312  0.3248  0.2254
  398MOL0     O52439   4.742   3.482   4.431  0.1226  0.3882 -0.0419
  398MOL0     C52440   4.671   3.361   4.433  0.1242  0.1551 -0.3413
  398MOL0     C52441   4.597   3.342   4.304 -0.4336  0.5752  0.4790
  398MOL0     C52442   4.586   3.201   4.242  0.0731  0.8711 -0.2975
  398MOL0     C52443   4.533   3.098   4.344 -0.7403  0.4121 -0.4761
  398MOL0     C52444   4.442   2.994   4.268 -0.1946 -0.6824 -0.3152
  398MOL0     C52445   4.434   2.874   4.356 -0.3346  0.3600  0.0157
  398MOL0     C52446   4.354   2.888   4.477 -0.1647 -0.6290 -0.5086
  398MOL0     C52447   4.361   2.759   4.561  0.2003 -0.3521  0.0808
  398MOL0    Cl52448   4.298   2.789   4.727  0.1128 -0.1883 -0.1363
  398MOL0     C52449   4.921   3.613   4.497 -0.4609  0.4646  0.1185
  398MOL0     C52450   5.019   3.661   4.588  0.1642  1.1784  0.2798
  398MOL0     O52451   4.998   3.701   4.990 -0.9609  1.5929  0.0364
  398MOL0     C52452   5.241   3.756   5.127 -0.4092 -0.7978  0.9163
  398MOL0     C52453   5.362   3.798   5.179  1.1902 -0.5706 -0.2990
  398MOL0     N52454   5.908   3.643   4.832  0.6198 -0.2986  0.3631
  398MOL0     N52455   6.012   3.723   4.811  0.0705 -0.5810 -0.0552
  398MOL0     C52456   5.252   4.059   4.736 -0.4605  0.7223 -0.9024
  398MOL0     C52457   5.133   4.015   4.695  0.0126 -0.4787 -0.3564
  398MOL0     C52458   4.735   3.880   4.545 -0.3825 -0.2581 -0.3226
  398MOL0     C52459   4.638   3.818   4.629 -0.3327  0.2640 -0.0663
  398MOL0     C52460   4.520   3.774   4.567  0.6430  0.4350  0.8349
  398MOL0     C52461   4.507   3.768   4.425 -0.1503  0.5642  0.8496
  398MOL0     O52462   4.396   3.728   4.358  0.2555  0.1477  0.2245
  398MOL0     C52463   4.267   3.717   4.415  0.2603  0.1838  0.0188
  398MOL0     C52464   4.162   3.656   4.327  0.2581  0.1053 -0.0991
  398MOL0     C52465   4.208   3.530   4.264 -1.4619 -0.3630  0.3164
  398MOL0     C52466   4.101   3.437   4.200  0.4570  0.4067 -0.1058
  398MOL0     C52467   4.152   3.356   4.088  0.2570 -0.0991  0.1635
  398MOL0     C52468   4.183   3.294   3.989  0.3036 -0.3397 -0.2860
  398MOL0     C52469   4.611   3.812   4.347 -0.6350  0.7153 -0.8006
  398MOL0     C52470   4.728   3.860   4.407 -0.0234 -0.7602  0.0136
  398MOL0     H52471   5.127   4.136   4.387 -1.5719 -0.5685 -0.6426
  398MOL0     H52472   5.353   4.174   4.430  0.7484 -3.1979 -2.3272
  398MOL0     H52473   5.508   4.031   4.845 -1.4039  0.3200  1.0313
  398MOL0     H52474   5.476   4.206   4.879 -0.1945  0.8621 -0.6625
  398MOL0     H52475   5.662   4.283   4.779  0.3730  0.1722 -1.0672
  398MOL0     H52476   5.696   4.136   4.694 -3.4681 -0.5877 -0.8877
  398MOL0     H52477   5.712   4.005   4.897  0.2549  0.5488  2.0605
  398MOL0     H52478   5.697   4.143   4.997  1.1868 -1.0068  1.1055
  398MOL0     H52479   5.913   4.105   4.780  2.9572 -0.7422  0.6209
  398MOL0     H52480   5.902   4.246   4.893  0.3235  0.6043 -2.5101
  398MOL0     H52481   5.956   3.941   4.982 -0.8786 -0.3860 -0.1501
  398MOL0     H52482   5.970   4.079   5.079  1.4619 -1.8153  0.8653
  398MOL0     H52483   6.190   4.083   5.030  0.9213 -0.7734 -0.1201
  398MOL0     H52484   6.142   4.160   4.871 -0.3608  0.7762  0.6358
  398MOL0     H52485   6.143   3.945   4.766 -0.3971 -0.3279  0.0366
  398MOL0     H52486   6.292   3.974   4.825  0.3901 -1.1743 -0.1702
  398MOL0     H52487   6.192   3.835   5.050 -2.1407 -4.0151  0.7940
  398MOL0     H52488   6.278   3.751   4.920  0.7372  0.6440 -1.4601
  398MOL0     H52489   6.057   3.637   5.128 -0.0010 -1.4864 -0.2152
  398MOL0     H52490   5.891   3.456   5.115 -0.5992 -0.1064  0.2286
  398MOL0     H52491   5.825   3.404   4.953 -0.0153 -0.3157 -1.0976
  398MOL0     H52492   5.639   3.444   5.091  1.0455 -0.8253 -0.8436
  398MOL0     H52493   5.635   3.563   4.965 -0.0167  1.6040  1.3760
  398MOL0     H52494   5.595   3.605   5.224 -0.3389 -1.1461  0.5458
  398MOL0     H52495   5.756   3.591   5.249 -1.4646  0.3542  1.6293
  398MOL0     H52496   5.737   3.791   5.023 -0.5249  3.3351 -0.5744
  398MOL0     H52497   5.792   3.807   5.191 -1.4182  1.8070  0.7206
  398MOL0     H52498   5.554   3.814   4.905  0.9903  0.4864  1.6278
  398MOL0     H52499   5.349   3.745   4.802  0.5693 -0.9299  0.0796
  398MOL0     H52500   4.908   3.523   4.867  1.2392 -0.1027 -0.7344
  398MOL0     H52501   4.745   3.425   4.711  2.3505 -2.6868  0.1743
  398MOL0     H52502   4.596   3.357   4.513 -0.9759  0.2736 -1.3428
  398MOL0     H52503   4.738   3.275   4.447 -2.3073 -2.2755 -2.5335
  398MOL0     H52504   4.646   3.406   4.230 -0.4580  1.3891  1.1529
  398MOL0     H52505   4.494   3.377   4.321 -0.1128  1.4380  0.6989
  398MOL0     H52506   4.681   3.168   4.198 -0.8389 -3.6288  0.5964
  398MOL0     H52507   4.515   3.209   4.160 -1.4986 -0.4387  0.8799
  398MOL0     H52508   4.620   3.045   4.383 -1.0781 -0.2587 -0.6068
  398MOL0     H52509   4.484   3.140   4.432 -0.2541 -1.6875  0.8720
  398MOL0     H52510   4.481   2.964   4.170 -2.7454 -0.5437 -1.4630
  398MOL0     H52511   4.346   3.044   4.249  0.8543  0.7489 -2.1954
  398MOL0     H52512   4.538   2.852   4.383 -1.0387 -1.0903  1.8174
  398MOL0     H52513   4.398   2.791   4.296 -0.6630  1.2647 -1.0576
  398MOL0     H52514   4.402   2.966   4.536 -1.9056 -0.1353  0.3241
  398MOL0     H52515   4.248   2.909   4.460 -0.1141  0.4964  0.4422
  398MOL0     H52516   4.467   2.734   4.564  1.2318  3.2545 -0.8208
  398MOL0     H52517   4.306   2.680   4.510 -0.1661  1.9836 -3.4820
  398MOL0     H52518   4.943   3.630   4.392  0.6284 -3.5696 -0.4730
  398MOL0     H52519   5.103   3.716   4.548  0.2767  1.2802  0.6548
  398MOL0     H52520   5.152   3.760   5.188 -1.5547 -0.3644 -0.7108
  398MOL0     H52521   5.365   3.809   5.287 -0.5839 -0.8176 -0.1928
  398MOL0     H52522   5.284   4.050   4.840  1.5988 -2.0780 -1.6218
  398MOL0     H52523   5.092   3.951   4.773 -0.2187  0.3500  0.2196
  398MOL0     H52524   4.664   3.810   4.734 -0.0629 -0.8053 -0.1907
  398MOL0     H52525   4.438   3.730   4.622  1.6753 -0.5444  1.6443
  398MOL0     H52526   4.228   3.816   4.440 -1.2464 -0.5068  0.5037
  398MOL0     H52527   4.272   3.657   4.505 -0.8897  2.1319  1.4671
  398MOL0     H52528   4.071   3.651   4.387 -0.0228 -0.8265 -0.5876
  398MOL0     H52529   4.134   3.720   4.243 -0.1018 -1.7605 -1.4631
  398MOL0     H52530   4.269   3.479   4.339  0.4277  0.0847 -0.8393
  398MOL0     H52531   4.270   3.561   4.179 -3.6980  1.7105 -0.7014
  398MOL0     H52532   4.070   3.371   4.281  2.7700 -1.5180 -0.6539
  398MOL0     H52533   4.017   3.498   4.165  1.1732  0.8018 -1.1860
  398MOL0     H52534   4.208   3.255   3.892  0.9946  0.9914 -0.6623
  398MOL0     H52535   4.618   3.801   4.240 -0.0589  1.1816 -0.8179
  398MOL0     H52536   4.800   3.901   4.337 -3.5529  1.2887 -2.7928
  399MOL0     O52537   6.348   6.142   7.477 -0.2566 -0.4033  0.6979
  399MOL0     C52538   6.375   6.156   7.352  0.5984  0.2270 -0.5643
  399MOL0     O52539   6.293   6.146   7.247  0.4577 -0.7405  0.5186
  399MOL0     C52540   6.154   6.146   7.256  0.1089  0.7350 -0.7031
  399MOL0     C52541   6.069   6.160   7.372 -0.2430  0.1712  0.2192
  399MOL0     C52542   5.935   6.149   7.371 -0.8807  0.3417 -0.5915
  399MOL0     C52543   5.874   6.126   7.246 -0.1437  0.8225  0.5024
  399MOL0     O52544   5.745   6.092   7.228  0.5657  0.2069 -0.2964
  399MOL0     C52545   5.716   5.948   7.231  0.0927 -0.9134  0.1103
  399MOL0     C52546   5.757   5.854   7.110 -0.3515  0.1898 -0.4299
  399MOL0     C52547   5.699   5.714   7.129 -0.1423 -0.0655  0.4673
  399MOL0     C52548   5.721   5.627   7.000  0.5120 -0.0316 -0.1067
  399MOL0     C52549   5.657   5.487   7.035 -0.3291 -0.0989  0.7307
  399MOL0     C52550   5.507   5.486   7.089  0.0227 -0.1278  0.6391
  399MOL0     C52551   5.451   5.342   7.086  0.2868  0.2748 -0.3123
  399MOL0     C52552   5.443   5.278   6.945  0.2871  0.0058 -0.7975
  399MOL0     N52553   5.316   5.209   6.924 -0.1294  0.2082 -0.6164
  399MOL0     C52554   5.283   5.080   6.957  0.1537  0.3416 -0.5616
  399MOL0     C52555   5.150   5.070   6.920  0.2112 -0.9036 -0.1376
  399MOL0     C52556   5.068   4.944   6.935  0.8729 -0.3238 -0.0623
  399MOL0     C52557   4.914   4.963   6.940 -0.1315 -0.0730  0.3165
  399MOL0     C52558   4.859   4.978   6.802 -0.8723  0.7018  0.9411
  399MOL0     C52559   4.702   4.976   6.797 -0.4632  0.4178  0.2364
  399MOL0     O52560   4.630   4.873   6.869  0.0348  0.0038  0.0037
  399MOL0     C52561   4.495   4.869   6.860 -0.1608 -0.3603  0.6000
  399MOL0     C52562   4.415   4.947   6.782  0.2311 -0.1903  0.5921
  399MOL0     C52563   4.279   4.925   6.778  0.3266  0.5878  1.1457
  399MOL0     C52564   4.217   4.822   6.851  0.3330  0.1156  0.1200
  399MOL0     C52565   4.073   4.784   6.839 -0.9125 -0.5737 -0.1566
  399MOL0     O52566   3.997   4.875   6.772 -0.1359 -0.4380  0.1299
  399MOL0     C52567   3.859   4.878   6.782  0.0717 -0.1151 -0.2179
  399MOL0     C52568   3.791   4.843   6.900  0.3527  0.3910  0.1935
  399MOL0     C52569   3.653   4.874   6.914  0.4075  0.3841 -0.3168
  399MOL0     C52570   3.584   4.928   6.808 -0.1015 -0.6513 -0.4479
  399MOL0     O52571   3.453   4.972   6.816  0.3309 -0.4373  0.0503
  399MOL0     C52572   3.362   4.901   6.890 -1.3220 -0.3873  0.0615
  399MOL0     C52573   3.230   4.979   6.881 -0.0986  0.4533 -1.3460
  399MOL0     C52574   3.096   4.901   6.926  0.5906 -0.7639  0.0260
  399MOL0     C52575   3.049   4.810   6.818  0.5360 -0.1645 -0.1816
  399MOL0     C52576   2.933   4.714   6.859  0.9947 -0.9884  0.6134
  399MOL0     C52577   2.796   4.784   6.894  0.8111  0.1131 -0.5675
  399MOL0     C52578   2.688   4.680   6.900  1.7845 -0.0176 -0.5219
  399MOL0     C52579   2.559   4.745   6.960 -0.0482  0.6638 -0.2798
  399MOL0    Cl52580   2.421   4.638   6.935  0.1334  0.1253 -0.0719
  399MOL0     C52581   3.650   4.967   6.690 -0.8251  0.0590 -0.3626
  399MOL0     C52582   3.791   4.950   6.682  0.1218  1.0711 -0.0345
  399MOL0     O52583   4.036   4.688   6.897 -0.2325  0.8626  0.5224
  399MOL0     C52584   4.297   4.752   6.937  0.0971 -0.2478 -0.5931
  399MOL0     C52585   4.431   4.768   6.933 -0.0619 -0.7494  0.0973
  399MOL0     N52586   5.108   5.192   6.883  0.2229  0.8117  0.6263
  399MOL0     N52587   5.207   5.269   6.880 -0.2047 -0.2240  0.2557
  399MOL0     C52588   5.949   6.115   7.122  0.6900 -0.2983 -0.3495
  399MOL0     C52589   6.082   6.130   7.132 -1.0570 -0.4903 -0.0455
  399MOL0     C52590   6.515   6.187   7.320  0.4328 -0.2558  0.1317
  399MOL0     C52591   6.609   6.196   7.422  0.7048  0.0734 -0.5495
  399MOL0     C52592   6.747   6.212   7.393 -0.2575  0.3351 -0.5599
  399MOL0     C52593   6.794   6.198   7.262 -0.2620  0.0068  0.2838
  399MOL0     O52594   6.927   6.216   7.249  0.0294 -0.7209  0.2298
  399MOL0     C52595   6.980   6.351   7.245 -0.7516 -1.1541 -0.9255
  399MOL0     C52596   7.130   6.351   7.243  0.2628 -0.1651  0.0935
  399MOL0     C52597   7.190   6.279   7.122  0.7425 -0.2537  0.3438
  399MOL0     C52598   7.344   6.263   7.151  0.1371  0.4600 -0.0673
  399MOL0     C52599   7.390   6.186   7.037 -0.3545  0.3673 -0.8312
  399MOL0     C52600   7.430   6.129   6.938  0.9652 -0.0161  0.2392
  399MOL0     C52601   6.705   6.189   7.161 -0.2635  0.0023  0.3934
  399MOL0     C52602   6.567   6.182   7.185  1.0735 -0.3119 -0.0353
  399MOL0     H52603   6.117   6.190   7.465  1.2185  0.3229 -0.5567
  399MOL0     H52604   5.877   6.132   7.461  0.6068  2.0019  0.7637
  399MOL0     H52605   5.607   5.945   7.242  0.0693 -0.7374 -0.0745
  399MOL0     H52606   5.760   5.903   7.321 -0.1145  0.3515  0.8615
  399MOL0     H52607   5.866   5.853   7.117 -0.3667  1.0185  0.1902
  399MOL0     H52608   5.717   5.896   7.017 -0.8560  0.4434 -0.1057
  399MOL0     H52609   5.593   5.729   7.153 -0.3275  1.6097 -1.1779
  399MOL0     H52610   5.754   5.666   7.210 -1.5051 -0.5522  1.1286
  399MOL0     H52611   5.667   5.670   6.915 -1.1754  0.9481  1.4114
  399MOL0     H52612   5.829   5.609   6.993  0.5851  0.1731  0.4508
  399MOL0     H52613   5.729   5.435   7.098  0.0262  0.3885  0.7313
  399MOL0     H52614   5.662   5.425   6.945 -0.0520  2.3055 -1.0104
  399MOL0     H52615   5.444   5.556   7.034 -0.6223 -1.0905  0.1369
  399MOL0     H52616   5.502   5.509   7.196 -1.6462  3.6038 -0.0824
  399MOL0     H52617   5.508   5.272   7.148 -0.0054 -0.1070 -0.4731
  399MOL0     H52618   5.350   5.338   7.128  0.1934 -3.1257 -0.5606
  399MOL0     H52619   5.526   5.210   6.925  1.6471  0.7037  1.9744
  399MOL0     H52620   5.443   5.346   6.860 -3.0972 -0.9119 -1.6925
  399MOL0     H52621   5.338   5.005   7.013 -1.1946 -0.5210 -0.3489
  399MOL0     H52622   5.111   4.903   7.027 -0.5598 -4.8191 -1.1723
  399MOL0     H52623   5.100   4.872   6.859 -1.9196 -0.8537 -0.8618
  399MOL0     H52624   4.878   5.042   7.007  1.5636  1.6055 -0.6299
  399MOL0     H52625   4.876   4.871   6.985 -3.2665  0.1557 -1.5603
  399MOL0     H52626   4.892   5.075   6.762  0.4406 -0.3753 -0.7387
  399MOL0     H52627   4.905   4.899   6.741 -1.2950  1.8004 -0.9006
  399MOL0     H52628   4.699   4.951   6.691  3.4481  0.3876 -0.0267
  399MOL0     H52629   4.668   5.078   6.821  1.3565  1.6567 -2.0302
  399MOL0     H52630   4.470   5.020   6.723  0.7831  0.3014  1.6960
  399MOL0     H52631   4.219   4.995   6.721  2.1007  1.3268  0.1200
  399MOL0     H52632   3.851   4.796   6.976 -0.9249 -2.6106 -0.5051
  399MOL0     H52633   3.607   4.858   7.011 -0.2715  5.1815  0.3977
  399MOL0     H52634   3.393   4.896   6.995 -0.0877 -2.6467 -0.3649
  399MOL0     H52635   3.350   4.796   6.863 -2.0043 -0.8491  1.9962
  399MOL0     H52636   3.215   5.013   6.778  1.7144  2.8993 -0.8977
  399MOL0     H52637   3.235   5.069   6.942  1.6319 -0.2206 -0.4336
  399MOL0     H52638   3.013   4.970   6.944 -2.1071 -3.6045 -0.6366
  399MOL0     H52639   3.116   4.844   7.017 -3.1439  0.2310  1.6740
  399MOL0     H52640   3.013   4.857   6.726 -0.1923 -1.2263 -0.4616
  399MOL0     H52641   3.135   4.750   6.786  1.1608  1.5520 -1.9793
  399MOL0     H52642   2.963   4.657   6.948  0.4014 -0.5233  1.1234
  399MOL0     H52643   2.912   4.650   6.773 -1.1794  2.2096 -1.4461
  399MOL0     H52644   2.768   4.854   6.814  1.1737 -0.4796 -1.2271
  399MOL0     H52645   2.801   4.839   6.988 -0.7290 -2.3037  1.0469
  399MOL0     H52646   2.665   4.628   6.807  1.8286 -0.0423 -0.5194
  399MOL0     H52647   2.691   4.602   6.977 -1.5635 -1.2291 -1.4477
  399MOL0     H52648   2.532   4.840   6.912 -0.3241  0.5163 -0.4195
  399MOL0     H52649   2.570   4.757   7.068  1.6169  0.2651 -0.3768
  399MOL0     H52650   3.595   5.026   6.618 -1.0526 -1.0624 -1.1454
  399MOL0     H52651   3.843   4.979   6.591  1.0325 -1.3825 -0.3644
  399MOL0     H52652   4.262   4.682   7.013 -2.8074  3.4412  1.8297
  399MOL0     H52653   4.498   4.711   6.997  2.6625  1.0837 -0.9158
  399MOL0     H52654   5.894   6.103   7.030 -0.1378 -2.5323  0.3728
  399MOL0     H52655   6.146   6.121   7.045  1.4266  0.9859  1.5351
  399MOL0     H52656   6.577   6.198   7.526  0.8202 -1.0147 -0.4810
  399MOL0     H52657   6.815   6.236   7.475 -1.7111 -1.2179  1.1962
  399MOL0     H52658   6.951   6.413   7.331  0.5502 -1.3769 -0.3066
  399MOL0     H52659   6.934   6.403   7.161 -1.6677 -1.1064 -0.4116
  399MOL0     H52660   7.161   6.456   7.251 -1.0808  0.4390 -1.9889
  399MOL0     H52661   7.150   6.280   7.324 -1.6108 -1.6483 -0.6709
  399MOL0     H52662   7.191   6.329   7.024  0.6651  0.3058  0.6265
  399MOL0     H52663   7.139   6.185   7.102  3.6940 -1.5764 -1.7671
  399MOL0     H52664   7.405   6.354   7.147 -0.1104  0.5842 -2.4464
  399MOL0     H52665   7.357   6.211   7.246 -0.3237 -2.9991 -1.7544
  399MOL0     H52666   7.454   6.082   6.845 -1.4216  0.4545 -0.6839
  399MOL0     H52667   6.745   6.188   7.060 -0.5996  0.7280  0.2487
  399MOL0     H52668   6.510   6.165   7.095  2.0448  0.4163 -0.8130
  400MOL0     O52669   3.972   6.589   4.339 -0.2499 -0.4150  0.1232
  400MOL0     C52670   3.955   6.472   4.368 -0.6636  0.7339 -0.1844
  400MOL0     O52671   3.841   6.412   4.417  0.5544  0.0816 -0.0956
  400MOL0     C52672   3.715   6.471   4.415 -0.3335  0.5403  0.1855
  400MOL0     C52673   3.665   6.531   4.297  0.0804 -0.2737 -0.6030
  400MOL0     C52674   3.535   6.580   4.301  0.4222 -0.2399  0.6320
  400MOL0     C52675   3.457   6.569   4.418 -0.5105  0.1257 -0.4952
  400MOL0     O52676   3.338   6.638   4.425  0.4197  0.5500 -0.3835
  400MOL0     C52677   3.227   6.559   4.472  0.0516 -0.1973 -0.4144
  400MOL0     C52678   3.198   6.447   4.366  0.0232  0.3652  0.0538
  400MOL0     C52679   3.148   6.511   4.238  0.4154  0.8649 -0.2119
  400MOL0     C52680   3.000   6.560   4.242 -0.5549 -0.0687 -0.4433
  400MOL0     C52681   2.948   6.601   4.099 -0.3228  0.9661  0.1476
  400MOL0     C52682   3.041   6.703   4.031  0.1447 -0.5397 -0.3168
  400MOL0     C52683   2.959   6.775   3.922  0.3372 -0.0650  1.1882
  400MOL0     C52684   3.032   6.888   3.848 -0.6677  0.6224  0.3213
  400MOL0     N52685   3.109   6.846   3.726 -0.2263  0.2591 -0.1255
  400MOL0     C52686   3.166   6.718   3.707  0.2573  0.0387 -0.4375
  400MOL0     C52687   3.255   6.736   3.611  0.7647 -0.8773  0.1842
  400MOL0     C52688   3.346   6.630   3.552  0.6820 -0.3275  0.6791
  400MOL0     C52689   3.493   6.636   3.569 -0.3718 -0.2310 -0.2597
  400MOL0     C52690   3.526   6.614   3.722  0.5153 -0.6584  0.4114
  400MOL0     C52691   3.666   6.567   3.728 -0.6923 -0.2050 -0.3470
  400MOL0     O52692   3.694   6.513   3.855  0.9332  0.1975  0.2172
  400MOL0     C52693   3.817   6.446   3.866 -0.5353 -0.4008  0.0488
  400MOL0     C52694   3.840   6.361   3.977  0.0007  1.4463 -0.2546
  400MOL0     C52695   3.953   6.287   4.000 -0.4231  0.1771 -0.0874
  400MOL0     C52696   4.059   6.297   3.906  0.7079 -0.2600 -0.5111
  400MOL0     C52697   4.182   6.213   3.918 -0.4928  0.0075  0.0588
  400MOL0     O52698   4.278   6.215   3.821  0.0951  0.2620  0.0267
  400MOL0     C52699   4.384   6.137   3.842  0.2467  0.8522 -0.5147
  400MOL0     C52700   4.414   6.028   3.764  0.9028 -0.4564 -1.2666
  400MOL0     C52701   4.544   5.959   3.776  0.8879 -0.2959  0.1454
  400MOL0     C52702   4.628   5.983   3.881 -0.5397 -0.5852 -0.0955
  400MOL0     O52703   4.741   5.902   3.915  0.1596  0.7360 -0.1308
  400MOL0     C52704   4.736   5.847   4.045  0.5212  0.1579 -0.0215
  400MOL0     C52705   4.838   5.728   4.066 -0.5121  0.0926  0.5489
  400MOL0     C52706   4.831   5.618   3.961  0.0528  0.3181 -0.4324
  400MOL0     C52707   4.698   5.553   3.938 -0.7744 -0.6874  0.2860
  400MOL0     C52708   4.714   5.426   3.855 -0.8140  0.1256  0.2121
  400MOL0     C52709   4.582   5.378   3.804 -0.8119 -0.1523  0.2848
  400MOL0     C52710   4.601   5.261   3.708 -0.9311 -0.2541  0.0125
  400MOL0     C52711   4.565   5.308   3.569 -0.0883  0.4165  0.3294
  400MOL0    Cl52712   4.392   5.348   3.557  0.1588 -0.0256  0.3781
  400MOL0     C52713   4.604   6.104   3.958  0.0465  0.2112 -0.1923
  400MOL0     C52714   4.489   6.179   3.931  0.7479 -0.2421 -0.4857
  400MOL0     O52715   4.179   6.130   4.013  0.1000 -0.2922 -0.3254
  400MOL0     C52716   4.035   6.379   3.792 -0.4474  0.2707  0.2737
  400MOL0     C52717   3.917   6.454   3.771 -0.0243  0.0816 -0.1813
  400MOL0     N52718   3.266   6.869   3.584  0.0376  0.0327  0.4776
  400MOL0     N52719   3.184   6.935   3.653 -0.8676  0.2954  0.3960
  400MOL0     C52720   3.505   6.510   4.534 -0.7428  0.0412  1.0263
  400MOL0     C52721   3.637   6.465   4.531  0.3681  0.1870  0.0170
  400MOL0     C52722   4.056   6.376   4.363 -0.0509  0.5735  0.5993
  400MOL0     C52723   4.064   6.263   4.454  1.4393  0.3217  0.7253
  400MOL0     C52724   4.175   6.180   4.458  0.0442  0.0859 -0.1203
  400MOL0     C52725   4.289   6.203   4.373  0.0215  0.0537  0.0315
  400MOL0     O52726   4.393   6.115   4.386  0.7390 -0.2588 -0.3260
  400MOL0     C52727   4.495   6.101   4.291 -0.6665 -0.0799 -0.8599
  400MOL0     C52728   4.609   6.025   4.355 -0.1687  0.0076 -0.5963
  400MOL0     C52729   4.676   6.097   4.467 -0.2717 -0.2868 -0.5299
  400MOL0     C52730   4.790   6.010   4.512 -0.2448  1.0186  0.3242
  400MOL0     C52731   4.742   5.910   4.610 -0.0534  0.5401  0.9063
  400MOL0     C52732   4.719   5.820   4.685 -1.0393 -0.2962  0.0208
  400MOL0     C52733   4.275   6.305   4.274  0.0859 -0.9619  0.2149
  400MOL0     C52734   4.168   6.389   4.270  0.3876 -0.1401  0.2116
  400MOL0     H52735   3.727   6.530   4.208  0.2805 -3.5647 -0.5479
  400MOL0     H52736   3.493   6.610   4.206 -0.3306 -0.6868  0.8165
  400MOL0     H52737   3.139   6.624   4.486 -1.0847 -1.8289  0.3335
  400MOL0     H52738   3.250   6.515   4.569 -2.4071  0.9052  0.7657
  400MOL0     H52739   3.124   6.376   4.403  0.8136 -1.0139 -0.9374
  400MOL0     H52740   3.282   6.381   4.347 -2.1568 -2.2394 -1.3465
  400MOL0     H52741   3.162   6.432   4.163 -1.7882 -1.2574  1.4649
  400MOL0     H52742   3.207   6.600   4.216  2.7968 -0.4628  0.4260
  400MOL0     H52743   2.934   6.489   4.292 -0.4849  0.1864  0.0231
  400MOL0     H52744   2.994   6.651   4.303 -1.0415  0.3947 -1.1806
  400MOL0     H52745   2.844   6.635   4.098 -0.8087 -0.3702  1.4197
  400MOL0     H52746   2.932   6.518   4.030 -3.0077  2.8754 -1.7255
  400MOL0     H52747   3.116   6.637   3.986 -0.0554 -0.7974 -0.2719
  400MOL0     H52748   3.087   6.769   4.105 -4.2552  0.4158  1.9237
  400MOL0     H52749   2.908   6.716   3.845 -1.5079  1.7619  0.9259
  400MOL0     H52750   2.880   6.825   3.978  1.4294  2.1234  0.8523
  400MOL0     H52751   3.097   6.947   3.914 -0.8814  3.7338 -2.0364
  400MOL0     H52752   2.950   6.956   3.824 -0.4797  0.7799  0.1161
  400MOL0     H52753   3.136   6.622   3.748  2.7419  0.2174  2.1045
  400MOL0     H52754   3.325   6.615   3.445 -1.4054 -2.1953  1.2717
  400MOL0     H52755   3.323   6.530   3.590  2.8065 -0.8880  0.6433
  400MOL0     H52756   3.527   6.739   3.550  2.1052 -1.4830 -3.5011
  400MOL0     H52757   3.535   6.556   3.508 -1.4703 -0.7002 -0.4222
  400MOL0     H52758   3.499   6.705   3.775 -1.7922  1.0661 -3.2791
  400MOL0     H52759   3.465   6.534   3.765 -2.8751 -0.2858 -3.1027
  400MOL0     H52760   3.741   6.644   3.708 -1.3518  0.2913 -0.9817
  400MOL0     H52761   3.675   6.488   3.652  0.1436  0.6369 -1.1480
  400MOL0     H52762   3.762   6.352   4.052  0.3222  0.7806  0.0087
  400MOL0     H52763   3.975   6.233   4.092  3.3377 -0.3440 -1.0873
  400MOL0     H52764   4.353   5.984   3.686  1.6274 -0.9852 -1.5543
  400MOL0     H52765   4.555   5.876   3.708 -2.5337 -0.6668 -0.1509
  400MOL0     H52766   4.637   5.804   4.064  1.4615 -2.0799  0.0192
  400MOL0     H52767   4.768   5.928   4.112  1.7032 -2.1566  2.3682
  400MOL0     H52768   4.822   5.683   4.165 -0.4751  0.1559  0.5832
  400MOL0     H52769   4.939   5.770   4.076  0.3256 -1.1618 -1.9564
  400MOL0     H52770   4.887   5.537   4.010 -2.6125 -1.1567  0.3394
  400MOL0     H52771   4.889   5.653   3.875  1.0233 -3.7392 -1.6602
  400MOL0     H52772   4.638   5.521   4.023 -1.5506  0.3767  0.1600
  400MOL0     H52773   4.635   5.627   3.887 -0.2478 -1.1156 -1.0492
  400MOL0     H52774   4.761   5.348   3.916  0.3450 -0.0337 -0.8591
  400MOL0     H52775   4.772   5.456   3.767 -2.4785  1.7945 -0.3875
  400MOL0     H52776   4.522   5.453   3.751 -2.3757 -0.1657  1.9625
  400MOL0     H52777   4.525   5.339   3.888 -2.1993  1.6679  0.2504
  400MOL0     H52778   4.700   5.215   3.703 -0.7005  0.3777 -1.8891
  400MOL0     H52779   4.530   5.182   3.735 -0.1817 -1.9610 -2.6799
  400MOL0     H52780   4.591   5.230   3.497  0.4628 -0.1244  1.1120
  400MOL0     H52781   4.630   5.390   3.535  0.6418 -0.8961 -1.6046
  400MOL0     H52782   4.669   6.134   4.040  0.2575 -2.9673  0.9834
  400MOL0     H52783   4.477   6.273   3.984  0.9358 -0.6054  0.2132
  400MOL0     H52784   4.113   6.381   3.717 -1.2734  0.8760 -0.5884
  400MOL0     H52785   3.916   6.515   3.682 -0.5055  0.7610  0.2829
  400MOL0     H52786   3.458   6.512   4.632 -2.4459  0.5803  0.2399
  400MOL0     H52787   3.682   6.417   4.618  1.5132  1.0928 -0.0490
  400MOL0     H52788   3.985   6.247   4.527  0.2964  1.3539 -0.2413
  400MOL0     H52789   4.173   6.099   4.530 -1.1632 -0.0161 -0.2476
  400MOL0     H52790   4.528   6.200   4.257 -2.0028  0.2254 -1.3477
  400MOL0     H52791   4.463   6.053   4.198 -0.8983 -0.2238 -0.7084
  400MOL0     H52792   4.579   5.926   4.393  1.8553  0.2940  1.9920
  400MOL0     H52793   4.680   6.005   4.275  0.6034  2.2631 -0.5424
  400MOL0     H52794   4.611   6.130   4.549 -2.0169 -1.2785 -1.4430
  400MOL0     H52795   4.725   6.183   4.421 -0.3108  0.0897  0.1113
  400MOL0     H52796   4.837   5.963   4.425 -0.3006  0.2330  0.7075
  400MOL0     H52797   4.877   6.065   4.551  2.9939 -2.3078 -1.5960
  400MOL0     H52798   4.683   5.749   4.756  0.5541 -1.6146 -0.4306
  400MOL0     H52799   4.350   6.324   4.198 -2.9047 -0.9669 -2.9750
  400MOL0     H52800   4.169   6.468   4.196 -0.1738  0.2295  0.5864
  401MOL0     O52801   7.077   9.917   8.775  0.9427 -0.2677 -0.0732
  401MOL0     C52802   6.989   9.999   8.809  0.4868  0.4962 -0.1854
  401MOL0     O52803   7.018  10.116   8.879 -0.1675  0.0647  0.2235
  401MOL0     C52804   7.157  10.148   8.872 -0.5999 -0.1696 -0.9730
  401MOL0     C52805   7.237  10.103   8.980  0.1799  0.1177  0.9161
  401MOL0     C52806   7.370  10.143   8.991 -0.2638 -0.2038  0.1810
  401MOL0     C52807   7.422  10.232   8.892 -0.2838 -0.2253  0.2185
  401MOL0     O52808   7.550  10.286   8.910 -0.3233 -1.0108 -0.1429
  401MOL0     C52809   7.620  10.365   8.823  0.5846 -0.6740 -0.3231
  401MOL0     C52810   7.748  10.412   8.888 -0.3849 -0.6997  0.1158
  401MOL0     C52811   7.732  10.552   8.950 -0.1031  0.2514 -0.3484
  401MOL0     C52812   7.858  10.587   9.033  0.1516  0.7377 -0.2308
  401MOL0     C52813   7.843  10.730   9.077 -0.2480  0.5697  0.0350
  401MOL0     C52814   7.935  10.778   9.185 -0.1330  0.2608 -1.1106
  401MOL0     C52815   7.886  10.918   9.232  0.1894  0.0054  0.0256
  401MOL0     C52816   7.774  10.914   9.329  0.8624 -0.7270 -0.6586
  401MOL0     N52817   7.814  10.847   9.450  0.9947 -0.3563 -0.8147
  401MOL0     C52818   7.729  10.766   9.519  0.0051 -1.2033  0.4857
  401MOL0     C52819   7.777  10.740   9.643 -0.0185  0.2209  0.2534
  401MOL0     C52820   7.726  10.676   9.772  0.3597  0.5182  0.0156
  401MOL0     C52821   7.577  10.664   9.784 -1.4252 -0.0285 -0.5200
  401MOL0     C52822   7.535  10.536   9.706  0.1943 -0.5349  0.1554
  401MOL0     C52823   7.386  10.502   9.704 -0.8266  0.3508 -1.0688
  401MOL0     O52824   7.314  10.602   9.633  0.0587 -0.2391 -0.1341
  401MOL0     C52825   7.170  10.584   9.626  0.3911  0.4269  0.3131
  401MOL0     C52826   7.106  10.474   9.679  1.7186  0.6826  0.5950
  401MOL0     C52827   6.963  10.464   9.670 -0.3934 -0.0925  0.5606
  401MOL0     C52828   6.889  10.560   9.595 -1.0890  0.2907  0.0652
  401MOL0     C52829   6.746  10.551   9.592  0.7112 -0.1619 -0.1731
  401MOL0     O52830   6.694  10.434   9.646 -0.6560  0.7989 -0.0707
  401MOL0     C52831   6.552  10.412   9.658 -1.0247 -0.5612 -1.0079
  401MOL0     C52832   6.492  10.299   9.591  0.1816 -0.7362  0.1200
  401MOL0     C52833   6.358  10.285   9.599  0.3087 -0.6849 -0.3014
  401MOL0     C52834   6.277  10.363   9.680  0.0998 -0.2737 -0.5359
  401MOL0     O52835   6.143  10.335   9.699 -0.4274 -0.0806  0.4482
  401MOL0     C52836   6.076  10.400   9.808 -0.5599 -0.0119  0.5000
  401MOL0     C52837   5.923  10.360   9.815  0.3320 -0.5076  0.5814
  401MOL0     C52838   5.845  10.436   9.925 -0.4909  0.0912  0.3922
  401MOL0     C52839   5.699  10.403   9.900  0.3184  0.3547 -0.2102
  401MOL0     C52840   5.598  10.458  10.005  0.2095  0.0505 -0.1764
  401MOL0     C52841   5.456  10.391  10.021 -0.6819  0.5348 -0.2554
  401MOL0     C52842   5.349  10.433   9.917 -0.4242 -0.8180  0.3770
  401MOL0     C52843   5.282  10.562   9.957  0.2267  0.0451  0.0875
  401MOL0    Cl52844   5.124  10.577   9.865 -0.0866  0.0888 -0.0012
  401MOL0     C52845   6.336  10.474   9.735  0.7665  0.8707  0.3038
  401MOL0     C52846   6.474  10.499   9.733  0.5367  0.6126  0.1767
  401MOL0     O52847   6.678  10.640   9.541 -0.2857  0.4936  0.4303
  401MOL0     C52848   6.957  10.674   9.560  0.3081  0.4326  0.7258
  401MOL0     C52849   7.093  10.682   9.571 -0.2355 -0.8178 -0.4425
  401MOL0     N52850   7.897  10.809   9.643 -0.1248 -0.5112  0.2407
  401MOL0     N52851   7.916  10.874   9.534  0.2382 -0.1607 -0.3341
  401MOL0     C52852   7.343  10.262   8.776 -0.0268  0.2599  0.1968
  401MOL0     C52853   7.213  10.220   8.764 -0.2367 -0.5376  0.0713
  401MOL0     C52854   6.852   9.971   8.768  0.3826 -0.0257 -0.4143
  401MOL0     C52855   6.752  10.056   8.801  0.4869  0.1465  0.3011
  401MOL0     C52856   6.621  10.029   8.759 -0.1857 -0.6609  0.3160
  401MOL0     C52857   6.585   9.923   8.679 -0.6056  0.0979 -0.9480
  401MOL0     O52858   6.451   9.911   8.652 -0.5408 -0.5225  0.0613
  401MOL0     C52859   6.413   9.814   8.555  0.2182 -0.3612  0.2363
  401MOL0     C52860   6.267   9.779   8.570  0.8953  0.2192  0.0886
  401MOL0     C52861   6.173   9.900   8.561 -0.2989  0.4010 -0.3618
  401MOL0     C52862   6.037   9.840   8.560  0.2158 -0.1838 -0.9720
  401MOL0     C52863   5.938   9.942   8.585 -0.2026  0.1481  0.1902
  401MOL0     C52864   5.864  10.030   8.604 -0.0459 -0.6034  0.3122
  401MOL0     C52865   6.690   9.845   8.640 -0.5405  0.1781  0.2516
  401MOL0     C52866   6.821   9.860   8.689  0.0546  0.4304  0.9201
  401MOL0     H52867   7.185  10.058   9.064 -0.6864  1.1598  0.9686
  401MOL0     H52868   7.424  10.117   9.081 -2.9654 -0.9960  1.6723
  401MOL0     H52869   7.561  10.452   8.792 -1.1701  0.1211  4.4718
  401MOL0     H52870   7.630  10.308   8.730 -3.6430 -0.5403 -1.0635
  401MOL0     H52871   7.812  10.421   8.800  0.6196  1.1348  0.9703
  401MOL0     H52872   7.798  10.341   8.954  0.6379  0.8227  1.0535
  401MOL0     H52873   7.653  10.546   9.025  2.1535  0.5395  2.1978
  401MOL0     H52874   7.716  10.622   8.867 -1.6304 -1.2915 -1.4254
  401MOL0     H52875   7.852  10.516   9.116 -1.5171 -0.1707 -1.0896
  401MOL0     H52876   7.948  10.572   8.973 -0.5379 -0.5572 -0.9768
  401MOL0     H52877   7.739  10.742   9.111 -0.1915  0.7714  0.1387
  401MOL0     H52878   7.861  10.790   8.987 -1.3898  0.0679 -0.5561
  401MOL0     H52879   8.043  10.775   9.167  0.4606  0.6814  1.8327
  401MOL0     H52880   7.922  10.704   9.265  1.8017 -1.6050 -2.4026
  401MOL0     H52881   7.974  10.967   9.274 -0.6574  2.4013 -0.8183
  401MOL0     H52882   7.853  10.991   9.157 -0.0600  0.3498  0.4726
  401MOL0     H52883   7.684  10.873   9.283 -0.0387  1.6091 -1.1672
  401MOL0     H52884   7.755  11.020   9.349  0.0610 -0.4414 -2.6943
  401MOL0     H52885   7.627  10.739   9.494 -1.6740  1.2182  3.9866
  401MOL0     H52886   7.746  10.762   9.837  1.4118  2.2013 -2.4044
  401MOL0     H52887   7.772  10.588   9.817 -0.6625 -0.3964 -0.6523
  401MOL0     H52888   7.538  10.763   9.760  1.3364  1.1068 -0.7284
  401MOL0     H52889   7.553  10.649   9.890  0.7575 -2.2409 -0.2280
  401MOL0     H52890   7.564  10.555   9.602 -0.1510  1.0318  0.3272
  401MOL0     H52891   7.595  10.449   9.736  0.2960  0.2979  2.5809
  401MOL0     H52892   7.361  10.505   9.810 -1.9667  1.2358 -1.3377
  401MOL0     H52893   7.367  10.400   9.670 -1.7123  0.0175  0.3613
  401MOL0     H52894   7.166  10.397   9.727  0.8584 -0.3811  0.0033
  401MOL0     H52895   6.916  10.370   9.697 -2.4781  1.0083  0.9687
  401MOL0     H52896   6.554  10.230   9.534 -2.0250 -1.7750 -1.1275
  401MOL0     H52897   6.309  10.196   9.561 -3.3433  1.0705 -0.1444
  401MOL0     H52898   6.075  10.507   9.784 -0.9682 -0.4918 -1.9113
  401MOL0     H52899   6.119  10.391   9.908  1.4981  1.0280 -0.2305
  401MOL0     H52900   5.912  10.252   9.831  0.7645 -0.4553  1.2981
  401MOL0     H52901   5.881  10.387   9.718 -0.5999 -0.8105  0.8887
  401MOL0     H52902   5.871  10.541   9.907  0.5366 -0.4908 -1.8616
  401MOL0     H52903   5.870  10.405  10.026  3.9345  0.3806 -0.3973
  401MOL0     H52904   5.663  10.436   9.802 -2.1291 -2.2249 -0.3287
  401MOL0     H52905   5.693  10.293   9.902  1.1808  0.3149  0.7894
  401MOL0     H52906   5.576  10.563   9.983  0.4471 -0.0576 -0.9687
  401MOL0     H52907   5.645  10.459  10.104 -2.3985  0.3054  1.1281
  401MOL0     H52908   5.421  10.405  10.124  2.5608 -2.7007  1.5368
  401MOL0     H52909   5.472  10.284  10.005  0.8269  0.7395 -0.2383
  401MOL0     H52910   5.402  10.445   9.822 -0.4160  4.9160  0.7880
  401MOL0     H52911   5.275  10.353   9.905 -2.5198  1.2898 -1.9627
  401MOL0     H52912   5.339  10.650   9.925  0.3529  0.0908  0.4306
  401MOL0     H52913   5.268  10.563  10.066  2.4494 -2.9355  0.5377
  401MOL0     H52914   6.279  10.538   9.802 -1.0809 -3.9305  3.9076
  401MOL0     H52915   6.528  10.581   9.779  2.0452  0.4250 -1.1695
  401MOL0     H52916   6.894  10.757   9.530 -2.2012 -0.1504  3.8124
  401MOL0     H52917   7.140  10.774   9.538 -1.0350  0.3534  1.5143
  401MOL0     H52918   7.386  10.319   8.694  1.0572 -0.9807 -0.1273
  401MOL0     H52919   7.150  10.251   8.682  0.0792  0.3154  0.1409
  401MOL0     H52920   6.769  10.152   8.848  1.4349  0.3179 -0.3616
  401MOL0     H52921   6.544  10.100   8.788  0.4668  1.0725 -1.9270
  401MOL0     H52922   6.477   9.725   8.553  0.2821 -0.3108 -0.2555
  401MOL0     H52923   6.425   9.845   8.450 -2.4497 -2.7094 -0.9031
  401MOL0     H52924   6.231   9.705   8.498 -2.0498  2.3427 -0.7919
  401MOL0     H52925   6.245   9.728   8.664 -4.7840  0.1636 -0.9268
  401MOL0     H52926   6.181   9.964   8.473  1.3972 -0.5600 -0.9614
  401MOL0     H52927   6.185   9.961   8.651 -3.5788 -0.9020  1.1633
  401MOL0     H52928   6.016   9.803   8.459 -0.2236 -0.4448 -0.7889
  401MOL0     H52929   6.033   9.750   8.623  1.9888  0.2293 -0.2166
  401MOL0     H52930   5.809  10.119   8.628  1.6201  0.2906  0.9400
  401MOL0     H52931   6.671   9.754   8.584 -0.6810 -1.5258  2.8766
  401MOL0     H52932   6.903   9.796   8.661 -1.2031 -0.5810 -0.5880
  402MOL0     O52933   5.760   9.009   1.180  1.0949  1.0642  0.3169
  402MOL0     C52934   5.863   8.988   1.240  0.8803 -0.4672  0.8192
  402MOL0     O52935   5.900   9.064   1.345  0.4016 -0.1122  0.2089
  402MOL0     C52936   5.819   9.152   1.412  0.4452  0.2194 -0.4361
  402MOL0     C52937   5.864   9.265   1.481 -0.1661  1.5097 -0.8827
  402MOL0     C52938   5.789   9.351   1.551 -0.3218 -0.0497 -0.1286
  402MOL0     C52939   5.655   9.330   1.565  0.8572  0.3247  0.8978
  402MOL0     O52940   5.587   9.436   1.624  0.3904  0.5646  0.2633
  402MOL0     C52941   5.473   9.409   1.709 -0.0056 -0.7846  0.8787
  402MOL0     C52942   5.429   9.533   1.761  0.9844 -0.1784 -0.4389
  402MOL0     C52943   5.295   9.500   1.841  0.6738  0.2615 -0.5872
  402MOL0     C52944   5.248   9.624   1.919 -0.4661 -0.0172 -0.7394
  402MOL0     C52945   5.116   9.601   1.991 -1.5219 -0.3331  1.0050
  402MOL0     C52946   5.090   9.684   2.111  0.4958  0.0415  0.0332
  402MOL0     C52947   4.941   9.650   2.168 -0.3530  0.4560  0.0218
  402MOL0     C52948   4.917   9.717   2.306  0.2510  0.2662  0.1074
  402MOL0     N52949   4.782   9.680   2.358 -0.0741  0.5394  0.1128
  402MOL0     C52950   4.750   9.671   2.492 -0.1431 -0.0435  0.1491
  402MOL0     C52951   4.627   9.630   2.498  0.9034 -0.0591 -0.3130
  402MOL0     C52952   4.525   9.606   2.611  0.0898  0.3234  0.3353
  402MOL0     C52953   4.518   9.723   2.702  0.2061  0.5711 -0.3611
  402MOL0     C52954   4.412   9.700   2.823  0.3197  0.3664  1.4929
  402MOL0     C52955   4.265   9.717   2.776 -0.2165 -0.0201  0.0368
  402MOL0     O52956   4.174   9.668   2.880 -0.1241  0.3764  0.1895
  402MOL0     C52957   4.045   9.714   2.883  0.1897 -1.0235 -0.0234
  402MOL0     C52958   3.965   9.667   2.989  0.3547  0.1932  0.4661
  402MOL0     C52959   3.834   9.687   2.989  0.5279 -0.2159  0.3989
  402MOL0     C52960   3.767   9.769   2.893 -0.3579 -0.1925  0.6602
  402MOL0     C52961   3.625   9.795   2.891  0.7785 -0.1308 -0.6160
  402MOL0     O52962   3.546   9.754   2.996 -0.0880  0.3527 -0.1743
  402MOL0     C52963   3.408   9.777   3.008 -0.2530  0.2958  0.1919
  402MOL0     C52964   3.358   9.731   3.134 -0.2080 -0.4370  0.1361
  402MOL0     C52965   3.227   9.742   3.163  0.7508  0.1652  1.0117
  402MOL0     C52966   3.137   9.803   3.077  0.7685  1.0294  0.6160
  402MOL0     O52967   3.020   9.831   3.131  0.1162  0.2731  0.3911
  402MOL0     C52968   2.913   9.861   3.036  1.7059  0.1184  0.7729
  402MOL0     C52969   2.780   9.865   3.116  0.3469 -0.5875 -0.5884
  402MOL0     C52970   2.750   9.734   3.194 -0.7285  0.8241  0.8557
  402MOL0     C52971   2.721   9.615   3.100  0.7452 -0.5014  0.4698
  402MOL0     C52972   2.649   9.500   3.171  0.1153 -0.4139  0.1503
  402MOL0     C52973   2.746   9.409   3.252  0.4894  0.4747  0.3612
  402MOL0     C52974   2.679   9.330   3.366 -0.1037  0.5408  0.5452
  402MOL0     C52975   2.761   9.223   3.439 -0.3011  0.7844  0.1138
  402MOL0    Cl52976   2.845   9.101   3.327  0.2102 -0.2225  0.0315
  402MOL0     C52977   3.183   9.840   2.950 -0.2535 -0.1688  0.2521
  402MOL0     C52978   3.320   9.822   2.909 -0.5994  0.0442 -0.2159
  402MOL0     O52979   3.578   9.864   2.801 -0.3738  0.2111  0.2853
  402MOL0     C52980   3.851   9.824   2.788  0.1006 -0.2024 -0.9182
  402MOL0     C52981   3.980   9.785   2.780  0.1877  1.0728 -0.8477
  402MOL0     N52982   4.586   9.621   2.362  0.7611 -0.9281 -0.9024
  402MOL0     N52983   4.673   9.661   2.279 -0.6394  0.2086  0.1256
  402MOL0     C52984   5.598   9.208   1.512  0.1231 -0.4482 -0.4729
  402MOL0     C52985   5.686   9.123   1.436  0.4381  0.3337 -0.4630
  402MOL0     C52986   5.967   8.898   1.175  0.4124  0.1325 -1.2332
  402MOL0     C52987   5.932   8.795   1.083 -0.2060  0.6723  0.7958
  402MOL0     C52988   6.023   8.712   1.013 -0.0061  0.9341 -1.1710
  402MOL0     C52989   6.161   8.729   1.030 -0.6013  0.4159  0.4958
  402MOL0     O52990   6.241   8.643   0.961  0.2575 -0.6206  0.1312
  402MOL0     C52991   6.375   8.647   0.990  0.4900  0.8292  0.0384
  402MOL0     C52992   6.435   8.549   0.891 -0.3221  0.1584 -0.4931
  402MOL0     C52993   6.582   8.592   0.862  0.0204  0.1550 -0.8593
  402MOL0     C52994   6.646   8.547   0.730 -0.3928 -0.2399 -0.3376
  402MOL0     C52995   6.560   8.560   0.610 -0.7565 -0.5824  0.7848
  402MOL0     C52996   6.467   8.560   0.533  0.4862  0.0460 -0.0353
  402MOL0     C52997   6.191   8.830   1.130  0.2212  0.4898 -0.1461
  402MOL0     C52998   6.101   8.916   1.194  0.0415  0.2752 -0.4732
  402MOL0     H52999   5.972   9.271   1.476 -0.0478 -0.3849 -1.6977
  402MOL0     H53000   5.847   9.436   1.587  0.8044 -0.2754 -1.3470
  402MOL0     H53001   5.500   9.346   1.794 -3.7102 -4.3584 -0.2780
  402MOL0     H53002   5.397   9.351   1.655 -0.2025  0.9415 -0.8027
  402MOL0     H53003   5.409   9.600   1.677  0.7822 -0.1613 -0.3787
  402MOL0     H53004   5.505   9.574   1.828 -0.0207  2.1620 -0.6426
  402MOL0     H53005   5.296   9.413   1.907 -1.2055  0.1861 -0.5821
  402MOL0     H53006   5.216   9.477   1.768  0.4901  1.8641 -0.9381
  402MOL0     H53007   5.325   9.656   1.990  0.6520  3.1292 -3.1386
  402MOL0     H53008   5.242   9.706   1.847 -0.3080  0.0001 -0.7328
  402MOL0     H53009   5.124   9.500   2.030  2.2771  0.2054  1.9970
  402MOL0     H53010   5.037   9.607   1.915  0.2800  0.2321 -0.9352
  402MOL0     H53011   5.100   9.789   2.081  0.6365 -0.4704 -1.8353
  402MOL0     H53012   5.162   9.658   2.189 -1.3802 -2.0335  1.1866
  402MOL0     H53013   4.859   9.689   2.107  0.7629  2.5446 -0.2394
  402MOL0     H53014   4.940   9.542   2.178 -2.0657  0.5094  0.6368
  402MOL0     H53015   4.929   9.826   2.302 -2.3601  0.6361  0.4703
  402MOL0     H53016   4.989   9.667   2.370  2.1095 -0.1981 -2.2024
  402MOL0     H53017   4.798   9.714   2.579 -1.2537  1.6343  0.0002
  402MOL0     H53018   4.558   9.517   2.667 -1.3037 -0.4271  0.0234
  402MOL0     H53019   4.428   9.581   2.568 -1.1844  0.6114  2.8644
  402MOL0     H53020   4.486   9.813   2.648 -1.7034 -1.9779 -3.8970
  402MOL0     H53021   4.615   9.737   2.750  0.0778  0.6419 -0.1174
  402MOL0     H53022   4.426   9.598   2.859  0.4082  0.1113  0.7484
  402MOL0     H53023   4.436   9.776   2.898  1.5715  0.4759  1.0088
  402MOL0     H53024   4.253   9.651   2.690  2.1155 -0.9403  0.3547
  402MOL0     H53025   4.236   9.819   2.752  1.4379  0.5810  0.4697
  402MOL0     H53026   4.018   9.616   3.069  3.6665  0.9957 -1.0307
  402MOL0     H53027   3.772   9.649   3.069 -0.3066  0.2535 -0.0187
  402MOL0     H53028   3.419   9.673   3.203  0.0017  0.3895  0.6510
  402MOL0     H53029   3.179   9.702   3.252 -2.7728 -0.0203 -0.7942
  402MOL0     H53030   2.908   9.786   2.956  0.3119 -0.9931  1.8366
  402MOL0     H53031   2.923   9.947   2.970 -0.6727 -0.7005 -0.7749
  402MOL0     H53032   2.704   9.889   3.041  1.2177  2.4925 -0.6164
  402MOL0     H53033   2.768   9.948   3.186 -2.0225  1.0717 -2.7544
  402MOL0     H53034   2.666   9.740   3.263 -1.3454  1.1763  0.0877
  402MOL0     H53035   2.842   9.715   3.250  0.7008  0.6882 -1.3929
  402MOL0     H53036   2.656   9.657   3.023 -0.3648 -0.1440  1.5564
  402MOL0     H53037   2.811   9.569   3.059  1.2126  0.1803  0.7246
  402MOL0     H53038   2.601   9.437   3.095  0.6398 -0.7628  0.1023
  402MOL0     H53039   2.570   9.541   3.234  1.7469  2.1138  0.7050
  402MOL0     H53040   2.820   9.475   3.297  0.9120  1.5746 -1.8370
  402MOL0     H53041   2.805   9.349   3.181 -0.1584  0.7209 -0.4026
  402MOL0     H53042   2.627   9.397   3.435 -1.1609  2.1138 -1.6266
  402MOL0     H53043   2.592   9.279   3.323 -1.0476  0.7202  2.1564
  402MOL0     H53044   2.694   9.163   3.500 -0.0058 -1.0019 -1.2212
  402MOL0     H53045   2.835   9.279   3.497  0.6268 -0.7793  0.4966
  402MOL0     H53046   3.125   9.906   2.885 -0.6697  0.9553  1.7041
  402MOL0     H53047   3.344   9.862   2.811 -3.0514 -0.2863 -1.0386
  402MOL0     H53048   3.798   9.868   2.704 -1.3416 -0.1847 -0.0323
  402MOL0     H53049   4.029   9.822   2.690  0.2601 -0.6326 -1.5539
  402MOL0     H53050   5.494   9.177   1.504  0.0641  0.0420 -1.9752
  402MOL0     H53051   5.643   9.033   1.393  1.2912 -0.6822  0.7075
  402MOL0     H53052   5.827   8.777   1.067 -0.2312  0.4250  1.2169
  402MOL0     H53053   5.989   8.628   0.952 -0.3954  1.9581 -2.4090
  402MOL0     H53054   6.395   8.622   1.095 -0.3868  0.6819  0.1778
  402MOL0     H53055   6.418   8.747   0.975  2.4594  0.1440  0.7702
  402MOL0     H53056   6.433   8.445   0.926 -1.6143  0.8474  1.7171
  402MOL0     H53057   6.376   8.569   0.801 -0.2405  3.3530  0.0245
  402MOL0     H53058   6.646   8.541   0.935 -2.0939 -1.9298 -0.3327
  402MOL0     H53059   6.592   8.699   0.880 -1.9522 -0.0952  2.7501
  402MOL0     H53060   6.738   8.605   0.718  0.7789 -1.7409  0.9723
  402MOL0     H53061   6.684   8.446   0.746 -0.7973 -0.4371 -0.6011
  402MOL0     H53062   6.380   8.555   0.471 -0.8947  0.6139  1.7678
  402MOL0     H53063   6.298   8.840   1.146  1.0860 -4.3206 -1.2410
  402MOL0     H53064   6.120   9.009   1.246 -2.1858  0.6806 -0.2741
  403MOL0     O53065   6.585   1.581   1.391 -0.4063 -0.1006  0.8539
  403MOL0     C53066   6.613   1.702   1.407 -0.0762 -0.3237  0.7587
  403MOL0     O53067   6.525   1.800   1.409 -0.8127 -0.2775 -0.3994
  403MOL0     C53068   6.388   1.777   1.406 -1.1257  0.9136  0.1540
  403MOL0     C53069   6.329   1.722   1.521  0.2823  0.4750  0.0591
  403MOL0     C53070   6.191   1.686   1.529 -0.4681 -0.6534  0.3376
  403MOL0     C53071   6.119   1.717   1.414 -0.2008  0.3660  0.5749
  403MOL0     O53072   5.987   1.688   1.393 -0.3762  0.3151  0.2867
  403MOL0     C53073   5.920   1.575   1.450  0.1878  0.3542 -0.7016
  403MOL0     C53074   5.768   1.579   1.422  0.0087  0.0079 -0.4918
  403MOL0     C53075   5.685   1.689   1.497 -0.1691 -0.9831  1.5031
  403MOL0     C53076   5.543   1.628   1.520 -0.0517  0.9297 -0.3096
  403MOL0     C53077   5.450   1.710   1.607  0.2079 -0.3431 -0.1379
  403MOL0     C53078   5.424   1.842   1.539  0.5734 -0.0631 -1.0333
  403MOL0     C53079   5.299   1.905   1.590 -0.1391  0.0569 -0.5129
  403MOL0     C53080   5.279   2.043   1.526  0.2973 -1.0972  0.6913
  403MOL0     N53081   5.152   2.106   1.564 -0.5178  0.0757 -0.1880
  403MOL0     C53082   5.099   2.141   1.689  0.2418 -0.3848  0.3649
  403MOL0     C53083   4.970   2.184   1.667 -0.2718  0.4820 -0.0395
  403MOL0     C53084   4.871   2.233   1.782  0.4333  0.7047 -0.2950
  403MOL0     C53085   4.765   2.127   1.820 -0.2298 -0.1632  0.5650
  403MOL0     C53086   4.667   2.098   1.701  0.1332 -0.6120  0.2924
  403MOL0     C53087   4.562   1.990   1.740  0.4500  0.0176 -0.7130
  403MOL0     O53088   4.506   2.035   1.867 -0.0970 -0.2302  0.5209
  403MOL0     C53089   4.394   2.116   1.868 -0.0975  1.4608  0.2245
  403MOL0     C53090   4.319   2.151   1.751  0.3050 -0.2168 -0.2362
  403MOL0     C53091   4.212   2.241   1.772 -0.8873  0.4216  0.5681
  403MOL0     C53092   4.174   2.286   1.897  0.8392 -0.0758  0.8596
  403MOL0     C53093   4.040   2.352   1.915 -0.5606  0.4386 -0.2936
  403MOL0     O53094   4.010   2.387   2.040 -0.1611  0.0297 -0.1321
  403MOL0     C53095   3.910   2.464   2.056  0.6086 -1.1000 -0.7324
  403MOL0     C53096   3.779   2.424   2.025 -1.2066 -0.0340  0.3248
  403MOL0     C53097   3.677   2.521   2.046 -0.7837 -0.1278  0.4093
  403MOL0     C53098   3.706   2.654   2.087  0.1866  1.1097  0.0526
  403MOL0     O53099   3.597   2.739   2.109  0.1913 -0.1491  0.3579
  403MOL0     C53100   3.645   2.874   2.110  0.0778 -0.3627 -0.2769
  403MOL0     C53101   3.545   2.992   2.109 -0.8832  0.2233  1.0959
  403MOL0     C53102   3.474   2.995   2.248  0.1094 -0.3506  0.4744
  403MOL0     C53103   3.405   3.135   2.269 -0.0543 -0.3790 -0.8774
  403MOL0     C53104   3.336   3.159   2.409  0.1754  0.7877 -0.5341
  403MOL0     C53105   3.187   3.105   2.396 -0.2433 -0.6955  0.3704
  403MOL0     C53106   3.120   3.140   2.526 -0.1600  0.9007 -0.0522
  403MOL0     C53107   2.967   3.119   2.525  0.4020 -0.1265  0.0084
  403MOL0    Cl53108   2.897   3.217   2.391  0.2507 -0.3010  0.4301
  403MOL0     C53109   3.838   2.683   2.124  0.0790 -0.0704 -0.6548
  403MOL0     C53110   3.942   2.591   2.103  0.4871  0.6195  0.2253
  403MOL0     O53111   3.971   2.373   1.811 -1.0137  0.7219  0.0112
  403MOL0     C53112   4.251   2.252   2.010  0.7929  0.5032 -0.0752
  403MOL0     C53113   4.360   2.158   1.988 -0.5331 -0.7198 -1.1444
  403MOL0     N53114   4.958   2.191   1.532  0.1851 -0.0681 -0.0281
  403MOL0     N53115   5.060   2.143   1.472  0.1397  0.3975 -0.4295
  403MOL0     C53116   6.169   1.778   1.302  0.4090  0.1410 -0.0893
  403MOL0     C53117   6.309   1.795   1.303  0.2826 -0.2382  0.7642
  403MOL0     C53118   6.761   1.731   1.429  0.6701 -0.2208 -0.2171
  403MOL0     C53119   6.846   1.618   1.455  0.0156  0.0156 -0.6083
  403MOL0     C53120   6.983   1.646   1.441 -0.4284  0.3448  0.2627
  403MOL0     C53121   7.045   1.776   1.438  0.1995  0.1637 -0.5719
  403MOL0     O53122   7.180   1.789   1.442 -0.3363  0.0337 -0.1917
  403MOL0     C53123   7.240   1.906   1.388 -0.3251 -0.2872 -0.7213
  403MOL0     C53124   7.389   1.907   1.409  0.0503  0.4125 -1.0074
  403MOL0     C53125   7.469   1.998   1.326  0.5449  0.4251  0.3973
  403MOL0     C53126   7.615   1.976   1.360 -0.6047  0.5001 -0.0019
  403MOL0     C53127   7.707   2.061   1.271  0.4556 -0.6069 -0.8895
  403MOL0     C53128   7.788   2.129   1.224 -0.1102 -0.0758  0.0417
  403MOL0     C53129   6.954   1.881   1.437 -0.2096 -0.9046  1.1735
  403MOL0     C53130   6.814   1.866   1.413 -0.8845 -0.4982  0.7754
  403MOL0     H53131   6.384   1.701   1.613 -3.0217 -1.8405  1.7175
  403MOL0     H53132   6.137   1.651   1.616 -2.2281 -2.3264 -1.3273
  403MOL0     H53133   5.929   1.571   1.559 -1.6300  5.3854 -0.1222
  403MOL0     H53134   5.963   1.487   1.402 -1.3146  0.5635 -2.5433
  403MOL0     H53135   5.742   1.480   1.460 -0.0090  1.2017  2.9465
  403MOL0     H53136   5.750   1.610   1.318 -0.5859  2.7647  0.3544
  403MOL0     H53137   5.686   1.778   1.434  1.6453 -0.3930  2.2990
  403MOL0     H53138   5.731   1.714   1.594 -2.0890  2.6577  1.6357
  403MOL0     H53139   5.494   1.612   1.424 -1.7217  0.7598  0.5433
  403MOL0     H53140   5.559   1.530   1.566  0.0583 -1.2028 -4.4172
  403MOL0     H53141   5.501   1.731   1.702  1.5781  0.2192 -0.9751
  403MOL0     H53142   5.362   1.646   1.615  0.9051 -1.3582 -0.4406
  403MOL0     H53143   5.411   1.811   1.435 -0.4686 -1.6420 -0.4690
  403MOL0     H53144   5.510   1.909   1.531  1.4590 -1.1142 -0.5144
  403MOL0     H53145   5.210   1.848   1.562  0.6527 -1.5450  0.1615
  403MOL0     H53146   5.303   1.922   1.698 -2.2604  0.4073 -0.4333
  403MOL0     H53147   5.270   2.030   1.417  4.3870 -0.4637  0.1011
  403MOL0     H53148   5.358   2.118   1.539 -1.1700  0.7037 -0.2169
  403MOL0     H53149   5.156   2.125   1.779 -1.6355  0.3507  1.7673
  403MOL0     H53150   4.816   2.323   1.751 -0.4806  0.6026  0.9832
  403MOL0     H53151   4.926   2.255   1.874 -2.2370  0.7348  1.3984
  403MOL0     H53152   4.708   2.176   1.899  0.5654  2.1559 -0.1984
  403MOL0     H53153   4.813   2.033   1.848  2.8034  1.1703  0.3212
  403MOL0     H53154   4.623   2.194   1.672 -2.0713 -1.2100  1.4619
  403MOL0     H53155   4.714   2.059   1.610  2.0172  2.0232  0.0002
  403MOL0     H53156   4.613   1.898   1.769  0.2167  0.6555  2.0281
  403MOL0     H53157   4.495   1.980   1.655  0.4986 -3.8117 -0.4443
  403MOL0     H53158   4.353   2.124   1.652  3.4536  1.1912  0.3616
  403MOL0     H53159   4.147   2.261   1.688 -2.1586 -2.4437  0.7731
  403MOL0     H53160   3.743   2.334   1.976  0.8813 -0.3068 -0.8082
  403MOL0     H53161   3.578   2.481   2.028  0.2033 -1.4667 -2.6289
  403MOL0     H53162   3.711   2.895   2.026  2.4292  2.1079  1.9953
  403MOL0     H53163   3.705   2.882   2.201 -3.3044  1.1079  2.0379
  403MOL0     H53164   3.468   2.981   2.032  0.4699 -1.0439 -0.1310
  403MOL0     H53165   3.600   3.085   2.094 -1.6535  0.3148 -1.7289
  403MOL0     H53166   3.537   2.974   2.335  0.6029  1.9063  0.7374
  403MOL0     H53167   3.395   2.920   2.250 -2.1283  1.6803 -2.5833
  403MOL0     H53168   3.480   3.215   2.258  0.7996  0.1651  5.3921
  403MOL0     H53169   3.326   3.137   2.193  0.3467  0.0981 -1.2941
  403MOL0     H53170   3.334   3.264   2.440 -0.0365  0.4210  0.7700
  403MOL0     H53171   3.396   3.112   2.487 -0.2808 -1.6729 -1.5769
  403MOL0     H53172   3.177   2.998   2.372 -0.2671 -0.8366  1.0009
  403MOL0     H53173   3.142   3.162   2.314  0.8971 -1.6642 -0.9719
  403MOL0     H53174   3.162   3.080   2.607 -2.6127 -0.7332  0.1211
  403MOL0     H53175   3.145   3.242   2.555  1.1406  1.1510 -1.9152
  403MOL0     H53176   2.923   3.139   2.623 -0.9682  1.0408 -0.8004
  403MOL0     H53177   2.955   3.012   2.504  2.9544 -0.3439 -0.7160
  403MOL0     H53178   3.873   2.775   2.169  2.0666  0.9068 -3.8593
  403MOL0     H53179   4.046   2.608   2.128  0.7019 -1.4506  0.9328
  403MOL0     H53180   4.216   2.293   2.104 -1.6275  1.0068 -1.1197
  403MOL0     H53181   4.422   2.135   2.074 -3.4564 -1.3722  0.9490
  403MOL0     H53182   6.109   1.806   1.216 -0.1848 -1.6891 -0.3047
  403MOL0     H53183   6.361   1.831   1.215  1.0639  0.9030  1.6587
  403MOL0     H53184   6.810   1.516   1.466 -0.2885  0.3160  1.6679
  403MOL0     H53185   7.056   1.566   1.430  2.1542  2.5561  0.3608
  403MOL0     H53186   7.211   2.003   1.430 -1.4692 -0.6138 -0.7139
  403MOL0     H53187   7.215   1.918   1.282 -1.3079  0.1425 -0.4581
  403MOL0     H53188   7.400   1.928   1.516  2.2967 -0.6959 -0.9812
  403MOL0     H53189   7.422   1.804   1.395  1.9554  0.9508 -0.7404
  403MOL0     H53190   7.440   2.102   1.346 -0.1534  0.1733  0.7230
  403MOL0     H53191   7.449   1.976   1.221 -3.3360 -0.9685  1.2835
  403MOL0     H53192   7.620   2.013   1.462 -2.1638  2.3198 -0.5240
  403MOL0     H53193   7.644   1.871   1.371  0.8936  0.7708 -1.1261
  403MOL0     H53194   7.855   2.205   1.188 -0.6907  0.4153 -0.0225
  403MOL0     H53195   7.003   1.978   1.431 -1.1938 -0.4059  0.8782
  403MOL0     H53196   6.747   1.948   1.393  1.4212  1.0083 -1.4908
  404MOL0     O53197   8.002  10.899   1.660 -0.0714  0.2720 -0.1899
  404MOL0     C53198   8.031  10.884   1.786  0.7780  0.3249  0.5787
  404MOL0     O53199   7.934  10.870   1.883 -0.3308 -0.1406 -0.8768
  404MOL0     C53200   7.814  10.929   1.864  1.2566 -0.5708  0.4200
  404MOL0     C53201   7.698  10.844   1.874 -0.7286  0.0077  0.1690
  404MOL0     C53202   7.572  10.899   1.849  0.5519  0.8892  0.0120
  404MOL0     C53203   7.549  11.027   1.814  0.4377  0.5289  1.0778
  404MOL0     O53204   7.413  11.054   1.802  0.1418 -0.2113  0.5376
  404MOL0     C53205   7.389  11.182   1.748  0.1478 -0.9026 -0.1303
  404MOL0     C53206   7.236  11.193   1.702 -0.2762  0.2417  0.9093
  404MOL0     C53207   7.129  11.167   1.804 -0.1947 -0.1256 -0.3960
  404MOL0     C53208   6.983  11.181   1.742  0.4368  0.2663 -0.3532
  404MOL0     C53209   6.879  11.140   1.852 -0.3203  0.8197  0.1884
  404MOL0     C53210   6.737  11.114   1.800 -0.6926 -0.5597  0.2305
  404MOL0     C53211   6.637  11.082   1.902 -0.0712  0.4038  0.0518
  404MOL0     C53212   6.493  11.064   1.829 -0.8505 -1.2882  0.1925
  404MOL0     N53213   6.438  11.191   1.775  0.3592 -0.7958  0.2377
  404MOL0     C53214   6.387  11.287   1.857 -0.1543  0.6319 -0.6281
  404MOL0     C53215   6.373  11.394   1.782 -0.2297 -0.1982  0.3029
  404MOL0     C53216   6.323  11.528   1.822 -1.1634 -0.1705 -0.1834
  404MOL0     C53217   6.172  11.532   1.857  0.9035  0.1781 -0.3634
  404MOL0     C53218   6.089  11.528   1.723 -0.1696 -0.4156 -0.2169
  404MOL0     C53219   5.946  11.556   1.758  0.3214 -0.0364 -0.3974
  404MOL0     O53220   5.870  11.539   1.639  0.6766 -0.4797 -0.0672
  404MOL0     C53221   5.739  11.577   1.638  0.2531 -0.3495  0.0503
  404MOL0     C53222   5.667  11.631   1.743  0.1502 -0.2213  0.6272
  404MOL0     C53223   5.529  11.649   1.744 -1.0545  0.1728 -0.3509
  404MOL0     C53224   5.459  11.610   1.625  0.0049  0.0639 -0.5772
  404MOL0     C53225   5.308  11.639   1.612 -1.2196  0.0251  0.7246
  404MOL0     O53226   5.262  11.715   1.717 -0.0534  0.0618 -0.0390
  404MOL0     C53227   5.137  11.756   1.729 -0.5060 -0.3564 -0.1201
  404MOL0     C53228   5.106  11.885   1.790  0.4696  0.5598  0.0936
  404MOL0     C53229   4.977  11.932   1.802  0.2693 -0.2925  1.0996
  404MOL0     C53230   4.871  11.851   1.747  1.6566  0.1380  1.5796
  404MOL0     O53231   4.737  11.892   1.759 -0.3358 -0.2823  0.4647
  404MOL0     C53232   4.711  12.026   1.800  0.5234 -0.6439 -0.1080
  404MOL0     C53233   4.724  12.047   1.951  0.4357 -0.2062 -0.8782
  404MOL0     C53234   4.602  11.984   2.027  0.3327  0.4402  0.0921
  404MOL0     C53235   4.505  12.085   2.082  0.7637  0.4618  0.1896
  404MOL0     C53236   4.357  12.039   2.107  0.2612  0.2630 -0.3260
  404MOL0     C53237   4.270  12.156   2.160  0.3725 -0.5106  0.4494
  404MOL0     C53238   4.127  12.103   2.180 -0.4073  0.2894  0.3531
  404MOL0     C53239   4.020  12.203   2.194  0.1805  0.0833 -0.1881
  404MOL0    Cl53240   4.070  12.334   2.301 -0.1876 -0.2888  0.5332
  404MOL0     C53241   4.904  11.734   1.681  0.0023  0.4699  0.2823
  404MOL0     C53242   5.029  11.684   1.688  0.2924  0.2752  1.0149
  404MOL0     O53243   5.247  11.593   1.514  0.2335 -0.3150 -0.2820
  404MOL0     C53244   5.527  11.561   1.516 -0.5175  0.0292 -0.6479
  404MOL0     C53245   5.669  11.544   1.518 -1.3246  0.0996 -0.5095
  404MOL0     N53246   6.384  11.359   1.646 -0.0019 -0.0298 -0.1184
  404MOL0     N53247   6.422  11.237   1.645  0.0443  0.7882 -0.0392
  404MOL0     C53248   7.666  11.111   1.798 -0.4231  0.1109 -1.5747
  404MOL0     C53249   7.792  11.060   1.824 -0.0855 -1.0635 -0.4556
  404MOL0     C53250   8.172  10.870   1.825 -0.4249 -0.4370  0.6844
  404MOL0     C53251   8.280  10.908   1.741  0.6634 -1.1511  0.0437
  404MOL0     C53252   8.411  10.899   1.783  0.0020 -0.1657 -0.2183
  404MOL0     C53253   8.450  10.845   1.907  0.8485  0.1343  0.4979
  404MOL0     O53254   8.585  10.856   1.932  0.0736 -0.0354 -0.2564
  404MOL0     C53255   8.642  10.805   2.055  0.1338  0.1579 -0.0487
  404MOL0     C53256   8.791  10.807   2.043 -0.8839  0.9078 -0.0592
  404MOL0     C53257   8.846  10.940   2.027 -0.3657 -0.5801 -0.0578
  404MOL0     C53258   8.993  10.942   2.065 -1.0726 -0.0396  0.0450
  404MOL0     C53259   9.086  10.900   1.959 -0.9532 -0.7272 -0.5136
  404MOL0     C53260   9.168  10.845   1.892  0.3451  0.3371  0.0776
  404MOL0     C53261   8.347  10.796   1.990 -0.1495 -0.0615 -0.3071
  404MOL0     C53262   8.214  10.812   1.950 -0.3168 -0.1712 -0.2866
  404MOL0     H53263   7.707  10.741   1.906 -2.2504 -0.4779 -0.8523
  404MOL0     H53264   7.481  10.839   1.857  1.0411  0.3255  2.0294
  404MOL0     H53265   7.457  11.196   1.663 -0.7214  1.1186 -0.5537
  404MOL0     H53266   7.417  11.253   1.826  1.7204 -0.3857 -1.1036
  404MOL0     H53267   7.217  11.123   1.620 -0.9510 -0.2750  1.4874
  404MOL0     H53268   7.223  11.297   1.671 -2.6179 -0.1363  0.4614
  404MOL0     H53269   7.139  11.232   1.891  0.0150 -0.2617 -0.3177
  404MOL0     H53270   7.137  11.063   1.834  0.1185 -0.1392 -0.5235
  404MOL0     H53271   6.961  11.284   1.714 -0.4894 -0.3155 -1.8895
  404MOL0     H53272   6.983  11.121   1.651 -1.8940  3.4856 -2.6686
  404MOL0     H53273   6.887  11.218   1.928 -1.1863  2.0911 -0.9646
  404MOL0     H53274   6.912  11.043   1.890  0.7046  0.6777 -0.9993
  404MOL0     H53275   6.739  11.040   1.719 -0.8758 -0.0559 -0.2321
  404MOL0     H53276   6.701  11.210   1.763  0.5797  0.2795  1.0724
  404MOL0     H53277   6.672  10.989   1.948 -1.1784  0.6338  1.4252
  404MOL0     H53278   6.630  11.156   1.982 -0.7150  0.4802 -0.0695
  404MOL0     H53279   6.418  11.024   1.897 -0.3022  1.4239  2.6089
  404MOL0     H53280   6.506  11.002   1.740  1.2573 -2.2252  1.0792
  404MOL0     H53281   6.385  11.290   1.966  0.8929  0.0924 -0.5816
  404MOL0     H53282   6.338  11.600   1.741 -1.4084  0.7550  0.5744
  404MOL0     H53283   6.381  11.563   1.908 -0.9507 -1.1932  0.0965
  404MOL0     H53284   6.138  11.618   1.913 -1.6067  1.2053 -3.2060
  404MOL0     H53285   6.146  11.443   1.915 -2.9340  0.0501 -2.0123
  404MOL0     H53286   6.126  11.611   1.662  0.0178  1.7475  2.6528
  404MOL0     H53287   6.095  11.430   1.674  1.5789 -0.6242  0.3419
  404MOL0     H53288   5.929  11.659   1.790 -1.1596 -0.1986 -0.5873
  404MOL0     H53289   5.915  11.489   1.839  3.2045 -0.2295  0.6503
  404MOL0     H53290   5.729  11.676   1.821  0.9411  0.4083 -0.3391
  404MOL0     H53291   5.481  11.692   1.832  1.3476  0.6777  0.7874
  404MOL0     H53292   5.196  11.937   1.821  1.4191 -1.1147  0.2794
  404MOL0     H53293   4.975  12.030   1.849 -2.8137  0.5901 -0.6691
  404MOL0     H53294   4.609  12.053   1.769  0.2113 -1.6104  0.0319
  404MOL0     H53295   4.774  12.101   1.751  0.0823 -1.4195 -1.9148
  404MOL0     H53296   4.739  12.150   1.986 -2.4050  0.8884 -2.5652
  404MOL0     H53297   4.806  11.985   1.988  0.2329  0.0958  0.1275
  404MOL0     H53298   4.642  11.928   2.112  1.4538  1.1593  0.0720
  404MOL0     H53299   4.551  11.920   1.955 -0.9809  1.7105 -0.1403
  404MOL0     H53300   4.547  12.114   2.179 -1.0572  0.7117  0.9532
  404MOL0     H53301   4.505  12.180   2.027 -0.9147  1.3884  1.6714
  404MOL0     H53302   4.367  11.957   2.179 -0.0012  0.7721  0.3044
  404MOL0     H53303   4.314  11.995   2.017  0.7547 -0.1813 -0.3493
  404MOL0     H53304   4.269  12.243   2.093 -1.4158 -0.5801  0.3406
  404MOL0     H53305   4.305  12.175   2.261 -2.5172 -1.0175  1.6574
  404MOL0     H53306   4.087  12.049   2.094 -1.2305  3.1341 -1.2068
  404MOL0     H53307   4.118  12.064   2.281 -1.2459 -0.8421 -0.1430
  404MOL0     H53308   3.926  12.167   2.238 -0.8572  1.6059 -1.0710
  404MOL0     H53309   3.987  12.236   2.095 -0.5222  0.4176  0.1491
  404MOL0     H53310   4.821  11.683   1.634 -0.6763  2.1027 -0.3570
  404MOL0     H53311   5.037  11.581   1.657 -1.1581  1.3817 -3.8938
  404MOL0     H53312   5.469  11.544   1.425 -1.4210  4.6013 -1.1813
  404MOL0     H53313   5.724  11.501   1.435 -0.8489 -0.9930  0.3379
  404MOL0     H53314   7.656  11.218   1.779 -0.6964 -0.1205 -2.7543
  404MOL0     H53315   7.875  11.130   1.823  1.4210 -2.6030  2.2889
  404MOL0     H53316   8.268  10.944   1.639  0.4479 -0.8108  0.1882
  404MOL0     H53317   8.486  10.936   1.715  0.3567 -2.1897 -0.9869
  404MOL0     H53318   8.625  10.697   2.058  1.5436 -0.2433 -2.7517
  404MOL0     H53319   8.606  10.854   2.146  5.0250  0.4538  2.0465
  404MOL0     H53320   8.831  10.765   2.136  0.3562 -0.5637 -1.2014
  404MOL0     H53321   8.824  10.759   1.951 -2.5998  1.1502 -0.8233
  404MOL0     H53322   8.798  10.996   2.108 -1.1559 -2.4252  0.8101
  404MOL0     H53323   8.832  10.987   1.929 -0.8560 -0.5689  0.0132
  404MOL0     H53324   9.005  11.046   2.095 -0.1771 -0.4945  1.3557
  404MOL0     H53325   9.011  10.885   2.156 -1.5278  0.4430  0.4412
  404MOL0     H53326   9.237  10.798   1.825  1.1229  0.9083  0.4595
  404MOL0     H53327   8.369  10.734   2.077 -0.9986 -1.8396 -1.3120
  404MOL0     H53328   8.137  10.781   2.020  2.1307 -0.2132  2.5772
  405MOL0     O53329   6.673   0.005  10.295 -0.5228 -0.6163 -0.2630
  405MOL0     C53330   6.761   0.037  10.212 -0.2030  0.6334 -0.4324
  405MOL0     O53331   6.759   0.148  10.134 -0.7379 -0.1033  0.6850
  405MOL0     C53332   6.648   0.215  10.097  0.2999  0.7228  0.5485
  405MOL0     C53333   6.525   0.151  10.073 -0.0120  0.0006 -0.3628
  405MOL0     C53334   6.409   0.226  10.056 -0.7474 -0.6002 -0.5404
  405MOL0     C53335   6.404   0.371  10.065  0.2367 -0.5549 -0.1909
  405MOL0     O53336   6.290   0.447  10.048  0.7608  0.2066  0.6774
  405MOL0     C53337   6.166   0.390  10.076  0.7466 -0.5914  0.0463
  405MOL0     C53338   6.058   0.496  10.043  0.2366 -0.4118  0.2596
  405MOL0     C53339   5.916   0.460  10.096 -1.0790 -0.4613  0.2852
  405MOL0     C53340   5.829   0.584  10.093  0.0538 -0.0378 -0.0670
  405MOL0     C53341   5.676   0.545  10.122 -0.5432  0.6827 -0.7441
  405MOL0     C53342   5.596   0.674  10.110 -0.9717  0.6507 -0.0781
  405MOL0     C53343   5.447   0.652  10.137  0.4395 -0.6284 -0.0873
  405MOL0     C53344   5.365   0.686  10.010  0.7840  0.4761  0.7008
  405MOL0     N53345   5.220   0.676  10.020 -1.3231  0.2901  0.5156
  405MOL0     C53346   5.137   0.782  10.045  0.2042 -0.9381  0.4562
  405MOL0     C53347   5.013   0.748  10.016  0.3559 -0.4605 -0.1273
  405MOL0     C53348   4.884   0.816  10.018 -0.7208  0.5342  1.3972
  405MOL0     C53349   4.883   0.912   9.898  0.9782 -0.9836 -0.3237
  405MOL0     C53350   4.741   0.970   9.874  0.0420  0.6001  0.3544
  405MOL0     C53351   4.627   0.871   9.874  0.6329  0.2090  0.1636
  405MOL0     O53352   4.527   0.918   9.776 -0.1819 -0.1304 -0.4170
  405MOL0     C53353   4.396   0.889   9.804  0.6457  0.0019 -0.3210
  405MOL0     C53354   4.314   0.879   9.694  0.5235  0.0388 -0.1214
  405MOL0     C53355   4.172   0.868   9.704 -0.3511  0.4575  0.0778
  405MOL0     C53356   4.113   0.861   9.828  0.0039  0.8046  0.2639
  405MOL0     C53357   3.964   0.863   9.838 -0.6709 -0.2993 -0.1067
  405MOL0     O53358   3.895   0.905   9.724  0.4903  0.1035  0.2633
  405MOL0     C53359   3.758   0.868   9.723  0.2285  0.3238  0.6179
  405MOL0     C53360   3.711   0.737   9.706 -0.4875  0.5448  0.5715
  405MOL0     C53361   3.578   0.709   9.699 -0.9670  0.0108  0.4014
  405MOL0     C53362   3.491   0.821   9.679  1.0478  0.1678 -0.0108
  405MOL0     O53363   3.354   0.806   9.671 -0.0057 -0.7072 -0.1630
  405MOL0     C53364   3.298   0.674   9.710  0.1873  0.3154 -0.5897
  405MOL0     C53365   3.154   0.688   9.743 -0.6684 -0.2897 -1.3252
  405MOL0     C53366   3.062   0.670   9.625 -0.3179 -0.4313 -0.7177
  405MOL0     C53367   2.922   0.742   9.643 -0.1243 -0.2210  0.0391
  405MOL0     C53368   2.829   0.680   9.528 -0.1987  0.1519  0.0570
  405MOL0     C53369   2.710   0.770   9.500 -0.2106 -0.1537  0.0217
  405MOL0     C53370   2.753   0.897   9.429  0.1093 -0.1669  0.6902
  405MOL0     C53371   2.635   0.988   9.418  0.2523 -0.2208 -0.1377
  405MOL0    Cl53372   2.691   1.144   9.362  0.1840  0.0294 -0.4959
  405MOL0     C53373   3.531   0.949   9.683 -0.4992 -0.9507  0.7489
  405MOL0     C53374   3.671   0.974   9.710  0.1392  0.9848 -0.0465
  405MOL0     O53375   3.909   0.824   9.939 -0.1240  0.7833  0.4952
  405MOL0     C53376   4.198   0.846   9.931  0.3890 -0.2163  0.0561
  405MOL0     C53377   4.336   0.863   9.927  0.2180 -0.3107  0.8314
  405MOL0     N53378   5.027   0.616   9.969 -0.3385 -0.0047  0.0206
  405MOL0     N53379   5.149   0.568   9.973  0.2515  0.0126  0.2286
  405MOL0     C53380   6.527   0.431  10.077 -0.5751  0.6942 -0.0941
  405MOL0     C53381   6.644   0.354  10.085 -0.0410 -1.2146  1.2659
  405MOL0     C53382   6.888  -0.041  10.227 -0.6155  0.2286  0.1355
  405MOL0     C53383   6.900  -0.145  10.312 -0.4817  0.3126 -0.5173
  405MOL0     C53384   7.022  -0.214  10.323 -0.1173 -0.2714 -0.1818
  405MOL0     C53385   7.134  -0.177  10.249 -0.1771 -0.2766  0.4005
  405MOL0     O53386   7.247  -0.253  10.263 -0.9664 -0.2011 -0.3491
  405MOL0     C53387   7.370  -0.226  10.186  0.2879 -1.0345 -0.4788
  405MOL0     C53388   7.486  -0.301  10.240 -0.1939  0.2787 -0.1133
  405MOL0     C53389   7.624  -0.273  10.172 -0.0315  1.5177  0.6335
  405MOL0     C53390   7.675  -0.130  10.177  0.2555 -0.1154  0.6364
  405MOL0     C53391   7.801  -0.120  10.108 -0.4297 -0.2228 -1.3937
  405MOL0     C53392   7.910  -0.112  10.052  0.1398  0.5152 -0.6867
  405MOL0     C53393   7.127  -0.065  10.162  0.5259 -0.1675  0.3974
  405MOL0     C53394   7.002   0.011  10.155 -0.2504  0.2713 -0.4338
  405MOL0     H53395   6.499   0.046  10.077  0.3902 -0.1993 -2.1727
  405MOL0     H53396   6.332   0.153  10.033  0.7870 -1.3609 -3.8385
  405MOL0     H53397   6.164   0.371  10.184 -1.4784 -2.7082 -0.2598
  405MOL0     H53398   6.139   0.299  10.022  0.9948  0.3426 -1.7567
  405MOL0     H53399   6.059   0.500   9.933 -1.4354 -1.3873  0.1813
  405MOL0     H53400   6.088   0.598  10.069  1.4508 -0.4662 -0.7845
  405MOL0     H53401   5.932   0.418  10.196  4.0221 -0.4206 -0.2390
  405MOL0     H53402   5.865   0.390  10.030  2.8203 -0.9481 -2.5455
  405MOL0     H53403   5.858   0.649  10.175 -0.7428  1.0325 -0.6172
  405MOL0     H53404   5.842   0.644  10.002  1.6605  1.3699  1.0537
  405MOL0     H53405   5.653   0.529  10.228 -1.0737  1.5846 -0.7050
  405MOL0     H53406   5.649   0.466  10.052 -2.0619  2.5120 -2.3353
  405MOL0     H53407   5.603   0.704  10.006 -2.3780 -0.4432 -0.5213
  405MOL0     H53408   5.634   0.756  10.172  0.3956  0.6504 -0.8964
  405MOL0     H53409   5.428   0.550  10.171  1.7238 -0.4870  1.1404
  405MOL0     H53410   5.416   0.716  10.221 -0.7169 -1.1906 -0.0669
  405MOL0     H53411   5.393   0.627   9.922 -0.9405  1.5637 -0.6328
  405MOL0     H53412   5.377   0.794   9.996 -0.6054  1.1462  3.9057
  405MOL0     H53413   5.164   0.878  10.089  0.1409 -0.9050  0.4234
  405MOL0     H53414   4.868   0.867  10.113  1.6860  1.6085  1.3207
  405MOL0     H53415   4.815   0.733  10.001 -0.3343  0.4812 -0.0753
  405MOL0     H53416   4.907   0.857   9.807  0.4784 -1.9900  0.1383
  405MOL0     H53417   4.958   0.991   9.907 -1.7398  1.5785  2.8350
  405MOL0     H53418   4.712   1.043   9.951 -1.7773 -0.8162  1.0892
  405MOL0     H53419   4.733   1.020   9.777  0.2777 -0.4875 -0.2411
  405MOL0     H53420   4.592   0.863   9.977  0.5611 -1.2926  0.0583
  405MOL0     H53421   4.659   0.775   9.831  0.2093  0.1388  0.0003
  405MOL0     H53422   4.358   0.880   9.594 -0.8844 -0.7428 -0.7866
  405MOL0     H53423   4.113   0.873   9.613  0.3908  0.1471 -0.4305
  405MOL0     H53424   3.774   0.650   9.690 -2.1805 -0.0732 -4.2338
  405MOL0     H53425   3.551   0.604   9.704  0.7335 -0.4017  2.2450
  405MOL0     H53426   3.342   0.630   9.800  0.2502  2.6274  0.5903
  405MOL0     H53427   3.319   0.602   9.630  2.7359  0.6529 -0.3219
  405MOL0     H53428   3.143   0.793   9.773 -2.2964 -0.8416  0.1997
  405MOL0     H53429   3.125   0.619   9.822  1.4728  1.6072  1.2769
  405MOL0     H53430   3.040   0.564   9.608 -3.2579 -0.3549  1.7675
  405MOL0     H53431   3.117   0.702   9.535  1.6090  0.0958  0.5754
  405MOL0     H53432   2.885   0.721   9.744  0.0438 -1.2065 -0.1039
  405MOL0     H53433   2.935   0.850   9.628 -0.2224 -0.2151 -0.0050
  405MOL0     H53434   2.807   0.580   9.564 -0.0980  1.2170  3.4594
  405MOL0     H53435   2.885   0.666   9.435  0.6866  1.1279  0.4102
  405MOL0     H53436   2.650   0.800   9.587  1.1668  0.1138  0.9067
  405MOL0     H53437   2.639   0.712   9.441 -2.6496  1.7938  0.8650
  405MOL0     H53438   2.819   0.957   9.492 -1.4384 -0.7375  2.9780
  405MOL0     H53439   2.788   0.873   9.328 -0.8269 -3.2115  0.9925
  405MOL0     H53440   2.602   1.010   9.520  0.2039  0.6858 -0.3490
  405MOL0     H53441   2.556   0.944   9.356 -0.5443  0.9382  0.0338
  405MOL0     H53442   3.455   1.025   9.669  2.8624  2.8207  1.0053
  405MOL0     H53443   3.717   1.072   9.713  1.5967  0.3506 -0.4601
  405MOL0     H53444   4.164   0.832  10.033 -0.7125  2.6628  0.1728
  405MOL0     H53445   4.394   0.869  10.018  2.7507  0.3627 -0.7124
  405MOL0     H53446   6.546   0.532  10.042  2.6755  0.4964  0.7537
  405MOL0     H53447   6.742   0.400  10.081  0.1385 -1.3613  3.0103
  405MOL0     H53448   6.817  -0.195  10.360 -0.2119  1.3716  1.1407
  405MOL0     H53449   7.035  -0.293  10.395  3.5288 -1.2346 -1.6777
  405MOL0     H53450   7.385  -0.120  10.209  4.0197 -1.5192 -0.1030
  405MOL0     H53451   7.346  -0.239  10.080 -3.2181  1.5748 -0.1888
  405MOL0     H53452   7.492  -0.290  10.349 -2.5233  0.1895  0.0710
  405MOL0     H53453   7.465  -0.408  10.225  1.4367 -0.4160  1.9067
  405MOL0     H53454   7.621  -0.296  10.065  1.2084  3.5773  0.0858
  405MOL0     H53455   7.695  -0.340  10.220  0.4298  0.7472 -1.0594
  405MOL0     H53456   7.606  -0.060  10.128  2.5406  1.6715 -0.2321
  405MOL0     H53457   7.693  -0.106  10.282  1.0778  1.6668  0.1385
  405MOL0     H53458   8.004  -0.112  10.001 -0.2402  2.0309 -1.4650
  405MOL0     H53459   7.207  -0.028  10.099  1.3306 -3.5001 -0.7405
  405MOL0     H53460   6.985   0.092  10.085 -0.5912 -0.6009 -1.3895
  406MOL0     O53461  10.809  10.364   3.466  0.1079  0.4355  0.8627
  406MOL0     C53462  10.857  10.255   3.437 -0.6121 -0.2938 -0.1716
  406MOL0     O53463  10.791  10.159   3.361  1.2424  0.3484  0.1212
  406MOL0     C53464  10.676  10.203   3.304  0.6864 -0.1542  0.3747
  406MOL0     C53465  10.665  10.245   3.169  0.3398 -0.2662  0.0367
  406MOL0     C53466  10.546  10.287   3.112  0.0222 -0.6299 -0.6716
  406MOL0     C53467  10.432  10.309   3.194  0.7234 -0.6857  0.2272
  406MOL0     O53468  10.316  10.361   3.150  0.6308  0.9339 -0.2224
  406MOL0     C53469  10.324  10.471   3.052  0.5043  0.5405 -0.5032
  406MOL0     C53470  10.187  10.494   2.983 -0.1936  0.6755 -0.1621
  406MOL0     C53471  10.163  10.380   2.881  0.8588  0.0314  0.3098
  406MOL0     C53472  10.020  10.397   2.828  0.4546  0.7352 -0.0021
  406MOL0     C53473   9.986  10.297   2.708 -0.1367  0.3115 -0.2415
  406MOL0     C53474   9.852  10.319   2.651  0.3951  0.3926 -0.5294
  406MOL0     C53475   9.741  10.241   2.716 -0.2639  0.2425 -0.4300
  406MOL0     C53476   9.606  10.280   2.659  0.6241  0.4398 -0.3463
  406MOL0     N53477   9.529  10.385   2.725  0.5512  0.0048 -0.6012
  406MOL0     C53478   9.396  10.388   2.749  0.3306  1.0395 -0.5685
  406MOL0     C53479   9.356  10.510   2.790 -0.3467 -0.2158 -0.9813
  406MOL0     C53480   9.212  10.550   2.828 -0.2523 -0.4466 -0.6724
  406MOL0     C53481   9.115  10.530   2.707  0.0533 -0.1926 -0.5022
  406MOL0     C53482   9.131  10.647   2.614  0.5955 -0.1755  0.2261
  406MOL0     C53483   9.002  10.664   2.523 -0.7881  0.2633 -0.1071
  406MOL0     O53484   8.894  10.713   2.600 -0.3185  0.2984 -0.6253
  406MOL0     C53485   8.771  10.714   2.544 -0.3040  0.5842  0.2752
  406MOL0     C53486   8.670  10.794   2.604 -1.3314 -1.0617 -0.6412
  406MOL0     C53487   8.534  10.800   2.560  0.3432 -0.5299  0.0146
  406MOL0     C53488   8.492  10.728   2.450  0.0674 -0.3795  0.1319
  406MOL0     C53489   8.348  10.732   2.405  0.2560 -0.0509 -0.2740
  406MOL0     O53490   8.262  10.834   2.452  0.1643 -0.5807 -0.3830
  406MOL0     C53491   8.131  10.822   2.409  0.1415 -0.5179 -1.0609
  406MOL0     C53492   8.103  10.871   2.279  0.2186 -0.1403 -0.8975
  406MOL0     C53493   7.970  10.880   2.235 -0.3060 -0.8315  0.0221
  406MOL0     C53494   7.865  10.857   2.322  0.0914  0.9151  0.0797
  406MOL0     O53495   7.735  10.866   2.279 -0.0915 -0.9035  0.1858
  406MOL0     C53496   7.686  10.745   2.241  0.3479 -0.5365  0.1758
  406MOL0     C53497   7.548  10.717   2.298 -0.4523  0.4082  0.2047
  406MOL0     C53498   7.420  10.769   2.223 -0.1145 -0.4407 -0.5305
  406MOL0     C53499   7.418  10.921   2.186  1.1391 -0.2667  0.6246
  406MOL0     C53500   7.282  10.994   2.142 -0.1638 -0.0472 -0.2872
  406MOL0     C53501   7.175  10.955   2.244  0.1524 -0.0300 -0.4008
  406MOL0     C53502   7.042  11.017   2.188  0.2358  0.4153 -0.2414
  406MOL0     C53503   6.931  10.996   2.295  0.6576 -0.5242 -0.3013
  406MOL0    Cl53504   6.766  11.011   2.208  0.1063  0.1498  0.0408
  406MOL0     C53505   7.894  10.813   2.448  0.7770  0.4110 -0.3421
  406MOL0     C53506   8.025  10.794   2.489  0.5677  0.3348 -0.0813
  406MOL0     O53507   8.322  10.642   2.327  0.2889  0.2206  0.1651
  406MOL0     C53508   8.592  10.640   2.396 -0.3630 -0.3120 -0.8237
  406MOL0     C53509   8.725  10.629   2.444  0.1318  0.1849  0.2694
  406MOL0     N53510   9.475  10.584   2.800 -0.4233 -0.1320  0.1495
  406MOL0     N53511   9.569  10.517   2.745 -0.1801  0.0386  0.2912
  406MOL0     C53512  10.442  10.269   3.330 -0.1493  0.5086  0.6608
  406MOL0     C53513  10.558  10.208   3.373  0.2153  0.7648  0.3535
  406MOL0     C53514  11.005  10.235   3.466  0.2070  0.3818  0.4110
  406MOL0     C53515  11.075  10.118   3.441  0.5106 -0.0409 -0.4184
  406MOL0     C53516  11.207  10.096   3.483  0.6116 -1.0555 -0.9964
  406MOL0     C53517  11.279  10.203   3.543  0.1446 -0.6893 -0.1734
  406MOL0     O53518  11.408  10.193   3.571 -0.5288  0.1286  0.1948
  406MOL0     C53519  11.469  10.060   3.584 -0.4547  0.3736 -0.1280
  406MOL0     C53520  11.613  10.089   3.599 -0.2018 -0.2962 -0.1170
  406MOL0     C53521  11.691   9.963   3.636 -0.9477  0.0194  0.3256
  406MOL0     C53522  11.664   9.841   3.540 -0.2664  0.1866 -0.3282
  406MOL0     C53523  11.765   9.741   3.569 -0.4172  0.4405 -1.6639
  406MOL0     C53524  11.846   9.652   3.586  1.3741 -0.1893  0.5581
  406MOL0     C53525  11.209  10.326   3.567 -0.8297 -0.1711  0.1148
  406MOL0     C53526  11.078  10.340   3.530 -0.1954 -0.0820  0.7763
  406MOL0     H53527  10.745  10.250   3.096 -1.6364  1.7718 -2.1214
  406MOL0     H53528  10.555  10.309   3.006 -2.5825 -1.3398 -1.1099
  406MOL0     H53529  10.390  10.434   2.973  1.0298  0.7256 -0.1565
  406MOL0     H53530  10.370  10.561   3.095  1.6655 -0.1435 -0.2745
  406MOL0     H53531  10.181  10.595   2.941  1.2652  2.1122  2.8064
  406MOL0     H53532  10.114  10.496   3.064 -0.1220 -0.1519 -0.0706
  406MOL0     H53533  10.166  10.276   2.915 -0.8277  0.5287  2.1965
  406MOL0     H53534  10.227  10.397   2.794 -0.7637 -1.2141 -1.1735
  406MOL0     H53535   9.947  10.380   2.907 -1.1007  1.0478 -1.3071
  406MOL0     H53536   9.999  10.501   2.801 -1.1563  1.3957  3.2803
  406MOL0     H53537  10.000  10.190   2.726  2.6653  0.6350  0.0202
  406MOL0     H53538  10.067  10.322   2.638  1.7179 -0.9483  1.3473
  406MOL0     H53539   9.859  10.284   2.548  3.2948 -0.7364 -0.0357
  406MOL0     H53540   9.832  10.427   2.654 -2.1142 -0.0044 -0.1239
  406MOL0     H53541   9.759  10.134   2.704  1.4642  0.6169 -1.5096
  406MOL0     H53542   9.724  10.265   2.821  1.9189 -0.2567  0.0845
  406MOL0     H53543   9.540  10.192   2.657 -0.1137  1.0017 -1.9256
  406MOL0     H53544   9.615  10.309   2.554 -1.0038 -0.7879 -0.8687
  406MOL0     H53545   9.324  10.309   2.731 -0.5509  1.7408 -0.2314
  406MOL0     H53546   9.208  10.657   2.852 -0.2563 -0.3918 -0.9174
  406MOL0     H53547   9.174  10.500   2.918 -0.2078 -0.0664 -0.4390
  406MOL0     H53548   9.012  10.518   2.744  1.2656 -2.0948  2.6069
  406MOL0     H53549   9.131  10.436   2.654 -3.7275 -0.7148 -1.0444
  406MOL0     H53550   9.134  10.741   2.670 -2.1886  1.5224 -2.1998
  406MOL0     H53551   9.219  10.641   2.549  1.0099 -0.2904  0.7968
  406MOL0     H53552   8.971  10.568   2.482 -1.2895 -0.2179  1.3342
  406MOL0     H53553   9.023  10.744   2.450 -1.4894  3.5967  3.0344
  406MOL0     H53554   8.700  10.856   2.688 -2.0040  1.3184 -2.0720
  406MOL0     H53555   8.457  10.859   2.608  3.1054  1.6751  2.0818
  406MOL0     H53556   8.190  10.900   2.220  1.8252 -1.9661  0.4666
  406MOL0     H53557   7.962  10.908   2.131 -2.1924 -1.0878  0.0671
  406MOL0     H53558   7.755  10.662   2.260 -0.0922 -0.6370  1.3981
  406MOL0     H53559   7.675  10.741   2.132  1.1629 -0.2266  0.0722
  406MOL0     H53560   7.563  10.767   2.394  0.1159 -1.9552  1.4182
  406MOL0     H53561   7.540  10.612   2.328  1.7960  0.2338  0.4042
  406MOL0     H53562   7.339  10.757   2.296  1.4063  4.4828  2.4184
  406MOL0     H53563   7.407  10.712   2.131  2.5157 -1.0014 -0.6273
  406MOL0     H53564   7.446  10.968   2.280 -2.9956  0.2549  1.8216
  406MOL0     H53565   7.497  10.951   2.117  0.9766 -0.7328  0.2266
  406MOL0     H53566   7.259  10.946   2.047 -0.4444 -1.4510  0.4579
  406MOL0     H53567   7.297  11.100   2.124  1.2005  0.0957  1.4055
  406MOL0     H53568   7.191  11.000   2.342 -1.4221  1.9412 -0.9761
  406MOL0     H53569   7.168  10.846   2.251  0.4251  0.0367  1.4495
  406MOL0     H53570   7.063  11.123   2.169  2.6850 -0.2910 -2.0259
  406MOL0     H53571   7.017  10.974   2.090 -1.9880  0.3043  0.3239
  406MOL0     H53572   6.946  11.072   2.372  1.3738  0.3148 -1.2677
  406MOL0     H53573   6.933  10.898   2.345 -1.7535  0.8812  2.9053
  406MOL0     H53574   7.808  10.808   2.514  0.9296 -0.0172 -0.1684
  406MOL0     H53575   8.056  10.778   2.592  1.0587  2.6729  0.1929
  406MOL0     H53576   8.571  10.586   2.304  1.1954  0.0870 -1.4427
  406MOL0     H53577   8.791  10.560   2.392  0.7836  1.0215 -0.0488
  406MOL0     H53578  10.362  10.262   3.403 -1.1579 -3.3378 -0.5444
  406MOL0     H53579  10.570  10.171   3.474 -1.4941  0.8657  0.6122
  406MOL0     H53580  11.029  10.033   3.393 -1.7014  1.1801 -0.6081
  406MOL0     H53581  11.258  10.002   3.464  2.6645 -0.1908 -0.0823
  406MOL0     H53582  11.465  10.010   3.487  2.5987  0.8959 -0.6162
  406MOL0     H53583  11.414  10.000   3.657 -1.0936  2.9180  1.6010
  406MOL0     H53584  11.651  10.128   3.504  0.1881  1.7723  0.8239
  406MOL0     H53585  11.633  10.160   3.680 -1.7536  1.6404 -1.3324
  406MOL0     H53586  11.665   9.937   3.739 -1.5423  0.4739  0.2990
  406MOL0     H53587  11.793  10.000   3.636 -0.9891  0.2462 -1.8557
  406MOL0     H53588  11.564   9.799   3.553 -0.9449  0.8754 -2.7731
  406MOL0     H53589  11.679   9.880   3.439 -0.6138  0.6944 -0.1864
  406MOL0     H53590  11.926   9.588   3.618 -1.4337 -3.7662  1.0317
  406MOL0     H53591  11.269  10.411   3.599  1.4772 -0.4119 -3.1631
  406MOL0     H53592  11.025  10.434   3.540 -0.7486  0.3501 -4.0762
  407MOL0     O53593   3.450   7.588   2.243  0.2966  0.6208  0.5505
  407MOL0     C53594   3.472   7.472   2.209 -0.4756  0.1694  0.5262
  407MOL0     O53595   3.378   7.372   2.192 -0.3422 -0.0381  0.4106
  407MOL0     C53596   3.250   7.413   2.178 -0.4786 -0.4727 -0.4798
  407MOL0     C53597   3.157   7.322   2.229 -0.4579 -1.0606 -0.2802
  407MOL0     C53598   3.025   7.351   2.231 -0.0276 -0.2538  0.3120
  407MOL0     C53599   2.965   7.472   2.180 -0.7481 -0.5072 -0.1729
  407MOL0     O53600   2.830   7.474   2.180  0.2845  0.5299 -0.0327
  407MOL0     C53601   2.765   7.607   2.176  0.6480  0.7489  0.0969
  407MOL0     C53602   2.685   7.631   2.057 -0.1367 -0.9994 -0.2681
  407MOL0     C53603   2.586   7.747   2.050  0.5812  1.1425  0.7405
  407MOL0     C53604   2.460   7.710   2.126 -0.2429  0.3503 -0.1965
  407MOL0     C53605   2.354   7.820   2.126 -0.3686  0.3847 -0.0357
  407MOL0     C53606   2.264   7.825   1.999 -1.0620  0.4486 -0.1519
  407MOL0     C53607   2.132   7.915   2.016 -1.2999  0.0365 -0.5896
  407MOL0     C53608   2.084   7.931   1.880 -1.1257  0.4369  1.8717
  407MOL0     N53609   1.943   7.978   1.861  0.1306 -0.0846  0.5176
  407MOL0     C53610   1.859   7.929   1.773  0.1334 -0.5402  1.1284
  407MOL0     C53611   1.760   8.021   1.759 -0.1974 -0.5806 -0.7013
  407MOL0     C53612   1.643   8.017   1.663 -0.2689 -0.0738  0.6592
  407MOL0     C53613   1.514   7.955   1.713  0.3993 -0.3640  0.0966
  407MOL0     C53614   1.389   7.985   1.630  0.1841  0.5277 -0.6530
  407MOL0     C53615   1.263   7.975   1.718  0.6984  0.0795  0.4406
  407MOL0     O53616   1.148   7.993   1.634 -0.0713  0.5014 -0.0945
  407MOL0     C53617   1.030   8.012   1.693  0.1304  0.5349 -0.2712
  407MOL0     C53618   0.920   7.982   1.615  0.6346 -0.2408 -0.3315
  407MOL0     C53619   0.786   7.980   1.661  0.6342 -0.2135 -0.8179
  407MOL0     C53620   0.757   8.018   1.795 -0.0836 -0.4264 -0.0098
  407MOL0     C53621   0.621   8.015   1.855 -0.1606 -0.9525 -0.6782
  407MOL0     O53622   0.520   7.989   1.764  0.7245 -0.8411 -0.0368
  407MOL0     C53623   0.397   7.963   1.818 -0.2131 -0.3968  0.0678
  407MOL0     C53624   0.286   8.026   1.756  0.2371  0.4506  0.5954
  407MOL0     C53625   0.151   7.995   1.788 -0.6467 -0.5606  0.4810
  407MOL0     C53626   0.118   7.897   1.879  0.1723  0.2472 -0.2888
  407MOL0     O53627  -0.012   7.856   1.909  0.6923 -0.1402  0.8231
  407MOL0     C53628  -0.023   7.720   1.954  0.0910  0.0600 -0.1959
  407MOL0     C53629  -0.167   7.660   1.979  0.0821  0.3689 -0.5659
  407MOL0     C53630  -0.264   7.745   2.064  0.3489  0.1234  0.6168
  407MOL0     C53631  -0.395   7.668   2.076 -0.8060  0.2305 -0.9582
  407MOL0     C53632  -0.494   7.726   2.179 -0.8122  0.3926 -0.0674
  407MOL0     C53633  -0.621   7.661   2.156  0.6860 -0.3324  0.1247
  407MOL0     C53634  -0.641   7.544   2.253 -0.7821 -0.6100  0.7647
  407MOL0     C53635  -0.779   7.491   2.238  0.2471  0.7278  0.3095
  407MOL0    Cl53636  -0.797   7.416   2.075  0.3068  0.0556 -0.1373
  407MOL0     C53637   0.236   7.832   1.939 -0.2309 -0.7622  0.1255
  407MOL0     C53638   0.369   7.871   1.917 -0.6686  0.5421 -0.3319
  407MOL0     O53639   0.608   8.024   1.980  0.6226  0.2547  0.3127
  407MOL0     C53640   0.876   8.049   1.880  0.7891  0.4060 -0.4555
  407MOL0     C53641   1.004   8.039   1.828 -0.4858 -0.6588 -0.2016
  407MOL0     N53642   1.785   8.126   1.846  0.9129 -0.1523 -0.2072
  407MOL0     N53643   1.891   8.100   1.914 -0.0706 -0.7257 -0.6078
  407MOL0     C53644   3.061   7.555   2.108  0.2718 -0.1762 -0.8925
  407MOL0     C53645   3.199   7.528   2.105  0.0116  0.5695 -0.0881
  407MOL0     C53646   3.609   7.420   2.198 -0.6930  0.0957 -0.1890
  407MOL0     C53647   3.727   7.495   2.184 -1.7630  0.6286 -0.6099
  407MOL0     C53648   3.853   7.428   2.178  0.0759 -1.1861  0.1540
  407MOL0     C53649   3.861   7.289   2.169  0.0354 -0.2846 -0.2018
  407MOL0     O53650   3.985   7.223   2.161  0.1508  0.2514  0.2746
  407MOL0     C53651   4.003   7.080   2.173 -0.1412  0.1169 -0.3549
  407MOL0     C53652   4.147   7.033   2.173  0.5211 -0.4728 -0.3463
  407MOL0     C53653   4.210   7.054   2.316  0.7725  0.2503  0.9996
  407MOL0     C53654   4.348   6.978   2.343 -0.0518  0.3852  0.5790
  407MOL0     C53655   4.323   6.833   2.358 -0.2659 -0.1841  0.1707
  407MOL0     C53656   4.304   6.716   2.381 -0.0046  0.4202  0.3278
  407MOL0     C53657   3.741   7.215   2.192 -0.4552  0.0808  0.8370
  407MOL0     C53658   3.626   7.283   2.203 -0.3472 -1.0336 -0.3850
  407MOL0     H53659   3.189   7.229   2.276 -0.1415 -1.7274 -1.7585
  407MOL0     H53660   2.958   7.273   2.267  0.6575 -1.0421 -0.0658
  407MOL0     H53661   2.829   7.696   2.182 -2.5731  3.4918 -2.5991
  407MOL0     H53662   2.686   7.612   2.252 -1.5213 -1.8538 -1.8234
  407MOL0     H53663   2.629   7.539   2.040  0.6502 -1.2920 -1.3974
  407MOL0     H53664   2.751   7.649   1.972 -0.9187 -4.3434 -1.7417
  407MOL0     H53665   2.563   7.769   1.946 -0.4848  2.2635  1.1772
  407MOL0     H53666   2.628   7.834   2.102 -0.6058 -0.1275  4.0902
  407MOL0     H53667   2.408   7.616   2.102 -1.3980 -0.4171  4.3042
  407MOL0     H53668   2.499   7.696   2.227 -1.1406  1.2587  0.2923
  407MOL0     H53669   2.389   7.921   2.149 -0.5940  0.3231  0.5923
  407MOL0     H53670   2.289   7.784   2.205  0.5804 -2.7908 -0.5585
  407MOL0     H53671   2.232   7.728   1.960 -0.4184  0.2057 -0.0936
  407MOL0     H53672   2.321   7.875   1.920  1.3377 -0.1123  1.1296
  407MOL0     H53673   2.045   7.866   2.061 -0.2776 -3.4958 -2.1532
  407MOL0     H53674   2.156   8.010   2.065 -1.0330 -0.4682  0.2691
  407MOL0     H53675   2.094   7.837   1.825  2.4642  1.3398  0.7373
  407MOL0     H53676   2.149   7.999   1.825 -3.3032  1.7540  0.7927
  407MOL0     H53677   1.862   7.834   1.720 -0.0951  1.6673 -3.3825
  407MOL0     H53678   1.665   7.947   1.582  1.6029 -1.7660  2.5235
  407MOL0     H53679   1.626   8.120   1.629  2.1747  0.1371 -0.0992
  407MOL0     H53680   1.504   8.002   1.812 -1.1088 -0.6366  0.0923
  407MOL0     H53681   1.511   7.848   1.732 -1.6924 -0.1938  1.0872
  407MOL0     H53682   1.385   8.089   1.599 -2.6094  0.1027 -2.0002
  407MOL0     H53683   1.385   7.926   1.538  2.6578  1.3600 -1.3687
  407MOL0     H53684   1.262   8.047   1.801 -2.1578  0.8059 -0.1189
  407MOL0     H53685   1.250   7.875   1.760 -1.2230 -1.3797 -3.2153
  407MOL0     H53686   0.942   7.954   1.513  0.0326 -0.9689 -0.2705
  407MOL0     H53687   0.717   7.925   1.598 -0.7405 -0.9880  1.2642
  407MOL0     H53688   0.306   8.093   1.673 -0.6017  1.6109  1.3059
  407MOL0     H53689   0.064   8.030   1.734 -1.8118 -2.2200  1.2039
  407MOL0     H53690   0.028   7.708   2.049 -0.4640 -1.6747 -0.0893
  407MOL0     H53691   0.024   7.651   1.884  2.6135  0.2489  1.2298
  407MOL0     H53692  -0.148   7.563   2.025  2.3989  0.8443 -0.4281
  407MOL0     H53693  -0.222   7.651   1.884 -1.2956  2.1826 -0.0065
  407MOL0     H53694  -0.285   7.837   2.009 -0.8021 -0.5438 -0.1160
  407MOL0     H53695  -0.221   7.765   2.162  0.7481  2.8950 -0.0433
  407MOL0     H53696  -0.442   7.654   1.978 -3.1929  0.5158  0.0893
  407MOL0     H53697  -0.363   7.568   2.107  2.0688  1.2095 -0.4324
  407MOL0     H53698  -0.483   7.832   2.155 -1.6552  0.2211 -1.2784
  407MOL0     H53699  -0.456   7.703   2.279  0.1069 -1.2830 -0.7633
  407MOL0     H53700  -0.621   7.623   2.054 -0.3810 -2.2000  0.7668
  407MOL0     H53701  -0.705   7.730   2.169  1.5363  0.9153 -0.8173
  407MOL0     H53702  -0.574   7.459   2.244 -1.5880 -1.4790  2.4918
  407MOL0     H53703  -0.640   7.597   2.349  1.2102 -0.4613  0.6962
  407MOL0     H53704  -0.861   7.563   2.250  1.0157  1.9587 -1.3997
  407MOL0     H53705  -0.788   7.408   2.308  4.8489  0.3232  0.7518
  407MOL0     H53706   0.232   7.740   1.998  0.3690 -2.0741 -1.7959
  407MOL0     H53707   0.443   7.813   1.970  0.4046  1.5950 -0.6474
  407MOL0     H53708   0.859   8.092   1.978  1.6085 -2.3760  0.9920
  407MOL0     H53709   1.083   8.076   1.892  0.9900  0.8783 -2.7937
  407MOL0     H53710   3.019   7.637   2.050 -1.3889  0.1627  0.6794
  407MOL0     H53711   3.261   7.602   2.055 -0.4721  0.6347 -0.6040
  407MOL0     H53712   3.714   7.603   2.173  0.5881  1.1425  0.7705
  407MOL0     H53713   3.947   7.482   2.176  0.2100 -1.1850  2.7209
  407MOL0     H53714   3.951   7.027   2.092 -1.7215  0.3954  0.4426
  407MOL0     H53715   3.959   7.042   2.265 -2.9070  1.5535 -0.9788
  407MOL0     H53716   4.147   6.929   2.140 -1.9538 -0.9869  1.0591
  407MOL0     H53717   4.210   7.082   2.097 -0.2307  1.4041  0.1859
  407MOL0     H53718   4.135   7.037   2.394 -0.5090 -4.3626 -0.8894
  407MOL0     H53719   4.237   7.160   2.323 -0.1154  0.5537  0.0438
  407MOL0     H53720   4.400   6.999   2.250 -3.0407  1.1582 -1.0446
  407MOL0     H53721   4.412   7.024   2.419  3.0231  0.0225 -1.5934
  407MOL0     H53722   4.297   6.614   2.414  0.6615  0.5090  0.7552
  407MOL0     H53723   3.727   7.107   2.185  0.0193  0.1133 -0.9329
  407MOL0     H53724   3.542   7.215   2.218 -0.8455 -0.7071 -1.5303
  408MOL0     O53725   7.051   0.485   8.237  0.1990  0.2035 -1.0016
  408MOL0     C53726   7.081   0.371   8.194  0.4464 -0.2747 -1.2138
  408MOL0     O53727   6.981   0.280   8.156  0.3846  0.5723  0.3598
  408MOL0     C53728   6.843   0.304   8.163 -1.0821 -0.3137  0.0520
  408MOL0     C53729   6.775   0.426   8.182 -0.3513 -0.6074  0.1060
  408MOL0     C53730   6.636   0.425   8.185  0.0253 -0.2939 -0.0022
  408MOL0     C53731   6.557   0.313   8.150 -0.5373  0.2410 -0.3360
  408MOL0     O53732   6.419   0.311   8.156 -0.2232  0.7410  0.6781
  408MOL0     C53733   6.360   0.419   8.230  0.7505 -0.0894 -0.4436
  408MOL0     C53734   6.205   0.388   8.235  0.2910 -0.0253 -0.2182
  408MOL0     C53735   6.124   0.384   8.098  0.5203  0.0676  0.0025
  408MOL0     C53736   5.981   0.331   8.129  0.2858 -0.5730  0.0152
  408MOL0     C53737   5.899   0.306   7.995  0.2940 -0.5000 -0.5714
  408MOL0     C53738   5.764   0.252   8.045 -0.1775 -0.5027  0.6889
  408MOL0     C53739   5.691   0.197   7.927  0.2686 -0.5948  0.1264
  408MOL0     C53740   5.556   0.145   7.969  0.3019  0.5673 -0.3507
  408MOL0     N53741   5.474   0.244   8.039 -0.0642 -0.4498  0.2180
  408MOL0     C53742   5.420   0.356   7.986  0.1259  1.2333 -0.0220
  408MOL0     C53743   5.354   0.423   8.079  0.2717 -0.6418  1.0246
  408MOL0     C53744   5.285   0.558   8.055  0.7822  0.7516 -0.2779
  408MOL0     C53745   5.350   0.672   8.116  0.1716 -0.7083 -0.1785
  408MOL0     C53746   5.409   0.656   8.257  0.2552 -0.0418  0.6556
  408MOL0     C53747   5.557   0.627   8.260  0.6536 -0.1328  0.8354
  408MOL0     O53748   5.616   0.743   8.199  0.3447  0.1304  0.0552
  408MOL0     C53749   5.751   0.739   8.202 -0.4473 -0.2198 -0.1226
  408MOL0     C53750   5.822   0.825   8.116 -0.8294 -0.2649 -0.2464
  408MOL0     C53751   5.958   0.835   8.122  0.4548 -0.0294  0.8959
  408MOL0     C53752   6.035   0.770   8.217  0.2368  1.1240 -0.1621
  408MOL0     C53753   6.179   0.795   8.238  0.7248 -0.4838 -0.1694
  408MOL0     O53754   6.241   0.732   8.344 -0.7132  1.1593  0.5596
  408MOL0     C53755   6.373   0.753   8.365 -0.5999  0.6229  0.4343
  408MOL0     C53756   6.410   0.744   8.502  0.0519 -0.6081 -0.0174
  408MOL0     C53757   6.543   0.739   8.534 -0.5277 -0.0478  0.2255
  408MOL0     C53758   6.644   0.754   8.434  0.4945 -0.1971  0.1383
  408MOL0     O53759   6.776   0.757   8.460  0.5561  0.6439  0.1822
  408MOL0     C53760   6.842   0.879   8.421  0.6433 -0.2784 -0.2507
  408MOL0     C53761   6.986   0.845   8.377 -0.4775  0.2668  0.3461
  408MOL0     C53762   7.082   0.828   8.494  0.2794  0.1575 -0.1583
  408MOL0     C53763   7.218   0.784   8.438  0.5751 -1.1155 -0.2797
  408MOL0     C53764   7.316   0.758   8.557 -0.9980  0.1589 -0.4975
  408MOL0     C53765   7.458   0.776   8.497  1.4544  0.5849 -0.4857
  408MOL0     C53766   7.563   0.778   8.608 -0.9021 -0.0340  0.1132
  408MOL0     C53767   7.702   0.778   8.547 -0.3697  0.5337  0.1322
  408MOL0    Cl53768   7.813   0.768   8.677  0.0934  0.4694 -0.0352
  408MOL0     C53769   6.610   0.768   8.299 -0.3774  0.4018 -0.0075
  408MOL0     C53770   6.476   0.763   8.270  0.7026 -0.0179  0.5849
  408MOL0     O53771   6.234   0.871   8.150  0.7080 -0.5683  0.0583
  408MOL0     C53772   5.963   0.682   8.305  0.1003 -0.6218  0.1920
  408MOL0     C53773   5.824   0.678   8.299 -0.0772 -0.0707  0.9053
  408MOL0     N53774   5.360   0.351   8.192  0.1233  0.5624 -0.4005
  408MOL0     N53775   5.439   0.251   8.172 -0.3012 -1.0125  0.2909
  408MOL0     C53776   6.625   0.190   8.134 -0.1550 -0.3120  0.3160
  408MOL0     C53777   6.756   0.191   8.143  0.1794  0.9169  0.1465
  408MOL0     C53778   7.228   0.336   8.196  0.4275  0.6269 -0.1731
  408MOL0     C53779   7.319   0.410   8.279  0.4525  0.5054  0.6493
  408MOL0     C53780   7.458   0.386   8.266  0.2024  0.9623 -0.3167
  408MOL0     C53781   7.508   0.294   8.175 -0.2473 -0.0364 -0.9613
  408MOL0     O53782   7.642   0.283   8.163 -0.1643 -0.1461 -0.5264
  408MOL0     C53783   7.693   0.198   8.061 -0.6061 -0.5082 -1.2447
  408MOL0     C53784   7.841   0.230   8.048  1.1133  0.2639  0.5147
  408MOL0     C53785   7.874   0.362   7.976 -0.3142 -0.8546  0.0511
  408MOL0     C53786   8.019   0.385   7.930  0.0776  0.2244 -0.9080
  408MOL0     C53787   8.118   0.372   8.048  0.0023  0.1518  0.4458
  408MOL0     C53788   8.196   0.388   8.134 -0.9075 -0.3217  0.8782
  408MOL0     C53789   7.417   0.221   8.097 -0.1388  1.1186 -0.0297
  408MOL0     C53790   7.282   0.245   8.108  0.2795 -1.0618 -0.3243
  408MOL0     H53791   6.831   0.518   8.195  0.7632 -0.8729 -2.3058
  408MOL0     H53792   6.574   0.510   8.211 -1.6039 -0.9176 -1.6112
  408MOL0     H53793   6.378   0.508   8.170  2.5607  1.0940  1.7315
  408MOL0     H53794   6.400   0.431   8.331 -2.8323 -0.0375  1.1109
  408MOL0     H53795   6.170   0.473   8.295  0.8431 -0.4760  0.7646
  408MOL0     H53796   6.178   0.298   8.291 -1.3496  1.5553  1.6661
  408MOL0     H53797   6.167   0.312   8.029  0.2754  1.8650 -2.1179
  408MOL0     H53798   6.131   0.486   8.061 -0.0695  0.3833  0.7237
  408MOL0     H53799   5.986   0.239   8.189  3.2003  1.0028  2.5068
  408MOL0     H53800   5.934   0.405   8.194 -0.0288 -0.5205 -0.2748
  408MOL0     H53801   5.950   0.232   7.932  2.8690 -0.4088  1.2252
  408MOL0     H53802   5.886   0.394   7.932  4.1767  2.3503  2.1258
  408MOL0     H53803   5.698   0.322   8.097 -1.2411 -2.0954  1.5682
  408MOL0     H53804   5.788   0.180   8.123  1.0786  2.6521  3.4530
  408MOL0     H53805   5.679   0.279   7.855  0.9975  0.8195  1.5415
  408MOL0     H53806   5.752   0.119   7.880  1.7429  0.8368 -0.4531
  408MOL0     H53807   5.562   0.062   8.040  2.8265 -0.2243 -1.3849
  408MOL0     H53808   5.505   0.110   7.879 -0.8140 -0.2229  0.5501
  408MOL0     H53809   5.434   0.388   7.883  0.1195 -0.2210 -0.4840
  408MOL0     H53810   5.181   0.558   8.090  0.1313 -0.7967 -2.0094
  408MOL0     H53811   5.286   0.577   7.947  2.4614  0.6552 -0.3014
  408MOL0     H53812   5.273   0.749   8.128 -1.3655 -2.4417  1.8866
  408MOL0     H53813   5.433   0.706   8.053  0.0029  0.3998  0.1727
  408MOL0     H53814   5.387   0.747   8.314 -0.5328  0.4378 -0.3687
  408MOL0     H53815   5.368   0.574   8.316  1.4236 -0.9645  0.2299
  408MOL0     H53816   5.578   0.533   8.208  0.9561  0.3320  0.0961
  408MOL0     H53817   5.589   0.610   8.363  2.8685 -0.0776  0.2112
  408MOL0     H53818   5.773   0.877   8.034  1.9623 -2.9658 -3.9614
  408MOL0     H53819   6.017   0.895   8.054 -1.9791 -1.9582 -3.4045
  408MOL0     H53820   6.328   0.721   8.570  1.3645  1.0614  2.2773
  408MOL0     H53821   6.567   0.705   8.634 -1.6596 -0.4837  0.3635
  408MOL0     H53822   6.849   0.958   8.496  3.4575  0.6900 -1.4167
  408MOL0     H53823   6.787   0.926   8.339 -1.5654 -1.6304  0.3579
  408MOL0     H53824   7.029   0.922   8.312 -2.2483  1.0214  0.0264
  408MOL0     H53825   6.979   0.754   8.317  1.5869  1.4064 -1.8220
  408MOL0     H53826   7.040   0.743   8.549 -2.9597  1.7105  0.0347
  408MOL0     H53827   7.087   0.914   8.561 -1.5302  0.1394  0.0692
  408MOL0     H53828   7.204   0.699   8.372 -0.4515 -2.6378  1.7994
  408MOL0     H53829   7.254   0.868   8.377 -1.4114  0.7097  0.9265
  408MOL0     H53830   7.307   0.655   8.594  0.3708  1.0532  2.6546
  408MOL0     H53831   7.292   0.820   8.643  0.4053  1.5191 -1.0336
  408MOL0     H53832   7.458   0.858   8.425 -1.4139  1.7473  0.6907
  408MOL0     H53833   7.475   0.685   8.440 -1.1588  0.1114 -0.6493
  408MOL0     H53834   7.552   0.867   8.670  0.7204 -1.2589  2.3110
  408MOL0     H53835   7.552   0.685   8.664 -2.9889  0.1370  0.0729
  408MOL0     H53836   7.717   0.872   8.493  2.2726 -0.7304 -1.5628
  408MOL0     H53837   7.716   0.692   8.481  1.7204  0.6084  0.4160
  408MOL0     H53838   6.682   0.777   8.219  1.1372  2.1396  1.4677
  408MOL0     H53839   6.449   0.767   8.165 -2.5686  1.0997  1.3375
  408MOL0     H53840   6.010   0.618   8.380  2.7213 -0.4911 -1.2154
  408MOL0     H53841   5.773   0.614   8.371 -2.5672 -0.9091 -1.4257
  408MOL0     H53842   6.572   0.096   8.129 -0.9944  0.2011 -1.1583
  408MOL0     H53843   6.813   0.102   8.119 -0.1461  0.2734  1.6142
  408MOL0     H53844   7.276   0.479   8.351 -0.2529 -0.9866  1.6980
  408MOL0     H53845   7.524   0.432   8.338  1.2926 -3.9518  2.3036
  408MOL0     H53846   7.656   0.196   7.958  0.2741 -3.8299 -1.6175
  408MOL0     H53847   7.689   0.097   8.101  0.7144  1.0904  3.5893
  408MOL0     H53848   7.882   0.235   8.150  2.9827  0.9093 -0.2144
  408MOL0     H53849   7.896   0.152   7.995 -0.0077 -0.6293  0.6488
  408MOL0     H53850   7.853   0.445   8.044 -1.7598  0.5765 -2.0187
  408MOL0     H53851   7.808   0.374   7.890 -1.6946  1.1672  1.3168
  408MOL0     H53852   8.045   0.312   7.852  3.6090  0.0521  0.2831
  408MOL0     H53853   8.042   0.478   7.877  0.6840 -0.8572 -2.6488
  408MOL0     H53854   8.271   0.386   8.211 -1.6393 -3.2661  1.6529
  408MOL0     H53855   7.450   0.144   8.028 -2.6101  0.2290 -0.3185
  408MOL0     H53856   7.215   0.192   8.040 -1.0352  0.7371 -0.5101
  409MOL0     O53857   0.112   9.366   9.469  0.0043  1.2103 -0.5074
  409MOL0     C53858   0.201   9.288   9.449 -0.2615 -0.6726  1.8911
  409MOL0     O53859   0.188   9.179   9.374 -0.2856  0.3936 -0.2920
  409MOL0     C53860   0.075   9.149   9.310 -0.4231 -0.4399  0.5618
  409MOL0     C53861   0.003   9.028   9.336 -0.3816  0.0414 -0.0230
  409MOL0     C53862  -0.112   8.991   9.270 -0.9182 -1.2360  0.0932
  409MOL0     C53863  -0.176   9.082   9.180 -0.0450  0.0957 -0.2846
  409MOL0     O53864  -0.267   9.027   9.105 -0.2453  0.8624  0.5113
  409MOL0     C53865  -0.394   9.082   9.083 -0.5231  1.3590 -0.1989
  409MOL0     C53866  -0.488   8.999   9.181  0.2902 -0.1107 -0.5775
  409MOL0     C53867  -0.482   8.850   9.168 -0.0105 -0.8893  0.1999
  409MOL0     C53868  -0.571   8.771   9.263  0.4151  0.8347 -0.1745
  409MOL0     C53869  -0.588   8.618   9.227 -0.1583 -0.8896 -0.2056
  409MOL0     C53870  -0.679   8.549   9.331  0.6501 -0.7484  0.8487
  409MOL0     C53871  -0.823   8.607   9.332  0.8200  0.2832  0.3397
  409MOL0     C53872  -0.913   8.529   9.434 -0.2304 -0.6973 -0.0700
  409MOL0     N53873  -1.032   8.603   9.463 -0.5346  0.0268  0.6731
  409MOL0     C53874  -1.157   8.557   9.439 -0.1955  0.6811  0.3254
  409MOL0     C53875  -1.233   8.665   9.466 -0.2954  0.6002 -0.4906
  409MOL0     C53876  -1.376   8.663   9.427  0.9875 -0.5811  0.1332
  409MOL0     C53877  -1.465   8.591   9.529  0.6629 -0.0773  0.2377
  409MOL0     C53878  -1.477   8.663   9.667 -0.5304 -0.3649  0.0347
  409MOL0     C53879  -1.563   8.566   9.757 -0.9887  0.4013 -0.0883
  409MOL0     O53880  -1.693   8.569   9.707 -0.2456  0.7288  0.3535
  409MOL0     C53881  -1.782   8.488   9.757 -0.3355  1.5199 -0.9373
  409MOL0     C53882  -1.757   8.395   9.859 -0.1254  0.4437 -0.4639
  409MOL0     C53883  -1.868   8.320   9.908  0.0368 -0.3452 -0.2093
  409MOL0     C53884  -2.002   8.322   9.853 -0.9337 -0.3281 -0.8455
  409MOL0     C53885  -2.112   8.252   9.916  0.4430  0.4878  0.0583
  409MOL0     O53886  -2.228   8.315   9.905  0.1620  0.6108 -0.2837
  409MOL0     C53887  -2.333   8.287   9.996  0.3472  0.9097  0.7953
  409MOL0     C53888  -2.449   8.336   9.949  0.5752  0.4421  0.1062
  409MOL0     C53889  -2.575   8.314  10.024 -0.2027 -0.0231  0.6156
  409MOL0     C53890  -2.574   8.256  10.149 -0.0123 -0.1457  0.5507
  409MOL0     O53891  -2.677   8.217  10.227  0.3127 -0.4697  0.2209
  409MOL0     C53892  -2.810   8.255  10.182 -0.3267  0.7286 -0.0111
  409MOL0     C53893  -2.906   8.237  10.295  0.0027 -0.1809  0.5717
  409MOL0     C53894  -2.874   8.287  10.432  0.9835 -0.1220  0.0463
  409MOL0     C53895  -2.797   8.427  10.426 -0.1270  1.3107 -0.7613
  409MOL0     C53896  -2.774   8.476  10.573  0.2623  0.7717  0.4333
  409MOL0     C53897  -2.681   8.384  10.657 -0.4065 -0.2295 -0.1137
  409MOL0     C53898  -2.540   8.349  10.596  0.7761 -0.4905  0.0128
  409MOL0     C53899  -2.457   8.473  10.569 -0.0513  0.1575 -0.1193
  409MOL0    Cl53900  -2.306   8.411  10.503 -0.0163  0.4686  0.0954
  409MOL0     C53901  -2.448   8.214  10.198  0.8911  0.1642  0.2854
  409MOL0     C53902  -2.330   8.239  10.126  0.0405  0.8507 -0.3326
  409MOL0     O53903  -2.086   8.151   9.976  0.0316  0.5144  0.0955
  409MOL0     C53904  -2.015   8.407   9.743 -0.8024  0.1719 -0.5123
  409MOL0     C53905  -1.904   8.491   9.701  0.3251  0.1482 -0.2658
  409MOL0     N53906  -1.159   8.768   9.510  0.4142  0.3619 -0.1065
  409MOL0     N53907  -1.034   8.732   9.511  0.3666 -0.1772  0.2517
  409MOL0     C53908  -0.119   9.209   9.165  0.4576 -0.7573  0.2401
  409MOL0     C53909   0.011   9.239   9.228 -0.2696  0.1648 -0.3097
  409MOL0     C53910   0.336   9.319   9.482 -0.7172 -0.0229 -0.0288
  409MOL0     C53911   0.360   9.452   9.533  0.0469  0.1489 -0.4886
  409MOL0     C53912   0.490   9.476   9.582 -0.1932 -0.3418  0.6250
  409MOL0     C53913   0.599   9.386   9.564  0.8309 -1.0620  0.6777
  409MOL0     O53914   0.724   9.434   9.598 -0.1399 -0.2524 -0.4186
  409MOL0     C53915   0.836   9.339   9.584  0.1966  0.6374 -0.5482
  409MOL0     C53916   0.972   9.397   9.582 -0.0285 -0.2922  0.0057
  409MOL0     C53917   0.991   9.514   9.476  0.4076  0.0359 -0.3916
  409MOL0     C53918   1.134   9.568   9.468 -0.7573 -0.3690  0.7601
  409MOL0     C53919   1.215   9.463   9.393  0.4985 -0.1100  0.3632
  409MOL0     C53920   1.280   9.377   9.341  0.6170 -0.2771 -0.1718
  409MOL0     C53921   0.561   9.258   9.521 -0.5359  0.3200 -1.3397
  409MOL0     C53922   0.433   9.224   9.491  0.0207 -0.0378  0.3484
  409MOL0     H53923   0.054   8.955   9.398 -3.3212 -1.7316  0.4916
  409MOL0     H53924  -0.144   8.888   9.282 -1.6309 -1.1195 -0.7241
  409MOL0     H53925  -0.418   9.071   8.977 -0.1464  2.5481 -0.4244
  409MOL0     H53926  -0.400   9.189   9.104 -1.4477  1.5001 -1.0806
  409MOL0     H53927  -0.593   9.027   9.169  0.4780  2.8718  2.9061
  409MOL0     H53928  -0.465   9.027   9.284  0.1240 -1.5193 -0.1367
  409MOL0     H53929  -0.381   8.819   9.194  1.1945  1.7415 -0.9555
  409MOL0     H53930  -0.499   8.817   9.065  1.0562 -0.1102 -0.2424
  409MOL0     H53931  -0.509   8.773   9.354 -0.5562 -0.2852  0.5362
  409MOL0     H53932  -0.659   8.831   9.287  1.2830  2.4445 -0.8451
  409MOL0     H53933  -0.492   8.564   9.232  0.1794 -0.2780 -0.0015
  409MOL0     H53934  -0.617   8.597   9.124 -2.2645  0.8170 -0.0190
  409MOL0     H53935  -0.640   8.555   9.433 -2.5029  2.3838  2.0956
  409MOL0     H53936  -0.684   8.445   9.298  3.4172 -1.1725  1.4869
  409MOL0     H53937  -0.815   8.709   9.371  0.0757  0.3370  0.3709
  409MOL0     H53938  -0.869   8.607   9.233  2.6550 -1.8598 -0.5933
  409MOL0     H53939  -0.851   8.516   9.524 -1.4577  1.9820  1.2857
  409MOL0     H53940  -0.945   8.428   9.405 -0.6705 -0.3587 -0.7583
  409MOL0     H53941  -1.179   8.453   9.418  1.0322  0.2914  0.8701
  409MOL0     H53942  -1.381   8.607   9.333  0.1524 -3.5301  1.8124
  409MOL0     H53943  -1.413   8.766   9.418 -0.9090 -0.9045  3.0668
  409MOL0     H53944  -1.423   8.493   9.551  2.4646  0.4917 -0.5386
  409MOL0     H53945  -1.560   8.590   9.475  2.0062  0.8128 -2.3127
  409MOL0     H53946  -1.376   8.667   9.710  0.3448 -1.1886 -1.8338
  409MOL0     H53947  -1.526   8.761   9.665 -0.1205 -0.1214  1.2050
  409MOL0     H53948  -1.576   8.597   9.862 -4.7960 -0.5667 -0.1328
  409MOL0     H53949  -1.519   8.467   9.751  0.0335  0.7381  1.1847
  409MOL0     H53950  -1.664   8.378   9.914  0.3202  0.0658 -1.3127
  409MOL0     H53951  -1.847   8.251   9.989  0.2025 -2.3171 -1.8837
  409MOL0     H53952  -2.442   8.382   9.851  1.9621  1.0078  0.4590
  409MOL0     H53953  -2.663   8.363   9.984  0.4680 -0.5575 -1.6708
  409MOL0     H53954  -2.839   8.191  10.098 -2.9974  0.2016  1.2075
  409MOL0     H53955  -2.817   8.358  10.147  1.5749  0.7559 -0.3870
  409MOL0     H53956  -2.946   8.136  10.302  4.3275 -2.3729 -2.1758
  409MOL0     H53957  -2.991   8.296  10.260  1.0495  1.0773  0.0324
  409MOL0     H53958  -2.828   8.206  10.489 -0.9608  0.6679  2.9665
  409MOL0     H53959  -2.968   8.307  10.484  0.3815 -1.5875 -0.4344
  409MOL0     H53960  -2.697   8.416  10.384 -0.0357 -1.7247  0.0257
  409MOL0     H53961  -2.860   8.500  10.375 -5.8536 -0.2888  3.0557
  409MOL0     H53962  -2.867   8.482  10.629 -1.1078  0.2934 -1.6478
  409MOL0     H53963  -2.721   8.571  10.580  0.1279  0.9386 -0.6075
  409MOL0     H53964  -2.736   8.295  10.687 -4.2246  2.4519  1.5323
  409MOL0     H53965  -2.663   8.442  10.747 -0.9571 -1.9028  1.1222
  409MOL0     H53966  -2.485   8.279  10.659  2.3362 -0.3768 -1.1849
  409MOL0     H53967  -2.564   8.303  10.500  0.7086 -0.1177 -0.1541
  409MOL0     H53968  -2.438   8.534  10.657 -1.3035  1.1018 -0.4795
  409MOL0     H53969  -2.506   8.534  10.493 -0.7771 -2.9532 -2.3835
  409MOL0     H53970  -2.438   8.171  10.297  2.5662 -1.4163 -0.5065
  409MOL0     H53971  -2.234   8.205  10.163 -0.3280  0.2159  0.0722
  409MOL0     H53972  -2.110   8.401   9.691 -1.0789 -0.8727  0.0964
  409MOL0     H53973  -1.905   8.550   9.610  0.4616 -0.6690 -0.8153
  409MOL0     H53974  -0.179   9.276   9.104  0.2231 -1.4901 -0.3598
  409MOL0     H53975   0.063   9.333   9.210  2.1701 -1.3652 -1.7751
  409MOL0     H53976   0.283   9.528   9.528  0.0465  0.0944 -1.6172
  409MOL0     H53977   0.514   9.576   9.617 -0.1165 -0.5916  1.3073
  409MOL0     H53978   0.815   9.280   9.494 -0.2542 -0.7486  0.4370
  409MOL0     H53979   0.837   9.273   9.670  2.9145 -1.2856 -1.9134
  409MOL0     H53980   1.009   9.420   9.683 -0.9632 -1.0798  0.5459
  409MOL0     H53981   1.046   9.326   9.544 -0.0780  1.0091 -2.7229
  409MOL0     H53982   0.928   9.600   9.501  1.4162  0.3577  1.1525
  409MOL0     H53983   0.946   9.476   9.384  2.8651 -0.2299 -1.5625
  409MOL0     H53984   1.139   9.661   9.410  0.4801 -2.1327 -2.2269
  409MOL0     H53985   1.171   9.573   9.571  0.6794 -2.8641  0.4455
  409MOL0     H53986   1.332   9.292   9.300 -1.5327 -1.9954  0.4652
  409MOL0     H53987   0.635   9.183   9.497 -1.4486  0.1715 -4.0772
  409MOL0     H53988   0.409   9.125   9.454  3.6405 -0.8404 -0.2813
  410MOL0     O53989   3.239  10.503   6.784  0.5826 -0.3502 -0.1979
  410MOL0     C53990   3.190  10.490   6.677 -0.1045 -0.7309  0.0715
  410MOL0     O53991   3.256  10.493   6.558  0.4567 -0.6718 -0.2698
  410MOL0     C53992   3.380  10.540   6.545  0.1931 -0.2340  0.7012
  410MOL0     C53993   3.401  10.683   6.545 -0.1455  0.1966  0.1489
  410MOL0     C53994   3.532  10.730   6.521 -0.4005 -0.0402  0.4292
  410MOL0     C53995   3.636  10.645   6.489 -1.0377  0.7689  0.4340
  410MOL0     O53996   3.758  10.709   6.465  0.4711  0.9941 -0.4081
  410MOL0     C53997   3.864  10.618   6.428  0.5232  0.0103 -0.0446
  410MOL0     C53998   3.998  10.695   6.396 -0.4526 -0.2242 -0.1493
  410MOL0     C53999   4.104  10.615   6.328  0.0800 -0.7743  0.7961
  410MOL0     C54000   4.159  10.496   6.405 -0.1504  1.1011  0.0105
  410MOL0     C54001   4.311  10.457   6.392 -0.1758 -0.7826 -0.1595
  410MOL0     C54002   4.328  10.396   6.247  0.2478  0.1046 -0.2542
  410MOL0     C54003   4.274  10.251   6.236  0.3079 -0.3885  0.0537
  410MOL0     C54004   4.375  10.151   6.186 -0.7680  0.7677 -0.2442
  410MOL0     N54005   4.430  10.162   6.052  0.5199  0.2476  0.2986
  410MOL0     C54006   4.346  10.157   5.939 -0.0730 -0.0025  0.4060
  410MOL0     C54007   4.433  10.171   5.834 -0.6413 -0.6429 -0.1922
  410MOL0     C54008   4.397  10.165   5.690  0.6540  0.0183  0.2216
  410MOL0     C54009   4.399  10.019   5.642 -0.8373 -0.6054  0.0824
  410MOL0     C54010   4.384  10.001   5.486 -0.3978  1.1238  1.0861
  410MOL0     C54011   4.249  10.051   5.421  0.1047  0.0405  0.4780
  410MOL0     O54012   4.133  10.014   5.495  0.4595 -0.7405 -1.0240
  410MOL0     C54013   4.025   9.993   5.416  0.4346 -0.1387 -1.0201
  410MOL0     C54014   3.911  10.084   5.393  0.0697 -0.1140  0.0960
  410MOL0     C54015   3.804  10.045   5.311  0.2939  0.9533  0.1383
  410MOL0     C54016   3.805   9.921   5.240 -0.0453  0.1078 -1.3165
  410MOL0     C54017   3.677   9.888   5.172 -0.2519  0.2518  0.7470
  410MOL0     O54018   3.646   9.758   5.155  1.0648 -0.1130  0.1404
  410MOL0     C54019   3.537   9.730   5.067  0.3370  0.8353 -0.3452
  410MOL0     C54020   3.402   9.745   5.108  0.5994 -0.0532 -0.0072
  410MOL0     C54021   3.292   9.726   5.027  0.5608 -0.1985  0.0900
  410MOL0     C54022   3.313   9.679   4.900  0.0314  0.4320 -0.1812
  410MOL0     O54023   3.196   9.661   4.838 -0.2160 -0.3470 -0.3562
  410MOL0     C54024   3.204   9.644   4.694  0.4319 -0.0864  0.6420
  410MOL0     C54025   3.059   9.625   4.650 -0.8906  0.0470 -0.2814
  410MOL0     C54026   2.967   9.749   4.661 -0.8019  0.0926  0.2430
  410MOL0     C54027   2.823   9.721   4.620 -0.2082  0.0258  0.1633
  410MOL0     C54028   2.747   9.852   4.601  0.5621 -0.1505 -0.4347
  410MOL0     C54029   2.603   9.828   4.562  0.2358 -0.2665 -0.3679
  410MOL0     C54030   2.531   9.957   4.545 -0.0627  0.9975 -0.1843
  410MOL0     C54031   2.382   9.948   4.594 -0.0357 -0.2971 -0.0403
  410MOL0    Cl54032   2.301  10.104   4.546 -0.3086  0.0680  0.0744
  410MOL0     C54033   3.442   9.654   4.856  0.4544 -0.2917 -0.1245
  410MOL0     C54034   3.554   9.682   4.936  0.3366 -0.4484 -0.6449
  410MOL0     O54035   3.623   9.979   5.114  0.7398 -0.3111 -0.8977
  410MOL0     C54036   3.912   9.833   5.270  1.1326 -0.1669  1.0332
  410MOL0     C54037   4.008   9.873   5.361 -0.2743  0.4237 -0.0698
  410MOL0     N54038   4.568  10.193   5.883 -0.0773 -0.2221  1.0298
  410MOL0     N54039   4.559  10.188   6.011  0.2738  0.0455 -0.0734
  410MOL0     C54040   3.612  10.505   6.487 -0.8882 -0.0731  0.4770
  410MOL0     C54041   3.490  10.451   6.516  0.3403  0.7996 -0.4442
  410MOL0     C54042   3.046  10.465   6.678  0.4521  0.2593  0.2738
  410MOL0     C54043   2.983  10.443   6.554  0.4830  0.0451  0.2241
  410MOL0     C54044   2.843  10.418   6.545  0.4712 -0.2589  0.2271
  410MOL0     C54045   2.772  10.397   6.661 -0.4863 -0.3361  0.2962
  410MOL0     O54046   2.643  10.355   6.667 -0.4060  0.5037  0.3606
  410MOL0     C54047   2.543  10.443   6.624 -0.1807 -0.6517  0.3975
  410MOL0     C54048   2.518  10.552   6.732 -0.3028  0.4661  0.0569
  410MOL0     C54049   2.414  10.507   6.836  1.1957  0.9200 -0.1184
  410MOL0     C54050   2.265  10.539   6.794  0.2439 -0.7601  0.6164
  410MOL0     C54051   2.178  10.513   6.911 -0.1971  0.0915  0.1605
  410MOL0     C54052   2.105  10.496   7.008  0.6414  0.6924 -0.0580
  410MOL0     C54053   2.837  10.404   6.783  0.0253 -0.2237  0.9250
  410MOL0     C54054   2.971  10.442   6.801  0.7830  0.3278 -0.1415
  410MOL0     H54055   3.322  10.757   6.557  0.3379  1.4731 -3.4848
  410MOL0     H54056   3.548  10.836   6.504  2.3242 -0.0714  2.2479
  410MOL0     H54057   3.834  10.552   6.346  3.6964 -2.6036  0.6731
  410MOL0     H54058   3.887  10.553   6.513 -1.0995 -0.4993  0.0315
  410MOL0     H54059   4.036  10.739   6.488 -0.8046 -1.7118  0.7514
  410MOL0     H54060   3.978  10.784   6.335  0.0493  2.5373  3.3913
  410MOL0     H54061   4.187  10.685   6.314 -2.1997  1.7187 -1.2213
  410MOL0     H54062   4.069  10.583   6.230  1.3297 -2.6140  0.8986
  410MOL0     H54063   4.137  10.528   6.508 -2.1897  0.5985 -0.2166
  410MOL0     H54064   4.099  10.405   6.401 -0.4249  1.2426  0.7328
  410MOL0     H54065   4.333  10.375   6.460  2.0606 -0.3609 -0.2804
  410MOL0     H54066   4.379  10.542   6.407 -0.2232 -1.0936  2.1994
  410MOL0     H54067   4.435  10.398   6.226  0.1658 -0.5527 -0.7744
  410MOL0     H54068   4.283  10.459   6.169 -0.4082 -1.0531 -0.8558
  410MOL0     H54069   4.237  10.210   6.331  2.2628 -0.2269  0.9301
  410MOL0     H54070   4.191  10.255   6.165 -2.1278 -0.0177  2.6800
  410MOL0     H54071   4.337  10.049   6.180 -0.7598  0.7126  0.6234
  410MOL0     H54072   4.460  10.157   6.254 -0.9155 -0.2422  0.0408
  410MOL0     H54073   4.239  10.139   5.932  0.0406 -0.2347 -1.0305
  410MOL0     H54074   4.473  10.218   5.631  0.1697  0.6810  0.1752
  410MOL0     H54075   4.296  10.206   5.684 -0.2310 -2.0690  0.3343
  410MOL0     H54076   4.324   9.957   5.692  0.7471 -1.0860  1.9636
  410MOL0     H54077   4.492   9.968   5.670  0.2799 -1.5836 -4.5149
  410MOL0     H54078   4.468  10.039   5.428  0.1310  0.0230  1.1137
  410MOL0     H54079   4.392   9.893   5.474  0.6060  1.2794  0.2949
  410MOL0     H54080   4.254   9.999   5.325 -0.3620 -2.9518  1.9424
  410MOL0     H54081   4.255  10.160   5.412  0.1740  0.0788  0.9502
  410MOL0     H54082   3.894  10.177   5.447  0.4854 -0.5154  0.9409
  410MOL0     H54083   3.718  10.109   5.294  1.5798  2.4062 -1.2303
  410MOL0     H54084   3.375   9.766   5.211  1.2574 -2.8773  0.8393
  410MOL0     H54085   3.194   9.741   5.070  0.6915 -1.5239  0.9126
  410MOL0     H54086   3.257   9.554   4.662  0.2098  0.8154 -2.6239
  410MOL0     H54087   3.252   9.730   4.646 -0.7170 -0.2519 -0.8562
  410MOL0     H54088   3.016   9.547   4.713 -1.6362  0.3502 -0.4022
  410MOL0     H54089   3.053   9.590   4.546 -3.5340 -1.2224  0.2017
  410MOL0     H54090   3.011   9.835   4.610  1.8908 -1.3903 -0.1479
  410MOL0     H54091   2.961   9.777   4.767  0.4206  5.1024 -0.7531
  410MOL0     H54092   2.822   9.661   4.529  2.5883  1.2092 -0.7243
  410MOL0     H54093   2.767   9.660   4.692 -1.6641  3.7124  2.4630
  410MOL0     H54094   2.784   9.910   4.516  0.3016 -1.0812 -1.2042
  410MOL0     H54095   2.746   9.917   4.689  1.5128  0.0827 -0.5870
  410MOL0     H54096   2.558   9.752   4.627  0.7823  0.5470  0.9957
  410MOL0     H54097   2.609   9.789   4.460 -1.4483 -3.4636  0.6158
  410MOL0     H54098   2.577  10.033   4.609  0.0076 -0.2039  1.2670
  410MOL0     H54099   2.538   9.991   4.442 -1.3524  0.2795 -0.5350
  410MOL0     H54100   2.369   9.925   4.700  2.3609  1.7087  0.7848
  410MOL0     H54101   2.333   9.872   4.532  0.6598 -0.5114 -0.3307
  410MOL0     H54102   3.455   9.622   4.753  0.1383  0.6390 -0.4675
  410MOL0     H54103   3.651   9.660   4.893  1.5864 -1.3069  2.3921
  410MOL0     H54104   3.904   9.731   5.236 -2.9822 -0.7813  3.1935
  410MOL0     H54105   4.081   9.795   5.381 -0.7359 -0.7547 -2.5158
  410MOL0     H54106   3.690  10.434   6.461 -0.5034  0.5468 -0.0912
  410MOL0     H54107   3.460  10.347   6.510 -1.9304  1.4101 -0.6936
  410MOL0     H54108   3.038  10.468   6.463  0.4298  1.1077  0.4624
  410MOL0     H54109   2.808  10.397   6.445 -1.2121  0.1290  0.7131
  410MOL0     H54110   2.449  10.393   6.602 -0.0890 -1.8262  2.4000
  410MOL0     H54111   2.588  10.484   6.533  1.8610 -0.0480  1.6157
  410MOL0     H54112   2.609  10.576   6.787 -1.8940  0.9326  2.6824
  410MOL0     H54113   2.485  10.643   6.681 -1.8913 -1.0976 -1.8829
  410MOL0     H54114   2.436  10.563   6.927  0.5052 -0.5030  0.9718
  410MOL0     H54115   2.429  10.400   6.852 -0.3038  0.4973 -1.2402
  410MOL0     H54116   2.272  10.644   6.763  0.6608 -1.2366 -0.9745
  410MOL0     H54117   2.232  10.484   6.706 -1.2203  0.8811  0.0939
  410MOL0     H54118   2.028  10.494   7.082 -1.1499  1.1479 -1.8301
  410MOL0     H54119   2.777  10.389   6.873  3.4626 -2.7006  3.0619
  410MOL0     H54120   3.013  10.446   6.901  0.5265 -0.6101  0.0188
  411MOL0     O54121   4.057   3.767   5.711 -0.2797 -0.1928  0.4285
  411MOL0     C54122   4.085   3.881   5.679  0.5185  0.2413  0.1072
  411MOL0     O54123   3.997   3.971   5.646  0.1354 -0.6220  0.6773
  411MOL0     C54124   3.862   3.937   5.613 -1.4850 -1.0253 -0.1289
  411MOL0     C54125   3.822   3.863   5.498  0.3646 -0.5741  0.4507
  411MOL0     C54126   3.690   3.831   5.457 -0.0972 -0.3783 -0.1835
  411MOL0     C54127   3.590   3.875   5.543  0.3936  0.8938 -0.6491
  411MOL0     O54128   3.461   3.844   5.528  0.4364 -0.1059  0.3826
  411MOL0     C54129   3.405   3.884   5.402 -0.0712  0.4708 -0.1174
  411MOL0     C54130   3.256   3.889   5.428  0.3300  0.2149 -0.7717
  411MOL0     C54131   3.189   3.768   5.479 -1.1032 -0.6913 -0.1100
  411MOL0     C54132   3.050   3.805   5.532 -0.1816 -0.1221 -0.4065
  411MOL0     C54133   2.967   3.678   5.555  0.0020  0.2488 -0.7215
  411MOL0     C54134   2.831   3.686   5.615 -0.5342 -0.2962 -0.7048
  411MOL0     C54135   2.829   3.658   5.769 -1.0832  0.3491 -0.1981
  411MOL0     C54136   2.922   3.757   5.847 -0.2331  0.5718  0.8133
  411MOL0     N54137   2.901   3.718   5.993  0.0763  0.5452  0.1236
  411MOL0     C54138   2.961   3.620   6.066 -0.5454 -0.7713 -0.2366
  411MOL0     C54139   2.930   3.657   6.197 -0.2179  0.2018  0.5328
  411MOL0     C54140   2.974   3.583   6.323 -0.1812  0.0041 -0.3096
  411MOL0     C54141   3.069   3.663   6.411 -0.8611  0.2921  0.0140
  411MOL0     C54142   3.214   3.661   6.358  0.5552 -0.3257  0.8750
  411MOL0     C54143   3.284   3.528   6.405 -0.7572  0.4019  0.0864
  411MOL0     O54144   3.412   3.525   6.333  0.5601 -0.0199  0.1884
  411MOL0     C54145   3.513   3.602   6.389  0.5111 -0.3985 -0.5082
  411MOL0     C54146   3.509   3.661   6.519 -0.9807 -0.5664 -1.5259
  411MOL0     C54147   3.612   3.726   6.580 -0.3233  0.4746 -0.6656
  411MOL0     C54148   3.734   3.739   6.508 -0.2896 -0.0117  0.3026
  411MOL0     C54149   3.859   3.815   6.556  0.7149  0.1397 -0.0458
  411MOL0     O54150   3.968   3.814   6.468  0.0518  0.6611  0.6710
  411MOL0     C54151   4.095   3.856   6.498 -0.1038 -0.6721 -0.2607
  411MOL0     C54152   4.188   3.800   6.415 -0.9344 -0.0478  0.8253
  411MOL0     C54153   4.320   3.855   6.410  0.3735  0.4924 -0.5670
  411MOL0     C54154   4.349   3.970   6.479  0.2832  0.6970  0.4841
  411MOL0     O54155   4.475   4.024   6.483 -0.6950  0.3530 -0.0679
  411MOL0     C54156   4.581   3.970   6.415  0.4087 -0.2686 -0.0915
  411MOL0     C54157   4.700   4.060   6.451 -0.8012  0.6223  0.2253
  411MOL0     C54158   4.818   4.024   6.364 -0.2176  0.7691 -0.0060
  411MOL0     C54159   4.950   4.068   6.426  1.1577 -0.3123  0.4992
  411MOL0     C54160   4.980   4.210   6.379  0.3538 -0.1009  0.2906
  411MOL0     C54161   5.127   4.255   6.417 -0.1683  0.0286 -0.3392
  411MOL0     C54162   5.180   4.201   6.552  1.0775  0.3841 -0.3556
  411MOL0     C54163   5.314   4.264   6.602  0.3933 -0.6782  0.2650
  411MOL0    Cl54164   5.445   4.205   6.516  0.0374  0.4781 -0.6574
  411MOL0     C54165   4.245   4.028   6.552  0.6484 -0.3713 -0.8972
  411MOL0     C54166   4.122   3.967   6.564 -0.2927  0.4632 -0.9172
  411MOL0     O54167   3.861   3.865   6.667  0.4800 -0.1734  0.0741
  411MOL0     C54168   3.745   3.667   6.383  0.8105 -0.5580  1.0232
  411MOL0     C54169   3.635   3.604   6.320 -0.5079 -0.1640 -0.5076
  411MOL0     N54170   2.845   3.769   6.193  0.4879 -0.2618 -0.6304
  411MOL0     N54171   2.821   3.801   6.070 -0.3876  0.6339  0.0898
  411MOL0     C54172   3.623   3.954   5.649  0.6224  0.0277 -0.3897
  411MOL0     C54173   3.755   3.983   5.689  0.6157  0.3269 -0.7387
  411MOL0     C54174   4.227   3.915   5.671 -0.2783  0.8705 -0.2853
  411MOL0     C54175   4.283   4.041   5.705  0.1779 -0.4093  0.2725
  411MOL0     C54176   4.421   4.081   5.704 -0.1673  0.9584  0.5937
  411MOL0     C54177   4.506   3.994   5.638  0.2417 -0.3552 -0.7307
  411MOL0     O54178   4.632   4.026   5.600  0.7544  0.4995 -0.0223
  411MOL0     C54179   4.624   4.096   5.485  0.3002  0.1209  1.0315
  411MOL0     C54180   4.732   4.199   5.460  0.1188  0.7470  0.7295
  411MOL0     C54181   4.871   4.137   5.504  0.9996  0.0676 -0.1032
  411MOL0     C54182   4.989   4.212   5.446 -0.4097  0.2348  0.0334
  411MOL0     C54183   5.126   4.156   5.489  1.2281 -0.3089  1.0462
  411MOL0     C54184   5.239   4.111   5.510 -0.6128 -0.0653 -0.0609
  411MOL0     C54185   4.461   3.866   5.606 -0.3037  0.7581 -0.1517
  411MOL0     C54186   4.330   3.830   5.629 -0.2818  1.0140 -0.9482
  411MOL0     H54187   3.898   3.821   5.432  2.7712  1.5476  1.6794
  411MOL0     H54188   3.668   3.766   5.373 -1.5566  1.0765 -0.9867
  411MOL0     H54189   3.435   3.811   5.326  3.6102  2.5893 -0.8958
  411MOL0     H54190   3.446   3.979   5.366  0.3381 -0.6306 -2.7581
  411MOL0     H54191   3.220   3.913   5.327  1.2112 -0.2990 -1.2156
  411MOL0     H54192   3.245   3.967   5.503  0.2273 -0.8248  0.3148
  411MOL0     H54193   3.252   3.734   5.562 -0.3977  1.1296  0.1557
  411MOL0     H54194   3.175   3.702   5.393 -0.8858  0.2028 -0.8562
  411MOL0     H54195   3.059   3.868   5.621  0.7205 -0.4670 -0.2500
  411MOL0     H54196   2.997   3.865   5.457  1.1447  4.7488  2.1539
  411MOL0     H54197   3.027   3.612   5.619 -0.0282  2.2275  1.4726
  411MOL0     H54198   2.955   3.621   5.462 -0.5496 -1.7934  0.5428
  411MOL0     H54199   2.764   3.631   5.549 -2.1839  0.0093  0.6432
  411MOL0     H54200   2.798   3.790   5.617 -0.1697 -0.1725  0.8849
  411MOL0     H54201   2.724   3.655   5.800 -0.4391 -0.8190  2.0991
  411MOL0     H54202   2.876   3.561   5.789  1.1371  1.7138  1.7507
  411MOL0     H54203   2.877   3.854   5.824 -1.1018 -0.0436 -0.1788
  411MOL0     H54204   3.024   3.735   5.815 -0.9842 -1.7618 -0.1614
  411MOL0     H54205   3.032   3.551   6.021 -3.0076 -1.5833 -3.2432
  411MOL0     H54206   3.021   3.485   6.308  1.9255  0.4742  2.4026
  411MOL0     H54207   2.881   3.570   6.380  0.0649  1.3991  0.4450
  411MOL0     H54208   3.061   3.631   6.515 -3.1392 -0.9200 -0.4565
  411MOL0     H54209   3.038   3.768   6.410 -0.0600  0.5355  0.1407
  411MOL0     H54210   3.220   3.668   6.249  0.4878  2.2196  0.9777
  411MOL0     H54211   3.273   3.742   6.401 -0.4568  1.2981 -0.6627
  411MOL0     H54212   3.238   3.436   6.369 -0.0963 -1.2372  3.0782
  411MOL0     H54213   3.282   3.512   6.514  0.6265 -1.3748 -0.0963
  411MOL0     H54214   3.415   3.650   6.573 -0.6672  0.6781 -0.6883
  411MOL0     H54215   3.614   3.765   6.681  1.8646  1.1276 -0.8979
  411MOL0     H54216   4.174   3.715   6.350  1.3300  0.1025  0.0594
  411MOL0     H54217   4.388   3.802   6.344  2.4283  4.3146 -1.8272
  411MOL0     H54218   4.570   3.989   6.308  1.2677 -1.2016 -0.3609
  411MOL0     H54219   4.601   3.864   6.435  0.5806 -0.1726  0.2514
  411MOL0     H54220   4.722   4.052   6.558  0.7850  2.3964  0.0953
  411MOL0     H54221   4.669   4.162   6.429  0.7998  0.7494 -1.6909
  411MOL0     H54222   4.795   4.072   6.269 -2.9446  0.2408  0.3172
  411MOL0     H54223   4.820   3.917   6.339 -2.6826  0.4913  0.6630
  411MOL0     H54224   4.960   4.060   6.534  2.3008 -0.4142  0.3983
  411MOL0     H54225   5.029   4.007   6.380  0.7380 -0.4402 -0.0666
  411MOL0     H54226   4.916   4.264   6.450  2.0390  1.0707  0.9773
  411MOL0     H54227   4.943   4.232   6.279 -3.8307  3.7350  2.3055
  411MOL0     H54228   5.128   4.365   6.414 -4.0594  0.2376  0.3480
  411MOL0     H54229   5.193   4.209   6.344  1.5981  0.8031  0.6882
  411MOL0     H54230   5.104   4.215   6.630 -0.5608 -0.7803 -1.6592
  411MOL0     H54231   5.188   4.092   6.543 -1.8430 -0.1645  1.9553
  411MOL0     H54232   5.331   4.237   6.707  1.5148 -0.3193  0.1827
  411MOL0     H54233   5.314   4.373   6.594 -1.4160 -0.5525  1.4321
  411MOL0     H54234   4.280   4.120   6.599  1.5714 -0.4488 -1.4085
  411MOL0     H54235   4.047   4.009   6.631  0.8291 -1.1543  1.5107
  411MOL0     H54236   3.838   3.659   6.328 -0.3730 -0.4977 -1.0722
  411MOL0     H54237   3.655   3.550   6.227 -2.1951 -1.9825  0.1020
  411MOL0     H54238   3.548   3.999   5.713  1.3261  0.5889  0.0555
  411MOL0     H54239   3.770   4.047   5.776  1.0144 -0.9102  0.1176
  411MOL0     H54240   4.216   4.118   5.742  0.3113 -0.0240 -0.2775
  411MOL0     H54241   4.454   4.179   5.738 -2.5528  1.6330  1.1647
  411MOL0     H54242   4.531   4.153   5.470 -0.4685 -1.8078 -2.5429
  411MOL0     H54243   4.613   4.025   5.403 -0.4841 -0.5330  1.6849
  411MOL0     H54244   4.723   4.223   5.354  0.4581 -3.3610 -0.4031
  411MOL0     H54245   4.714   4.290   5.518 -0.6294  0.9082  0.2574
  411MOL0     H54246   4.881   4.032   5.478 -0.3053  0.2795 -1.6130
  411MOL0     H54247   4.877   4.155   5.612  1.0546 -1.6068  0.1873
  411MOL0     H54248   4.972   4.227   5.339 -1.8421 -0.6589  0.1041
  411MOL0     H54249   4.996   4.315   5.483  0.4743  0.2624 -0.2016
  411MOL0     H54250   5.336   4.067   5.521  0.3032  2.1559  1.5860
  411MOL0     H54251   4.529   3.790   5.568 -0.5395 -0.3783  1.5844
  411MOL0     H54252   4.299   3.732   5.596  0.4301 -1.1187  3.8831
  412MOL0     O54253  10.402  10.980   5.603 -0.0698  0.2038  0.5504
  412MOL0     C54254  10.439  10.872   5.554 -0.0481 -0.1963 -0.1022
  412MOL0     O54255  10.358  10.766   5.521 -0.2806  0.3744  0.1438
  412MOL0     C54256  10.232  10.761   5.572  0.0622  0.6599  0.6526
  412MOL0     C54257  10.133  10.855   5.550  0.7168 -0.1568 -0.6588
  412MOL0     C54258   9.995  10.844   5.586  0.1710  0.3710  0.8168
  412MOL0     C54259   9.958  10.720   5.641  0.5321  0.7319 -0.3954
  412MOL0     O54260   9.835  10.673   5.670  0.1665  0.7188 -0.7060
  412MOL0     C54261   9.720  10.749   5.634 -0.3695 -0.2320 -0.2162
  412MOL0     C54262   9.594  10.673   5.705 -0.0981  0.2024  0.2761
  412MOL0     C54263   9.469  10.766   5.707 -0.5123 -0.1005  0.6031
  412MOL0     C54264   9.348  10.695   5.771 -0.0197  0.0109  0.2811
  412MOL0     C54265   9.227  10.790   5.776  0.6336 -0.0000 -0.4665
  412MOL0     C54266   9.115  10.713   5.853  0.3355 -0.5406 -0.7869
  412MOL0     C54267   8.985  10.802   5.824  0.0660  0.9737 -0.4396
  412MOL0     C54268   8.857  10.720   5.845 -0.7171  0.2674  0.1016
  412MOL0     N54269   8.843  10.670   5.983 -0.0531 -0.1915 -0.5546
  412MOL0     C54270   8.780  10.733   6.094 -0.1122  0.1203 -0.1474
  412MOL0     C54271   8.802  10.653   6.200  1.0838  0.0129 -0.0401
  412MOL0     C54272   8.770  10.662   6.347 -0.9207 -0.1042 -0.1585
  412MOL0     C54273   8.620  10.692   6.372 -1.0856  1.2990  0.6183
  412MOL0     C54274   8.579  10.667   6.516 -0.0618  0.0432 -0.5129
  412MOL0     C54275   8.629  10.764   6.612  0.6982  0.3007 -0.3152
  412MOL0     O54276   8.577  10.743   6.744 -0.0850 -0.0278  0.1608
  412MOL0     C54277   8.449  10.773   6.771 -0.6295  0.7605  0.5537
  412MOL0     C54278   8.405  10.713   6.893  0.9473 -0.6655  0.3488
  412MOL0     C54279   8.277  10.729   6.938 -0.2935  0.6315 -0.1239
  412MOL0     C54280   8.186  10.811   6.863  1.2969  0.4180  0.5253
  412MOL0     C54281   8.048  10.847   6.906  0.5682 -0.0829 -0.2637
  412MOL0     O54282   7.966  10.931   6.827 -0.3771  0.4306 -0.0120
  412MOL0     C54283   7.828  10.931   6.840  1.0985  0.7804  0.3824
  412MOL0     C54284   7.748  10.824   6.807 -0.2630  0.3746  0.1567
  412MOL0     C54285   7.610  10.820   6.824 -1.0197  0.3690 -0.4423
  412MOL0     C54286   7.542  10.936   6.865  0.0179 -0.4685  0.6276
  412MOL0     O54287   7.407  10.923   6.882  0.7309 -0.6368 -0.8992
  412MOL0     C54288   7.320  11.039   6.886  0.6176  0.5581  0.1254
  412MOL0     C54289   7.190  11.012   6.968  0.1721 -0.7070  0.1006
  412MOL0     C54290   7.082  11.116   6.939  0.5748 -0.3055  0.0009
  412MOL0     C54291   6.947  11.087   6.994 -0.3718 -0.4463  0.1549
  412MOL0     C54292   6.850  11.185   6.945  1.1085 -0.6510  0.2111
  412MOL0     C54293   6.700  11.158   6.976  0.1278  0.4095  0.8656
  412MOL0     C54294   6.612  11.247   6.893 -0.2023  0.0964 -0.0593
  412MOL0     C54295   6.470  11.266   6.956 -0.1130  0.5783  0.9897
  412MOL0    Cl54296   6.368  11.139   6.878 -0.1308 -0.2262  0.1505
  412MOL0     C54297   7.620  11.046   6.896  0.8792 -0.2084  0.5447
  412MOL0     C54298   7.760  11.037   6.884 -0.2389  0.9267 -0.9932
  412MOL0     O54299   8.008  10.801   7.011 -0.5821  0.0849  0.5866
  412MOL0     C54300   8.221  10.852   6.737 -0.6201  0.5838 -0.3670
  412MOL0     C54301   8.351  10.840   6.696  0.1966 -0.0884 -0.2885
  412MOL0     N54302   8.864  10.543   6.149  0.2357  0.1422 -0.6405
  412MOL0     N54303   8.887  10.549   6.018 -0.2960 -0.4675 -0.3553
  412MOL0     C54304  10.060  10.624   5.658  0.7404  0.9530 -0.3849
  412MOL0     C54305  10.192  10.646   5.636  0.0249  0.3071 -0.2897
  412MOL0     C54306  10.578  10.851   5.515  0.9836 -0.9940 -0.5225
  412MOL0     C54307  10.622  10.728   5.467 -0.3498  0.0642  0.9210
  412MOL0     C54308  10.763  10.713   5.422  0.1879 -0.0853  0.3134
  412MOL0     C54309  10.851  10.814   5.438  0.0250 -0.3734 -0.5302
  412MOL0     O54310  10.986  10.793   5.402 -0.2804 -0.1484 -0.6626
  412MOL0     C54311  11.089  10.849   5.496  0.4757  0.9584 -0.0998
  412MOL0     C54312  11.213  10.894   5.426  0.2733 -0.0347  0.3264
  412MOL0     C54313  11.302  10.781   5.381  0.7818 -0.2676 -0.3926
  412MOL0     C54314  11.417  10.817   5.289 -0.5901  0.2635  0.0176
  412MOL0     C54315  11.379  10.835   5.149 -0.6843 -0.4223  0.2339
  412MOL0     C54316  11.346  10.842   5.029  0.1285 -0.4201 -1.0389
  412MOL0     C54317  10.802  10.946   5.478  0.1503  0.7331 -0.9023
  412MOL0     C54318  10.668  10.963   5.512  0.7236  0.0600 -0.0717
  412MOL0     H54319  10.160  10.945   5.495  2.0680 -1.4366 -2.1791
  412MOL0     H54320   9.925  10.923   5.561 -1.4967 -0.7284  1.7486
  412MOL0     H54321   9.708  10.760   5.526  0.2662  5.8245  0.0259
  412MOL0     H54322   9.740  10.849   5.674  2.2207 -0.6613 -0.3218
  412MOL0     H54323   9.629  10.652   5.807 -1.1593  2.7278  1.2325
  412MOL0     H54324   9.575  10.584   5.644 -0.3226  0.3404  0.1444
  412MOL0     H54325   9.451  10.804   5.606  1.2328  0.4214  0.4594
  412MOL0     H54326   9.489  10.865   5.750  0.0855  2.2837 -4.4976
  412MOL0     H54327   9.313  10.607   5.716 -1.1725  1.4714 -1.4600
  412MOL0     H54328   9.377  10.673   5.874 -1.4194 -2.9839  0.1310
  412MOL0     H54329   9.176  10.815   5.682  2.6882  1.5150 -1.2640
  412MOL0     H54330   9.260  10.883   5.821  1.9306 -0.1558 -1.0500
  412MOL0     H54331   9.132  10.717   5.961 -2.1187 -0.3534 -0.3448
  412MOL0     H54332   9.109  10.614   5.808  0.1914 -0.7638 -0.2890
  412MOL0     H54333   8.982  10.889   5.891 -1.0394  0.0527  0.7430
  412MOL0     H54334   8.977  10.833   5.719  0.1152  1.5350 -0.2823
  412MOL0     H54335   8.858  10.639   5.772  4.7339  1.1042 -1.1855
  412MOL0     H54336   8.763  10.774   5.828 -1.7418 -0.7863  2.1050
  412MOL0     H54337   8.722  10.824   6.106 -1.8034 -0.9906  0.3820
  412MOL0     H54338   8.832  10.741   6.390  1.9918 -3.5446  2.5958
  412MOL0     H54339   8.805  10.572   6.397 -2.8513 -0.3200  0.8755
  412MOL0     H54340   8.565  10.620   6.311 -1.0671  2.6363 -1.0676
  412MOL0     H54341   8.585  10.793   6.348 -0.3413  1.0683 -1.6743
  412MOL0     H54342   8.471  10.674   6.527  0.1451  2.5068  0.4801
  412MOL0     H54343   8.606  10.568   6.555 -1.4070 -0.1049  0.0844
  412MOL0     H54344   8.616  10.863   6.569  2.7323  0.9742  0.4955
  412MOL0     H54345   8.736  10.742   6.618  0.2178 -2.0064  1.7612
  412MOL0     H54346   8.483  10.665   6.951  2.6285  2.5952  1.0001
  412MOL0     H54347   8.250  10.686   7.034 -1.7959 -0.1037 -0.8351
  412MOL0     H54348   7.802  10.736   6.775 -2.2597 -0.0574 -2.3585
  412MOL0     H54349   7.562  10.723   6.820 -2.0391  0.7067  1.9869
  412MOL0     H54350   7.282  11.051   6.784 -2.6361 -2.1982  0.8567
  412MOL0     H54351   7.368  11.132   6.920 -1.0227  1.0934  1.0581
  412MOL0     H54352   7.203  11.015   7.076  0.3748  0.5657  0.0554
  412MOL0     H54353   7.145  10.915   6.941 -0.5254 -0.4328  0.2554
  412MOL0     H54354   7.068  11.130   6.831 -2.6571 -0.6889  0.2526
  412MOL0     H54355   7.113  11.213   6.978 -0.2714  0.5203 -1.2654
  412MOL0     H54356   6.920  10.984   6.972  0.2792 -0.2996 -1.4718
  412MOL0     H54357   6.959  11.098   7.103  2.8575 -2.7416  0.1534
  412MOL0     H54358   6.865  11.186   6.837 -0.9064 -0.5075 -0.0968
  412MOL0     H54359   6.869  11.283   6.988  2.1969 -0.7594  0.0067
  412MOL0     H54360   6.691  11.192   7.080  1.5012 -0.2871  1.2358
  412MOL0     H54361   6.691  11.052   6.951 -0.0081  0.3496  1.1714
  412MOL0     H54362   6.654  11.348   6.890 -0.7633  0.3369  0.0417
  412MOL0     H54363   6.596  11.204   6.793  1.2183 -1.6223  0.4068
  412MOL0     H54364   6.430  11.367   6.938 -1.3597 -0.2535 -1.4468
  412MOL0     H54365   6.475  11.249   7.063 -0.1820 -1.6169  0.6840
  412MOL0     H54366   7.572  11.136   6.933 -0.9864 -1.8316  2.3334
  412MOL0     H54367   7.833  11.114   6.905  1.4314 -1.0502  0.9731
  412MOL0     H54368   8.157  10.909   6.670 -0.7180 -2.1290 -2.7710
  412MOL0     H54369   8.373  10.894   6.605  0.3920  1.5188  0.6826
  412MOL0     H54370  10.039  10.517   5.663  0.2208  0.9521 -2.1705
  412MOL0     H54371  10.258  10.561   5.647 -1.1430 -0.4371  1.3868
  412MOL0     H54372  10.560  10.639   5.460  0.4585 -0.3967 -1.7154
  412MOL0     H54373  10.799  10.613   5.400  0.1596 -0.7011  2.8472
  412MOL0     H54374  11.115  10.764   5.560  0.0496  1.2319  0.4467
  412MOL0     H54375  11.042  10.921   5.564 -4.6192 -1.8817 -0.0897
  412MOL0     H54376  11.174  10.937   5.333 -4.4022 -1.1432  1.4924
  412MOL0     H54377  11.276  10.957   5.488  0.1814  1.9327 -1.4726
  412MOL0     H54378  11.254  10.688   5.351 -0.0757 -0.1862  0.6785
  412MOL0     H54379  11.337  10.740   5.476  0.3981 -1.1687 -0.6357
  412MOL0     H54380  11.482  10.900   5.316 -2.1622  2.2686 -1.9161
  412MOL0     H54381  11.488  10.734   5.285  0.5419  1.2415 -0.8380
  412MOL0     H54382  11.314  10.842   4.927 -1.5121  0.8261 -0.5777
  412MOL0     H54383  10.881  11.020   5.487 -0.3603  1.2638 -0.6920
  412MOL0     H54384  10.634  11.060   5.548 -2.2826 -0.8628 -0.1752
  413MOL0     O54385   9.251   4.124   1.431 -0.1143  0.3282 -0.3363
  413MOL0     C54386   9.270   4.071   1.321  0.7952  0.1790  0.0299
  413MOL0     O54387   9.175   4.006   1.255 -0.5039 -0.6111  0.3537
  413MOL0     C54388   9.042   4.031   1.286 -0.4014  0.5360  0.4625
  413MOL0     C54389   8.962   4.116   1.203 -0.1777 -0.6520 -0.7598
  413MOL0     C54390   8.826   4.138   1.239 -0.6186  0.7212 -0.2214
  413MOL0     C54391   8.775   4.083   1.358 -0.3208 -1.2870  0.1781
  413MOL0     O54392   8.649   4.103   1.384  0.2057 -0.2557 -0.7308
  413MOL0     C54393   8.572   3.994   1.455  0.6449 -0.6475 -0.0789
  413MOL0     C54394   8.417   4.016   1.443 -0.0179  0.4631  0.2793
  413MOL0     C54395   8.327   3.895   1.480  0.1155 -0.5075 -0.5226
  413MOL0     C54396   8.191   3.937   1.448  0.2504 -0.4412  0.1835
  413MOL0     C54397   8.073   3.837   1.488  0.0219 -0.4154 -0.1702
  413MOL0     C54398   7.940   3.893   1.415 -0.1914  0.1247  0.2675
  413MOL0     C54399   7.798   3.846   1.474 -0.2580  0.0283  0.3579
  413MOL0     C54400   7.690   3.837   1.365 -0.3496  0.5292  0.0115
  413MOL0     N54401   7.560   3.814   1.420 -0.2241 -0.7294  0.1793
  413MOL0     C54402   7.446   3.894   1.412 -0.3805  0.0712 -0.7991
  413MOL0     C54403   7.345   3.818   1.468  1.0820 -0.9117  0.5002
  413MOL0     C54404   7.211   3.881   1.500  0.0305  0.1933  0.3907
  413MOL0     C54405   7.153   3.849   1.639 -0.5966  0.3301  0.4596
  413MOL0     C54406   7.124   3.698   1.664  0.5570 -1.3749  0.1374
  413MOL0     C54407   7.001   3.639   1.573 -0.0766 -0.3446  0.5531
  413MOL0     O54408   6.968   3.507   1.626 -0.1910 -0.2970 -0.2955
  413MOL0     C54409   6.840   3.457   1.600 -0.8599 -0.0949 -0.0578
  413MOL0     C54410   6.744   3.525   1.521 -0.0553  0.4215  0.0746
  413MOL0     C54411   6.618   3.470   1.524  0.4112 -1.3340 -0.1153
  413MOL0     C54412   6.587   3.357   1.595  0.4408  0.2493 -0.0890
  413MOL0     C54413   6.446   3.301   1.605 -0.1969 -0.1571 -0.7020
  413MOL0     O54414   6.415   3.207   1.699 -0.1374  0.0321  0.5646
  413MOL0     C54415   6.301   3.145   1.737 -0.0708 -0.2586  0.5022
  413MOL0     C54416   6.170   3.188   1.700  0.8189  0.8941  0.5443
  413MOL0     C54417   6.055   3.120   1.747 -0.2741 -0.2743 -0.8874
  413MOL0     C54418   6.062   3.013   1.838 -0.1580 -0.3709  0.9300
  413MOL0     O54419   5.953   2.949   1.886  0.6846  0.7199 -0.3935
  413MOL0     C54420   5.827   2.956   1.825  0.7271 -0.0766  0.4179
  413MOL0     C54421   5.723   2.863   1.886 -0.5889  0.8282  0.4547
  413MOL0     C54422   5.582   2.882   1.836 -0.6137 -0.1280 -0.3725
  413MOL0     C54423   5.491   2.768   1.880 -0.0163 -0.0500 -0.1562
  413MOL0     C54424   5.472   2.746   2.026 -0.2029 -0.1107 -1.0466
  413MOL0     C54425   5.415   2.868   2.099  0.3024 -0.5340 -0.0578
  413MOL0     C54426   5.270   2.899   2.071  0.8566  0.1892 -0.2133
  413MOL0     C54427   5.242   3.045   2.122  0.3894 -0.1346 -0.3782
  413MOL0    Cl54428   5.274   3.057   2.301  0.1616 -0.1301  0.1191
  413MOL0     C54429   6.192   2.979   1.878 -0.4084 -0.4731 -0.3937
  413MOL0     C54430   6.306   3.043   1.835 -0.3206 -1.3893  0.8019
  413MOL0     O54431   6.366   3.352   1.530  0.8190 -0.0911  0.4877
  413MOL0     C54432   6.685   3.294   1.676 -0.0205 -0.3990  0.0477
  413MOL0     C54433   6.812   3.349   1.677 -0.3283 -0.2627 -0.2935
  413MOL0     N54434   7.396   3.697   1.495  0.2460  0.6129  0.6224
  413MOL0     N54435   7.517   3.695   1.464 -0.2450 -0.4156  0.3837
  413MOL0     C54436   8.861   3.997   1.441  0.1025 -0.4951  0.2148
  413MOL0     C54437   8.989   3.971   1.394 -0.3169 -0.0667  0.3140
  413MOL0     C54438   9.401   4.088   1.251 -0.3965  0.4605  0.3248
  413MOL0     C54439   9.414   4.055   1.117 -0.8144 -0.7603  0.2255
  413MOL0     C54440   9.530   4.095   1.045  0.5752  0.0522  0.7236
  413MOL0     C54441   9.635   4.162   1.112 -0.3443  0.2623  0.0445
  413MOL0     O54442   9.739   4.207   1.035 -0.6486 -1.0973 -0.3575
  413MOL0     C54443   9.839   4.290   1.087  0.2231 -0.1377  0.0882
  413MOL0     C54444   9.957   4.208   1.133 -0.4289 -0.2849  0.1950
  413MOL0     C54445  10.006   4.087   1.042  0.7280  0.0131 -0.5731
  413MOL0     C54446  10.144   4.046   1.080  0.3655  0.2709  0.1672
  413MOL0     C54447  10.249   4.130   1.033 -0.0002 -0.2970  0.0442
  413MOL0     C54448  10.329   4.223   1.019  0.0167 -0.1573 -0.5306
  413MOL0     C54449   9.626   4.172   1.250  0.4062  1.0038 -0.9889
  413MOL0     C54450   9.507   4.148   1.323  0.7100  0.1128  0.5441
  413MOL0     H54451   9.006   4.161   1.114  2.8679 -2.3482 -0.2072
  413MOL0     H54452   8.768   4.183   1.159  0.4755  0.1348 -1.3725
  413MOL0     H54453   8.593   3.989   1.562  1.1673 -1.5447 -0.2168
  413MOL0     H54454   8.585   3.894   1.413  1.0387 -0.0779 -1.3703
  413MOL0     H54455   8.389   4.046   1.342  1.9896  1.9144  0.0918
  413MOL0     H54456   8.394   4.102   1.506  1.0801  0.4389  0.7442
  413MOL0     H54457   8.331   3.886   1.589 -2.1101  4.1422  0.1855
  413MOL0     H54458   8.357   3.804   1.427  1.8900  0.6346 -1.5472
  413MOL0     H54459   8.171   4.038   1.484 -1.0008 -0.2160 -1.0654
  413MOL0     H54460   8.182   3.941   1.339 -2.2273 -0.2344  0.3349
  413MOL0     H54461   8.049   3.829   1.595  1.0972 -1.6044  0.0092
  413MOL0     H54462   8.106   3.737   1.460  3.4233  0.0012  1.7819
  413MOL0     H54463   7.945   3.858   1.312 -2.2069  1.2357 -0.2668
  413MOL0     H54464   7.939   4.002   1.412 -1.2878  0.1252  0.2397
  413MOL0     H54465   7.821   3.749   1.520 -1.9101  0.7842  3.0530
  413MOL0     H54466   7.768   3.913   1.555 -0.3298 -1.1508  1.3331
  413MOL0     H54467   7.719   3.749   1.308  2.1121 -0.3639  2.4370
  413MOL0     H54468   7.702   3.920   1.294 -2.3191  1.1860  0.3788
  413MOL0     H54469   7.454   3.996   1.375 -1.4359  0.8377  0.9207
  413MOL0     H54470   7.140   3.856   1.420 -0.0301 -1.6452  0.9808
  413MOL0     H54471   7.222   3.990   1.493 -0.5030  0.1786 -4.4577
  413MOL0     H54472   7.059   3.902   1.656 -0.3429  1.1881 -0.7036
  413MOL0     H54473   7.227   3.884   1.713 -0.2267 -1.3972  0.9650
  413MOL0     H54474   7.209   3.631   1.655 -0.3613 -2.6239  0.4931
  413MOL0     H54475   7.102   3.696   1.771  1.9691 -0.0370  0.4940
  413MOL0     H54476   7.035   3.646   1.470 -2.0448 -3.1611 -0.4236
  413MOL0     H54477   6.919   3.710   1.589  0.8755  0.5650  1.5529
  413MOL0     H54478   6.760   3.612   1.458  1.1156 -0.4971 -0.9508
  413MOL0     H54479   6.536   3.516   1.470  0.0174  0.2979  1.7665
  413MOL0     H54480   6.152   3.284   1.651  1.8009  1.0499  0.4608
  413MOL0     H54481   5.956   3.149   1.714 -1.1302 -2.1460 -0.0885
  413MOL0     H54482   5.842   2.925   1.722 -0.0525 -2.2465  0.9159
  413MOL0     H54483   5.788   3.058   1.832  0.7674 -0.0831  0.7856
  413MOL0     H54484   5.729   2.857   1.995 -0.8346  1.3779  0.5017
  413MOL0     H54485   5.755   2.765   1.850 -2.0248  0.2949  0.5710
  413MOL0     H54486   5.577   2.888   1.727  0.4547  1.4752 -0.3698
  413MOL0     H54487   5.543   2.975   1.878 -1.4809 -1.0017  0.8157
  413MOL0     H54488   5.392   2.769   1.833 -0.1798  1.5801  0.1542
  413MOL0     H54489   5.543   2.681   1.840 -0.6595 -0.7489  0.5198
  413MOL0     H54490   5.567   2.716   2.071  0.6420  1.0908 -1.9792
  413MOL0     H54491   5.401   2.663   2.038  0.3190 -0.5012 -0.5919
  413MOL0     H54492   5.482   2.954   2.091 -1.5360  0.9580  0.0187
  413MOL0     H54493   5.424   2.844   2.206 -1.1782 -1.4177 -0.1075
  413MOL0     H54494   5.234   2.892   1.968 -1.0483  2.3038  0.2151
  413MOL0     H54495   5.211   2.834   2.136  1.5561  1.1758  1.4619
  413MOL0     H54496   5.135   3.064   2.111  0.9997  2.8491 -2.3110
  413MOL0     H54497   5.292   3.127   2.070 -3.3894  3.5588  1.2568
  413MOL0     H54498   6.199   2.898   1.949 -0.4081  0.2240  0.4164
  413MOL0     H54499   6.408   3.013   1.857  0.4540  0.6915  0.2613
  413MOL0     H54500   6.665   3.219   1.752  3.1061  0.2455  1.7161
  413MOL0     H54501   6.895   3.307   1.735 -0.5411  1.1318  1.1017
  413MOL0     H54502   8.836   3.939   1.529 -2.5198 -1.2150 -0.8965
  413MOL0     H54503   9.055   3.896   1.435 -0.1820 -0.4683 -0.6033
  413MOL0     H54504   9.334   4.015   1.055 -2.5584 -0.1545  1.9675
  413MOL0     H54505   9.535   4.073   0.939 -3.1091 -2.4839  0.9032
  413MOL0     H54506   9.798   4.350   1.168  1.7330  0.6267  0.3268
  413MOL0     H54507   9.879   4.363   1.016 -0.6757  1.2135  0.9310
  413MOL0     H54508  10.039   4.280   1.134 -1.1915  0.5989  1.2531
  413MOL0     H54509   9.928   4.173   1.233 -1.1689  0.1687  0.1444
  413MOL0     H54510  10.002   4.129   0.941  2.4970  1.5619 -0.0579
  413MOL0     H54511   9.935   4.004   1.045 -0.7471  1.2599  1.1036
  413MOL0     H54512  10.139   4.024   1.187  0.5553 -2.6303 -0.3362
  413MOL0     H54513  10.169   3.945   1.044 -0.3473  0.7527 -1.8030
  413MOL0     H54514  10.387   4.312   1.006 -0.4329  0.0434 -1.1486
  413MOL0     H54515   9.698   4.227   1.310  0.5079 -0.6591  0.5000
  413MOL0     H54516   9.507   4.162   1.430 -0.6458 -1.6707  0.8174
  414MOL0     O54517   6.700  10.684   3.382 -0.0345 -0.3893 -0.0252
  414MOL0     C54518   6.726  10.568   3.376  0.1900 -0.6363 -0.1935
  414MOL0     O54519   6.843  10.519   3.326 -0.5018  0.2575  0.0090
  414MOL0     C54520   6.937  10.597   3.262 -0.0511 -0.2193 -0.3944
  414MOL0     C54521   7.070  10.572   3.305 -0.2318  0.1796 -0.3481
  414MOL0     C54522   7.175  10.609   3.223 -0.1433  0.4792 -0.2770
  414MOL0     C54523   7.155  10.708   3.121  1.0286 -0.9151 -0.0683
  414MOL0     O54524   7.265  10.755   3.057 -0.0804  0.7039 -0.6183
  414MOL0     C54525   7.295  10.895   3.072 -0.3605  0.0757  1.2440
  414MOL0     C54526   7.446  10.926   3.071 -0.2933  0.6857  0.5252
  414MOL0     C54527   7.460  11.082   3.063  0.5606  0.1098 -0.0267
  414MOL0     C54528   7.601  11.132   3.087 -0.0294  0.1664  0.5505
  414MOL0     C54529   7.616  11.280   3.078 -0.3560 -0.3838  0.8254
  414MOL0     C54530   7.769  11.319   3.076 -0.3752  0.5706  0.0338
  414MOL0     C54531   7.779  11.468   3.089 -0.5028  0.3916 -1.1524
  414MOL0     C54532   7.916  11.524   3.132 -0.8451  0.0228 -0.1209
  414MOL0     N54533   8.006  11.537   3.019  0.0776 -0.0739  0.0641
  414MOL0     C54534   8.071  11.440   2.949  0.4079  0.5474 -0.1379
  414MOL0     C54535   8.161  11.514   2.880 -0.5838  0.1759 -0.3678
  414MOL0     C54536   8.267  11.442   2.800  0.2366  0.0328  0.2114
  414MOL0     C54537   8.246  11.479   2.648 -0.3572 -0.8393 -0.6708
  414MOL0     C54538   8.255  11.364   2.551 -0.5058 -0.8629  0.6875
  414MOL0     C54539   8.118  11.308   2.522 -0.0221  0.3215 -0.4819
  414MOL0     O54540   8.086  11.236   2.643 -0.7163 -0.2137 -0.0978
  414MOL0     C54541   7.962  11.185   2.651 -0.0312  0.8680 -0.6494
  414MOL0     C54542   7.938  11.112   2.762 -0.6394 -0.7777  0.1791
  414MOL0     C54543   7.821  11.045   2.770 -0.0416 -1.1543 -0.3090
  414MOL0     C54544   7.730  11.033   2.670  1.1880 -0.4084 -0.9539
  414MOL0     C54545   7.609  10.963   2.689  0.7087  0.1697  0.5797
  414MOL0     O54546   7.493  11.014   2.634 -0.2516  0.3663 -0.1664
  414MOL0     C54547   7.369  10.950   2.629 -0.1444  0.2930  0.0932
  414MOL0     C54548   7.342  10.812   2.610 -0.4423 -0.1552 -1.1612
  414MOL0     C54549   7.208  10.771   2.605 -0.2032  0.1691 -0.4428
  414MOL0     C54550   7.099  10.860   2.611  0.2011  0.0197  1.0688
  414MOL0     O54551   6.965  10.825   2.604 -0.0002  0.3399  0.2144
  414MOL0     C54552   6.936  10.684   2.617 -0.1586 -0.0313 -0.2088
  414MOL0     C54553   6.793  10.655   2.656 -0.5445 -0.7165  0.0773
  414MOL0     C54554   6.762  10.718   2.792 -0.3245  0.6639 -0.3647
  414MOL0     C54555   6.615  10.730   2.824  0.8184  0.0679 -0.7161
  414MOL0     C54556   6.581  10.717   2.973 -0.4650  0.0306 -0.8107
  414MOL0     C54557   6.429  10.724   2.999 -0.4704 -0.3202  0.2166
  414MOL0     C54558   6.389  10.703   3.144  0.3780  0.8141 -0.0560
  414MOL0     C54559   6.244  10.738   3.168 -0.8292  0.1744  0.5878
  414MOL0    Cl54560   6.197  10.708   3.341 -0.3554 -0.0544 -0.1740
  414MOL0     C54561   7.136  11.001   2.627  0.0480  0.2848  1.0398
  414MOL0     C54562   7.268  11.042   2.640 -0.6932  0.3602 -0.0162
  414MOL0     O54563   7.622  10.859   2.758 -0.2131 -0.0568 -0.0400
  414MOL0     C54564   7.754  11.094   2.552  0.5097  0.1098  0.1179
  414MOL0     C54565   7.862  11.176   2.548 -0.6587  0.5446 -0.1441
  414MOL0     N54566   8.143  11.650   2.901 -0.2230  0.2958 -0.6654
  414MOL0     N54567   8.045  11.666   2.979 -0.5390  0.4681  0.3819
  414MOL0     C54568   7.021  10.757   3.100 -0.1575 -0.0631 -0.3768
  414MOL0     C54569   6.913  10.694   3.164  0.2995  0.4397  0.2036
  414MOL0     C54570   6.623  10.482   3.426  0.2625  0.6387  0.1166
  414MOL0     C54571   6.648  10.350   3.442  0.5556  0.0581 -0.4904
  414MOL0     C54572   6.553  10.265   3.501 -0.6446 -1.0496  0.1757
  414MOL0     C54573   6.432  10.309   3.555  0.2052  0.0244  0.8448
  414MOL0     O54574   6.336  10.223   3.608  0.1347 -0.0748 -0.0387
  414MOL0     C54575   6.223  10.281   3.678  0.0483  0.4472 -0.1575
  414MOL0     C54576   6.131  10.158   3.706  0.3532  0.3637  0.3785
  414MOL0     C54577   6.016  10.189   3.804 -0.1723  0.0090  0.3470
  414MOL0     C54578   5.912  10.075   3.807 -0.2486 -0.0330 -0.2086
  414MOL0     C54579   5.818  10.104   3.915 -0.2382 -0.7048  0.0195
  414MOL0     C54580   5.752  10.138   4.009 -1.0427  0.1046 -0.6982
  414MOL0     C54581   6.406  10.449   3.540 -0.1545 -0.8652 -0.0151
  414MOL0     C54582   6.503  10.528   3.477  0.0888  0.2780 -0.1291
  414MOL0     H54583   7.095  10.504   3.385  1.0073  1.1044  0.0846
  414MOL0     H54584   7.276  10.577   3.244 -0.0833 -0.3343 -1.6759
  414MOL0     H54585   7.241  10.930   3.161 -2.9080 -1.8937  0.5881
  414MOL0     H54586   7.252  10.944   2.984 -0.7277 -0.3071  1.2074
  414MOL0     H54587   7.502  10.872   2.995 -1.8017 -2.7236  1.6435
  414MOL0     H54588   7.498  10.894   3.162  1.1317  3.1180  0.6694
  414MOL0     H54589   7.391  11.125   3.136  2.3873 -1.5518  2.8756
  414MOL0     H54590   7.427  11.108   2.962  0.4233  0.6276  0.1493
  414MOL0     H54591   7.639  11.106   3.187 -1.4962  0.5092  1.2160
  414MOL0     H54592   7.667  11.084   3.014 -1.2756 -0.0789 -0.4499
  414MOL0     H54593   7.567  11.337   3.157  2.2122  2.3308  0.6398
  414MOL0     H54594   7.579  11.317   2.981  1.3807 -3.2679 -1.0863
  414MOL0     H54595   7.818  11.279   2.987 -0.9401 -3.5598  1.3548
  414MOL0     H54596   7.830  11.274   3.155  0.9115  1.5562 -0.3759
  414MOL0     H54597   7.755  11.509   2.991  0.2324  0.2958 -1.3742
  414MOL0     H54598   7.700  11.500   3.158 -5.0414 -2.9483 -4.1703
  414MOL0     H54599   7.964  11.470   3.214  2.0683  1.0367 -1.0416
  414MOL0     H54600   7.900  11.620   3.181  1.1255  0.2667  0.1125
  414MOL0     H54601   8.069  11.332   2.965  0.7835  0.9431  3.1450
  414MOL0     H54602   8.257  11.333   2.802 -2.5522  0.1207 -2.1847
  414MOL0     H54603   8.371  11.470   2.823  1.4057 -2.1475 -1.9646
  414MOL0     H54604   8.325  11.549   2.618 -2.0002  0.9791 -1.0021
  414MOL0     H54605   8.155  11.536   2.626 -2.3768 -4.0924 -1.3706
  414MOL0     H54606   8.294  11.398   2.455 -1.6658 -1.0766  0.1217
  414MOL0     H54607   8.327  11.289   2.583  0.5793  0.3718  1.2514
  414MOL0     H54608   8.119  11.226   2.449 -1.4407 -0.7399  0.6075
  414MOL0     H54609   8.043  11.384   2.500 -1.6919 -0.8261  0.9178
  414MOL0     H54610   7.996  11.118   2.853  0.1039 -1.2959 -0.2477
  414MOL0     H54611   7.792  10.989   2.859  2.0126  0.3748  1.4365
  414MOL0     H54612   7.427  10.745   2.601 -1.5244 -1.7227 -0.2739
  414MOL0     H54613   7.196  10.667   2.579 -0.0045 -0.1717  0.7912
  414MOL0     H54614   6.997  10.659   2.704 -0.8510  0.0844  0.3172
  414MOL0     H54615   6.966  10.630   2.527  0.4641  0.7546 -0.4838
  414MOL0     H54616   6.771  10.548   2.657 -2.1343 -0.4247  1.0823
  414MOL0     H54617   6.728  10.701   2.581 -0.1744  0.9302  0.7148
  414MOL0     H54618   6.809  10.817   2.802 -1.3587  0.9357  2.8687
  414MOL0     H54619   6.807  10.655   2.869 -2.2521 -1.0826 -0.5908
  414MOL0     H54620   6.579  10.827   2.788  0.3746 -0.1835 -0.9568
  414MOL0     H54621   6.548  10.660   2.774  0.5178 -0.8696  0.9269
  414MOL0     H54622   6.626  10.804   3.020 -2.4608  0.8107 -0.2172
  414MOL0     H54623   6.622  10.623   3.012  2.8431  0.5811 -2.5934
  414MOL0     H54624   6.375  10.652   2.936 -0.6177 -1.4051  1.5451
  414MOL0     H54625   6.391  10.825   2.984 -1.0626 -0.2554  1.9375
  414MOL0     H54626   6.397  10.596   3.163  1.7261  1.5131  4.2443
  414MOL0     H54627   6.458  10.743   3.219  0.8764 -4.2603  2.5898
  414MOL0     H54628   6.179  10.684   3.098  1.2348 -2.8229  0.8222
  414MOL0     H54629   6.245  10.848   3.160 -0.1653  0.1537  0.3168
  414MOL0     H54630   7.046  11.061   2.640 -3.9773 -4.2109 -2.2050
  414MOL0     H54631   7.304  11.144   2.655 -0.9954  0.4062  0.4249
  414MOL0     H54632   7.696  11.077   2.462 -0.3239 -1.3702  0.9014
  414MOL0     H54633   7.888  11.224   2.453 -1.6501  0.8083 -0.2897
  414MOL0     H54634   7.006  10.846   3.038  1.6191 -0.0486 -0.8516
  414MOL0     H54635   6.812  10.732   3.146  0.1516  0.6526  1.4009
  414MOL0     H54636   6.750  10.319   3.420  0.8736  2.8346 -3.8055
  414MOL0     H54637   6.589  10.165   3.521  2.2111  0.0230  0.7591
  414MOL0     H54638   6.175  10.358   3.616 -0.2622 -0.0107 -0.4926
  414MOL0     H54639   6.258  10.326   3.772  0.1820 -2.1990  1.1375
  414MOL0     H54640   6.100  10.096   3.621  0.6695 -0.5689  0.9254
  414MOL0     H54641   6.195  10.090   3.764 -0.6603 -1.9735 -1.0596
  414MOL0     H54642   5.962  10.271   3.755 -1.3458 -2.0175 -1.9943
  414MOL0     H54643   6.054  10.224   3.900  4.5126  2.6010 -2.1112
  414MOL0     H54644   5.863  10.070   3.709 -4.7364 -3.0081  1.8692
  414MOL0     H54645   5.961   9.980   3.829  1.9303  1.0031 -0.2919
  414MOL0     H54646   5.701  10.159   4.101  1.4049 -2.1584  1.3414
  414MOL0     H54647   6.307  10.488   3.562  0.7690  1.0932  0.9394
  414MOL0     H54648   6.484  10.634   3.481  3.0923  0.8922 -0.3798
  415MOL0     O54649   4.820   6.670   2.773  1.0761  0.4782 -0.4361
  415MOL0     C54650   4.867   6.766   2.837  0.0012  0.9837  0.2974
  415MOL0     O54651   4.798   6.876   2.884  0.5371 -0.2520 -0.4953
  415MOL0     C54652   4.664   6.879   2.872 -0.0517  0.9801 -0.1937
  415MOL0     C54653   4.604   6.893   2.749 -0.1460 -0.3821 -0.1505
  415MOL0     C54654   4.462   6.882   2.725 -0.8333 -0.0087 -0.5359
  415MOL0     C54655   4.384   6.854   2.839 -0.4756 -0.5380 -0.5309
  415MOL0     O54656   4.247   6.845   2.831  0.6009 -0.3477 -0.1057
  415MOL0     C54657   4.198   6.777   2.706  0.2042  0.1390  0.2721
  415MOL0     C54658   4.045   6.768   2.710 -0.8996 -0.1188  0.7176
  415MOL0     C54659   3.992   6.669   2.813  0.2498  1.2617 -0.2795
  415MOL0     C54660   3.855   6.710   2.867  0.0703 -0.4188  0.3215
  415MOL0     C54661   3.799   6.600   2.956  0.4767  0.0020  0.2276
  415MOL0     C54662   3.678   6.648   3.027  0.2572  1.3990 -1.1147
  415MOL0     C54663   3.660   6.531   3.130  0.4118  0.4741  0.0633
  415MOL0     C54664   3.555   6.558   3.231  1.1258  0.1853  0.1632
  415MOL0     N54665   3.425   6.575   3.165 -0.6239 -0.5277  0.5330
  415MOL0     C54666   3.358   6.691   3.162 -0.2514 -0.6313 -0.7318
  415MOL0     C54667   3.226   6.659   3.145 -0.3688  0.0659  0.5851
  415MOL0     C54668   3.099   6.745   3.130  0.0320 -0.1467 -0.4853
  415MOL0     C54669   3.027   6.764   3.259  0.7674  0.0111 -0.2046
  415MOL0     C54670   2.980   6.631   3.322 -0.2235 -0.2985  0.8021
  415MOL0     C54671   2.885   6.674   3.428 -0.5412  1.0906  0.1393
  415MOL0     O54672   2.820   6.555   3.462 -0.0235  0.3624 -0.0610
  415MOL0     C54673   2.693   6.529   3.422 -0.3547 -0.3265  0.4566
  415MOL0     C54674   2.606   6.478   3.508  0.3235  1.2334 -0.6688
  415MOL0     C54675   2.468   6.492   3.499 -0.6427 -0.6985 -0.8524
  415MOL0     C54676   2.417   6.535   3.384 -0.8416 -0.6272 -0.5237
  415MOL0     C54677   2.277   6.532   3.356 -0.0478 -0.0327  0.2425
  415MOL0     O54678   2.234   6.542   3.226  0.0974  0.0596  0.5659
  415MOL0     C54679   2.098   6.533   3.207 -0.2069  0.2837 -0.5397
  415MOL0     C54680   2.022   6.419   3.213  0.6205 -0.4048  0.7802
  415MOL0     C54681   1.883   6.427   3.186 -0.3446 -0.0494 -0.2257
  415MOL0     C54682   1.834   6.548   3.142 -0.1691  0.4791  0.5677
  415MOL0     O54683   1.695   6.554   3.107 -0.3472 -0.3562 -0.4250
  415MOL0     C54684   1.613   6.670   3.121  0.7720 -0.0386  0.6253
  415MOL0     C54685   1.483   6.646   3.054 -0.1816  0.0401 -0.5496
  415MOL0     C54686   1.407   6.773   3.026  0.7240  0.4585 -1.0670
  415MOL0     C54687   1.287   6.755   2.930 -0.4146 -0.2687 -0.3182
  415MOL0     C54688   1.211   6.891   2.897 -0.4742 -0.4252 -0.1657
  415MOL0     C54689   1.293   6.989   2.813 -1.2298  0.1141 -0.1356
  415MOL0     C54690   1.220   7.108   2.756  0.1079  0.4587 -0.1425
  415MOL0     C54691   1.176   7.211   2.864 -0.3865 -0.7719 -0.0240
  415MOL0    Cl54692   1.294   7.349   2.875  0.1800  0.0789  0.2348
  415MOL0     C54693   1.911   6.662   3.117  0.1061  0.8527  0.1043
  415MOL0     C54694   2.048   6.650   3.148  0.5161 -0.8483  0.1584
  415MOL0     O54695   2.202   6.537   3.453  0.2246  0.2860 -0.4565
  415MOL0     C54696   2.501   6.584   3.283  0.0796 -0.5052 -0.1907
  415MOL0     C54697   2.642   6.577   3.299  0.7455 -0.4445  0.1855
  415MOL0     N54698   3.220   6.518   3.134  0.1767 -0.2290 -0.7740
  415MOL0     N54699   3.342   6.471   3.147  0.0997  0.3942 -0.6858
  415MOL0     C54700   4.443   6.841   2.966  0.2778 -0.0360  0.1117
  415MOL0     C54701   4.583   6.861   2.980  0.4866  1.0453 -0.8149
  415MOL0     C54702   5.011   6.746   2.870 -1.0079  0.4812 -0.1356
  415MOL0     C54703   5.057   6.622   2.905 -0.0609  0.3013 -0.1557
  415MOL0     C54704   5.190   6.602   2.933  0.7857 -0.1447 -0.3893
  415MOL0     C54705   5.281   6.715   2.927  0.2460  0.0969  0.1097
  415MOL0     O54706   5.418   6.708   2.940  0.5165 -0.2836 -1.2545
  415MOL0     C54707   5.480   6.583   2.992  0.7511  0.3484 -0.3715
  415MOL0     C54708   5.604   6.630   3.044 -1.2371 -0.1981 -0.3288
  415MOL0     C54709   5.690   6.705   2.938  0.8292 -0.4840  0.5177
  415MOL0     C54710   5.833   6.729   2.974 -0.1418 -0.0502  0.1065
  415MOL0     C54711   5.905   6.823   2.889 -0.3616 -0.4343  0.4887
  415MOL0     C54712   5.970   6.899   2.817  0.0552  0.5310  0.6884
  415MOL0     C54713   5.236   6.845   2.903 -0.1365 -1.1762  0.3279
  415MOL0     C54714   5.098   6.856   2.880  0.0948  0.4925 -0.2347
  415MOL0     H54715   4.670   6.908   2.664 -3.7294 -1.7102 -3.5292
  415MOL0     H54716   4.423   6.890   2.624 -2.1162 -2.3085 -0.2837
  415MOL0     H54717   4.237   6.676   2.699  1.3215  0.5285  0.6572
  415MOL0     H54718   4.228   6.842   2.623 -0.0954  2.8970  2.1795
  415MOL0     H54719   4.009   6.728   2.616  1.3367 -4.7912  1.5668
  415MOL0     H54720   4.014   6.871   2.728 -0.6991  0.3584 -1.4112
  415MOL0     H54721   4.059   6.651   2.898 -0.3823  0.8556  0.1355
  415MOL0     H54722   3.979   6.573   2.762  0.1402  1.2647 -0.2555
  415MOL0     H54723   3.861   6.808   2.916 -3.2523  0.0814 -0.0180
  415MOL0     H54724   3.801   6.736   2.776  0.1036 -1.0494  0.1187
  415MOL0     H54725   3.870   6.556   3.027 -0.5074  0.2893  1.4275
  415MOL0     H54726   3.771   6.514   2.896 -1.1118  2.1774 -2.3917
  415MOL0     H54727   3.590   6.652   2.962 -1.1892 -0.9731  0.5133
  415MOL0     H54728   3.682   6.742   3.082 -1.0469 -0.4406  2.5239
  415MOL0     H54729   3.637   6.434   3.085 -0.9596 -0.7463  3.1154
  415MOL0     H54730   3.751   6.517   3.188  0.8890 -0.0233 -0.7960
  415MOL0     H54731   3.594   6.647   3.282  1.5520 -0.8126  1.6502
  415MOL0     H54732   3.550   6.471   3.298  1.4165  0.8817  1.1157
  415MOL0     H54733   3.399   6.792   3.166  0.4141 -0.9176  2.9593
  415MOL0     H54734   3.030   6.700   3.059 -1.3501  1.9699 -0.5617
  415MOL0     H54735   3.128   6.841   3.087 -2.5647  0.4142 -1.1178
  415MOL0     H54736   2.934   6.819   3.243  0.5298 -0.6437 -1.1259
  415MOL0     H54737   3.091   6.824   3.325 -0.6895 -0.0579  1.3202
  415MOL0     H54738   2.934   6.570   3.244  0.9514 -3.0734  2.1806
  415MOL0     H54739   3.061   6.577   3.369 -0.0972  0.0652  1.0092
  415MOL0     H54740   2.807   6.743   3.394 -2.1509 -1.0448 -0.6963
  415MOL0     H54741   2.929   6.729   3.512  0.8643  0.6184 -0.2722
  415MOL0     H54742   2.640   6.430   3.599 -0.9454 -1.1843 -1.3608
  415MOL0     H54743   2.408   6.446   3.577 -0.5517 -0.9421 -0.9253
  415MOL0     H54744   2.061   6.329   3.260  0.1667 -0.7542  0.5023
  415MOL0     H54745   1.818   6.342   3.202  0.2264 -0.3210  0.7249
  415MOL0     H54746   1.658   6.756   3.069 -0.4872  0.3684  0.1766
  415MOL0     H54747   1.597   6.691   3.227  3.2208 -1.1274  1.2673
  415MOL0     H54748   1.423   6.593   3.129  0.4601  4.1181  3.2618
  415MOL0     H54749   1.491   6.590   2.961  0.0350 -0.5154 -0.2052
  415MOL0     H54750   1.477   6.841   2.975  0.7195 -0.4122 -2.2719
  415MOL0     H54751   1.368   6.819   3.117  2.8176 -2.1837  1.3505
  415MOL0     H54752   1.311   6.713   2.832  2.7181  0.8324 -0.1378
  415MOL0     H54753   1.216   6.685   2.975  0.9832 -1.6223 -0.1333
  415MOL0     H54754   1.176   6.933   2.992 -0.0914 -0.9465  0.2096
  415MOL0     H54755   1.122   6.883   2.833 -0.4350  0.3251 -0.3158
  415MOL0     H54756   1.335   6.934   2.729  0.8938  0.5597  0.5628
  415MOL0     H54757   1.378   7.025   2.873 -2.9647  1.4652  1.6683
  415MOL0     H54758   1.277   7.153   2.674 -1.4649  0.0178 -1.5631
  415MOL0     H54759   1.131   7.075   2.702  0.3323 -1.2937  0.5078
  415MOL0     H54760   1.159   7.160   2.959  4.1973  0.7654  1.9003
  415MOL0     H54761   1.089   7.261   2.821  2.1522  3.2981 -1.1175
  415MOL0     H54762   1.856   6.746   3.078 -2.3732 -0.9806 -0.6261
  415MOL0     H54763   2.114   6.736   3.153 -0.0420 -0.4965  3.3826
  415MOL0     H54764   2.458   6.637   3.198  1.7404  1.3420  0.0549
  415MOL0     H54765   2.701   6.616   3.217 -2.2562  1.2995 -1.3237
  415MOL0     H54766   4.376   6.841   3.052 -2.4759  2.3802 -1.8548
  415MOL0     H54767   4.629   6.848   3.078 -1.3091 -2.0153 -0.2561
  415MOL0     H54768   4.994   6.533   2.898  0.6046 -0.0685 -2.1270
  415MOL0     H54769   5.217   6.501   2.960 -2.1140 -0.5945  1.2691
  415MOL0     H54770   5.486   6.513   2.909 -0.9455  2.8083 -2.7440
  415MOL0     H54771   5.430   6.538   3.078 -0.5845  0.9148 -0.8345
  415MOL0     H54772   5.594   6.684   3.138  0.5101 -0.6003  0.1254
  415MOL0     H54773   5.667   6.543   3.064 -0.7357  0.7551  2.6650
  415MOL0     H54774   5.650   6.805   2.924 -1.7178 -1.3201  1.3202
  415MOL0     H54775   5.675   6.656   2.841  0.1246  1.5584 -0.4534
  415MOL0     H54776   5.851   6.760   3.077 -0.2336 -4.2496  1.5843
  415MOL0     H54777   5.895   6.640   2.960  0.7745  0.8773 -2.3144
  415MOL0     H54778   6.048   6.963   2.782  2.2918 -1.3566  1.8917
  415MOL0     H54779   5.300   6.932   2.894 -0.0573 -1.0507  1.8853
  415MOL0     H54780   5.062   6.956   2.859  1.2117  1.3777  1.7689
  416MOL0     O54781   2.819   0.600   0.584 -0.1839 -0.2028 -1.4681
  416MOL0     C54782   2.812   0.715   0.551 -0.6793 -0.6064  0.2399
  416MOL0     O54783   2.700   0.786   0.527  0.6665 -0.3078 -0.2997
  416MOL0     C54784   2.580   0.729   0.559 -0.0215 -0.6243  0.4040
  416MOL0     C54785   2.518   0.648   0.462 -0.4965 -0.2328  0.2038
  416MOL0     C54786   2.390   0.603   0.478  0.3112  0.2552 -0.7270
  416MOL0     C54787   2.323   0.623   0.601 -0.7871 -0.0131 -0.4145
  416MOL0     O54788   2.198   0.584   0.637  0.0694  0.0920  0.5322
  416MOL0     C54789   2.114   0.528   0.534 -0.4017  0.2822 -1.4337
  416MOL0     C54790   1.976   0.498   0.593  0.4186 -0.6427  0.8247
  416MOL0     C54791   1.862   0.450   0.491  1.2476 -0.7380  0.0322
  416MOL0     C54792   1.749   0.564   0.447 -0.6761 -0.3086 -0.3942
  416MOL0     C54793   1.705   0.531   0.306  0.1055 -0.7080  0.4266
  416MOL0     C54794   1.589   0.625   0.257  0.5396 -0.9196 -0.1624
  416MOL0     C54795   1.618   0.775   0.249 -0.2726  0.4406 -0.2487
  416MOL0     C54796   1.586   0.860   0.376  0.0510  0.2462  0.8570
  416MOL0     N54797   1.446   0.847   0.425 -0.5452  0.6302  0.1660
  416MOL0     C54798   1.332   0.859   0.351  0.7833  0.3956  1.0422
  416MOL0     C54799   1.230   0.850   0.437 -0.2014 -0.2760  0.5469
  416MOL0     C54800   1.088   0.848   0.402 -0.2267  0.2196 -0.6148
  416MOL0     C54801   1.015   0.957   0.476  0.5441 -0.2139 -0.1269
  416MOL0     C54802   0.859   0.949   0.455 -0.4954 -0.3093  0.6126
  416MOL0     C54803   0.794   1.069   0.536 -0.7546  0.2575  0.1981
  416MOL0     O54804   0.659   1.077   0.500  0.5731 -0.2814  0.3674
  416MOL0     C54805   0.568   1.102   0.606  0.2335  1.0360  0.5651
  416MOL0     C54806   0.599   1.176   0.719 -0.1997 -0.6540  0.2139
  416MOL0     C54807   0.500   1.208   0.812 -0.1834 -0.1667  0.2456
  416MOL0     C54808   0.372   1.159   0.795 -0.9283 -0.7604 -0.2502
  416MOL0     C54809   0.268   1.179   0.903 -0.5836 -1.2436 -0.1949
  416MOL0     O54810   0.138   1.169   0.866  0.3450 -0.0818 -0.1935
  416MOL0     C54811   0.040   1.204   0.958  0.4360  0.3748  0.3951
  416MOL0     C54812   0.013   1.335   1.014 -0.1670  0.5202 -0.7267
  416MOL0     C54813  -0.087   1.356   1.109 -1.0291 -0.4229 -1.0016
  416MOL0     C54814  -0.166   1.249   1.146 -1.2384 -0.0272  0.0516
  416MOL0     O54815  -0.249   1.265   1.247 -0.5120  0.0253 -0.4882
  416MOL0     C54816  -0.365   1.323   1.202  0.2541 -0.9226 -0.2519
  416MOL0     C54817  -0.468   1.227   1.140 -0.2077  0.5627 -0.0117
  416MOL0     C54818  -0.510   1.129   1.247  0.6980  0.6806 -0.2899
  416MOL0     C54819  -0.592   1.007   1.181  0.0171 -0.3522 -0.5665
  416MOL0     C54820  -0.705   1.055   1.090  0.2001 -0.3762  0.2601
  416MOL0     C54821  -0.806   1.154   1.156 -0.4617  0.1304  0.5841
  416MOL0     C54822  -0.907   1.217   1.054 -0.2509  0.3343 -0.7020
  416MOL0     C54823  -0.972   1.342   1.112  0.3592  0.0481  0.0501
  416MOL0    Cl54824  -0.867   1.498   1.121 -0.2618  0.0899 -0.0965
  416MOL0     C54825  -0.151   1.123   1.093 -0.7876 -0.9728 -0.9326
  416MOL0     C54826  -0.047   1.107   1.007 -0.6357  0.3605  0.3134
  416MOL0     O54827   0.307   1.195   1.020  0.4194 -0.4129  0.2026
  416MOL0     C54828   0.338   1.086   0.681  0.2817 -0.0785  0.1985
  416MOL0     C54829   0.437   1.054   0.586 -0.0863 -1.3457  1.0009
  416MOL0     N54830   1.286   0.823   0.563  0.3379  0.1790  0.2660
  416MOL0     N54831   1.418   0.815   0.551  0.4287  0.5350  0.0464
  416MOL0     C54832   2.398   0.685   0.697  0.2147 -0.4582  0.0997
  416MOL0     C54833   2.521   0.746   0.683 -0.3433 -0.1638  0.7379
  416MOL0     C54834   2.937   0.794   0.537  0.2140 -0.0481  0.0021
  416MOL0     C54835   3.054   0.724   0.570 -0.5244  0.2620 -0.6943
  416MOL0     C54836   3.180   0.788   0.551 -0.3060  0.3232  0.3849
  416MOL0     C54837   3.190   0.916   0.506  0.0598  0.4908  0.2075
  416MOL0     O54838   3.304   0.986   0.487  0.1589  0.0333 -1.0093
  416MOL0     C54839   3.426   0.921   0.517 -0.6690  0.9525 -0.0507
  416MOL0     C54840   3.538   1.017   0.500  0.0502 -0.5249 -0.5385
  416MOL0     C54841   3.665   0.949   0.457  0.6813 -0.2928  0.0552
  416MOL0     C54842   3.774   1.056   0.426 -0.7097 -0.6189  0.4403
  416MOL0     C54843   3.894   0.989   0.372  0.3954 -0.6639 -0.7296
  416MOL0     C54844   3.990   0.939   0.316  0.2206 -0.5529 -0.0844
  416MOL0     C54845   3.075   0.985   0.484 -0.1653 -0.3679 -0.4536
  416MOL0     C54846   2.947   0.921   0.487  0.4937  0.1019 -0.1061
  416MOL0     H54847   2.576   0.642   0.370 -0.1130  2.6913  0.1654
  416MOL0     H54848   2.326   0.564   0.400  0.3535 -0.5314 -0.3775
  416MOL0     H54849   2.160   0.437   0.494 -3.1694 -1.2249 -1.4670
  416MOL0     H54850   2.103   0.604   0.456 -2.9100  0.5493 -0.9255
  416MOL0     H54851   1.946   0.597   0.626  2.4040  0.7548 -1.2210
  416MOL0     H54852   1.992   0.443   0.686 -0.6198  1.7131  2.4987
  416MOL0     H54853   1.814   0.358   0.527  0.4650 -0.2501  0.2531
  416MOL0     H54854   1.910   0.408   0.402  0.0030 -1.2876 -0.3985
  416MOL0     H54855   1.663   0.577   0.513  0.1613 -0.7893  0.8221
  416MOL0     H54856   1.804   0.659   0.451  0.5283 -1.0225  1.9324
  416MOL0     H54857   1.670   0.429   0.291  2.2391 -1.8520  2.4324
  416MOL0     H54858   1.789   0.537   0.237 -0.8413 -4.8797 -1.3300
  416MOL0     H54859   1.497   0.609   0.314  0.1304 -2.8256 -1.2712
  416MOL0     H54860   1.554   0.594   0.159 -0.8247 -0.7425  0.2423
  416MOL0     H54861   1.721   0.792   0.217 -0.1925  1.0985  0.3403
  416MOL0     H54862   1.550   0.813   0.172 -0.1983  1.7778  0.3170
  416MOL0     H54863   1.606   0.966   0.356  1.0291 -0.1365 -0.2973
  416MOL0     H54864   1.652   0.840   0.460 -0.4203  1.2128  1.4765
  416MOL0     H54865   1.328   0.852   0.243 -1.0266  0.9101  1.0435
  416MOL0     H54866   1.042   0.753   0.428 -1.3975 -0.0792 -3.4467
  416MOL0     H54867   1.069   0.869   0.296 -1.5495 -2.5215 -1.0034
  416MOL0     H54868   1.034   1.057   0.437  1.2063 -0.4122 -0.3264
  416MOL0     H54869   1.049   0.963   0.579  1.7636 -1.0638 -0.4607
  416MOL0     H54870   0.823   0.946   0.352 -1.7764 -1.6996  1.0666
  416MOL0     H54871   0.829   0.853   0.497 -0.0974 -2.2974 -3.2264
  416MOL0     H54872   0.839   1.164   0.504  1.1301 -0.6569  0.0123
  416MOL0     H54873   0.826   1.050   0.639  0.6120  1.1924 -0.0231
  416MOL0     H54874   0.698   1.214   0.743  0.5419 -1.1299 -1.8732
  416MOL0     H54875   0.525   1.245   0.911  1.0369 -2.7871  1.0088
  416MOL0     H54876   0.092   1.404   0.990  0.3726  0.3191  0.4300
  416MOL0     H54877  -0.096   1.442   1.175  4.2613 -0.3605  0.0627
  416MOL0     H54878  -0.350   1.412   1.140 -2.1548  0.8773  1.5272
  416MOL0     H54879  -0.402   1.372   1.293  5.0478  3.1392 -0.0637
  416MOL0     H54880  -0.417   1.172   1.060 -1.9745  0.2705 -0.9819
  416MOL0     H54881  -0.548   1.283   1.092 -1.4615 -1.9914 -1.0878
  416MOL0     H54882  -0.575   1.177   1.320  0.6648 -2.3395  1.8241
  416MOL0     H54883  -0.424   1.095   1.305  0.0799 -1.7868 -0.7363
  416MOL0     H54884  -0.516   0.944   1.133  0.2879 -1.9541  1.7844
  416MOL0     H54885  -0.640   0.944   1.257 -0.5971 -2.5501 -2.6440
  416MOL0     H54886  -0.749   0.959   1.063 -1.6133 -0.0760  1.8954
  416MOL0     H54887  -0.678   1.112   1.001 -2.7814  0.2664 -0.3310
  416MOL0     H54888  -0.761   1.239   1.207 -1.3124  0.7753  0.2811
  416MOL0     H54889  -0.865   1.108   1.235 -1.9820 -1.7157 -1.4961
  416MOL0     H54890  -0.842   1.244   0.970  0.5232  0.3109 -0.1322
  416MOL0     H54891  -0.984   1.148   1.020 -0.0470 -1.0002  1.3497
  416MOL0     H54892  -1.013   1.316   1.211  1.1870  1.2714  0.7286
  416MOL0     H54893  -1.058   1.367   1.048 -0.0524 -0.1098  0.5327
  416MOL0     H54894  -0.208   1.038   1.128  0.9288 -1.0893  1.8621
  416MOL0     H54895  -0.031   1.007   0.969 -0.1690  0.1065  1.1453
  416MOL0     H54896   0.238   1.052   0.656  0.8440 -0.6938 -1.2632
  416MOL0     H54897   0.408   1.001   0.496 -2.9784  0.8634  0.5073
  416MOL0     H54898   2.347   0.689   0.792 -0.6052 -1.9846 -0.2519
  416MOL0     H54899   2.557   0.807   0.765  1.4718  1.3471 -1.0784
  416MOL0     H54900   3.052   0.629   0.622 -0.8399 -0.4799 -2.0118
  416MOL0     H54901   3.267   0.729   0.575 -1.1321 -3.4788 -4.3650
  416MOL0     H54902   3.444   0.838   0.448  0.2745  0.6740  0.5139
  416MOL0     H54903   3.437   0.882   0.619  0.1836  3.0967  0.7392
  416MOL0     H54904   3.514   1.100   0.432 -1.6425  1.5944  2.4188
  416MOL0     H54905   3.544   1.078   0.591  1.6134 -0.4641 -0.6652
  416MOL0     H54906   3.646   0.883   0.372 -1.5672  0.8369 -0.4132
  416MOL0     H54907   3.706   0.886   0.536  0.8171 -0.0748  0.1604
  416MOL0     H54908   3.732   1.134   0.362 -0.1927  1.0003  1.9907
  416MOL0     H54909   3.812   1.098   0.520 -1.5059 -3.3314  2.0656
  416MOL0     H54910   4.066   0.881   0.267 -1.5377 -1.1828 -2.2217
  416MOL0     H54911   3.085   1.087   0.450 -0.5733 -0.4437 -0.8250
  416MOL0     H54912   2.857   0.974   0.459 -0.1856 -1.2235 -0.5177
  417MOL0     O54913   5.694   2.560   3.234  0.0008  0.2080  0.2405
  417MOL0     C54914   5.667   2.440   3.244  0.6254 -0.9749  0.6516
  417MOL0     O54915   5.754   2.339   3.244  0.4472 -0.5681 -0.4122
  417MOL0     C54916   5.886   2.365   3.268 -0.7962 -0.2496 -0.3006
  417MOL0     C54917   5.944   2.387   3.390 -0.2802  0.4871 -0.8005
  417MOL0     C54918   6.078   2.424   3.406 -0.0587  0.0355 -0.3679
  417MOL0     C54919   6.164   2.412   3.295  0.1541 -0.0484 -0.4159
  417MOL0     O54920   6.297   2.428   3.305 -0.4306  0.3165 -0.1036
  417MOL0     C54921   6.356   2.366   3.416 -0.0556  0.2367  0.7929
  417MOL0     C54922   6.413   2.474   3.511  0.4969  0.7700 -0.0258
  417MOL0     C54923   6.525   2.543   3.430  0.8318 -0.3757  0.2280
  417MOL0     C54924   6.588   2.661   3.503 -0.4477 -1.1453  0.3144
  417MOL0     C54925   6.708   2.720   3.419 -0.0454 -0.2860  0.4142
  417MOL0     C54926   6.791   2.813   3.515 -0.0573 -0.5089 -1.3154
  417MOL0     C54927   6.893   2.901   3.452 -0.0732  0.9549 -0.8358
  417MOL0     C54928   6.933   3.013   3.554  0.2608 -0.4715 -0.9319
  417MOL0     N54929   6.994   3.126   3.485 -0.0833 -0.4643 -0.2740
  417MOL0     C54930   6.938   3.213   3.395 -0.0992  0.6115 -0.3408
  417MOL0     C54931   7.044   3.287   3.362 -0.6928  0.1874 -0.8349
  417MOL0     C54932   7.056   3.391   3.257  0.0988 -0.2271  0.6854
  417MOL0     C54933   7.011   3.521   3.327  0.0896  0.2959 -0.1965
  417MOL0     C54934   7.001   3.635   3.230 -0.3641 -0.6331 -0.2083
  417MOL0     C54935   6.864   3.665   3.177 -0.6891  0.1799 -0.1825
  417MOL0     O54936   6.807   3.564   3.086  0.1561 -0.2592  0.6193
  417MOL0     C54937   6.675   3.586   3.062  0.2477  0.5767 -0.0044
  417MOL0     C54938   6.587   3.476   3.067  0.3544 -0.0676  0.0494
  417MOL0     C54939   6.449   3.501   3.052  0.8323 -0.5724 -0.3613
  417MOL0     C54940   6.394   3.631   3.021 -0.5154  0.4775  0.6892
  417MOL0     C54941   6.250   3.644   2.993  0.5410  0.5432 -0.1887
  417MOL0     O54942   6.216   3.771   2.942 -0.0429 -0.5597  0.2071
  417MOL0     C54943   6.088   3.803   2.964 -0.3801  0.1395 -0.4246
  417MOL0     C54944   6.057   3.860   3.086 -0.0606  0.2362 -0.5738
  417MOL0     C54945   5.923   3.880   3.129 -0.1487 -0.3250  0.8096
  417MOL0     C54946   5.822   3.855   3.036  0.0362  0.1280 -0.1160
  417MOL0     O54947   5.684   3.873   3.057  0.3253  0.2561 -0.6676
  417MOL0     C54948   5.636   3.872   3.189 -1.2650  1.3060 -1.2416
  417MOL0     C54949   5.486   3.845   3.198  0.7804  0.1266 -0.3731
  417MOL0     C54950   5.408   3.982   3.186  0.0106  0.3639  0.1408
  417MOL0     C54951   5.268   3.984   3.242  0.3540  0.0883  0.2493
  417MOL0     C54952   5.168   3.917   3.146  0.5706  0.5495 -0.8218
  417MOL0     C54953   5.027   3.924   3.210 -0.1037 -0.0542 -0.1926
  417MOL0     C54954   4.930   3.846   3.118  0.0326 -0.3387  0.2841
  417MOL0     C54955   4.780   3.872   3.167  0.4805  0.1990 -0.2816
  417MOL0    Cl54956   4.738   3.759   3.309  0.0527 -0.3572 -0.0653
  417MOL0     C54957   5.857   3.805   2.915 -0.5081 -0.3203  0.9007
  417MOL0     C54958   5.983   3.777   2.883 -0.9025 -0.0172  0.0547
  417MOL0     O54959   6.171   3.551   3.030  0.6860  0.0988 -0.3525
  417MOL0     C54960   6.486   3.730   3.003  0.2545  1.0184 -0.1458
  417MOL0     C54961   6.627   3.706   3.024  1.0329  0.0457 -0.5637
  417MOL0     N54962   7.154   3.267   3.442 -0.1118 -0.3826 -0.0941
  417MOL0     N54963   7.118   3.176   3.519 -0.7920  0.3176 -0.6742
  417MOL0     C54964   6.109   2.375   3.176  0.0907  0.1436  0.0039
  417MOL0     C54965   5.976   2.345   3.161  0.3204 -0.6874 -0.1534
  417MOL0     C54966   5.521   2.407   3.242 -0.4587 -0.0996  0.0880
  417MOL0     C54967   5.473   2.327   3.148 -0.4542  0.8212 -0.0961
  417MOL0     C54968   5.333   2.306   3.122 -0.9726 -0.0307 -0.3549
  417MOL0     C54969   5.238   2.380   3.185 -0.5748  0.2228  0.3751
  417MOL0     O54970   5.105   2.362   3.178  0.2258  0.2821  0.5457
  417MOL0     C54971   5.058   2.258   3.087 -0.0153 -0.8832  0.4022
  417MOL0     C54972   4.905   2.241   3.105  0.2932  0.2979  0.1433
  417MOL0     C54973   4.891   2.204   3.259  0.5952 -0.3718  0.3637
  417MOL0     C54974   4.741   2.209   3.298 -0.5785  0.4479 -0.2925
  417MOL0     C54975   4.645   2.132   3.219  0.2581  0.0507 -0.1433
  417MOL0     C54976   4.563   2.069   3.150 -0.0894  0.4635 -0.2634
  417MOL0     C54977   5.285   2.472   3.279  0.1749 -0.1289 -0.1185
  417MOL0     C54978   5.424   2.486   3.306  0.6089  0.4998  0.2365
  417MOL0     H54979   5.872   2.389   3.471  0.9022 -1.3848  0.3368
  417MOL0     H54980   6.122   2.439   3.504  0.1891  4.1421 -0.9338
  417MOL0     H54981   6.432   2.297   3.378 -1.5626 -0.8154 -0.4190
  417MOL0     H54982   6.287   2.295   3.462  0.3658 -1.7200 -1.3811
  417MOL0     H54983   6.438   2.413   3.599 -1.4881 -0.7497 -0.4287
  417MOL0     H54984   6.334   2.544   3.542 -2.6344 -2.0145 -1.1481
  417MOL0     H54985   6.493   2.589   3.336  5.4868  2.4811 -0.2520
  417MOL0     H54986   6.604   2.473   3.401  0.5053 -0.2837 -0.9477
  417MOL0     H54987   6.507   2.729   3.531  0.0639 -0.6155  0.5147
  417MOL0     H54988   6.623   2.629   3.601  1.6565 -0.2299 -0.0843
  417MOL0     H54989   6.676   2.775   3.330  4.5989  1.6737 -0.3245
  417MOL0     H54990   6.767   2.637   3.381 -0.4992 -1.2261  1.6793
  417MOL0     H54991   6.845   2.747   3.584  3.6265 -0.6844 -4.0695
  417MOL0     H54992   6.715   2.872   3.567  0.0513 -0.9037 -0.6956
  417MOL0     H54993   6.978   2.841   3.420 -1.4117 -0.6124 -1.5937
  417MOL0     H54994   6.840   2.943   3.365  0.4479 -1.8184 -2.6003
  417MOL0     H54995   7.007   2.968   3.621  4.0740  2.6699 -2.5620
  417MOL0     H54996   6.850   3.047   3.616  0.7142 -0.5532 -0.2753
  417MOL0     H54997   6.843   3.210   3.342 -0.0704 -3.1057 -0.4822
  417MOL0     H54998   6.997   3.374   3.166 -0.4676  2.1490  0.5472
  417MOL0     H54999   7.155   3.406   3.211 -1.0680  0.2889 -1.8560
  417MOL0     H55000   7.080   3.543   3.409  0.8616  0.4690 -0.8831
  417MOL0     H55001   6.911   3.506   3.368  0.9211 -2.8080  0.9707
  417MOL0     H55002   7.030   3.720   3.293 -0.9307 -1.1841  0.8226
  417MOL0     H55003   7.081   3.630   3.155  0.6110 -3.2682  0.9035
  417MOL0     H55004   6.860   3.767   3.137  2.9982  0.7193  0.5234
  417MOL0     H55005   6.797   3.678   3.262 -0.4396 -1.6961  0.3397
  417MOL0     H55006   6.626   3.379   3.094 -1.4901 -0.4184  1.7093
  417MOL0     H55007   6.374   3.423   3.063  1.0863 -0.8188 -0.3626
  417MOL0     H55008   6.139   3.888   3.151 -0.8184  2.1800 -0.3979
  417MOL0     H55009   5.907   3.916   3.230  0.0036  3.3923 -0.3579
  417MOL0     H55010   5.649   3.967   3.243 -0.3551  0.2873  0.4015
  417MOL0     H55011   5.698   3.801   3.244 -3.2615  0.3387 -0.1385
  417MOL0     H55012   5.459   3.794   3.291  2.8626 -2.4509 -1.0581
  417MOL0     H55013   5.459   3.779   3.115  0.9942 -0.5170  0.0685
  417MOL0     H55014   5.399   4.016   3.082 -0.3953  1.5525  0.5415
  417MOL0     H55015   5.464   4.052   3.249 -0.2466 -1.3570  2.3883
  417MOL0     H55016   5.269   3.937   3.341  0.7473  1.5221  0.9473
  417MOL0     H55017   5.224   4.082   3.265 -0.0255  0.4255 -1.7586
  417MOL0     H55018   5.198   3.814   3.127 -0.6261  0.2152 -0.9725
  417MOL0     H55019   5.158   3.962   3.047 -3.3118  2.7461  0.3472
  417MOL0     H55020   4.996   4.028   3.227  0.7172 -0.1391  2.1154
  417MOL0     H55021   5.034   3.883   3.310  0.2096  2.9181  1.1167
  417MOL0     H55022   4.944   3.875   3.014  1.7106 -1.9746  0.0008
  417MOL0     H55023   4.959   3.740   3.114  2.7195  0.3704 -2.4231
  417MOL0     H55024   4.716   3.837   3.085 -2.3843 -0.1062  1.9167
  417MOL0     H55025   4.762   3.976   3.196  0.2707 -0.3786  1.7747
  417MOL0     H55026   5.774   3.797   2.846 -0.1813 -2.7939  0.6933
  417MOL0     H55027   6.012   3.737   2.786 -2.0196 -1.3019  0.2187
  417MOL0     H55028   6.454   3.826   2.962 -3.3660 -0.7756 -2.0188
  417MOL0     H55029   6.691   3.793   3.015 -1.0571  1.4989 -2.4243
  417MOL0     H55030   6.167   2.377   3.084  0.3398 -1.4767  0.0909
  417MOL0     H55031   5.934   2.311   3.067 -3.0277  1.8677  0.2256
  417MOL0     H55032   5.548   2.263   3.103 -0.3678 -0.1635  1.3822
  417MOL0     H55033   5.310   2.226   3.052 -1.0976 -0.9083  0.6603
  417MOL0     H55034   5.112   2.168   3.117 -0.8461 -1.6552 -0.3891
  417MOL0     H55035   5.091   2.283   2.986 -0.3727  0.7356  0.6467
  417MOL0     H55036   4.849   2.331   3.081  0.1721  0.2090  0.0932
  417MOL0     H55037   4.878   2.159   3.038  2.7065  1.1704 -2.0971
  417MOL0     H55038   4.939   2.276   3.327 -0.5903  0.3226  0.4985
  417MOL0     H55039   4.943   2.114   3.291  1.6607 -0.0960 -0.5508
  417MOL0     H55040   4.734   2.169   3.400 -3.8788  1.6286  0.0747
  417MOL0     H55041   4.698   2.307   3.319  1.2793  0.5665  3.8897
  417MOL0     H55042   4.502   2.018   3.079 -0.9573 -1.7428  1.9415
  417MOL0     H55043   5.213   2.530   3.335  0.3609  0.1622 -0.1798
  417MOL0     H55044   5.451   2.562   3.380 -0.3889  1.1048 -0.0013
  418MOL0     O55045   1.128   2.245   4.522  0.2871 -0.2590  0.2173
  418MOL0     C55046   1.165   2.198   4.623 -0.5529  0.4519 -0.7824
  418MOL0     O55047   1.083   2.175   4.734 -0.0097 -0.2694  0.4444
  418MOL0     C55048   0.959   2.221   4.735 -0.0907  0.0473  0.4626
  418MOL0     C55049   0.909   2.343   4.677 -0.5970 -0.4294 -0.2372
  418MOL0     C55050   0.775   2.368   4.687  0.4246 -0.2990 -0.1718
  418MOL0     C55051   0.690   2.297   4.769  0.3546 -0.1114 -0.7308
  418MOL0     O55052   0.559   2.328   4.796 -0.1081  0.0884  0.4137
  418MOL0     C55053   0.499   2.454   4.761  0.0263 -0.3514 -0.4153
  418MOL0     C55054   0.345   2.446   4.782  1.1716  0.0507 -1.6192
  418MOL0     C55055   0.277   2.579   4.744  0.9918  0.1101 -0.6723
  418MOL0     C55056   0.134   2.539   4.709  0.0691 -0.1458  0.1450
  418MOL0     C55057   0.047   2.660   4.657  0.5659  0.2731  0.3795
  418MOL0     C55058  -0.075   2.688   4.742  0.5995  0.9686 -0.4992
  418MOL0     C55059  -0.157   2.820   4.712 -1.2696 -0.3331  0.8148
  418MOL0     C55060  -0.283   2.813   4.789 -0.3471  0.2372  0.7741
  418MOL0     N55061  -0.374   2.727   4.710 -0.5342 -0.1465 -0.5677
  418MOL0     C55062  -0.426   2.609   4.765  1.0119  0.0089 -0.0395
  418MOL0     C55063  -0.527   2.578   4.678  0.2664 -0.3409  0.0241
  418MOL0     C55064  -0.610   2.463   4.679  0.1457  0.0146  0.4133
  418MOL0     C55065  -0.719   2.468   4.798 -0.2888  0.6741  0.7282
  418MOL0     C55066  -0.793   2.604   4.812 -0.7856  0.2040 -0.3163
  418MOL0     C55067  -0.929   2.615   4.892  0.1899  0.1149  0.7670
  418MOL0     O55068  -1.032   2.524   4.837 -0.0968 -0.0540 -0.1297
  418MOL0     C55069  -1.166   2.519   4.885 -0.4266  0.4550  0.3386
  418MOL0     C55070  -1.251   2.429   4.821  0.7081  0.2376 -0.0930
  418MOL0     C55071  -1.371   2.383   4.879 -0.1681 -0.8792  0.3507
  418MOL0     C55072  -1.427   2.450   4.989  0.0237  0.0655  0.2209
  418MOL0     C55073  -1.564   2.424   5.046 -0.4179 -0.8243  0.1165
  418MOL0     O55074  -1.622   2.307   5.000 -0.1405  0.0806  0.2245
  418MOL0     C55075  -1.746   2.274   5.040 -0.5702  0.1140 -0.3376
  418MOL0     C55076  -1.752   2.161   5.125 -0.5500  0.0726  0.1618
  418MOL0     C55077  -1.873   2.131   5.182  0.5002 -0.7936 -0.1792
  418MOL0     C55078  -1.994   2.209   5.164 -0.4260  0.3523 -0.8150
  418MOL0     O55079  -2.117   2.175   5.214 -0.4188 -0.3647 -0.3370
  418MOL0     C55080  -2.113   2.092   5.328 -0.1046 -1.3214 -1.5316
  418MOL0     C55081  -2.257   2.070   5.369  0.2119  0.0985 -0.5227
  418MOL0     C55082  -2.330   2.209   5.405 -0.9417  0.5610  0.5192
  418MOL0     C55083  -2.437   2.204   5.505  0.4183  0.9662  0.0556
  418MOL0     C55084  -2.473   2.346   5.562 -0.7052 -0.1102  0.2359
  418MOL0     C55085  -2.540   2.443   5.466  1.1337 -0.1115 -0.1220
  418MOL0     C55086  -2.623   2.564   5.527 -0.1765  1.1034  0.5827
  418MOL0     C55087  -2.694   2.637   5.411  0.0751 -0.6196 -0.1183
  418MOL0    Cl55088  -2.562   2.705   5.297  0.0200  0.1131 -0.3252
  418MOL0     C55089  -1.983   2.324   5.092 -0.1673  0.8062  1.0640
  418MOL0     C55090  -1.858   2.363   5.035 -0.4979 -0.1883 -0.1234
  418MOL0     O55091  -1.617   2.505   5.118 -0.3891 -0.4511 -0.3964
  418MOL0     C55092  -1.358   2.564   5.037 -0.0307  0.0548  0.6325
  418MOL0     C55093  -1.228   2.600   4.987  0.4622  0.9791 -0.0114
  418MOL0     N55094  -0.531   2.672   4.572  0.3131  1.0320  0.4881
  418MOL0     N55095  -0.435   2.758   4.593  0.1940  0.0148 -0.0708
  418MOL0     C55096   0.732   2.174   4.827  0.7611 -0.5327  0.2787
  418MOL0     C55097   0.866   2.138   4.805  0.4768  0.2318 -1.1512
  418MOL0     C55098   1.307   2.147   4.624 -0.0720  0.0026  1.0846
  418MOL0     C55099   1.352   2.054   4.717 -0.8678  0.4463  0.0588
  418MOL0     C55100   1.484   2.012   4.723 -0.7518  0.2418 -0.2886
  418MOL0     C55101   1.581   2.048   4.634 -0.6228  0.1505  0.7151
  418MOL0     O55102   1.711   2.005   4.641 -0.2377 -0.9265  0.0707
  418MOL0     C55103   1.773   1.989   4.775 -0.4644  0.5637 -0.0609
  418MOL0     C55104   1.927   1.973   4.776 -0.2431  0.2624  0.1949
  418MOL0     C55105   1.979   1.830   4.812  0.2533  0.1693 -0.2108
  418MOL0     C55106   2.128   1.829   4.831  0.2729  0.1556 -0.1406
  418MOL0     C55107   2.202   1.900   4.722 -0.9694 -0.1406  0.2539
  418MOL0     C55108   2.267   1.951   4.630  0.4565  0.1929 -0.3344
  418MOL0     C55109   1.536   2.119   4.520  0.0603  0.4284 -1.2189
  418MOL0     C55110   1.404   2.175   4.519 -0.5869 -0.2090  0.3809
  418MOL0     H55111   0.977   2.411   4.626 -3.3140  2.4453 -0.3144
  418MOL0     H55112   0.733   2.460   4.649  2.2899  0.1386 -1.3063
  418MOL0     H55113   0.510   2.478   4.655  0.4047 -3.6525 -1.2170
  418MOL0     H55114   0.553   2.537   4.808  0.2060 -0.1887 -0.9088
  418MOL0     H55115   0.323   2.420   4.886 -3.1023  1.4161 -2.0020
  418MOL0     H55116   0.300   2.356   4.739  1.4375 -1.2453  0.6234
  418MOL0     H55117   0.311   2.624   4.650  1.2621 -0.0977 -0.6761
  418MOL0     H55118   0.294   2.643   4.831 -1.5510  0.5291 -0.4326
  418MOL0     H55119   0.138   2.475   4.620 -0.9083 -1.0156  0.6926
  418MOL0     H55120   0.077   2.478   4.780  0.9007  0.2854  1.2059
  418MOL0     H55121   0.013   2.638   4.556  0.6954  1.5727  0.0432
  418MOL0     H55122   0.108   2.751   4.656  1.3102 -0.2129 -1.0533
  418MOL0     H55123  -0.035   2.687   4.844  3.3516 -2.3644 -1.4154
  418MOL0     H55124  -0.147   2.606   4.731  2.8664 -1.2237  0.1493
  418MOL0     H55125  -0.117   2.915   4.746 -2.7540  0.6148  0.0024
  418MOL0     H55126  -0.170   2.829   4.604  0.5868  2.6668  0.7395
  418MOL0     H55127  -0.346   2.902   4.784 -2.4703 -1.2250  0.2901
  418MOL0     H55128  -0.280   2.779   4.893 -1.7444 -0.2643  0.6678
  418MOL0     H55129  -0.395   2.555   4.854 -0.0386 -3.0116 -1.3675
  418MOL0     H55130  -0.546   2.375   4.682  0.3012  0.1551  1.6437
  418MOL0     H55131  -0.671   2.463   4.588  1.5710  3.1971 -0.6755
  418MOL0     H55132  -0.675   2.443   4.896 -0.1130  0.7334  0.6657
  418MOL0     H55133  -0.798   2.398   4.772 -1.1738  1.3133  1.6375
  418MOL0     H55134  -0.720   2.670   4.859 -1.3688 -0.4845  1.6615
  418MOL0     H55135  -0.797   2.646   4.711  0.7620  1.8544  0.2419
  418MOL0     H55136  -0.969   2.717   4.884  1.4195  0.5644  0.1705
  418MOL0     H55137  -0.922   2.586   4.997  1.7410 -2.6071  0.0025
  418MOL0     H55138  -1.201   2.371   4.744 -1.2406 -0.7009 -0.6984
  418MOL0     H55139  -1.433   2.310   4.827 -0.9428 -1.6141  2.1995
  418MOL0     H55140  -1.666   2.096   5.120 -0.9515 -0.3904 -3.0353
  418MOL0     H55141  -1.875   2.033   5.229  2.6354 -0.6667  0.2655
  418MOL0     H55142  -2.054   2.136   5.409 -2.9698 -2.8901  1.6139
  418MOL0     H55143  -2.077   1.992   5.303  0.6230 -1.6328  0.5800
  418MOL0     H55144  -2.252   1.998   5.451  0.1821  1.3783  0.6287
  418MOL0     H55145  -2.310   2.017   5.289  0.2199 -1.1088  0.2502
  418MOL0     H55146  -2.379   2.238   5.311 -3.7951  0.8223  1.9907
  418MOL0     H55147  -2.250   2.281   5.428  1.4595 -1.4117 -1.0316
  418MOL0     H55148  -2.525   2.156   5.464  1.8894  1.6765 -4.4184
  418MOL0     H55149  -2.402   2.136   5.584  0.8389 -3.8525 -3.8364
  418MOL0     H55150  -2.387   2.384   5.617 -1.7410  0.4339  1.5262
  418MOL0     H55151  -2.546   2.324   5.640  0.2689  0.3376  1.2985
  418MOL0     H55152  -2.620   2.383   5.422 -1.4599  0.2023  3.7443
  418MOL0     H55153  -2.466   2.477   5.392  1.7337 -1.5100 -0.2013
  418MOL0     H55154  -2.700   2.516   5.589  0.5040 -2.9866 -1.4095
  418MOL0     H55155  -2.573   2.630   5.599  0.8833 -0.9414  1.8260
  418MOL0     H55156  -2.738   2.727   5.454  2.0672  0.2586  0.1914
  418MOL0     H55157  -2.769   2.573   5.364 -0.6269 -1.2279  1.7477
  418MOL0     H55158  -2.067   2.393   5.089 -2.6371 -2.0139 -0.8944
  418MOL0     H55159  -1.850   2.457   4.981 -1.8233 -1.4729 -2.7679
  418MOL0     H55160  -1.399   2.632   5.111  0.5172  0.1188  0.8819
  418MOL0     H55161  -1.169   2.675   5.038  1.5564  0.8227 -1.0093
  418MOL0     H55162   0.660   2.123   4.891 -0.0137  0.4806  0.2436
  418MOL0     H55163   0.892   2.039   4.841  0.0206  0.7789  0.8179
  418MOL0     H55164   1.297   2.033   4.808 -0.2662  0.6402  0.4762
  418MOL0     H55165   1.502   1.949   4.809  0.9674 -0.0187 -0.7921
  418MOL0     H55166   1.732   1.900   4.824 -0.8316  0.3045 -0.8242
  418MOL0     H55167   1.762   2.083   4.831 -1.8363  0.8610 -0.7780
  418MOL0     H55168   1.946   2.002   4.672 -2.6039  1.5746  0.0695
  418MOL0     H55169   1.974   2.049   4.840  2.1490  1.2094 -2.4465
  418MOL0     H55170   1.950   1.763   4.730  1.2265 -2.8737  1.7645
  418MOL0     H55171   1.928   1.797   4.903  1.6226  0.3981  0.6726
  418MOL0     H55172   2.162   1.862   4.929  4.1025 -0.4224 -1.1332
  418MOL0     H55173   2.150   1.723   4.823 -1.7599 -0.2360 -1.2518
  418MOL0     H55174   2.326   2.000   4.555 -0.6407  0.5719 -0.9721
  418MOL0     H55175   1.604   2.126   4.436  3.4072 -2.2271  0.9875
  418MOL0     H55176   1.375   2.238   4.435 -0.6274 -2.7473 -1.6293
  419MOL0     O55177   8.590   3.756   4.932  0.3719 -0.0382  0.6977
  419MOL0     C55178   8.671   3.842   4.899 -0.0727 -0.7367 -0.1444
  419MOL0     O55179   8.642   3.973   4.880 -0.2745  0.7893 -0.0218
  419MOL0     C55180   8.506   3.991   4.849  0.2524 -0.4088  0.5687
  419MOL0     C55181   8.431   4.078   4.926  0.4088  0.0674 -0.4848
  419MOL0     C55182   8.304   4.123   4.881 -0.7607 -0.0501  1.1422
  419MOL0     C55183   8.252   4.079   4.753 -0.7539  0.0546  1.2332
  419MOL0     O55184   8.123   4.113   4.720 -0.1463  0.6095 -0.0824
  419MOL0     C55185   8.084   4.088   4.585 -0.7163 -0.6630  0.4935
  419MOL0     C55186   7.934   4.134   4.576 -0.1103 -0.3690 -0.4553
  419MOL0     C55187   7.867   4.117   4.443  0.3150  0.7203  0.4730
  419MOL0     C55188   7.721   4.141   4.458 -0.1520 -0.9721  0.0932
  419MOL0     C55189   7.650   4.137   4.321  0.3021  0.5617  0.4808
  419MOL0     C55190   7.503   4.165   4.338  0.4123  0.3084  0.0449
  419MOL0     C55191   7.432   4.138   4.201  0.0928 -0.8965 -0.5570
  419MOL0     C55192   7.446   4.267   4.114  0.5154 -0.3273  0.5119
  419MOL0     N55193   7.340   4.281   4.009 -0.2115  0.1799  0.1610
  419MOL0     C55194   7.240   4.371   4.015 -0.3637 -0.1172 -0.2550
  419MOL0     C55195   7.161   4.335   3.908 -0.6675 -0.5874  0.0515
  419MOL0     C55196   7.032   4.402   3.868 -0.1810  0.4366 -0.6391
  419MOL0     C55197   7.013   4.427   3.721 -0.6557 -0.4851  0.3989
  419MOL0     C55198   6.887   4.371   3.667 -0.2621  0.2667 -0.5509
  419MOL0     C55199   6.769   4.435   3.739 -0.2271  0.3150  0.2363
  419MOL0     O55200   6.656   4.448   3.661  0.6933  0.2131 -0.5179
  419MOL0     C55201   6.555   4.537   3.697 -0.3535 -0.3302  0.6415
  419MOL0     C55202   6.540   4.581   3.833  0.9868  0.5290  0.2206
  419MOL0     C55203   6.440   4.675   3.854 -0.2779 -0.0844  0.1666
  419MOL0     C55204   6.336   4.707   3.764  0.3530  0.1515  0.2782
  419MOL0     C55205   6.219   4.783   3.804  0.3026  0.7033  0.6005
  419MOL0     O55206   6.147   4.830   3.693  0.9711 -0.1743  0.0701
  419MOL0     C55207   6.036   4.913   3.707  0.4941  0.6127  0.9261
  419MOL0     C55208   6.008   5.008   3.609  0.1613 -0.7020 -0.0945
  419MOL0     C55209   5.892   5.091   3.608  0.9896  0.3077 -0.5331
  419MOL0     C55210   5.799   5.080   3.713  0.0316 -0.3689 -0.0567
  419MOL0     O55211   5.681   5.156   3.720 -0.0295  0.6254  0.1385
  419MOL0     C55212   5.679   5.236   3.836  0.4846  1.4443 -0.3391
  419MOL0     C55213   5.586   5.358   3.823  1.0339 -0.0207 -0.2469
  419MOL0     C55214   5.465   5.308   3.737  0.4540 -0.1086 -0.4823
  419MOL0     C55215   5.368   5.429   3.712  0.2433 -0.0207  0.2428
  419MOL0     C55216   5.236   5.395   3.646 -0.1173  0.6491  0.6710
  419MOL0     C55217   5.164   5.274   3.685 -0.6439  0.1951 -0.3123
  419MOL0     C55218   5.084   5.226   3.575  0.3472  0.3714 -0.3468
  419MOL0     C55219   4.987   5.118   3.623 -0.1958  0.0946 -0.4560
  419MOL0    Cl55220   4.944   5.013   3.483 -0.2789 -0.0405 -0.3459
  419MOL0     C55221   5.824   4.981   3.811 -0.3387 -0.3823 -0.0073
  419MOL0     C55222   5.935   4.894   3.801  0.4559 -0.1827  0.3926
  419MOL0     O55223   6.184   4.796   3.923 -0.1294 -0.2926  0.2068
  419MOL0     C55224   6.351   4.649   3.636  0.4412 -0.1314 -0.5505
  419MOL0     C55225   6.461   4.572   3.599 -0.0568 -0.1888  0.5286
  419MOL0     N55226   7.225   4.237   3.839  0.4756 -0.1508  0.1894
  419MOL0     N55227   7.328   4.196   3.905 -0.1342  0.2195  0.9373
  419MOL0     C55228   8.335   3.991   4.671  0.7216 -0.4603 -0.5448
  419MOL0     C55229   8.457   3.949   4.724  0.7425  0.6443  0.1845
  419MOL0     C55230   8.814   3.809   4.905 -0.0430  0.5778  0.5616
  419MOL0     C55231   8.855   3.678   4.932 -0.0583  0.0634 -0.1063
  419MOL0     C55232   8.990   3.640   4.937 -0.2010  0.2376 -0.8111
  419MOL0     C55233   9.093   3.738   4.929  0.7170  1.0372 -0.5564
  419MOL0     O55234   9.228   3.719   4.954 -0.1832 -0.3044  0.1985
  419MOL0     C55235   9.292   3.594   4.931 -0.2048 -0.2790  0.3360
  419MOL0     C55236   9.435   3.594   4.993 -0.6619 -0.0411  0.2163
  419MOL0     C55237   9.430   3.609   5.140 -0.0788  0.2437  0.7966
  419MOL0     C55238   9.564   3.639   5.212  0.4275  0.0586 -0.3549
  419MOL0     C55239   9.637   3.513   5.221  0.1942  0.1355  0.7746
  419MOL0     C55240   9.708   3.417   5.240  0.0334  0.5862  0.3763
  419MOL0     C55241   9.050   3.867   4.887 -0.0141 -0.2457  0.0535
  419MOL0     C55242   8.912   3.908   4.878  0.7383 -0.6803 -0.4143
  419MOL0     H55243   8.473   4.123   5.015  2.5147 -2.2015 -0.2476
  419MOL0     H55244   8.244   4.193   4.938 -0.5568  0.3748  0.8410
  419MOL0     H55245   8.098   3.984   4.553  2.2116 -0.7358  1.7141
  419MOL0     H55246   8.134   4.162   4.523 -1.3725  1.3663  2.2658
  419MOL0     H55247   7.934   4.240   4.601 -1.4811  0.2614 -2.8944
  419MOL0     H55248   7.875   4.084   4.653  1.3856 -1.6001 -0.0499
  419MOL0     H55249   7.883   4.020   4.394  0.4802  2.3418 -2.9106
  419MOL0     H55250   7.920   4.170   4.364 -0.1278 -2.0934 -1.9248
  419MOL0     H55251   7.681   4.065   4.525  2.3689 -1.4655  1.1611
  419MOL0     H55252   7.701   4.241   4.498  0.7050 -0.5118 -0.5767
  419MOL0     H55253   7.660   4.033   4.288 -1.5154  0.8079 -1.0219
  419MOL0     H55254   7.694   4.205   4.247 -0.1341 -0.5699 -0.8433
  419MOL0     H55255   7.474   4.263   4.378  1.2062 -0.1877  1.9293
  419MOL0     H55256   7.461   4.101   4.417 -0.7682  3.7620  2.4643
  419MOL0     H55257   7.485   4.056   4.152  1.3028 -0.2591 -0.3475
  419MOL0     H55258   7.330   4.108   4.226  1.4734 -4.5530  1.6499
  419MOL0     H55259   7.539   4.251   4.060 -1.3982  0.9195 -3.4990
  419MOL0     H55260   7.452   4.366   4.160 -0.6517  2.5151 -4.6512
  419MOL0     H55261   7.225   4.452   4.086 -1.1822  0.5769 -1.1993
  419MOL0     H55262   7.023   4.505   3.905  3.8387  0.4816  0.7420
  419MOL0     H55263   6.952   4.343   3.914 -0.1762 -0.3224 -1.5904
  419MOL0     H55264   7.092   4.392   3.655 -1.2148  2.0039 -1.7732
  419MOL0     H55265   7.011   4.534   3.700  1.8678 -0.2648  1.0760
  419MOL0     H55266   6.881   4.387   3.558 -1.1931  1.8179 -0.3017
  419MOL0     H55267   6.895   4.266   3.694 -0.1432  0.9028  2.0909
  419MOL0     H55268   6.796   4.522   3.799  0.0988  0.7009 -0.4614
  419MOL0     H55269   6.740   4.364   3.817  1.4557  0.7954  1.3385
  419MOL0     H55270   6.606   4.554   3.915  0.8727 -2.1383 -0.4694
  419MOL0     H55271   6.436   4.725   3.950  1.7640 -0.9999  0.7702
  419MOL0     H55272   6.081   5.021   3.529  1.5266  0.8461  1.3024
  419MOL0     H55273   5.874   5.172   3.539 -5.3053  0.6466  0.8357
  419MOL0     H55274   5.780   5.272   3.856 -0.2359  1.9973  2.6990
  419MOL0     H55275   5.640   5.182   3.923 -0.8118 -0.7636 -2.1772
  419MOL0     H55276   5.640   5.445   3.784  0.8020 -0.3877 -1.4489
  419MOL0     H55277   5.563   5.384   3.926  2.3768  1.5729 -0.3102
  419MOL0     H55278   5.412   5.228   3.788 -1.6818  0.1537 -2.1212
  419MOL0     H55279   5.488   5.268   3.638  1.0983  0.4432 -0.5625
  419MOL0     H55280   5.331   5.473   3.805 -1.4788  0.5770 -0.6884
  419MOL0     H55281   5.406   5.515   3.656 -1.1272  0.1649 -0.4330
  419MOL0     H55282   5.250   5.395   3.538 -0.1161  1.0111  0.6698
  419MOL0     H55283   5.170   5.479   3.668  0.1564  0.3505  2.9202
  419MOL0     H55284   5.101   5.311   3.766 -0.4605  1.2363 -0.6411
  419MOL0     H55285   5.234   5.194   3.712  0.2700  1.2575  0.6008
  419MOL0     H55286   5.030   5.300   3.515 -0.8270 -0.0957  0.0974
  419MOL0     H55287   5.150   5.172   3.506 -0.1861 -0.0904 -0.5020
  419MOL0     H55288   4.899   5.174   3.657  0.3684  2.5554 -2.7337
  419MOL0     H55289   5.028   5.055   3.702 -0.4652  0.2737 -0.1676
  419MOL0     H55290   5.777   4.974   3.909  0.4325 -0.6567  0.3542
  419MOL0     H55291   5.948   4.818   3.877 -1.5420 -1.4617 -0.4552
  419MOL0     H55292   6.267   4.662   3.569  0.9334  2.3368 -0.7913
  419MOL0     H55293   6.476   4.530   3.499 -1.2969  0.7889 -0.0924
  419MOL0     H55294   8.299   3.958   4.574  1.4283  0.1281 -1.0155
  419MOL0     H55295   8.514   3.877   4.665  0.5307 -1.5816  2.5209
  419MOL0     H55296   8.780   3.603   4.953 -2.2558  2.7537  2.6694
  419MOL0     H55297   9.018   3.542   4.973 -2.5833 -0.3872 -0.4921
  419MOL0     H55298   9.304   3.582   4.823 -2.0137 -0.3475  0.1118
  419MOL0     H55299   9.236   3.509   4.971  0.5594 -0.9759 -0.0503
  419MOL0     H55300   9.488   3.506   4.956  0.7723  1.1123 -0.6232
  419MOL0     H55301   9.490   3.683   4.959 -1.6511  0.2336 -0.7315
  419MOL0     H55302   9.398   3.509   5.171  0.5610  0.0620  0.8696
  419MOL0     H55303   9.371   3.693   5.180 -1.0510 -0.4844  0.9274
  419MOL0     H55304   9.617   3.708   5.146  1.1105  0.2289  0.3704
  419MOL0     H55305   9.546   3.680   5.311  3.4422 -2.6345  1.4997
  419MOL0     H55306   9.753   3.320   5.238 -0.6270  0.2874 -0.5231
  419MOL0     H55307   9.128   3.939   4.866  0.0482 -0.0813  0.8330
  419MOL0     H55308   8.886   4.007   4.841  0.3434 -1.5497 -2.6132
  420MOL0     O55309   1.558   6.029   9.348 -0.2510 -0.1051 -0.2196
  420MOL0     C55310   1.485   6.073   9.257 -0.9797 -0.3216 -1.1156
  420MOL0     O55311   1.355   6.118   9.276  0.4981  0.7365 -0.1454
  420MOL0     C55312   1.285   6.110   9.394  0.6613 -0.2394  0.3801
  420MOL0     C55313   1.150   6.146   9.372 -0.9513  0.0308 -0.3620
  420MOL0     C55314   1.055   6.126   9.472  0.0043 -0.0580 -0.2516
  420MOL0     C55315   1.091   6.062   9.595  0.5410 -0.6694 -0.6721
  420MOL0     O55316   0.986   6.044   9.686 -0.1209 -0.7914 -0.3406
  420MOL0     C55317   1.013   6.043   9.832 -1.2599 -0.1705 -0.0357
  420MOL0     C55318   0.895   6.083   9.905  0.5914 -0.2636 -0.3051
  420MOL0     C55319   0.782   5.975   9.907 -0.4674 -0.3101  0.2969
  420MOL0     C55320   0.686   6.008  10.023 -0.8564  0.0516  0.9981
  420MOL0     C55321   0.573   5.907  10.009 -0.2043  0.5121  0.1726
  420MOL0     C55322   0.472   5.905  10.123  0.0867 -1.0884  0.0741
  420MOL0     C55323   0.335   5.859  10.071  0.6101 -0.1883 -0.2984
  420MOL0     C55324   0.250   5.807  10.188 -0.0298 -0.8537  0.0629
  420MOL0     N55325   0.106   5.784  10.164 -0.0101  0.5974  0.9271
  420MOL0     C55326   0.053   5.687  10.082 -0.0745  1.3125 -1.2307
  420MOL0     C55327  -0.080   5.681  10.111 -0.3787 -0.5999  0.2943
  420MOL0     C55328  -0.189   5.605  10.044  0.8474  0.7049 -0.3549
  420MOL0     C55329  -0.248   5.673   9.927  0.3401 -0.2520  0.1901
  420MOL0     C55330  -0.395   5.620   9.893 -0.8107  0.0087  0.8038
  420MOL0     C55331  -0.501   5.614   9.988  0.8252  0.8341  0.1298
  420MOL0     O55332  -0.612   5.535   9.933 -0.3816 -0.2900  0.0859
  420MOL0     C55333  -0.735   5.531   9.995 -0.1271 -0.0486  0.0368
  420MOL0     C55334  -0.773   5.624  10.098  0.4758  0.3010  0.0916
  420MOL0     C55335  -0.894   5.613  10.166  0.0271  1.2322 -0.1037
  420MOL0     C55336  -0.986   5.512  10.132  0.3150 -0.2215  0.4352
  420MOL0     C55337  -1.116   5.498  10.203 -0.3044 -0.7030 -0.0309
  420MOL0     O55338  -1.191   5.391  10.159 -0.0810 -0.2716  0.3185
  420MOL0     C55339  -1.325   5.377  10.202 -0.4397 -0.6758 -0.5617
  420MOL0     C55340  -1.385   5.414  10.330 -0.1731  0.0364  0.3390
  420MOL0     C55341  -1.522   5.386  10.355 -0.2299 -0.1366  0.7208
  420MOL0     C55342  -1.599   5.324  10.259 -0.1633  0.5671  0.3393
  420MOL0     O55343  -1.708   5.267  10.311  0.4145  0.5721  0.1473
  420MOL0     C55344  -1.819   5.350  10.346 -0.2117 -0.4693 -0.1997
  420MOL0     C55345  -1.923   5.245  10.359 -0.1040  0.2119  0.5646
  420MOL0     C55346  -1.902   5.128  10.458 -0.8012  0.2464 -0.2820
  420MOL0     C55347  -2.031   5.055  10.493  0.8860  0.1638  0.3343
  420MOL0     C55348  -2.104   5.010  10.366  1.3169 -0.2811 -0.8228
  420MOL0     C55349  -2.245   4.948  10.392  0.6481 -0.4065 -1.0563
  420MOL0     C55350  -2.335   4.943  10.270 -0.1176 -0.8837  0.6730
  420MOL0     C55351  -2.456   4.850  10.279  0.5943  0.0884 -0.0851
  420MOL0    Cl55352  -2.401   4.674  10.286 -0.0047  0.7215 -0.2903
  420MOL0     C55353  -1.541   5.295  10.132  0.0552 -0.2959  0.1390
  420MOL0     C55354  -1.405   5.324  10.106  0.2166 -0.6029 -0.4094
  420MOL0     O55355  -1.152   5.575  10.287 -0.0916  0.2225  0.1444
  420MOL0     C55356  -0.951   5.428  10.025  0.1585 -0.2600 -0.6451
  420MOL0     C55357  -0.822   5.429   9.971  0.3563 -0.3037  0.4055
  420MOL0     N55358  -0.097   5.754  10.223 -0.1695 -0.3107  0.0008
  420MOL0     N55359   0.010   5.818  10.257  0.3551  0.3251  0.7800
  420MOL0     C55360   1.224   6.053   9.620  0.4998 -0.1169 -0.0637
  420MOL0     C55361   1.316   6.068   9.523 -0.3830 -0.7739  0.4009
  420MOL0     C55362   1.550   6.080   9.126  1.1915 -0.3432  0.1932
  420MOL0     C55363   1.684   6.033   9.099 -0.3355  0.1157  0.5792
  420MOL0     C55364   1.733   6.032   8.962  0.2382 -0.1974  0.9456
  420MOL0     C55365   1.659   6.079   8.850  0.5247 -0.6123 -0.2161
  420MOL0     O55366   1.710   6.082   8.723  0.1272  0.0636  0.4182
  420MOL0     C55367   1.640   6.006   8.629  0.3470 -0.1544  0.5248
  420MOL0     C55368   1.724   5.891   8.563 -0.0381 -0.1200  0.6552
  420MOL0     C55369   1.781   5.779   8.651  0.3473  0.3356  0.1626
  420MOL0     C55370   1.900   5.703   8.584 -0.4709  1.5122  0.4464
  420MOL0     C55371   1.989   5.669   8.691  0.3953  0.0347 -0.5211
  420MOL0     C55372   2.060   5.661   8.785  0.3390 -0.1521  0.4531
  420MOL0     C55373   1.541   6.148   8.880 -0.1839 -0.5701 -0.9174
  420MOL0     C55374   1.486   6.145   9.016 -1.0765  0.2552  0.9659
  420MOL0     H55375   1.113   6.203   9.288  0.2993 -1.4043 -1.9768
  420MOL0     H55376   0.953   6.162   9.463  0.7592  1.7974 -2.3229
  420MOL0     H55377   1.099   6.105   9.859 -1.4170  0.1384 -0.2329
  420MOL0     H55378   1.032   5.938   9.853 -3.7387 -0.8568 -0.8783
  420MOL0     H55379   0.846   6.172   9.864 -1.6497 -1.1751  0.2513
  420MOL0     H55380   0.920   6.102  10.010 -0.2592  0.1747 -0.1781
  420MOL0     H55381   0.829   5.879   9.928 -0.3509 -0.3960 -0.3402
  420MOL0     H55382   0.727   5.969   9.812 -0.3360 -0.6404  0.2389
  420MOL0     H55383   0.748   5.993  10.112  1.4804  0.5466 -0.4528
  420MOL0     H55384   0.646   6.109  10.019 -0.7018  0.0924 -1.2339
  420MOL0     H55385   0.607   5.803   9.995 -0.5731 -0.0585  2.9895
  420MOL0     H55386   0.528   5.926   9.911  0.6497 -1.5057 -0.6880
  420MOL0     H55387   0.454   6.003  10.168  0.3489 -2.6841  4.0714
  420MOL0     H55388   0.514   5.833  10.194  1.3331 -1.7099 -1.2288
  420MOL0     H55389   0.279   5.938  10.020 -0.3021 -0.3416  0.4386
  420MOL0     H55390   0.344   5.781   9.995  0.3330  2.3281 -3.0914
  420MOL0     H55391   0.252   5.882  10.268 -0.9772 -0.5792 -0.1567
  420MOL0     H55392   0.298   5.717  10.228  0.3995  0.1811  2.0025
  420MOL0     H55393   0.105   5.643   9.997 -0.0942  3.5786 -2.4870
  420MOL0     H55394  -0.268   5.586  10.117  1.5659  2.7865  1.0592
  420MOL0     H55395  -0.156   5.507  10.007  2.5685  0.0931  2.4378
  420MOL0     H55396  -0.176   5.648   9.849 -0.6252  2.0980 -1.5825
  420MOL0     H55397  -0.238   5.780   9.948 -0.3433 -0.0898 -0.2625
  420MOL0     H55398  -0.437   5.672   9.807  0.9476 -2.5522 -1.8005
  420MOL0     H55399  -0.372   5.517   9.863  1.2314  1.0759 -1.6837
  420MOL0     H55400  -0.535   5.717  10.003 -0.2179  0.4182  0.7694
  420MOL0     H55401  -0.470   5.562  10.079 -0.4324 -0.1423  0.0362
  420MOL0     H55402  -0.712   5.710  10.123 -1.7913  1.2333  3.1922
  420MOL0     H55403  -0.907   5.688  10.244  0.6711  2.7254 -1.3676
  420MOL0     H55404  -1.328   5.461  10.409  0.7107  0.8433 -0.7289
  420MOL0     H55405  -1.547   5.400  10.460 -0.5215 -1.4744  0.8493
  420MOL0     H55406  -1.858   5.436  10.291 -2.0726 -0.2134  1.4204
  420MOL0     H55407  -1.801   5.387  10.447  0.8140 -2.0765  0.2515
  420MOL0     H55408  -1.916   5.188  10.266 -0.6561  0.2077  0.5255
  420MOL0     H55409  -2.023   5.286  10.372 -2.0507 -2.9884 -2.4495
  420MOL0     H55410  -1.867   5.167  10.554 -0.2560  3.2495 -1.5993
  420MOL0     H55411  -1.816   5.069  10.427  0.1243  0.3194  1.9193
  420MOL0     H55412  -2.006   4.972  10.560 -0.2959  0.9867  1.8447
  420MOL0     H55413  -2.103   5.115  10.550 -1.3463 -1.6781 -0.3721
  420MOL0     H55414  -2.045   4.943  10.304 -0.2786 -0.2470 -2.4764
  420MOL0     H55415  -2.129   5.097  10.304 -3.1848 -2.2381 -2.2037
  420MOL0     H55416  -2.291   5.006  10.473  0.3438 -0.7395 -0.9867
  420MOL0     H55417  -2.227   4.847  10.431  2.3565 -0.1714 -1.1387
  420MOL0     H55418  -2.368   5.046  10.252  0.7463 -0.4008  1.7489
  420MOL0     H55419  -2.277   4.909  10.184 -0.9151 -0.3388 -0.1121
  420MOL0     H55420  -2.523   4.855  10.193  1.2036  0.9169 -0.5266
  420MOL0     H55421  -2.523   4.867  10.364 -3.0814 -1.2330 -2.4765
  420MOL0     H55422  -1.596   5.238  10.059 -0.9601 -0.6800  1.1689
  420MOL0     H55423  -1.366   5.290  10.011 -2.0451 -1.8676 -0.9766
  420MOL0     H55424  -1.021   5.352   9.992 -0.9143  0.3482  0.1870
  420MOL0     H55425  -0.788   5.350   9.905  0.5187 -0.4153  0.6222
  420MOL0     H55426   1.256   6.008   9.713  0.4665 -0.0320 -0.0112
  420MOL0     H55427   1.420   6.063   9.556  0.5104  4.3127 -0.7110
  420MOL0     H55428   1.745   5.985   9.175 -1.8647  0.6802  2.2424
  420MOL0     H55429   1.830   5.990   8.936  0.3853  0.3867  0.5295
  420MOL0     H55430   1.616   6.079   8.551 -2.0411 -1.1282  0.2861
  420MOL0     H55431   1.550   5.958   8.668  1.3170 -0.8123  2.0774
  420MOL0     H55432   1.665   5.861   8.475 -1.4630  0.8730  1.2158
  420MOL0     H55433   1.811   5.950   8.533  0.9526  0.5795  4.3856
  420MOL0     H55434   1.705   5.710   8.689  0.9201  0.2946  1.2891
  420MOL0     H55435   1.807   5.831   8.744 -3.4263  1.4890  0.7383
  420MOL0     H55436   1.855   5.618   8.531  0.4503  0.0041  1.9973
  420MOL0     H55437   1.960   5.762   8.515 -0.1225  1.5477  0.7792
  420MOL0     H55438   2.123   5.635   8.868 -1.2704  1.1492  2.1590
  420MOL0     H55439   1.481   6.201   8.808 -0.4086  0.2341 -0.1571
  420MOL0     H55440   1.394   6.202   9.026  0.6077  3.2684  0.4313
  421MOL0     O55441   4.465   5.487   8.229  0.6975 -0.1331 -1.2139
  421MOL0     C55442   4.504   5.482   8.119 -0.3947 -0.4933 -1.1927
  421MOL0     O55443   4.418   5.474   8.014  0.1619 -0.2060 -0.0204
  421MOL0     C55444   4.286   5.473   8.039  0.6925  0.3950  0.1004
  421MOL0     C55445   4.215   5.592   8.071  0.1509  0.2941 -0.2672
  421MOL0     C55446   4.074   5.594   8.072  0.8521 -0.0927  0.4441
  421MOL0     C55447   4.000   5.478   8.052  1.1859  0.8929  0.2984
  421MOL0     O55448   3.867   5.477   8.049  0.4148 -0.6483  0.3195
  421MOL0     C55449   3.795   5.583   8.109  0.1523 -0.0807 -0.0576
  421MOL0     C55450   3.648   5.543   8.095 -0.8667  0.6679 -0.3268
  421MOL0     C55451   3.562   5.670   8.142 -0.3963 -0.1848 -0.1458
  421MOL0     C55452   3.412   5.649   8.130  0.2405 -0.0382  0.5180
  421MOL0     C55453   3.325   5.752   8.200 -0.7241 -0.5019  0.6435
  421MOL0     C55454   3.320   5.886   8.137 -0.0051  0.4833 -0.3698
  421MOL0     C55455   3.222   5.983   8.208  0.2034  0.7179 -0.1187
  421MOL0     C55456   3.079   5.953   8.194 -0.1124  0.7007 -0.3543
  421MOL0     N55457   3.012   5.899   8.312 -0.4114  0.2509 -0.1893
  421MOL0     C55458   2.937   5.972   8.400 -0.4090  0.2225 -0.1802
  421MOL0     C55459   2.869   5.878   8.481 -0.0329  0.3137 -0.4530
  421MOL0     C55460   2.761   5.912   8.574  0.9013 -0.3828  0.2076
  421MOL0     C55461   2.815   5.939   8.720  0.9025 -0.3984 -0.3630
  421MOL0     C55462   2.889   5.807   8.763  0.2136 -0.0772  0.1132
  421MOL0     C55463   2.927   5.831   8.914 -0.5689  0.2849 -0.8514
  421MOL0     O55464   2.995   5.709   8.951 -0.3125 -0.7172  0.3869
  421MOL0     C55465   3.069   5.710   9.068  0.0162  0.5553 -0.4750
  421MOL0     C55466   3.019   5.655   9.193 -0.4351  0.0855  0.0326
  421MOL0     C55467   3.090   5.660   9.306 -0.3466  0.9758  0.3198
  421MOL0     C55468   3.228   5.699   9.301  0.1075 -0.5123  0.3776
  421MOL0     C55469   3.307   5.703   9.431  0.8873  0.9780 -0.0400
  421MOL0     O55470   3.401   5.794   9.439 -0.3962 -0.2960 -0.5644
  421MOL0     C55471   3.465   5.803   9.560 -0.5543  1.0459 -1.1410
  421MOL0     C55472   3.401   5.860   9.672  0.8227  0.9506 -0.1434
  421MOL0     C55473   3.470   5.875   9.790  0.2150  0.7167 -1.0690
  421MOL0     C55474   3.599   5.836   9.806 -0.1692 -0.5010 -0.3295
  421MOL0     O55475   3.672   5.872   9.916 -0.3219  0.4985  0.3555
  421MOL0     C55476   3.624   5.933  10.035  0.9470  0.1912  0.5139
  421MOL0     C55477   3.739   5.954  10.130 -0.2746 -0.4869 -0.6357
  421MOL0     C55478   3.708   6.002  10.275 -0.8812 -0.3199  0.4489
  421MOL0     C55479   3.845   6.026  10.340  0.3103 -0.9439  0.4666
  421MOL0     C55480   3.849   6.105  10.470  0.0411  1.0573  0.5201
  421MOL0     C55481   3.788   6.022  10.585 -0.3690 -0.2219 -0.3602
  421MOL0     C55482   3.809   6.093  10.718  0.4048 -0.6382 -0.5368
  421MOL0     C55483   3.801   5.997  10.839  0.1863 -1.1520  0.9865
  421MOL0    Cl55484   3.656   5.891  10.819 -0.0750 -0.3951  0.5194
  421MOL0     C55485   3.666   5.769   9.696  0.5248 -0.5468 -0.1051
  421MOL0     C55486   3.597   5.757   9.572 -0.5728  0.1493 -0.0662
  421MOL0     O55487   3.267   5.634   9.520 -0.7352 -0.6402  0.2963
  421MOL0     C55488   3.288   5.741   9.183 -0.4968  0.5941 -0.7492
  421MOL0     C55489   3.209   5.746   9.067 -0.0919 -0.3590 -0.1150
  421MOL0     N55490   2.918   5.756   8.444 -0.7128 -0.4011  0.7461
  421MOL0     N55491   2.999   5.772   8.348 -0.3241  0.3504 -0.0955
  421MOL0     C55492   4.073   5.354   8.028  0.2180 -0.7245 -0.5920
  421MOL0     C55493   4.218   5.347   8.028  0.2868  0.0214 -0.1661
  421MOL0     C55494   4.653   5.495   8.105  0.1513  0.3245 -0.4393
  421MOL0     C55495   4.707   5.478   7.976 -0.0321 -0.4170  0.2577
  421MOL0     C55496   4.847   5.485   7.957 -0.3005  0.2038 -0.2001
  421MOL0     C55497   4.925   5.523   8.061 -0.2604  0.7007 -0.5206
  421MOL0     O55498   5.055   5.538   8.032  0.2621 -0.0554  0.1482
  421MOL0     C55499   5.146   5.616   8.113 -1.0998 -0.4161 -0.3890
  421MOL0     C55500   5.280   5.649   8.034  0.6161  0.2950 -0.4585
  421MOL0     C55501   5.359   5.531   7.976 -0.2439 -0.5897  0.2595
  421MOL0     C55502   5.493   5.579   7.912 -0.1058  0.1399 -0.1270
  421MOL0     C55503   5.604   5.601   8.008 -0.4122  0.2216  0.5145
  421MOL0     C55504   5.698   5.611   8.081 -0.4449 -0.5801  0.8036
  421MOL0     C55505   4.876   5.546   8.181 -0.6235 -0.1393  0.6444
  421MOL0     C55506   4.738   5.533   8.209 -0.3321  0.2114 -0.5582
  421MOL0     H55507   4.266   5.687   8.085  0.7096  0.1636 -1.2631
  421MOL0     H55508   4.023   5.689   8.077 -1.0587 -1.0752  0.5103
  421MOL0     H55509   3.813   5.673   8.050 -4.1355  0.9835 -0.0284
  421MOL0     H55510   3.809   5.590   8.217  0.3695 -3.3195  0.2373
  421MOL0     H55511   3.617   5.461   8.161 -2.2879  1.7910  0.4520
  421MOL0     H55512   3.628   5.516   7.991 -2.8795 -3.5543  0.9117
  421MOL0     H55513   3.591   5.756   8.080 -1.6204 -0.9318 -1.8435
  421MOL0     H55514   3.589   5.684   8.247  2.2646 -2.6691 -0.3891
  421MOL0     H55515   3.384   5.642   8.025  1.8310  1.9712 -0.1075
  421MOL0     H55516   3.397   5.550   8.175  0.3319 -0.7713 -1.0295
  421MOL0     H55517   3.352   5.756   8.306 -1.4402 -0.4899  0.8262
  421MOL0     H55518   3.229   5.700   8.189  0.8721 -3.3793 -0.9482
  421MOL0     H55519   3.294   5.884   8.030  0.5346  1.5073 -0.5301
  421MOL0     H55520   3.418   5.934   8.135 -0.8149  2.2394  0.1728
  421MOL0     H55521   3.262   6.002   8.309 -3.5519 -0.7649  1.8251
  421MOL0     H55522   3.225   6.081   8.160  0.3918  1.9675  2.2579
  421MOL0     H55523   3.071   5.882   8.111  2.5735  0.4784 -0.5037
  421MOL0     H55524   3.029   6.045   8.162 -0.7861  0.7026  0.6611
  421MOL0     H55525   2.929   6.080   8.397 -0.6569  0.2008 -2.6284
  421MOL0     H55526   2.681   5.837   8.575 -1.6870  2.1874 -0.1559
  421MOL0     H55527   2.712   6.003   8.541  0.7789  0.1676  1.8095
  421MOL0     H55528   2.729   5.948   8.787  0.9233 -1.3458 -0.1860
  421MOL0     H55529   2.883   6.024   8.732  2.0924 -1.0647 -1.9990
  421MOL0     H55530   2.834   5.713   8.749  0.5043 -0.1967 -0.2539
  421MOL0     H55531   2.987   5.799   8.716  0.2444  2.6986 -0.4583
  421MOL0     H55532   2.834   5.830   8.972 -1.2574 -2.8050 -1.8490
  421MOL0     H55533   2.990   5.919   8.929  2.1848 -1.7740  0.3997
  421MOL0     H55534   2.919   5.614   9.203 -0.7021  1.2278  3.2634
  421MOL0     H55535   3.037   5.634   9.397 -0.6996  1.1353  0.1601
  421MOL0     H55536   3.295   5.884   9.668  0.4352 -0.7926 -1.8675
  421MOL0     H55537   3.422   5.913   9.880 -0.6009  1.4537 -1.7972
  421MOL0     H55538   3.541   5.874  10.078 -1.6778  3.7339  0.7593
  421MOL0     H55539   3.578   6.029  10.010 -0.1601 -0.4398  0.0342
  421MOL0     H55540   3.808   6.027  10.087 -0.4956 -0.1170 -0.3720
  421MOL0     H55541   3.790   5.858  10.143 -1.3583 -0.7816  1.9916
  421MOL0     H55542   3.650   5.926  10.329  2.3764 -1.4625  2.6682
  421MOL0     H55543   3.647   6.091  10.261 -2.6753 -2.0176 -7.8639
  421MOL0     H55544   3.894   5.929  10.354  1.6103 -0.5105 -0.8834
  421MOL0     H55545   3.908   6.083  10.271  0.2553 -1.3061  0.1162
  421MOL0     H55546   3.798   6.201  10.460 -2.5334 -0.0930  1.5890
  421MOL0     H55547   3.953   6.120  10.501  0.1951  1.6021 -0.2265
  421MOL0     H55548   3.829   5.921  10.582 -2.3799 -1.0691 -0.8642
  421MOL0     H55549   3.683   6.000  10.566  0.1863 -0.8708 -3.1005
  421MOL0     H55550   3.907   6.140  10.705 -0.8750  2.1730 -0.6667
  421MOL0     H55551   3.742   6.179  10.716 -0.9246 -1.5709  1.1752
  421MOL0     H55552   3.785   6.056  10.930 -2.6283 -3.7956  2.3997
  421MOL0     H55553   3.893   5.942  10.859  0.9881  0.7135  2.7819
  421MOL0     H55554   3.766   5.734   9.720  1.3683  0.0596 -2.4555
  421MOL0     H55555   3.655   5.705   9.496  0.8848  1.6895 -0.0564
  421MOL0     H55556   3.391   5.775   9.187  0.0438 -1.0379  0.4680
  421MOL0     H55557   3.245   5.794   8.976  0.2295  0.9319  0.6584
  421MOL0     H55558   4.017   5.262   8.016  0.6894 -1.3283  1.4813
  421MOL0     H55559   4.274   5.260   7.995 -0.7243 -0.5453 -0.3989
  421MOL0     H55560   4.658   5.462   7.880  2.4434 -3.2230 -0.6973
  421MOL0     H55561   4.891   5.472   7.859  1.5519  1.7448  0.3725
  421MOL0     H55562   5.188   5.555   8.194  0.9988 -0.2654 -1.2981
  421MOL0     H55563   5.115   5.709   8.162  1.0892  0.0843  0.1350
  421MOL0     H55564   5.262   5.730   7.963 -3.8119  1.5153  1.7071
  421MOL0     H55565   5.350   5.697   8.104 -0.2625  2.6814 -1.1107
  421MOL0     H55566   5.288   5.482   7.908  0.7239 -0.6981 -0.7000
  421MOL0     H55567   5.388   5.457   8.051  1.6666  1.5135  1.7064
  421MOL0     H55568   5.526   5.507   7.837 -1.8308 -0.3308 -0.4933
  421MOL0     H55569   5.480   5.675   7.862  0.9426 -1.3057 -3.4568
  421MOL0     H55570   5.777   5.632   8.151 -2.2397  1.1306  2.4354
  421MOL0     H55571   4.940   5.573   8.265  1.2888 -4.9501  1.0802
  421MOL0     H55572   4.695   5.541   8.309  2.0946 -0.8905  0.6610
  422MOL0     O55573   7.268  10.917   7.483 -0.0438 -0.1969  0.0422
  422MOL0     C55574   7.172  10.873   7.422  0.4192 -0.3716 -0.6985
  422MOL0     O55575   7.171  10.754   7.351 -0.7567 -0.0916  0.4825
  422MOL0     C55576   7.291  10.690   7.319  0.0909 -0.2686  0.0299
  422MOL0     C55577   7.376  10.757   7.232 -0.0861 -0.1262 -0.1654
  422MOL0     C55578   7.501  10.709   7.204 -0.7004 -0.7029  0.2970
  422MOL0     C55579   7.551  10.598   7.276  0.0793 -0.1728  0.1819
  422MOL0     O55580   7.672  10.543   7.244 -1.0130 -0.4648 -0.2501
  422MOL0     C55581   7.711  10.564   7.106  0.4075 -0.6664  0.3410
  422MOL0     C55582   7.830  10.472   7.071 -0.1530  0.3338  0.7837
  422MOL0     C55583   7.963  10.507   7.149  0.4253 -0.1287 -0.2215
  422MOL0     C55584   8.010  10.393   7.245 -0.0259  0.1305  0.4429
  422MOL0     C55585   8.119  10.437   7.341 -0.2862  0.3430  0.6421
  422MOL0     C55586   8.075  10.542   7.449  0.2478 -0.7403  0.5202
  422MOL0     C55587   7.978  10.484   7.558 -0.0193  0.2346 -0.4461
  422MOL0     C55588   7.829  10.539   7.544 -0.0551  0.6609  0.4171
  422MOL0     N55589   7.816  10.688   7.554 -0.5755 -0.5853 -0.6604
  422MOL0     C55590   7.810  10.791   7.457  1.1064 -0.3871  0.3200
  422MOL0     C55591   7.826  10.913   7.523  0.1726 -0.1327  0.8835
  422MOL0     C55592   7.840  11.046   7.455 -0.4236  0.0315 -0.3787
  422MOL0     C55593   7.723  11.102   7.373  0.2818  0.1154  0.0862
  422MOL0     C55594   7.740  11.234   7.293 -0.3851 -0.1007 -0.4001
  422MOL0     C55595   7.614  11.327   7.283  0.3675 -0.2178 -0.5257
  422MOL0     O55596   7.518  11.254   7.197 -0.2245 -0.1433  0.1194
  422MOL0     C55597   7.399  11.308   7.195 -1.4731 -0.5126 -0.2361
  422MOL0     C55598   7.387  11.428   7.130  0.4197 -0.8789  0.4964
  422MOL0     C55599   7.255  11.480   7.111  0.6638  0.4053 -0.4526
  422MOL0     C55600   7.149  11.421   7.173  0.7862 -0.1286 -0.0362
  422MOL0     C55601   7.011  11.479   7.157 -0.0408  0.0439 -0.8348
  422MOL0     O55602   6.921  11.430   7.249  0.3673 -0.1177  0.2563
  422MOL0     C55603   6.791  11.485   7.259  0.6056  0.2962  0.8445
  422MOL0     C55604   6.705  11.492   7.148 -0.3687 -0.0704 -0.7926
  422MOL0     C55605   6.575  11.550   7.159 -0.5372 -0.9583  0.2267
  422MOL0     C55606   6.530  11.601   7.284 -0.3414 -0.1525  0.0305
  422MOL0     O55607   6.403  11.653   7.295 -0.3126  0.2074  0.7468
  422MOL0     C55608   6.350  11.670   7.429 -0.4464  0.6408  0.1064
  422MOL0     C55609   6.200  11.678   7.443  0.9719  0.1890  0.3436
  422MOL0     C55610   6.144  11.813   7.396 -0.0543  0.7147 -0.1607
  422MOL0     C55611   5.992  11.843   7.421  0.4679  0.2590 -0.8028
  422MOL0     C55612   5.948  11.821   7.567  0.0883 -0.5452  0.6957
  422MOL0     C55613   5.820  11.893   7.588  0.8101 -0.3954 -0.3309
  422MOL0     C55614   5.768  11.867   7.735 -0.0223 -0.5329 -0.1580
  422MOL0     C55615   5.633  11.924   7.768 -0.4188 -1.2026 -0.0960
  422MOL0    Cl55616   5.507  11.846   7.664  0.2115 -0.0354 -0.3470
  422MOL0     C55617   6.618  11.594   7.391  0.0128 -0.4347  0.5948
  422MOL0     C55618   6.749  11.546   7.383 -0.1611  0.0604  0.1361
  422MOL0     O55619   6.997  11.561   7.064  0.3907 -0.0489  0.2567
  422MOL0     C55620   7.166  11.302   7.234  0.1774  0.3038  1.0527
  422MOL0     C55621   7.285  11.238   7.240  0.4005  0.2433  0.6503
  422MOL0     N55622   7.841  10.885   7.661  0.7448 -0.1864 -0.1433
  422MOL0     N55623   7.838  10.756   7.674 -0.5609  0.4275 -0.0679
  422MOL0     C55624   7.466  10.536   7.370  0.1692 -0.2095 -0.4482
  422MOL0     C55625   7.337  10.576   7.390  0.0368  0.7415  0.3037
  422MOL0     C55626   7.041  10.937   7.417 -1.1573 -0.1097 -0.7594
  422MOL0     C55627   7.018  11.059   7.480 -0.1804 -0.5292  0.7279
  422MOL0     C55628   6.895  11.112   7.474  0.4063  0.1325  0.4430
  422MOL0     C55629   6.790  11.063   7.397 -0.0708 -1.3055 -0.4728
  422MOL0     O55630   6.666  11.124   7.410 -0.6920  0.1553 -0.0587
  422MOL0     C55631   6.557  11.077   7.329  0.0957 -0.7771 -0.9180
  422MOL0     C55632   6.451  11.186   7.353  0.5396 -0.0189  0.5363
  422MOL0     C55633   6.311  11.142   7.309  0.0302  0.4943 -0.1331
  422MOL0     C55634   6.205  11.242   7.365  0.0600  1.2198  0.5949
  422MOL0     C55635   6.077  11.221   7.301 -0.3249 -0.7189  0.6019
  422MOL0     C55636   5.970  11.208   7.246 -0.5426 -0.4821 -0.6157
  422MOL0     C55637   6.819  10.948   7.318  0.1104  0.0392  1.0294
  422MOL0     C55638   6.949  10.890   7.327  0.4717 -0.8197  0.9849
  422MOL0     H55639   7.336  10.847   7.186 -0.8333  1.4931  3.3670
  422MOL0     H55640   7.541  10.760   7.117  0.6066 -1.2311  0.5661
  422MOL0     H55641   7.734  10.670   7.089  0.6881 -0.8322 -0.3614
  422MOL0     H55642   7.626  10.535   7.042  0.0794 -0.5901  0.7386
  422MOL0     H55643   7.854  10.475   6.964  0.8754 -0.6395  0.9665
  422MOL0     H55644   7.799  10.368   7.085  0.0659  0.4336  2.0949
  422MOL0     H55645   7.948  10.599   7.205 -2.6989 -0.2534 -0.7087
  422MOL0     H55646   8.045  10.510   7.076 -0.1382  0.0400 -0.8502
  422MOL0     H55647   7.923  10.361   7.304 -0.2013 -1.1144 -0.4447
  422MOL0     H55648   8.045  10.310   7.183  3.2219 -0.9949  3.4401
  422MOL0     H55649   8.201  10.484   7.285 -0.3243  1.9602  1.8650
  422MOL0     H55650   8.144  10.341   7.388 -1.3333 -0.0258  0.4696
  422MOL0     H55651   8.037  10.630   7.397  1.2581 -1.7904 -2.2162
  422MOL0     H55652   8.168  10.569   7.500  1.2678 -1.1196 -1.0776
  422MOL0     H55653   7.977  10.375   7.570  1.8599  0.3134  0.8643
  422MOL0     H55654   8.010  10.514   7.658 -3.8861 -2.1132  1.7540
  422MOL0     H55655   7.773  10.494   7.627  0.0117 -0.4824 -0.1473
  422MOL0     H55656   7.796  10.501   7.447 -0.8994 -0.7249  1.2174
  422MOL0     H55657   7.793  10.777   7.350  2.9304 -0.0237 -0.0586
  422MOL0     H55658   7.929  11.038   7.393 -1.0483 -1.1901 -1.1596
  422MOL0     H55659   7.866  11.117   7.534 -0.7740 -0.3143  0.0523
  422MOL0     H55660   7.641  11.116   7.444  0.8093 -1.4709  1.0570
  422MOL0     H55661   7.694  11.016   7.311 -1.4733  0.7465 -0.0224
  422MOL0     H55662   7.822  11.285   7.344 -1.5515  0.6905  0.7502
  422MOL0     H55663   7.769  11.208   7.191  0.0874 -0.0428 -0.2859
  422MOL0     H55664   7.647  11.424   7.246  1.6204  0.1718  1.4713
  422MOL0     H55665   7.567  11.334   7.381 -2.1389 -2.3672 -1.4454
  422MOL0     H55666   7.476  11.471   7.086  1.6666 -2.6427  1.2299
  422MOL0     H55667   7.247  11.565   7.044 -0.3312  0.1628 -0.6489
  422MOL0     H55668   6.737  11.436   7.060  0.2623 -0.8281 -0.0950
  422MOL0     H55669   6.521  11.565   7.066 -3.9198  2.0663  2.4034
  422MOL0     H55670   6.389  11.765   7.467  0.9465 -0.2153  0.8756
  422MOL0     H55671   6.377  11.588   7.496 -2.2955 -0.2071 -0.1150
  422MOL0     H55672   6.169  11.663   7.547  2.5087  2.0683  1.1240
  422MOL0     H55673   6.168  11.609   7.364  3.4414 -0.9381  0.2169
  422MOL0     H55674   6.157  11.818   7.288  0.4343  0.8445 -0.0979
  422MOL0     H55675   6.209  11.887   7.444  0.2011  0.0534  0.5360
  422MOL0     H55676   5.976  11.948   7.393 -1.3592 -0.7254 -4.0570
  422MOL0     H55677   5.937  11.778   7.352 -1.9005  0.8134  0.4596
  422MOL0     H55678   6.021  11.862   7.638 -1.2951  2.0677  0.7192
  422MOL0     H55679   5.923  11.715   7.576 -2.1552 -0.1852 -0.5038
  422MOL0     H55680   5.737  11.859   7.525  0.9547 -0.4952 -0.4658
  422MOL0     H55681   5.824  12.000   7.564 -1.6787 -0.2797 -0.5267
  422MOL0     H55682   5.757  11.758   7.741  1.9351 -0.9305 -2.3384
  422MOL0     H55683   5.851  11.899   7.799 -0.5564  2.2695 -0.7506
  422MOL0     H55684   5.645  12.030   7.742  0.5769 -1.0967  0.7512
  422MOL0     H55685   5.611  11.914   7.875  0.7374 -3.7899 -0.0362
  422MOL0     H55686   6.591  11.633   7.489  0.0754 -1.5606  1.0758
  422MOL0     H55687   6.806  11.541   7.475 -1.5032  0.6878  1.0365
  422MOL0     H55688   7.077  11.260   7.280 -2.7852  2.8324 -1.8201
  422MOL0     H55689   7.304  11.142   7.286  1.7384 -1.0839 -2.3916
  422MOL0     H55690   7.510  10.457   7.431 -0.9456 -0.6934 -0.2599
  422MOL0     H55691   7.267  10.534   7.461  1.0183  1.0410  1.4866
  422MOL0     H55692   7.099  11.094   7.543 -1.1955 -1.2549  2.4806
  422MOL0     H55693   6.871  11.195   7.540  0.4732  1.6888 -1.4124
  422MOL0     H55694   6.517  10.988   7.378  3.6603 -0.8563  2.2999
  422MOL0     H55695   6.589  11.063   7.226 -0.2001  1.2979 -1.3424
  422MOL0     H55696   6.443  11.216   7.458  0.5597 -1.7048  1.0459
  422MOL0     H55697   6.460  11.282   7.300 -0.8005  0.3687  0.9662
  422MOL0     H55698   6.289  11.040   7.342  2.4375 -0.5270 -1.4687
  422MOL0     H55699   6.314  11.141   7.200  5.0078 -0.9761 -0.2141
  422MOL0     H55700   6.194  11.220   7.472  0.3020 -0.0189  0.3843
  422MOL0     H55701   6.235  11.346   7.349  0.3781  0.7639 -2.1250
  422MOL0     H55702   5.891  11.194   7.174  0.7575 -0.3137 -2.1282
  422MOL0     H55703   6.731  10.905   7.271 -0.1883 -0.9486  2.4399
  422MOL0     H55704   6.978  10.805   7.267 -0.1444 -1.1573  1.1537
  423MOL0     O55705   7.995   1.346  10.401 -0.0770 -1.2809  0.0432
  423MOL0     C55706   8.000   1.233  10.350 -0.9347 -0.2434  0.5606
  423MOL0     O55707   7.897   1.140  10.363 -0.3827  0.4198 -0.0386
  423MOL0     C55708   7.775   1.190  10.395  0.7065 -0.7628  0.4849
  423MOL0     C55709   7.730   1.223  10.525 -1.1319  0.0717  0.3105
  423MOL0     C55710   7.605   1.270  10.545  0.5153  0.9346  0.2131
  423MOL0     C55711   7.514   1.280  10.439  0.4906 -0.0585 -0.3153
  423MOL0     O55712   7.401   1.343  10.466  0.1744  0.2870  0.3158
  423MOL0     C55713   7.284   1.274  10.410  0.2481  0.9504  0.1982
  423MOL0     C55714   7.174   1.289  10.516 -0.2866  0.2427 -1.0282
  423MOL0     C55715   7.051   1.240  10.442  0.0825 -0.3374 -0.1197
  423MOL0     C55716   6.927   1.249  10.532 -1.0286  0.0993  0.5573
  423MOL0     C55717   6.808   1.163  10.490 -0.0099 -0.2241  0.6924
  423MOL0     C55718   6.755   1.179  10.345  0.0284 -0.7355 -1.0644
  423MOL0     C55719   6.641   1.085  10.329  1.3950 -0.2296 -0.5852
  423MOL0     C55720   6.591   1.070  10.187 -0.0288  0.3490 -0.1014
  423MOL0     N55721   6.495   1.181  10.156  0.0730 -0.2273 -0.4919
  423MOL0     C55722   6.358   1.168  10.168 -0.2279  0.4537 -0.4861
  423MOL0     C55723   6.315   1.298  10.153  1.1172 -1.1524  0.6615
  423MOL0     C55724   6.164   1.335  10.152 -0.3557  0.7708  0.8255
  423MOL0     C55725   6.123   1.469  10.207 -0.1838 -0.5751  0.4184
  423MOL0     C55726   6.011   1.534  10.124 -0.4086  0.7397  0.2827
  423MOL0     C55727   5.880   1.462  10.131 -0.8444  0.4649 -0.5953
  423MOL0     O55728   5.800   1.493  10.022  0.2354  0.1462 -0.0042
  423MOL0     C55729   5.662   1.467  10.022  0.6398 -0.4397 -0.2179
  423MOL0     C55730   5.590   1.422  10.139  0.1600 -0.4745  0.7511
  423MOL0     C55731   5.449   1.407  10.137  0.0192  0.0186  0.7066
  423MOL0     C55732   5.370   1.425  10.019  0.7928  0.2710 -0.2208
  423MOL0     C55733   5.226   1.394  10.024 -0.9146  0.1227  0.1804
  423MOL0     O55734   5.174   1.374   9.906 -0.0007  0.2582  0.5514
  423MOL0     C55735   5.043   1.348   9.880  0.5599  0.3176 -0.3173
  423MOL0     C55736   4.936   1.378   9.965 -0.4752 -0.4670  0.3630
  423MOL0     C55737   4.806   1.364   9.915 -0.0888 -0.7014 -0.1476
  423MOL0     C55738   4.772   1.321   9.784  0.3219  0.1565 -0.4546
  423MOL0     O55739   4.641   1.322   9.751  0.0396 -0.1487  0.1250
  423MOL0     C55740   4.596   1.272   9.630  0.2781  1.0292  0.4517
  423MOL0     C55741   4.454   1.319   9.587  0.3503  0.1495  0.2858
  423MOL0     C55742   4.335   1.253   9.670  0.5071  0.1924 -0.0449
  423MOL0     C55743   4.200   1.332   9.643  0.1602  0.5403  0.3992
  423MOL0     C55744   4.084   1.278   9.725  0.5971 -0.1355  1.0956
  423MOL0     C55745   4.102   1.302   9.875 -0.0714 -0.4288  0.0415
  423MOL0     C55746   3.974   1.287   9.953 -0.1394  0.1276  0.0233
  423MOL0     C55747   3.979   1.338  10.099 -0.1732 -0.1886 -0.1278
  423MOL0    Cl55748   4.014   1.510  10.113 -0.1393 -0.0921 -0.3502
  423MOL0     C55749   4.883   1.301   9.700  1.0347 -0.2562 -0.4470
  423MOL0     C55750   5.019   1.308   9.749 -0.4186 -0.9554  0.4387
  423MOL0     O55751   5.172   1.406  10.130 -0.2639  0.4871 -0.2573
  423MOL0     C55752   5.438   1.470   9.906  0.5009  0.3041 -0.4692
  423MOL0     C55753   5.582   1.486   9.906 -0.0769  0.5356  0.1892
  423MOL0     N55754   6.425   1.388  10.153 -0.7999  0.7538  0.2032
  423MOL0     N55755   6.530   1.314  10.149  0.4830 -0.1421 -0.5530
  423MOL0     C55756   7.556   1.268  10.313  0.0138  0.5482 -0.0638
  423MOL0     C55757   7.689   1.219  10.289  0.0118  0.5080 -0.2633
  423MOL0     C55758   8.114   1.201  10.257 -0.7897 -0.1967  0.9732
  423MOL0     C55759   8.227   1.288  10.257 -0.2800  0.3460  0.3733
  423MOL0     C55760   8.320   1.276  10.156 -0.5613 -0.2372 -0.2131
  423MOL0     C55761   8.308   1.167  10.065  0.8590  0.6415 -1.0116
  423MOL0     O55762   8.395   1.146   9.962 -0.1789  0.0568 -0.5088
  423MOL0     C55763   8.530   1.127   9.994  0.2671  1.5138 -0.6390
  423MOL0     C55764   8.587   0.999   9.948 -0.1623  0.9037  0.2484
  423MOL0     C55765   8.514   0.873   9.980  0.4587  0.5441 -0.1454
  423MOL0     C55766   8.607   0.756   9.986 -0.1212 -0.5249 -0.5245
  423MOL0     C55767   8.525   0.641  10.032 -0.6689 -0.0909 -0.5094
  423MOL0     C55768   8.465   0.556  10.086  0.1250 -0.5524  0.0907
  423MOL0     C55769   8.201   1.076  10.063  0.6152 -0.5653  0.4496
  423MOL0     C55770   8.102   1.099  10.163 -0.2259 -0.2873  0.2736
  423MOL0     H55771   7.791   1.205  10.614  0.5309  0.5264 -0.6949
  423MOL0     H55772   7.565   1.312  10.637  0.0641  1.4758 -0.2210
  423MOL0     H55773   7.312   1.171  10.384 -0.9224  0.5409  0.5229
  423MOL0     H55774   7.254   1.312  10.312 -0.7555 -0.9469 -0.2876
  423MOL0     H55775   7.157   1.390  10.554 -1.7580 -0.3098 -0.1278
  423MOL0     H55776   7.194   1.223  10.601 -1.1189 -0.0542 -1.0529
  423MOL0     H55777   7.072   1.139  10.408  3.1700  0.6409 -1.4469
  423MOL0     H55778   7.036   1.308  10.358  0.5657 -1.6637 -1.3176
  423MOL0     H55779   6.955   1.231  10.637  2.7117  3.0701  0.2681
  423MOL0     H55780   6.889   1.351  10.533  0.1633  0.5745 -0.5468
  423MOL0     H55781   6.728   1.187  10.561 -2.5312  0.9328 -2.3122
  423MOL0     H55782   6.836   1.057  10.494 -0.1409 -0.2587  0.7026
  423MOL0     H55783   6.834   1.168  10.270  1.4927 -0.4320  0.3948
  423MOL0     H55784   6.724   1.284  10.338  0.0508 -0.7600 -1.5597
  423MOL0     H55785   6.677   0.984  10.352  0.0059 -0.4921  0.5445
  423MOL0     H55786   6.552   1.109  10.388  1.3268 -0.1411 -0.7233
  423MOL0     H55787   6.545   0.972  10.173  2.1332 -0.6810 -0.5017
  423MOL0     H55788   6.677   1.087  10.121  1.6150 -0.8148  1.6473
  423MOL0     H55789   6.300   1.080  10.193 -0.6276  0.6795 -0.6237
  423MOL0     H55790   6.121   1.256  10.213 -1.4709 -0.6960 -1.7023
  423MOL0     H55791   6.121   1.324  10.052 -0.5021  0.5521  0.9135
  423MOL0     H55792   6.200   1.547  10.206 -2.5880  2.0622 -2.8305
  423MOL0     H55793   6.094   1.461  10.313  1.2383 -0.3122  0.8401
  423MOL0     H55794   5.988   1.637  10.153 -1.2689  0.3036  1.2066
  423MOL0     H55795   6.043   1.530  10.019  1.3365 -1.9221  0.8163
  423MOL0     H55796   5.837   1.484  10.229 -1.4985 -1.4835 -0.4020
  423MOL0     H55797   5.901   1.355  10.125  0.4842  0.4930  2.2166
  423MOL0     H55798   5.641   1.397  10.231 -0.7508 -0.9593  1.1380
  423MOL0     H55799   5.400   1.382  10.231 -0.2659 -1.7849  0.1319
  423MOL0     H55800   4.947   1.408  10.069  0.6710  1.0746 -0.1636
  423MOL0     H55801   4.717   1.374   9.977 -0.2958  1.5929 -0.7247
  423MOL0     H55802   4.592   1.163   9.632  0.2225  1.0378  1.9873
  423MOL0     H55803   4.660   1.309   9.549 -0.1501 -2.1846 -1.5277
  423MOL0     H55804   4.441   1.289   9.482  0.9168  0.9152 -0.0141
  423MOL0     H55805   4.452   1.429   9.590 -1.5777  0.1363  0.4409
  423MOL0     H55806   4.369   1.242   9.774  4.2364 -2.1417 -1.2887
  423MOL0     H55807   4.321   1.153   9.626  0.7300 -0.4557  1.2857
  423MOL0     H55808   4.202   1.441   9.656 -3.2651  0.9108 -1.0135
  423MOL0     H55809   4.178   1.302   9.540  0.5470  1.2703  0.0940
  423MOL0     H55810   4.061   1.175   9.695 -1.4942  0.5868  0.0181
  423MOL0     H55811   3.992   1.320   9.685  0.7874 -0.6419  0.1030
  423MOL0     H55812   4.136   1.405   9.892  3.4424 -1.4356 -0.1616
  423MOL0     H55813   4.177   1.241   9.926  1.9408  1.7819 -0.0762
  423MOL0     H55814   3.899   1.338   9.893 -1.2939 -0.9326  0.5284
  423MOL0     H55815   3.948   1.181   9.963  2.9735 -0.7880 -0.4412
  423MOL0     H55816   4.055   1.287  10.159  2.1343  3.3505  0.2826
  423MOL0     H55817   3.892   1.318  10.162  0.4777 -1.5024  0.3920
  423MOL0     H55818   4.865   1.271   9.597 -2.6270 -0.4963  0.1639
  423MOL0     H55819   5.107   1.291   9.689  0.1620  0.9286  0.6782
  423MOL0     H55820   5.380   1.475   9.815  2.2694  0.4003 -1.6299
  423MOL0     H55821   5.637   1.512   9.816 -2.3435 -2.5556 -2.3136
  423MOL0     H55822   7.499   1.303  10.227  0.3369  1.8932  0.2484
  423MOL0     H55823   7.715   1.198  10.186  0.4686 -0.2475 -0.0005
  423MOL0     H55824   8.234   1.370  10.328  0.4360  0.3931  0.2526
  423MOL0     H55825   8.405   1.341  10.142  0.1352 -1.5643 -2.8883
  423MOL0     H55826   8.540   1.128  10.102  0.5127 -4.7126 -0.2455
  423MOL0     H55827   8.589   1.205   9.944  0.5087  1.5688 -0.2694
  423MOL0     H55828   8.600   1.007   9.840 -2.0353 -3.4607 -0.5093
  423MOL0     H55829   8.690   0.992   9.985  0.7839  1.1243 -2.1629
  423MOL0     H55830   8.445   0.850   9.898 -1.3783  1.6063  1.0286
  423MOL0     H55831   8.448   0.883  10.066 -0.5776  0.3514 -0.8961
  423MOL0     H55832   8.657   0.724   9.894 -0.9293 -4.0465  0.1152
  423MOL0     H55833   8.675   0.772  10.070 -3.2389  1.2518  1.8980
  423MOL0     H55834   8.407   0.477  10.128 -0.5735 -0.8024 -1.2817
  423MOL0     H55835   8.197   1.002   9.984 -0.9239  0.0767 -0.1176
  423MOL0     H55836   8.019   1.030  10.173  0.2418 -1.1733 -1.3973
  424MOL0     O55837  10.174   6.059   8.202 -0.6624  0.6303  0.1760
  424MOL0     C55838  10.220   6.083   8.088  0.3250  0.5237  0.2887
  424MOL0     O55839  10.138   6.102   7.977  0.2237  0.9685 -0.0164
  424MOL0     C55840  10.003   6.072   7.977 -1.0466  0.7456  0.0583
  424MOL0     C55841   9.928   6.156   7.900 -0.1166  0.2488  0.8502
  424MOL0     C55842   9.788   6.139   7.883  0.8252  0.0663  0.0694
  424MOL0     C55843   9.714   6.045   7.963  0.2633  0.6358 -0.0118
  424MOL0     O55844   9.580   6.038   7.950  0.3522  0.3040 -0.3428
  424MOL0     C55845   9.510   6.161   7.917 -0.6265  0.6693 -0.3286
  424MOL0     C55846   9.366   6.146   7.959  0.4431 -0.4545 -0.0068
  424MOL0     C55847   9.340   6.203   8.103 -0.2824 -0.4325  0.1721
  424MOL0     C55848   9.204   6.173   8.177  0.2067  0.4728  0.0700
  424MOL0     C55849   9.194   6.256   8.301 -0.4911  0.4893 -0.1294
  424MOL0     C55850   9.067   6.213   8.382  0.1686 -0.5440 -0.6904
  424MOL0     C55851   9.083   6.263   8.527  0.5978 -0.0863 -0.2516
  424MOL0     C55852   8.957   6.304   8.600 -0.1642 -0.5938  0.2812
  424MOL0     N55853   8.853   6.201   8.589  0.8376  0.5676 -0.5857
  424MOL0     C55854   8.875   6.063   8.594  0.7618 -0.8032  0.3140
  424MOL0     C55855   8.761   6.011   8.559 -0.0658 -0.4519  0.7324
  424MOL0     C55856   8.719   5.870   8.551  0.2506 -0.2171  0.0134
  424MOL0     C55857   8.815   5.799   8.460  0.4257  0.5968 -0.0663
  424MOL0     C55858   8.748   5.656   8.429  0.0810  0.2000 -0.0213
  424MOL0     C55859   8.798   5.596   8.293 -0.4654 -0.6662  0.3834
  424MOL0     O55860   8.742   5.471   8.257  0.2140  0.0550  0.2551
  424MOL0     C55861   8.615   5.464   8.203  0.2602 -0.2150  0.7763
  424MOL0     C55862   8.530   5.572   8.172  0.0667  0.8788  0.5939
  424MOL0     C55863   8.406   5.553   8.102 -0.1254 -0.2795  0.3015
  424MOL0     C55864   8.358   5.417   8.083 -0.4693 -0.1020 -0.0301
  424MOL0     C55865   8.226   5.389   8.023  0.0423 -0.3457 -0.3136
  424MOL0     O55866   8.163   5.499   7.969 -0.4479  0.5963  0.4416
  424MOL0     C55867   8.045   5.486   7.902  1.4893 -0.0198 -0.4465
  424MOL0     C55868   8.047   5.540   7.776  0.2252  0.3466 -0.2707
  424MOL0     C55869   7.928   5.528   7.701 -0.0184  0.2556 -0.2769
  424MOL0     C55870   7.807   5.491   7.758  1.2780  0.0528  0.1220
  424MOL0     O55871   7.692   5.497   7.685 -0.1976 -0.1265  0.7968
  424MOL0     C55872   7.683   5.421   7.562  0.0158 -0.0213  0.8011
  424MOL0     C55873   7.543   5.356   7.552  0.4897  0.0555  0.0221
  424MOL0     C55874   7.510   5.315   7.403  0.7729 -0.1749  0.3641
  424MOL0     C55875   7.356   5.319   7.371 -0.2800  0.3097  0.1308
  424MOL0     C55876   7.262   5.205   7.409 -0.9411 -0.1079  0.2244
  424MOL0     C55877   7.112   5.233   7.381  0.0361  0.1132 -0.7117
  424MOL0     C55878   7.035   5.103   7.402  0.1910 -0.3282  0.6613
  424MOL0     C55879   6.889   5.136   7.426 -0.4703 -0.2443  0.6301
  424MOL0    Cl55880   6.777   4.996   7.432  0.1219 -0.2577  0.2973
  424MOL0     C55881   7.799   5.441   7.888 -0.8288  0.2099  0.4660
  424MOL0     C55882   7.919   5.435   7.954  0.2388  0.2234  0.0892
  424MOL0     O55883   8.196   5.273   8.010  0.4200 -1.1228 -0.0911
  424MOL0     C55884   8.454   5.317   8.104  0.4347  0.1698 -0.9050
  424MOL0     C55885   8.572   5.338   8.168  0.3573  0.3609  1.0682
  424MOL0     N55886   8.665   6.110   8.545  0.1919  0.1799 -0.4396
  424MOL0     N55887   8.720   6.226   8.559  0.2124  1.1716  0.3897
  424MOL0     C55888   9.789   5.967   8.052  0.3800 -0.8223  1.2450
  424MOL0     C55889   9.933   5.970   8.048 -0.5152  0.0243 -0.6110
  424MOL0     C55890  10.361   6.085   8.072  0.6298 -0.4611  0.1477
  424MOL0     C55891  10.420   6.119   7.953 -0.8883  1.1891 -0.1678
  424MOL0     C55892  10.560   6.125   7.941 -1.0676  0.2888 -0.8839
  424MOL0     C55893  10.646   6.080   8.047 -0.1658  0.4612  0.2872
  424MOL0     O55894  10.780   6.078   8.042  0.1833  0.0453  0.7589
  424MOL0     C55895  10.858   6.103   7.922  0.5789  0.5020  0.8661
  424MOL0     C55896  10.991   6.033   7.938  1.3696 -0.4358  0.3675
  424MOL0     C55897  10.977   5.885   7.937 -0.2195 -0.1396 -0.1371
  424MOL0     C55898  11.103   5.809   7.886  0.1832  1.0763  0.1349
  424MOL0     C55899  11.229   5.852   7.942 -0.2151  0.3944 -0.7916
  424MOL0     C55900  11.338   5.876   7.991 -0.8417 -0.9660  0.0044
  424MOL0     C55901  10.582   6.048   8.172  0.0156 -0.5931  0.6298
  424MOL0     C55902  10.441   6.043   8.174 -0.7223  0.4541  0.4381
  424MOL0     H55903   9.983   6.221   7.833  0.1472 -3.9289 -3.5512
  424MOL0     H55904   9.747   6.211   7.812  1.5325  0.9825  0.5622
  424MOL0     H55905   9.529   6.172   7.810  1.9245  1.6270  0.1453
  424MOL0     H55906   9.553   6.249   7.966 -0.7641  1.2186 -1.1844
  424MOL0     H55907   9.316   6.049   7.952 -3.5023  1.4027 -1.0262
  424MOL0     H55908   9.302   6.209   7.895  0.7087 -1.5778 -1.4256
  424MOL0     H55909   9.335   6.312   8.095  1.5345 -0.0785  2.7028
  424MOL0     H55910   9.425   6.185   8.169  3.2218  0.3540 -3.6831
  424MOL0     H55911   9.116   6.208   8.121 -1.0611 -0.7909  1.1851
  424MOL0     H55912   9.189   6.068   8.203 -0.2721  0.8762  1.5143
  424MOL0     H55913   9.185   6.362   8.275 -0.9671  0.4310 -0.2071
  424MOL0     H55914   9.278   6.230   8.366 -1.8605  0.2550  1.6330
  424MOL0     H55915   9.054   6.105   8.385  2.8693 -0.9306  0.2331
  424MOL0     H55916   8.983   6.265   8.335 -0.1014 -1.3246 -1.0823
  424MOL0     H55917   9.137   6.182   8.578  1.2490 -0.9850 -2.2694
  424MOL0     H55918   9.156   6.344   8.521  0.4430 -0.0334 -1.8026
  424MOL0     H55919   8.922   6.393   8.548 -0.5738 -0.4953  0.7140
  424MOL0     H55920   8.975   6.335   8.704 -0.8647  1.4088 -0.1460
  424MOL0     H55921   8.961   6.003   8.620  3.1153  0.4247 -3.7359
  424MOL0     H55922   8.617   5.857   8.512 -0.1063 -0.0734  0.8674
  424MOL0     H55923   8.739   5.838   8.654  1.1278  0.1881 -0.0248
  424MOL0     H55924   8.910   5.795   8.515 -0.3191  0.6342  1.2468
  424MOL0     H55925   8.828   5.858   8.370 -0.9901  3.3781  1.4389
  424MOL0     H55926   8.781   5.586   8.506  0.5721  1.4024  0.8949
  424MOL0     H55927   8.641   5.664   8.407 -0.1298 -1.3763  0.3213
  424MOL0     H55928   8.902   5.577   8.319 -0.8603 -0.7296  2.0347
  424MOL0     H55929   8.792   5.669   8.212  4.1020 -1.0838 -0.5773
  424MOL0     H55930   8.556   5.673   8.200  0.9695  1.0699 -0.8260
  424MOL0     H55931   8.348   5.642   8.082  0.7933  0.5611  1.3017
  424MOL0     H55932   8.136   5.580   7.727  0.9817 -2.2368 -1.1514
  424MOL0     H55933   7.911   5.580   7.607 -1.0217 -1.0382 -0.8547
  424MOL0     H55934   7.760   5.343   7.562 -0.3208 -0.3673  0.0958
  424MOL0     H55935   7.708   5.485   7.477  1.5551 -1.7706 -0.1397
  424MOL0     H55936   7.470   5.426   7.595 -2.2140 -1.9824 -0.9328
  424MOL0     H55937   7.530   5.268   7.616 -0.7533 -1.5110 -2.2749
  424MOL0     H55938   7.551   5.215   7.385  2.9629  0.9604 -1.4468
  424MOL0     H55939   7.565   5.372   7.328 -0.6339  3.8460  2.1345
  424MOL0     H55940   7.314   5.411   7.411  0.3461 -0.4317  2.6558
  424MOL0     H55941   7.354   5.318   7.261  1.4081 -2.7448  0.0074
  424MOL0     H55942   7.279   5.183   7.515 -0.6980  0.5007  0.3121
  424MOL0     H55943   7.282   5.114   7.352 -2.8152 -1.3837  1.4671
  424MOL0     H55944   7.106   5.283   7.284  1.6358 -0.1038 -0.9426
  424MOL0     H55945   7.081   5.305   7.458  1.1324  2.0608 -2.0088
  424MOL0     H55946   7.045   5.043   7.311 -2.4387  1.5080 -0.9683
  424MOL0     H55947   7.068   5.057   7.496 -0.9630  2.7807  2.7851
  424MOL0     H55948   6.864   5.190   7.334 -0.2840 -0.9898  0.1362
  424MOL0     H55949   6.882   5.205   7.511 -3.3699  0.7490 -0.3039
  424MOL0     H55950   7.706   5.410   7.935 -1.5953  0.5456 -0.7780
  424MOL0     H55951   7.933   5.382   8.048 -1.8327  1.1801  1.0056
  424MOL0     H55952   8.425   5.215   8.079 -1.9499  0.7554 -0.6638
  424MOL0     H55953   8.641   5.254   8.172 -1.1058 -0.9328  0.3277
  424MOL0     H55954   9.742   5.890   8.113  1.1577  0.0486  3.0232
  424MOL0     H55955   9.981   5.902   8.117 -0.9057  1.2226  0.9170
  424MOL0     H55956  10.370   6.156   7.864  0.3844 -0.2220 -1.5442
  424MOL0     H55957  10.604   6.163   7.850  2.3243  1.1469  0.9148
  424MOL0     H55958  10.888   6.207   7.918  1.6173  0.2713  1.9897
  424MOL0     H55959  10.802   6.076   7.832  2.5918 -0.0219 -0.2851
  424MOL0     H55960  11.046   6.058   7.847  0.6981 -0.6054 -0.0876
  424MOL0     H55961  11.043   6.053   8.032 -0.2309 -1.5534  1.5578
  424MOL0     H55962  10.902   5.850   7.866  2.9766  0.3630 -4.0936
  424MOL0     H55963  10.953   5.850   8.038  0.4406 -1.0619 -0.2903
  424MOL0     H55964  11.086   5.704   7.912  1.0088  0.3339 -2.1113
  424MOL0     H55965  11.105   5.808   7.777  1.4350  1.6435  0.1271
  424MOL0     H55966  11.433   5.912   8.027 -0.7286  1.5339 -2.4150
  424MOL0     H55967  10.647   6.015   8.253  1.1618 -2.4637 -0.9374
  424MOL0     H55968  10.402   6.009   8.269 -0.5826 -0.9557  0.0213
  425MOL0     O55969   8.812  11.161  10.521  0.1444  0.1521 -0.2259
  425MOL0     C55970   8.876  11.142  10.418 -0.2630  0.1206  0.2370
  425MOL0     O55971   8.864  11.222  10.301  0.0764 -0.7700  0.4389
  425MOL0     C55972   8.807  11.350  10.307 -0.1842 -0.5096  0.1600
  425MOL0     C55973   8.690  11.378  10.240 -0.4445 -0.2662  0.2383
  425MOL0     C55974   8.623  11.502  10.253 -0.5124  0.6371  0.0954
  425MOL0     C55975   8.676  11.596  10.340 -0.2685  0.2173  0.4883
  425MOL0     O55976   8.604  11.716  10.343  0.7573  0.5377 -0.3170
  425MOL0     C55977   8.624  11.805  10.454 -0.1020 -0.4229  0.1422
  425MOL0     C55978   8.526  11.919  10.440 -0.9922 -0.4657  1.1036
  425MOL0     C55979   8.401  11.903  10.506  0.6042 -0.5187 -0.2387
  425MOL0     C55980   8.332  11.759  10.481 -0.0269 -0.4156  0.1588
  425MOL0     C55981   8.185  11.773  10.497  0.6017 -0.7717 -0.2003
  425MOL0     C55982   8.114  11.639  10.539  1.2778 -0.6743 -0.1338
  425MOL0     C55983   7.958  11.659  10.572 -0.8021 -0.4300  0.4131
  425MOL0     C55984   7.881  11.717  10.458  0.8087 -0.1684  0.3607
  425MOL0     N55985   7.739  11.697  10.483  0.0820  0.1392 -0.3085
  425MOL0     C55986   7.669  11.589  10.444  0.3355 -0.3158 -0.6197
  425MOL0     C55987   7.543  11.620  10.474  0.1927  0.7393  0.8757
  425MOL0     C55988   7.416  11.544  10.446  0.1307 -0.2355 -0.4825
  425MOL0     C55989   7.361  11.585  10.313 -0.0415 -0.3500 -0.1864
  425MOL0     C55990   7.240  11.487  10.290 -0.3535  0.6320  0.2730
  425MOL0     C55991   7.113  11.548  10.352  0.8645  0.4049  0.0208
  425MOL0     O55992   7.068  11.668  10.281 -0.0808  0.2945 -0.3363
  425MOL0     C55993   6.948  11.716  10.322  0.0428 -0.9036  1.0297
  425MOL0     C55994   6.842  11.650  10.383  0.2528  0.2626  0.3315
  425MOL0     C55995   6.720  11.711  10.407 -0.2512  0.3448 -0.0833
  425MOL0     C55996   6.692  11.842  10.369 -0.2924  0.8482  0.4498
  425MOL0     C55997   6.561  11.907  10.392 -0.4683  0.6247 -0.3069
  425MOL0     O55998   6.531  12.028  10.326 -0.3712 -0.2378 -0.5503
  425MOL0     C55999   6.404  12.080  10.346 -0.0423  0.5793 -1.0452
  425MOL0     C56000   6.374  12.181  10.439 -0.8778 -0.5757 -0.5143
  425MOL0     C56001   6.240  12.230  10.449  0.0415 -0.3141  0.3261
  425MOL0     C56002   6.137  12.179  10.363  0.0571  0.6513  0.4423
  425MOL0     O56003   6.007  12.229  10.353 -0.3247 -0.4992 -0.6098
  425MOL0     C56004   5.963  12.298  10.471  0.2127 -0.3468  0.7626
  425MOL0     C56005   5.829  12.373  10.425 -0.8894 -0.7171 -0.1779
  425MOL0     C56006   5.710  12.286  10.407 -0.2031  0.4752 -0.6514
  425MOL0     C56007   5.585  12.370  10.368 -0.5943  0.1866 -0.1785
  425MOL0     C56008   5.463  12.269  10.370  0.9198 -0.3920  0.2620
  425MOL0     C56009   5.331  12.351  10.341  0.4739  0.2021  0.2248
  425MOL0     C56010   5.206  12.277  10.370  0.3730  0.0390 -0.1831
  425MOL0     C56011   5.084  12.365  10.342 -0.2957 -0.3602  0.7903
  425MOL0    Cl56012   4.923  12.297  10.386 -0.1211  0.5273  0.3778
  425MOL0     C56013   6.171  12.083  10.271  0.8241  1.0737  0.1671
  425MOL0     C56014   6.304  12.040  10.259  0.0419 -0.1535 -0.1290
  425MOL0     O56015   6.486  11.851  10.467 -0.2133  0.2073 -0.2327
  425MOL0     C56016   6.800  11.907  10.303 -0.2354 -1.4058 -0.0688
  425MOL0     C56017   6.928  11.854  10.284  0.2316  0.0931 -0.6741
  425MOL0     N56018   7.536  11.745  10.543  0.3259  0.3967 -0.4764
  425MOL0     N56019   7.661  11.783  10.549 -0.0110 -0.6293 -0.7885
  425MOL0     C56020   8.804  11.577  10.409 -0.1557  0.1632 -0.2102
  425MOL0     C56021   8.860  11.450  10.393  0.6115  0.7870 -0.0993
  425MOL0     C56022   8.958  11.011  10.406  0.3475 -0.8452  0.5814
  425MOL0     C56023   8.937  10.894  10.497 -0.2560  0.9780  0.5308
  425MOL0     C56024   9.011  10.776  10.470  0.0946  0.4765 -0.8223
  425MOL0     C56025   9.088  10.754  10.357 -0.6131  0.0170 -0.2318
  425MOL0     O56026   9.155  10.633  10.339  0.1490 -0.2230 -0.0821
  425MOL0     C56027   9.197  10.599  10.202 -0.4144  0.4604 -0.8782
  425MOL0     C56028   9.247  10.452  10.201 -0.0384 -0.0356  0.4229
  425MOL0     C56029   9.340  10.406  10.092 -1.1751 -0.8386  0.2664
  425MOL0     C56030   9.270  10.374   9.961  0.6763  0.1204  0.6519
  425MOL0     C56031   9.375  10.327   9.870  0.2178 -0.3277 -0.0976
  425MOL0     C56032   9.446  10.295   9.774  0.8810 -0.1705 -0.2037
  425MOL0     C56033   9.092  10.866  10.269 -0.3115 -0.3919 -0.0159
  425MOL0     C56034   9.033  10.989  10.289  0.0928  0.3853 -0.4283
  425MOL0     H56035   8.649  11.303  10.172  1.0130 -0.7438 -0.1597
  425MOL0     H56036   8.529  11.525  10.204 -2.3188  1.1854  3.5021
  425MOL0     H56037   8.720  11.854  10.438 -1.6506  1.9187 -3.0593
  425MOL0     H56038   8.618  11.754  10.551  0.6613  0.5781  0.7351
  425MOL0     H56039   8.499  11.937  10.335  1.4566 -0.3671  0.4387
  425MOL0     H56040   8.573  12.000  10.496 -0.8836 -0.7220  1.3827
  425MOL0     H56041   8.330  11.974  10.464  1.7566 -0.4927 -2.2559
  425MOL0     H56042   8.419  11.918  10.613  0.1230 -0.9808 -0.0903
  425MOL0     H56043   8.352  11.716  10.382  0.0107 -0.3269  0.1279
  425MOL0     H56044   8.369  11.682  10.550 -0.7913 -0.8549  0.0873
  425MOL0     H56045   8.140  11.812  10.405 -0.7099 -0.6478  0.4667
  425MOL0     H56046   8.172  11.847  10.576  1.7504 -0.0593 -0.6540
  425MOL0     H56047   8.155  11.610  10.637 -0.9470 -0.3897  0.9320
  425MOL0     H56048   8.121  11.557  10.467 -2.0280 -0.6995 -0.5862
  425MOL0     H56049   7.923  11.556  10.586  0.1144 -1.0122 -1.2125
  425MOL0     H56050   7.945  11.725  10.658 -1.5197  0.8798 -0.6513
  425MOL0     H56051   7.916  11.667  10.368 -0.3239 -0.7001  0.1994
  425MOL0     H56052   7.917  11.820  10.448  2.2334 -0.7270 -0.5782
  425MOL0     H56053   7.722  11.503  10.404  2.7833  0.7066  0.1812
  425MOL0     H56054   7.340  11.558  10.524 -0.5467 -0.4253 -1.1042
  425MOL0     H56055   7.437  11.436  10.448  0.0297 -0.3328 -2.5445
  425MOL0     H56056   7.437  11.578  10.235  0.9762  0.5925  0.7049
  425MOL0     H56057   7.328  11.689  10.322  2.3223  0.6631 -2.1672
  425MOL0     H56058   7.225  11.475  10.182  2.5017 -0.6570 -0.0821
  425MOL0     H56059   7.258  11.391  10.339  1.4951 -0.0966 -1.6840
  425MOL0     H56060   7.140  11.575  10.455 -1.5614 -0.9517  1.0913
  425MOL0     H56061   7.041  11.466  10.358 -0.2687  1.4142  0.4792
  425MOL0     H56062   6.866  11.550  10.418 -2.4864  0.4364  3.1487
  425MOL0     H56063   6.645  11.648  10.454 -1.9781  0.9326 -1.9195
  425MOL0     H56064   6.455  12.213  10.504 -1.7120  2.1008 -0.6496
  425MOL0     H56065   6.222  12.312  10.518 -1.8051  0.2567 -0.7674
  425MOL0     H56066   6.035  12.379  10.484  0.3600  0.0618 -1.9128
  425MOL0     H56067   5.948  12.229  10.554  1.5720 -0.9856  0.5022
  425MOL0     H56068   5.853  12.434  10.337  2.7713 -2.3107 -0.4764
  425MOL0     H56069   5.811  12.437  10.512 -1.5800 -2.2173  0.8183
  425MOL0     H56070   5.683  12.238  10.501  2.5092 -0.4444 -0.2708
  425MOL0     H56071   5.729  12.199  10.342  0.2840 -0.6626  0.9537
  425MOL0     H56072   5.565  12.455  10.434 -2.5351 -0.4399  0.1114
  425MOL0     H56073   5.596  12.422  10.273 -1.0756  1.4830  0.4478
  425MOL0     H56074   5.473  12.226  10.470  0.3409 -1.1110  0.0237
  425MOL0     H56075   5.459  12.192  10.292 -3.3761  0.7291 -0.8886
  425MOL0     H56076   5.337  12.376  10.235 -0.5244 -5.0769 -1.3868
  425MOL0     H56077   5.327  12.442  10.401  0.2046  1.2367 -1.3389
  425MOL0     H56078   5.204  12.186  10.310  1.7195  0.5155 -1.0109
  425MOL0     H56079   5.214  12.266  10.478  0.3307  1.8723  0.0402
  425MOL0     H56080   5.093  12.382  10.235  1.3587  0.5524  1.0382
  425MOL0     H56081   5.092  12.464  10.388 -1.0379  0.2973 -0.4507
  425MOL0     H56082   6.106  12.055  10.189  1.6148 -0.4007  0.0075
  425MOL0     H56083   6.346  11.972  10.184 -0.6700 -2.5697  1.5490
  425MOL0     H56084   6.788  12.011  10.274  1.5993 -1.1339  0.0200
  425MOL0     H56085   7.009  11.912  10.243  1.6715 -2.0229 -0.9605
  425MOL0     H56086   8.853  11.645  10.478  3.0017  0.7297 -2.7847
  425MOL0     H56087   8.948  11.430  10.454  1.0431  1.4739 -0.4760
  425MOL0     H56088   8.870  10.886  10.582 -1.5922 -4.4279 -0.6823
  425MOL0     H56089   8.998  10.690  10.535 -2.0788  2.0576  0.9774
  425MOL0     H56090   9.281  10.662  10.172  3.7609 -4.3400 -0.6014
  425MOL0     H56091   9.117  10.620  10.130 -2.5273 -1.5498  0.7443
  425MOL0     H56092   9.298  10.444  10.297  0.7815 -4.1125 -0.1689
  425MOL0     H56093   9.162  10.386  10.220 -0.4626  0.3183 -0.1911
  425MOL0     H56094   9.392  10.319  10.134  2.4010  0.4026 -1.2252
  425MOL0     H56095   9.417  10.481  10.075 -0.4522 -1.9974 -2.0745
  425MOL0     H56096   9.210  10.285   9.985  2.4117 -0.5953  2.6821
  425MOL0     H56097   9.213  10.448   9.905 -0.4622 -1.6287 -0.6095
  425MOL0     H56098   9.500  10.270   9.685 -0.1203 -0.4561 -0.7453
  425MOL0     H56099   9.136  10.856  10.170  0.5640 -3.1126  0.5416
  425MOL0     H56100   9.054  11.060  10.210  3.7924 -0.7222 -0.6372
  426MOL0     O56101   3.748   5.113   3.452  0.5033 -0.5149 -0.5235
  426MOL0     C56102   3.758   5.157   3.338  0.0236 -0.1022  0.2275
  426MOL0     O56103   3.656   5.167   3.244  0.1245 -0.1440  1.1895
  426MOL0     C56104   3.531   5.141   3.287 -0.2815  0.5273  0.6594
  426MOL0     C56105   3.473   5.021   3.248  0.7386  0.2921  0.4555
  426MOL0     C56106   3.344   4.975   3.292  0.6279  0.3595  1.0174
  426MOL0     C56107   3.271   5.057   3.370 -0.0158  1.2271 -0.5033
  426MOL0     O56108   3.140   5.021   3.412  0.4263  0.4659  0.2261
  426MOL0     C56109   3.038   5.122   3.434 -0.6434 -0.3110  0.6040
  426MOL0     C56110   2.909   5.063   3.484  0.5500 -0.6346 -0.7936
  426MOL0     C56111   2.808   5.176   3.527 -0.5169  0.3732  0.7115
  426MOL0     C56112   2.666   5.118   3.550  0.3827 -0.1021  0.6157
  426MOL0     C56113   2.585   5.229   3.618 -0.4136 -0.2119  0.5922
  426MOL0     C56114   2.433   5.199   3.628 -0.1234 -0.0629 -0.2215
  426MOL0     C56115   2.379   5.315   3.702  0.5311 -1.2726 -1.4230
  426MOL0     C56116   2.225   5.338   3.700 -0.4260  0.8939  0.1897
  426MOL0     N56117   2.157   5.225   3.754  0.4048  0.5999  0.6062
  426MOL0     C56118   2.061   5.148   3.691 -0.1876 -0.9206  1.1720
  426MOL0     C56119   1.994   5.080   3.785 -0.3564 -0.3117 -0.6058
  426MOL0     C56120   1.889   4.974   3.764  0.5455  0.0190  0.2544
  426MOL0     C56121   1.744   5.023   3.807 -0.0721  0.7066  0.3546
  426MOL0     C56122   1.662   4.910   3.878 -0.2449  0.5942 -0.2931
  426MOL0     C56123   1.522   4.962   3.910  0.3660 -0.0492  0.9161
  426MOL0     O56124   1.432   4.852   3.932  0.2223  0.0915  0.5640
  426MOL0     C56125   1.319   4.862   3.998 -0.5568 -1.2798 -0.1340
  426MOL0     C56126   1.234   4.749   4.006 -0.1042 -0.4933 -0.3988
  426MOL0     C56127   1.118   4.753   4.085  0.7255 -0.0348  0.1315
  426MOL0     C56128   1.074   4.873   4.143  0.2688  0.8748 -0.1490
  426MOL0     C56129   0.952   4.883   4.231  0.8442 -0.6348 -0.2525
  426MOL0     O56130   0.858   4.783   4.217  0.0163 -0.1830 -0.6071
  426MOL0     C56131   0.737   4.782   4.277 -0.0336 -0.0376  0.3701
  426MOL0     C56132   0.680   4.654   4.276  0.3791  0.8633  0.4604
  426MOL0     C56133   0.550   4.639   4.323  0.5225  0.0711  0.1910
  426MOL0     C56134   0.477   4.745   4.377  0.0593  0.2810  0.6740
  426MOL0     O56135   0.345   4.733   4.422  0.3087  0.2933 -0.5290
  426MOL0     C56136   0.280   4.608   4.413  0.6914  0.6156  0.2828
  426MOL0     C56137   0.126   4.607   4.461 -0.6606  0.1491 -0.5011
  426MOL0     C56138   0.056   4.738   4.416  0.4924 -1.0052 -0.5277
  426MOL0     C56139  -0.087   4.724   4.445  0.5773 -0.0571  0.1474
  426MOL0     C56140  -0.170   4.846   4.400  0.4270 -0.4329 -0.2666
  426MOL0     C56141  -0.317   4.841   4.444 -0.6422 -0.0934  0.4022
  426MOL0     C56142  -0.403   4.743   4.359  0.1606 -0.9215 -0.6780
  426MOL0     C56143  -0.528   4.700   4.428 -0.3137 -0.2952 -0.1398
  426MOL0    Cl56144  -0.650   4.831   4.421  0.1042  0.4925 -0.3007
  426MOL0     C56145   0.533   4.870   4.365  1.2315 -0.3298 -0.5398
  426MOL0     C56146   0.660   4.890   4.322  1.0439 -1.0536 -0.5157
  426MOL0     O56147   0.950   4.978   4.307  0.0470  0.3170 -0.3613
  426MOL0     C56148   1.158   4.980   4.139 -0.1489  0.5203 -0.7544
  426MOL0     C56149   1.274   4.987   4.057  0.6893  0.9542  0.3613
  426MOL0     N56150   2.060   5.107   3.903 -0.9935  0.0692 -0.7067
  426MOL0     N56151   2.147   5.196   3.882 -0.8069  0.0983 -0.1618
  426MOL0     C56152   3.325   5.177   3.415  0.5440 -0.1037 -0.7684
  426MOL0     C56153   3.455   5.221   3.372 -0.1308  0.3922  1.0439
  426MOL0     C56154   3.888   5.171   3.285  0.8023 -0.3145  0.5385
  426MOL0     C56155   3.922   5.145   3.152 -0.4873  0.2671 -0.6756
  426MOL0     C56156   4.052   5.168   3.104  0.2226  0.1444  0.0007
  426MOL0     C56157   4.158   5.214   3.194  0.8746  0.2593  0.5012
  426MOL0     O56158   4.289   5.211   3.158 -0.1910 -0.1143 -0.9307
  426MOL0     C56159   4.360   5.327   3.207  0.7444  0.2785 -0.1538
  426MOL0     C56160   4.474   5.364   3.115  0.0642 -0.5158  0.3414
  426MOL0     C56161   4.423   5.371   2.965  0.5145 -0.4903 -0.2584
  426MOL0     C56162   4.521   5.454   2.872  0.1914 -0.4565 -0.7314
  426MOL0     C56163   4.641   5.383   2.855  0.0878  0.3108  0.2354
  426MOL0     C56164   4.752   5.335   2.833  0.2728  1.0736 -0.0826
  426MOL0     C56165   4.125   5.239   3.331 -0.3176  0.2449  0.1765
  426MOL0     C56166   3.992   5.215   3.373  0.0895  0.5508 -0.9590
  426MOL0     H56167   3.514   4.949   3.178  2.6751  1.4543  0.3344
  426MOL0     H56168   3.302   4.878   3.264 -1.0514  1.0051  1.1572
  426MOL0     H56169   3.012   5.179   3.344 -2.2079 -2.9738 -0.7719
  426MOL0     H56170   3.065   5.188   3.516  0.3338  0.3584 -0.2438
  426MOL0     H56171   2.933   5.000   3.570 -1.0907 -0.0979  0.0925
  426MOL0     H56172   2.858   5.006   3.405 -0.4296  1.6710 -1.9053
  426MOL0     H56173   2.820   5.251   3.449  1.5146 -1.5667 -0.9684
  426MOL0     H56174   2.853   5.223   3.615  0.6001  3.7535 -1.4877
  426MOL0     H56175   2.617   5.092   3.455 -2.8653  1.0613  1.8693
  426MOL0     H56176   2.668   5.023   3.604 -0.4244 -0.3372  0.2527
  426MOL0     H56177   2.591   5.314   3.549  0.7465 -0.0156  0.9025
  426MOL0     H56178   2.631   5.256   3.714 -1.9837 -1.3062  1.6973
  426MOL0     H56179   2.418   5.105   3.682 -0.9645  1.2860  2.0515
  426MOL0     H56180   2.388   5.184   3.529 -0.2540 -3.9104  0.2815
  426MOL0     H56181   2.409   5.291   3.804  4.1023  0.3493 -1.9059
  426MOL0     H56182   2.429   5.406   3.666 -0.3023  0.3403  1.2767
  426MOL0     H56183   2.192   5.366   3.599  2.0029  2.2120 -0.3069
  426MOL0     H56184   2.200   5.430   3.754 -1.4774  0.4154  0.5369
  426MOL0     H56185   2.052   5.123   3.586 -1.3625 -0.7666  1.2287
  426MOL0     H56186   1.921   4.878   3.805  0.8236 -0.8020 -1.7925
  426MOL0     H56187   1.896   4.949   3.658  1.9889 -1.1681  0.5880
  426MOL0     H56188   1.696   5.045   3.711 -2.3136  0.0604  1.2726
  426MOL0     H56189   1.745   5.108   3.875 -0.4245  0.7694  0.2823
  426MOL0     H56190   1.650   4.825   3.810  0.1424 -0.1746  0.5734
  426MOL0     H56191   1.712   4.883   3.971  1.5275 -0.2800 -1.4235
  426MOL0     H56192   1.497   5.026   3.825 -1.4122 -0.0991  1.3545
  426MOL0     H56193   1.520   5.029   3.997  2.9449  0.7604  0.4316
  426MOL0     H56194   1.264   4.657   3.956  2.3306  0.0394 -0.0450
  426MOL0     H56195   1.065   4.659   4.095 -0.1919  0.2995 -1.3771
  426MOL0     H56196   0.725   4.566   4.230  2.5033  1.6711  0.8821
  426MOL0     H56197   0.510   4.538   4.317 -0.2558  0.2702  1.5466
  426MOL0     H56198   0.332   4.524   4.459  0.0989 -0.0188 -0.1931
  426MOL0     H56199   0.268   4.590   4.306 -0.9829  0.4443  0.4796
  426MOL0     H56200   0.118   4.597   4.570  1.1359 -1.7869 -0.4717
  426MOL0     H56201   0.071   4.524   4.415  0.7222 -0.2808 -1.4500
  426MOL0     H56202   0.066   4.770   4.312 -0.6074 -0.3075 -0.4378
  426MOL0     H56203   0.097   4.820   4.476 -0.7634 -0.6142 -0.1624
  426MOL0     H56204  -0.125   4.643   4.382  0.4871  0.7604 -0.8768
  426MOL0     H56205  -0.107   4.713   4.552 -2.1727  0.1253 -0.2669
  426MOL0     H56206  -0.157   4.856   4.291  0.8916  0.7712 -0.1125
  426MOL0     H56207  -0.120   4.931   4.447 -1.1950  1.7137 -2.1527
  426MOL0     H56208  -0.367   4.938   4.439  0.1894  0.3431  0.4240
  426MOL0     H56209  -0.321   4.799   4.545 -0.8803 -0.6733  0.1544
  426MOL0     H56210  -0.425   4.794   4.265  0.9247  2.2289  0.7064
  426MOL0     H56211  -0.349   4.649   4.356  1.0943 -0.3808 -3.4794
  426MOL0     H56212  -0.505   4.672   4.531 -0.9379  0.5575  0.2457
  426MOL0     H56213  -0.558   4.605   4.384  1.4841 -0.8902 -0.1789
  426MOL0     H56214   0.465   4.946   4.402  0.3928 -1.0310 -0.5955
  426MOL0     H56215   0.709   4.986   4.307 -0.0075 -0.6558 -1.5495
  426MOL0     H56216   1.128   5.075   4.183 -0.1418 -0.0624  0.5607
  426MOL0     H56217   1.324   5.082   4.038 -0.3720  1.7693  1.4667
  426MOL0     H56218   3.269   5.242   3.481 -1.6378 -0.6380 -2.0096
  426MOL0     H56219   3.492   5.319   3.399  0.7431  0.8667 -1.6059
  426MOL0     H56220   3.838   5.131   3.084 -1.5403  0.4632  0.5257
  426MOL0     H56221   4.075   5.141   3.002 -1.4162  0.0046 -0.3624
  426MOL0     H56222   4.405   5.307   3.305 -0.7965  0.5733  0.6558
  426MOL0     H56223   4.294   5.413   3.225  0.4769 -0.4012  2.5583
  426MOL0     H56224   4.511   5.465   3.137 -3.0676  0.6357  0.8127
  426MOL0     H56225   4.557   5.294   3.131 -0.3610 -1.0698  0.1373
  426MOL0     H56226   4.329   5.425   2.964  2.3227  3.0674 -3.6960
  426MOL0     H56227   4.408   5.272   2.921 -3.5605 -0.9506  1.7497
  426MOL0     H56228   4.477   5.476   2.775 -0.0214  0.4466 -0.4379
  426MOL0     H56229   4.549   5.549   2.919 -1.7077  1.5553 -3.3789
  426MOL0     H56230   4.850   5.307   2.801 -0.5936 -0.2859 -1.6753
  426MOL0     H56231   4.193   5.267   3.410 -0.1751  1.0725 -0.2338
  426MOL0     H56232   3.957   5.235   3.474 -0.7014  0.8204 -1.2820
  427MOL0     O56233   2.124   6.248   6.449 -0.3609 -0.7816 -0.9649
  427MOL0     C56234   2.190   6.339   6.507  0.3799  0.5538  0.4056
  427MOL0     O56235   2.151   6.400   6.627 -1.0707  0.4952  0.1681
  427MOL0     C56236   2.034   6.370   6.686  0.1837 -0.5369 -0.5309
  427MOL0     C56237   1.911   6.370   6.618 -0.1174  0.5797 -0.6862
  427MOL0     C56238   1.789   6.338   6.675  0.1074  0.7927  0.7337
  427MOL0     C56239   1.788   6.299   6.812  0.2673  1.3230 -0.8082
  427MOL0     O56240   1.666   6.267   6.871 -0.8935 -0.3452  0.1432
  427MOL0     C56241   1.660   6.165   6.972 -0.2644  0.7347 -0.1849
  427MOL0     C56242   1.596   6.233   7.102  0.8025  0.1615  0.2416
  427MOL0     C56243   1.595   6.144   7.228  0.1235  0.0813  0.6019
  427MOL0     C56244   1.548   6.213   7.351 -0.4188  0.2055 -0.1454
  427MOL0     C56245   1.621   6.351   7.384  0.7952  0.5124 -0.2357
  427MOL0     C56246   1.588   6.412   7.514 -0.0994 -0.1870 -0.3987
  427MOL0     C56247   1.645   6.555   7.536 -0.1013 -0.4946  0.5570
  427MOL0     C56248   1.711   6.575   7.670  0.2501 -0.0943  0.2521
  427MOL0     N56249   1.633   6.560   7.800 -0.0779  0.2840  0.8112
  427MOL0     C56250   1.495   6.565   7.803 -0.0048 -0.5586  0.0976
  427MOL0     C56251   1.473   6.523   7.929 -0.6216  0.0168  0.2535
  427MOL0     C56252   1.330   6.504   7.976 -0.9744 -0.4463  0.6265
  427MOL0     C56253   1.309   6.604   8.086 -0.2063  0.2132  0.1947
  427MOL0     C56254   1.340   6.742   8.043 -0.0282 -0.8870 -0.0788
  427MOL0     C56255   1.281   6.841   8.134 -0.7550  0.0499 -0.2470
  427MOL0     O56256   1.333   6.973   8.116  0.6892  0.9854 -0.3447
  427MOL0     C56257   1.251   7.072   8.168 -0.9291  0.0461  0.5273
  427MOL0     C56258   1.207   7.068   8.307  0.6917  0.6197  0.2597
  427MOL0     C56259   1.150   7.179   8.357 -0.0241  0.1753  0.8054
  427MOL0     C56260   1.148   7.293   8.290 -0.4982 -0.2950  0.5916
  427MOL0     C56261   1.087   7.414   8.360  0.2765  0.8156  0.5797
  427MOL0     O56262   1.079   7.528   8.298 -0.2430  0.1036 -0.8392
  427MOL0     C56263   1.075   7.640   8.374  0.2648  0.4069  0.5736
  427MOL0     C56264   1.190   7.701   8.423 -0.0981 -0.2284 -0.6921
  427MOL0     C56265   1.176   7.825   8.491  0.0064 -0.0044  0.4153
  427MOL0     C56266   1.056   7.899   8.507 -0.3900 -0.0723 -0.2137
  427MOL0     O56267   1.043   8.022   8.561 -0.5288 -0.0944  0.4985
  427MOL0     C56268   1.164   8.103   8.589 -0.1390  0.3324  0.2791
  427MOL0     C56269   1.235   8.071   8.720  1.0770 -0.2249  0.4930
  427MOL0     C56270   1.137   8.075   8.839 -0.0678 -0.3769  0.3036
  427MOL0     C56271   1.067   8.213   8.849 -0.5183 -0.2525 -0.6607
  427MOL0     C56272   0.995   8.223   8.984  0.8875 -0.4764  0.3881
  427MOL0     C56273   1.058   8.201   9.115  1.2133  0.0134 -0.0468
  427MOL0     C56274   1.177   8.289   9.148 -0.5052  0.1129 -0.4285
  427MOL0     C56275   1.241   8.256   9.284  0.2390 -0.0779  0.2315
  427MOL0    Cl56276   1.295   8.081   9.298 -0.3872 -0.0403 -0.3907
  427MOL0     C56277   0.941   7.835   8.456 -0.3948 -0.1719  0.0467
  427MOL0     C56278   0.951   7.716   8.386  0.3015  1.1787 -0.7176
  427MOL0     O56279   1.025   7.395   8.468 -0.5664 -0.1819  0.4755
  427MOL0     C56280   1.195   7.305   8.158  0.1187 -0.9679 -0.3865
  427MOL0     C56281   1.240   7.193   8.095 -0.4039  0.4756 -0.7619
  427MOL0     N56282   1.585   6.502   7.998  0.6392  0.0382  0.0471
  427MOL0     N56283   1.685   6.532   7.919  0.1557  0.3575  0.6527
  427MOL0     C56284   1.914   6.297   6.887  0.6981 -0.2635 -0.9674
  427MOL0     C56285   2.031   6.345   6.827 -0.7847  0.6740  0.3515
  427MOL0     C56286   2.322   6.361   6.449 -0.2208  0.0713 -0.0196
  427MOL0     C56287   2.357   6.295   6.332  0.6899 -0.5547  0.1906
  427MOL0     C56288   2.485   6.324   6.276 -0.5646  0.4248  0.4685
  427MOL0     C56289   2.584   6.399   6.334  0.1430  0.8864  0.1914
  427MOL0     O56290   2.702   6.411   6.271 -0.3619 -0.1092  0.1810
  427MOL0     C56291   2.810   6.483   6.335 -0.8100 -0.6911 -0.0497
  427MOL0     C56292   2.908   6.481   6.223 -0.9483  0.2843  0.2625
  427MOL0     C56293   3.052   6.512   6.255  0.2324 -0.1518  0.2831
  427MOL0     C56294   3.149   6.420   6.179  0.3107  0.4508 -0.2291
  427MOL0     C56295   3.270   6.416   6.263  0.2095 -0.0569  0.8352
  427MOL0     C56296   3.381   6.390   6.307 -0.4084 -0.1019 -0.4902
  427MOL0     C56297   2.543   6.463   6.455 -0.1698  0.6348 -0.3990
  427MOL0     C56298   2.412   6.450   6.509  0.1637  0.2497  0.1770
  427MOL0     H56299   1.921   6.402   6.515  2.5624 -2.3345 -1.4830
  427MOL0     H56300   1.694   6.343   6.621  1.6301  1.0725 -2.1184
  427MOL0     H56301   1.752   6.111   6.997 -2.3056 -3.4218 -0.7656
  427MOL0     H56302   1.600   6.083   6.932  1.8229 -1.0967  0.2175
  427MOL0     H56303   1.491   6.259   7.085  0.9394  1.4930  1.2278
  427MOL0     H56304   1.647   6.329   7.120  1.6883 -0.2095 -0.2458
  427MOL0     H56305   1.694   6.098   7.230  0.3825  0.6413  1.8698
  427MOL0     H56306   1.521   6.065   7.218  0.1203  0.1662 -0.1237
  427MOL0     H56307   1.440   6.228   7.340 -0.7543 -2.8310 -2.3235
  427MOL0     H56308   1.566   6.141   7.432 -2.1852 -1.3123 -1.0339
  427MOL0     H56309   1.600   6.425   7.307  0.6786  1.8966  1.0838
  427MOL0     H56310   1.730   6.338   7.377  0.9935  2.0854 -0.3544
  427MOL0     H56311   1.631   6.350   7.593  2.1548  3.6120  1.6290
  427MOL0     H56312   1.479   6.417   7.521 -0.0312  1.1109 -0.1314
  427MOL0     H56313   1.730   6.569   7.469  0.6205 -0.5743  1.4348
  427MOL0     H56314   1.565   6.628   7.518  0.0689 -0.6405 -0.9143
  427MOL0     H56315   1.765   6.668   7.691  1.2505 -0.8207  0.9814
  427MOL0     H56316   1.787   6.497   7.681  0.7617  0.6350  2.3755
  427MOL0     H56317   1.428   6.594   7.723 -0.2482  1.4779  0.9869
  427MOL0     H56318   1.326   6.401   8.011  1.0688 -1.2402 -1.2458
  427MOL0     H56319   1.267   6.521   7.889 -0.7116  0.6782  0.6383
  427MOL0     H56320   1.374   6.573   8.169 -1.8310 -2.1411  0.6990
  427MOL0     H56321   1.202   6.591   8.104  0.2083 -1.8681  1.5011
  427MOL0     H56322   1.450   6.746   8.040 -0.0431  0.6155  0.2725
  427MOL0     H56323   1.305   6.771   7.944  1.7410 -2.5371 -1.2602
  427MOL0     H56324   1.301   6.806   8.236 -0.6033 -0.8310 -0.5669
  427MOL0     H56325   1.174   6.834   8.110 -0.3106  1.5445 -3.0116
  427MOL0     H56326   1.209   6.977   8.366  0.6021 -0.4586 -1.3248
  427MOL0     H56327   1.121   7.165   8.461  0.7522  1.7484  1.2706
  427MOL0     H56328   1.278   7.639   8.416  0.4324  0.5355 -0.8450
  427MOL0     H56329   1.269   7.871   8.525 -0.6450  0.1412  2.0745
  427MOL0     H56330   1.124   8.205   8.586 -0.8004  0.0508 -1.1971
  427MOL0     H56331   1.243   8.090   8.515 -1.4548 -2.1049 -0.8104
  427MOL0     H56332   1.316   8.142   8.739 -1.5578  3.2656 -0.3252
  427MOL0     H56333   1.277   7.969   8.715  1.7760  0.1074 -1.3133
  427MOL0     H56334   1.197   8.059   8.929  0.4140  0.4427  0.1405
  427MOL0     H56335   1.064   7.994   8.839 -0.2273 -0.2691  2.0037
  427MOL0     H56336   1.154   8.278   8.853  1.0544 -2.3324  0.8139
  427MOL0     H56337   0.991   8.229   8.771 -1.7641 -2.2178  0.0657
  427MOL0     H56338   0.906   8.159   8.981 -0.9085  1.8937 -2.0667
  427MOL0     H56339   0.954   8.324   8.988  0.4978 -0.6739  2.1401
  427MOL0     H56340   1.094   8.097   9.112  4.1702  0.9182  0.7253
  427MOL0     H56341   0.979   8.211   9.190  0.6582  1.9450 -0.8382
  427MOL0     H56342   1.250   8.271   9.070 -1.9371  0.4583 -1.9094
  427MOL0     H56343   1.155   8.396   9.137  1.4308  0.7162  0.9424
  427MOL0     H56344   1.177   8.286   9.368  2.1486  1.7954  1.1119
  427MOL0     H56345   1.329   8.320   9.285 -0.4460  0.8881 -0.6211
  427MOL0     H56346   0.846   7.884   8.471  0.0164 -0.1838  3.4820
  427MOL0     H56347   0.863   7.667   8.347  0.0969  1.8852 -1.1761
  427MOL0     H56348   1.194   7.397   8.100 -0.2677 -0.9040 -0.2760
  427MOL0     H56349   1.271   7.189   7.991 -1.7035 -3.2740 -1.1393
  427MOL0     H56350   1.922   6.257   6.987  0.4109 -1.8025 -1.5190
  427MOL0     H56351   2.119   6.349   6.889  3.2179  0.4023 -4.6755
  427MOL0     H56352   2.283   6.234   6.280  1.0203  0.9480 -2.2243
  427MOL0     H56353   2.517   6.276   6.184 -0.4598 -0.7590  1.1061
  427MOL0     H56354   2.835   6.420   6.421  0.1399  0.7444  0.7646
  427MOL0     H56355   2.775   6.580   6.370 -3.4414 -1.2260 -0.9304
  427MOL0     H56356   2.904   6.380   6.182 -2.7376  1.1796 -1.9717
  427MOL0     H56357   2.879   6.546   6.141 -1.1607 -1.5913 -1.2255
  427MOL0     H56358   3.056   6.499   6.364 -0.1685  1.3300  0.4906
  427MOL0     H56359   3.066   6.614   6.220 -4.2172  0.2674 -0.8816
  427MOL0     H56360   3.111   6.318   6.178  0.9640  0.2072 -0.2029
  427MOL0     H56361   3.171   6.465   6.082  1.8508  2.2059  0.8812
  427MOL0     H56362   3.481   6.368   6.340 -1.0692  0.1147  1.8529
  427MOL0     H56363   2.609   6.537   6.498 -2.0696  1.5583  1.0828
  427MOL0     H56364   2.389   6.502   6.602  0.4663 -1.0115  0.9831
  428MOL0     O56365   1.539   9.468   1.373 -0.4130  0.6886  0.2308
  428MOL0     C56366   1.623   9.385   1.417 -0.4522  0.2855 -0.1606
  428MOL0     O56367   1.593   9.276   1.492  0.2950 -0.1122  0.0676
  428MOL0     C56368   1.461   9.256   1.528 -0.0459  0.7095  0.0067
  428MOL0     C56369   1.423   9.257   1.656  0.3695 -1.4027 -0.3033
  428MOL0     C56370   1.294   9.225   1.699 -0.3386 -0.1966 -0.0743
  428MOL0     C56371   1.197   9.195   1.598 -0.0700  0.2079  0.3868
  428MOL0     O56372   1.067   9.165   1.635 -0.6043 -0.4366  0.5183
  428MOL0     C56373   1.021   9.034   1.603 -0.4792 -0.3707 -0.3617
  428MOL0     C56374   0.890   9.006   1.678 -0.1972 -0.4508 -0.6406
  428MOL0     C56375   0.773   9.043   1.590  0.9805  0.1047  0.8910
  428MOL0     C56376   0.632   9.030   1.642  0.2702  0.6476  0.6405
  428MOL0     C56377   0.591   9.102   1.771  0.5559  0.5881 -0.6800
  428MOL0     C56378   0.444   9.063   1.784  0.1520 -0.0666  0.3991
  428MOL0     C56379   0.381   9.137   1.897  0.4969  0.1019 -1.2654
  428MOL0     C56380   0.238   9.087   1.938 -0.0780  0.5796  0.4418
  428MOL0     N56381   0.143   9.058   1.826 -0.8388 -0.0987 -0.2247
  428MOL0     C56382   0.150   8.939   1.750 -0.2686 -0.1145 -0.3958
  428MOL0     C56383   0.078   8.964   1.640 -0.8049  0.5141 -0.4865
  428MOL0     C56384   0.075   8.891   1.516 -0.0166  0.8611  0.1092
  428MOL0     C56385   0.215   8.865   1.469  0.3169 -0.2097  0.3640
  428MOL0     C56386   0.234   8.801   1.331 -0.0850  0.5210  0.7032
  428MOL0     C56387   0.380   8.788   1.300 -0.2885 -0.3032 -0.9547
  428MOL0     O56388   0.439   8.919   1.253 -0.2041 -0.1362 -0.2018
  428MOL0     C56389   0.572   8.922   1.224  0.1354 -0.8173 -0.1883
  428MOL0     C56390   0.628   8.819   1.149 -1.1162  0.6935  0.5422
  428MOL0     C56391   0.765   8.828   1.102  0.1780  0.5389  0.1169
  428MOL0     C56392   0.839   8.933   1.148 -0.0252  0.0633 -0.4817
  428MOL0     C56393   0.983   8.923   1.121 -0.4531  0.1842  0.0962
  428MOL0     O56394   1.057   9.022   1.177 -0.4717  0.4454 -0.0409
  428MOL0     C56395   1.186   9.020   1.148 -0.0827 -0.1255  0.5914
  428MOL0     C56396   1.273   8.937   1.229  0.4931 -1.0100  0.3393
  428MOL0     C56397   1.410   8.940   1.205 -0.9501 -0.3497 -0.0483
  428MOL0     C56398   1.467   9.023   1.107 -0.2652  0.0301 -0.0016
  428MOL0     O56399   1.602   9.031   1.103 -0.0291 -0.7708 -0.0008
  428MOL0     C56400   1.667   9.158   1.088 -0.0936 -0.2117 -0.1771
  428MOL0     C56401   1.811   9.144   1.125 -0.2838 -0.1002  0.3409
  428MOL0     C56402   1.887   9.096   0.999 -0.3338  0.0287  0.7078
  428MOL0     C56403   2.030   9.141   1.004 -0.5059  0.1119  0.1688
  428MOL0     C56404   2.110   9.105   0.871  0.7801  0.1218 -0.1956
  428MOL0     C56405   2.123   8.950   0.861 -0.4595  0.1287  0.3093
  428MOL0     C56406   2.181   8.877   0.985  0.1829 -0.8522  0.4290
  428MOL0     C56407   2.332   8.904   1.005 -0.6104  0.1684 -0.1231
  428MOL0    Cl56408   2.399   8.756   1.084 -0.3621  0.1791 -0.3195
  428MOL0     C56409   1.379   9.112   1.032 -0.4444  0.8252  0.2986
  428MOL0     C56410   1.241   9.111   1.054  0.6579  0.1180  0.4222
  428MOL0     O56411   1.038   8.823   1.066  0.8299  0.3026 -0.4098
  428MOL0     C56412   0.779   9.033   1.233 -0.3543  0.4765 -0.2302
  428MOL0     C56413   0.648   9.028   1.272 -1.0313 -0.3670 -0.2870
  428MOL0     N56414   0.022   9.086   1.656 -0.4587 -0.0597  0.1969
  428MOL0     N56415   0.069   9.145   1.759  0.0320 -0.7974 -0.2965
  428MOL0     C56416   1.233   9.191   1.467  0.5778 -0.2729 -0.0845
  428MOL0     C56417   1.366   9.227   1.424 -0.0603  0.2396 -1.0807
  428MOL0     C56418   1.770   9.389   1.371  1.2976 -0.0988  0.0901
  428MOL0     C56419   1.863   9.297   1.422  0.4962  0.3172 -0.5531
  428MOL0     C56420   1.997   9.315   1.391 -0.1426 -0.1264  1.0872
  428MOL0     C56421   2.040   9.411   1.295 -1.4774  0.1065  0.3281
  428MOL0     O56422   2.175   9.440   1.266  0.1178 -0.3632 -0.1434
  428MOL0     C56423   2.275   9.346   1.307 -0.0601  0.0319  0.4615
  428MOL0     C56424   2.324   9.383   1.441  0.8966  0.1147 -0.0117
  428MOL0     C56425   2.407   9.512   1.432 -0.1513 -0.3988 -0.7561
  428MOL0     C56426   2.419   9.578   1.570  0.5773  0.9757  0.9865
  428MOL0     C56427   2.516   9.694   1.559  0.5724  0.2442  0.1376
  428MOL0     C56428   2.580   9.793   1.549  0.3552 -0.1883 -0.3972
  428MOL0     C56429   1.951   9.498   1.249 -0.1529  0.5505  0.1584
  428MOL0     C56430   1.811   9.486   1.283 -0.2827 -0.2729  0.6304
  428MOL0     H56431   1.497   9.286   1.730  0.3717 -0.4659 -0.6708
  428MOL0     H56432   1.274   9.234   1.805  1.4673 -0.0050  0.2834
  428MOL0     H56433   1.098   8.961   1.633  0.8682  1.8560  1.9958
  428MOL0     H56434   1.001   9.023   1.496 -0.9640 -3.1458 -0.0624
  428MOL0     H56435   0.883   9.065   1.770  0.1913 -0.0228 -0.8860
  428MOL0     H56436   0.876   8.899   1.697  1.5491 -1.0298 -2.3026
  428MOL0     H56437   0.773   8.980   1.501 -0.2700  0.7554  0.4057
  428MOL0     H56438   0.793   9.145   1.555  0.5448 -0.7755 -2.1726
  428MOL0     H56439   0.560   9.054   1.563 -2.2373 -1.3674  2.1646
  428MOL0     H56440   0.623   8.921   1.644  0.0176  0.4711 -2.9999
  428MOL0     H56441   0.616   9.208   1.760  1.5447  0.9268  3.2225
  428MOL0     H56442   0.645   9.064   1.859  0.3104  3.1641  0.6994
  428MOL0     H56443   0.447   8.955   1.802  3.4330 -0.0781  0.4090
  428MOL0     H56444   0.386   9.080   1.693  0.2422 -0.8391  0.1829
  428MOL0     H56445   0.443   9.111   1.983 -1.9106  2.5126  1.4310
  428MOL0     H56446   0.383   9.244   1.873 -1.3835  0.6097  0.4786
  428MOL0     H56447   0.190   9.159   2.005  1.8288  2.7719 -0.3965
  428MOL0     H56448   0.254   8.991   1.989 -1.9530  0.4935  0.9426
  428MOL0     H56449   0.203   8.850   1.781 -0.4877  0.4321  1.6769
  428MOL0     H56450   0.040   8.958   1.436 -0.5467 -0.5363 -0.8652
  428MOL0     H56451   0.017   8.800   1.532  1.3865 -0.4559 -1.7521
  428MOL0     H56452   0.262   8.799   1.542  0.5386 -1.5143 -0.9333
  428MOL0     H56453   0.279   8.954   1.476  0.4083 -0.3603  1.9090
  428MOL0     H56454   0.182   8.705   1.327  0.8713  0.0239 -0.1950
  428MOL0     H56455   0.192   8.865   1.253 -0.3455  0.7092  0.9933
  428MOL0     H56456   0.381   8.717   1.217 -1.0639 -1.3920 -0.0648
  428MOL0     H56457   0.440   8.740   1.378  0.7999  2.1503 -0.1709
  428MOL0     H56458   0.573   8.736   1.106  0.9046  1.4041 -4.0163
  428MOL0     H56459   0.797   8.751   1.033  1.3419 -0.1351  1.3572
  428MOL0     H56460   1.239   8.877   1.312 -1.5486  0.3695  0.5498
  428MOL0     H56461   1.473   8.878   1.268  0.8889 -0.3946 -1.7988
  428MOL0     H56462   1.627   9.226   1.163 -3.1244 -2.5927  0.5341
  428MOL0     H56463   1.667   9.197   0.985 -0.3449  0.3264  0.0271
  428MOL0     H56464   1.827   9.082   1.214  1.3069 -0.5975 -0.2504
  428MOL0     H56465   1.854   9.242   1.148 -3.2793  1.3606  0.1944
  428MOL0     H56466   1.855   9.146   0.907  2.2764 -1.2233 -1.0048
  428MOL0     H56467   1.867   8.991   0.976  3.6397 -1.3101  2.3967
  428MOL0     H56468   2.039   9.249   1.017 -1.0461  0.0262  1.3826
  428MOL0     H56469   2.075   9.089   1.089 -0.5398 -0.4700 -0.1592
  428MOL0     H56470   2.205   9.161   0.872  0.4933  1.0684 -4.7209
  428MOL0     H56471   2.064   9.147   0.782  0.7549 -0.3412 -0.4013
  428MOL0     H56472   2.188   8.941   0.774  0.4720  3.1601  0.5788
  428MOL0     H56473   2.022   8.916   0.836 -0.7191  2.1365 -1.5886
  428MOL0     H56474   2.117   8.891   1.072 -1.3226  0.1128 -0.7898
  428MOL0     H56475   2.164   8.771   0.965  2.5146 -1.2721  0.4218
  428MOL0     H56476   2.360   8.984   1.074 -0.4964 -1.0630  1.3030
  428MOL0     H56477   2.380   8.923   0.909 -1.9940 -2.8515 -1.5225
  428MOL0     H56478   1.423   9.185   0.964  1.0497 -1.1961 -1.0070
  428MOL0     H56479   1.175   9.189   1.019 -2.0292 -1.3801  1.8278
  428MOL0     H56480   0.843   9.105   1.284 -1.5064 -1.3424  4.2459
  428MOL0     H56481   0.607   9.109   1.331 -1.4857  0.1232 -1.2407
  428MOL0     H56482   1.149   9.174   1.401 -0.3754  1.3446  0.6601
  428MOL0     H56483   1.381   9.223   1.317 -1.3690  0.6310 -1.2935
  428MOL0     H56484   1.824   9.219   1.487 -0.3212  0.3641 -0.9684
  428MOL0     H56485   2.068   9.237   1.418  2.4427  1.1420 -1.4480
  428MOL0     H56486   2.357   9.349   1.234 -2.3888  2.9410 -2.3682
  428MOL0     H56487   2.244   9.241   1.298  0.8611 -0.2155  0.0583
  428MOL0     H56488   2.241   9.385   1.513 -1.0586 -1.4009 -2.0653
  428MOL0     H56489   2.378   9.292   1.468  0.4548 -0.5860 -1.3764
  428MOL0     H56490   2.358   9.587   1.369  2.3964  1.1452 -1.0434
  428MOL0     H56491   2.509   9.499   1.398  0.1811  1.4461 -0.5794
  428MOL0     H56492   2.322   9.615   1.603 -1.4765  0.2938 -3.5574
  428MOL0     H56493   2.472   9.517   1.644 -0.4298  1.7925  2.4364
  428MOL0     H56494   2.611   9.895   1.544  0.6550 -0.3229 -1.4893
  428MOL0     H56495   1.988   9.549   1.160  3.6331 -2.6434 -0.3637
  428MOL0     H56496   1.738   9.553   1.238  0.0049 -0.1000  0.4170
  429MOL0     O56497   0.326   2.212   5.092  0.8461  0.0558  0.3821
  429MOL0     C56498   0.280   2.146   5.003  0.3400  0.3804  0.8379
  429MOL0     O56499   0.167   2.170   4.930 -0.0058  0.1145 -0.9294
  429MOL0     C56500   0.075   2.261   4.961 -0.1606  0.0047 -0.9294
  429MOL0     C56501   0.080   2.358   5.059 -0.5845 -0.0588 -0.4639
  429MOL0     C56502  -0.035   2.434   5.082  0.0562  0.2409  0.3162
  429MOL0     C56503  -0.152   2.422   5.004 -0.6012  0.6115  0.2667
  429MOL0     O56504  -0.266   2.496   5.029  0.0958  0.2072  0.6400
  429MOL0     C56505  -0.276   2.567   5.156  0.4639  0.2647  0.6904
  429MOL0     C56506  -0.414   2.625   5.175 -0.5179 -0.3475  0.4201
  429MOL0     C56507  -0.516   2.529   5.226 -0.6016 -0.2000 -0.6448
  429MOL0     C56508  -0.654   2.595   5.242  0.0885  0.4988 -0.3301
  429MOL0     C56509  -0.767   2.497   5.238  0.4002 -0.4207 -0.5616
  429MOL0     C56510  -0.897   2.574   5.274  0.9086  0.1897 -0.6424
  429MOL0     C56511  -0.997   2.465   5.313 -0.3774  0.5336 -0.5832
  429MOL0     C56512  -1.108   2.526   5.397  1.1663 -0.4395 -0.4197
  429MOL0     N56513  -1.206   2.429   5.433 -0.3389  0.3748  0.2727
  429MOL0     C56514  -1.294   2.372   5.352  0.1732 -0.7642  0.3403
  429MOL0     C56515  -1.364   2.282   5.424 -0.4923 -0.1088  0.1115
  429MOL0     C56516  -1.454   2.166   5.395 -0.4254 -0.0422 -1.0495
  429MOL0     C56517  -1.601   2.175   5.440 -0.3392 -0.1827 -0.4597
  429MOL0     C56518  -1.610   2.202   5.588  0.6356 -0.3947  0.4700
  429MOL0     C56519  -1.742   2.168   5.650  0.1053 -0.4492  0.6279
  429MOL0     O56520  -1.858   2.233   5.600 -0.0298 -0.0669 -0.1817
  429MOL0     C56521  -1.944   2.282   5.700 -0.7866  0.2157  0.0975
  429MOL0     C56522  -1.911   2.388   5.784 -0.5549 -0.8170  0.0196
  429MOL0     C56523  -2.004   2.448   5.871  0.2452 -0.1449 -0.4332
  429MOL0     C56524  -2.134   2.401   5.873 -0.2013 -0.5141  0.6291
  429MOL0     C56525  -2.242   2.459   5.958  1.1139 -0.8418  0.5068
  429MOL0     O56526  -2.368   2.433   5.915 -0.7812  0.1997 -0.3510
  429MOL0     C56527  -2.478   2.502   5.953  0.0830 -0.1633  0.2849
  429MOL0     C56528  -2.479   2.622   6.020 -0.8582  0.3379 -1.0456
  429MOL0     C56529  -2.604   2.684   6.054 -1.0193  0.2926 -0.3940
  429MOL0     C56530  -2.719   2.616   6.029  0.0073  0.5150  0.9767
  429MOL0     O56531  -2.838   2.685   6.052  1.1717 -0.1103  0.3002
  429MOL0     C56532  -2.969   2.621   6.040  0.2640  0.7742 -0.2285
  429MOL0     C56533  -3.069   2.685   6.133  0.4581 -0.2641 -0.2652
  429MOL0     C56534  -3.211   2.636   6.085 -0.3790 -0.3137 -0.5595
  429MOL0     C56535  -3.316   2.730   6.145 -0.4272  0.3061 -0.1885
  429MOL0     C56536  -3.448   2.657   6.163 -0.9650  0.1999  0.0257
  429MOL0     C56537  -3.570   2.744   6.171  0.5964  0.6209  0.4490
  429MOL0     C56538  -3.621   2.794   6.030 -0.9307 -0.2814 -0.0911
  429MOL0     C56539  -3.775   2.839   6.037  0.1817 -0.1313 -0.9447
  429MOL0    Cl56540  -3.793   2.963   6.166 -0.0029 -0.2628 -0.1993
  429MOL0     C56541  -2.713   2.500   5.954  0.5125 -0.1935 -0.0388
  429MOL0     C56542  -2.599   2.440   5.917  0.4169 -0.9312  0.2343
  429MOL0     O56543  -2.207   2.528   6.056 -0.4490  0.0506  0.0817
  429MOL0     C56544  -2.166   2.288   5.790  0.5024  0.1291 -0.1287
  429MOL0     C56545  -2.069   2.229   5.711 -0.4000  0.0943  0.9521
  429MOL0     N56546  -1.317   2.293   5.557  0.0817 -0.3548  0.1201
  429MOL0     N56547  -1.214   2.371   5.555 -0.4875  0.0933  0.0063
  429MOL0     C56548  -0.153   2.327   4.899  0.1797 -0.2773 -0.3341
  429MOL0     C56549  -0.043   2.241   4.876 -0.1835 -0.1597 -0.1935
  429MOL0     C56550   0.369   2.048   4.941 -0.0965 -0.8827 -0.8016
  429MOL0     C56551   0.464   1.977   5.017 -0.3400 -0.1791 -0.3998
  429MOL0     C56552   0.540   1.877   4.963  1.5692 -0.0542 -0.2831
  429MOL0     C56553   0.521   1.842   4.829 -0.2379  0.0951  0.5716
  429MOL0     O56554   0.595   1.726   4.786  1.4927 -0.1356  0.3421
  429MOL0     C56555   0.711   1.751   4.708 -0.0175 -0.7388  0.5432
  429MOL0     C56556   0.825   1.730   4.792 -1.1901  0.2407 -0.1272
  429MOL0     C56557   0.948   1.768   4.708 -0.7347  0.5253  0.4235
  429MOL0     C56558   1.077   1.767   4.787 -0.0539 -0.6437 -1.0326
  429MOL0     C56559   1.193   1.732   4.704  0.7299 -0.2423 -0.2578
  429MOL0     C56560   1.302   1.707   4.650  0.7167 -0.7246 -0.1082
  429MOL0     C56561   0.439   1.914   4.748 -0.4338  0.7497  0.2097
  429MOL0     C56562   0.359   2.018   4.804  0.2263 -0.2282 -0.4287
  429MOL0     H56563   0.167   2.372   5.123 -0.8988 -3.5187  0.9064
  429MOL0     H56564  -0.026   2.506   5.163  1.5539 -0.8100  1.1347
  429MOL0     H56565  -0.216   2.658   5.163 -2.3659  2.2944  0.1182
  429MOL0     H56566  -0.263   2.494   5.236 -0.0314 -1.9700 -1.1411
  429MOL0     H56567  -0.456   2.670   5.085  0.3611  2.3147  1.2343
  429MOL0     H56568  -0.405   2.701   5.254  5.8794 -1.4996  1.3385
  429MOL0     H56569  -0.485   2.479   5.318 -0.7532 -2.2639 -1.6453
  429MOL0     H56570  -0.515   2.451   5.149  2.4276 -0.5061 -0.4233
  429MOL0     H56571  -0.650   2.640   5.342  0.2447 -0.0754 -0.0693
  429MOL0     H56572  -0.675   2.670   5.165 -1.9509  2.0844  1.6174
  429MOL0     H56573  -0.747   2.421   5.314  1.0296 -1.2321 -1.5131
  429MOL0     H56574  -0.780   2.456   5.138 -2.4355  2.4652 -1.5759
  429MOL0     H56575  -0.915   2.646   5.193  0.3113  4.2173  2.6906
  429MOL0     H56576  -0.881   2.641   5.359 -0.6974  0.0527 -0.1878
  429MOL0     H56577  -1.029   2.415   5.221  0.2122 -0.5509 -0.2175
  429MOL0     H56578  -0.949   2.385   5.370 -1.2127  1.1650  1.0505
  429MOL0     H56579  -1.167   2.593   5.333 -2.6763 -3.0090  0.1105
  429MOL0     H56580  -1.072   2.580   5.485 -1.3500  0.4934  0.1153
  429MOL0     H56581  -1.305   2.393   5.246 -0.9003 -2.7727 -0.0037
  429MOL0     H56582  -1.407   2.074   5.431  1.4859  2.0032  2.1018
  429MOL0     H56583  -1.454   2.160   5.285 -0.0834 -1.9349 -0.9792
  429MOL0     H56584  -1.659   2.083   5.423 -0.3799 -0.1170 -0.6817
  429MOL0     H56585  -1.656   2.249   5.382  1.6984  1.0363 -0.9359
  429MOL0     H56586  -1.544   2.140   5.650 -3.2319 -0.4443  5.1846
  429MOL0     H56587  -1.598   2.310   5.602 -2.5725 -0.1611  2.6599
  429MOL0     H56588  -1.723   2.184   5.757 -0.4430  1.2793  0.4978
  429MOL0     H56589  -1.764   2.061   5.648  1.8694 -0.8455 -0.2168
  429MOL0     H56590  -1.811   2.427   5.776 -1.4841  1.3978 -1.9393
  429MOL0     H56591  -1.974   2.532   5.933 -1.2817 -1.0046  1.5967
  429MOL0     H56592  -2.393   2.685   6.042 -1.3141  0.6229 -0.0096
  429MOL0     H56593  -2.602   2.781   6.104 -0.0349 -0.5018  1.1766
  429MOL0     H56594  -2.967   2.514   6.059  0.3742  1.2199  2.7409
  429MOL0     H56595  -2.996   2.639   5.935  1.6724  2.7094 -0.3111
  429MOL0     H56596  -3.062   2.794   6.133 -0.3220 -0.2058  0.3817
  429MOL0     H56597  -3.046   2.660   6.237  2.0778  0.2270 -0.4842
  429MOL0     H56598  -3.215   2.532   6.121  3.1715 -1.4288 -2.7954
  429MOL0     H56599  -3.232   2.621   5.979 -2.3085 -0.6568 -0.1702
  429MOL0     H56600  -3.283   2.765   6.244  1.5155 -1.8822  0.0196
  429MOL0     H56601  -3.320   2.810   6.071  4.3338 -0.0402 -1.1711
  429MOL0     H56602  -3.439   2.590   6.249  0.3654 -2.4578 -2.0288
  429MOL0     H56603  -3.447   2.591   6.076  0.2865 -2.3487  1.8450
  429MOL0     H56604  -3.567   2.830   6.238 -1.4017  1.0448  0.0495
  429MOL0     H56605  -3.647   2.681   6.215  0.4903 -0.2425 -0.9137
  429MOL0     H56606  -3.558   2.878   5.999 -0.1448 -1.3544 -1.5383
  429MOL0     H56607  -3.618   2.715   5.954  1.4531 -0.5120  0.1771
  429MOL0     H56608  -3.828   2.743   6.040  0.7995 -0.4800 -1.0864
  429MOL0     H56609  -3.809   2.890   5.946  2.9643  0.2490 -1.8436
  429MOL0     H56610  -2.807   2.460   5.918 -0.6930  1.1789  1.4269
  429MOL0     H56611  -2.611   2.348   5.861 -0.9326 -0.0074 -1.1047
  429MOL0     H56612  -2.267   2.249   5.792  0.2384  0.5330 -2.4426
  429MOL0     H56613  -2.091   2.137   5.658  0.6745 -0.0952  0.8153
  429MOL0     H56614  -0.233   2.319   4.826 -0.1313 -0.6909  0.0554
  429MOL0     H56615  -0.057   2.170   4.795 -2.6141 -0.9183  0.7956
  429MOL0     H56616   0.469   2.003   5.122 -1.8390 -1.3083 -0.0071
  429MOL0     H56617   0.611   1.824   5.027  0.8591 -0.8046 -0.1014
  429MOL0     H56618   0.716   1.858   4.685 -2.1411  0.0261  3.1872
  429MOL0     H56619   0.730   1.681   4.626  4.9249 -0.1435  0.8603
  429MOL0     H56620   0.815   1.809   4.866 -0.4644  1.2958 -1.1272
  429MOL0     H56621   0.836   1.631   4.837  0.5141  0.8196  0.8000
  429MOL0     H56622   0.942   1.869   4.667 -0.4196  0.2694 -0.2757
  429MOL0     H56623   0.952   1.706   4.618 -1.8683 -1.0913  1.4081
  429MOL0     H56624   1.086   1.870   4.823  0.2692 -1.8633  2.9201
  429MOL0     H56625   1.062   1.698   4.871 -2.0499  0.2713 -0.5640
  429MOL0     H56626   1.389   1.663   4.605  0.3572 -1.2446 -0.2971
  429MOL0     H56627   0.430   1.887   4.643  3.5245 -1.1019  0.1713
  429MOL0     H56628   0.297   2.082   4.742  2.1412 -0.5199 -2.8173
  430MOL0     O56629   4.220   1.169   6.745  0.9866 -0.0301  0.4177
  430MOL0     C56630   4.324   1.186   6.684 -0.2526 -0.4342  0.4471
  430MOL0     O56631   4.380   1.309   6.670  0.2207 -0.2791 -0.4654
  430MOL0     C56632   4.315   1.421   6.703 -1.1252 -0.2062 -0.2704
  430MOL0     C56633   4.248   1.502   6.606  0.1514  0.6658  0.5038
  430MOL0     C56634   4.173   1.612   6.638 -0.0645  0.6653 -0.5963
  430MOL0     C56635   4.166   1.646   6.779 -0.3282 -0.3268  0.3208
  430MOL0     O56636   4.102   1.756   6.831 -0.2885  0.0546 -0.2252
  430MOL0     C56637   4.152   1.885   6.786 -0.1879  0.1866 -0.1576
  430MOL0     C56638   4.171   1.982   6.900  0.4595 -0.6134 -0.2253
  430MOL0     C56639   4.047   2.033   6.971 -0.2689 -0.7029  0.4371
  430MOL0     C56640   3.943   2.112   6.886 -0.5624  0.0990 -0.2272
  430MOL0     C56641   3.838   2.151   6.987 -0.4249  0.5376  0.0476
  430MOL0     C56642   3.704   2.209   6.930  0.3115  0.5790 -0.2850
  430MOL0     C56643   3.600   2.223   7.041  0.7949  0.1069  0.3383
  430MOL0     C56644   3.510   2.344   7.023  0.2830 -0.0609 -0.6640
  430MOL0     N56645   3.401   2.353   7.122  0.0980  0.4900 -0.3934
  430MOL0     C56646   3.297   2.265   7.145 -0.3550 -0.0753  0.6544
  430MOL0     C56647   3.218   2.331   7.234  0.0376  0.3903 -1.0424
  430MOL0     C56648   3.092   2.277   7.292 -0.7833  0.4616  0.5115
  430MOL0     C56649   2.978   2.278   7.196 -0.5302  0.0362  0.4864
  430MOL0     C56650   2.854   2.324   7.268  0.6229  0.2314  0.0199
  430MOL0     C56651   2.792   2.222   7.368  0.2915  0.2033  0.1026
  430MOL0     O56652   2.692   2.277   7.455  0.3112 -0.2135 -0.2818
  430MOL0     C56653   2.557   2.277   7.416 -0.3382  0.2389 -0.4126
  430MOL0     C56654   2.476   2.314   7.519 -0.2024  0.7729  0.0191
  430MOL0     C56655   2.339   2.285   7.503  0.1243  0.5008  0.2219
  430MOL0     C56656   2.290   2.216   7.383 -0.3957  0.0724 -0.0291
  430MOL0     C56657   2.143   2.181   7.358 -0.2940 -0.3731 -0.4716
  430MOL0     O56658   2.055   2.188   7.460  0.5261  0.3027 -0.7885
  430MOL0     C56659   1.932   2.129   7.448  0.2632  0.2170 -0.6709
  430MOL0     C56660   1.835   2.158   7.347  0.7378  0.4313  0.7089
  430MOL0     C56661   1.705   2.117   7.367  0.0257  0.0467 -0.5669
  430MOL0     C56662   1.668   2.030   7.467  0.3686  0.1845  0.6338
  430MOL0     O56663   1.541   1.978   7.460  0.5489 -0.2949 -0.5513
  430MOL0     C56664   1.513   1.866   7.534 -0.9586  0.7575 -0.4521
  430MOL0     C56665   1.364   1.830   7.525  0.1678 -0.8690 -0.3127
  430MOL0     C56666   1.320   1.684   7.554 -0.1645 -0.0864  0.3234
  430MOL0     C56667   1.384   1.577   7.474  0.2370 -0.1032 -0.3488
  430MOL0     C56668   1.307   1.564   7.339 -0.8194  0.2221 -0.4518
  430MOL0     C56669   1.394   1.510   7.220  0.1113 -0.3977 -0.7778
  430MOL0     C56670   1.438   1.362   7.240  0.2019  0.6827  0.5068
  430MOL0     C56671   1.323   1.265   7.237  0.6269  0.2867  0.2449
  430MOL0    Cl56672   1.226   1.281   7.088 -0.9449  0.2018  0.0381
  430MOL0     C56673   1.775   1.989   7.555 -0.3250 -0.6210  0.0116
  430MOL0     C56674   1.904   2.051   7.554 -0.0167  0.0146  0.4997
  430MOL0     O56675   2.115   2.151   7.243 -0.0072 -0.4791  0.2311
  430MOL0     C56676   2.376   2.206   7.272 -0.0086  0.0758 -1.2527
  430MOL0     C56677   2.517   2.227   7.287  0.8560  0.3467 -0.5607
  430MOL0     N56678   3.282   2.445   7.287 -0.5539  0.7252  0.1921
  430MOL0     N56679   3.386   2.458   7.207 -0.4615  0.2516 -0.6798
  430MOL0     C56680   4.229   1.562   6.872  0.3692  0.3233 -0.4612
  430MOL0     C56681   4.308   1.452   6.839  1.1029 -0.8455 -0.0838
  430MOL0     C56682   4.406   1.060   6.654 -0.7699 -0.3039  0.0939
  430MOL0     C56683   4.358   0.931   6.694 -0.1967 -0.1656  0.1222
  430MOL0     C56684   4.420   0.811   6.651 -0.7283 -0.3647  0.3725
  430MOL0     C56685   4.533   0.826   6.568  0.3623 -0.0169  0.3768
  430MOL0     O56686   4.609   0.727   6.520  0.2929  0.5387 -1.0537
  430MOL0     C56687   4.572   0.586   6.554 -0.5271 -0.6741 -0.3397
  430MOL0     C56688   4.687   0.492   6.512  0.3733 -0.5127 -0.0892
  430MOL0     C56689   4.795   0.515   6.620  0.1029 -1.0112 -0.0935
  430MOL0     C56690   4.912   0.417   6.609 -0.3805  0.9015  0.2177
  430MOL0     C56691   4.861   0.287   6.645  0.8339  1.1256  0.6151
  430MOL0     C56692   4.828   0.181   6.692 -0.1903 -0.4091 -0.1953
  430MOL0     C56693   4.580   0.954   6.536  0.2057  0.6506 -0.5197
  430MOL0     C56694   4.514   1.062   6.565  0.1482 -0.2391 -0.4093
  430MOL0     H56695   4.246   1.466   6.503  2.4117 -2.3245  1.3704
  430MOL0     H56696   4.125   1.669   6.559  0.3792  0.3169 -1.1249
  430MOL0     H56697   4.083   1.937   6.719  2.9093  1.4899 -2.6683
  430MOL0     H56698   4.245   1.874   6.728 -0.8063 -2.4722 -0.7825
  430MOL0     H56699   4.236   2.063   6.866  1.8003 -1.6925 -0.3311
  430MOL0     H56700   4.219   1.926   6.982 -2.8986 -2.3601  0.7125
  430MOL0     H56701   4.084   2.083   7.061 -0.7422 -1.3683  1.0145
  430MOL0     H56702   3.994   1.944   7.009 -3.8369  1.7122  1.6502
  430MOL0     H56703   3.990   2.201   6.842  0.5725 -0.8711 -1.0097
  430MOL0     H56704   3.891   2.048   6.814  0.2836 -2.1916  1.0954
  430MOL0     H56705   3.889   2.227   7.047  1.9506  1.2849 -2.6722
  430MOL0     H56706   3.804   2.061   7.039 -0.4540  1.0696  0.9806
  430MOL0     H56707   3.650   2.140   6.863  0.7335  0.1565 -0.1973
  430MOL0     H56708   3.727   2.298   6.871  1.8436 -1.3389 -2.7989
  430MOL0     H56709   3.545   2.128   7.048  2.6438 -0.8956  2.2194
  430MOL0     H56710   3.665   2.244   7.127  2.2355  2.1765 -1.1564
  430MOL0     H56711   3.486   2.359   6.918  1.4978 -1.6930 -1.2046
  430MOL0     H56712   3.572   2.430   7.050 -1.0196  0.5557  0.5056
  430MOL0     H56713   3.282   2.160   7.124  0.7952 -0.6810  2.6089
  430MOL0     H56714   3.074   2.314   7.393  0.4603  1.0096  0.5509
  430MOL0     H56715   3.119   2.173   7.314  2.7692  1.5568  2.0559
  430MOL0     H56716   2.965   2.182   7.145 -0.7524  0.2243  0.1928
  430MOL0     H56717   2.997   2.347   7.114 -0.0786 -0.8805 -0.2039
  430MOL0     H56718   2.869   2.419   7.321 -1.2629  1.0717 -0.8599
  430MOL0     H56719   2.774   2.335   7.194 -0.4383 -0.4893  1.0225
  430MOL0     H56720   2.867   2.189   7.441 -3.1982 -3.0054  2.6269
  430MOL0     H56721   2.772   2.125   7.321 -0.0519 -1.0997  2.7146
  430MOL0     H56722   2.524   2.350   7.610 -0.2690 -0.5441  0.6023
  430MOL0     H56723   2.269   2.309   7.582  0.6974  2.1203  0.2809
  430MOL0     H56724   1.852   2.227   7.265 -1.7913  3.3367  2.3937
  430MOL0     H56725   1.625   2.149   7.301 -1.4218  0.2907  1.2190
  430MOL0     H56726   1.535   1.871   7.642  0.4389  0.2425 -0.6917
  430MOL0     H56727   1.576   1.783   7.501  1.0365  1.3627  1.5441
  430MOL0     H56728   1.321   1.866   7.431 -0.8603  1.4890  0.9471
  430MOL0     H56729   1.316   1.889   7.604  5.1792  1.6653  1.2860
  430MOL0     H56730   1.212   1.674   7.560 -0.3231  2.1950  3.9444
  430MOL0     H56731   1.351   1.664   7.657 -1.5682 -3.2182  0.2256
  430MOL0     H56732   1.485   1.613   7.450 -0.3516 -0.3065 -3.5563
  430MOL0     H56733   1.385   1.483   7.530 -0.2713  0.7142  1.1126
  430MOL0     H56734   1.286   1.668   7.312 -0.0678  0.5037  0.0211
  430MOL0     H56735   1.214   1.506   7.341 -0.8063  0.1299 -1.7680
  430MOL0     H56736   1.480   1.576   7.207 -1.3406  1.8529  0.3148
  430MOL0     H56737   1.336   1.528   7.129  3.0963  1.3593 -2.5005
  430MOL0     H56738   1.500   1.328   7.156  0.5888 -0.5007  1.2426
  430MOL0     H56739   1.493   1.358   7.335 -1.7391 -1.3638  1.6392
  430MOL0     H56740   1.256   1.292   7.319  0.5431 -0.2229  0.3502
  430MOL0     H56741   1.364   1.164   7.251 -0.6743 -0.0311  2.0588
  430MOL0     H56742   1.753   1.913   7.630 -2.2038  0.0280  0.1935
  430MOL0     H56743   1.975   2.024   7.631 -0.3891  0.4034  0.9885
  430MOL0     H56744   2.339   2.151   7.186 -0.0397 -0.5285 -0.8607
  430MOL0     H56745   2.582   2.208   7.202 -1.7711 -1.8610 -2.2468
  430MOL0     H56746   4.218   1.587   6.977 -2.6598 -0.0060 -0.6029
  430MOL0     H56747   4.355   1.383   6.908  0.2337  3.0728  5.0626
  430MOL0     H56748   4.274   0.927   6.762  0.5082  1.5297  1.1511
  430MOL0     H56749   4.372   0.715   6.663 -1.1322 -0.5114 -1.8497
  430MOL0     H56750   4.479   0.558   6.504  0.4383 -2.4018 -1.2910
  430MOL0     H56751   4.568   0.580   6.663  0.3198 -1.4710 -0.3404
  430MOL0     H56752   4.664   0.385   6.504  1.2045 -0.5429 -2.7340
  430MOL0     H56753   4.716   0.523   6.411 -0.9172  0.1842 -0.2777
  430MOL0     H56754   4.761   0.509   6.724  0.8885 -3.9393  0.0784
  430MOL0     H56755   4.831   0.617   6.612 -4.0250  0.8561  1.7911
  430MOL0     H56756   4.954   0.414   6.508 -1.8817  0.0474 -0.4080
  430MOL0     H56757   4.991   0.448   6.678 -1.1270 -2.4368  2.8776
  430MOL0     H56758   4.800   0.079   6.713 -1.4831 -0.5977 -2.5231
  430MOL0     H56759   4.667   0.968   6.474 -1.4061  0.2363 -3.0023
  430MOL0     H56760   4.567   1.150   6.532 -0.1707 -0.7671 -2.4968
  431MOL0     O56761   6.207   7.066   6.848 -0.4886 -0.4519  1.0285
  431MOL0     C56762   6.314   7.007   6.854  0.3689 -0.2968  0.7484
  431MOL0     O56763   6.328   6.868   6.850 -0.5601 -0.5710  0.4254
  431MOL0     C56764   6.220   6.787   6.834  0.3646 -0.5815  0.7868
  431MOL0     C56765   6.098   6.806   6.890  0.2942  0.2610 -0.6941
  431MOL0     C56766   6.003   6.714   6.876  0.5305 -0.2873 -0.8352
  431MOL0     C56767   6.015   6.596   6.803 -0.6035  0.1126 -0.1177
  431MOL0     O56768   5.911   6.513   6.805  0.1613 -0.3345  0.0210
  431MOL0     C56769   5.882   6.439   6.689 -0.4570  0.2103  0.2908
  431MOL0     C56770   5.746   6.372   6.709  0.3536 -0.4299 -0.2373
  431MOL0     C56771   5.640   6.476   6.739  1.2496 -0.3299 -0.4826
  431MOL0     C56772   5.500   6.413   6.704 -0.6954  0.0617  0.0891
  431MOL0     C56773   5.455   6.297   6.802  0.1856 -0.6389  1.2674
  431MOL0     C56774   5.317   6.258   6.803 -0.0121 -0.4186  0.1222
  431MOL0     C56775   5.302   6.136   6.898 -0.6050 -1.0132  0.0107
  431MOL0     C56776   5.166   6.118   6.971  0.9625  0.3739  0.4005
  431MOL0     N56777   5.132   6.236   7.058  0.6685  1.1674 -0.3561
  431MOL0     C56778   5.206   6.255   7.168 -0.5895  0.8222 -0.2008
  431MOL0     C56779   5.152   6.362   7.224  0.6508  0.5120 -0.0834
  431MOL0     C56780   5.188   6.414   7.365  0.0506  0.0718  0.0607
  431MOL0     C56781   5.066   6.456   7.455 -0.6333 -0.2616 -1.0171
  431MOL0     C56782   4.994   6.324   7.501  0.0203  0.2553  0.4772
  431MOL0     C56783   4.877   6.362   7.595  0.0058 -0.0204 -0.0657
  431MOL0     O56784   4.745   6.358   7.528  0.1473  0.2080  0.4499
  431MOL0     C56785   4.633   6.360   7.602 -0.2119 -0.0615  0.7663
  431MOL0     C56786   4.515   6.391   7.542  0.4082  0.5910  0.2594
  431MOL0     C56787   4.390   6.398   7.604 -0.0697  0.5376 -0.0060
  431MOL0     C56788   4.382   6.360   7.742  0.1009  0.2921 -0.3500
  431MOL0     C56789   4.243   6.381   7.806 -0.2516  0.4050  0.0475
  431MOL0     O56790   4.152   6.465   7.741  0.4086 -0.2288  0.1716
  431MOL0     C56791   4.027   6.490   7.794  0.2428  0.8964 -0.5314
  431MOL0     C56792   3.948   6.379   7.840 -0.9805 -0.3061  0.0854
  431MOL0     C56793   3.818   6.404   7.885 -0.1544 -0.4874 -0.5872
  431MOL0     C56794   3.764   6.529   7.875 -0.1494  0.1112  0.7217
  431MOL0     O56795   3.633   6.546   7.916 -0.6744  0.4935  0.2796
  431MOL0     C56796   3.538   6.600   7.823 -0.9614 -0.5453 -0.1462
  431MOL0     C56797   3.397   6.565   7.881  0.0333 -0.3112 -0.1873
  431MOL0     C56798   3.389   6.633   8.015  0.1616  0.0985  0.3150
  431MOL0     C56799   3.246   6.604   8.077 -0.4761 -0.6384  0.6592
  431MOL0     C56800   3.253   6.570   8.233  0.4587 -0.0836 -0.4000
  431MOL0     C56801   3.347   6.448   8.276 -0.2807 -0.5281  0.1669
  431MOL0     C56802   3.364   6.434   8.427 -0.1367 -0.2667  0.0607
  431MOL0     C56803   3.234   6.400   8.492  0.5291  0.0959 -0.1628
  431MOL0    Cl56804   3.153   6.264   8.427  0.6840 -0.7587  0.0982
  431MOL0     C56805   3.835   6.632   7.820 -0.0467 -0.1882 -0.0267
  431MOL0     C56806   3.961   6.612   7.783  0.0991 -0.3517  1.2486
  431MOL0     O56807   4.216   6.318   7.908 -0.0382  0.4087  0.0631
  431MOL0     C56808   4.499   6.331   7.808 -0.0875  0.0754 -0.1283
  431MOL0     C56809   4.627   6.335   7.743 -0.3901  0.0252 -0.6970
  431MOL0     N56810   5.058   6.411   7.137 -0.3293  0.0535  0.2159
  431MOL0     N56811   5.048   6.337   7.032  0.3092 -0.2245  0.6760
  431MOL0     C56812   6.150   6.576   6.750  0.2568  0.0104 -0.1292
  431MOL0     C56813   6.245   6.669   6.773 -0.6173  0.3957  0.9156
  431MOL0     C56814   6.434   7.087   6.880  0.1455  0.4737  0.2350
  431MOL0     C56815   6.556   7.031   6.909  0.5304 -0.4281  0.5698
  431MOL0     C56816   6.671   7.107   6.912 -0.1814 -0.1088 -0.8627
  431MOL0     C56817   6.668   7.251   6.901 -1.1868  0.1773 -0.1063
  431MOL0     O56818   6.783   7.319   6.919 -0.0163  0.0453 -0.3978
  431MOL0     C56819   6.908   7.264   6.978  0.0117 -0.9483  0.2347
  431MOL0     C56820   7.004   7.391   6.983  0.7430 -0.4734 -0.2034
  431MOL0     C56821   7.149   7.352   6.979  0.3356  0.5890  0.0373
  431MOL0     C56822   7.243   7.461   6.933  0.0867 -0.6806  0.3487
  431MOL0     C56823   7.382   7.436   6.972  0.3015  0.4783  0.8749
  431MOL0     C56824   7.497   7.394   6.980  0.6857 -0.6125 -0.3887
  431MOL0     C56825   6.542   7.316   6.879 -0.3170  0.6410 -0.5305
  431MOL0     C56826   6.430   7.231   6.872  0.2271 -0.2972 -0.4261
  431MOL0     H56827   6.063   6.891   6.948 -2.5795 -2.1336  1.4139
  431MOL0     H56828   5.905   6.724   6.922  2.1928 -1.0852  3.2878
  431MOL0     H56829   5.950   6.354   6.676 -0.1400  0.2924  1.3145
  431MOL0     H56830   5.892   6.505   6.603  0.2396 -0.3250 -0.0481
  431MOL0     H56831   5.746   6.317   6.804  0.1169  1.7627  1.1110
  431MOL0     H56832   5.733   6.303   6.625 -0.1933  2.2342 -2.4686
  431MOL0     H56833   5.642   6.559   6.667 -2.0934  0.3858  0.1068
  431MOL0     H56834   5.638   6.512   6.842  1.0480 -4.3091  1.0563
  431MOL0     H56835   5.427   6.492   6.719  0.0069  0.3740  2.0628
  431MOL0     H56836   5.500   6.373   6.602  0.9930 -2.8373  1.1138
  431MOL0     H56837   5.473   6.337   6.903 -1.2409 -3.0176  2.5330
  431MOL0     H56838   5.524   6.214   6.784  0.2446  0.3051 -4.5910
  431MOL0     H56839   5.290   6.227   6.701  2.9439 -0.8271 -0.6205
  431MOL0     H56840   5.255   6.343   6.830 -1.4934 -1.4342  0.0601
  431MOL0     H56841   5.317   6.056   6.825  1.3411  1.0633 -2.0332
  431MOL0     H56842   5.386   6.130   6.968 -0.9978 -2.3678  0.3984
  431MOL0     H56843   5.173   6.032   7.039  2.8661  1.0209  1.1019
  431MOL0     H56844   5.085   6.096   6.901 -1.2968  3.0220  2.0159
  431MOL0     H56845   5.281   6.186   7.207 -1.3283 -0.9170 -1.7062
  431MOL0     H56846   5.251   6.502   7.357  1.6828 -0.9271  1.2984
  431MOL0     H56847   5.247   6.342   7.423  1.2378  1.6042  0.8461
  431MOL0     H56848   4.996   6.527   7.411  0.9862  2.1793  0.1648
  431MOL0     H56849   5.108   6.515   7.537  0.6034 -2.7342  0.2403
  431MOL0     H56850   4.960   6.263   7.417 -1.4512 -0.4609  1.5486
  431MOL0     H56851   5.065   6.251   7.541  0.3596  0.1284 -0.3262
  431MOL0     H56852   4.885   6.464   7.634 -0.2072  0.1853 -0.5530
  431MOL0     H56853   4.889   6.284   7.671  0.3924 -1.8189 -1.8870
  431MOL0     H56854   4.524   6.414   7.436  0.9592 -1.2142 -0.1172
  431MOL0     H56855   4.306   6.422   7.540  0.4866  0.0197 -0.9539
  431MOL0     H56856   3.987   6.278   7.845  0.3220 -0.0553 -3.0022
  431MOL0     H56857   3.766   6.319   7.928  0.1305 -2.3498 -3.5904
  431MOL0     H56858   3.560   6.556   7.725 -0.4586 -0.0509 -0.2575
  431MOL0     H56859   3.552   6.708   7.822 -0.2021 -0.6314  0.4145
  431MOL0     H56860   3.377   6.458   7.894 -1.0394 -0.0292  0.6240
  431MOL0     H56861   3.329   6.613   7.809  0.1815 -0.0693 -0.1673
  431MOL0     H56862   3.401   6.741   8.001  1.2937 -0.3461 -3.3863
  431MOL0     H56863   3.468   6.596   8.081 -0.9185 -3.2936 -0.1351
  431MOL0     H56864   3.192   6.699   8.069 -2.4217 -1.7037  0.7105
  431MOL0     H56865   3.197   6.529   8.014  1.6673  0.2950 -2.3492
  431MOL0     H56866   3.155   6.561   8.281  1.2442  1.0040  1.5175
  431MOL0     H56867   3.302   6.660   8.272  1.5139 -0.8924  0.2125
  431MOL0     H56868   3.446   6.465   8.231  0.0654 -1.3123  0.6124
  431MOL0     H56869   3.314   6.349   8.242 -0.2015 -0.3776 -0.3596
  431MOL0     H56870   3.446   6.363   8.435  0.4036  0.3852  0.3714
  431MOL0     H56871   3.399   6.531   8.465 -0.2002  0.2958 -1.2614
  431MOL0     H56872   3.166   6.486   8.490  0.8971  0.3852 -0.1844
  431MOL0     H56873   3.256   6.386   8.599  0.9991  3.0513  0.1962
  431MOL0     H56874   3.787   6.729   7.819  1.5458  0.6457 -1.2704
  431MOL0     H56875   4.014   6.695   7.738 -1.0460  0.5310  1.4670
  431MOL0     H56876   4.493   6.293   7.909  0.9106 -0.4891 -0.2724
  431MOL0     H56877   4.712   6.295   7.798 -2.8508 -2.9885  1.2856
  431MOL0     H56878   6.176   6.484   6.699 -0.1664 -0.1379 -0.0816
  431MOL0     H56879   6.336   6.635   6.726 -1.3566  0.9277 -1.0094
  431MOL0     H56880   6.558   6.923   6.925  1.1754 -0.4087  0.6512
  431MOL0     H56881   6.766   7.059   6.934 -1.2281 -1.0849  2.0719
  431MOL0     H56882   6.941   7.194   6.900 -1.9886 -0.7198 -0.9045
  431MOL0     H56883   6.891   7.218   7.075  3.6604 -2.0416  0.5247
  431MOL0     H56884   6.976   7.454   6.898 -1.1408  0.6563  1.1752
  431MOL0     H56885   6.982   7.447   7.075 -1.1273 -0.0919 -0.8296
  431MOL0     H56886   7.155   7.273   6.902  3.3750  1.2476 -0.5269
  431MOL0     H56887   7.184   7.309   7.073 -0.7927 -0.1564  0.1401
  431MOL0     H56888   7.240   7.467   6.824  0.6603 -0.6177  0.3347
  431MOL0     H56889   7.213   7.560   6.970  3.8142  1.4867 -1.7787
  431MOL0     H56890   7.599   7.371   7.004  1.0204  1.3929  0.3307
  431MOL0     H56891   6.546   7.424   6.872 -0.4846  0.5957 -1.6852
  431MOL0     H56892   6.336   7.283   6.859  0.4820  1.1126  2.4620
  432MOL0     O56893   1.597   5.667  10.661  0.4828  0.6371  0.1149
  432MOL0     C56894   1.611   5.622  10.547  0.1328  0.5320 -0.5985
  432MOL0     O56895   1.516   5.566  10.464 -0.6210  0.1878 -0.1377
  432MOL0     C56896   1.382   5.550  10.499 -0.6732  0.6856  0.0113
  432MOL0     C56897   1.310   5.445  10.445 -0.8216 -0.8326  0.6132
  432MOL0     C56898   1.182   5.422  10.483  0.2587 -0.1609 -1.1740
  432MOL0     C56899   1.112   5.509  10.568 -0.7155 -0.4178  0.4383
  432MOL0     O56900   0.977   5.492  10.583 -0.2569  0.3168 -0.1388
  432MOL0     C56901   0.903   5.561  10.688 -0.4786 -0.1845 -0.6439
  432MOL0     C56902   0.818   5.452  10.754  0.2171  0.4358  0.8811
  432MOL0     C56903   0.771   5.469  10.899 -0.2363  0.9423 -0.1606
  432MOL0     C56904   0.672   5.360  10.947  0.0210 -0.3314 -0.1727
  432MOL0     C56905   0.526   5.380  10.889 -0.1334  0.5136 -0.0155
  432MOL0     C56906   0.410   5.343  10.981  0.7698 -0.8301  0.3863
  432MOL0     C56907   0.403   5.191  10.997 -0.8220  0.3768 -0.8929
  432MOL0     C56908   0.313   5.159  11.116 -0.4901  0.2838  1.0928
  432MOL0     N56909   0.176   5.218  11.121 -0.0211 -0.5858  1.0299
  432MOL0     C56910   0.064   5.186  11.047 -0.4812 -0.2787  0.2345
  432MOL0     C56911  -0.011   5.291  11.080 -0.0547 -0.7363  0.3209
  432MOL0     C56912  -0.151   5.316  11.017  0.2836  0.8614 -0.2620
  432MOL0     C56913  -0.256   5.242  11.109  0.2078  0.4284  0.4248
  432MOL0     C56914  -0.285   5.316  11.235 -0.4876 -0.3901 -0.9986
  432MOL0     C56915  -0.410   5.259  11.308 -0.0354  0.0853  0.3471
  432MOL0     O56916  -0.417   5.112  11.298 -0.7948  0.0051  0.0760
  432MOL0     C56917  -0.529   5.041  11.320  0.0033  0.0662 -0.3585
  432MOL0     C56918  -0.536   4.910  11.283  0.6990  0.0256 -0.7781
  432MOL0     C56919  -0.662   4.845  11.301 -1.3761  0.0483 -0.3865
  432MOL0     C56920  -0.772   4.902  11.362 -0.1349 -0.1947  0.7169
  432MOL0     C56921  -0.903   4.843  11.374 -0.1504  0.2027 -0.3495
  432MOL0     O56922  -0.998   4.908  11.453 -0.3918  1.0629  0.1341
  432MOL0     C56923  -1.123   4.842  11.466 -0.1983 -0.6253  0.0030
  432MOL0     C56924  -1.136   4.714  11.508  0.0795  0.2456  0.9199
  432MOL0     C56925  -1.260   4.662  11.543  0.6778  0.2343  0.4946
  432MOL0     C56926  -1.379   4.742  11.531 -0.8078 -0.0797 -0.0612
  432MOL0     O56927  -1.507   4.699  11.550  0.0999  0.2649  0.2107
  432MOL0     C56928  -1.516   4.553  11.576 -0.4324  1.1513 -0.1989
  432MOL0     C56929  -1.659   4.504  11.559  0.4885 -0.2662  0.5063
  432MOL0     C56930  -1.756   4.581  11.648  0.3297 -0.0789  0.3347
  432MOL0     C56931  -1.901   4.521  11.638  0.5027 -0.2063 -0.6029
  432MOL0     C56932  -1.984   4.619  11.731 -1.1606 -0.6306 -0.6484
  432MOL0     C56933  -2.133   4.605  11.715  0.9067 -0.9086 -0.0323
  432MOL0     C56934  -2.197   4.481  11.780  0.0165  0.3710  0.4570
  432MOL0     C56935  -2.340   4.469  11.749  0.3848 -0.1455  0.9209
  432MOL0    Cl56936  -2.388   4.312  11.814  0.1496 -0.4751 -0.0222
  432MOL0     C56937  -1.362   4.881  11.514 -0.1199  0.0764 -0.9255
  432MOL0     C56938  -1.233   4.926  11.482  0.4728  0.1405 -0.0861
  432MOL0     O56939  -0.920   4.741  11.304  0.0807  0.2715 -0.5375
  432MOL0     C56940  -0.759   5.032  11.413 -0.0332 -0.4493 -0.2217
  432MOL0     C56941  -0.637   5.102  11.386 -0.0730 -0.2345  0.5017
  432MOL0     N56942   0.042   5.370  11.182  0.6677 -0.1427 -0.1032
  432MOL0     N56943   0.160   5.332  11.199 -0.0180  1.2653  0.2238
  432MOL0     C56944   1.179   5.622  10.621  0.3154  0.6699  0.2765
  432MOL0     C56945   1.314   5.635  10.582 -0.2775 -0.5019  0.3534
  432MOL0     C56946   1.750   5.618  10.492  0.7977 -1.3009 -0.4682
  432MOL0     C56947   1.852   5.698  10.558 -1.0648  0.4541 -0.2846
  432MOL0     C56948   1.980   5.697  10.495 -0.2300 -0.5800  0.0334
  432MOL0     C56949   2.005   5.626  10.379  0.4421  0.0569 -0.7732
  432MOL0     O56950   2.135   5.627  10.338  0.0999  0.6414  0.2309
  432MOL0     C56951   2.177   5.569  10.214 -0.3133 -0.4354 -0.2043
  432MOL0     C56952   2.304   5.644  10.167  0.1282  0.5048 -0.5386
  432MOL0     C56953   2.302   5.633  10.012  0.5543 -0.5948 -0.3101
  432MOL0     C56954   2.409   5.705   9.942 -0.8172  0.2991  0.5261
  432MOL0     C56955   2.532   5.635   9.959  0.4768 -0.6383 -0.5090
  432MOL0     C56956   2.639   5.582   9.980  1.2161 -0.4376  0.9416
  432MOL0     C56957   1.897   5.562  10.315 -0.9087  0.4070  0.4816
  432MOL0     C56958   1.769   5.552  10.371 -0.5539 -0.1799 -0.1757
  432MOL0     H56959   1.350   5.381  10.366 -1.4578 -0.3284 -0.1224
  432MOL0     H56960   1.119   5.339  10.453 -2.3865  1.5080 -0.4828
  432MOL0     H56961   0.845   5.645  10.648 -4.3532 -3.1808 -1.9372
  432MOL0     H56962   0.962   5.612  10.765 -1.6760  1.1290 -0.5655
  432MOL0     H56963   0.873   5.357  10.747 -1.5230 -0.5099 -1.9400
  432MOL0     H56964   0.731   5.437  10.689  0.5964  2.0390 -0.0552
  432MOL0     H56965   0.718   5.564  10.909  0.7932  1.3722  1.3555
  432MOL0     H56966   0.851   5.463  10.973 -2.5751 -2.1948  2.3821
  432MOL0     H56967   0.712   5.260  10.926  2.2936  0.4372  0.1561
  432MOL0     H56968   0.664   5.370  11.056 -2.3939  2.3029 -0.4805
  432MOL0     H56969   0.504   5.319  10.800 -1.2520 -1.9689  1.8359
  432MOL0     H56970   0.523   5.484  10.855  3.2005  0.0672 -2.1041
  432MOL0     H56971   0.312   5.366  10.938  1.0572 -0.8310 -0.2853
  432MOL0     H56972   0.413   5.400  11.074 -1.4974 -0.9162  0.5777
  432MOL0     H56973   0.368   5.144  10.904  0.8270 -3.3843  0.1710
  432MOL0     H56974   0.503   5.147  11.002 -0.6415  0.7659 -1.0127
  432MOL0     H56975   0.360   5.178  11.213 -1.4874  1.0486  1.4416
  432MOL0     H56976   0.305   5.050  11.116  0.4688  0.0942 -2.4451
  432MOL0     H56977   0.042   5.118  10.965 -0.5984  1.3062 -1.1091
  432MOL0     H56978  -0.153   5.269  10.918 -0.8057  0.8437 -0.2419
  432MOL0     H56979  -0.164   5.424  11.021 -0.4206  0.7319  1.9747
  432MOL0     H56980  -0.220   5.139  11.110 -1.8704 -0.3272  1.0915
  432MOL0     H56981  -0.349   5.220  11.056 -0.1949 -0.5289  1.5046
  432MOL0     H56982  -0.197   5.308  11.300 -0.5795 -1.9091 -1.0173
  432MOL0     H56983  -0.297   5.422  11.212  1.0458  0.6469  2.3425
  432MOL0     H56984  -0.500   5.308  11.268  1.5517  4.3838  1.4871
  432MOL0     H56985  -0.400   5.299  11.409  0.0740 -0.8814  0.7244
  432MOL0     H56986  -0.460   4.853  11.231  0.0957 -1.7119  0.1595
  432MOL0     H56987  -0.668   4.744  11.261 -0.9725 -0.0511 -0.1958
  432MOL0     H56988  -1.055   4.641  11.515 -0.8009 -0.7983  0.5840
  432MOL0     H56989  -1.259   4.555  11.560  1.1980  0.0991 -0.2971
  432MOL0     H56990  -1.485   4.527  11.678 -1.7687  0.1068 -0.0270
  432MOL0     H56991  -1.459   4.496  11.502 -0.9184  0.3200  0.0430
  432MOL0     H56992  -1.654   4.397  11.583  3.3265  0.1044  2.0223
  432MOL0     H56993  -1.692   4.515  11.455  0.4706  3.3189  0.7795
  432MOL0     H56994  -1.767   4.681  11.604 -1.0640 -0.2647  0.2180
  432MOL0     H56995  -1.721   4.590  11.751 -2.9672  0.4411  1.5394
  432MOL0     H56996  -1.945   4.500  11.540 -2.5036 -1.6331  0.9149
  432MOL0     H56997  -1.887   4.424  11.686  2.1946 -0.5195 -1.6196
  432MOL0     H56998  -1.962   4.723  11.703 -0.2353 -0.8563 -0.7902
  432MOL0     H56999  -1.954   4.607  11.836 -1.1234  2.5947 -0.1901
  432MOL0     H57000  -2.158   4.596  11.608  1.2198 -2.7755  0.0212
  432MOL0     H57001  -2.170   4.698  11.758 -0.6453 -1.7282  0.4715
  432MOL0     H57002  -2.145   4.394  11.739 -1.0088  1.4916 -3.6970
  432MOL0     H57003  -2.188   4.491  11.889  0.4109 -2.8281  0.8165
  432MOL0     H57004  -2.358   4.481  11.642 -3.0448  2.7886  1.6575
  432MOL0     H57005  -2.400   4.551  11.790 -0.3436 -1.0735  1.7811
  432MOL0     H57006  -1.446   4.947  11.524 -1.7264 -2.0502  0.5408
  432MOL0     H57007  -1.212   5.032  11.476  2.2712 -0.1979 -0.2782
  432MOL0     H57008  -0.842   5.080  11.462  1.6243 -0.0544  2.4013
  432MOL0     H57009  -0.637   5.204  11.424  2.4196 -0.8458  2.3899
  432MOL0     H57010   1.132   5.703  10.676 -2.2333 -0.2462 -0.4130
  432MOL0     H57011   1.373   5.725  10.599  3.1191 -2.7628  1.4766
  432MOL0     H57012   1.832   5.764  10.642 -1.9737  0.6584 -0.6412
  432MOL0     H57013   2.062   5.743  10.550  0.3500 -0.7865 -0.6450
  432MOL0     H57014   2.088   5.564  10.151 -1.8822  0.6069  1.8053
  432MOL0     H57015   2.207   5.470  10.249  2.2803  0.8119  1.4371
  432MOL0     H57016   2.287   5.746  10.202  3.3274  1.1900 -0.7120
  432MOL0     H57017   2.388   5.602  10.223 -2.6413 -1.8003  2.2824
  432MOL0     H57018   2.202   5.669   9.983  0.4298 -0.5890  0.1233
  432MOL0     H57019   2.303   5.527   9.988  0.5510 -1.0974  1.7309
  432MOL0     H57020   2.371   5.684   9.842 -1.3392 -2.9037  1.2573
  432MOL0     H57021   2.427   5.810   9.967  2.6895 -0.2026  0.5905
  432MOL0     H57022   2.726   5.522   9.999  0.4679 -1.7630  0.3362
  432MOL0     H57023   1.897   5.507  10.221 -3.4451 -0.8545  1.1189
  432MOL0     H57024   1.695   5.490  10.321 -0.6470  0.1989 -0.5163
  433MOL0     O57025  10.338   5.177   3.548  0.5238  0.6234  0.2714
  433MOL0     C57026  10.423   5.187   3.637 -0.1206 -0.3238  0.3823
  433MOL0     O57027  10.395   5.207   3.770 -0.1333 -0.2839 -0.3825
  433MOL0     C57028  10.269   5.220   3.799  0.2279 -0.0981 -0.7174
  433MOL0     C57029  10.221   5.348   3.818 -0.1752 -0.1041  0.4105
  433MOL0     C57030  10.088   5.373   3.872 -0.7425 -0.1518  1.3274
  433MOL0     C57031   9.999   5.264   3.869 -0.1241  0.0764 -0.7237
  433MOL0     O57032   9.869   5.270   3.906 -0.0419  0.0274 -0.6513
  433MOL0     C57033   9.785   5.287   3.798  0.0669  0.2880  0.7005
  433MOL0     C57034   9.626   5.302   3.833 -0.5812  0.1405 -0.6803
  433MOL0     C57035   9.588   5.423   3.906 -0.3572 -0.7113 -0.2321
  433MOL0     C57036   9.461   5.427   3.988 -0.2704 -0.5858 -0.0226
  433MOL0     C57037   9.474   5.540   4.094 -0.3398 -0.3311  0.4197
  433MOL0     C57038   9.384   5.541   4.214 -0.0596  0.3952  0.2362
  433MOL0     C57039   9.248   5.468   4.192 -0.0725  0.6872 -0.7975
  433MOL0     C57040   9.134   5.554   4.244 -0.9253 -0.0256 -0.5520
  433MOL0     N57041   9.135   5.569   4.395 -0.0516 -0.1352  0.9258
  433MOL0     C57042   9.133   5.463   4.487 -0.5584 -0.2001 -0.1451
  433MOL0     C57043   9.110   5.523   4.603 -0.2574 -0.1761 -0.3620
  433MOL0     C57044   9.108   5.471   4.734 -0.1770  0.5904 -0.8631
  433MOL0     C57045   8.969   5.496   4.790 -0.7911 -0.2263  0.4781
  433MOL0     C57046   8.954   5.436   4.933 -0.2647  1.0824  0.3433
  433MOL0     C57047   8.820   5.486   4.993 -1.2662 -0.8354 -0.1591
  433MOL0     O57048   8.714   5.454   4.897 -0.1626 -0.6858 -0.5691
  433MOL0     C57049   8.583   5.461   4.953  0.1141  0.7623  0.0899
  433MOL0     C57050   8.542   5.520   5.070 -0.3166 -0.3001 -0.8288
  433MOL0     C57051   8.407   5.546   5.095 -0.1438 -1.0053 -0.1653
  433MOL0     C57052   8.309   5.503   5.005 -0.2974  0.4357  0.1861
  433MOL0     C57053   8.166   5.524   5.021  0.5184  0.0524  0.7650
  433MOL0     O57054   8.090   5.425   4.969  0.4693  0.0444 -0.1010
  433MOL0     C57055   7.951   5.431   4.985 -0.3706  0.6321  0.0155
  433MOL0     C57056   7.862   5.415   4.884 -0.4051 -0.0557 -0.1407
  433MOL0     C57057   7.726   5.436   4.897  0.1441 -0.0576  1.2206
  433MOL0     C57058   7.676   5.470   5.025  0.0719  0.2050  0.2654
  433MOL0     O57059   7.546   5.494   5.055 -0.3399  0.3326  0.6312
  433MOL0     C57060   7.464   5.494   4.937  0.0571 -0.7569 -0.2762
  433MOL0     C57061   7.316   5.523   4.978  0.9636 -0.1010  0.8529
  433MOL0     C57062   7.271   5.417   5.074 -0.2647  0.3522  0.4441
  433MOL0     C57063   7.116   5.421   5.106 -0.3743  0.3837  0.1165
  433MOL0     C57064   7.026   5.434   4.985  0.5305 -0.2150  1.0168
  433MOL0     C57065   6.878   5.403   5.028  0.6232 -1.2280  1.4949
  433MOL0     C57066   6.780   5.459   4.924 -1.0923 -0.8074 -0.7667
  433MOL0     C57067   6.648   5.502   4.986  0.2193 -0.5547 -0.0955
  433MOL0    Cl57068   6.554   5.569   4.846 -0.0665  0.5879 -0.0149
  433MOL0     C57069   7.759   5.488   5.136 -0.7178  1.0194  0.3132
  433MOL0     C57070   7.894   5.455   5.108 -0.0719  0.2442 -0.5711
  433MOL0     O57071   8.137   5.617   5.090  0.0750 -0.0904  0.4454
  433MOL0     C57072   8.353   5.426   4.895  0.3988 -0.0915  0.0500
  433MOL0     C57073   8.486   5.418   4.865  0.1388  0.0347  0.5719
  433MOL0     N57074   9.094   5.658   4.575 -0.2326 -0.4650  0.3410
  433MOL0     N57075   9.120   5.687   4.451  0.0903 -0.1819 -0.0161
  433MOL0     C57076  10.044   5.136   3.851 -1.2145  0.4147  0.5549
  433MOL0     C57077  10.178   5.111   3.826  0.4953 -0.2864  1.1143
  433MOL0     C57078  10.565   5.170   3.594  0.5810  0.2767  0.7692
  433MOL0     C57079  10.669   5.160   3.692 -0.0504  0.5334 -0.2986
  433MOL0     C57080  10.805   5.153   3.659  0.4241  0.0494  0.6783
  433MOL0     C57081  10.852   5.153   3.526 -0.8648 -0.0933  0.5630
  433MOL0     O57082  10.982   5.129   3.477 -0.1364  0.1907  0.2211
  433MOL0     C57083  11.077   5.090   3.589 -1.2126 -0.6041 -0.3821
  433MOL0     C57084  11.216   5.041   3.536  0.5546 -0.4641 -0.9756
  433MOL0     C57085  11.210   4.893   3.503  0.8629  1.1494 -0.0197
  433MOL0     C57086  11.315   4.839   3.411 -0.0772  0.4083  1.3823
  433MOL0     C57087  11.444   4.844   3.476  0.2735  0.7990  0.6004
  433MOL0     C57088  11.557   4.860   3.521 -0.4636 -0.3830  0.1256
  433MOL0     C57089  10.747   5.165   3.431  0.4433  0.1775 -0.3396
  433MOL0     C57090  10.610   5.177   3.460 -0.1780 -0.6517 -0.2565
  433MOL0     H57091  10.277   5.437   3.792 -0.9245  0.2531 -0.0059
  433MOL0     H57092  10.056   5.476   3.885 -2.0735 -0.2798 -0.5527
  433MOL0     H57093   9.811   5.203   3.732  0.8086  1.2732 -0.3016
  433MOL0     H57094   9.803   5.385   3.754  0.6737  0.4179  1.2206
  433MOL0     H57095   9.605   5.211   3.890  2.5509 -1.6293 -2.1098
  433MOL0     H57096   9.555   5.296   3.750 -0.4965 -2.7741 -0.6226
  433MOL0     H57097   9.583   5.509   3.838 -2.1003 -0.5658  0.0294
  433MOL0     H57098   9.670   5.436   3.977 -1.1659  1.3616  0.3871
  433MOL0     H57099   9.374   5.446   3.924 -1.3493  0.6840  1.7234
  433MOL0     H57100   9.444   5.330   4.034 -0.6168 -0.3042  0.4497
  433MOL0     H57101   9.453   5.628   4.033  2.1718 -0.8042 -1.3010
  433MOL0     H57102   9.573   5.555   4.140 -0.4913  0.3513  0.5334
  433MOL0     H57103   9.367   5.648   4.230  2.8126  0.9291  0.2813
  433MOL0     H57104   9.436   5.502   4.303 -0.6644  0.2353  0.5289
  433MOL0     H57105   9.221   5.442   4.089  0.8373 -2.6240 -0.3221
  433MOL0     H57106   9.242   5.374   4.249  0.2692 -0.6177 -2.8114
  433MOL0     H57107   9.045   5.499   4.211 -0.4550 -1.1621  0.0194
  433MOL0     H57108   9.130   5.653   4.199  1.7020  0.5990  0.4565
  433MOL0     H57109   9.126   5.355   4.478 -1.0554 -0.1133 -0.9466
  433MOL0     H57110   9.196   5.509   4.786 -0.2536 -0.0184 -0.2839
  433MOL0     H57111   9.107   5.363   4.718  1.3189  0.3516  0.4386
  433MOL0     H57112   8.888   5.449   4.732 -0.2447  0.9312 -1.2964
  433MOL0     H57113   8.946   5.603   4.792 -0.4288 -0.1406  0.2288
  433MOL0     H57114   8.951   5.327   4.937 -0.1671  1.1253  2.8606
  433MOL0     H57115   9.037   5.471   4.994 -1.2152  0.6534  1.9379
  433MOL0     H57116   8.822   5.593   5.016 -0.6277 -1.1871  1.5715
  433MOL0     H57117   8.815   5.430   5.087 -1.3339  1.8195  1.5366
  433MOL0     H57118   8.624   5.552   5.134 -0.9029 -1.5975  0.6319
  433MOL0     H57119   8.374   5.606   5.179  0.3202  1.3718 -1.5880
  433MOL0     H57120   7.905   5.379   4.791 -0.4674  0.9414 -0.5710
  433MOL0     H57121   7.678   5.429   4.800 -0.1405  1.4317  1.2282
  433MOL0     H57122   7.464   5.402   4.878 -3.5940 -0.1954 -1.3744
  433MOL0     H57123   7.498   5.579   4.878 -0.6627  0.6842  1.3070
  433MOL0     H57124   7.250   5.522   4.890  0.9277  1.6845  0.8107
  433MOL0     H57125   7.304   5.620   5.027 -4.3457 -1.2930  2.6290
  433MOL0     H57126   7.330   5.424   5.166  2.0146  0.1034 -0.9378
  433MOL0     H57127   7.291   5.316   5.036  0.3681 -0.3864  2.5919
  433MOL0     H57128   7.103   5.332   5.168 -0.6027 -0.4743 -1.1173
  433MOL0     H57129   7.092   5.505   5.172 -1.5150  0.4395 -0.3549
  433MOL0     H57130   7.067   5.383   4.897 -1.2679  1.8731 -1.1902
  433MOL0     H57131   7.034   5.539   4.955 -2.5175 -0.0465  0.4790
  433MOL0     H57132   6.867   5.448   5.127 -1.5701 -0.4520  0.9494
  433MOL0     H57133   6.857   5.296   5.032 -2.3437 -0.8756 -1.1345
  433MOL0     H57134   6.826   5.542   4.869 -0.9403  2.0409  3.2409
  433MOL0     H57135   6.766   5.377   4.853 -2.4851 -0.6896 -0.6624
  433MOL0     H57136   6.658   5.572   5.069 -1.3849 -1.2363  0.7292
  433MOL0     H57137   6.595   5.415   5.026  0.7785 -1.1371 -0.6045
  433MOL0     H57138   7.734   5.501   5.240  2.4203 -0.7769  1.4502
  433MOL0     H57139   7.960   5.455   5.194  0.2453  0.7748 -0.8092
  433MOL0     H57140   8.277   5.384   4.830  1.7546 -1.0238 -0.9813
  433MOL0     H57141   8.522   5.370   4.774  0.2417 -1.4363  1.3640
  433MOL0     H57142   9.971   5.056   3.866 -0.9009  0.1068  0.4347
  433MOL0     H57143  10.212   5.011   3.802  2.1624  0.8452 -1.7835
  433MOL0     H57144  10.641   5.173   3.797 -0.9094 -0.2749 -0.4149
  433MOL0     H57145  10.875   5.149   3.742 -0.6452  2.1765  1.7697
  433MOL0     H57146  11.035   5.020   3.661 -0.5376 -0.7123 -0.0871
  433MOL0     H57147  11.102   5.179   3.647  1.0580 -1.9132  0.7478
  433MOL0     H57148  11.252   5.092   3.446  5.0687  1.1790  1.4734
  433MOL0     H57149  11.282   5.072   3.617 -0.4880 -0.6293 -0.0424
  433MOL0     H57150  11.124   4.868   3.439  1.8711  0.0225 -0.9758
  433MOL0     H57151  11.205   4.835   3.596  2.1861 -1.6721 -1.5677
  433MOL0     H57152  11.290   4.739   3.375 -0.7699  0.7032  1.0384
  433MOL0     H57153  11.332   4.897   3.320  0.8406 -0.7245  0.8057
  433MOL0     H57154  11.660   4.877   3.541 -0.7591 -0.2749  1.6919
  433MOL0     H57155  10.777   5.152   3.327 -1.8480 -1.6150 -0.8583
  433MOL0     H57156  10.534   5.173   3.383 -2.7822 -2.7397  2.2039
  434MOL0     O57157  10.073   6.990   3.653 -0.4195  0.5514 -0.0236
  434MOL0     C57158  10.015   7.054   3.565  0.1150  0.8617 -0.0577
  434MOL0     O57159  10.066   7.161   3.492  0.5311  0.4541  0.3301
  434MOL0     C57160  10.182   7.217   3.530  0.5785 -0.6586 -0.3992
  434MOL0     C57161  10.266   7.256   3.426  0.1337  0.3575  0.3326
  434MOL0     C57162  10.392   7.311   3.447  0.2840 -0.0574  0.4795
  434MOL0     C57163  10.446   7.324   3.577  0.6322 -0.2417 -0.2856
  434MOL0     O57164  10.567   7.378   3.584 -0.3305 -0.4889 -0.1154
  434MOL0     C57165  10.626   7.425   3.703  0.2877 -0.5667 -0.4499
  434MOL0     C57166  10.724   7.325   3.770  0.7472  0.8834 -0.1142
  434MOL0     C57167  10.781   7.367   3.898 -0.0190 -0.1438 -0.7579
  434MOL0     C57168  10.875   7.486   3.878  0.4894 -0.2281 -0.1282
  434MOL0     C57169  11.003   7.474   3.958 -0.1793  0.2347  0.5672
  434MOL0     C57170  11.103   7.585   3.943 -0.2642  0.7443  0.1702
  434MOL0     C57171  11.240   7.558   4.004  0.7483 -0.5357  0.5325
  434MOL0     C57172  11.239   7.578   4.157  0.1361  0.5709 -0.1988
  434MOL0     N57173  11.315   7.693   4.213  0.2321  0.3787  0.3197
  434MOL0     C57174  11.445   7.735   4.184  0.0738 -0.6393 -0.0748
  434MOL0     C57175  11.475   7.820   4.292 -0.5771  0.3471  0.0916
  434MOL0     C57176  11.609   7.889   4.321 -0.9611  1.0236 -0.3497
  434MOL0     C57177  11.622   7.920   4.473 -0.1126  0.3585 -0.0386
  434MOL0     C57178  11.753   7.991   4.523  0.4993 -0.3186 -0.0826
  434MOL0     C57179  11.759   8.129   4.460  0.0356  0.0191  0.2890
  434MOL0     O57180  11.780   8.132   4.317  0.5193  0.6679  0.2293
  434MOL0     C57181  11.711   8.216   4.233 -0.5022  0.7450 -0.6617
  434MOL0     C57182  11.667   8.346   4.275 -0.8818 -0.1842 -0.2481
  434MOL0     C57183  11.604   8.425   4.181  0.0854  0.1859  0.3121
  434MOL0     C57184  11.581   8.378   4.050 -0.8307 -0.2075 -0.6053
  434MOL0     C57185  11.517   8.461   3.946  0.4062 -0.2201  0.1658
  434MOL0     O57186  11.491   8.406   3.823  0.7499 -0.1873 -0.2453
  434MOL0     C57187  11.418   8.468   3.731  0.5355  0.3845  0.2062
  434MOL0     C57188  11.466   8.582   3.661 -0.1524 -0.3158  0.3700
  434MOL0     C57189  11.384   8.638   3.562  0.1110  0.1691  0.8144
  434MOL0     C57190  11.256   8.589   3.528  0.2812  0.5817 -0.2837
  434MOL0     O57191  11.164   8.649   3.437  0.7926  0.8439 -0.3256
  434MOL0     C57192  11.184   8.778   3.385  0.1610 -0.4150 -0.0371
  434MOL0     C57193  11.120   8.888   3.477  0.4153  0.3421  0.2728
  434MOL0     C57194  11.092   9.015   3.395  0.0569  0.4685 -1.2431
  434MOL0     C57195  11.053   9.141   3.481  0.3524 -0.2887 -0.4795
  434MOL0     C57196  11.025   9.263   3.394  0.8250  0.0701 -0.5209
  434MOL0     C57197  10.884   9.255   3.323 -0.3028 -0.3992 -0.0456
  434MOL0     C57198  10.854   9.395   3.275 -0.1330 -1.0872  0.4129
  434MOL0     C57199  10.720   9.398   3.195 -0.1815  0.7065 -0.3372
  434MOL0    Cl57200  10.579   9.373   3.307 -0.4951  0.2549  0.1346
  434MOL0     C57201  11.215   8.483   3.611 -0.4337  0.1186  0.0620
  434MOL0     C57202  11.291   8.418   3.700 -0.0443  0.8148  0.3496
  434MOL0     O57203  11.486   8.571   3.983  0.0955 -1.0005  0.1013
  434MOL0     C57204  11.615   8.245   4.022  0.2471  0.8177 -0.0830
  434MOL0     C57205  11.687   8.166   4.102  0.3962 -0.3536 -1.1761
  434MOL0     N57206  11.364   7.833   4.378  0.5800  0.1805  0.2880
  434MOL0     N57207  11.273   7.765   4.323 -0.0161  0.0829  0.3782
  434MOL0     C57208  10.369   7.289   3.684 -0.1458 -0.1762 -0.0281
  434MOL0     C57209  10.237   7.239   3.663 -0.9768 -0.0455  0.3866
  434MOL0     C57210   9.875   7.025   3.532 -0.5459 -0.8045  0.5180
  434MOL0     C57211   9.800   6.913   3.571 -0.0282  1.2284  0.1083
  434MOL0     C57212   9.671   6.897   3.535 -0.6124  0.0074  1.3668
  434MOL0     C57213   9.597   6.988   3.465  0.2854  0.0190 -0.0806
  434MOL0     O57214   9.461   6.969   3.443  0.2035  0.4309 -0.8102
  434MOL0     C57215   9.386   7.067   3.383 -0.1496  0.7426  0.3474
  434MOL0     C57216   9.246   7.033   3.395  0.6986 -0.3272 -0.6778
  434MOL0     C57217   9.211   7.027   3.547  1.2500  0.0766  0.1155
  434MOL0     C57218   9.056   7.002   3.562  1.1983  0.4175 -0.2372
  434MOL0     C57219   8.969   7.124   3.568 -0.3908 -1.5849  0.3393
  434MOL0     C57220   8.902   7.226   3.573 -0.2141  0.4349  0.7168
  434MOL0     C57221   9.669   7.095   3.413  0.7228  0.3586  0.2449
  434MOL0     C57222   9.802   7.117   3.447  0.4232  1.1621  0.8705
  434MOL0     H57223  10.227   7.249   3.325 -0.3430 -1.4930  0.6085
  434MOL0     H57224  10.452   7.334   3.360  1.2287  1.0969  1.3993
  434MOL0     H57225  10.551   7.461   3.773  0.3640  0.3752 -0.8441
  434MOL0     H57226  10.688   7.506   3.663  0.2023 -0.9598 -1.4102
  434MOL0     H57227  10.802   7.302   3.696  0.2792 -0.4341 -0.2289
  434MOL0     H57228  10.674   7.230   3.786 -0.6929  1.7711  0.8680
  434MOL0     H57229  10.831   7.283   3.947 -1.9425 -1.1414 -0.3860
  434MOL0     H57230  10.692   7.390   3.958  0.4095 -1.8293  0.6146
  434MOL0     H57231  10.915   7.490   3.776 -1.1570 -0.1131 -0.8098
  434MOL0     H57232  10.827   7.581   3.902  1.3675 -0.1218  1.2756
  434MOL0     H57233  11.052   7.380   3.930 -1.8992 -1.6237  3.2401
  434MOL0     H57234  10.983   7.449   4.063  0.8019 -0.5582  0.5829
  434MOL0     H57235  11.067   7.682   3.978 -2.2138 -0.3289  1.3363
  434MOL0     H57236  11.114   7.592   3.834  0.4525 -0.5229  0.1457
  434MOL0     H57237  11.280   7.460   3.975  1.2379 -0.2880  0.3379
  434MOL0     H57238  11.308   7.633   3.961 -1.3484  4.0617  4.3390
  434MOL0     H57239  11.291   7.486   4.185 -0.2823  0.2071 -0.6070
  434MOL0     H57240  11.140   7.590   4.201  0.6908  1.2811  0.9206
  434MOL0     H57241  11.510   7.710   4.101 -2.2528 -2.8460 -1.3443
  434MOL0     H57242  11.619   7.968   4.246 -2.2463 -0.7927 -2.5806
  434MOL0     H57243  11.683   7.816   4.288 -1.2102  1.3642 -1.7229
  434MOL0     H57244  11.626   7.829   4.534  1.6434  0.4150 -0.0369
  434MOL0     H57245  11.533   7.972   4.509  0.3577  2.1552 -1.3612
  434MOL0     H57246  11.756   7.997   4.632 -2.6834 -2.5550  0.2865
  434MOL0     H57247  11.839   7.939   4.479  0.0604  0.4917 -2.0162
  434MOL0     H57248  11.843   8.179   4.508  1.6135 -1.4968 -0.7922
  434MOL0     H57249  11.664   8.177   4.486 -0.4856 -1.9986  2.3917
  434MOL0     H57250  11.680   8.375   4.379 -1.9688 -1.5823  0.2999
  434MOL0     H57251  11.589   8.529   4.208  2.9506  0.8883 -0.4294
  434MOL0     H57252  11.567   8.619   3.680  0.1642 -0.7223 -0.4560
  434MOL0     H57253  11.414   8.734   3.520 -0.9862  0.1735  0.0233
  434MOL0     H57254  11.125   8.785   3.293 -0.7908  1.4900  0.6401
  434MOL0     H57255  11.287   8.806   3.362  0.4272 -1.5538 -0.2836
  434MOL0     H57256  11.192   8.905   3.557  0.2836 -3.0239  1.2610
  434MOL0     H57257  11.033   8.858   3.536  1.1138 -0.8937  0.7292
  434MOL0     H57258  11.003   8.999   3.333 -2.5767  0.5327  2.2068
  434MOL0     H57259  11.184   9.041   3.343  0.7104  3.3021  1.0533
  434MOL0     H57260  10.966   9.136   3.547  0.2089 -0.1774 -0.6600
  434MOL0     H57261  11.137   9.166   3.547 -0.0056  0.3445 -0.2573
  434MOL0     H57262  11.104   9.270   3.319  0.9791  2.4243 -0.2308
  434MOL0     H57263  11.032   9.360   3.445  3.7554 -0.4784  0.2933
  434MOL0     H57264  10.812   9.214   3.394  0.5042  0.4272  1.3015
  434MOL0     H57265  10.889   9.189   3.236 -0.8774  2.2766 -2.2290
  434MOL0     H57266  10.850   9.458   3.365  0.1093 -1.1233  0.4488
  434MOL0     H57267  10.921   9.425   3.193 -0.4376  1.3371  0.9547
  434MOL0     H57268  10.725   9.321   3.117  0.0372 -0.3515  0.6742
  434MOL0     H57269  10.705   9.500   3.161 -0.2100  1.6296  2.2028
  434MOL0     H57270  11.122   8.430   3.595  1.4269 -3.2434 -0.4833
  434MOL0     H57271  11.253   8.321   3.730  1.0893  1.3614  4.0186
  434MOL0     H57272  11.602   8.198   3.925 -2.0946 -2.9368  1.7973
  434MOL0     H57273  11.715   8.068   4.064  2.6048 -0.6897  1.0642
  434MOL0     H57274  10.415   7.289   3.783  1.5285 -2.9540 -0.7083
  434MOL0     H57275  10.195   7.208   3.758 -0.6578 -0.8168  0.2745
  434MOL0     H57276   9.849   6.829   3.619 -1.7220 -0.7702 -1.4685
  434MOL0     H57277   9.621   6.806   3.568  1.2136 -0.3259  3.3956
  434MOL0     H57278   9.411   7.073   3.277 -1.6726 -1.6535 -0.2114
  434MOL0     H57279   9.405   7.166   3.428  2.9794  0.3313  0.1285
  434MOL0     H57280   9.184   7.111   3.350 -0.4755 -0.6430  0.3566
  434MOL0     H57281   9.230   6.934   3.350  2.3277 -0.1981 -1.6280
  434MOL0     H57282   9.229   7.121   3.601 -0.2013 -0.9035  2.4472
  434MOL0     H57283   9.264   6.950   3.603 -0.6914 -2.0465 -0.7997
  434MOL0     H57284   9.020   6.940   3.479  0.9224  0.5534 -0.2176
  434MOL0     H57285   9.040   6.940   3.651  0.7591  1.5556  0.4887
  434MOL0     H57286   8.847   7.317   3.583 -2.8544 -1.2630  3.5024
  434MOL0     H57287   9.613   7.165   3.352 -0.3276 -1.3161 -0.7696
  434MOL0     H57288   9.857   7.205   3.415  2.2543 -0.2737 -0.1888
  435MOL0     O57289   1.700   5.756   8.231 -0.5185  0.3341 -0.4314
  435MOL0     C57290   1.611   5.731   8.144  0.2194 -0.0291 -0.3912
  435MOL0     O57291   1.496   5.804   8.139 -0.5855 -0.3929 -0.4172
  435MOL0     C57292   1.463   5.897   8.230  0.1643 -0.6290  0.3381
  435MOL0     C57293   1.383   5.863   8.344 -0.6639  0.0025  1.1863
  435MOL0     C57294   1.350   5.961   8.434 -0.5334 -0.3099  0.3591
  435MOL0     C57295   1.392   6.100   8.410 -0.2888 -0.9226  0.8788
  435MOL0     O57296   1.362   6.193   8.501 -0.0238  0.2931 -0.4734
  435MOL0     C57297   1.347   6.333   8.469 -0.5188 -0.2218 -0.3157
  435MOL0     C57298   1.198   6.366   8.429  0.0071 -0.2819 -0.7467
  435MOL0     C57299   1.180   6.523   8.426 -0.6022  0.1065  0.8076
  435MOL0     C57300   1.033   6.556   8.388 -0.4437  0.0932  0.5125
  435MOL0     C57301   0.961   6.636   8.501 -0.4801  1.0133  0.1207
  435MOL0     C57302   0.826   6.677   8.435  0.1269 -1.2620 -0.3993
  435MOL0     C57303   0.722   6.734   8.526 -0.7981  0.8882 -0.2268
  435MOL0     C57304   0.593   6.762   8.443 -0.5392 -0.7013  0.4575
  435MOL0     N57305   0.478   6.813   8.523  0.4143 -0.5895  0.6431
  435MOL0     C57306   0.450   6.771   8.648  0.0126  0.3392  0.1515
  435MOL0     C57307   0.366   6.855   8.708  0.8843 -0.4495  0.0639
  435MOL0     C57308   0.282   6.826   8.831 -0.2668  0.2463 -0.7703
  435MOL0     C57309   0.203   6.705   8.810 -0.3567  0.3114  0.3555
  435MOL0     C57310   0.100   6.672   8.919 -0.1703  0.2965 -0.4261
  435MOL0     C57311   0.049   6.529   8.888 -0.0555  1.0877 -0.5004
  435MOL0     O57312  -0.059   6.516   8.799 -0.1212 -0.3516  0.6357
  435MOL0     C57313  -0.181   6.510   8.842  0.5464 -0.3388  0.5954
  435MOL0     C57314  -0.233   6.383   8.867 -0.3421  0.1094 -0.9754
  435MOL0     C57315  -0.354   6.376   8.947 -0.3529 -0.3638 -0.5074
  435MOL0     C57316  -0.430   6.491   8.981  0.0355  0.2653 -0.0928
  435MOL0     C57317  -0.546   6.489   9.073 -0.5080 -0.3834 -0.3539
  435MOL0     O57318  -0.621   6.601   9.086  0.6407  0.4297  0.0061
  435MOL0     C57319  -0.723   6.605   9.178  0.3696  0.1170  0.0115
  435MOL0     C57320  -0.831   6.511   9.173  0.5615 -0.1306  0.1333
  435MOL0     C57321  -0.927   6.512   9.269  0.4084  0.0761 -0.6328
  435MOL0     C57322  -0.932   6.606   9.362  0.4889 -0.7037 -0.4470
  435MOL0     O57323  -1.036   6.607   9.453 -0.0511  0.4295  0.1547
  435MOL0     C57324  -1.104   6.734   9.474 -0.5055  0.6676 -0.1265
  435MOL0     C57325  -1.213   6.709   9.587  0.0459 -0.0476 -0.1021
  435MOL0     C57326  -1.343   6.670   9.523  0.1166 -0.2613  0.6007
  435MOL0     C57327  -1.459   6.648   9.612 -0.2521 -0.9068  0.6773
  435MOL0     C57328  -1.581   6.582   9.547 -0.3637 -0.1379  0.6318
  435MOL0     C57329  -1.691   6.556   9.642  0.0842 -0.5366 -0.2202
  435MOL0     C57330  -1.797   6.451   9.586 -0.9485  0.3265 -0.4971
  435MOL0     C57331  -1.911   6.533   9.530 -0.4433  0.4980  0.2026
  435MOL0    Cl57332  -2.018   6.615   9.655  0.5313  0.0216  0.1843
  435MOL0     C57333  -0.839   6.707   9.366  0.9772 -0.6872 -0.4858
  435MOL0     C57334  -0.729   6.703   9.278  0.9264  0.4914  0.4318
  435MOL0     O57335  -0.552   6.394   9.146  0.0879  0.0482  0.1497
  435MOL0     C57336  -0.379   6.619   8.939 -0.1519  0.3577  0.5198
  435MOL0     C57337  -0.254   6.626   8.868 -0.3016 -0.1482 -0.1474
  435MOL0     N57338   0.356   6.958   8.616  0.2843  0.6546  0.3759
  435MOL0     N57339   0.428   6.937   8.517 -0.6263 -0.3028  0.4662
  435MOL0     C57340   1.471   6.132   8.299  0.3887  0.2852 -0.8556
  435MOL0     C57341   1.510   6.030   8.218  0.0458 -0.3082 -0.4242
  435MOL0     C57342   1.631   5.654   8.027  0.0785 -0.3679 -0.4516
  435MOL0     C57343   1.754   5.590   8.016 -0.4803 -0.5205  0.1260
  435MOL0     C57344   1.787   5.533   7.897  0.4778  0.3169  0.0626
  435MOL0     C57345   1.695   5.528   7.788 -0.4491 -0.1634  0.3812
  435MOL0     O57346   1.740   5.456   7.681  0.6688 -0.1350  0.3214
  435MOL0     C57347   1.727   5.522   7.553  0.5959 -0.5132  0.4705
  435MOL0     C57348   1.861   5.499   7.491  0.7230  0.2956  0.7799
  435MOL0     C57349   1.864   5.560   7.354  0.5464  0.9467 -0.0095
  435MOL0     C57350   1.927   5.696   7.344 -0.1072  0.8181 -0.0183
  435MOL0     C57351   1.900   5.758   7.214  0.1828  1.1879  1.0954
  435MOL0     C57352   1.876   5.821   7.109 -0.0546 -0.6383 -0.3937
  435MOL0     C57353   1.574   5.591   7.800 -0.2769  0.0401  0.1697
  435MOL0     C57354   1.535   5.648   7.921  0.4945 -0.4444  0.4797
  435MOL0     H57355   1.346   5.762   8.354  0.5247 -0.5425  0.2551
  435MOL0     H57356   1.300   5.954   8.530  0.8952 -0.5950  1.1226
  435MOL0     H57357   1.406   6.372   8.385 -1.9803 -0.5096 -1.5342
  435MOL0     H57358   1.368   6.405   8.549  1.2751 -0.3149 -0.6573
  435MOL0     H57359   1.144   6.317   8.511  0.7615 -0.7025 -0.4933
  435MOL0     H57360   1.170   6.323   8.333  0.1621  3.6186 -2.7559
  435MOL0     H57361   1.252   6.576   8.364  1.8786 -1.8691  1.8052
  435MOL0     H57362   1.205   6.568   8.523  1.1283  1.1048 -0.0578
  435MOL0     H57363   1.032   6.618   8.298  0.3573  0.2495  0.6073
  435MOL0     H57364   0.977   6.466   8.362 -3.6891  1.9061  0.6187
  435MOL0     H57365   1.011   6.728   8.533  1.9979 -0.9286  2.2565
  435MOL0     H57366   0.956   6.579   8.594  0.0955 -0.2623 -0.6011
  435MOL0     H57367   0.784   6.592   8.380  1.2231 -0.4310 -2.6662
  435MOL0     H57368   0.847   6.747   8.354  0.9679 -0.4448  0.4849
  435MOL0     H57369   0.703   6.658   8.603 -1.9490  0.9962 -0.3869
  435MOL0     H57370   0.762   6.822   8.577  2.5127 -0.0954 -0.8673
  435MOL0     H57371   0.559   6.665   8.405  0.5695 -0.9579  0.0951
  435MOL0     H57372   0.603   6.836   8.363  0.6299 -1.0593  0.2594
  435MOL0     H57373   0.480   6.678   8.696  1.0993  1.1159  1.0166
  435MOL0     H57374   0.221   6.913   8.854 -1.5885 -0.4794 -1.4086
  435MOL0     H57375   0.351   6.803   8.914 -0.3747  0.4186 -0.6322
  435MOL0     H57376   0.267   6.617   8.797 -2.4161 -1.3345  0.7362
  435MOL0     H57377   0.140   6.722   8.722  0.1163  1.3196  0.1976
  435MOL0     H57378   0.152   6.671   9.015  1.2482 -1.0236 -1.1633
  435MOL0     H57379   0.015   6.740   8.909 -2.3909 -2.3925 -0.9974
  435MOL0     H57380   0.009   6.482   8.978  2.3474 -1.6444 -0.7033
  435MOL0     H57381   0.133   6.466   8.858 -0.2694 -0.6344  2.1603
  435MOL0     H57382  -0.183   6.294   8.831 -0.1173 -0.6127  1.0075
  435MOL0     H57383  -0.388   6.283   8.990  2.5559 -1.0025  0.7106
  435MOL0     H57384  -0.833   6.440   9.091  1.2250 -0.2612  0.2276
  435MOL0     H57385  -0.999   6.432   9.285 -0.6464  1.5136  2.5463
  435MOL0     H57386  -1.152   6.770   9.382  0.0354 -0.8385 -1.0253
  435MOL0     H57387  -1.030   6.803   9.516  0.2924 -1.3849  2.0682
  435MOL0     H57388  -1.217   6.792   9.658 -0.0515 -1.5568  1.7235
  435MOL0     H57389  -1.172   6.625   9.643  2.2048  1.1764  0.2550
  435MOL0     H57390  -1.322   6.575   9.473 -0.1207  0.0151 -0.0360
  435MOL0     H57391  -1.375   6.745   9.449  2.5313  0.1168 -0.1427
  435MOL0     H57392  -1.433   6.586   9.698 -0.9719 -1.1469  0.7332
  435MOL0     H57393  -1.491   6.748   9.644  1.2990  0.9364 -2.9514
  435MOL0     H57394  -1.561   6.483   9.505 -1.4425  0.6819 -2.0521
  435MOL0     H57395  -1.614   6.641   9.460  3.3825  3.2363  1.2217
  435MOL0     H57396  -1.731   6.653   9.672 -0.4796 -0.7581 -0.2468
  435MOL0     H57397  -1.652   6.515   9.736 -1.2591  3.1797  2.1789
  435MOL0     H57398  -1.752   6.382   9.513  0.1418  0.4566  0.0423
  435MOL0     H57399  -1.837   6.389   9.667  0.4595 -1.2187 -0.9264
  435MOL0     H57400  -1.979   6.466   9.477 -0.8050  0.4314  0.7433
  435MOL0     H57401  -1.880   6.605   9.454  0.2746 -1.8482 -1.8575
  435MOL0     H57402  -0.854   6.780   9.445 -1.3659 -1.9381  0.3350
  435MOL0     H57403  -0.651   6.779   9.272 -0.4705  1.9438 -0.1309
  435MOL0     H57404  -0.423   6.709   8.980  1.5840  1.5141 -0.0508
  435MOL0     H57405  -0.224   6.728   8.844 -2.4662  0.8923  1.2188
  435MOL0     H57406   1.525   6.226   8.293 -0.0235  0.5218 -0.8918
  435MOL0     H57407   1.564   6.046   8.125 -3.8853 -1.5025 -3.1841
  435MOL0     H57408   1.831   5.579   8.091 -0.8719 -2.4560  0.2981
  435MOL0     H57409   1.876   5.472   7.891 -0.3646 -0.9210 -0.1302
  435MOL0     H57410   1.702   5.627   7.569 -0.1204 -0.7988  1.2707
  435MOL0     H57411   1.649   5.488   7.484  0.5304  0.6476 -0.0484
  435MOL0     H57412   1.944   5.539   7.550  2.8757 -2.1440 -0.3608
  435MOL0     H57413   1.881   5.391   7.483  0.1592  0.1961  0.6450
  435MOL0     H57414   1.761   5.576   7.320 -0.3850  0.6890  2.5128
  435MOL0     H57415   1.916   5.488   7.289 -2.1579 -1.4441  0.2928
  435MOL0     H57416   1.878   5.754   7.423  0.3926 -3.6605  4.0193
  435MOL0     H57417   2.035   5.686   7.342 -0.2094 -0.4377  0.0942
  435MOL0     H57418   1.850   5.881   7.024  0.2265  2.1542  1.3469
  435MOL0     H57419   1.497   5.578   7.725 -0.2283 -0.2789  0.1716
  435MOL0     H57420   1.434   5.688   7.919  0.0575 -1.5484 -1.4568
  436MOL0     O57421   9.742   1.320   0.250 -0.5276  0.0492  0.9170
  436MOL0     C57422   9.818   1.232   0.285 -0.5615  1.2710  0.2526
  436MOL0     O57423   9.794   1.141   0.386  0.2552  0.2702 -0.3152
  436MOL0     C57424   9.667   1.159   0.449 -0.1997  0.0107 -0.7760
  436MOL0     C57425   9.664   1.243   0.556  0.1858 -0.4224 -0.4686
  436MOL0     C57426   9.545   1.278   0.608  0.5943 -0.4483 -0.0072
  436MOL0     C57427   9.429   1.214   0.567  0.1912  0.0797  0.6995
  436MOL0     O57428   9.302   1.225   0.617 -0.5623  0.4941 -1.2934
  436MOL0     C57429   9.265   1.360   0.648  0.2951 -0.1310 -0.6103
  436MOL0     C57430   9.114   1.360   0.624  0.2654  0.7431  0.3193
  436MOL0     C57431   9.041   1.471   0.706  0.1582 -0.1966 -0.2372
  436MOL0     C57432   8.897   1.445   0.739 -0.1945  0.7276  0.0560
  436MOL0     C57433   8.835   1.564   0.820  0.0891  0.8409 -0.2070
  436MOL0     C57434   8.685   1.556   0.836  0.3035  0.5208  0.0296
  436MOL0     C57435   8.640   1.664   0.927 -0.5743 -0.7664 -0.1093
  436MOL0     C57436   8.498   1.629   0.991 -0.1003  0.1768  0.0686
  436MOL0     N57437   8.388   1.618   0.886  0.9083  0.6884  0.4094
  436MOL0     C57438   8.293   1.710   0.838 -0.4171  0.1917  0.0165
  436MOL0     C57439   8.216   1.650   0.746  0.7990 -1.2765 -0.4228
  436MOL0     C57440   8.100   1.713   0.668  0.4934  0.1177 -0.3364
  436MOL0     C57441   7.965   1.693   0.739 -0.4770  0.0339  0.0881
  436MOL0     C57442   7.852   1.778   0.684 -0.4306 -0.5381 -0.0088
  436MOL0     C57443   7.720   1.727   0.705  0.2276  0.3894  0.0114
  436MOL0     O57444   7.649   1.777   0.594 -0.3306  0.6219  0.6074
  436MOL0     C57445   7.515   1.761   0.590 -0.5397 -0.5253  0.3788
  436MOL0     C57446   7.447   1.792   0.474 -0.1920 -0.0229  0.6373
  436MOL0     C57447   7.304   1.773   0.460 -0.1076  0.3386 -0.0992
  436MOL0     C57448   7.232   1.732   0.576  0.7547  0.6083 -0.4800
  436MOL0     C57449   7.085   1.714   0.568 -0.1752 -0.3203  0.2003
  436MOL0     O57450   7.009   1.694   0.684  0.4586 -1.0528  0.3859
  436MOL0     C57451   6.879   1.679   0.697 -0.2453 -0.4892  0.3824
  436MOL0     C57452   6.841   1.609   0.806  0.1253  1.6811  0.0559
  436MOL0     C57453   6.698   1.578   0.819 -1.0479 -0.0634  0.5821
  436MOL0     C57454   6.598   1.633   0.730  0.9191 -0.5637 -0.4091
  436MOL0     O57455   6.460   1.601   0.751 -0.1589 -0.7581  0.6311
  436MOL0     C57456   6.425   1.614   0.894  0.2323  0.2268 -0.3572
  436MOL0     C57457   6.284   1.569   0.909  0.0972  0.8080 -0.3235
  436MOL0     C57458   6.253   1.428   0.865 -1.1355  0.7071 -0.3046
  436MOL0     C57459   6.113   1.373   0.880  0.8138  0.2543 -0.6256
  436MOL0     C57460   6.005   1.468   0.824  0.0483 -0.4207  0.4053
  436MOL0     C57461   5.873   1.387   0.809  0.4399 -0.3863  0.1613
  436MOL0     C57462   5.820   1.313   0.931 -0.1923  1.3361 -0.3812
  436MOL0     C57463   5.798   1.403   1.056 -0.2544  0.2625 -0.1448
  436MOL0    Cl57464   5.636   1.461   1.080 -0.7169  0.0682 -0.2370
  436MOL0     C57465   6.652   1.711   0.624  0.1098 -0.1792  0.1071
  436MOL0     C57466   6.790   1.729   0.603  0.5363 -0.0356 -0.1037
  436MOL0     O57467   7.039   1.722   0.458  1.0638  0.0649  0.7132
  436MOL0     C57468   7.300   1.686   0.688 -0.2284 -0.2822 -0.2401
  436MOL0     C57469   7.438   1.703   0.696  0.6573 -0.5056  0.0809
  436MOL0     N57470   8.275   1.527   0.734  0.1622 -0.7725 -0.7114
  436MOL0     N57471   8.368   1.502   0.822  0.1170  0.4158  0.3512
  436MOL0     C57472   9.435   1.125   0.462 -0.1672  1.0647  0.0467
  436MOL0     C57473   9.552   1.099   0.397  0.3502 -0.0301 -0.2706
  436MOL0     C57474   9.953   1.230   0.222 -0.9580  0.1051  0.3317
  436MOL0     C57475   9.994   1.324   0.130 -0.8863 -0.3725  0.1536
  436MOL0     C57476  10.108   1.307   0.052 -0.8516 -1.1974  0.0811
  436MOL0     C57477  10.189   1.195   0.074  0.2005  0.6793 -0.3606
  436MOL0     O57478  10.290   1.172  -0.012 -0.4828  0.1425  0.3150
  436MOL0     C57479  10.427   1.177   0.034  0.3940 -0.4729 -0.7123
  436MOL0     C57480  10.493   1.287  -0.056  0.3903  0.1396 -0.2394
  436MOL0     C57481  10.619   1.340   0.016  0.6913 -0.5467 -0.7761
  436MOL0     C57482  10.744   1.288  -0.046 -0.9759 -0.7360  0.7187
  436MOL0     C57483  10.865   1.309   0.038  0.3733  0.8853  0.0299
  436MOL0     C57484  10.959   1.329   0.105  0.2626 -0.5205  0.5622
  436MOL0     C57485  10.143   1.098   0.168 -0.1180 -0.0486  0.6406
  436MOL0     C57486  10.031   1.111   0.246  0.0356  0.0130  0.5990
  436MOL0     H57487   9.763   1.277   0.582  1.1849 -1.3517 -2.7423
  436MOL0     H57488   9.547   1.351   0.689  1.2539  0.8515 -1.1423
  436MOL0     H57489   9.297   1.442   0.583 -0.9598  1.4277  0.6396
  436MOL0     H57490   9.277   1.398   0.750 -1.5603  1.3883 -0.8954
  436MOL0     H57491   9.075   1.264   0.659 -0.9343  1.9252  2.4233
  436MOL0     H57492   9.086   1.370   0.519 -0.5966  3.3340  0.7102
  436MOL0     H57493   9.039   1.564   0.648  3.2687 -0.6365 -1.2131
  436MOL0     H57494   9.095   1.487   0.800  3.2165 -0.6718 -1.7853
  436MOL0     H57495   8.835   1.425   0.651 -1.4976 -0.2262  1.1368
  436MOL0     H57496   8.908   1.350   0.793  2.1670 -0.0978 -1.6762
  436MOL0     H57497   8.855   1.663   0.778 -1.2192  1.2627  0.1312
  436MOL0     H57498   8.879   1.560   0.920  2.9546 -1.7085 -1.4114
  436MOL0     H57499   8.659   1.460   0.880 -0.2484  0.8121  0.3480
  436MOL0     H57500   8.628   1.568   0.744 -3.2974  1.2733  2.1947
  436MOL0     H57501   8.718   1.675   1.003  1.7778  0.7574 -2.5596
  436MOL0     H57502   8.625   1.760   0.878 -3.6268  0.9854  3.7104
  436MOL0     H57503   8.468   1.715   1.052  1.3712  0.5814  0.2634
  436MOL0     H57504   8.503   1.549   1.065  0.3892  1.6566  1.7116
  436MOL0     H57505   8.283   1.815   0.861  2.9089  0.5471  0.2499
  436MOL0     H57506   8.105   1.665   0.569 -1.2024 -0.9454  0.0428
  436MOL0     H57507   8.111   1.821   0.659 -4.9308  1.0357  0.3091
  436MOL0     H57508   7.966   1.711   0.847 -1.6228 -1.7207  0.4287
  436MOL0     H57509   7.944   1.585   0.738  0.8719 -0.3636  3.3985
  436MOL0     H57510   7.859   1.876   0.732 -0.2037  0.3071 -1.6920
  436MOL0     H57511   7.875   1.799   0.579  2.3160 -5.5617 -0.7424
  436MOL0     H57512   7.690   1.766   0.803 -0.3648 -1.5390  0.6446
  436MOL0     H57513   7.713   1.618   0.712  1.3258  0.1652 -1.7760
  436MOL0     H57514   7.498   1.814   0.381 -1.3881  2.2667  0.4518
  436MOL0     H57515   7.250   1.787   0.367 -2.1800  2.7963  1.3170
  436MOL0     H57516   6.899   1.560   0.884 -1.8628  2.0219  1.8595
  436MOL0     H57517   6.685   1.513   0.905 -2.2009 -2.2281 -1.1486
  436MOL0     H57518   6.442   1.719   0.920 -0.3588  0.7763 -2.0598
  436MOL0     H57519   6.487   1.550   0.958  1.4241  2.0457  0.3995
  436MOL0     H57520   6.217   1.650   0.880 -0.7066  0.6824  1.1209
  436MOL0     H57521   6.267   1.551   1.016 -0.2004 -3.4856 -0.8949
  436MOL0     H57522   6.323   1.364   0.919 -0.2929  1.4322 -0.5103
  436MOL0     H57523   6.269   1.411   0.758  0.1025 -0.4955  0.0388
  436MOL0     H57524   6.102   1.278   0.827 -0.9561  0.2235 -0.2909
  436MOL0     H57525   6.095   1.364   0.987 -0.2357 -0.2963 -0.8342
  436MOL0     H57526   6.043   1.508   0.730 -2.3460  3.0577  0.7153
  436MOL0     H57527   5.985   1.554   0.889 -1.2729 -1.4598  1.4426
  436MOL0     H57528   5.880   1.313   0.729  0.1391  0.9635 -1.1476
  436MOL0     H57529   5.797   1.460   0.781 -1.4347 -2.9197 -1.9115
  436MOL0     H57530   5.722   1.273   0.904 -1.4878  0.1970  4.8768
  436MOL0     H57531   5.892   1.234   0.951 -0.2608  0.7339 -2.3380
  436MOL0     H57532   5.874   1.483   1.051 -0.1524  0.2325  0.8176
  436MOL0     H57533   5.819   1.337   1.141  0.9147 -0.8842 -1.2712
  436MOL0     H57534   6.576   1.761   0.564  0.5767  4.7211  3.0412
  436MOL0     H57535   6.807   1.800   0.524  1.8763 -1.7482 -1.4332
  436MOL0     H57536   7.241   1.625   0.756 -0.5969 -1.8184 -1.8534
  436MOL0     H57537   7.490   1.667   0.784  0.3835 -1.4513 -0.1306
  436MOL0     H57538   9.343   1.080   0.428 -0.4580  1.7983 -0.1538
  436MOL0     H57539   9.554   1.029   0.314  0.3373 -1.0477  0.5674
  436MOL0     H57540   9.931   1.411   0.110  1.5342  1.4807  0.1443
  436MOL0     H57541  10.145   1.376  -0.024  1.8177 -0.1925  2.1164
  436MOL0     H57542  10.482   1.083   0.027  1.9864  0.4134 -0.6809
  436MOL0     H57543  10.409   1.198   0.140 -1.3619 -0.8530 -0.9063
  436MOL0     H57544  10.511   1.258  -0.160  1.1403 -1.6161  0.3506
  436MOL0     H57545  10.416   1.364  -0.055  2.3388  2.2245 -0.6649
  436MOL0     H57546  10.615   1.298   0.117  1.0185 -0.2747 -0.6496
  436MOL0     H57547  10.625   1.447  -0.006  1.8500 -0.7659 -1.6542
  436MOL0     H57548  10.744   1.179  -0.050 -0.7229 -0.8088  2.0790
  436MOL0     H57549  10.758   1.329  -0.146 -3.0086 -1.9548 -0.1204
  436MOL0     H57550  11.029   1.341   0.185 -0.5878  0.3805  1.2000
  436MOL0     H57551  10.198   1.006   0.188 -2.5672 -1.5417  0.9697
  436MOL0     H57552  10.002   1.038   0.321  1.0355  0.5594  1.5326
  437MOL0     O57553   6.612   0.958   9.184  0.8052 -0.0485  0.3720
  437MOL0     C57554   6.648   0.896   9.286  0.2339 -0.1391 -0.5356
  437MOL0     O57555   6.574   0.814   9.366  0.4114 -0.2865 -0.7138
  437MOL0     C57556   6.434   0.794   9.355  0.3106 -0.6103  0.4842
  437MOL0     C57557   6.387   0.672   9.399 -0.2599  0.0590  0.1687
  437MOL0     C57558   6.251   0.636   9.394  0.2444 -0.2037  0.1342
  437MOL0     C57559   6.160   0.730   9.339  0.3349  0.1777  0.0963
  437MOL0     O57560   6.027   0.695   9.349  0.3625  0.1269  0.4098
  437MOL0     C57561   5.919   0.775   9.295 -0.0905  0.1481 -0.0055
  437MOL0     C57562   5.867   0.879   9.398  0.4972  0.4327 -0.0104
  437MOL0     C57563   5.854   0.829   9.549 -0.4771 -0.3605 -0.0756
  437MOL0     C57564   5.761   0.711   9.548 -0.5559 -0.4801  0.1681
  437MOL0     C57565   5.738   0.663   9.688 -0.1731  0.1881  0.0499
  437MOL0     C57566   5.679   0.529   9.719 -0.6099  0.3054 -0.3736
  437MOL0     C57567   5.544   0.482   9.656 -0.1489  0.4458 -0.5904
  437MOL0     C57568   5.477   0.372   9.734 -0.1650  0.0682 -0.5088
  437MOL0     N57569   5.358   0.324   9.666  0.7251 -1.1469 -0.0291
  437MOL0     C57570   5.242   0.408   9.662 -0.7249  0.3323 -0.3644
  437MOL0     C57571   5.145   0.329   9.604 -0.3089 -0.2256  0.1562
  437MOL0     C57572   5.001   0.371   9.564  0.0591  0.1551 -0.3671
  437MOL0     C57573   4.915   0.247   9.529 -0.1533  0.1275 -0.7805
  437MOL0     C57574   4.777   0.297   9.468 -0.1177  0.3477 -0.9261
  437MOL0     C57575   4.710   0.182   9.390  0.0683  0.3780 -0.7599
  437MOL0     O57576   4.582   0.233   9.342 -0.1786 -0.3839  0.3220
  437MOL0     C57577   4.464   0.172   9.370 -0.4907 -0.1344  0.2842
  437MOL0     C57578   4.348   0.240   9.386 -1.1730 -0.1828 -0.1879
  437MOL0     C57579   4.221   0.176   9.402 -0.3764  0.2814  0.3152
  437MOL0     C57580   4.216   0.042   9.379 -0.4083  1.1979 -0.3004
  437MOL0     C57581   4.101  -0.037   9.404 -0.1403 -0.3477  0.2026
  437MOL0     O57582   4.009   0.002   9.499  0.0996  0.1100  0.4093
  437MOL0     C57583   3.879  -0.042   9.469 -0.4861 -0.2400 -0.1146
  437MOL0     C57584   3.821  -0.160   9.514 -0.7181  0.3566 -0.5000
  437MOL0     C57585   3.682  -0.170   9.507 -0.7663 -0.7412 -0.6082
  437MOL0     C57586   3.597  -0.069   9.453 -0.7206  0.0231 -0.0602
  437MOL0     O57587   3.457  -0.072   9.453 -0.1819 -0.1848 -0.1948
  437MOL0     C57588   3.390  -0.185   9.510 -0.4472  0.9573  0.0816
  437MOL0     C57589   3.243  -0.181   9.530  0.5251  0.2949 -0.1428
  437MOL0     C57590   3.179  -0.229   9.394  0.2401 -0.1551 -0.7871
  437MOL0     C57591   3.022  -0.213   9.386  0.7110 -0.3188  0.9332
  437MOL0     C57592   2.959  -0.285   9.269  0.4431  0.8846 -0.1820
  437MOL0     C57593   3.010  -0.238   9.133 -0.5870 -0.5942  0.7788
  437MOL0     C57594   2.912  -0.277   9.014 -0.0968 -0.0499 -0.9651
  437MOL0     C57595   2.784  -0.196   8.995 -0.6825 -0.5975 -0.4579
  437MOL0    Cl57596   2.724  -0.250   8.835 -0.3774  0.2476 -0.1048
  437MOL0     C57597   3.664   0.044   9.392 -0.2418  0.5549 -0.3020
  437MOL0     C57598   3.804   0.058   9.395 -0.7323 -0.9101 -0.3101
  437MOL0     O57599   4.085  -0.119   9.315 -0.4369 -0.1796  0.3092
  437MOL0     C57600   4.339  -0.029   9.377  0.1601 -0.8061  0.2970
  437MOL0     C57601   4.463   0.034   9.364  0.3092 -0.2616 -0.1042
  437MOL0     N57602   5.210   0.207   9.568  0.3608  0.1650 -0.2289
  437MOL0     N57603   5.335   0.215   9.597 -0.2701  0.2053  0.1467
  437MOL0     C57604   6.202   0.859   9.295 -0.0133 -1.3547  0.2766
  437MOL0     C57605   6.337   0.885   9.291 -0.6935 -0.4386  0.5039
  437MOL0     C57606   6.784   0.907   9.341 -0.6634  0.3616 -0.1281
  437MOL0     C57607   6.838   0.823   9.445  0.4482 -0.1018 -0.5300
  437MOL0     C57608   6.970   0.846   9.496  0.6823 -0.0488 -0.1153
  437MOL0     C57609   7.052   0.947   9.445  0.3296  0.3571 -0.4779
  437MOL0     O57610   7.189   0.959   9.470 -0.1147 -0.7123 -0.8936
  437MOL0     C57611   7.223   1.081   9.532  0.4969  0.5467  0.2457
  437MOL0     C57612   7.364   1.088   9.599  0.3022 -0.3082  0.3850
  437MOL0     C57613   7.367   1.013   9.737  0.0161  0.3897 -0.0445
  437MOL0     C57614   7.509   0.988   9.783  0.2529  0.1153  0.3428
  437MOL0     C57615   7.591   1.106   9.820  0.7423 -0.1438  0.0376
  437MOL0     C57616   7.656   1.194   9.868  0.2565  0.2605  0.0383
  437MOL0     C57617   7.000   1.023   9.343  0.4882  1.1862  0.2769
  437MOL0     C57618   6.862   1.012   9.301 -0.8779  0.3079  0.0036
  437MOL0     H57619   6.452   0.610   9.461 -0.9492  0.6394  1.4958
  437MOL0     H57620   6.216   0.535   9.411 -0.6354  0.3656  1.8793
  437MOL0     H57621   5.842   0.704   9.265  1.3619 -1.2568 -0.6196
  437MOL0     H57622   5.954   0.823   9.203  1.8898 -2.7078 -0.8855
  437MOL0     H57623   5.765   0.910   9.373  1.1526  0.9869 -2.1948
  437MOL0     H57624   5.924   0.972   9.385  1.1877 -0.1555 -1.3308
  437MOL0     H57625   5.823   0.915   9.610 -2.3620  1.2248 -3.0132
  437MOL0     H57626   5.948   0.790   9.586 -0.6475 -0.1698  0.5627
  437MOL0     H57627   5.668   0.756   9.512 -0.2952  2.0929  2.3797
  437MOL0     H57628   5.797   0.623   9.494  0.6532 -2.3016  3.6569
  437MOL0     H57629   5.681   0.739   9.742  1.8564  2.9361 -1.4366
  437MOL0     H57630   5.832   0.663   9.745 -0.8411  2.0967  1.2502
  437MOL0     H57631   5.659   0.523   9.826 -3.0024  2.6490 -0.5796
  437MOL0     H57632   5.753   0.452   9.692  1.7838  1.4758  2.3847
  437MOL0     H57633   5.467   0.559   9.663 -1.7366 -0.9845 -1.4973
  437MOL0     H57634   5.559   0.452   9.552  0.5446 -1.9071  0.1285
  437MOL0     H57635   5.447   0.411   9.831 -0.2878  1.9979 -1.2674
  437MOL0     H57636   5.544   0.286   9.747 -2.6862 -1.8039  0.9019
  437MOL0     H57637   5.239   0.509   9.703 -0.4189 -0.5491  2.0120
  437MOL0     H57638   5.003   0.429   9.472 -1.4614  0.2743 -0.3407
  437MOL0     H57639   4.961   0.435   9.643  1.1417 -2.7575  2.8413
  437MOL0     H57640   4.897   0.205   9.629  4.0008  1.3547  0.6744
  437MOL0     H57641   4.974   0.170   9.477  1.3674 -0.3521  1.4986
  437MOL0     H57642   4.711   0.322   9.552 -0.2343  1.6013 -1.3729
  437MOL0     H57643   4.780   0.389   9.409 -0.4397  2.2669  1.8156
  437MOL0     H57644   4.691   0.100   9.459  1.6859  0.6481  0.0531
  437MOL0     H57645   4.772   0.149   9.306  0.7416 -1.5217  0.4404
  437MOL0     H57646   4.367   0.347   9.390  3.9804 -0.9006  0.8474
  437MOL0     H57647   4.128   0.230   9.415 -0.6648 -0.0058 -0.5359
  437MOL0     H57648   3.878  -0.236   9.566 -2.2324 -0.4701  0.0327
  437MOL0     H57649   3.633  -0.253   9.557 -2.8339  1.7516  1.8462
  437MOL0     H57650   3.433  -0.207   9.608 -0.0827 -2.4340 -0.7192
  437MOL0     H57651   3.416  -0.269   9.443 -1.0682  0.1159  0.8718
  437MOL0     H57652   3.230  -0.076   9.558 -0.1705  0.7936 -2.1439
  437MOL0     H57653   3.219  -0.252   9.610  0.3556 -0.3154 -0.7201
  437MOL0     H57654   3.195  -0.337   9.384 -0.4608 -0.2350 -1.1629
  437MOL0     H57655   3.229  -0.185   9.307 -1.3145  1.7142 -0.8070
  437MOL0     H57656   2.977  -0.247   9.480 -2.7387 -0.6930 -0.6837
  437MOL0     H57657   2.991  -0.108   9.394  0.7459 -0.3039  0.8707
  437MOL0     H57658   2.852  -0.264   9.258  0.3643  0.5119 -0.1402
  437MOL0     H57659   2.989  -0.389   9.285  2.7283  1.2943 -1.3802
  437MOL0     H57660   3.108  -0.283   9.116 -0.3525 -0.1619  1.0087
  437MOL0     H57661   3.012  -0.129   9.135 -1.6599 -0.2910 -3.5367
  437MOL0     H57662   2.975  -0.260   8.925  0.9619 -1.0764 -0.4475
  437MOL0     H57663   2.875  -0.380   9.026 -0.0067  0.2245  2.9350
  437MOL0     H57664   2.802  -0.088   8.997  0.3481 -0.7487 -0.8818
  437MOL0     H57665   2.711  -0.212   9.075 -1.8883  0.5564 -1.2820
  437MOL0     H57666   3.608   0.130   9.355 -0.2360  0.5988 -0.2107
  437MOL0     H57667   3.849   0.154   9.369 -2.5453 -0.3005 -1.4575
  437MOL0     H57668   4.329  -0.136   9.362 -3.8059 -0.1542 -3.7843
  437MOL0     H57669   4.552  -0.025   9.347  1.7062  1.5075  0.6744
  437MOL0     H57670   6.128   0.932   9.266  0.6747 -1.2123 -1.1839
  437MOL0     H57671   6.374   0.983   9.264  2.7443 -0.7438  3.4266
  437MOL0     H57672   6.787   0.734   9.483 -1.6380  0.8450 -0.9854
  437MOL0     H57673   7.020   0.784   9.570  0.6877 -0.5554 -0.5387
  437MOL0     H57674   7.154   1.099   9.615  1.1825 -0.6605  1.0998
  437MOL0     H57675   7.221   1.161   9.458  2.9636  0.8143  0.4030
  437MOL0     H57676   7.437   1.049   9.527  0.1897 -0.8386  0.5596
  437MOL0     H57677   7.388   1.190   9.631  2.8938 -0.4909 -0.7425
  437MOL0     H57678   7.323   0.914   9.719  1.4000 -0.1447 -0.6177
  437MOL0     H57679   7.312   1.073   9.810  0.8326 -0.2860  1.1539
  437MOL0     H57680   7.500   0.934   9.878  0.7190  1.3211  1.0883
  437MOL0     H57681   7.568   0.939   9.704  2.1808  2.2084  0.3730
  437MOL0     H57682   7.696   1.285   9.908  2.9254 -0.7982 -0.0570
  437MOL0     H57683   7.059   1.101   9.295 -0.0137  2.0161  0.9787
  437MOL0     H57684   6.822   1.082   9.228  0.8106  0.3966 -0.9030
  438MOL0     O57685   6.413   0.480   2.390  0.1660 -0.2760  0.8452
  438MOL0     C57686   6.337   0.409   2.450  1.1422  0.3245 -0.3019
  438MOL0     O57687   6.359   0.323   2.545 -0.3139 -0.0704  0.4356
  438MOL0     C57688   6.486   0.294   2.598  0.3079 -0.1380 -0.9147
  438MOL0     C57689   6.503   0.190   2.695  0.0850 -0.4369 -0.0970
  438MOL0     C57690   6.626   0.159   2.752 -0.2641  0.0775 -0.0701
  438MOL0     C57691   6.743   0.230   2.732 -0.6528 -1.1547  0.4320
  438MOL0     O57692   6.862   0.207   2.795  0.2110  0.1069 -0.0827
  438MOL0     C57693   6.925   0.088   2.741  0.7833  0.1716  0.1782
  438MOL0     C57694   7.066   0.064   2.801 -0.4065 -0.0292 -0.3225
  438MOL0     C57695   7.152   0.185   2.766  0.5035  0.4450  0.2080
  438MOL0     C57696   7.300   0.157   2.783  0.6207  0.1599 -0.5645
  438MOL0     C57697   7.387   0.259   2.713 -0.4519 -0.5245  0.3884
  438MOL0     C57698   7.531   0.228   2.728  0.4345  0.2521 -0.0217
  438MOL0     C57699   7.611   0.327   2.646 -0.3410 -0.2721  1.1411
  438MOL0     C57700   7.753   0.316   2.698  0.2877  0.6543  0.2202
  438MOL0     N57701   7.834   0.404   2.609 -0.1839 -1.2547 -0.7713
  438MOL0     C57702   7.899   0.529   2.640  0.4978  0.4977  1.0915
  438MOL0     C57703   7.973   0.563   2.534 -0.2734  0.2932 -0.4059
  438MOL0     C57704   8.058   0.686   2.514  0.2820  0.6402  0.3289
  438MOL0     C57705   8.200   0.647   2.536  0.7921 -0.0183 -0.3907
  438MOL0     C57706   8.298   0.769   2.522  0.3427  0.0491  0.1263
  438MOL0     C57707   8.269   0.882   2.618 -0.4871  0.6911  0.1150
  438MOL0     O57708   8.291   0.829   2.760  0.1627 -0.1688  0.5394
  438MOL0     C57709   8.188   0.836   2.849 -0.3270  0.5635  0.1256
  438MOL0     C57710   8.144   0.729   2.923 -0.0619 -0.4813 -0.0862
  438MOL0     C57711   8.050   0.738   3.027 -0.0005 -0.3021  0.9176
  438MOL0     C57712   7.984   0.863   3.056 -0.4222  0.4116  0.5667
  438MOL0     C57713   7.881   0.877   3.158 -0.7519  0.2205  0.5494
  438MOL0     O57714   7.832   0.759   3.192 -0.8771 -0.1054  0.2158
  438MOL0     C57715   7.730   0.753   3.278  0.6612  0.0367 -0.6912
  438MOL0     C57716   7.752   0.692   3.402 -0.0325  0.3572  0.5040
  438MOL0     C57717   7.648   0.675   3.493  0.0426 -0.4528 -1.2864
  438MOL0     C57718   7.512   0.707   3.462  0.4384  0.4685 -0.7734
  438MOL0     O57719   7.403   0.706   3.553 -0.1490 -0.1338  0.5238
  438MOL0     C57720   7.313   0.604   3.506 -0.3664 -0.4059 -0.5941
  438MOL0     C57721   7.181   0.609   3.586  0.7346 -0.1235 -0.5227
  438MOL0     C57722   7.075   0.506   3.548  0.2603  0.6552 -0.3091
  438MOL0     C57723   6.939   0.536   3.605  1.1420  0.1543  0.4535
  438MOL0     C57724   6.819   0.447   3.556 -0.3330  0.6140  0.7862
  438MOL0     C57725   6.698   0.516   3.620  0.4237  0.4936  0.5141
  438MOL0     C57726   6.570   0.440   3.592 -0.2390 -0.2183 -0.4471
  438MOL0     C57727   6.456   0.539   3.583 -0.0610 -0.2316 -0.1484
  438MOL0    Cl57728   6.307   0.441   3.560 -0.1241  0.1849  0.0273
  438MOL0     C57729   7.489   0.748   3.331 -0.5673  0.2141  0.3876
  438MOL0     C57730   7.598   0.777   3.245  0.8326 -1.1258 -0.3308
  438MOL0     O57731   7.841   0.984   3.186  0.7821 -0.4615  0.0155
  438MOL0     C57732   8.017   0.969   2.971  0.0593  0.1532 -0.1106
  438MOL0     C57733   8.119   0.955   2.875  0.0798  1.0970  0.8223
  438MOL0     N57734   7.966   0.452   2.443  0.4734  0.2115  0.1300
  438MOL0     N57735   7.887   0.365   2.497  1.3468 -0.1741 -0.5036
  438MOL0     C57736   6.731   0.332   2.637  0.1677  0.1760 -0.3314
  438MOL0     C57737   6.609   0.359   2.571 -0.5872  0.5566  0.2545
  438MOL0     C57738   6.198   0.427   2.412 -0.0143 -0.5356  0.4765
  438MOL0     C57739   6.098   0.383   2.497  0.6461  0.7670  0.7661
  438MOL0     C57740   5.967   0.410   2.476 -0.2694  0.7099  0.1582
  438MOL0     C57741   5.922   0.482   2.369 -0.6678  0.4463 -0.5921
  438MOL0     O57742   5.796   0.506   2.335  0.4025  0.2380  0.0576
  438MOL0     C57743   5.705   0.523   2.448  0.0771 -0.2240 -0.3110
  438MOL0     C57744   5.650   0.384   2.487  0.6585  0.3462  0.1863
  438MOL0     C57745   5.486   0.384   2.503 -0.9401 -1.5021 -0.0320
  438MOL0     C57746   5.429   0.464   2.618 -0.2788  0.0183  0.2197
  438MOL0     C57747   5.303   0.426   2.669  1.0973  0.6480  0.1265
  438MOL0     C57748   5.209   0.389   2.732  0.4680  0.3359 -0.6532
  438MOL0     C57749   6.025   0.537   2.292  1.0053 -0.8113  0.0981
  438MOL0     C57750   6.154   0.516   2.315 -1.3243 -0.4470  0.2758
  438MOL0     H57751   6.405   0.154   2.725  0.5453 -0.2177  1.7504
  438MOL0     H57752   6.645   0.079   2.823  1.6717  1.5611  1.1913
  438MOL0     H57753   6.935   0.092   2.633  3.3879 -3.3808  0.0938
  438MOL0     H57754   6.852   0.011   2.770  0.3801  1.1241  1.8019
  438MOL0     H57755   7.118  -0.028   2.773  1.5412  0.6356  0.8673
  438MOL0     H57756   7.045   0.064   2.909  1.1868  1.1620  0.0327
  438MOL0     H57757   7.123   0.262   2.838  1.0918 -1.1919  2.3148
  438MOL0     H57758   7.119   0.220   2.668  0.6220  2.6208  0.8997
  438MOL0     H57759   7.311   0.169   2.891 -0.2714 -1.7322 -0.2210
  438MOL0     H57760   7.328   0.055   2.755 -1.3658  0.3867 -3.9396
  438MOL0     H57761   7.361   0.357   2.755 -4.1328 -0.4582 -1.6029
  438MOL0     H57762   7.365   0.253   2.607  1.5762 -0.7666 -0.0526
  438MOL0     H57763   7.565   0.130   2.696  0.7504  0.4806 -0.3962
  438MOL0     H57764   7.544   0.238   2.836 -1.3214  4.6787  0.0019
  438MOL0     H57765   7.620   0.310   2.538 -0.6104 -1.1938  1.2563
  438MOL0     H57766   7.575   0.431   2.650 -1.0833 -0.5655  2.7008
  438MOL0     H57767   7.796   0.216   2.688  0.5325  0.8054 -0.2616
  438MOL0     H57768   7.762   0.353   2.801 -0.9840  1.2755  0.1312
  438MOL0     H57769   7.896   0.583   2.734 -1.1675 -0.8705  1.8659
  438MOL0     H57770   8.024   0.755   2.592 -0.1344 -0.5204  1.2014
  438MOL0     H57771   8.036   0.725   2.415  1.7539 -0.8960 -0.6516
  438MOL0     H57772   8.227   0.573   2.460 -1.0871 -2.1055  0.8542
  438MOL0     H57773   8.214   0.599   2.632 -3.0486  1.2428  0.9945
  438MOL0     H57774   8.401   0.730   2.528 -0.1947 -1.7597 -1.4924
  438MOL0     H57775   8.288   0.811   2.422  0.2595 -0.0021  0.1136
  438MOL0     H57776   8.169   0.921   2.595 -0.9500 -0.0464  0.8366
  438MOL0     H57777   8.335   0.967   2.598  0.0735 -0.0090 -1.1357
  438MOL0     H57778   8.197   0.634   2.914  0.5462 -0.2788  1.0486
  438MOL0     H57779   8.030   0.650   3.087  0.2086 -1.1716 -0.2502
  438MOL0     H57780   7.854   0.660   3.425 -0.5466 -1.0088  0.9927
  438MOL0     H57781   7.681   0.637   3.589  2.2624 -0.6462 -2.0747
  438MOL0     H57782   7.352   0.503   3.513  2.1139  0.5325  0.0015
  438MOL0     H57783   7.286   0.623   3.401 -0.9438  0.4343 -0.3050
  438MOL0     H57784   7.125   0.703   3.580 -1.9960 -1.4894  1.4998
  438MOL0     H57785   7.193   0.608   3.695  0.0617  0.7682 -0.4285
  438MOL0     H57786   7.114   0.411   3.586 -1.1540  0.4654  0.7813
  438MOL0     H57787   7.059   0.497   3.441  0.7860 -3.7812 -0.1914
  438MOL0     H57788   6.949   0.525   3.714  3.5747  2.8058  0.5952
  438MOL0     H57789   6.900   0.631   3.569 -0.1116 -0.8670 -1.0517
  438MOL0     H57790   6.823   0.342   3.587 -0.9032  0.1751 -0.5412
  438MOL0     H57791   6.818   0.452   3.447  3.9805  2.4882  0.6426
  438MOL0     H57792   6.690   0.607   3.558  1.2498 -0.1794 -0.6294
  438MOL0     H57793   6.714   0.534   3.726 -0.2906  0.2290  0.6709
  438MOL0     H57794   6.581   0.390   3.495  2.6193  0.7318 -0.7041
  438MOL0     H57795   6.557   0.370   3.675  0.5495  3.3257  2.9342
  438MOL0     H57796   6.466   0.606   3.496 -1.7247 -1.4699 -1.3398
  438MOL0     H57797   6.463   0.598   3.675  1.9470 -1.7729  0.7815
  438MOL0     H57798   7.394   0.771   3.285 -0.8295 -3.8520 -1.5745
  438MOL0     H57799   7.582   0.825   3.149  0.3709  0.3911  0.4583
  438MOL0     H57800   7.967   1.065   2.975  1.0157  0.6489  4.4369
  438MOL0     H57801   8.147   1.045   2.821  3.0730  0.4724  1.1676
  438MOL0     H57802   6.821   0.390   2.620 -0.4173  0.5594 -2.3004
  438MOL0     H57803   6.632   0.433   2.495 -0.4656 -1.3216 -1.6248
  438MOL0     H57804   6.126   0.325   2.584  2.2150  1.1119  0.5108
  438MOL0     H57805   5.902   0.381   2.558  1.6225  0.7100  1.7278
  438MOL0     H57806   5.620   0.585   2.419  0.4146  0.5682  0.3696
  438MOL0     H57807   5.753   0.570   2.534 -0.8991 -0.3691  0.3185
  438MOL0     H57808   5.672   0.320   2.402  2.6941  0.4458  0.5865
  438MOL0     H57809   5.686   0.341   2.581 -0.9546 -1.7412 -0.0986
  438MOL0     H57810   5.451   0.281   2.516 -1.1076 -1.4006  0.3106
  438MOL0     H57811   5.437   0.414   2.410  1.6161 -0.3991 -1.1256
  438MOL0     H57812   5.491   0.454   2.708 -0.3081 -2.1741  0.0378
  438MOL0     H57813   5.430   0.572   2.596  1.3408  0.0902  0.4647
  438MOL0     H57814   5.135   0.348   2.798  0.2044 -1.1234 -1.8164
  438MOL0     H57815   6.001   0.603   2.209  0.0918 -0.8687  0.3064
  438MOL0     H57816   6.227   0.545   2.241 -0.6776 -3.2841 -0.3105
  439MOL0     O57817   4.185   8.841   4.212  0.9015  0.2451  0.1759
  439MOL0     C57818   4.220   8.942   4.144 -0.2880 -0.0186  0.2280
  439MOL0     O57819   4.139   9.053   4.123  0.2306  0.5651  0.0025
  439MOL0     C57820   4.004   9.055   4.159 -0.5463 -1.0271  0.2619
  439MOL0     C57821   3.903   8.978   4.098  0.6646 -0.1322  1.0420
  439MOL0     C57822   3.765   8.993   4.131 -0.5641  0.4400 -0.2237
  439MOL0     C57823   3.728   9.085   4.242  0.0430  0.0418 -0.0449
  439MOL0     O57824   3.603   9.110   4.288  0.1684 -0.3169  0.3854
  439MOL0     C57825   3.512   9.003   4.266 -0.7400 -0.7499  0.4404
  439MOL0     C57826   3.420   9.020   4.392 -0.4787  0.5078 -0.1661
  439MOL0     C57827   3.286   8.952   4.363 -0.1080  0.4127 -0.8651
  439MOL0     C57828   3.321   8.806   4.340 -0.0820  0.1522  0.0786
  439MOL0     C57829   3.185   8.723   4.341 -1.3198  0.3151 -0.4237
  439MOL0     C57830   3.194   8.590   4.261 -0.4573 -0.4136 -0.6730
  439MOL0     C57831   3.319   8.507   4.268  0.0088 -0.7402 -0.3336
  439MOL0     C57832   3.322   8.380   4.181  0.3204 -1.0722 -0.3381
  439MOL0     N57833   3.442   8.306   4.216 -0.1145  0.4263  0.1785
  439MOL0     C57834   3.575   8.347   4.211  0.5338 -0.2866  0.1338
  439MOL0     C57835   3.651   8.259   4.280  0.2063 -0.9034 -0.2798
  439MOL0     C57836   3.798   8.263   4.298  0.0107  0.3088 -0.9197
  439MOL0     C57837   3.848   8.117   4.293  0.0119 -0.0727 -0.2360
  439MOL0     C57838   3.826   8.046   4.160 -0.5871 -0.1943  0.1181
  439MOL0     C57839   3.831   7.892   4.178 -0.6277  0.3400  0.0267
  439MOL0     O57840   3.963   7.854   4.226 -0.4661  0.4486  0.4339
  439MOL0     C57841   4.059   7.796   4.146  1.4407 -0.3766  0.0844
  439MOL0     C57842   4.035   7.757   4.018  0.7668 -0.1723 -0.3306
  439MOL0     C57843   4.133   7.695   3.942  0.4151  1.2124 -0.3308
  439MOL0     C57844   4.253   7.653   4.003  0.6185 -0.4572 -0.5105
  439MOL0     C57845   4.357   7.574   3.927 -0.0069 -0.2005 -0.1151
  439MOL0     O57846   4.359   7.590   3.790  0.2962  0.7279 -0.4340
  439MOL0     C57847   4.474   7.548   3.722 -0.0191  0.5141  1.0302
  439MOL0     C57848   4.608   7.590   3.760 -0.0558 -0.4407 -0.7890
  439MOL0     C57849   4.716   7.523   3.708 -0.7404 -0.3288 -0.4217
  439MOL0     C57850   4.710   7.431   3.603  0.1043 -0.4455  0.6738
  439MOL0     O57851   4.817   7.354   3.546  0.6268  0.6666  0.3465
  439MOL0     C57852   4.930   7.343   3.630  0.1976  0.3065 -0.1080
  439MOL0     C57853   5.026   7.240   3.563 -0.1909 -0.3763 -0.2544
  439MOL0     C57854   5.169   7.235   3.617 -0.1828 -0.6845  0.1256
  439MOL0     C57855   5.255   7.140   3.533 -0.7360 -0.8375 -0.0601
  439MOL0     C57856   5.408   7.161   3.567  0.0854  0.9366  0.2274
  439MOL0     C57857   5.475   7.282   3.514 -0.6128 -0.7219  0.2359
  439MOL0     C57858   5.609   7.308   3.580 -0.1418 -0.2557 -0.2204
  439MOL0     C57859   5.652   7.457   3.550 -0.1065  0.1903  1.0047
  439MOL0    Cl57860   5.807   7.499   3.625  0.5279  0.0574  0.3733
  439MOL0     C57861   4.586   7.395   3.555 -0.9870 -0.1780  0.4098
  439MOL0     C57862   4.472   7.454   3.612  0.6083 -0.7035  0.8101
  439MOL0     O57863   4.427   7.508   3.995  0.2767  0.0259  0.1241
  439MOL0     C57864   4.273   7.692   4.129  0.0232  0.0810 -0.3598
  439MOL0     C57865   4.176   7.756   4.210 -0.0719 -0.7440  0.2083
  439MOL0     N57866   3.565   8.155   4.318  0.1472  1.0013  0.7217
  439MOL0     N57867   3.444   8.177   4.280  0.1002  0.2481  0.5203
  439MOL0     C57868   3.829   9.167   4.300 -0.5791  0.2462 -0.0008
  439MOL0     C57869   3.966   9.148   4.257 -0.0481 -0.6900 -0.0397
  439MOL0     C57870   4.363   8.939   4.103  0.5976  0.2050  0.1463
  439MOL0     C57871   4.412   9.045   4.023 -0.7528 -0.2790 -0.4450
  439MOL0     C57872   4.542   9.046   3.990 -0.5684  0.5832  0.3790
  439MOL0     C57873   4.632   8.944   4.026 -0.8421  0.8682 -0.0799
  439MOL0     O57874   4.765   8.948   3.983  0.6163  0.3383  0.1348
  439MOL0     C57875   4.863   8.861   4.046 -0.0337 -0.6009  0.5741
  439MOL0     C57876   4.901   8.728   3.991 -0.7468 -0.3259 -0.2306
  439MOL0     C57877   5.049   8.688   4.027 -0.7014 -0.8159 -0.6905
  439MOL0     C57878   5.082   8.559   3.963  0.4089  0.3382 -0.6026
  439MOL0     C57879   5.224   8.544   3.963 -0.0418  0.4655 -0.5240
  439MOL0     C57880   5.342   8.537   3.941  0.0451 -0.7910 -0.8100
  439MOL0     C57881   4.584   8.837   4.098  0.1695 -0.1668  0.1265
  439MOL0     C57882   4.456   8.845   4.136  1.1216  0.0868  0.4590
  439MOL0     H57883   3.937   8.909   4.022  1.1944  0.6382  0.5735
  439MOL0     H57884   3.689   8.946   4.068  2.1465 -0.8994 -2.7643
  439MOL0     H57885   3.556   8.903   4.273  0.5969 -0.1876  0.3913
  439MOL0     H57886   3.453   9.019   4.175 -0.9166 -0.0962  0.6660
  439MOL0     H57887   3.390   9.124   4.407 -2.4374  0.1605 -1.3845
  439MOL0     H57888   3.471   8.989   4.484  1.6878  0.9993 -1.1229
  439MOL0     H57889   3.243   8.995   4.272  1.1386 -0.9001 -2.1382
  439MOL0     H57890   3.214   8.972   4.443 -0.2978  0.1074 -0.9589
  439MOL0     H57891   3.367   8.790   4.242  0.3582 -3.8403  0.7464
  439MOL0     H57892   3.384   8.768   4.421 -1.2244 -0.2183  0.8231
  439MOL0     H57893   3.095   8.773   4.305 -1.4734 -0.6626 -1.4558
  439MOL0     H57894   3.175   8.698   4.447  0.4015  1.7464  0.1248
  439MOL0     H57895   3.166   8.617   4.159 -0.0028 -1.4022 -1.0678
  439MOL0     H57896   3.116   8.526   4.303 -0.2573  0.2463  0.7689
  439MOL0     H57897   3.416   8.556   4.264  0.7298 -1.7813  2.2191
  439MOL0     H57898   3.308   8.462   4.368  1.1739 -0.1247  0.0904
  439MOL0     H57899   3.314   8.420   4.080  0.5180  2.7624  0.9911
  439MOL0     H57900   3.237   8.317   4.209 -0.6526 -0.6332 -2.1422
  439MOL0     H57901   3.614   8.440   4.171  1.4153 -0.6231  0.1846
  439MOL0     H57902   3.813   8.310   4.395 -0.7003 -1.1504 -0.0748
  439MOL0     H57903   3.849   8.321   4.220  0.8684 -0.6811 -1.1207
  439MOL0     H57904   3.796   8.065   4.374  0.8288  1.4540  1.3584
  439MOL0     H57905   3.956   8.115   4.311  0.6574 -0.5422 -3.5804
  439MOL0     H57906   3.728   8.084   4.129  0.6961  1.4954 -2.0371
  439MOL0     H57907   3.893   8.081   4.082 -2.3082 -0.5345 -1.6018
  439MOL0     H57908   3.812   7.851   4.078  1.3787  0.0917 -0.2985
  439MOL0     H57909   3.757   7.855   4.250  1.1926 -1.4955  1.0675
  439MOL0     H57910   3.944   7.770   3.960  1.2732  1.0722 -0.8853
  439MOL0     H57911   4.118   7.677   3.836  0.5895 -1.1315 -0.0198
  439MOL0     H57912   4.629   7.665   3.835  1.1063 -1.5715  0.0591
  439MOL0     H57913   4.808   7.551   3.758 -2.3017 -0.5212  2.8219
  439MOL0     H57914   4.903   7.313   3.732 -0.1192  0.8086 -0.0380
  439MOL0     H57915   4.973   7.443   3.641 -1.5202  0.9422  1.2654
  439MOL0     H57916   5.033   7.256   3.455  0.0828  1.0550 -0.0433
  439MOL0     H57917   4.987   7.138   3.573  2.5855 -1.7632 -2.2760
  439MOL0     H57918   5.167   7.200   3.720 -1.0957 -2.0375 -0.3141
  439MOL0     H57919   5.208   7.337   3.605 -1.3157 -0.4351 -2.0861
  439MOL0     H57920   5.226   7.042   3.570  0.4037 -0.2573  2.6730
  439MOL0     H57921   5.241   7.158   3.426  2.6041 -0.9693 -0.6319
  439MOL0     H57922   5.458   7.074   3.524  1.8004  1.4364  1.1479
  439MOL0     H57923   5.430   7.154   3.674 -3.0502  1.3776  1.0237
  439MOL0     H57924   5.418   7.372   3.540  1.4570  0.9881 -0.8745
  439MOL0     H57925   5.489   7.283   3.406 -0.6291  0.2689  0.2341
  439MOL0     H57926   5.596   7.314   3.688 -3.5514 -0.4951 -0.5307
  439MOL0     H57927   5.690   7.242   3.547 -1.1239 -2.1203  0.9066
  439MOL0     H57928   5.569   7.522   3.580 -1.3549 -1.3247  1.0084
  439MOL0     H57929   5.677   7.473   3.445  1.2073  0.1264  1.2907
  439MOL0     H57930   4.581   7.323   3.475 -0.3687  0.2937 -0.0656
  439MOL0     H57931   4.373   7.423   3.580  0.6707 -1.9132  1.7186
  439MOL0     H57932   4.369   7.664   4.173 -1.2638 -0.6335  2.2323
  439MOL0     H57933   4.201   7.783   4.313 -0.2111  0.8902 -0.1637
  439MOL0     H57934   3.808   9.242   4.376 -0.7246  0.3297 -0.1228
  439MOL0     H57935   4.041   9.208   4.307  0.4883 -1.9831  0.7778
  439MOL0     H57936   4.354   9.134   3.999  0.6310  1.1063  1.0635
  439MOL0     H57937   4.579   9.134   3.938  3.0164 -0.0187  1.6306
  439MOL0     H57938   4.851   8.865   4.154 -0.7531  2.3313  0.4709
  439MOL0     H57939   4.952   8.923   4.034 -1.7911  2.2079  0.8976
  439MOL0     H57940   4.828   8.658   4.035 -1.0389  0.4735  0.5820
  439MOL0     H57941   4.891   8.742   3.883  1.6248  1.1040 -0.3349
  439MOL0     H57942   5.052   8.683   4.137  1.0695 -2.0177 -0.7569
  439MOL0     H57943   5.113   8.766   3.986 -1.3864  0.4345  0.5194
  439MOL0     H57944   5.031   8.475   4.010 -2.0315  2.1302  0.1944
  439MOL0     H57945   5.049   8.573   3.859  1.7147  0.4425 -1.0229
  439MOL0     H57946   5.444   8.532   3.911  0.3375  1.8059 -0.5352
  439MOL0     H57947   4.643   8.751   4.127 -1.1771 -0.1677  3.1986
  439MOL0     H57948   4.414   8.772   4.205 -2.4016  1.2608 -0.2485
  440MOL0     O57949   5.326   6.276   3.037 -0.4860 -0.8929 -0.5560
  440MOL0     C57950   5.351   6.253   3.158  0.4763  0.3907  0.1649
  440MOL0     O57951   5.261   6.273   3.257 -0.2108  0.3151  0.4826
  440MOL0     C57952   5.130   6.301   3.235  0.4950  0.6534 -0.7607
  440MOL0     C57953   5.042   6.216   3.171  0.3747  0.6483  0.3478
  440MOL0     C57954   4.908   6.253   3.161  0.1118 -1.0781 -0.1027
  440MOL0     C57955   4.862   6.373   3.213 -0.1383 -0.2084  1.2123
  440MOL0     O57956   4.725   6.382   3.209  0.5322 -0.7495 -0.3337
  440MOL0     C57957   4.665   6.511   3.241  0.1838 -1.1069  0.5827
  440MOL0     C57958   4.531   6.509   3.172  0.2237 -0.2826  0.7503
  440MOL0     C57959   4.429   6.596   3.247  1.0088 -0.2160  0.4468
  440MOL0     C57960   4.302   6.582   3.154 -0.6402  0.6505 -0.8251
  440MOL0     C57961   4.200   6.685   3.195  0.0871  0.1491 -0.5070
  440MOL0     C57962   4.095   6.627   3.298  0.8643  0.0941  0.7437
  440MOL0     C57963   3.968   6.700   3.292 -0.2236  0.0664  0.0286
  440MOL0     C57964   3.985   6.848   3.345 -0.5917  0.3365  0.2904
  440MOL0     N57965   3.859   6.917   3.375  0.0572 -0.1176 -0.4933
  440MOL0     C57966   3.844   7.010   3.477 -0.4957 -0.1110 -0.2172
  440MOL0     C57967   3.720   7.037   3.483  0.2441 -0.2692  0.2539
  440MOL0     C57968   3.651   7.128   3.572  0.1264 -0.3847 -0.1226
  440MOL0     C57969   3.625   7.272   3.523 -0.1125  0.0605  0.0521
  440MOL0     C57970   3.572   7.374   3.625 -0.3604  0.3113  1.0665
  440MOL0     C57971   3.448   7.327   3.702  0.0649 -0.0873  0.3419
  440MOL0     O57972   3.371   7.441   3.718  1.0441  0.1558  0.1602
  440MOL0     C57973   3.245   7.424   3.750  0.4015 -0.1086 -0.0015
  440MOL0     C57974   3.204   7.317   3.831 -0.0988  0.0539 -0.6006
  440MOL0     C57975   3.071   7.298   3.847 -0.8516  0.5529 -0.0153
  440MOL0     C57976   2.975   7.377   3.788 -0.8603  0.5380 -0.7731
  440MOL0     C57977   2.833   7.344   3.795  0.5970  0.8438 -0.4970
  440MOL0     O57978   2.748   7.436   3.756  0.1331  0.1135 -0.3408
  440MOL0     C57979   2.609   7.423   3.775 -0.0625  0.3543 -0.8140
  440MOL0     C57980   2.537   7.324   3.708  0.6115 -0.5048  0.0580
  440MOL0     C57981   2.400   7.326   3.703  0.6477 -0.1620 -0.4291
  440MOL0     C57982   2.325   7.424   3.774 -0.0193 -0.3560  0.6810
  440MOL0     O57983   2.188   7.419   3.764 -0.4597 -0.0153  0.2005
  440MOL0     C57984   2.114   7.511   3.845  0.6039  0.7826  1.0702
  440MOL0     C57985   1.961   7.488   3.832  0.3354  0.6057 -0.8275
  440MOL0     C57986   1.912   7.511   3.685 -0.8202  0.2287  0.2865
  440MOL0     C57987   1.768   7.521   3.681  0.2675  0.5389  0.2786
  440MOL0     C57988   1.691   7.391   3.711  0.4983  0.2346  0.8986
  440MOL0     C57989   1.536   7.397   3.726 -0.6937 -0.7100 -0.1311
  440MOL0     C57990   1.473   7.279   3.807 -0.7661 -0.9162 -0.0747
  440MOL0     C57991   1.347   7.325   3.875  1.2150  0.7098  0.1326
  440MOL0    Cl57992   1.230   7.197   3.872  0.4258 -0.1596 -0.0589
  440MOL0     C57993   2.398   7.519   3.851 -0.2378 -0.3788 -0.3487
  440MOL0     C57994   2.535   7.512   3.857 -0.4278 -0.4483  0.1945
  440MOL0     O57995   2.796   7.237   3.841  0.3994  0.4461 -1.0504
  440MOL0     C57996   3.015   7.487   3.720 -0.0959 -0.4398 -0.2146
  440MOL0     C57997   3.154   7.521   3.706  0.1540  0.2469  0.5213
  440MOL0     N57998   3.652   6.966   3.375  1.0461  0.2660 -0.3254
  440MOL0     N57999   3.739   6.893   3.316 -0.8968 -0.1016  0.2320
  440MOL0     C58000   4.940   6.455   3.277 -0.0538  0.2217 -0.2546
  440MOL0     C58001   5.083   6.419   3.291 -0.2554 -0.1816 -0.8360
  440MOL0     C58002   5.487   6.211   3.191 -0.3824 -0.5765  0.1586
  440MOL0     C58003   5.580   6.181   3.093  0.6079 -0.3196  0.3769
  440MOL0     C58004   5.703   6.141   3.131  0.0205  0.0427  0.2843
  440MOL0     C58005   5.746   6.149   3.265 -0.2628 -0.1644  0.3034
  440MOL0     O58006   5.876   6.132   3.307  0.7583  0.3836  0.3489
  440MOL0     C58007   5.985   6.125   3.219 -0.0373 -0.1549  0.1147
  440MOL0     C58008   6.013   6.263   3.159 -0.1355  0.4409 -0.0842
  440MOL0     C58009   6.152   6.318   3.166 -1.0882 -0.2700 -0.5075
  440MOL0     C58010   6.174   6.405   3.287  0.7507  0.0995  0.7377
  440MOL0     C58011   6.176   6.331   3.411 -0.2425  0.0752  0.2353
  440MOL0     C58012   6.186   6.264   3.513  0.7245  0.0369  0.1342
  440MOL0     C58013   5.657   6.169   3.363  0.4178 -0.6864 -0.4589
  440MOL0     C58014   5.525   6.202   3.327  0.1949  0.4838 -0.7819
  440MOL0     H58015   5.078   6.120   3.133  0.4906  0.1927  1.5704
  440MOL0     H58016   4.835   6.196   3.106 -0.1642 -0.7973 -0.0329
  440MOL0     H58017   4.724   6.598   3.210  1.9974 -1.6509  2.2778
  440MOL0     H58018   4.655   6.509   3.350  2.1288 -1.5636  0.7913
  440MOL0     H58019   4.493   6.407   3.160  0.0631 -0.0860 -0.6843
  440MOL0     H58020   4.544   6.546   3.070  2.1027 -0.6471  0.8244
  440MOL0     H58021   4.456   6.701   3.258 -2.5611  1.1663 -2.3303
  440MOL0     H58022   4.421   6.546   3.344 -0.0980 -3.4930 -1.1971
  440MOL0     H58023   4.340   6.607   3.055 -0.6033  1.9348 -0.5003
  440MOL0     H58024   4.264   6.479   3.148 -0.5534  0.7114 -4.0505
  440MOL0     H58025   4.136   6.708   3.109 -3.3361 -3.4907  0.7934
  440MOL0     H58026   4.246   6.776   3.235 -1.1708  0.1711  0.9528
  440MOL0     H58027   4.141   6.645   3.396  1.2428  0.9357  0.4234
  440MOL0     H58028   4.075   6.522   3.276 -2.2447  0.6953  0.2797
  440MOL0     H58029   3.922   6.703   3.193 -0.4758  0.7010  0.1545
  440MOL0     H58030   3.901   6.655   3.366 -0.3969  1.9332  1.0720
  440MOL0     H58031   4.027   6.915   3.269 -1.4243  2.5572  1.7111
  440MOL0     H58032   4.057   6.853   3.428 -1.9545 -1.2445  1.6528
  440MOL0     H58033   3.916   7.053   3.546 -0.4009 -2.2783  1.1207
  440MOL0     H58034   3.723   7.137   3.654  1.5634  0.9487 -1.4515
  440MOL0     H58035   3.561   7.075   3.605  0.4089 -1.5657 -1.1850
  440MOL0     H58036   3.539   7.241   3.462 -0.6024  0.5176  0.4968
  440MOL0     H58037   3.703   7.311   3.457 -3.4901  2.1832 -3.0857
  440MOL0     H58038   3.649   7.389   3.701  0.4906 -1.4908  0.6092
  440MOL0     H58039   3.560   7.475   3.587  0.9249  1.0436  2.4972
  440MOL0     H58040   3.488   7.291   3.797 -1.5665  0.0086  1.1025
  440MOL0     H58041   3.403   7.244   3.648  2.2950  0.2773 -2.3078
  440MOL0     H58042   3.273   7.246   3.876  0.7290  1.3733  0.2947
  440MOL0     H58043   3.037   7.221   3.916  0.5722  0.7030  0.8860
  440MOL0     H58044   2.589   7.258   3.639 -2.1301 -2.2109 -0.5124
  440MOL0     H58045   2.360   7.246   3.642  0.9454 -1.2571  0.7665
  440MOL0     H58046   2.131   7.615   3.814 -0.4344 -0.0633 -3.0214
  440MOL0     H58047   2.127   7.500   3.953 -1.1379  1.3504  1.3824
  440MOL0     H58048   1.908   7.558   3.897 -2.3355 -2.0279  0.0515
  440MOL0     H58049   1.936   7.385   3.861 -1.9455  1.8518  2.1469
  440MOL0     H58050   1.952   7.425   3.631 -0.1273  0.2847  0.6862
  440MOL0     H58051   1.953   7.607   3.653  0.4832 -0.6370 -0.7824
  440MOL0     H58052   1.744   7.603   3.750  0.1138  0.3244  0.4830
  440MOL0     H58053   1.730   7.549   3.583 -0.8295 -0.8840  0.2634
  440MOL0     H58054   1.724   7.327   3.793 -0.9919 -1.0332  0.5447
  440MOL0     H58055   1.712   7.320   3.631 -2.5222 -2.1730  2.0663
  440MOL0     H58056   1.480   7.407   3.632 -0.9819 -1.0634 -0.0016
  440MOL0     H58057   1.524   7.488   3.786 -1.5007 -1.6654  1.2131
  440MOL0     H58058   1.464   7.199   3.734 -0.3653  0.8660 -2.2075
  440MOL0     H58059   1.544   7.236   3.878  1.0946 -1.1061 -1.9311
  440MOL0     H58060   1.301   7.409   3.821 -0.0550 -0.3294 -0.4492
  440MOL0     H58061   1.369   7.361   3.976  1.5661 -0.4357  0.4769
  440MOL0     H58062   2.351   7.590   3.918  4.0325  1.1960  1.3243
  440MOL0     H58063   2.591   7.586   3.913  2.2742 -1.7084 -0.6836
  440MOL0     H58064   2.942   7.550   3.670 -1.2197 -2.0650 -0.7113
  440MOL0     H58065   3.198   7.604   3.651 -2.5426  1.5558  0.1700
  440MOL0     H58066   4.900   6.540   3.330  0.2606  2.6034 -3.5664
  440MOL0     H58067   5.156   6.485   3.337  1.0202 -2.1793  0.1265
  440MOL0     H58068   5.544   6.186   2.991 -2.3552 -0.2507  1.3137
  440MOL0     H58069   5.760   6.119   3.041 -1.5950 -1.2098 -0.4819
  440MOL0     H58070   5.983   6.049   3.141  1.8608 -1.6273  1.3715
  440MOL0     H58071   6.070   6.079   3.271  0.1347 -1.8527 -1.5536
  440MOL0     H58072   6.000   6.258   3.051 -1.4937  1.6913  0.0032
  440MOL0     H58073   5.936   6.330   3.198 -1.1559 -1.7630  2.0153
  440MOL0     H58074   6.176   6.386   3.084 -0.3148 -0.2200 -0.2524
  440MOL0     H58075   6.228   6.239   3.173  0.8805  1.5230 -0.7832
  440MOL0     H58076   6.275   6.447   3.278  0.1064  1.6102 -0.0128
  440MOL0     H58077   6.101   6.487   3.283  0.7608  0.1378  1.2835
  440MOL0     H58078   6.193   6.203   3.601 -0.1816 -0.6947 -0.2836
  440MOL0     H58079   5.683   6.163   3.468 -0.1477  1.2432 -0.1729
  440MOL0     H58080   5.446   6.210   3.401  1.8896 -0.8097  1.2825
  441MOL0     O58081   2.389   5.234   5.085 -0.3648 -0.4078  0.9807
  441MOL0     C58082   2.460   5.323   5.135 -0.7639  0.7961  0.5967
  441MOL0     O58083   2.422   5.451   5.173 -0.2256 -0.6403 -0.0734
  441MOL0     C58084   2.298   5.487   5.140 -0.0690 -0.2443  0.9639
  441MOL0     C58085   2.190   5.418   5.181 -0.4628 -0.0532  0.2801
  441MOL0     C58086   2.066   5.447   5.136 -1.1140 -0.5356  0.1782
  441MOL0     C58087   2.044   5.542   5.041 -0.0072 -0.7130  0.7444
  441MOL0     O58088   1.917   5.563   5.005  0.7266 -0.0487 -0.2797
  441MOL0     C58089   1.865   5.691   5.064 -0.0256  0.8507 -0.7179
  441MOL0     C58090   1.713   5.711   5.054  0.1780  0.1899 -0.4671
  441MOL0     C58091   1.638   5.610   5.149  0.5803 -0.9967 -0.5414
  441MOL0     C58092   1.487   5.605   5.122 -0.5595  0.2796 -0.8266
  441MOL0     C58093   1.438   5.483   5.038  0.0331  0.5332  0.4559
  441MOL0     C58094   1.280   5.469   5.041  0.1601  0.0523 -0.4232
  441MOL0     C58095   1.237   5.347   4.956  0.4578 -1.6714  0.0913
  441MOL0     C58096   1.088   5.319   4.929 -0.2715 -0.7029 -0.2998
  441MOL0     N58097   1.007   5.307   5.050  0.0697  0.3348  0.1566
  441MOL0     C58098   0.927   5.401   5.108 -0.0747  0.1003  0.3891
  441MOL0     C58099   0.867   5.333   5.213  0.7789 -0.3714 -0.1011
  441MOL0     C58100   0.769   5.386   5.309 -0.1775  0.0410 -0.1532
  441MOL0     C58101   0.623   5.359   5.291 -0.3928  0.4215 -0.2977
  441MOL0     C58102   0.542   5.434   5.412 -1.2784  0.3133  1.3668
  441MOL0     C58103   0.414   5.358   5.424  0.0871 -0.1045 -0.4874
  441MOL0     O58104   0.359   5.391   5.545  0.2100 -0.5875 -0.6180
  441MOL0     C58105   0.228   5.358   5.576 -0.0558 -0.6816  0.0489
  441MOL0     C58106   0.181   5.411   5.695  1.1964 -1.0847  0.1490
  441MOL0     C58107   0.043   5.402   5.730  0.0259 -0.6482  0.2782
  441MOL0     C58108  -0.044   5.319   5.655 -0.8643 -0.3225 -0.2861
  441MOL0     C58109  -0.186   5.292   5.699 -0.7553  0.0203 -0.5198
  441MOL0     O58110  -0.261   5.204   5.622  0.3372  0.1657 -1.0386
  441MOL0     C58111  -0.394   5.202   5.640  0.2494 -0.0605 -0.8627
  441MOL0     C58112  -0.478   5.313   5.647 -0.1353 -0.1185 -0.0588
  441MOL0     C58113  -0.616   5.298   5.667  0.0455  0.9417 -0.1898
  441MOL0     C58114  -0.676   5.167   5.656  0.1736 -0.0932  1.0158
  441MOL0     O58115  -0.810   5.150   5.660 -0.2894 -0.0356 -0.4117
  441MOL0     C58116  -0.878   5.218   5.762  0.0469 -0.0753  0.6704
  441MOL0     C58117  -0.979   5.129   5.823  0.5960  0.1272  1.7575
  441MOL0     C58118  -1.099   5.092   5.725 -0.1371 -0.4086 -0.1907
  441MOL0     C58119  -1.197   5.206   5.681 -0.8025 -0.1706  0.6304
  441MOL0     C58120  -1.271   5.267   5.809 -0.4748 -0.1399 -0.1514
  441MOL0     C58121  -1.406   5.343   5.768  0.7278  0.1442 -0.1453
  441MOL0     C58122  -1.440   5.467   5.854 -0.0210  0.3993 -0.0324
  441MOL0     C58123  -1.489   5.414   5.988 -0.7778 -0.2070 -0.0740
  441MOL0    Cl58124  -1.499   5.543   6.104 -0.4665 -0.1263  0.4972
  441MOL0     C58125  -0.586   5.063   5.633  0.6074  0.6809  0.6356
  441MOL0     C58126  -0.445   5.073   5.638  0.0572 -0.0893  0.8883
  441MOL0     O58127  -0.224   5.361   5.794  0.6760  0.1017 -0.2737
  441MOL0     C58128   0.015   5.270   5.544  0.6386  0.4207 -1.0784
  441MOL0     C58129   0.141   5.286   5.490 -1.7539 -0.0599 -0.7926
  441MOL0     N58130   0.935   5.213   5.223 -0.9072  1.3343 -0.1928
  441MOL0     N58131   1.017   5.192   5.125 -0.9874  0.1749 -0.4367
  441MOL0     C58132   2.156   5.616   4.994  0.0756  0.0446 -0.0569
  441MOL0     C58133   2.285   5.582   5.042 -0.4019  0.2151 -0.1024
  441MOL0     C58134   2.599   5.286   5.167 -0.3883 -0.2984 -0.0109
  441MOL0     C58135   2.640   5.153   5.167 -0.0946 -0.1581  0.6668
  441MOL0     C58136   2.775   5.121   5.191 -0.0289 -0.0805 -0.4162
  441MOL0     C58137   2.872   5.220   5.218 -0.2129  0.3325  0.1971
  441MOL0     O58138   3.004   5.203   5.231 -0.7124 -0.6042  0.2105
  441MOL0     C58139   3.046   5.072   5.260  0.5757 -0.1307 -0.1372
  441MOL0     C58140   3.199   5.065   5.288  0.3320  0.7376  0.0267
  441MOL0     C58141   3.285   5.119   5.167 -0.9135  0.1254 -0.3935
  441MOL0     C58142   3.436   5.070   5.165  0.3111  1.0960 -0.4389
  441MOL0     C58143   3.504   5.104   5.292 -0.2131  0.0640 -0.0875
  441MOL0     C58144   3.548   5.149   5.393  0.2719  0.6681 -0.6745
  441MOL0     C58145   2.825   5.349   5.220 -0.6884 -0.4333 -0.6463
  441MOL0     C58146   2.691   5.381   5.194  0.0721 -0.5619 -1.3540
  441MOL0     H58147   2.194   5.347   5.263  0.8739  0.4259  0.6593
  441MOL0     H58148   1.981   5.390   5.173 -0.4182 -2.2643 -0.7486
  441MOL0     H58149   1.903   5.773   5.003  1.7155 -0.7351 -1.8544
  441MOL0     H58150   1.899   5.704   5.168 -1.8735  2.1440 -0.2325
  441MOL0     H58151   1.682   5.669   4.958  0.1886 -0.1845 -0.3094
  441MOL0     H58152   1.673   5.812   5.063  1.2408  0.6753 -1.1057
  441MOL0     H58153   1.642   5.657   5.247 -0.8874  0.1650 -1.0004
  441MOL0     H58154   1.688   5.514   5.161  1.0303 -1.1485 -3.0549
  441MOL0     H58155   1.442   5.600   5.221  0.7303  1.3975 -0.1579
  441MOL0     H58156   1.465   5.700   5.072  0.4121  0.8173 -0.2547
  441MOL0     H58157   1.472   5.388   5.079 -1.2694 -0.7430 -1.2736
  441MOL0     H58158   1.483   5.499   4.940  0.3948 -2.4525  0.0537
  441MOL0     H58159   1.236   5.568   5.023 -0.3341 -0.0743  0.0767
  441MOL0     H58160   1.266   5.449   5.148  1.4936 -0.7966 -0.3805
  441MOL0     H58161   1.285   5.363   4.858 -1.3737 -1.9002 -0.8925
  441MOL0     H58162   1.279   5.257   5.002 -0.7871 -1.4190  1.7965
  441MOL0     H58163   1.083   5.229   4.868 -1.6161 -1.1917  0.5006
  441MOL0     H58164   1.056   5.408   4.872 -1.0379 -0.1818  0.8940
  441MOL0     H58165   0.914   5.505   5.077 -0.9370 -0.8230 -2.7731
  441MOL0     H58166   0.785   5.492   5.328  1.1514 -0.0334 -0.7328
  441MOL0     H58167   0.798   5.338   5.403 -1.6662  1.7999  1.2801
  441MOL0     H58168   0.608   5.251   5.300  0.4853  0.2588 -0.7367
  441MOL0     H58169   0.599   5.404   5.194 -0.5975 -2.4855 -1.6995
  441MOL0     H58170   0.597   5.432   5.507  0.1643 -0.5814  0.5645
  441MOL0     H58171   0.511   5.531   5.374 -1.4642 -0.9599 -2.1193
  441MOL0     H58172   0.426   5.250   5.420  1.1295 -0.0911  1.1688
  441MOL0     H58173   0.345   5.385   5.344 -1.7145  1.4643  1.4666
  441MOL0     H58174   0.241   5.476   5.758 -1.3691  2.8987 -1.1498
  441MOL0     H58175   0.015   5.452   5.822 -0.1802 -0.6732  0.2292
  441MOL0     H58176  -0.443   5.416   5.651  5.2401 -1.6430  0.7128
  441MOL0     H58177  -0.675   5.387   5.690 -0.0992  0.9396 -0.5499
  441MOL0     H58178  -0.913   5.315   5.723 -0.1568 -1.1034 -1.9479
  441MOL0     H58179  -0.808   5.239   5.843  0.5153  1.3737 -0.0578
  441MOL0     H58180  -1.030   5.180   5.905 -1.9859  0.7362 -0.1224
  441MOL0     H58181  -0.919   5.044   5.858  2.1305 -0.2773 -1.4880
  441MOL0     H58182  -1.161   5.010   5.764 -2.7379 -0.4272 -3.8361
  441MOL0     H58183  -1.056   5.046   5.635  1.0158  2.0454 -0.9663
  441MOL0     H58184  -1.144   5.285   5.627  3.1283 -0.8325  3.0938
  441MOL0     H58185  -1.269   5.155   5.616  1.8047 -2.1456 -0.9215
  441MOL0     H58186  -1.196   5.336   5.848 -0.7465 -0.9250  1.8558
  441MOL0     H58187  -1.284   5.188   5.883 -1.7485  0.5417  0.3792
  441MOL0     H58188  -1.474   5.260   5.787  1.5447 -0.8807 -1.5677
  441MOL0     H58189  -1.413   5.367   5.662 -2.5960 -2.7943 -0.7606
  441MOL0     H58190  -1.352   5.530   5.871  1.3951 -1.0461 -1.5332
  441MOL0     H58191  -1.515   5.525   5.800 -0.6310 -0.9725 -0.6925
  441MOL0     H58192  -1.429   5.333   6.031  3.0345  2.2751 -0.2350
  441MOL0     H58193  -1.589   5.372   5.980 -0.9702 -0.2265  2.0254
  441MOL0     H58194  -0.630   4.964   5.619 -3.1765  2.3068 -0.5310
  441MOL0     H58195  -0.380   4.986   5.637 -0.7360 -0.7056 -0.8805
  441MOL0     H58196  -0.050   5.204   5.487  1.0366 -0.1580 -0.8692
  441MOL0     H58197   0.174   5.230   5.403  3.4993 -1.8383  1.8942
  441MOL0     H58198   2.138   5.689   4.915 -0.7937  2.8276  2.5481
  441MOL0     H58199   2.378   5.614   4.997  1.2566 -1.0548  2.1763
  441MOL0     H58200   2.575   5.066   5.157  0.4756 -0.5364  0.1339
  441MOL0     H58201   2.802   5.017   5.175  2.0023 -0.0031  1.8219
  441MOL0     H58202   3.028   5.006   5.174 -1.2674 -1.9638  1.5497
  441MOL0     H58203   2.989   5.024   5.340  1.4705 -0.9310  0.0431
  441MOL0     H58204   3.217   5.129   5.375 -2.3705  3.0903 -0.9899
  441MOL0     H58205   3.218   4.962   5.318 -1.4909  0.0643 -1.0250
  441MOL0     H58206   3.280   5.227   5.152  0.2627  0.5518  1.9454
  441MOL0     H58207   3.232   5.079   5.079 -1.3687 -0.4802  0.1432
  441MOL0     H58208   3.431   4.961   5.154 -2.0645  1.0966 -0.0677
  441MOL0     H58209   3.484   5.101   5.072 -0.6604 -4.7140 -3.3109
  441MOL0     H58210   3.614   5.174   5.474  2.2705 -0.1245 -1.9740
  441MOL0     H58211   2.902   5.421   5.242  0.3549 -1.8341  0.4592
  441MOL0     H58212   2.686   5.489   5.184  1.3671 -0.1707  1.3046
  442MOL0     O58213  10.757  10.889   7.448  0.4514 -0.2679  0.1481
  442MOL0     C58214  10.720  10.835   7.347 -0.4807 -0.3760  0.4232
  442MOL0     O58215  10.598  10.847   7.283 -0.5645 -0.1273  0.3049
  442MOL0     C58216  10.500  10.914   7.353  0.5041  0.3721 -0.8275
  442MOL0     C58217  10.490  11.054   7.371  0.4745 -0.5251 -0.2840
  442MOL0     C58218  10.376  11.121   7.434 -0.5370  0.0695 -0.4616
  442MOL0     C58219  10.263  11.041   7.469 -0.7716 -1.2429  0.1876
  442MOL0     O58220  10.148  11.104   7.510  0.3182 -0.0907 -0.2157
  442MOL0     C58221  10.020  11.044   7.473 -0.0566 -0.3178 -0.1405
  442MOL0     C58222   9.915  11.159   7.476  0.1203 -0.7767  0.8085
  442MOL0     C58223   9.970  11.287   7.410 -0.5633 -0.3339 -0.1729
  442MOL0     C58224   9.851  11.384   7.412 -0.6361 -0.1879 -0.1299
  442MOL0     C58225   9.734  11.330   7.332 -0.4419 -0.1987 -0.6181
  442MOL0     C58226   9.632  11.435   7.276  0.2316  0.3244  0.4177
  442MOL0     C58227   9.598  11.551   7.364  1.2302 -0.4046 -0.0590
  442MOL0     C58228   9.514  11.511   7.492 -0.0257  0.7704  1.0905
  442MOL0     N58229   9.468  11.639   7.549  0.4125 -0.1033 -0.7867
  442MOL0     C58230   9.376  11.725   7.495 -0.4278 -0.2032 -0.4209
  442MOL0     C58231   9.338  11.802   7.601 -0.9978 -0.6747  0.4614
  442MOL0     C58232   9.239  11.908   7.599 -0.1631 -1.1685  0.6862
  442MOL0     C58233   9.095  11.846   7.611 -0.2456 -0.7274 -0.1870
  442MOL0     C58234   8.987  11.950   7.598 -0.0724  0.7824  0.6250
  442MOL0     C58235   8.855  11.899   7.552 -0.2622 -0.6938 -0.2880
  442MOL0     O58236   8.861  11.794   7.453  0.4482 -0.3993 -0.1911
  442MOL0     C58237   8.744  11.753   7.402  0.2551  1.4478 -0.4619
  442MOL0     C58238   8.613  11.769   7.443  0.6500  0.4544 -0.0905
  442MOL0     C58239   8.506  11.711   7.369  0.3547  0.1096 -0.6574
  442MOL0     C58240   8.520  11.624   7.258  0.1579  0.0131 -1.6898
  442MOL0     C58241   8.407  11.552   7.202  0.6892  0.6760  0.0177
  442MOL0     O58242   8.284  11.616   7.216  0.6962 -0.1117 -0.1477
  442MOL0     C58243   8.180  11.555   7.147  0.7160 -0.5440  0.3791
  442MOL0     C58244   8.090  11.466   7.209  0.7231  0.3212 -0.0137
  442MOL0     C58245   7.993  11.406   7.127  0.8500  0.4145 -0.8235
  442MOL0     C58246   7.981  11.428   6.993 -0.2820  0.5764  0.0949
  442MOL0     O58247   7.870  11.379   6.925  0.7851 -0.0221 -0.9457
  442MOL0     C58248   7.754  11.469   6.935 -0.5537  0.2074 -0.4937
  442MOL0     C58249   7.656  11.451   6.817 -0.0125  0.1067  0.4565
  442MOL0     C58250   7.593  11.573   6.759 -0.6186  0.0399 -0.6703
  442MOL0     C58251   7.509  11.545   6.633  0.2901 -0.1134 -0.1371
  442MOL0     C58252   7.429  11.667   6.591  1.1872 -0.3544  0.3637
  442MOL0     C58253   7.298  11.686   6.667  0.1085  0.5896  0.8098
  442MOL0     C58254   7.210  11.560   6.671  0.6345  0.2631 -0.2503
  442MOL0     C58255   7.066  11.593   6.719  0.1076  0.6229 -0.1748
  442MOL0    Cl58256   6.974  11.451   6.777 -0.2762  0.2403 -0.0681
  442MOL0     C58257   8.075  11.509   6.928 -0.0669  0.1248 -0.5132
  442MOL0     C58258   8.166  11.576   7.010 -0.0289 -0.2428 -0.3288
  442MOL0     O58259   8.425  11.441   7.150 -0.0426 -0.6497 -0.1585
  442MOL0     C58260   8.649  11.614   7.222 -0.3709 -0.6806  0.5917
  442MOL0     C58261   8.758  11.666   7.295 -0.5704 -0.3546  0.6547
  442MOL0     N58262   9.408  11.757   7.715  0.1948 -0.7250  0.2797
  442MOL0     N58263   9.494  11.662   7.681 -0.1562 -0.2709  0.6976
  442MOL0     C58264  10.269  10.902   7.443  0.4442 -0.1934  0.4347
  442MOL0     C58265  10.381  10.841   7.381  0.4018 -0.2953 -1.0112
  442MOL0     C58266  10.827  10.755   7.272 -0.6600 -0.4501 -0.3080
  442MOL0     C58267  10.800  10.709   7.142 -0.2674 -0.6165 -0.7167
  442MOL0     C58268  10.883  10.632   7.062 -0.0881  0.5991 -0.4249
  442MOL0     C58269  11.000  10.588   7.113 -0.3941  0.2309 -0.7044
  442MOL0     O58270  11.088  10.512   7.045 -0.9041 -0.2902  0.1315
  442MOL0     C58271  11.073  10.483   6.907  0.3515 -0.3085 -1.1766
  442MOL0     C58272  11.052  10.323   6.893  0.0184 -0.9402  0.7423
  442MOL0     C58273  10.918  10.270   6.968  0.7148 -0.6904 -0.1220
  442MOL0     C58274  10.883  10.123   6.946 -0.9315 -0.0528 -0.2835
  442MOL0     C58275  10.813  10.104   6.817  1.3946  0.1848 -0.0220
  442MOL0     C58276  10.746  10.104   6.719 -0.7365 -0.4575  0.6507
  442MOL0     C58277  11.033  10.622   7.247  0.2186  0.1257  0.4843
  442MOL0     C58278  10.952  10.710   7.319  0.0042  0.4747  0.5208
  442MOL0     H58279  10.577  11.113   7.345  0.4134 -1.2325 -2.2547
  442MOL0     H58280  10.371  11.228   7.449  0.0768  0.2536 -1.4349
  442MOL0     H58281   9.986  10.974   7.549 -0.4107  0.0066  0.0020
  442MOL0     H58282  10.030  10.988   7.379 -0.4037  0.2570 -0.5281
  442MOL0     H58283   9.882  11.179   7.579 -0.9449 -0.0015  0.3322
  442MOL0     H58284   9.832  11.115   7.419  0.7898 -1.8970  0.6728
  442MOL0     H58285   9.996  11.266   7.306 -1.3881  0.3246 -0.5233
  442MOL0     H58286  10.054  11.331   7.466 -1.0147  0.7589 -0.3215
  442MOL0     H58287   9.821  11.415   7.513  4.0813 -0.3018  1.5687
  442MOL0     H58288   9.876  11.479   7.365 -1.5069  2.5568  4.3189
  442MOL0     H58289   9.682  11.256   7.394 -1.3169 -1.2873 -2.5659
  442MOL0     H58290   9.765  11.276   7.242  1.7384 -0.2685  0.1139
  442MOL0     H58291   9.546  11.375   7.246 -1.5772  1.8724  2.2227
  442MOL0     H58292   9.671  11.470   7.179 -4.3526 -0.0279 -1.8414
  442MOL0     H58293   9.688  11.605   7.397 -0.0089  0.9371  1.3158
  442MOL0     H58294   9.543  11.617   7.297  1.5458 -0.9469 -0.8580
  442MOL0     H58295   9.577  11.445   7.552  0.0473  0.8738  1.1290
  442MOL0     H58296   9.424  11.452   7.470 -0.1399  0.8644  1.3060
  442MOL0     H58297   9.335  11.740   7.396 -2.5911 -1.0957  0.2739
  442MOL0     H58298   9.247  11.957   7.501 -1.1617  0.1126  1.2071
  442MOL0     H58299   9.256  11.988   7.671 -0.6862  0.5983 -1.0297
  442MOL0     H58300   9.082  11.813   7.714  2.7704 -1.6244  0.0016
  442MOL0     H58301   9.073  11.771   7.535 -2.5240  2.5402 -3.0855
  442MOL0     H58302   8.979  12.009   7.690 -0.2974  0.3450  0.8882
  442MOL0     H58303   9.026  11.997   7.507 -0.1351  2.2541  1.3293
  442MOL0     H58304   8.814  11.984   7.496 -2.1425 -2.2952 -1.4513
  442MOL0     H58305   8.793  11.877   7.639  2.9245  0.8165  2.5937
  442MOL0     H58306   8.596  11.830   7.531 -0.4864 -0.5955  0.4368
  442MOL0     H58307   8.410  11.716   7.419  1.1975 -0.4097  1.0986
  442MOL0     H58308   8.098  11.439   7.313 -1.4035  1.3601  0.4703
  442MOL0     H58309   7.916  11.345   7.173  1.8914  1.6787  2.9679
  442MOL0     H58310   7.788  11.573   6.943  1.0103 -0.3498  0.8335
  442MOL0     H58311   7.696  11.454   7.027  3.1437  0.2686  2.0909
  442MOL0     H58312   7.576  11.387   6.856  0.3296 -0.7049 -0.1475
  442MOL0     H58313   7.712  11.405   6.735  2.2081  0.6546  1.5914
  442MOL0     H58314   7.677  11.635   6.726  2.8210 -3.6755  0.2464
  442MOL0     H58315   7.538  11.619   6.842 -0.6934 -0.2422 -0.5630
  442MOL0     H58316   7.570  11.516   6.547  0.0195  0.6256 -0.5803
  442MOL0     H58317   7.446  11.461   6.663 -2.4116  1.1610 -1.8551
  442MOL0     H58318   7.404  11.648   6.486 -2.1367  1.3057  0.7235
  442MOL0     H58319   7.498  11.752   6.590  2.1183 -1.0894  0.3379
  442MOL0     H58320   7.256  11.769   6.610  1.6561  1.7536  1.2757
  442MOL0     H58321   7.320  11.721   6.768  2.5947 -0.1290  0.5849
  442MOL0     H58322   7.211  11.512   6.573 -2.1723 -0.1278 -0.1764
  442MOL0     H58323   7.246  11.492   6.749  0.1411  1.7225  1.3246
  442MOL0     H58324   7.000  11.640   6.645  0.7589 -0.2583 -1.3538
  442MOL0     H58325   7.082  11.661   6.803  2.1372 -2.0156  1.7291
  442MOL0     H58326   8.064  11.520   6.820 -0.0573  3.1472 -0.2799
  442MOL0     H58327   8.240  11.634   6.955  1.5305  0.4082  2.2633
  442MOL0     H58328   8.665  11.568   7.125 -0.5097  3.2467 -1.5086
  442MOL0     H58329   8.859  11.642   7.264 -1.2402  0.7500 -2.8269
  442MOL0     H58330  10.190  10.835   7.475  0.7754 -0.0850  1.5211
  442MOL0     H58331  10.390  10.733   7.373  3.5116 -0.1431 -0.7535
  442MOL0     H58332  10.714  10.755   7.095  0.4743 -1.6900 -3.2936
  442MOL0     H58333  10.846  10.611   6.962 -0.1481 -0.6412 -0.1625
  442MOL0     H58334  11.170  10.509   6.864  1.9436 -3.4554  0.1901
  442MOL0     H58335  10.994  10.544   6.863 -0.9554  0.4842  1.9957
  442MOL0     H58336  11.038  10.298   6.788 -0.0678 -0.5667  0.6645
  442MOL0     H58337  11.142  10.273   6.929  1.2868  2.0447  2.0299
  442MOL0     H58338  10.835  10.337   6.943  0.2357 -0.7653  1.1560
  442MOL0     H58339  10.931  10.268   7.077 -1.3273 -2.6217  0.1708
  442MOL0     H58340  10.971  10.059   6.938 -1.8654 -1.3852 -0.1686
  442MOL0     H58341  10.820  10.085   7.027 -1.1506  0.8119 -0.0388
  442MOL0     H58342  10.691  10.099   6.627  0.8548  1.2505 -0.4576
  442MOL0     H58343  11.127  10.586   7.288  0.2615 -0.0087  0.2674
  442MOL0     H58344  10.977  10.746   7.418 -0.6254  3.1888 -0.2175
  443MOL0     O58345   1.795   5.591   6.085 -0.4773 -0.3000  0.2441
  443MOL0     C58346   1.764   5.591   5.967 -0.7512  0.3441  0.2345
  443MOL0     O58347   1.635   5.580   5.924 -0.6289  1.0646 -0.1678
  443MOL0     C58348   1.543   5.608   6.021  0.0391  0.4404  0.5377
  443MOL0     C58349   1.536   5.735   6.076  0.7148 -0.6135 -1.1412
  443MOL0     C58350   1.454   5.760   6.186 -0.1664  0.2500 -0.1024
  443MOL0     C58351   1.348   5.667   6.207  0.3051 -0.3298  0.3721
  443MOL0     O58352   1.249   5.687   6.298  0.1605 -0.3076 -0.0453
  443MOL0     C58353   1.227   5.814   6.353  0.5654 -0.6889  0.3962
  443MOL0     C58354   1.120   5.804   6.453 -0.0191  0.0865  0.2873
  443MOL0     C58355   1.027   5.933   6.467  0.2222 -0.3227 -0.2307
  443MOL0     C58356   0.936   5.926   6.585  0.6386 -0.5112  0.0017
  443MOL0     C58357   0.936   6.056   6.662  0.0443  0.7063 -0.7330
  443MOL0     C58358   0.893   6.179   6.587  0.3640 -0.4502 -0.0872
  443MOL0     C58359   0.973   6.304   6.626  0.6217 -0.3556 -0.3339
  443MOL0     C58360   1.116   6.315   6.577  0.0711  0.4415 -0.0051
  443MOL0     N58361   1.185   6.423   6.649 -0.1455  0.5370  0.3476
  443MOL0     C58362   1.312   6.428   6.700  0.0151 -0.5464 -1.1572
  443MOL0     C58363   1.329   6.554   6.749  0.8493 -0.2517 -0.0546
  443MOL0     C58364   1.435   6.631   6.827 -0.3596 -0.5937 -0.3794
  443MOL0     C58365   1.379   6.694   6.959 -0.1053 -0.1261 -0.0114
  443MOL0     C58366   1.352   6.586   7.075  0.0794  0.1406 -1.0400
  443MOL0     C58367   1.308   6.669   7.201 -1.0133 -0.9555 -0.5546
  443MOL0     O58368   1.282   6.570   7.304 -0.2066  0.0998 -0.1447
  443MOL0     C58369   1.228   6.618   7.425 -0.0896  0.2649  0.9181
  443MOL0     C58370   1.215   6.522   7.525  0.5067  0.4615  0.3445
  443MOL0     C58371   1.151   6.552   7.641 -0.2604 -0.4818  0.0580
  443MOL0     C58372   1.114   6.678   7.671 -0.4973 -0.5018  0.0522
  443MOL0     C58373   1.055   6.709   7.803 -0.3023 -0.2255  0.8113
  443MOL0     O58374   1.043   6.842   7.838  0.4547  0.1910  0.1782
  443MOL0     C58375   0.958   6.897   7.939  0.2394 -0.9844  0.8479
  443MOL0     C58376   0.964   7.029   7.956  0.2203  0.0056 -0.0718
  443MOL0     C58377   0.905   7.096   8.062 -0.3224  0.6443 -0.5747
  443MOL0     C58378   0.817   7.023   8.145 -0.0738  1.0598 -0.9920
  443MOL0     O58379   0.737   7.068   8.246 -0.0514  0.2233  0.4512
  443MOL0     C58380   0.775   7.201   8.296 -0.8732  0.7620 -0.4784
  443MOL0     C58381   0.668   7.253   8.389 -0.4470  0.1050  0.0917
  443MOL0     C58382   0.667   7.180   8.523  0.5334 -1.4757  0.1137
  443MOL0     C58383   0.776   7.246   8.619 -0.6438 -0.1769  0.1759
  443MOL0     C58384   0.746   7.209   8.760  0.1124  0.2259 -0.0562
  443MOL0     C58385   0.745   7.054   8.791 -0.1906  0.0425 -0.0855
  443MOL0     C58386   0.723   7.043   8.941 -0.0503  0.1527 -0.6883
  443MOL0     C58387   0.741   6.892   8.971  0.1100 -0.8827 -0.8682
  443MOL0    Cl58388   0.918   6.864   9.006  0.0062 -0.2121 -0.6641
  443MOL0     C58389   0.803   6.880   8.122  0.4858 -0.8840  0.6296
  443MOL0     C58390   0.871   6.825   8.019  0.3321  0.2467 -0.2052
  443MOL0     O58391   1.018   6.613   7.865  0.0478  0.1723  0.3150
  443MOL0     C58392   1.143   6.781   7.578  0.0774 -0.5747 -0.4343
  443MOL0     C58393   1.206   6.753   7.461 -0.1838  0.2096 -0.0058
  443MOL0     N58394   1.205   6.621   6.727  0.3384 -0.1921  0.4136
  443MOL0     N58395   1.124   6.542   6.672 -0.1542  1.3197  0.1154
  443MOL0     C58396   1.349   5.549   6.128 -0.8887 -0.0671 -0.3687
  443MOL0     C58397   1.446   5.513   6.041  0.3960  0.6700  0.5218
  443MOL0     C58398   1.873   5.591   5.863 -0.1692 -0.1127  0.5403
  443MOL0     C58399   2.003   5.642   5.889  0.7721 -0.1848  0.7583
  443MOL0     C58400   2.100   5.638   5.787  0.1652  0.0194  0.4453
  443MOL0     C58401   2.066   5.581   5.660  0.4039  0.3165  0.7079
  443MOL0     O58402   2.179   5.557   5.582  0.9294 -0.0873 -0.5045
  443MOL0     C58403   2.226   5.417   5.581  0.0628 -0.7671  0.0556
  443MOL0     C58404   2.362   5.412   5.656  0.6039 -0.2738  0.3174
  443MOL0     C58405   2.472   5.463   5.556  0.7576 -0.6772 -0.4696
  443MOL0     C58406   2.617   5.415   5.588 -0.1267 -0.5171  0.1129
  443MOL0     C58407   2.670   5.473   5.716  0.5204  0.5462  0.3053
  443MOL0     C58408   2.719   5.524   5.813  0.0337 -0.1164  0.4210
  443MOL0     C58409   1.942   5.530   5.638 -0.1250  0.5129  0.1703
  443MOL0     C58410   1.844   5.543   5.732  0.3962  0.0114 -1.0203
  443MOL0     H58411   1.609   5.812   6.054  0.2059  0.5368  0.9309
  443MOL0     H58412   1.467   5.851   6.242 -0.2582 -0.8315  1.7448
  443MOL0     H58413   1.191   5.875   6.270  1.3329 -0.9799 -0.1624
  443MOL0     H58414   1.315   5.862   6.398  1.8654 -2.1407 -0.4671
  443MOL0     H58415   1.161   5.768   6.548 -2.0429 -1.7913  0.5318
  443MOL0     H58416   1.052   5.727   6.417 -1.3030  1.0903  0.4885
  443MOL0     H58417   0.966   5.937   6.376  1.8191 -1.4555 -1.3993
  443MOL0     H58418   1.094   6.020   6.465 -0.4726  0.2237 -0.2945
  443MOL0     H58419   0.829   5.914   6.567 -0.4128  5.6358 -0.1345
  443MOL0     H58420   0.970   5.851   6.658 -0.2325 -0.4842  0.4484
  443MOL0     H58421   1.041   6.067   6.693 -0.6073  2.6692  1.0463
  443MOL0     H58422   0.879   6.046   6.755 -0.9030  2.3728 -1.0756
  443MOL0     H58423   0.788   6.196   6.613  0.2651  2.7063 -2.0632
  443MOL0     H58424   0.880   6.170   6.478 -1.5092 -0.5574  0.1025
  443MOL0     H58425   0.921   6.397   6.600  1.2430 -0.0251 -0.4203
  443MOL0     H58426   0.974   6.318   6.734  0.3173  1.7057 -0.5582
  443MOL0     H58427   1.102   6.322   6.468 -1.8512  1.5296  0.2672
  443MOL0     H58428   1.168   6.223   6.606 -1.3894  0.0816  1.5897
  443MOL0     H58429   1.390   6.353   6.709 -0.3029 -0.6388  1.7088
  443MOL0     H58430   1.482   6.705   6.761 -3.6810  1.7080 -0.4127
  443MOL0     H58431   1.509   6.556   6.854  2.5780  1.2739 -2.5389
  443MOL0     H58432   1.297   6.764   6.943  1.2145  1.4103 -0.2163
  443MOL0     H58433   1.454   6.759   7.005  1.3630 -1.7681  0.0559
  443MOL0     H58434   1.276   6.512   7.048  0.4913  0.2408 -2.5568
  443MOL0     H58435   1.442   6.526   7.091 -0.4531 -0.0505  1.7612
  443MOL0     H58436   1.215   6.721   7.178 -1.3793 -0.8324  1.0956
  443MOL0     H58437   1.388   6.739   7.228  2.5472 -4.0305 -2.2399
  443MOL0     H58438   1.237   6.419   7.500 -1.2952  0.2076 -0.2868
  443MOL0     H58439   1.118   6.463   7.694 -0.2094 -1.9809 -2.2896
  443MOL0     H58440   1.041   7.066   7.890  0.3279 -3.1109 -1.8708
  443MOL0     H58441   0.927   7.202   8.072  1.7960  0.3618 -1.8117
  443MOL0     H58442   0.797   7.280   8.224 -3.5164  1.9134 -0.1188
  443MOL0     H58443   0.871   7.194   8.348  0.2313  0.3421 -2.4901
  443MOL0     H58444   0.572   7.236   8.339 -0.8579  3.5026 -0.5397
  443MOL0     H58445   0.671   7.361   8.407 -3.6653  0.0804  1.3720
  443MOL0     H58446   0.659   7.071   8.517 -0.6669 -1.3744 -0.3273
  443MOL0     H58447   0.572   7.206   8.569  1.1588  3.1060 -0.7149
  443MOL0     H58448   0.880   7.217   8.600 -0.8315 -0.7756  0.0657
  443MOL0     H58449   0.772   7.354   8.602 -0.6021  0.0159  1.3196
  443MOL0     H58450   0.646   7.246   8.784 -2.4756 -4.5045 -2.1426
  443MOL0     H58451   0.824   7.264   8.815 -0.2074  0.9456 -0.3015
  443MOL0     H58452   0.834   6.998   8.762 -0.1385 -1.7152  3.0097
  443MOL0     H58453   0.669   7.006   8.730  1.6070  0.2077 -2.5964
  443MOL0     H58454   0.787   7.114   8.994 -2.2149  1.4176  0.3852
  443MOL0     H58455   0.619   7.071   8.961 -0.8519 -0.6038 -3.3404
  443MOL0     H58456   0.701   6.825   8.894 -0.6346  0.5854 -1.8021
  443MOL0     H58457   0.697   6.863   9.067  0.8608  0.7057 -0.0101
  443MOL0     H58458   0.731   6.819   8.176  0.1572 -0.9752  0.1070
  443MOL0     H58459   0.852   6.718   8.014 -2.8131  0.6161  1.4257
  443MOL0     H58460   1.115   6.885   7.589 -2.8390 -1.1360 -1.6042
  443MOL0     H58461   1.238   6.831   7.393  1.7539 -1.6589 -1.3982
  443MOL0     H58462   1.275   5.478   6.165  0.8925 -0.4332  2.7688
  443MOL0     H58463   1.446   5.422   5.982 -0.9817  3.8975 -5.1656
  443MOL0     H58464   2.016   5.682   5.989 -1.8603  0.3726  0.9499
  443MOL0     H58465   2.199   5.678   5.804  0.2078 -0.1506  0.5958
  443MOL0     H58466   2.226   5.379   5.478  2.1170 -1.5816  0.3095
  443MOL0     H58467   2.160   5.349   5.634 -1.8789  0.9504 -0.0452
  443MOL0     H58468   2.360   5.458   5.755 -1.8136 -0.7321  0.5445
  443MOL0     H58469   2.389   5.307   5.675  0.7599 -0.7273 -2.1305
  443MOL0     H58470   2.461   5.572   5.546 -1.5605 -1.0302 -2.9909
  443MOL0     H58471   2.441   5.432   5.456 -2.8912  4.9301 -1.5714
  443MOL0     H58472   2.619   5.310   5.617  2.8660 -0.0064  2.1991
  443MOL0     H58473   2.686   5.434   5.505 -2.7337  0.8928 -1.8920
  443MOL0     H58474   2.782   5.582   5.877  0.8431 -0.6999  0.1619
  443MOL0     H58475   1.928   5.481   5.543  0.9312 -0.3820  0.4555
  443MOL0     H58476   1.743   5.506   5.718 -0.0657  0.8546 -0.1066
  444MOL0     O58477   5.847   9.321   4.676 -0.6077  0.1291 -0.0697
  444MOL0     C58478   5.879   9.224   4.611  0.2527 -0.1126  0.1476
  444MOL0     O58479   5.801   9.120   4.584  0.0640  0.4711  0.4912
  444MOL0     C58480   5.671   9.103   4.621  0.0361  0.0887 -1.3686
  444MOL0     C58481   5.597   9.168   4.732  0.0775 -0.2449  0.2198
  444MOL0     C58482   5.466   9.118   4.768  0.2293  0.0972  0.2144
  444MOL0     C58483   5.413   9.014   4.696 -0.4347 -0.3334 -0.6182
  444MOL0     O58484   5.297   8.960   4.739  0.2029 -0.5841  0.1805
  444MOL0     C58485   5.191   8.933   4.643 -0.3759  0.5974 -0.5526
  444MOL0     C58486   5.056   8.895   4.706  0.0071 -0.9147 -0.0074
  444MOL0     C58487   5.050   8.751   4.759 -0.1058 -0.4218 -0.0951
  444MOL0     C58488   4.928   8.736   4.852 -0.6239  0.2255 -0.3374
  444MOL0     C58489   4.909   8.591   4.904  0.3451 -0.3843 -0.2594
  444MOL0     C58490   4.800   8.597   5.012  0.8278 -0.6727  0.3401
  444MOL0     C58491   4.776   8.459   5.074 -0.4514 -0.5181 -0.5160
  444MOL0     C58492   4.733   8.353   4.976 -0.3715 -1.0820  0.1362
  444MOL0     N58493   4.618   8.386   4.887 -0.9171  0.2266  0.3382
  444MOL0     C58494   4.491   8.427   4.925  0.6143 -0.6847 -0.3239
  444MOL0     C58495   4.426   8.448   4.806 -0.2567 -1.5861  0.0480
  444MOL0     C58496   4.277   8.490   4.802 -0.0044 -0.5404  0.5472
  444MOL0     C58497   4.190   8.417   4.898  0.3705 -0.4895 -0.9535
  444MOL0     C58498   4.131   8.516   5.001 -0.0021  0.1945 -0.0338
  444MOL0     C58499   4.048   8.435   5.104 -0.4349 -0.8122  0.4001
  444MOL0     O58500   3.932   8.395   5.036 -0.7063 -0.0281  0.5967
  444MOL0     C58501   3.808   8.428   5.087 -0.0652  0.7227 -0.4149
  444MOL0     C58502   3.778   8.559   5.106  0.3405  0.9070  0.9024
  444MOL0     C58503   3.655   8.598   5.166 -0.4943  0.2178 -0.3601
  444MOL0     C58504   3.559   8.507   5.199  0.4576  0.1649 -0.2453
  444MOL0     C58505   3.423   8.549   5.255 -0.1626 -0.5164 -0.0946
  444MOL0     O58506   3.421   8.686   5.291 -0.0055  0.6596 -0.5622
  444MOL0     C58507   3.332   8.759   5.364  0.0267  0.0488 -0.2655
  444MOL0     C58508   3.228   8.697   5.433 -0.4031  0.5363 -0.7788
  444MOL0     C58509   3.132   8.778   5.501  0.5524 -0.4737 -0.0424
  444MOL0     C58510   3.140   8.920   5.501 -0.0169  0.4217  0.0547
  444MOL0     O58511   3.043   9.003   5.551  0.2073 -0.1884 -0.3361
  444MOL0     C58512   2.916   8.972   5.607 -0.2836  0.2211 -0.7792
  444MOL0     C58513   2.833   8.958   5.480  0.3040  0.5890 -0.1185
  444MOL0     C58514   2.692   8.949   5.524  0.6187 -0.2984  0.8016
  444MOL0     C58515   2.587   8.964   5.402 -0.3226  0.3817 -0.9338
  444MOL0     C58516   2.442   8.937   5.458 -0.3692 -1.0285 -0.3535
  444MOL0     C58517   2.419   8.794   5.508  0.3552  0.7744 -0.3985
  444MOL0     C58518   2.365   8.789   5.651  0.3234 -0.4141  0.3023
  444MOL0     C58519   2.389   8.653   5.718  0.5754 -0.0502 -0.2127
  444MOL0    Cl58520   2.293   8.529   5.643  0.0907 -0.0160  0.8359
  444MOL0     C58521   3.236   8.972   5.420 -0.1361  0.8022  0.1745
  444MOL0     C58522   3.340   8.896   5.358  0.0441 -0.0460  1.2214
  444MOL0     O58523   3.327   8.472   5.261  0.1711  0.1897  0.1150
  444MOL0     C58524   3.587   8.379   5.164  0.6431  0.3823  0.8201
  444MOL0     C58525   3.705   8.335   5.113  0.6612  0.3474 -0.5344
  444MOL0     N58526   4.510   8.417   4.701  1.0931  0.3270  0.4978
  444MOL0     N58527   4.623   8.390   4.749 -0.5254 -0.1146  0.0282
  444MOL0     C58528   5.479   8.958   4.585  0.4039 -0.3433 -0.5113
  444MOL0     C58529   5.604   9.002   4.553  0.2245  0.7420  0.0206
  444MOL0     C58530   6.014   9.228   4.554  1.3522 -0.6837  0.6461
  444MOL0     C58531   6.055   9.122   4.471 -0.2185  0.2473  0.2365
  444MOL0     C58532   6.189   9.109   4.433  0.1468  1.3673  0.0775
  444MOL0     C58533   6.279   9.220   4.461  0.0920 -0.2014  0.0267
  444MOL0     O58534   6.409   9.222   4.414  0.8267 -0.2900  0.4034
  444MOL0     C58535   6.483   9.106   4.421  0.4521  0.5350  0.2507
  444MOL0     C58536   6.626   9.144   4.465  0.4768 -0.6753 -0.0102
  444MOL0     C58537   6.707   9.207   4.344 -0.4371  0.2771 -0.5920
  444MOL0     C58538   6.859   9.236   4.392  0.4453 -0.4370 -0.6499
  444MOL0     C58539   6.920   9.110   4.436  0.8057  0.2162  0.2804
  444MOL0     C58540   6.971   9.015   4.480 -0.8730  1.3345  0.6472
  444MOL0     C58541   6.233   9.331   4.527 -0.7169  0.3960  0.5550
  444MOL0     C58542   6.106   9.336   4.570  0.4285  0.0872  0.1296
  444MOL0     H58543   5.644   9.242   4.796  0.0588  1.1219 -1.2847
  444MOL0     H58544   5.406   9.143   4.855 -0.0234 -0.9552  0.3616
  444MOL0     H58545   5.223   8.845   4.586  1.9390  0.5448  0.7019
  444MOL0     H58546   5.183   9.020   4.576  2.3353 -0.0054 -1.8040
  444MOL0     H58547   4.975   8.885   4.633  0.4794 -0.6805 -0.5811
  444MOL0     H58548   5.033   8.963   4.788  0.4061 -1.1535  0.3037
  444MOL0     H58549   5.136   8.718   4.818 -0.2463 -0.7726 -0.0794
  444MOL0     H58550   5.040   8.682   4.674 -2.1596 -0.3771  0.0526
  444MOL0     H58551   4.943   8.799   4.940 -3.5823 -0.2153  0.6035
  444MOL0     H58552   4.837   8.775   4.807 -0.9192 -1.5590 -1.3853
  444MOL0     H58553   5.004   8.566   4.953  1.7885  1.3150 -2.0231
  444MOL0     H58554   4.901   8.523   4.819  1.9891 -0.8530 -0.0832
  444MOL0     H58555   4.711   8.625   4.954  1.8671 -0.4593 -1.2048
  444MOL0     H58556   4.822   8.670   5.090 -0.3551  1.2513 -1.0290
  444MOL0     H58557   4.872   8.441   5.122 -0.8318  0.7705  0.8079
  444MOL0     H58558   4.703   8.453   5.155  0.7383 -1.1309  0.5504
  444MOL0     H58559   4.707   8.259   5.025  1.2031 -1.3402  0.5477
  444MOL0     H58560   4.825   8.339   4.919 -1.0904  0.1525 -1.4022
  444MOL0     H58561   4.469   8.468   5.023 -0.0793  0.7069 -1.0295
  444MOL0     H58562   4.239   8.474   4.701 -0.0202 -0.4003  0.5300
  444MOL0     H58563   4.259   8.598   4.806 -0.7932 -0.6300 -0.2583
  444MOL0     H58564   4.249   8.335   4.941  1.2994  0.0003 -1.2707
  444MOL0     H58565   4.113   8.359   4.847  0.2613 -3.8594  2.5810
  444MOL0     H58566   4.216   8.568   5.045 -0.0903  1.2521 -1.0832
  444MOL0     H58567   4.066   8.585   4.945 -1.3453 -2.3444 -1.8269
  444MOL0     H58568   4.026   8.497   5.191  0.8545 -1.3110  1.1267
  444MOL0     H58569   4.108   8.348   5.134  0.0400 -1.9258 -3.2371
  444MOL0     H58570   3.852   8.637   5.090 -0.4773  2.0604  2.4301
  444MOL0     H58571   3.641   8.704   5.182  0.5169 -0.0127  2.7191
  444MOL0     H58572   3.220   8.589   5.442  0.4962  0.6096  1.6225
  444MOL0     H58573   3.050   8.737   5.560  0.6740 -0.8209 -0.1107
  444MOL0     H58574   2.894   9.056   5.675  3.2760  0.9236 -0.2836
  444MOL0     H58575   2.924   8.884   5.671 -0.1845 -0.5542 -1.8302
  444MOL0     H58576   2.861   8.867   5.426  1.2360  0.0755  1.1820
  444MOL0     H58577   2.856   9.046   5.419  4.2109  0.6732  1.2005
  444MOL0     H58578   2.673   9.025   5.600  1.1310  3.7042 -2.7190
  444MOL0     H58579   2.679   8.848   5.565 -1.1359 -0.2139  0.5438
  444MOL0     H58580   2.588   9.066   5.363  0.5100 -0.3330 -2.9315
  444MOL0     H58581   2.604   8.893   5.321 -1.6351 -0.3072 -0.6313
  444MOL0     H58582   2.374   8.966   5.377 -2.2600 -2.7799  0.5338
  444MOL0     H58583   2.414   9.006   5.538  0.6892 -2.6965  1.5540
  444MOL0     H58584   2.516   8.744   5.514 -0.7011 -1.2218  1.0960
  444MOL0     H58585   2.358   8.740   5.435  3.1471 -1.9206 -0.9566
  444MOL0     H58586   2.408   8.869   5.712 -1.4178  1.2530 -0.5604
  444MOL0     H58587   2.256   8.802   5.652  0.4912  1.3633  2.1402
  444MOL0     H58588   2.361   8.655   5.823 -2.8313 -0.9762 -0.9885
  444MOL0     H58589   2.496   8.629   5.719  1.2109  2.5171  0.3559
  444MOL0     H58590   3.233   9.080   5.418  0.3315  0.8636  1.5972
  444MOL0     H58591   3.411   8.934   5.286 -2.3014  0.9237 -0.7225
  444MOL0     H58592   3.510   8.306   5.183  0.9877 -0.3741 -0.5552
  444MOL0     H58593   3.727   8.229   5.098  0.4070 -0.5358  3.9198
  444MOL0     H58594   5.428   8.872   4.542 -0.1520 -0.2337 -0.0871
  444MOL0     H58595   5.653   8.964   4.464  1.3103  1.3213  0.3500
  444MOL0     H58596   6.000   9.035   4.437  2.0832 -0.8748 -0.8207
  444MOL0     H58597   6.217   9.018   4.382 -0.3732  0.1357  1.8567
  444MOL0     H58598   6.483   9.049   4.328  0.6800 -1.2684  1.2928
  444MOL0     H58599   6.439   9.041   4.497 -1.4190  0.2888 -0.9857
  444MOL0     H58600   6.616   9.225   4.538  2.2079 -1.0201  0.6580
  444MOL0     H58601   6.655   9.055   4.521  1.3453  0.0181  0.6852
  444MOL0     H58602   6.657   9.293   4.298 -2.0414  0.0966  0.7505
  444MOL0     H58603   6.722   9.133   4.265  0.8851  0.1020 -0.2099
  444MOL0     H58604   6.918   9.267   4.306 -0.3380  0.3802 -0.9051
  444MOL0     H58605   6.865   9.315   4.467 -0.9893 -0.5777 -0.3617
  444MOL0     H58606   7.019   8.929   4.524  1.1048  1.4373 -1.1378
  444MOL0     H58607   6.299   9.416   4.516  3.8724 -3.1243 -3.4761
  444MOL0     H58608   6.071   9.425   4.621 -1.6914 -0.5620 -0.1083
  445MOL0     O58609   6.565   9.617   6.314  0.4197  0.6263  0.0656
  445MOL0     C58610   6.489   9.705   6.356 -0.1790  0.8247 -0.1547
  445MOL0     O58611   6.505   9.772   6.480  0.1518  0.3338 -0.1508
  445MOL0     C58612   6.584   9.716   6.578 -0.2122 -0.3244 -0.3557
  445MOL0     C58613   6.697   9.786   6.627  0.7563  0.2105  0.7007
  445MOL0     C58614   6.788   9.732   6.719  0.2477  0.3851 -0.8769
  445MOL0     C58615   6.763   9.601   6.775  0.8142  0.0703 -0.2286
  445MOL0     O58616   6.834   9.545   6.871 -0.1227  0.3320 -0.2177
  445MOL0     C58617   6.960   9.593   6.920  0.7693  0.4987  0.3416
  445MOL0     C58618   7.018   9.503   7.031  0.2809 -0.9955 -0.2217
  445MOL0     C58619   7.084   9.372   6.992  0.4436 -0.6477  0.7785
  445MOL0     C58620   7.114   9.280   7.107 -0.6157  0.3521 -0.1669
  445MOL0     C58621   7.212   9.170   7.063  0.1696  0.1942  0.0202
  445MOL0     C58622   7.211   9.051   7.163  0.0368 -0.2000  0.3344
  445MOL0     C58623   7.312   8.961   7.115 -0.8999  0.5367 -0.3885
  445MOL0     C58624   7.335   8.845   7.220  0.0047  0.2207  0.7726
  445MOL0     N58625   7.394   8.896   7.346 -0.6630 -0.2478  0.2022
  445MOL0     C58626   7.531   8.873   7.379  0.6138 -0.0828  0.1435
  445MOL0     C58627   7.544   8.923   7.502 -0.1553 -0.8115 -0.7464
  445MOL0     C58628   7.673   8.931   7.581 -0.3629 -0.2263 -0.2141
  445MOL0     C58629   7.778   9.009   7.502  0.5745 -0.8346 -0.3983
  445MOL0     C58630   7.774   9.162   7.497 -0.2699  0.6788 -0.3222
  445MOL0     C58631   7.796   9.214   7.642  0.9039  1.3374  1.1131
  445MOL0     O58632   7.766   9.348   7.656  0.7357 -0.5018  0.6878
  445MOL0     C58633   7.636   9.376   7.691 -0.5745  0.2256  0.0037
  445MOL0     C58634   7.525   9.285   7.693  0.1143 -0.3585 -0.9291
  445MOL0     C58635   7.394   9.331   7.720 -0.3461 -0.0078 -0.1019
  445MOL0     C58636   7.366   9.464   7.736  0.0522 -0.0151 -0.2636
  445MOL0     C58637   7.235   9.509   7.733  0.7830 -1.3074 -0.4699
  445MOL0     O58638   7.216   9.638   7.718  0.1521  0.1391 -0.1684
  445MOL0     C58639   7.091   9.696   7.729 -0.7293  1.0845  0.1590
  445MOL0     C58640   7.046   9.759   7.841  0.5336  0.0420  0.7374
  445MOL0     C58641   6.926   9.838   7.828  0.1325 -0.1744  0.1032
  445MOL0     C58642   6.836   9.825   7.714  1.1185  0.3707 -0.6969
  445MOL0     O58643   6.708   9.880   7.716  0.6342 -0.1564  0.4278
  445MOL0     C58644   6.628   9.888   7.592  0.7173  0.0920  0.5385
  445MOL0     C58645   6.503   9.981   7.611 -0.7573  0.1353 -0.0706
  445MOL0     C58646   6.383   9.969   7.525 -0.2638 -1.1950 -0.5196
  445MOL0     C58647   6.296   9.839   7.531  0.7655 -0.4571 -0.0316
  445MOL0     C58648   6.169   9.849   7.445 -0.0342 -0.3718 -0.4424
  445MOL0     C58649   6.082   9.969   7.485 -0.0810  0.8008 -0.3673
  445MOL0     C58650   5.933   9.924   7.477  0.2302 -0.5993 -0.1188
  445MOL0     C58651   5.902   9.899   7.332 -0.3433 -0.1708  0.3427
  445MOL0    Cl58652   5.903  10.046   7.238 -0.3884 -0.3025  0.0998
  445MOL0     C58653   6.883   9.746   7.613  0.7387  0.7545 -1.0627
  445MOL0     C58654   7.007   9.685   7.617 -0.2834 -0.1255 -1.6405
  445MOL0     O58655   7.146   9.424   7.751  0.5348  0.9887 -0.6999
  445MOL0     C58656   7.475   9.555   7.745 -0.1187 -0.7754 -0.7030
  445MOL0     C58657   7.608   9.512   7.720  0.6675  0.2245  1.2042
  445MOL0     N58658   7.414   8.947   7.556  1.0116  0.2930  0.1866
  445MOL0     N58659   7.328   8.932   7.459  0.8690 -0.1753  0.0573
  445MOL0     C58660   6.645   9.537   6.735 -0.2557 -0.1239 -0.7017
  445MOL0     C58661   6.562   9.595   6.633  0.2247 -0.3918 -0.4141
  445MOL0     C58662   6.377   9.743   6.268  0.9696  0.1086  0.2810
  445MOL0     C58663   6.354   9.681   6.140 -0.5855 -0.3535 -0.7960
  445MOL0     C58664   6.229   9.682   6.072  0.4382 -0.2057  0.3450
  445MOL0     C58665   6.124   9.767   6.124 -0.0708 -0.4570 -0.0943
  445MOL0     O58666   5.993   9.763   6.086 -0.3541  0.7646  0.1573
  445MOL0     C58667   5.954   9.708   5.963 -0.3006 -0.1502  0.6416
  445MOL0     C58668   5.828   9.622   5.977  0.0073  1.3808 -0.8055
  445MOL0     C58669   5.742   9.587   5.852  0.1616 -0.2941  1.0717
  445MOL0     C58670   5.600   9.628   5.863  1.3398  0.2466  0.4814
  445MOL0     C58671   5.527   9.609   5.736 -1.0291 -0.6843 -0.1976
  445MOL0     C58672   5.416   9.569   5.585  0.5370 -0.6183  0.3625
  445MOL0     C58673   6.152   9.840   6.246 -0.2875 -0.7235 -0.7689
  445MOL0     C58674   6.278   9.826   6.315  0.0747 -0.4250  0.8871
  445MOL0     H58675   6.712   9.880   6.574 -3.2804 -0.5545 -2.3357
  445MOL0     H58676   6.873   9.786   6.757  0.6041 -0.1001 -0.9717
  445MOL0     H58677   6.938   9.695   6.953 -2.8117  1.0583 -3.0315
  445MOL0     H58678   7.033   9.590   6.838  0.5336 -1.8677  0.1535
  445MOL0     H58679   6.943   9.480   7.107  0.7299  1.4397  1.0720
  445MOL0     H58680   7.088   9.562   7.091  0.4816  0.2716 -1.6454
  445MOL0     H58681   7.176   9.387   6.935 -0.2315  1.2777  0.1100
  445MOL0     H58682   7.015   9.317   6.928  0.9248 -1.8406  1.2488
  445MOL0     H58683   7.162   9.332   7.190 -1.0999  2.6227 -1.2365
  445MOL0     H58684   7.015   9.247   7.139  0.0528  1.4029  3.3702
  445MOL0     H58685   7.310   9.218   7.058  1.1028 -1.7155 -0.9112
  445MOL0     H58686   7.192   9.141   6.959  2.2276  0.0298 -0.3569
  445MOL0     H58687   7.114   9.002   7.173  0.6059 -1.3111  0.5525
  445MOL0     H58688   7.237   9.091   7.262 -2.1165  0.0232  0.8472
  445MOL0     H58689   7.296   8.921   7.014  0.4197  1.5045 -1.0169
  445MOL0     H58690   7.401   9.025   7.117  1.2636 -2.2411  2.3783
  445MOL0     H58691   7.402   8.773   7.172  0.0597  0.0460  1.1084
  445MOL0     H58692   7.246   8.785   7.239  0.8116 -1.4994 -0.6481
  445MOL0     H58693   7.595   8.818   7.311 -1.9381 -1.8417 -1.0095
  445MOL0     H58694   7.695   8.827   7.606  0.4129 -0.0454 -0.1242
  445MOL0     H58695   7.653   8.989   7.672 -0.9350  3.1883 -2.3596
  445MOL0     H58696   7.766   8.973   7.399 -0.7216 -1.8162  0.0676
  445MOL0     H58697   7.882   8.978   7.514  0.8738 -0.2152 -1.2315
  445MOL0     H58698   7.862   9.199   7.444 -0.5706  1.9492  0.0470
  445MOL0     H58699   7.683   9.189   7.443  0.4247 -0.6104 -2.2689
  445MOL0     H58700   7.904   9.217   7.659  0.7656  2.7498  1.8669
  445MOL0     H58701   7.752   9.154   7.722 -0.7148  0.4204 -0.3817
  445MOL0     H58702   7.542   9.182   7.662 -0.6091  0.0426 -2.7829
  445MOL0     H58703   7.316   9.259   7.699 -0.0002  0.1707 -2.2823
  445MOL0     H58704   7.115   9.748   7.924 -1.4371 -0.1630  2.4220
  445MOL0     H58705   6.890   9.901   7.909 -2.1777  0.7940 -1.5853
  445MOL0     H58706   6.588   9.792   7.561  2.9182 -0.6065 -0.3402
  445MOL0     H58707   6.677   9.930   7.503 -0.8686 -0.0315 -0.4238
  445MOL0     H58708   6.540  10.084   7.615  1.8737 -0.7617  1.7846
  445MOL0     H58709   6.471   9.983   7.716  0.4959  1.3201  0.3245
  445MOL0     H58710   6.404   9.980   7.418  2.1869  0.5704  0.0620
  445MOL0     H58711   6.328  10.059   7.551 -0.4359 -0.8393 -2.0267
  445MOL0     H58712   6.357   9.757   7.492 -2.8034 -2.2050 -2.5883
  445MOL0     H58713   6.259   9.834   7.634 -0.0233 -0.3901 -0.3046
  445MOL0     H58714   6.113   9.757   7.461  2.9817 -2.1216  0.8136
  445MOL0     H58715   6.199   9.849   7.339  3.7135 -1.3139  0.4546
  445MOL0     H58716   6.099  10.055   7.418  1.0039  1.1226  0.2968
  445MOL0     H58717   6.105  10.010   7.584  1.0280 -4.4736  1.8662
  445MOL0     H58718   5.919   9.838   7.544 -0.0658  0.0671  0.6982
  445MOL0     H58719   5.864  10.001   7.514 -1.5887 -2.4989  0.6427
  445MOL0     H58720   5.803   9.854   7.321 -1.4738  2.5218 -1.5088
  445MOL0     H58721   5.970   9.834   7.276 -1.8445  0.9209 -3.0582
  445MOL0     H58722   6.824   9.743   7.521  1.3250  3.2814 -1.6179
  445MOL0     H58723   7.034   9.643   7.520 -2.8145  1.1971 -3.0202
  445MOL0     H58724   7.463   9.660   7.768 -4.5911 -1.0390 -1.0164
  445MOL0     H58725   7.689   9.584   7.721 -0.8775  2.0879 -0.1244
  445MOL0     H58726   6.621   9.441   6.780  3.1848 -1.0399 -0.5711
  445MOL0     H58727   6.476   9.532   6.612  1.6089 -3.0465  1.3317
  445MOL0     H58728   6.426   9.612   6.097  0.4617  0.0575  0.2609
  445MOL0     H58729   6.216   9.626   5.980 -0.5490  0.1455  0.2594
  445MOL0     H58730   6.024   9.650   5.904 -0.5620  2.5835 -2.6321
  445MOL0     H58731   5.932   9.794   5.898  0.7682  1.3435  2.1668
  445MOL0     H58732   5.866   9.525   6.009  0.6359  2.0325  0.4798
  445MOL0     H58733   5.763   9.657   6.057  1.4622  3.8182 -0.5820
  445MOL0     H58734   5.756   9.484   5.820  2.6784 -0.4433  2.3901
  445MOL0     H58735   5.779   9.651   5.771  0.0626 -0.5555  0.8177
  445MOL0     H58736   5.567   9.556   5.938 -0.2795 -0.1094 -0.5282
  445MOL0     H58737   5.581   9.732   5.892 -0.3277  0.5592 -1.5062
  445MOL0     H58738   5.346   9.548   5.507  0.7905 -0.5731  0.1236
  445MOL0     H58739   6.072   9.901   6.285  1.9330  2.1577 -0.3584
  445MOL0     H58740   6.285   9.863   6.417 -0.3122  0.1797  0.6965
  446MOL0     O58741  10.541  10.506   4.206 -0.4016 -0.0578  0.0453
  446MOL0     C58742  10.557  10.403   4.139 -0.4137 -0.0257  0.4496
  446MOL0     O58743  10.472  10.356   4.055  0.2709  0.1784  0.0053
  446MOL0     C58744  10.344  10.404   4.062  0.0339  0.0379  0.2343
  446MOL0     C58745  10.251  10.354   4.159  0.1597 -0.0228 -0.0273
  446MOL0     C58746  10.118  10.394   4.159 -0.0162 -0.0052 -0.4750
  446MOL0     C58747  10.069  10.488   4.072 -0.8468  0.5343  1.2988
  446MOL0     O58748   9.931  10.507   4.071  0.2012  0.2684  0.3662
  446MOL0     C58749   9.873  10.570   3.956 -0.8105  0.7832  0.5292
  446MOL0     C58750   9.879  10.484   3.827  0.6616 -0.8511  0.5883
  446MOL0     C58751   9.808  10.573   3.713  0.3269 -0.1587  0.2854
  446MOL0     C58752   9.873  10.721   3.695  0.3396 -0.6464 -0.0957
  446MOL0     C58753   9.820  10.811   3.577  0.7622 -0.0630 -0.9844
  446MOL0     C58754   9.820  10.732   3.450  0.3793 -0.5033  0.2423
  446MOL0     C58755   9.763  10.802   3.324 -0.6257  0.5637  0.5142
  446MOL0     C58756   9.838  10.922   3.266 -0.3797  0.0808 -0.4124
  446MOL0     N58757   9.981  10.894   3.253  0.5249  0.0520  0.3211
  446MOL0     C58758  10.074  10.931   3.343 -0.4850 -0.2429  0.4548
  446MOL0     C58759  10.185  10.858   3.310 -0.3553 -0.2510  0.5572
  446MOL0     C58760  10.323  10.883   3.372 -0.6207 -0.6402 -0.2983
  446MOL0     C58761  10.402  10.761   3.427  0.2472  0.7412  1.1678
  446MOL0     C58762  10.319  10.684   3.536  0.1883  0.2011  0.5485
  446MOL0     C58763  10.401  10.579   3.609  0.0940 -0.1610  0.1526
  446MOL0     O58764  10.488  10.645   3.702  0.1219 -0.3430 -0.3598
  446MOL0     C58765  10.600  10.591   3.755 -0.2939 -0.5106 -0.7731
  446MOL0     C58766  10.674  10.663   3.855  0.1863  0.5132  0.2594
  446MOL0     C58767  10.804  10.620   3.889 -1.1090 -0.2659  0.0041
  446MOL0     C58768  10.861  10.503   3.848  0.1059 -0.0060  0.1236
  446MOL0     C58769  10.994  10.457   3.896  0.1874  0.4508 -0.3735
  446MOL0     O58770  11.064  10.545   3.979 -0.0657  1.1157  0.5207
  446MOL0     C58771  11.186  10.507   4.025 -0.3287 -0.4612 -1.2215
  446MOL0     C58772  11.222  10.567   4.148  0.8607  0.6627  0.4756
  446MOL0     C58773  11.348  10.538   4.211 -0.2671 -0.0239  0.0977
  446MOL0     C58774  11.439  10.459   4.144  0.3267  0.1814 -0.6475
  446MOL0     O58775  11.566  10.447   4.198  0.0281  0.2385  0.0414
  446MOL0     C58776  11.682  10.455   4.113  0.9218  0.6289 -0.1529
  446MOL0     C58777  11.680  10.586   4.019  0.8502  0.2645 -0.7641
  446MOL0     C58778  11.814  10.620   3.972  0.2413  0.2855  0.0965
  446MOL0     C58779  11.801  10.745   3.894 -0.4706 -0.5729 -0.0502
  446MOL0     C58780  11.944  10.772   3.834 -0.3186  0.9277 -1.4705
  446MOL0     C58781  11.951  10.915   3.790  0.2030  0.8105 -0.9793
  446MOL0     C58782  11.850  10.939   3.679  1.1616  0.0191  0.1801
  446MOL0     C58783  11.904  11.046   3.587  1.0423 -0.0050 -0.5306
  446MOL0    Cl58784  12.051  11.002   3.520  0.2191 -1.1293  0.2865
  446MOL0     C58785  11.403  10.400   4.024  0.3926 -0.1630 -0.7617
  446MOL0     C58786  11.279  10.424   3.963  0.4000  0.0825  0.8725
  446MOL0     O58787  11.031  10.349   3.854 -0.5623  0.4648 -1.4946
  446MOL0     C58788  10.781  10.418   3.763 -0.6947  0.1461 -0.5630
  446MOL0     C58789  10.653  10.464   3.720 -0.1752 -0.0551  0.2632
  446MOL0     N58790  10.155  10.776   3.208 -0.5778 -0.4901  0.3376
  446MOL0     N58791  10.034  10.805   3.174  0.0418 -0.0987 -0.1911
  446MOL0     C58792  10.169  10.544   3.978  0.1198  0.0612 -0.2606
  446MOL0     C58793  10.299  10.495   3.969 -0.7144 -0.2991  0.0833
  446MOL0     C58794  10.691  10.338   4.156 -0.6686 -0.6065 -0.4293
  446MOL0     C58795  10.736  10.249   4.065  1.1538  0.0223  0.5032
  446MOL0     C58796  10.861  10.189   4.069  0.2027  0.1852  0.1566
  446MOL0     C58797  10.946  10.207   4.178  1.1167  0.7287 -0.2651
  446MOL0     O58798  11.057  10.125   4.205  0.2601 -0.2603 -0.6543
  446MOL0     C58799  11.100  10.042   4.101  0.1550 -0.8529  0.7495
  446MOL0     C58800  11.218   9.965   4.130 -0.2956 -0.3053  0.9611
  446MOL0     C58801  11.338  10.046   4.075  0.0515  0.6033 -0.2691
  446MOL0     C58802  11.463   9.960   4.072  0.3309  0.6560 -0.6277
  446MOL0     C58803  11.480   9.874   4.195 -0.4086  0.1754 -0.8288
  446MOL0     C58804  11.480   9.802   4.292 -0.2317  0.6561 -0.4136
  446MOL0     C58805  10.903  10.306   4.273  0.0967  1.1623 -0.2891
  446MOL0     C58806  10.777  10.367   4.266 -0.3954 -0.1463  0.0834
  446MOL0     H58807  10.283  10.293   4.243  2.1907 -0.1977 -0.8696
  446MOL0     H58808  10.049  10.360   4.235  1.3549  0.0223  0.8280
  446MOL0     H58809   9.923  10.667   3.952 -0.3140  0.7335  3.2845
  446MOL0     H58810   9.768  10.573   3.985 -2.2556 -1.4130 -3.7256
  446MOL0     H58811   9.817  10.394   3.837 -0.4233 -0.1511  0.4178
  446MOL0     H58812   9.982  10.462   3.798 -0.1889 -1.8378 -1.9594
  446MOL0     H58813   9.700  10.584   3.719  0.0357 -1.9857 -0.8587
  446MOL0     H58814   9.827  10.512   3.624 -0.1857 -3.7872  2.4493
  446MOL0     H58815   9.852  10.782   3.783 -2.1510 -0.2345 -0.8817
  446MOL0     H58816   9.982  10.711   3.687  0.2956 -0.3960 -1.1244
  446MOL0     H58817   9.869  10.908   3.567 -1.2679  1.3666  1.6951
  446MOL0     H58818   9.726  10.856   3.610 -0.1486 -1.1220 -2.0277
  446MOL0     H58819   9.755  10.646   3.471  0.6489 -0.3763  1.7583
  446MOL0     H58820   9.920  10.695   3.427  0.9399 -0.3927  2.3035
  446MOL0     H58821   9.770  10.723   3.248 -0.1139 -1.6223  2.6858
  446MOL0     H58822   9.658  10.820   3.349 -0.8887 -0.1983 -0.0000
  446MOL0     H58823   9.824  11.014   3.324  2.8105  1.7169 -1.9996
  446MOL0     H58824   9.795  10.941   3.167  2.0096  0.0872 -1.5226
  446MOL0     H58825  10.074  11.015   3.413  0.3094  1.5398 -1.5724
  446MOL0     H58826  10.312  10.951   3.457  3.5277 -1.0884  0.8126
  446MOL0     H58827  10.380  10.938   3.297  1.0397 -1.7694  0.0899
  446MOL0     H58828  10.497  10.798   3.465  1.6621 -1.3278 -0.1228
  446MOL0     H58829  10.433  10.703   3.339  1.2190  2.8607  0.0584
  446MOL0     H58830  10.274  10.752   3.608 -0.4153  0.8832 -0.4602
  446MOL0     H58831  10.229  10.643   3.488  0.0648  0.8333  0.2402
  446MOL0     H58832  10.466  10.526   3.539  0.1304 -0.3672  0.3423
  446MOL0     H58833  10.333  10.505   3.652  0.0272 -2.0533 -2.8680
  446MOL0     H58834  10.622  10.746   3.902 -0.4830  0.0453  0.3694
  446MOL0     H58835  10.861  10.678   3.960 -0.3933 -2.5341  1.3789
  446MOL0     H58836  11.158  10.636   4.202 -0.8442 -0.2120 -0.3813
  446MOL0     H58837  11.372  10.583   4.307 -1.8010  0.0622  0.4755
  446MOL0     H58838  11.701  10.364   4.055  2.9777  0.5575  0.5534
  446MOL0     H58839  11.763  10.465   4.187  0.6538 -1.5195  0.5117
  446MOL0     H58840  11.639  10.671   4.075  0.0925  0.8821 -2.2102
  446MOL0     H58841  11.619  10.560   3.933 -1.0956 -3.5347  1.5164
  446MOL0     H58842  11.850  10.533   3.915 -0.8291 -1.4515  1.9472
  446MOL0     H58843  11.882  10.644   4.054  0.1759 -0.6618  0.4401
  446MOL0     H58844  11.732  10.732   3.809  0.8840  1.6733 -1.5924
  446MOL0     H58845  11.765  10.831   3.952 -2.6059 -0.8715 -0.8427
  446MOL0     H58846  11.980  10.709   3.752  0.5873  0.5597 -0.8028
  446MOL0     H58847  12.022  10.764   3.909 -1.0832  1.5623 -0.5841
  446MOL0     H58848  12.055  10.939   3.768 -0.0906  1.3540 -1.8046
  446MOL0     H58849  11.922  10.975   3.878 -0.1734 -1.7113  0.7329
  446MOL0     H58850  11.844  10.843   3.626  0.0717 -0.7785  1.6552
  446MOL0     H58851  11.750  10.972   3.708  1.2914  1.2448 -0.7074
  446MOL0     H58852  11.911  11.140   3.642 -1.1069 -0.0407 -0.1280
  446MOL0     H58853  11.834  11.055   3.504 -0.5004 -1.3970  0.5452
  446MOL0     H58854  11.474  10.340   3.968  1.0150  0.0461 -0.2228
  446MOL0     H58855  11.261  10.367   3.872  2.5257  2.7178 -1.4182
  446MOL0     H58856  10.821  10.324   3.724 -1.9130 -0.6888  0.1178
  446MOL0     H58857  10.606  10.399   3.647  1.4988 -1.8211  0.6742
  446MOL0     H58858  10.148  10.616   3.900  1.1894  0.6400 -0.0280
  446MOL0     H58859  10.367  10.524   3.890  1.9499 -0.0819  2.2691
  446MOL0     H58860  10.680  10.211   3.980  1.3613  0.6305  0.0926
  446MOL0     H58861  10.884  10.114   3.993  0.6413  1.7505 -1.3353
  446MOL0     H58862  11.108  10.093   4.005 -0.5119  0.8488  1.5557
  446MOL0     H58863  11.022   9.966   4.089 -1.0131  0.4688 -0.2397
  446MOL0     H58864  11.211   9.945   4.237  4.1542  0.0338  1.4742
  446MOL0     H58865  11.203   9.877   4.067 -0.0313  1.5310 -1.8771
  446MOL0     H58866  11.379  10.129   4.134  1.8794  2.1256 -3.3893
  446MOL0     H58867  11.319  10.084   3.975 -0.6002  0.0860 -0.3488
  446MOL0     H58868  11.466   9.899   3.982 -0.2226  1.9628 -1.5539
  446MOL0     H58869  11.553  10.022   4.068  0.3499  0.5728 -4.0740
  446MOL0     H58870  11.486   9.728   4.370 -1.1829 -1.4474 -2.2420
  446MOL0     H58871  10.971  10.337   4.352 -0.6045  3.5566 -0.5393
  446MOL0     H58872  10.733  10.438   4.337  1.9013  2.0493 -0.5300
  447MOL0     O58873   9.408   9.399   6.375 -0.0600  0.1696 -0.7114
  447MOL0     C58874   9.458   9.509   6.375  0.4648  0.3817 -0.4145
  447MOL0     O58875   9.445   9.606   6.278 -0.2134  0.1503 -0.4142
  447MOL0     C58876   9.363   9.588   6.169 -0.1994 -0.0081  0.0009
  447MOL0     C58877   9.364   9.463   6.097 -0.9040 -0.3434 -0.1225
  447MOL0     C58878   9.280   9.449   5.988 -0.3696 -0.0145 -1.1031
  447MOL0     C58879   9.187   9.555   5.952  0.8728 -0.0431 -0.6811
  447MOL0     O58880   9.097   9.548   5.853  0.2323  0.0498  0.1804
  447MOL0     C58881   9.053   9.420   5.804  1.1787  0.2592  0.6767
  447MOL0     C58882   8.896   9.414   5.796 -0.2245  0.0372  0.3877
  447MOL0     C58883   8.843   9.512   5.691 -0.2322 -0.2015  0.3298
  447MOL0     C58884   8.691   9.547   5.703 -0.1259  0.0327  0.4878
  447MOL0     C58885   8.633   9.612   5.578  0.0678 -0.4763  0.6321
  447MOL0     C58886   8.667   9.761   5.562  0.9975  0.4016 -0.2142
  447MOL0     C58887   8.571   9.833   5.472 -0.7608  0.1559  0.3041
  447MOL0     C58888   8.617   9.843   5.325  0.6694 -0.1271 -0.1196
  447MOL0     N58889   8.547   9.942   5.247  0.0403 -0.8541  0.7389
  447MOL0     C58890   8.513   9.918   5.112  0.2556  0.3702  0.3919
  447MOL0     C58891   8.441  10.039   5.087 -0.3256  0.9270  0.6657
  447MOL0     C58892   8.379  10.082   4.955  0.1524  0.1907 -0.4491
  447MOL0     C58893   8.240  10.145   4.980 -0.0602 -0.3984  0.2540
  447MOL0     C58894   8.122  10.047   4.990  0.1157  0.3381  1.0183
  447MOL0     C58895   8.002  10.112   5.056 -0.1269 -0.8684  0.7802
  447MOL0     O58896   7.963  10.239   4.985 -0.3016  0.1589 -0.3964
  447MOL0     C58897   7.848  10.302   5.020 -0.4200  0.1655 -0.4003
  447MOL0     C58898   7.773  10.265   5.136 -0.8605 -0.6898 -0.2096
  447MOL0     C58899   7.660  10.345   5.167 -0.8018  1.4520  0.3256
  447MOL0     C58900   7.622  10.454   5.087 -0.2456  0.6057 -0.2938
  447MOL0     C58901   7.496  10.516   5.109 -0.6450 -0.8969 -0.1434
  447MOL0     O58902   7.479  10.639   5.057  0.5489 -0.5501  0.6304
  447MOL0     C58903   7.377  10.721   5.081  0.0471  0.1397 -0.0321
  447MOL0     C58904   7.416  10.858   5.096  0.5681 -0.5376 -0.0619
  447MOL0     C58905   7.312  10.949   5.125 -0.4083  1.4643 -1.1224
  447MOL0     C58906   7.183  10.909   5.132  0.2689  0.6381 -0.9938
  447MOL0     O58907   7.092  11.002   5.176 -0.1783  0.4198 -0.3550
  447MOL0     C58908   6.949  10.978   5.176  0.1701 -0.1575  0.0427
  447MOL0     C58909   6.892  11.101   5.248  0.3390 -0.1740 -0.5066
  447MOL0     C58910   6.739  11.087   5.246  0.1499 -0.3432  0.3501
  447MOL0     C58911   6.675  11.200   5.316 -0.3409 -0.7010 -0.1585
  447MOL0     C58912   6.521  11.184   5.314 -1.4179  0.4834  0.1786
  447MOL0     C58913   6.454  11.313   5.358 -0.2948 -0.1132  0.1525
  447MOL0     C58914   6.304  11.301   5.352  0.3239 -1.5323  0.8487
  447MOL0     C58915   6.239  11.403   5.448 -0.4468  0.4817  0.5284
  447MOL0    Cl58916   6.274  11.375   5.614  0.1261 -0.1498 -0.5161
  447MOL0     C58917   7.139  10.778   5.108 -2.0492 -0.0911  0.2998
  447MOL0     C58918   7.242  10.677   5.084  0.2166  0.0237 -0.5855
  447MOL0     O58919   7.413  10.460   5.176  0.4421  0.5439 -1.2343
  447MOL0     C58920   7.698  10.484   4.978 -0.2724  0.3489  0.3793
  447MOL0     C58921   7.815  10.412   4.944 -0.1996  0.3667 -0.8436
  447MOL0     N58922   8.429  10.118   5.200  0.8095  0.1820  0.0050
  447MOL0     N58923   8.496  10.062   5.291  0.6578  0.5141  0.7087
  447MOL0     C58924   9.197   9.669   6.026  0.3654  0.7083  0.1979
  447MOL0     C58925   9.279   9.688   6.134 -0.4113 -0.0370  1.3149
  447MOL0     C58926   9.553   9.537   6.478  0.7844 -0.7507  0.0165
  447MOL0     C58927   9.581   9.449   6.588  0.0847 -0.5861 -0.8046
  447MOL0     C58928   9.680   9.492   6.679  0.2897  0.3441  0.1421
  447MOL0     C58929   9.744   9.617   6.670  0.7293  0.3973  0.8307
  447MOL0     O58930   9.828   9.661   6.766 -0.0060  0.3363  0.0901
  447MOL0     C58931   9.785   9.673   6.906  0.5759  0.6304 -0.8013
  447MOL0     C58932   9.673   9.786   6.913 -0.4466 -0.1552  0.1401
  447MOL0     C58933   9.652   9.828   7.054  0.2033 -0.7473  0.3928
  447MOL0     C58934   9.578   9.958   7.077  0.3489 -0.7094  0.1943
  447MOL0     C58935   9.637  10.068   6.998  0.3459 -0.5226  0.4344
  447MOL0     C58936   9.688  10.150   6.923 -0.1258 -0.5230  1.1058
  447MOL0     C58937   9.715   9.697   6.558  0.0716 -0.5353  2.0598
  447MOL0     C58938   9.630   9.652   6.449 -0.1431  0.0284 -1.1687
  447MOL0     H58939   9.425   9.379   6.130  0.2690  1.3158  2.2103
  447MOL0     H58940   9.287   9.348   5.948 -0.7734 -0.2124 -0.6855
  447MOL0     H58941   9.090   9.333   5.858 -3.3635 -2.5931 -0.2257
  447MOL0     H58942   9.079   9.415   5.697  2.7160  1.2637  0.9691
  447MOL0     H58943   8.852   9.437   5.894  0.4388 -0.8447  0.9073
  447MOL0     H58944   8.862   9.313   5.770 -1.5176 -0.4237  3.3875
  447MOL0     H58945   8.872   9.480   5.590  3.0553  2.3948  0.2961
  447MOL0     H58946   8.901   9.604   5.697  1.6589 -1.2272 -1.1892
  447MOL0     H58947   8.637   9.460   5.741  0.0110  0.5377  1.8769
  447MOL0     H58948   8.691   9.618   5.785 -0.2716 -1.5826  1.9354
  447MOL0     H58949   8.524   9.607   5.577  0.0302 -0.0222 -1.3293
  447MOL0     H58950   8.666   9.560   5.487 -0.5263 -0.3289  0.3246
  447MOL0     H58951   8.771   9.767   5.530  1.1616 -1.3919 -0.1444
  447MOL0     H58952   8.662   9.804   5.662 -0.0928 -1.8856  0.7881
  447MOL0     H58953   8.474   9.782   5.466  0.0098 -1.2503 -0.8209
  447MOL0     H58954   8.549   9.934   5.509  1.0152  0.3975  0.8223
  447MOL0     H58955   8.593   9.749   5.275 -2.6879 -0.2470  1.4838
  447MOL0     H58956   8.723   9.870   5.324  1.7429 -3.8219 -0.7409
  447MOL0     H58957   8.535   9.841   5.040  0.5878 -0.5707  1.4690
  447MOL0     H58958   8.363  10.003   4.881 -1.5529  0.1251 -0.0554
  447MOL0     H58959   8.437  10.161   4.907 -0.3001  1.3031  0.8063
  447MOL0     H58960   8.218  10.201   4.889  2.9315  1.1015  0.3129
  447MOL0     H58961   8.245  10.215   5.064  1.7420 -1.1591  0.8414
  447MOL0     H58962   8.091  10.013   4.890 -0.8354 -1.2719  1.8251
  447MOL0     H58963   8.149   9.956   5.044  0.2015 -0.6334 -0.5850
  447MOL0     H58964   8.021  10.134   5.161  0.5752  0.7078  0.3555
  447MOL0     H58965   7.919  10.041   5.052  0.4173 -1.4778 -0.3166
  447MOL0     H58966   7.814  10.185   5.196  1.4497  1.1470  0.8339
  447MOL0     H58967   7.607  10.315   5.257  2.4805 -0.9559  1.6472
  447MOL0     H58968   7.519  10.891   5.089  0.4089  1.2577  3.6007
  447MOL0     H58969   7.348  11.048   5.148 -0.5889  1.4984 -0.9860
  447MOL0     H58970   6.928  10.880   5.221 -1.2192 -1.6135 -3.3681
  447MOL0     H58971   6.906  10.976   5.075  0.7235 -1.1103 -0.1953
  447MOL0     H58972   6.921  11.200   5.212 -2.0247  0.2910 -1.3305
  447MOL0     H58973   6.926  11.105   5.351  1.7720  1.9684 -1.0018
  447MOL0     H58974   6.709  10.990   5.286 -0.8987  0.2469  1.0391
  447MOL0     H58975   6.711  11.095   5.141  0.3343  2.1989  0.4196
  447MOL0     H58976   6.708  11.218   5.419  0.8451  3.1741 -1.0573
  447MOL0     H58977   6.703  11.294   5.266 -0.7992 -0.5746 -0.1838
  447MOL0     H58978   6.509  11.100   5.383  2.2938 -0.3842 -0.0190
  447MOL0     H58979   6.493  11.159   5.212  2.3064 -1.4552 -0.5346
  447MOL0     H58980   6.476  11.399   5.295 -0.2933  0.6773  1.2208
  447MOL0     H58981   6.483  11.329   5.462  1.0386  0.2877 -0.2570
  447MOL0     H58982   6.267  11.320   5.251 -0.2015  1.1132  1.4659
  447MOL0     H58983   6.277  11.198   5.377  1.8726 -1.7093  1.9516
  447MOL0     H58984   6.132  11.420   5.432  0.1142  2.6402 -1.6560
  447MOL0     H58985   6.279  11.504   5.431 -4.3395  2.0140 -0.7133
  447MOL0     H58986   7.034  10.755   5.115 -1.8402 -0.8718  1.0414
  447MOL0     H58987   7.224  10.575   5.048 -0.2445 -0.2585  0.4170
  447MOL0     H58988   7.667  10.558   4.906 -2.5974 -1.0568 -0.1538
  447MOL0     H58989   7.871  10.442   4.856  2.9020  2.2409  1.5260
  447MOL0     H58990   9.141   9.756   5.992 -0.1979  0.3528  0.2034
  447MOL0     H58991   9.282   9.787   6.179 -0.9534  0.4893  0.2194
  447MOL0     H58992   9.523   9.360   6.612  1.1963 -0.6820  1.9444
  447MOL0     H58993   9.698   9.432   6.768  3.0690  0.6383 -0.1246
  447MOL0     H58994   9.872   9.698   6.966  0.2252 -0.6231  0.2658
  447MOL0     H58995   9.748   9.582   6.954 -0.1781  0.2322 -2.0633
  447MOL0     H58996   9.682   9.876   6.851  0.6853  0.9785  1.8590
  447MOL0     H58997   9.586   9.735   6.871  0.3571  0.0232 -1.8959
  447MOL0     H58998   9.746   9.847   7.105  0.2366 -2.3047  0.9672
  447MOL0     H58999   9.590   9.755   7.108 -1.3628  1.4243  1.7051
  447MOL0     H59000   9.473   9.948   7.050 -0.6380 -0.5491  3.5082
  447MOL0     H59001   9.576   9.983   7.184  0.8832  1.1987 -0.2154
  447MOL0     H59002   9.718  10.227   6.855 -1.4057  0.8860  2.0552
  447MOL0     H59003   9.754   9.798   6.566 -0.1294 -0.3969  1.3437
  447MOL0     H59004   9.592   9.726   6.379 -0.1612 -0.2805 -1.4865
  448MOL0     O59005   4.528  10.747   7.384  0.2236  0.7590 -0.3168
  448MOL0     C59006   4.413  10.784   7.389  0.6103 -1.0577  0.2977
  448MOL0     O59007   4.365  10.891   7.466  0.8503  0.6045  0.0243
  448MOL0     C59008   4.457  10.976   7.508 -0.2502  0.5845 -0.2698
  448MOL0     C59009   4.538  10.966   7.618  0.6610 -0.0417 -0.1987
  448MOL0     C59010   4.643  11.059   7.637 -0.5224 -0.6264 -0.2450
  448MOL0     C59011   4.648  11.181   7.561 -0.0609 -0.5323 -0.0861
  448MOL0     O59012   4.740  11.287   7.570  0.5864  0.4900 -0.8863
  448MOL0     C59013   4.845  11.273   7.672 -0.7765  0.2081  0.4626
  448MOL0     C59014   4.945  11.383   7.637 -0.2836  0.7513 -1.7632
  448MOL0     C59015   4.907  11.528   7.630 -0.1795  0.1134  0.1788
  448MOL0     C59016   5.020  11.625   7.616 -0.3807 -0.2208  0.2032
  448MOL0     C59017   4.997  11.754   7.688 -0.7608 -0.2731 -0.0482
  448MOL0     C59018   4.938  11.861   7.590 -0.0002  0.3841 -0.0116
  448MOL0     C59019   4.793  11.838   7.537 -0.3462  0.0190 -0.7761
  448MOL0     C59020   4.683  11.845   7.637 -0.0611 -0.1602  0.0502
  448MOL0     N59021   4.634  11.713   7.685  0.6063  0.7820 -0.0380
  448MOL0     C59022   4.552  11.631   7.611  0.3587 -0.2803 -0.2425
  448MOL0     C59023   4.494  11.544   7.699  0.1202 -0.0332 -0.0420
  448MOL0     C59024   4.369  11.460   7.677 -0.1360 -0.5755  0.2513
  448MOL0     C59025   4.250  11.547   7.646 -0.4166  0.1233  0.3108
  448MOL0     C59026   4.118  11.465   7.661  0.3714  0.3992  0.3732
  448MOL0     C59027   3.992  11.536   7.607 -1.1073  0.3427  0.0967
  448MOL0     O59028   3.876  11.473   7.651  0.2377 -0.0230 -0.2479
  448MOL0     C59029   3.761  11.549   7.658 -0.2469 -0.2093  0.3447
  448MOL0     C59030   3.741  11.670   7.588  0.2657 -0.4024  0.6830
  448MOL0     C59031   3.624  11.745   7.594 -0.0214  1.0572 -0.3276
  448MOL0     C59032   3.514  11.696   7.674  0.0152  0.6937  0.3534
  448MOL0     C59033   3.392  11.776   7.708 -0.1099  0.2541  0.1704
  448MOL0     O59034   3.305  11.719   7.802 -0.2266 -1.0062  1.1206
  448MOL0     C59035   3.183  11.784   7.828  0.1957 -0.3276 -0.6897
  448MOL0     C59036   3.091  11.840   7.747 -0.5545  1.0141  0.1458
  448MOL0     C59037   2.966  11.886   7.784  0.5312 -0.9451 -0.1067
  448MOL0     C59038   2.922  11.877   7.909 -0.1934 -0.3919 -0.3564
  448MOL0     O59039   2.794  11.913   7.928  0.3992  0.2496 -0.5080
  448MOL0     C59040   2.724  11.887   8.049 -0.0219  0.5880  0.0671
  448MOL0     C59041   2.671  11.747   8.030  0.3585  0.0509  0.8801
  448MOL0     C59042   2.593  11.685   8.149 -0.1650  0.0650 -0.7343
  448MOL0     C59043   2.453  11.737   8.183  0.3699 -0.4604  0.2153
  448MOL0     C59044   2.372  11.687   8.296 -0.6981  1.1507 -0.0690
  448MOL0     C59045   2.369  11.536   8.333 -0.4408 -0.0446 -0.0046
  448MOL0     C59046   2.287  11.450   8.235 -0.1092  0.2850 -0.6104
  448MOL0     C59047   2.319  11.302   8.255  0.1364  0.0994  0.1500
  448MOL0    Cl59048   2.184  11.206   8.181 -0.4971  0.3021 -0.0876
  448MOL0     C59049   3.013  11.811   8.003  0.2315 -0.8027 -0.2009
  448MOL0     C59050   3.141  11.773   7.968  0.3390 -0.2970 -0.3750
  448MOL0     O59051   3.372  11.868   7.627 -0.2119  0.1483 -0.1130
  448MOL0     C59052   3.528  11.567   7.730 -0.0300 -0.6636  0.6816
  448MOL0     C59053   3.651  11.496   7.722  0.3788  0.0699 -0.8700
  448MOL0     N59054   4.558  11.570   7.821 -0.2047 -0.1822 -0.7421
  448MOL0     N59055   4.645  11.664   7.816 -0.0798  0.8879  0.5516
  448MOL0     C59056   4.557  11.197   7.457  0.1005 -0.4831  0.2000
  448MOL0     C59057   4.465  11.094   7.426  0.6134  0.3411 -0.4549
  448MOL0     C59058   4.313  10.692   7.328  0.4342  0.2381  0.4026
  448MOL0     C59059   4.179  10.700   7.373  0.1884 -0.2431  0.5445
  448MOL0     C59060   4.077  10.643   7.295  0.4097 -0.3006 -1.1542
  448MOL0     C59061   4.108  10.563   7.186  0.9280  0.4430  0.8273
  448MOL0     O59062   4.012  10.512   7.099 -0.2917  0.3360 -0.5316
  448MOL0     C59063   3.896  10.590   7.079 -0.5813 -0.2923 -0.7312
  448MOL0     C59064   3.829  10.552   6.945  0.6063 -0.0507 -0.4577
  448MOL0     C59065   3.908  10.537   6.827  0.2386  0.0152 -0.1304
  448MOL0     C59066   4.016  10.644   6.798  0.2720 -1.5540 -0.3371
  448MOL0     C59067   3.958  10.776   6.801  0.4489  0.8541  0.1111
  448MOL0     C59068   3.923  10.890   6.809  0.3966  0.1701  0.1504
  448MOL0     C59069   4.239  10.537   7.152  0.1829  0.5187 -0.3751
  448MOL0     C59070   4.343  10.597   7.223  0.5217 -0.5072 -0.0980
  448MOL0     H59071   4.521  10.886   7.689 -2.4819  1.2996  0.7021
  448MOL0     H59072   4.719  11.043   7.713  2.3540  1.7687 -2.3882
  448MOL0     H59073   4.902  11.180   7.664  0.1400  0.5491  2.4478
  448MOL0     H59074   4.810  11.276   7.775  0.6548 -0.5785  0.9949
  448MOL0     H59075   4.980  11.345   7.540 -1.0891 -1.3510 -1.2732
  448MOL0     H59076   5.028  11.375   7.708 -1.8694  0.6001  0.1541
  448MOL0     H59077   4.858  11.546   7.726 -0.0107 -1.3055  0.5424
  448MOL0     H59078   4.835  11.538   7.547  1.0710 -0.4803 -1.0091
  448MOL0     H59079   5.101  11.566   7.661 -1.2693 -0.9976  0.8344
  448MOL0     H59080   5.043  11.642   7.511 -1.2441  0.4669  0.1133
  448MOL0     H59081   5.094  11.790   7.722  0.9976 -1.1216 -3.5963
  448MOL0     H59082   4.930  11.739   7.773 -1.5438 -1.3879 -0.8356
  448MOL0     H59083   5.004  11.879   7.505  0.7291  1.6880  0.8056
  448MOL0     H59084   4.944  11.962   7.630  2.9032  2.5405 -4.9731
  448MOL0     H59085   4.774  11.924   7.473 -2.0118 -0.0690 -0.4246
  448MOL0     H59086   4.791  11.750   7.472 -2.9771 -0.1783 -0.5185
  448MOL0     H59087   4.592  11.892   7.600 -0.8290 -0.9174  0.9192
  448MOL0     H59088   4.723  11.902   7.721 -0.2970 -0.5857  0.4568
  448MOL0     H59089   4.526  11.645   7.506 -0.2898 -1.9529 -0.3299
  448MOL0     H59090   4.344  11.379   7.745  0.6774  0.3117  1.6534
  448MOL0     H59091   4.383  11.400   7.586 -1.4900 -0.9694  0.2809
  448MOL0     H59092   4.258  11.603   7.553 -2.0652  0.6584  0.4571
  448MOL0     H59093   4.246  11.630   7.717 -0.1862 -1.6995  2.5887
  448MOL0     H59094   4.134  11.364   7.622  0.6698  0.2160  0.9652
  448MOL0     H59095   4.097  11.454   7.768  0.7290 -0.0504  0.3976
  448MOL0     H59096   3.988  11.534   7.497 -0.1309 -2.5040  0.0208
  448MOL0     H59097   3.992  11.639   7.643  1.4704  0.4126  0.0629
  448MOL0     H59098   3.817  11.715   7.525 -1.2931  0.9363 -0.3439
  448MOL0     H59099   3.613  11.843   7.550  4.2907  2.1257  0.5452
  448MOL0     H59100   3.101  11.844   7.639  0.9155 -2.3117  0.0368
  448MOL0     H59101   2.910  11.932   7.704 -0.0436 -0.8187  0.3587
  448MOL0     H59102   2.639  11.956   8.059 -0.2019  0.1622  1.8029
  448MOL0     H59103   2.785  11.903   8.138 -1.0040 -3.2705  1.6247
  448MOL0     H59104   2.753  11.676   8.014 -0.8131 -1.0132 -0.7399
  448MOL0     H59105   2.612  11.739   7.938 -0.5017 -2.7304  1.5751
  448MOL0     H59106   2.660  11.684   8.236  2.1687  0.6133 -2.4269
  448MOL0     H59107   2.579  11.579   8.127  1.7952 -0.9645  2.3464
  448MOL0     H59108   2.469  11.842   8.210 -0.0859 -0.3156 -0.0586
  448MOL0     H59109   2.395  11.735   8.090 -0.6021  0.3473  0.7938
  448MOL0     H59110   2.266  11.711   8.285 -0.6673  2.7132  2.3798
  448MOL0     H59111   2.404  11.742   8.385 -0.3509 -0.0401  0.5673
  448MOL0     H59112   2.335  11.522   8.436 -0.4896 -0.6958 -0.1055
  448MOL0     H59113   2.474  11.504   8.341 -1.4667 -3.8338  0.3597
  448MOL0     H59114   2.179  11.458   8.251 -0.1974 -0.8826 -0.5774
  448MOL0     H59115   2.304  11.483   8.133  0.8379 -0.4904 -0.7100
  448MOL0     H59116   2.321  11.278   8.361  1.4976 -0.7826 -0.0536
  448MOL0     H59117   2.417  11.272   8.218 -0.4417 -1.4848 -0.1585
  448MOL0     H59118   2.974  11.768   8.095  0.1172 -0.4922 -0.1042
  448MOL0     H59119   3.194  11.724   8.049  0.3593 -0.2731 -0.3740
  448MOL0     H59120   3.440  11.523   7.777 -1.0325 -0.9992 -1.4146
  448MOL0     H59121   3.663  11.395   7.759 -0.8142  0.0766 -0.4398
  448MOL0     H59122   4.571  11.294   7.411  0.2462 -0.0505  1.1282
  448MOL0     H59123   4.408  11.106   7.335 -1.7840  4.4961  1.3001
  448MOL0     H59124   4.149  10.762   7.457  1.4690  1.2973 -0.0757
  448MOL0     H59125   3.973  10.645   7.329  0.9439 -2.4985  0.8354
  448MOL0     H59126   3.915  10.698   7.078 -1.3809 -0.1377 -0.3759
  448MOL0     H59127   3.817  10.581   7.154 -0.8703  4.1667 -0.2045
  448MOL0     H59128   3.782  10.457   6.969 -0.4263  0.8792  1.5198
  448MOL0     H59129   3.755  10.629   6.919  1.9353  2.2866  2.0922
  448MOL0     H59130   3.842  10.531   6.739  0.3623 -2.3083 -0.1383
  448MOL0     H59131   3.953  10.438   6.815  1.4191  0.6623 -1.3170
  448MOL0     H59132   4.085  10.648   6.882 -1.3493 -0.0154  0.9967
  448MOL0     H59133   4.081  10.626   6.712  2.8502  1.6882  0.7393
  448MOL0     H59134   3.870  10.982   6.820 -2.3319 -1.1918 -0.7238
  448MOL0     H59135   4.261  10.472   7.068 -1.3324 -2.4994  1.3984
  448MOL0     H59136   4.448  10.579   7.201  1.0720  0.3166  1.6795
  449MOL0     O59137   4.734   2.870   9.140  0.4934 -0.1637  0.4804
  449MOL0     C59138   4.753   2.754   9.114 -0.2540  0.5336  0.2663
  449MOL0     O59139   4.659   2.659   9.082  0.0816 -0.1163  0.1119
  449MOL0     C59140   4.524   2.676   9.093  0.9762 -1.0355  0.4343
  449MOL0     C59141   4.449   2.794   9.114 -0.0648 -0.0172 -0.2539
  449MOL0     C59142   4.313   2.798   9.116 -0.4523  0.2010  0.6789
  449MOL0     C59143   4.232   2.680   9.096 -0.4064 -0.6292  0.2011
  449MOL0     O59144   4.096   2.693   9.088 -0.2896 -0.4265  0.0244
  449MOL0     C59145   4.027   2.584   9.144 -0.3856  1.2059  0.3274
  449MOL0     C59146   3.882   2.615   9.148  0.6534 -0.6139 -0.6520
  449MOL0     C59147   3.798   2.518   9.230  0.4639  0.4746  0.0052
  449MOL0     C59148   3.654   2.562   9.209 -0.2766 -0.3805  0.1520
  449MOL0     C59149   3.545   2.455   9.231 -0.3515  0.3103  0.5250
  449MOL0     C59150   3.413   2.510   9.202 -0.1165 -0.3334  0.0002
  449MOL0     C59151   3.318   2.390   9.212  0.0394 -0.1802 -0.1783
  449MOL0     C59152   3.178   2.437   9.179  0.1969  1.0097  0.2191
  449MOL0     N59153   3.114   2.518   9.284  0.8279  0.1054  0.0233
  449MOL0     C59154   3.083   2.471   9.412  0.5264 -0.7695  0.6014
  449MOL0     C59155   3.014   2.575   9.462  0.1745  0.2413  0.3619
  449MOL0     C59156   2.949   2.570   9.601 -1.1409 -0.4660 -0.3827
  449MOL0     C59157   3.009   2.656   9.712  0.5174  0.6772  0.2465
  449MOL0     C59158   2.977   2.617   9.858 -0.5646  0.6095  0.1316
  449MOL0     C59159   2.840   2.656   9.906 -0.3728 -0.3522  0.5964
  449MOL0     O59160   2.765   2.558   9.834 -0.1446 -1.0000 -0.3852
  449MOL0     C59161   2.624   2.558   9.846 -0.5460 -0.0092  0.2555
  449MOL0     C59162   2.553   2.616   9.951 -0.1900 -0.2425 -0.8979
  449MOL0     C59163   2.415   2.608   9.950  0.5282  0.1871 -0.7402
  449MOL0     C59164   2.347   2.528   9.857 -0.0380 -0.2211 -0.4233
  449MOL0     C59165   2.199   2.547   9.855  0.5597 -0.2906  0.2262
  449MOL0     O59166   2.138   2.612   9.959  0.3691 -0.4320 -0.2707
  449MOL0     C59167   1.999   2.617   9.962  1.4042  1.3214 -0.1172
  449MOL0     C59168   1.921   2.734   9.986 -0.2230  0.3567 -0.3933
  449MOL0     C59169   1.782   2.742   9.971 -0.1163 -0.0820 -0.0104
  449MOL0     C59170   1.715   2.618   9.939 -0.0028 -1.1859  0.4305
  449MOL0     O59171   1.581   2.605   9.924  0.0385 -0.3722 -0.4947
  449MOL0     C59172   1.495   2.713   9.929  0.3830 -0.8171  0.1876
  449MOL0     C59173   1.346   2.686   9.889 -0.4321  0.2746 -0.3201
  449MOL0     C59174   1.252   2.609   9.985 -0.7837  0.1817  0.7866
  449MOL0     C59175   1.123   2.587   9.914 -0.8782  0.2284 -0.0802
  449MOL0     C59176   1.010   2.540  10.013  0.0245 -1.0253 -0.1163
  449MOL0     C59177   1.034   2.395  10.067 -0.1500 -0.6336  0.3895
  449MOL0     C59178   0.918   2.341  10.166 -0.4914  0.1705 -0.2124
  449MOL0     C59179   0.782   2.328  10.102  0.0188  0.2904  0.3117
  449MOL0    Cl59180   0.676   2.207  10.175 -0.2293  0.0113  0.1325
  449MOL0     C59181   1.789   2.503   9.916  0.3624 -0.5463  1.0173
  449MOL0     C59182   1.929   2.500   9.920 -0.0784  0.3261 -0.0795
  449MOL0     O59183   2.143   2.503   9.753  0.0011 -0.8814 -0.5699
  449MOL0     C59184   2.416   2.456   9.762  0.3076  0.1247  0.8233
  449MOL0     C59185   2.560   2.470   9.759  0.1333 -0.5555  0.4167
  449MOL0     N59186   3.003   2.677   9.371 -0.1181  0.3300  0.2531
  449MOL0     N59187   3.064   2.646   9.260  0.2674 -0.1732 -0.0304
  449MOL0     C59188   4.312   2.561   9.071  0.5065  0.4679 -0.1689
  449MOL0     C59189   4.453   2.564   9.063 -0.1871  0.7282  0.0012
  449MOL0     C59190   4.893   2.715   9.107 -0.1414 -0.0134  0.5726
  449MOL0     C59191   4.927   2.589   9.062  0.5777  0.4518 -0.9493
  449MOL0     C59192   5.062   2.546   9.039 -0.1774 -0.0841  0.5437
  449MOL0     C59193   5.164   2.643   9.069 -0.1036 -0.0528  1.3441
  449MOL0     O59194   5.293   2.629   9.022  0.3844  0.3331  0.6500
  449MOL0     C59195   5.333   2.500   8.974 -0.5024  0.1158  0.3122
  449MOL0     C59196   5.490   2.481   8.952  0.3309 -0.0209  0.7324
  449MOL0     C59197   5.549   2.392   9.065  0.2140 -0.8865  0.0052
  449MOL0     C59198   5.684   2.324   9.031 -0.3028 -0.6316 -0.0931
  449MOL0     C59199   5.755   2.276   9.156 -0.1882 -1.0511 -0.3085
  449MOL0     C59200   5.796   2.220   9.252  0.1175  1.5293 -0.4718
  449MOL0     C59201   5.132   2.761   9.138  0.3768  0.1262 -0.2699
  449MOL0     C59202   4.996   2.799   9.150  0.3077 -0.3118  0.6897
  449MOL0     H59203   4.503   2.887   9.130 -1.1641  0.0629  4.5374
  449MOL0     H59204   4.262   2.894   9.128  0.2569  0.8282 -0.9819
  449MOL0     H59205   4.042   2.550   9.247  0.0919 -1.1499 -0.4617
  449MOL0     H59206   4.047   2.496   9.083 -1.5504 -1.5335  3.5707
  449MOL0     H59207   3.848   2.634   9.046 -2.3735  0.7968  0.5005
  449MOL0     H59208   3.869   2.710   9.200 -0.7489  0.8041 -3.3876
  449MOL0     H59209   3.843   2.514   9.330 -1.1475 -0.6600  0.7250
  449MOL0     H59210   3.803   2.415   9.196 -0.4934  0.0569  1.0481
  449MOL0     H59211   3.637   2.647   9.276  0.5735  1.1253 -1.4669
  449MOL0     H59212   3.652   2.599   9.106  0.4539 -1.4168 -0.2480
  449MOL0     H59213   3.547   2.429   9.337 -0.9306  1.6198  0.8813
  449MOL0     H59214   3.576   2.366   9.176 -0.1724 -0.0068  1.1346
  449MOL0     H59215   3.407   2.554   9.101 -1.9649  1.2782  0.7512
  449MOL0     H59216   3.383   2.591   9.269  0.6394  0.1133 -0.1892
  449MOL0     H59217   3.325   2.314   9.135  1.9361 -0.0357 -0.1907
  449MOL0     H59218   3.314   2.349   9.314 -0.0303 -2.1724 -0.9547
  449MOL0     H59219   3.115   2.351   9.155 -1.0116  2.1644 -0.9348
  449MOL0     H59220   3.184   2.490   9.083 -0.8346 -2.6814 -2.0704
  449MOL0     H59221   3.093   2.375   9.462 -4.1207 -1.2040  1.1449
  449MOL0     H59222   2.961   2.465   9.629 -0.4802  0.0612  1.4343
  449MOL0     H59223   2.841   2.585   9.597 -1.1158  1.1721  2.4246
  449MOL0     H59224   2.982   2.761   9.694 -1.4515 -0.0825 -1.7144
  449MOL0     H59225   3.116   2.665   9.693  0.5398 -1.8663 -1.2723
  449MOL0     H59226   2.988   2.508   9.865  2.8403  0.9007  1.3755
  449MOL0     H59227   3.056   2.654   9.923  0.2322 -0.7930  0.0200
  449MOL0     H59228   2.812   2.758   9.879  1.7548 -0.3079 -1.8346
  449MOL0     H59229   2.819   2.637  10.011 -0.3166 -0.5650  0.5706
  449MOL0     H59230   2.601   2.696  10.006 -1.6307  0.7719 -1.0431
  449MOL0     H59231   2.355   2.669  10.016 -0.6986 -0.8543 -0.8745
  449MOL0     H59232   1.979   2.825  10.001  0.4754 -0.2456  0.6903
  449MOL0     H59233   1.725   2.832   9.993  0.1350  0.6116 -1.9697
  449MOL0     H59234   1.534   2.785   9.856 -1.5873  0.7416  0.5621
  449MOL0     H59235   1.503   2.742  10.034 -1.0235  0.9489 -0.1420
  449MOL0     H59236   1.343   2.633   9.793  2.1680 -0.0504 -0.3068
  449MOL0     H59237   1.295   2.780   9.867  0.0543 -0.4006 -5.6632
  449MOL0     H59238   1.235   2.666  10.077  0.0482  0.6480  0.6624
  449MOL0     H59239   1.285   2.511  10.019 -0.3354 -0.1325 -0.4728
  449MOL0     H59240   1.086   2.678   9.866  1.9488  1.8794  0.5909
  449MOL0     H59241   1.137   2.523   9.826 -3.1995 -0.7375  0.1990
  449MOL0     H59242   0.914   2.534   9.962 -0.1099 -1.7212  0.2020
  449MOL0     H59243   1.003   2.620  10.087 -0.4696 -0.2741 -0.9596
  449MOL0     H59244   1.132   2.384  10.115  0.7273 -1.1302 -1.4229
  449MOL0     H59245   1.049   2.330   9.980 -1.0672  0.8995 -0.9795
  449MOL0     H59246   0.938   2.238  10.196 -2.4030 -0.6337 -1.4773
  449MOL0     H59247   0.931   2.397  10.259  0.8009 -0.8217  0.2341
  449MOL0     H59248   0.801   2.303   9.997 -1.7691  0.1644 -0.0050
  449MOL0     H59249   0.742   2.429  10.114  0.4529  0.7037 -1.3921
  449MOL0     H59250   1.739   2.408   9.899 -2.4987  0.8824  0.8616
  449MOL0     H59251   1.977   2.406   9.896  0.4325  0.0477  1.8473
  449MOL0     H59252   2.369   2.397   9.684  1.3365 -1.6973  1.5303
  449MOL0     H59253   2.615   2.411   9.687  1.2601  1.7940 -0.7661
  449MOL0     H59254   4.280   2.462   9.041  2.9645 -0.7097  0.8549
  449MOL0     H59255   4.496   2.475   9.017 -0.3123  0.5624  0.2047
  449MOL0     H59256   4.853   2.518   9.030  0.2036  0.7652 -0.7911
  449MOL0     H59257   5.072   2.454   8.983  3.2637 -0.1358  1.0048
  449MOL0     H59258   5.278   2.484   8.881 -0.0342 -0.6862  0.1593
  449MOL0     H59259   5.302   2.423   9.046 -1.1295  0.2305  0.1710
  449MOL0     H59260   5.479   2.428   8.857 -1.5121 -0.2025  1.0014
  449MOL0     H59261   5.536   2.579   8.939  2.8311 -1.0999  0.8211
  449MOL0     H59262   5.486   2.304   9.085 -0.3041 -1.2313 -2.7565
  449MOL0     H59263   5.561   2.461   9.149 -0.1276 -0.8555  0.0280
  449MOL0     H59264   5.678   2.232   8.971  0.1678 -1.3845  0.9725
  449MOL0     H59265   5.753   2.393   8.982  1.7511 -0.5396  2.7021
  449MOL0     H59266   5.838   2.161   9.330  0.5276  1.6907 -0.5686
  449MOL0     H59267   5.214   2.816   9.183  1.0473 -2.5775  2.0569
  449MOL0     H59268   4.966   2.895   9.191 -1.0813 -1.1529  1.7107
  450MOL0     O59269   7.939  10.313   6.240 -0.2546 -0.0026 -0.2756
  450MOL0     C59270   7.990  10.320   6.120 -0.1875 -0.3734 -0.1300
  450MOL0     O59271   7.966  10.422   6.031 -0.6192 -0.1624  0.0139
  450MOL0     C59272   7.877  10.515   6.071  0.4208 -0.2643 -0.5191
  450MOL0     C59273   7.761  10.539   5.992  0.9555 -0.6376  0.0617
  450MOL0     C59274   7.655  10.629   6.028  0.0785 -0.1036 -0.2826
  450MOL0     C59275   7.661  10.696   6.149  0.0499  0.5432  0.2264
  450MOL0     O59276   7.566  10.777   6.203  0.6322 -0.5083 -0.3189
  450MOL0     C59277   7.427  10.758   6.187  0.9712  0.5962 -0.5444
  450MOL0     C59278   7.346  10.875   6.129 -0.3386  0.4872  0.6240
  450MOL0     C59279   7.195  10.839   6.123  0.0104  0.7437  0.3250
  450MOL0     C59280   7.117  10.963   6.093  0.3171  0.0336 -0.5610
  450MOL0     C59281   6.963  10.937   6.100  0.1752 -0.7683  0.2170
  450MOL0     C59282   6.919  10.824   6.007 -0.1773 -0.5532  0.5147
  450MOL0     C59283   6.767  10.825   5.992  0.4625 -0.3903  0.8009
  450MOL0     C59284   6.721  10.742   5.877 -0.3971  0.4972  0.2385
  450MOL0     N59285   6.571  10.725   5.877 -0.4734 -0.0322  0.5097
  450MOL0     C59286   6.478  10.821   5.904  0.5342 -0.7441  0.3756
  450MOL0     C59287   6.367  10.759   5.924  0.5485 -0.2018  0.1705
  450MOL0     C59288   6.237  10.828   5.955 -0.6728 -0.6375 -0.2574
  450MOL0     C59289   6.123  10.733   5.923 -0.5854 -0.2385  0.7092
  450MOL0     C59290   5.997  10.772   5.999  0.5180  0.0396  0.6989
  450MOL0     C59291   5.928  10.902   5.953 -0.7109 -0.3915 -0.3736
  450MOL0     O59292   5.879  10.873   5.814 -0.2847 -0.6211 -0.1216
  450MOL0     C59293   5.840  10.996   5.763 -0.8953 -0.0626 -0.0762
  450MOL0     C59294   5.934  11.101   5.742 -0.9174  0.9456  0.1801
  450MOL0     C59295   5.892  11.228   5.693 -0.1263 -0.1493  0.2598
  450MOL0     C59296   5.763  11.254   5.659  0.1226 -0.2751 -0.0853
  450MOL0     C59297   5.713  11.381   5.593  0.0133 -0.2529 -0.0326
  450MOL0     O59298   5.810  11.476   5.598 -0.4826  0.0991 -0.2772
  450MOL0     C59299   5.777  11.609   5.604 -0.8966  0.1878 -0.5825
  450MOL0     C59300   5.878  11.704   5.579  1.1246 -0.1987  0.9346
  450MOL0     C59301   5.855  11.842   5.585 -0.0658  0.2775  0.2554
  450MOL0     C59302   5.730  11.894   5.623  0.0700  0.0801  0.0651
  450MOL0     O59303   5.723  12.032   5.635  0.6008  0.2059  0.6489
  450MOL0     C59304   5.599  12.086   5.695  0.4190  0.3913 -0.4557
  450MOL0     C59305   5.509  12.150   5.592 -1.2051 -0.3902  0.1078
  450MOL0     C59306   5.378  12.202   5.658 -0.2616  0.4117  0.8072
  450MOL0     C59307   5.284  12.268   5.560  0.0290 -0.5011 -0.1536
  450MOL0     C59308   5.156  12.314   5.629 -0.1287 -0.3589  1.0338
  450MOL0     C59309   5.074  12.416   5.540  0.0478 -0.8183 -0.3595
  450MOL0     C59310   4.928  12.376   5.568  0.1146 -0.3520 -0.2479
  450MOL0     C59311   4.822  12.476   5.526  0.1861  0.0952 -0.6969
  450MOL0    Cl59312   4.833  12.632   5.619 -0.5838 -0.1911 -0.4644
  450MOL0     C59313   5.626  11.799   5.642 -0.5050 -0.0333  0.5059
  450MOL0     C59314   5.649  11.662   5.634 -0.1269  1.3438 -1.1995
  450MOL0     O59315   5.602  11.388   5.540  0.8380  0.3296  0.1820
  450MOL0     C59316   5.668  11.147   5.676  0.0004 -0.7293  0.6172
  450MOL0     C59317   5.706  11.023   5.741 -0.1283  0.1909 -0.2088
  450MOL0     N59318   6.387  10.619   5.920  0.3238 -0.3194 -0.2193
  450MOL0     N59319   6.511  10.604   5.894 -0.0459 -0.0423 -0.2835
  450MOL0     C59320   7.779  10.680   6.229 -0.4056 -0.1289 -0.0231
  450MOL0     C59321   7.884  10.594   6.187  0.3892  0.0783  0.1676
  450MOL0     C59322   8.084  10.216   6.073 -0.0519 -0.0916 -0.2401
  450MOL0     C59323   8.163  10.145   6.167  1.6082  0.5036  0.9129
  450MOL0     C59324   8.260  10.056   6.124 -0.4333 -0.1010 -0.2594
  450MOL0     C59325   8.285  10.045   5.989  0.0513 -0.0528  1.0685
  450MOL0     O59326   8.380   9.962   5.932  0.3322 -0.6506  0.5210
  450MOL0     C59327   8.426   9.842   5.988  0.4850 -0.1028 -0.8354
  450MOL0     C59328   8.301   9.744   6.003 -0.4596  0.9724  0.0573
  450MOL0     C59329   8.352   9.621   6.085  0.8600 -0.4524  0.7383
  450MOL0     C59330   8.431   9.529   5.986 -0.4029 -0.2132 -0.0662
  450MOL0     C59331   8.558   9.495   6.043 -0.0081 -0.6651  0.0269
  450MOL0     C59332   8.666   9.465   6.098 -0.2039 -0.2964 -0.4189
  450MOL0     C59333   8.221  10.126   5.894 -0.6011  0.2231  0.0135
  450MOL0     C59334   8.119  10.208   5.937 -0.0741 -0.1846  0.3855
  450MOL0     H59335   7.752  10.481   5.900  1.1885  0.8584 -0.9295
  450MOL0     H59336   7.569  10.634   5.961  0.5337 -0.9964 -0.9609
  450MOL0     H59337   7.390  10.743   6.289  1.3692  1.1468 -0.3096
  450MOL0     H59338   7.412  10.664   6.134 -1.1553 -0.6008  1.9250
  450MOL0     H59339   7.388  10.910   6.034  3.2961 -2.4267  0.9321
  450MOL0     H59340   7.358  10.959   6.198  2.8635 -0.7708  1.7661
  450MOL0     H59341   7.163  10.789   6.214 -0.3852  0.6152  0.1171
  450MOL0     H59342   7.168  10.769   6.043  0.4512  2.5965 -1.5619
  450MOL0     H59343   7.149  11.031   6.172  3.8120 -0.2444 -1.5794
  450MOL0     H59344   7.151  11.004   5.998 -1.1167  2.9618  0.0838
  450MOL0     H59345   6.911  11.022   6.054  1.2317  0.5713  1.3662
  450MOL0     H59346   6.939  10.919   6.205  2.0790  0.6319  0.9518
  450MOL0     H59347   6.950  10.731   6.057  0.6634  0.6448  2.3288
  450MOL0     H59348   6.961  10.851   5.910  1.5451  1.4414  1.7503
  450MOL0     H59349   6.721  10.789   6.085 -0.6267 -0.2336  0.3338
  450MOL0     H59350   6.740  10.927   5.962  4.7851  0.9605  0.8149
  450MOL0     H59351   6.766  10.642   5.890 -2.0805 -0.7273 -2.4914
  450MOL0     H59352   6.765  10.786   5.787  1.3752 -1.0046  0.2964
  450MOL0     H59353   6.507  10.925   5.890  3.0203 -1.5322 -1.0057
  450MOL0     H59354   6.226  10.916   5.890  0.3992 -1.0008 -0.9556
  450MOL0     H59355   6.239  10.868   6.057 -1.5559  0.7284 -0.7365
  450MOL0     H59356   6.142  10.629   5.950  0.1347  0.1470  1.7055
  450MOL0     H59357   6.114  10.746   5.815  0.8510 -1.6251  0.3891
  450MOL0     H59358   5.923  10.695   5.974  0.6072  0.2099 -0.1182
  450MOL0     H59359   6.013  10.767   6.107  0.3726 -1.2363  0.6688
  450MOL0     H59360   6.001  10.984   5.950 -0.0942 -0.9465 -3.0304
  450MOL0     H59361   5.849  10.936   6.020 -1.0863  0.5506 -1.2672
  450MOL0     H59362   6.041  11.093   5.758 -0.6228 -0.3323 -1.9453
  450MOL0     H59363   5.975  11.296   5.676 -0.0682 -0.5666 -1.3598
  450MOL0     H59364   5.981  11.672   5.569  0.6092 -1.6123 -0.2062
  450MOL0     H59365   5.931  11.918   5.568 -1.1240  1.3058 -0.0451
  450MOL0     H59366   5.631  12.159   5.769 -1.7822 -0.9063  1.9441
  450MOL0     H59367   5.542  12.015   5.756  1.1071  0.7532  0.6220
  450MOL0     H59368   5.495  12.078   5.511 -0.9826 -0.4415  0.1142
  450MOL0     H59369   5.555  12.239   5.548 -1.7102 -0.4431 -0.5429
  450MOL0     H59370   5.416  12.274   5.732 -0.6930 -0.8754  2.3434
  450MOL0     H59371   5.329  12.128   5.722  0.2353 -0.1080  0.6012
  450MOL0     H59372   5.334  12.355   5.516 -0.4962  0.1706  0.5554
  450MOL0     H59373   5.264  12.199   5.477 -2.4742  2.6624 -2.4826
  450MOL0     H59374   5.174  12.375   5.718 -0.5129  1.0949  0.1433
  450MOL0     H59375   5.098  12.224   5.652 -1.1237  0.1605  0.6192
  450MOL0     H59376   5.096  12.410   5.433  1.0060  1.3627 -0.3314
  450MOL0     H59377   5.088  12.520   5.570  0.9934 -0.6078 -1.4577
  450MOL0     H59378   4.906  12.280   5.521 -0.3366  0.5729 -2.0331
  450MOL0     H59379   4.922  12.366   5.676  1.8392 -2.8116 -0.3195
  450MOL0     H59380   4.719  12.443   5.542 -0.7766  1.5501 -3.2970
  450MOL0     H59381   4.836  12.497   5.419 -1.0377  3.1843 -0.3178
  450MOL0     H59382   5.526  11.826   5.675 -0.3028 -1.2886  2.2505
  450MOL0     H59383   5.566  11.600   5.667  0.4194 -0.3398 -2.8272
  450MOL0     H59384   5.566  11.161   5.643 -0.1797  0.2275  1.5336
  450MOL0     H59385   5.630  10.947   5.755  1.3603 -1.6089 -1.4331
  450MOL0     H59386   7.798  10.741   6.317  3.1439  0.7908 -1.2388
  450MOL0     H59387   7.974  10.580   6.246  0.6611  0.0317 -0.2488
  450MOL0     H59388   8.136  10.156   6.271  1.3439 -1.0981  1.0448
  450MOL0     H59389   8.328   9.998   6.185 -0.1057 -0.9136 -1.3663
  450MOL0     H59390   8.473   9.865   6.083 -1.5623 -0.8695  0.4270
  450MOL0     H59391   8.494   9.788   5.922 -0.4612 -1.3622 -0.8304
  450MOL0     H59392   8.210   9.780   6.051  0.2157 -0.1861  2.3164
  450MOL0     H59393   8.270   9.711   5.903 -0.9821  0.1908  0.4725
  450MOL0     H59394   8.264   9.559   6.104 -0.1576  0.6551 -0.2370
  450MOL0     H59395   8.397   9.656   6.179  0.2278  1.4161  0.3805
  450MOL0     H59396   8.374   9.443   5.951  0.4739  0.1170 -2.5119
  450MOL0     H59397   8.447   9.585   5.893  1.7312 -2.1831 -0.9648
  450MOL0     H59398   8.760   9.438   6.142  0.7288  1.4201 -1.2497
  450MOL0     H59399   8.255  10.136   5.791 -0.2150  3.3469  0.3505
  450MOL0     H59400   8.078  10.274   5.861  1.8314  1.5936  0.8120
  451MOL0     O59401   5.919   0.197   3.013  0.4631  0.1966 -0.0665
  451MOL0     C59402   5.972   0.214   3.122  0.1782 -0.4775  0.2752
  451MOL0     O59403   5.917   0.211   3.241  0.3124 -0.0760 -0.4471
  451MOL0     C59404   5.807   0.132   3.249  0.5864 -0.4304 -0.3113
  451MOL0     C59405   5.812  -0.002   3.296  0.3490 -0.6895 -0.2258
  451MOL0     C59406   5.703  -0.089   3.288 -0.3954 -0.2952 -0.6230
  451MOL0     C59407   5.576  -0.044   3.244 -0.4728 -1.0570 -0.2454
  451MOL0     O59408   5.470  -0.132   3.238 -0.2295 -0.4088 -0.7247
  451MOL0     C59409   5.335  -0.099   3.214  0.3250 -0.8451  1.1511
  451MOL0     C59410   5.258  -0.059   3.338  0.7456  0.0547 -0.1112
  451MOL0     C59411   5.114  -0.050   3.334 -0.9925  1.2747 -0.2619
  451MOL0     C59412   5.066   0.068   3.248  0.2214  0.4144 -0.1070
  451MOL0     C59413   4.912   0.085   3.285 -0.1439  0.1979  0.3925
  451MOL0     C59414   4.836   0.179   3.181 -0.1645 -0.7359 -0.2910
  451MOL0     C59415   4.696   0.231   3.237  0.0879  0.3121 -0.2955
  451MOL0     C59416   4.616   0.304   3.126  0.1335  0.2766  0.2855
  451MOL0     N59417   4.490   0.368   3.170 -0.7374  0.6448  0.7005
  451MOL0     C59418   4.371   0.324   3.119 -0.8320 -0.9588 -0.2798
  451MOL0     C59419   4.286   0.424   3.142  0.2198  0.3258  0.1604
  451MOL0     C59420   4.139   0.414   3.120 -1.2857  0.0600  0.1447
  451MOL0     C59421   4.065   0.307   3.199  0.5113  0.7705 -0.0858
  451MOL0     C59422   3.928   0.293   3.151 -0.4229 -0.3228  0.2002
  451MOL0     C59423   3.855   0.190   3.228 -0.0832  0.0773 -0.8282
  451MOL0     O59424   3.725   0.149   3.175 -0.2101 -0.7955 -0.0034
  451MOL0     C59425   3.608   0.212   3.221  0.0126  0.1168  0.7667
  451MOL0     C59426   3.483   0.168   3.166  0.4203 -0.3310 -0.3399
  451MOL0     C59427   3.366   0.238   3.187  0.3764 -0.8823 -0.1293
  451MOL0     C59428   3.358   0.339   3.286 -0.6344 -0.4626 -0.3663
  451MOL0     C59429   3.233   0.407   3.302  0.6767  0.7114  0.2495
  451MOL0     O59430   3.132   0.346   3.238  0.0045 -0.6203  0.5657
  451MOL0     C59431   3.008   0.394   3.287  1.2550 -0.1174  0.5714
  451MOL0     C59432   2.929   0.479   3.208  0.7752 -0.2924 -0.8640
  451MOL0     C59433   2.811   0.529   3.257  0.4714 -0.4157 -0.3154
  451MOL0     C59434   2.758   0.492   3.384  0.8743  0.3011  0.1731
  451MOL0     O59435   2.641   0.541   3.439 -0.1447 -0.5187 -0.7070
  451MOL0     C59436   2.524   0.552   3.359 -0.0678  0.0059  0.4439
  451MOL0     C59437   2.407   0.627   3.437 -0.9955  0.2131 -0.6563
  451MOL0     C59438   2.300   0.689   3.336 -0.3463 -0.1871  0.6365
  451MOL0     C59439   2.190   0.755   3.417 -0.5962 -0.7584  0.7076
  451MOL0     C59440   2.081   0.800   3.323 -0.3896  0.1201 -0.1238
  451MOL0     C59441   1.969   0.852   3.416 -0.8585  0.2661  0.3253
  451MOL0     C59442   1.837   0.872   3.342  0.3579 -0.1756 -0.2255
  451MOL0     C59443   1.722   0.822   3.426  0.5304 -0.4330  0.6825
  451MOL0    Cl59444   1.582   0.875   3.333 -0.0804  0.0239  0.2003
  451MOL0     C59445   2.828   0.398   3.454  0.0671 -0.0717 -0.1384
  451MOL0     C59446   2.949   0.342   3.404 -0.6865 -0.6818  0.5095
  451MOL0     O59447   3.228   0.491   3.394  1.0296 -0.3942 -0.5334
  451MOL0     C59448   3.474   0.362   3.354  0.8197  0.6030  0.3913
  451MOL0     C59449   3.599   0.303   3.318  0.1743  0.1575 -0.5052
  451MOL0     N59450   4.351   0.517   3.219  0.5581  0.3088  0.3125
  451MOL0     N59451   4.476   0.485   3.230 -0.4240 -0.1485  0.6577
  451MOL0     C59452   5.564   0.093   3.205 -0.3105  0.5118  0.1656
  451MOL0     C59453   5.682   0.176   3.204 -0.4600  0.6629  0.0196
  451MOL0     C59454   6.119   0.244   3.115  0.8848  0.1282  0.0934
  451MOL0     C59455   6.210   0.223   3.227  0.6631 -0.1244 -0.6338
  451MOL0     C59456   6.345   0.236   3.215  1.1758 -0.7036 -0.4999
  451MOL0     C59457   6.399   0.279   3.094  0.2426  0.9730 -0.0547
  451MOL0     O59458   6.533   0.306   3.072 -0.0080 -0.2023  0.2088
  451MOL0     C59459   6.626   0.285   3.174  0.0481 -0.4058  0.3010
  451MOL0     C59460   6.767   0.323   3.124  0.6510  0.7325  0.8768
  451MOL0     C59461   6.800   0.472   3.137  0.6928  0.2033 -0.9369
  451MOL0     C59462   6.949   0.511   3.119 -0.1868 -0.4131  0.1510
  451MOL0     C59463   6.952   0.651   3.167 -0.7472  0.6768 -0.4925
  451MOL0     C59464   6.948   0.763   3.220  0.4780 -0.1689 -1.4424
  451MOL0     C59465   6.314   0.296   2.977  0.0478  0.1923 -0.0521
  451MOL0     C59466   6.172   0.284   2.988  0.1534  0.1306 -0.0004
  451MOL0     H59467   5.909  -0.032   3.334  2.3733  2.1146 -2.7467
  451MOL0     H59468   5.706  -0.194   3.312 -3.6568  0.0358  1.9806
  451MOL0     H59469   5.279  -0.187   3.182 -0.5583  0.0469  0.1746
  451MOL0     H59470   5.325  -0.031   3.129 -2.0992  1.4649  3.0670
  451MOL0     H59471   5.287   0.035   3.386 -0.8630 -0.6252  2.3631
  451MOL0     H59472   5.265  -0.144   3.406 -2.8633 -1.2944 -1.1959
  451MOL0     H59473   5.078  -0.035   3.436  0.7748 -0.5594  0.6886
  451MOL0     H59474   5.071  -0.145   3.299 -0.5427  0.0485  2.2986
  451MOL0     H59475   5.112   0.165   3.267  1.1767  0.1112 -0.8003
  451MOL0     H59476   5.077   0.041   3.142 -3.0613  2.0570 -1.0066
  451MOL0     H59477   4.896   0.136   3.380 -1.1139  2.1904 -0.7750
  451MOL0     H59478   4.863  -0.013   3.293 -0.0699 -0.0993 -1.9264
  451MOL0     H59479   4.843   0.123   3.088  3.0146 -3.4741  1.4056
  451MOL0     H59480   4.895   0.267   3.155 -0.9086 -0.7587 -2.2405
  451MOL0     H59481   4.639   0.149   3.282  0.9668 -1.0995 -1.6444
  451MOL0     H59482   4.718   0.311   3.308  0.9783 -0.1222 -0.0730
  451MOL0     H59483   4.602   0.228   3.049  1.6087 -2.4024  2.5051
  451MOL0     H59484   4.688   0.380   3.093  1.5315 -0.1795  2.1372
  451MOL0     H59485   4.358   0.229   3.068 -1.5501 -1.2578  0.4390
  451MOL0     H59486   4.128   0.395   3.013  1.0000  2.4825 -0.6469
  451MOL0     H59487   4.090   0.509   3.145 -2.5983 -0.1845 -1.3539
  451MOL0     H59488   4.075   0.336   3.304 -0.7978 -0.3357  0.3767
  451MOL0     H59489   4.110   0.209   3.179 -1.3361 -0.3578  0.9201
  451MOL0     H59490   3.867   0.384   3.157 -0.3195 -0.3443  1.9288
  451MOL0     H59491   3.919   0.260   3.047 -0.8312  1.0655 -0.2280
  451MOL0     H59492   3.848   0.202   3.337 -0.3550 -2.3677 -0.5111
  451MOL0     H59493   3.925   0.109   3.205  2.4171  1.4405  1.3541
  451MOL0     H59494   3.483   0.097   3.084  0.4305  1.2032 -1.7255
  451MOL0     H59495   3.288   0.209   3.117  0.6141 -1.5479 -0.1233
  451MOL0     H59496   2.960   0.526   3.115 -1.3108  0.0739 -1.4202
  451MOL0     H59497   2.754   0.596   3.192  0.7529 -0.5788 -0.7335
  451MOL0     H59498   2.500   0.451   3.325  0.7702  0.5826 -2.0730
  451MOL0     H59499   2.544   0.624   3.279  0.1559 -0.8477 -0.2764
  451MOL0     H59500   2.461   0.712   3.480  2.3239 -0.1645 -3.6207
  451MOL0     H59501   2.371   0.559   3.515 -0.2979  1.5438  0.8856
  451MOL0     H59502   2.259   0.609   3.273  1.8278 -0.2658 -0.7640
  451MOL0     H59503   2.353   0.762   3.274  0.6604 -1.7575 -0.4227
  451MOL0     H59504   2.159   0.678   3.489  3.9086 -1.9047  1.7024
  451MOL0     H59505   2.235   0.839   3.471  1.9748 -0.1543 -2.0793
  451MOL0     H59506   2.039   0.714   3.270 -0.6836  0.1996 -0.0206
  451MOL0     H59507   2.118   0.862   3.241  0.8279 -0.2395  0.1362
  451MOL0     H59508   2.002   0.945   3.463  0.2940 -0.5156  1.1085
  451MOL0     H59509   1.963   0.786   3.503 -1.1276  1.0214  0.8918
  451MOL0     H59510   1.824   0.975   3.307 -0.2440  0.7748  2.5651
  451MOL0     H59511   1.840   0.815   3.249 -1.5320  1.0010 -1.0566
  451MOL0     H59512   1.720   0.878   3.520  1.0408  1.6280 -0.4660
  451MOL0     H59513   1.736   0.714   3.436  0.1027 -0.5678 -0.1103
  451MOL0     H59514   2.777   0.372   3.546  0.2428 -0.5744 -0.1787
  451MOL0     H59515   2.974   0.263   3.474  1.1092 -0.0226  0.6530
  451MOL0     H59516   3.484   0.431   3.437 -0.6442 -0.8409  1.8440
  451MOL0     H59517   3.686   0.330   3.377  1.8546 -2.5625 -1.5285
  451MOL0     H59518   5.483   0.140   3.150  1.5734  0.5474 -2.8642
  451MOL0     H59519   5.663   0.275   3.165 -1.1938  0.2183 -0.7814
  451MOL0     H59520   6.176   0.177   3.320  1.9675 -0.2696 -0.2081
  451MOL0     H59521   6.392   0.225   3.313 -2.0182 -2.8957  0.9736
  451MOL0     H59522   6.629   0.179   3.201  1.2029 -0.6826 -0.7713
  451MOL0     H59523   6.608   0.341   3.266 -0.7074 -0.0127 -0.0850
  451MOL0     H59524   6.835   0.261   3.182 -0.9567 -0.3032  1.7383
  451MOL0     H59525   6.780   0.291   3.020 -1.1799 -0.1457  0.8726
  451MOL0     H59526   6.778   0.507   3.238  2.2060  3.2938 -1.5463
  451MOL0     H59527   6.736   0.531   3.072 -0.1847  3.4479  2.5062
  451MOL0     H59528   7.024   0.453   3.172 -0.4972 -0.0661  0.9796
  451MOL0     H59529   6.960   0.507   3.010 -0.2313 -0.1861  0.1376
  451MOL0     H59530   6.955   0.852   3.280  0.4394 -1.1777  0.1064
  451MOL0     H59531   6.350   0.321   2.877 -2.1865 -0.9722 -1.2477
  451MOL0     H59532   6.108   0.313   2.905  0.7506  3.1064  0.4501
  452MOL0     O59533   8.658   9.329   4.363 -0.1186  0.1456  0.0134
  452MOL0     C59534   8.644   9.397   4.467  0.3084 -0.5442 -0.1591
  452MOL0     O59535   8.532   9.461   4.503 -0.2840 -0.6196 -0.1631
  452MOL0     C59536   8.412   9.416   4.455  0.1131 -0.3816 -0.2403
  452MOL0     C59537   8.366   9.281   4.468 -0.6569  0.3632 -0.0666
  452MOL0     C59538   8.241   9.252   4.411 -0.5998 -0.1011  0.5866
  452MOL0     C59539   8.155   9.354   4.369  0.1361  1.2155  0.4200
  452MOL0     O59540   8.021   9.338   4.344 -0.1080 -0.3556 -0.2298
  452MOL0     C59541   7.983   9.201   4.309  0.0874 -0.1937 -0.5201
  452MOL0     C59542   7.835   9.208   4.252 -0.1354  0.6301 -0.1211
  452MOL0     C59543   7.828   9.274   4.111  0.5903 -0.0823  0.3018
  452MOL0     C59544   7.836   9.425   4.105 -0.0109 -0.4584  0.8434
  452MOL0     C59545   7.769   9.480   3.969 -0.0349  0.2154  0.5703
  452MOL0     C59546   7.847   9.419   3.852  0.5414 -0.2626  0.6895
  452MOL0     C59547   7.799   9.476   3.721 -0.6326  1.0282  0.2027
  452MOL0     C59548   7.852   9.624   3.690  0.4994  1.3377 -0.4830
  452MOL0     N59549   7.829   9.669   3.555  0.2457 -0.2237 -0.9446
  452MOL0     C59550   7.939   9.714   3.476 -0.0182 -0.9314  0.1075
  452MOL0     C59551   7.875   9.794   3.381 -0.1859  0.1721 -0.4683
  452MOL0     C59552   7.940   9.893   3.288 -0.4363  0.5238  0.1516
  452MOL0     C59553   7.979   9.813   3.162 -0.5059  0.5093  0.5755
  452MOL0     C59554   8.081   9.699   3.185 -0.3495  0.1077  0.6401
  452MOL0     C59555   8.215   9.759   3.229  0.2184  0.7910  0.0053
  452MOL0     O59556   8.314   9.653   3.240  0.1964 -0.3867 -0.2216
  452MOL0     C59557   8.445   9.677   3.262 -0.7405 -0.0484 -0.8840
  452MOL0     C59558   8.528   9.566   3.293 -0.6495 -0.4312 -1.0859
  452MOL0     C59559   8.672   9.585   3.308  0.5593 -0.4741  0.0269
  452MOL0     C59560   8.725   9.708   3.275  0.1733  0.4208  0.0407
  452MOL0     C59561   8.874   9.736   3.264 -0.0751 -0.3298 -0.1255
  452MOL0     O59562   8.923   9.866   3.258  1.0502  0.4701 -0.1634
  452MOL0     C59563   9.060   9.883   3.284 -0.1641 -0.1570  0.7042
  452MOL0     C59564   9.157   9.820   3.201  0.5537  0.3191 -0.3594
  452MOL0     C59565   9.291   9.851   3.212  0.0830 -0.2033  0.2519
  452MOL0     C59566   9.332   9.937   3.314  0.4453  0.6711  0.0274
  452MOL0     O59567   9.465   9.943   3.336 -0.0087  1.1587  0.3135
  452MOL0     C59568   9.516   9.985   3.463  0.0740  0.0589  0.8091
  452MOL0     C59569   9.668   9.985   3.456  0.2439 -0.4367  0.2612
  452MOL0     C59570   9.729   9.845   3.479 -0.6260  0.4513 -0.4659
  452MOL0     C59571   9.688   9.733   3.382 -0.0366  0.1324  0.8049
  452MOL0     C59572   9.763   9.600   3.416 -0.6990 -0.2955 -0.9449
  452MOL0     C59573   9.729   9.467   3.338  0.9219 -0.0551  0.2743
  452MOL0     C59574   9.844   9.372   3.374  0.2906  0.0372 -0.3605
  452MOL0     C59575   9.832   9.254   3.282 -0.4120 -0.1412 -0.4297
  452MOL0    Cl59576   9.686   9.156   3.304  0.3241  0.3283 -0.0580
  452MOL0     C59577   9.234  10.002   3.398  1.0027  0.4891  0.0360
  452MOL0     C59578   9.095   9.986   3.373 -0.0424 -0.1121 -0.3993
  452MOL0     O59579   8.946   9.638   3.271 -0.4617  0.9283 -0.7816
  452MOL0     C59580   8.638   9.818   3.256 -0.1876  0.2673  0.4162
  452MOL0     C59581   8.504   9.806   3.260  0.1398 -0.6008 -0.2352
  452MOL0     N59582   7.741   9.780   3.402  0.0750  0.2134 -0.3895
  452MOL0     N59583   7.712   9.707   3.498  0.2910  0.5071 -0.0549
  452MOL0     C59584   8.200   9.487   4.370 -0.0758  0.0031 -0.6166
  452MOL0     C59585   8.331   9.514   4.400 -0.4814 -0.4755 -0.2655
  452MOL0     C59586   8.771   9.425   4.546 -0.0144 -0.1345  0.2990
  452MOL0     C59587   8.769   9.496   4.667 -0.4706 -0.0492  0.0457
  452MOL0     C59588   8.884   9.515   4.742 -0.5901 -0.2832  0.2481
  452MOL0     C59589   9.010   9.456   4.701 -0.3682 -0.5507 -0.0763
  452MOL0     O59590   9.116   9.488   4.779 -0.2831 -0.0437  0.0032
  452MOL0     C59591   9.238   9.424   4.737  0.9666  0.6350 -0.0657
  452MOL0     C59592   9.368   9.476   4.814  0.0998 -0.0634  0.0578
  452MOL0     C59593   9.490   9.380   4.779  0.2859 -0.5327 -0.3024
  452MOL0     C59594   9.612   9.414   4.866 -0.7937 -0.8758 -0.4006
  452MOL0     C59595   9.595   9.384   5.009  0.7107 -0.3129  0.1041
  452MOL0     C59596   9.584   9.354   5.123 -0.4639 -0.1174 -0.7857
  452MOL0     C59597   9.010   9.382   4.592  0.0563 -0.1418 -0.8519
  452MOL0     C59598   8.895   9.365   4.514  0.5467 -0.0560 -0.3440
  452MOL0     H59599   8.420   9.201   4.518 -1.9911 -1.5582 -1.5478
  452MOL0     H59600   8.211   9.149   4.430 -2.0649  0.3276  0.7659
  452MOL0     H59601   7.985   9.134   4.395  2.7869  2.0378  1.3259
  452MOL0     H59602   8.043   9.148   4.234  0.8082  0.3872 -0.3700
  452MOL0     H59603   7.758   9.249   4.319 -2.4670 -1.7524 -1.1651
  452MOL0     H59604   7.821   9.101   4.238  0.1758  0.5315  0.3153
  452MOL0     H59605   7.732   9.247   4.064 -0.2758  1.9448  0.7996
  452MOL0     H59606   7.912   9.240   4.050  0.0647  0.2939 -0.6631
  452MOL0     H59607   7.782   9.474   4.187  2.3273  1.2272  1.4853
  452MOL0     H59608   7.940   9.453   4.123 -0.1871  1.1002 -0.3629
  452MOL0     H59609   7.766   9.589   3.968 -0.0110  0.2526  2.2178
  452MOL0     H59610   7.667   9.442   3.963  1.0503 -3.0860  1.0430
  452MOL0     H59611   7.841   9.310   3.851  1.1085 -0.3422 -1.8448
  452MOL0     H59612   7.954   9.441   3.859  0.7695 -1.6693  2.0091
  452MOL0     H59613   7.850   9.417   3.645 -0.7191  2.9616 -1.4327
  452MOL0     H59614   7.690   9.462   3.714 -0.2650 -2.7225 -0.1510
  452MOL0     H59615   7.959   9.634   3.709  0.6228 -1.7409  1.0240
  452MOL0     H59616   7.801   9.694   3.757  0.8729 -0.7624  2.1496
  452MOL0     H59617   8.045   9.720   3.497  0.3250 -0.6063 -1.5490
  452MOL0     H59618   8.029   9.933   3.337  1.5299 -0.0920 -2.6242
  452MOL0     H59619   7.867   9.972   3.265 -1.7891 -1.2028 -1.9584
  452MOL0     H59620   8.023   9.889   3.096 -1.6464 -2.1739 -3.6418
  452MOL0     H59621   7.891   9.770   3.114  0.2090  1.1411 -1.4060
  452MOL0     H59622   8.050   9.635   3.268 -0.2283 -1.5951 -0.5794
  452MOL0     H59623   8.105   9.650   3.090 -1.7229  1.3722 -0.4155
  452MOL0     H59624   8.205   9.807   3.326 -1.3331 -1.8258  1.2301
  452MOL0     H59625   8.250   9.822   3.146 -0.0568 -0.4456 -1.0883
  452MOL0     H59626   8.481   9.468   3.290  0.9206 -1.2057 -1.8200
  452MOL0     H59627   8.740   9.503   3.330  0.1339 -0.1065  3.1446
  452MOL0     H59628   9.127   9.753   3.121  0.0074  0.8411 -0.6048
  452MOL0     H59629   9.369   9.811   3.148 -0.8084  1.9802 -2.3871
  452MOL0     H59630   9.491   9.901   3.529  0.9301  0.0347  1.1096
  452MOL0     H59631   9.479  10.082   3.496 -2.1212 -0.8141  1.0911
  452MOL0     H59632   9.710  10.049   3.534 -2.8904  0.0967  1.6379
  452MOL0     H59633   9.696  10.029   3.360  2.5087 -1.7951  0.2266
  452MOL0     H59634   9.707   9.814   3.582 -0.0191  2.4088  0.3104
  452MOL0     H59635   9.838   9.853   3.485 -0.7063  1.4221 -0.0737
  452MOL0     H59636   9.582   9.715   3.405 -0.4514  1.5992  0.1601
  452MOL0     H59637   9.710   9.772   3.282 -1.2660  1.3227  0.9706
  452MOL0     H59638   9.733   9.580   3.519  0.2744 -0.7413 -0.7418
  452MOL0     H59639   9.869   9.625   3.420 -0.7040 -0.3683  2.0587
  452MOL0     H59640   9.701   9.481   3.233 -1.4084  1.2670  1.0074
  452MOL0     H59641   9.635   9.425   3.375 -0.0332  1.2534 -0.5716
  452MOL0     H59642   9.944   9.414   3.361  0.6134 -0.0894  1.5022
  452MOL0     H59643   9.827   9.337   3.476  0.1628 -0.2596 -0.4812
  452MOL0     H59644   9.909   9.177   3.295  0.0065  0.6237  2.2004
  452MOL0     H59645   9.839   9.294   3.181  3.3874 -0.9409 -0.6282
  452MOL0     H59646   9.271  10.047   3.490  2.2611 -2.1416  0.9254
  452MOL0     H59647   9.008  10.030   3.420  1.4136  2.1620  0.3126
  452MOL0     H59648   8.671   9.921   3.245  0.2294  0.1321  0.3845
  452MOL0     H59649   8.444   9.894   3.241 -1.6141 -2.1886 -2.4208
  452MOL0     H59650   8.129   9.557   4.327 -0.1738 -0.2782 -0.9196
  452MOL0     H59651   8.372   9.614   4.398 -1.0122 -0.1944  1.6938
  452MOL0     H59652   8.677   9.542   4.702  0.2956  1.1834  0.4991
  452MOL0     H59653   8.877   9.586   4.824 -2.3516 -0.3821  0.2213
  452MOL0     H59654   9.277   9.442   4.636 -1.7658  1.5573 -1.0532
  452MOL0     H59655   9.225   9.320   4.769  0.0796  0.6808 -0.2428
  452MOL0     H59656   9.390   9.578   4.783  0.2735 -0.5062 -1.3194
  452MOL0     H59657   9.350   9.486   4.922  0.6374  0.5650  0.0982
  452MOL0     H59658   9.523   9.403   4.677 -0.9796  0.4475 -0.5269
  452MOL0     H59659   9.467   9.274   4.790  3.6545 -1.5847 -2.0139
  452MOL0     H59660   9.700   9.359   4.830 -0.2229  1.4544 -2.9307
  452MOL0     H59661   9.631   9.521   4.850 -1.1916 -0.8041 -0.4126
  452MOL0     H59662   9.570   9.329   5.226 -0.6176  1.3051 -0.4444
  452MOL0     H59663   9.105   9.354   4.549 -0.4755  0.3465 -2.4005
  452MOL0     H59664   8.902   9.318   4.417  1.1949 -0.5660 -0.0611
  453MOL0     O59665  10.917   6.813   8.041 -0.3424 -0.5484 -0.4727
  453MOL0     C59666  10.890   6.930   8.086 -0.0189  0.6715  0.0986
  453MOL0     O59667  10.974   7.034   8.119  0.1727 -0.1680  0.6074
  453MOL0     C59668  11.114   7.013   8.115 -0.6248 -0.3334 -0.1784
  453MOL0     C59669  11.195   7.113   8.062 -0.5479 -0.4073  0.0839
  453MOL0     C59670  11.338   7.091   8.059  0.1561 -0.3005  0.3261
  453MOL0     C59671  11.390   6.969   8.104 -0.7590  0.1422 -0.4691
  453MOL0     O59672  11.519   6.943   8.063 -0.3464  0.0866 -0.3169
  453MOL0     C59673  11.596   6.838   8.135  0.6088  0.6028  0.2880
  453MOL0     C59674  11.738   6.824   8.068 -1.4790 -0.4200 -0.3517
  453MOL0     C59675  11.720   6.765   7.926 -0.3695  0.6602 -0.4905
  453MOL0     C59676  11.850   6.754   7.850 -0.3869  0.5669  0.4630
  453MOL0     C59677  11.823   6.709   7.703  1.0110  0.3665  0.1714
  453MOL0     C59678  11.937   6.656   7.620  0.4385  0.2400  1.4626
  453MOL0     C59679  12.043   6.768   7.603 -0.1886  0.4192  0.2426
  453MOL0     C59680  12.009   6.859   7.482 -0.1473  0.1769  0.3888
  453MOL0     N59681  12.027   6.787   7.350  0.5634  0.1536 -0.3037
  453MOL0     C59682  12.143   6.751   7.291  1.0234  0.1374 -0.7226
  453MOL0     C59683  12.111   6.672   7.189  0.0574  0.6873  0.0243
  453MOL0     C59684  12.192   6.635   7.066 -0.4006 -0.6616  0.1823
  453MOL0     C59685  12.180   6.739   6.944 -0.1860 -0.1634  0.3775
  453MOL0     C59686  12.050   6.750   6.879  0.3129  0.6684  0.9152
  453MOL0     C59687  12.028   6.631   6.778 -0.6239  1.7064 -0.1095
  453MOL0     O59688  11.910   6.659   6.703 -0.1573  0.7008 -0.0285
  453MOL0     C59689  11.802   6.584   6.736  0.3771  0.0748  0.1794
  453MOL0     C59690  11.778   6.522   6.860 -0.4528  0.6800  0.4958
  453MOL0     C59691  11.651   6.462   6.889  0.8964 -1.2907 -0.6443
  453MOL0     C59692  11.546   6.456   6.783 -0.5170  0.3652 -0.6228
  453MOL0     C59693  11.422   6.391   6.809  1.3924  0.0455 -0.5833
  453MOL0     O59694  11.313   6.433   6.734 -0.8476  0.1166  0.7038
  453MOL0     C59695  11.193   6.365   6.749 -0.8693  0.9062  0.1147
  453MOL0     C59696  11.178   6.228   6.705  0.0814  0.1944 -0.4561
  453MOL0     C59697  11.058   6.162   6.706  1.3301  0.5282 -0.4074
  453MOL0     C59698  10.941   6.224   6.746  0.6627 -0.2586 -0.8747
  453MOL0     O59699  10.841   6.141   6.775  0.0177 -0.0713  0.0345
  453MOL0     C59700  10.704   6.185   6.773  0.6314  0.6239  0.1034
  453MOL0     C59701  10.611   6.073   6.827  0.4998  0.5816 -0.0220
  453MOL0     C59702  10.457   6.105   6.818 -0.5019 -0.2207 -1.1069
  453MOL0     C59703  10.402   6.192   6.931  0.5647  0.0245 -0.7266
  453MOL0     C59704  10.250   6.183   6.926 -0.3262  0.0705  0.4588
  453MOL0     C59705  10.193   6.258   7.051 -0.7786 -0.3465 -0.3313
  453MOL0     C59706  10.040   6.255   7.045  0.5884 -0.3165  0.2556
  453MOL0     C59707   9.985   6.344   7.149  0.3585 -1.0578  0.0025
  453MOL0    Cl59708   9.799   6.350   7.150 -0.1864  0.1097  0.4958
  453MOL0     C59709  10.962   6.351   6.805 -0.3706 -0.5042 -0.1784
  453MOL0     C59710  11.081   6.425   6.809  0.1928 -0.2195 -0.2909
  453MOL0     O59711  11.418   6.296   6.890 -0.1861  0.1766  0.6670
  453MOL0     C59712  11.574   6.515   6.665 -0.8533 -0.1503  0.7767
  453MOL0     C59713  11.692   6.597   6.645 -0.3034  0.6157  0.5758
  453MOL0     N59714  11.976   6.658   7.185 -0.2138  0.2919  0.3412
  453MOL0     N59715  11.922   6.726   7.278 -0.7795 -0.7614 -0.3263
  453MOL0     C59716  11.308   6.873   8.166  0.3860 -0.4446  0.2169
  453MOL0     C59717  11.168   6.895   8.164  0.5373 -0.7878  0.0198
  453MOL0     C59718  10.756   6.931   8.142  0.1533  0.8413 -0.0465
  453MOL0     C59719  10.649   6.873   8.076 -0.1455 -0.8235  0.6624
  453MOL0     C59720  10.526   6.869   8.135  0.0926  0.3860  0.2987
  453MOL0     C59721  10.498   6.933   8.264 -0.0357 -0.0723  0.8703
  453MOL0     O59722  10.378   6.935   8.327  1.0464 -0.3676 -0.4145
  453MOL0     C59723  10.256   6.871   8.276 -1.0914 -0.0462  0.1948
  453MOL0     C59724  10.151   6.889   8.380 -0.0643  0.1925 -0.0735
  453MOL0     C59725  10.029   6.788   8.385  0.3634 -0.2452 -0.4774
  453MOL0     C59726   9.943   6.818   8.513 -0.1171 -0.9876  0.2675
  453MOL0     C59727   9.890   6.955   8.520 -0.0779 -0.3524 -0.3916
  453MOL0     C59728   9.856   7.060   8.537 -0.1598 -0.9201 -0.7490
  453MOL0     C59729  10.607   6.989   8.324 -0.1434 -0.1217 -0.7553
  453MOL0     C59730  10.735   6.987   8.265  0.1328  0.4766  0.3668
  453MOL0     H59731  11.167   7.207   8.016 -1.1815 -0.1918  0.8781
  453MOL0     H59732  11.406   7.166   8.020 -0.1960  0.1224  0.5133
  453MOL0     H59733  11.544   6.741   8.132 -1.3749  1.5094  2.3527
  453MOL0     H59734  11.610   6.863   8.241  0.6592  0.6813  0.2629
  453MOL0     H59735  11.805   6.764   8.129 -2.0523 -0.6967  0.0112
  453MOL0     H59736  11.782   6.924   8.071 -1.1776 -0.5745  2.2616
  453MOL0     H59737  11.652   6.824   7.863 -0.4374  3.7351  2.1772
  453MOL0     H59738  11.677   6.665   7.935 -2.8349  1.3283 -3.2848
  453MOL0     H59739  11.897   6.852   7.860 -2.3280  1.6515 -0.4922
  453MOL0     H59740  11.912   6.679   7.900 -2.0895 -3.5991 -2.9593
  453MOL0     H59741  11.785   6.802   7.660 -0.8479 -0.4538 -0.0642
  453MOL0     H59742  11.747   6.631   7.697  0.8668  0.6263 -2.9111
  453MOL0     H59743  11.894   6.643   7.520  1.6261  3.6047  0.3593
  453MOL0     H59744  11.987   6.570   7.665  3.4723  0.8349 -0.4814
  453MOL0     H59745  12.041   6.826   7.696 -2.3833 -0.7210  0.9888
  453MOL0     H59746  12.146   6.731   7.604 -0.2890 -0.0897  3.6321
  453MOL0     H59747  12.064   6.953   7.480  0.2501 -0.0317  1.0841
  453MOL0     H59748  11.902   6.878   7.490 -0.0317  0.1478  2.5521
  453MOL0     H59749  12.243   6.792   7.294  1.3286 -0.5264 -1.5277
  453MOL0     H59750  12.139   6.541   7.050  0.1933 -0.9104 -0.3552
  453MOL0     H59751  12.294   6.621   7.103 -1.1537 -2.6845  1.6923
  453MOL0     H59752  12.260   6.712   6.874 -0.8691  2.6661 -1.6723
  453MOL0     H59753  12.203   6.838   6.986  0.1159 -0.3750  0.7189
  453MOL0     H59754  11.966   6.770   6.945 -1.4778  4.5234 -2.1674
  453MOL0     H59755  12.055   6.840   6.817 -1.6387  0.5293  0.4999
  453MOL0     H59756  12.025   6.542   6.841 -2.9882  1.3914 -0.5812
  453MOL0     H59757  12.112   6.614   6.710 -2.5507 -3.4591 -1.6741
  453MOL0     H59758  11.854   6.531   6.936  1.3881  1.6528 -1.3562
  453MOL0     H59759  11.634   6.417   6.986 -1.7701  1.4932  0.3638
  453MOL0     H59760  11.272   6.187   6.669  0.2069 -1.6184  1.7548
  453MOL0     H59761  11.044   6.059   6.675 -0.7710  0.8558 -0.6790
  453MOL0     H59762  10.667   6.215   6.674 -1.7566 -2.4463 -0.1225
  453MOL0     H59763  10.687   6.267   6.843  0.5428  1.6284 -1.0675
  453MOL0     H59764  10.630   6.057   6.934  1.1880  1.5652  0.0247
  453MOL0     H59765  10.623   5.982   6.769  0.1883  1.7986 -2.0712
  453MOL0     H59766  10.401   6.011   6.825 -0.4057 -0.2603 -0.8507
  453MOL0     H59767  10.437   6.143   6.717  0.4946  0.0031 -1.2250
  453MOL0     H59768  10.441   6.167   7.029 -0.7215  1.3622  0.1786
  453MOL0     H59769  10.426   6.296   6.907  1.7730  0.2892  1.4203
  453MOL0     H59770  10.216   6.079   6.930 -1.6413  0.1216 -4.1063
  453MOL0     H59771  10.214   6.214   6.828 -0.8212  0.6325  0.8146
  453MOL0     H59772  10.228   6.361   7.066 -2.1611 -0.0419  1.1587
  453MOL0     H59773  10.224   6.200   7.138  0.7671  0.4611 -0.3121
  453MOL0     H59774  10.007   6.287   6.945  0.7448 -0.9689 -0.0084
  453MOL0     H59775  10.000   6.154   7.057  0.5827 -0.3447  0.0010
  453MOL0     H59776  10.024   6.446   7.136 -0.0269 -0.9131 -0.0305
  453MOL0     H59777  10.025   6.316   7.247 -0.2376 -2.8338 -0.2179
  453MOL0     H59778  10.891   6.408   6.863  0.3462  1.8183 -1.4869
  453MOL0     H59779  11.081   6.528   6.842  1.0478 -0.2101 -0.2939
  453MOL0     H59780  11.501   6.524   6.586 -0.0606  1.6209  0.1930
  453MOL0     H59781  11.708   6.656   6.555 -1.9810  0.7137  0.3084
  453MOL0     H59782  11.337   6.774   8.198 -0.1298 -1.2788 -1.7259
  453MOL0     H59783  11.110   6.815   8.208 -2.7612  0.3190 -1.9298
  453MOL0     H59784  10.657   6.830   7.976  0.1866 -0.9925  0.7602
  453MOL0     H59785  10.449   6.814   8.081 -0.4929  0.4771  1.0266
  453MOL0     H59786  10.271   6.762   8.271 -2.6316 -0.2238 -2.3105
  453MOL0     H59787  10.239   6.907   8.174 -0.3446 -1.3566 -0.4390
  453MOL0     H59788  10.199   6.895   8.477  0.2694  0.5118 -0.2568
  453MOL0     H59789  10.091   6.981   8.376 -0.5563  0.0418  2.5017
  453MOL0     H59790  10.064   6.685   8.378  1.3647 -0.7855  5.9486
  453MOL0     H59791   9.956   6.804   8.305  1.6035  0.8333 -1.4587
  453MOL0     H59792   9.862   6.745   8.511  1.8536 -3.3059 -1.1273
  453MOL0     H59793   9.994   6.800   8.608 -1.0007  0.4712  1.0553
  453MOL0     H59794   9.810   7.149   8.575 -0.5923 -2.1468  1.8814
  453MOL0     H59795  10.591   7.032   8.422 -1.0270 -0.1948 -0.8637
  453MOL0     H59796  10.824   7.022   8.315  0.8734 -0.0767 -0.5381
  454MOL0     O59797   4.254   3.852   5.999  0.7586 -0.0801  0.5847
  454MOL0     C59798   4.287   3.970   6.017  0.3701 -0.9653  0.4127
  454MOL0     O59799   4.205   4.075   6.034  0.0217 -0.1353  0.1698
  454MOL0     C59800   4.074   4.061   6.067  0.6201 -0.2525  0.3116
  454MOL0     C59801   3.982   4.156   6.007 -1.2140  1.0864 -0.0441
  454MOL0     C59802   3.846   4.155   6.034 -0.1213 -0.0404 -0.6299
  454MOL0     C59803   3.796   4.063   6.123  0.0782  0.1536 -0.1788
  454MOL0     O59804   3.658   4.077   6.138  0.1434 -0.4253 -0.7990
  454MOL0     C59805   3.618   4.044   6.273  0.3073  0.1471  1.0168
  454MOL0     C59806   3.466   4.036   6.263  0.1076  0.6652  0.3488
  454MOL0     C59807   3.405   4.038   6.405 -0.1590 -0.6276  0.8529
  454MOL0     C59808   3.259   4.019   6.412 -0.6138 -0.5819  0.2702
  454MOL0     C59809   3.184   4.156   6.406 -0.4244 -0.2054 -0.1176
  454MOL0     C59810   3.040   4.141   6.376 -0.6082 -0.0145 -0.4928
  454MOL0     C59811   2.981   4.292   6.357 -1.0760  0.1704 -0.5107
  454MOL0     C59812   2.966   4.367   6.490 -0.4335  0.2765 -0.1613
  454MOL0     N59813   2.894   4.500   6.489  0.5407  0.1813 -0.1144
  454MOL0     C59814   2.765   4.524   6.436 -0.3172 -0.7464 -0.5914
  454MOL0     C59815   2.741   4.661   6.462 -0.1439 -1.0454 -0.9699
  454MOL0     C59816   2.619   4.740   6.455 -0.3487  0.0334  0.1147
  454MOL0     C59817   2.562   4.764   6.319 -0.8096  0.2061 -0.1952
  454MOL0     C59818   2.454   4.863   6.329  0.1054  0.7100 -0.5653
  454MOL0     C59819   2.313   4.797   6.343 -0.4248 -0.8135 -0.8297
  454MOL0     O59820   2.317   4.688   6.435 -0.2489  0.5773  0.2749
  454MOL0     C59821   2.192   4.652   6.478  0.6663 -0.3995 -0.4462
  454MOL0     C59822   2.178   4.602   6.608  0.5142  0.6814 -0.5365
  454MOL0     C59823   2.057   4.566   6.664  0.6692  1.2467 -0.5627
  454MOL0     C59824   1.940   4.565   6.588 -0.4544  0.1999 -0.6691
  454MOL0     C59825   1.818   4.505   6.642  0.6221 -0.0177  0.0023
  454MOL0     O59826   1.821   4.491   6.787  0.4450  0.0736  0.4533
  454MOL0     C59827   1.703   4.449   6.844 -0.4267  0.2117  0.0136
  454MOL0     C59828   1.619   4.544   6.910 -0.8370 -0.0800  0.1778
  454MOL0     C59829   1.488   4.514   6.948  0.2830 -0.4152 -0.3843
  454MOL0     C59830   1.444   4.388   6.923  0.0445  0.2595  0.6406
  454MOL0     O59831   1.320   4.353   6.961 -0.1141  0.1701  0.2754
  454MOL0     C59832   1.311   4.261   7.072  0.0729  0.2751  1.0815
  454MOL0     C59833   1.179   4.291   7.140 -0.7618 -0.0418 -0.2619
  454MOL0     C59834   1.126   4.174   7.227  0.4640  0.4455  0.0063
  454MOL0     C59835   1.049   4.074   7.135 -0.2970  0.2346  1.3756
  454MOL0     C59836   1.038   3.938   7.200 -0.2276  0.1522 -0.2402
  454MOL0     C59837   0.955   3.830   7.118 -0.1217 -0.3534 -0.5681
  454MOL0     C59838   0.985   3.812   6.970  1.5514  0.5183  0.6377
  454MOL0     C59839   0.929   3.674   6.930  0.0750 -0.0277  0.1052
  454MOL0    Cl59840   0.929   3.655   6.751  0.0393 -0.0334 -0.5150
  454MOL0     C59841   1.525   4.288   6.862  1.5702  0.5902 -0.2570
  454MOL0     C59842   1.651   4.325   6.835 -0.7896 -0.4622  0.9693
  454MOL0     O59843   1.722   4.485   6.571  0.2039 -0.4759  0.0358
  454MOL0     C59844   1.955   4.621   6.457  0.1586  0.4882 -0.8449
  454MOL0     C59845   2.078   4.664   6.403  0.1194  0.8616  0.1738
  454MOL0     N59846   2.856   4.719   6.514 -0.4172 -0.3191 -0.3822
  454MOL0     N59847   2.934   4.621   6.532 -0.5920 -0.4054  0.1359
  454MOL0     C59848   3.878   3.970   6.188 -1.2594 -0.1747 -0.8209
  454MOL0     C59849   4.020   3.973   6.166 -0.2826 -0.4468  0.0332
  454MOL0     C59850   4.432   4.008   6.030 -0.0581 -0.9463 -0.3929
  454MOL0     C59851   4.523   3.905   6.034  0.0682 -0.2940  0.1164
  454MOL0     C59852   4.658   3.930   6.019  0.0707 -0.9923  0.0720
  454MOL0     C59853   4.700   4.062   6.010  0.2061  0.3690  0.0824
  454MOL0     O59854   4.836   4.095   6.007 -0.7562 -0.4063  0.0634
  454MOL0     C59855   4.917   4.051   5.895  0.0390 -0.5865  0.6251
  454MOL0     C59856   5.057   3.992   5.943  0.6551 -0.4123  0.1559
  454MOL0     C59857   5.123   3.896   5.859 -0.4620 -0.0308  0.7194
  454MOL0     C59858   5.264   3.849   5.904  0.4228 -0.4428  0.9485
  454MOL0     C59859   5.369   3.951   5.894 -0.7818  0.3109 -0.4175
  454MOL0     C59860   5.472   4.023   5.887  0.5027  0.3629  0.2044
  454MOL0     C59861   4.614   4.167   6.003 -0.2698 -0.5027 -0.8907
  454MOL0     C59862   4.476   4.144   6.019  0.1454  0.6836  0.6074
  454MOL0     H59863   4.021   4.220   5.929 -1.9884 -1.3086 -2.5500
  454MOL0     H59864   3.777   4.226   5.991 -2.3033  0.1934  2.8571
  454MOL0     H59865   3.655   4.116   6.347  0.7741 -0.6665  1.5926
  454MOL0     H59866   3.655   3.943   6.292 -1.1911 -0.7742 -0.6417
  454MOL0     H59867   3.439   3.949   6.203 -1.5638  2.8077 -2.2513
  454MOL0     H59868   3.430   4.116   6.197  2.0247  0.3373 -1.2098
  454MOL0     H59869   3.432   4.127   6.463  2.4014 -0.4503 -0.4486
  454MOL0     H59870   3.449   3.952   6.458 -0.6930 -0.5853  1.3756
  454MOL0     H59871   3.238   3.969   6.317  3.1172 -0.3353 -0.8531
  454MOL0     H59872   3.219   3.972   6.502  3.6890 -1.4628  1.9629
  454MOL0     H59873   3.235   4.218   6.331 -1.1406 -0.5445 -0.8980
  454MOL0     H59874   3.201   4.212   6.499  0.8997 -1.3276  0.3510
  454MOL0     H59875   2.998   4.095   6.466 -0.3546  1.5180  0.4498
  454MOL0     H59876   3.028   4.081   6.286  1.0894 -0.5254 -0.4208
  454MOL0     H59877   3.054   4.338   6.289  0.1063 -0.9912 -0.0593
  454MOL0     H59878   2.886   4.287   6.304  0.7661 -2.9744 -4.0187
  454MOL0     H59879   3.064   4.372   6.539  0.3258 -1.4177 -1.3984
  454MOL0     H59880   2.917   4.300   6.561  3.8587 -1.2516  1.7524
  454MOL0     H59881   2.704   4.453   6.382 -1.8283 -0.2366  0.3843
  454MOL0     H59882   2.648   4.837   6.498  2.0599 -0.5109 -0.1350
  454MOL0     H59883   2.551   4.695   6.528 -1.7772  0.3908 -0.9495
  454MOL0     H59884   2.534   4.670   6.272 -0.1965  0.1056 -0.3632
  454MOL0     H59885   2.634   4.826   6.266 -0.2165  2.4407  2.9156
  454MOL0     H59886   2.477   4.929   6.413 -0.7234 -0.1782  0.3757
  454MOL0     H59887   2.463   4.927   6.240  4.5726 -0.0602 -0.8748
  454MOL0     H59888   2.282   4.748   6.250  0.6388  1.8311 -2.7100
  454MOL0     H59889   2.237   4.864   6.386 -1.5565 -3.2238  1.1710
  454MOL0     H59890   2.269   4.606   6.666  1.4900  0.9807 -2.0195
  454MOL0     H59891   2.042   4.541   6.768 -4.5134  0.7101 -1.1510
  454MOL0     H59892   1.664   4.640   6.935  0.5832 -0.4049 -0.9787
  454MOL0     H59893   1.411   4.581   6.987  0.7074 -0.1588  0.0278
  454MOL0     H59894   1.399   4.268   7.137  1.1428  0.3045 -0.3400
  454MOL0     H59895   1.308   4.157   7.038 -1.6699  1.0931 -1.6107
  454MOL0     H59896   1.104   4.308   7.062 -1.6610 -1.2371  0.3142
  454MOL0     H59897   1.191   4.384   7.196  2.4545 -0.2478 -0.4232
  454MOL0     H59898   1.057   4.214   7.301 -1.3576 -3.1169  0.4471
  454MOL0     H59899   1.209   4.122   7.277  1.1002  0.3069 -1.1550
  454MOL0     H59900   0.949   4.112   7.114  0.0865  0.8759  0.6554
  454MOL0     H59901   1.104   4.054   7.043  2.8042  2.6604  2.5074
  454MOL0     H59902   0.980   3.964   7.289 -1.4494  0.1166 -1.0025
  454MOL0     H59903   1.140   3.904   7.224 -0.5777 -1.9656 -1.4503
  454MOL0     H59904   0.847   3.844   7.128 -0.2373  2.3246 -3.6968
  454MOL0     H59905   0.986   3.740   7.173 -0.2689  1.4713  2.7490
  454MOL0     H59906   0.944   3.893   6.909  0.3052 -1.1251 -0.8086
  454MOL0     H59907   1.093   3.808   6.948  0.9498  0.6138 -3.0153
  454MOL0     H59908   0.824   3.666   6.963 -0.0712 -0.2547 -0.4096
  454MOL0     H59909   0.991   3.596   6.973 -0.5454 -1.3524 -1.3354
  454MOL0     H59910   1.496   4.186   6.841  0.4533  0.9116 -0.3112
  454MOL0     H59911   1.704   4.249   6.779 -0.9453  0.7426 -0.8865
  454MOL0     H59912   1.863   4.621   6.399  0.0444 -3.8577 -1.0533
  454MOL0     H59913   2.077   4.714   6.307  0.0078  2.1539  0.8320
  454MOL0     H59914   3.857   3.906   6.273  1.3525  0.4354  0.3805
  454MOL0     H59915   4.090   3.900   6.206 -0.2837 -2.1363 -2.8310
  454MOL0     H59916   4.508   3.801   6.061 -3.1726  0.0385 -0.0290
  454MOL0     H59917   4.723   3.846   6.042  1.7059 -0.1032 -1.1335
  454MOL0     H59918   4.944   4.144   5.844  2.5585 -0.6006  1.7683
  454MOL0     H59919   4.862   3.997   5.817 -0.2422  4.5691 -3.2860
  454MOL0     H59920   5.125   4.078   5.949  0.1474 -0.0818  1.6837
  454MOL0     H59921   5.055   3.950   6.044  1.9859 -0.7196  0.0738
  454MOL0     H59922   5.141   3.946   5.764 -0.4966  2.9868  2.1945
  454MOL0     H59923   5.054   3.813   5.842 -2.1634  1.3071  0.8393
  454MOL0     H59924   5.251   3.813   6.006 -0.9776  0.5620  1.1418
  454MOL0     H59925   5.295   3.764   5.843  2.3709 -0.1573  1.4630
  454MOL0     H59926   5.557   4.086   5.874 -0.3123  1.9102  1.8314
  454MOL0     H59927   4.650   4.270   6.008 -0.4938 -0.3722 -1.7979
  454MOL0     H59928   4.403   4.224   6.029 -0.6107 -0.0480  1.0489
  455MOL0     O59929  10.281   4.363  10.030 -1.0164 -0.5213 -0.1816
  455MOL0     C59930  10.275   4.474   9.980 -0.5900  0.0999 -0.4063
  455MOL0     O59931  10.160   4.534   9.948  0.1768 -0.7488 -0.1846
  455MOL0     C59932  10.041   4.462   9.962 -0.4010  1.1078  0.2828
  455MOL0     C59933  10.020   4.329   9.927 -1.1336 -0.4504  0.1089
  455MOL0     C59934   9.896   4.269   9.909 -0.3934 -0.0089 -0.3739
  455MOL0     C59935   9.781   4.343   9.939 -0.5903 -0.7396  0.2353
  455MOL0     O59936   9.662   4.282   9.925 -0.1274  0.5035 -0.0126
  455MOL0     C59937   9.623   4.205  10.038  0.3051 -0.6309 -0.2448
  455MOL0     C59938   9.496   4.268  10.098 -0.1077 -0.3890  0.0766
  455MOL0     C59939   9.376   4.303  10.005 -0.3158  0.5651  0.4649
  455MOL0     C59940   9.237   4.322  10.068 -0.1637  0.3168 -0.9482
  455MOL0     C59941   9.124   4.329   9.960 -0.4126  0.3037  0.9459
  455MOL0     C59942   8.988   4.356  10.029  0.3733  0.9880  0.1806
  455MOL0     C59943   8.861   4.330   9.947 -0.3867  0.8141 -0.5469
  455MOL0     C59944   8.737   4.344  10.026 -0.6403 -0.1414 -0.2438
  455MOL0     N59945   8.613   4.359   9.947 -0.4541 -0.4733  0.1195
  455MOL0     C59946   8.513   4.447   9.982  0.4611 -0.5746 -0.1135
  455MOL0     C59947   8.422   4.429   9.878 -0.5908  0.3015 -0.3106
  455MOL0     C59948   8.289   4.504   9.875 -0.9259  0.0143  0.4102
  455MOL0     C59949   8.174   4.402   9.877  0.1783 -1.2267 -0.0609
  455MOL0     C59950   8.037   4.479   9.881  0.0166  0.6202  0.2201
  455MOL0     C59951   7.923   4.380   9.877  0.5623 -0.3520 -0.3825
  455MOL0     O59952   7.805   4.456   9.904  0.7117  0.3146 -0.9166
  455MOL0     C59953   7.688   4.404   9.860  0.4597  0.1602 -0.1552
  455MOL0     C59954   7.671   4.289   9.785  0.6550 -0.5881  0.0605
  455MOL0     C59955   7.543   4.251   9.756  0.7027  0.1498 -0.1480
  455MOL0     C59956   7.431   4.330   9.768 -0.6460  0.2570 -0.4292
  455MOL0     C59957   7.299   4.287   9.707 -1.0357 -0.2293 -1.0832
  455MOL0     O59958   7.190   4.331   9.772  0.1549  0.4040  0.0357
  455MOL0     C59959   7.061   4.319   9.709 -1.1403  0.6532  0.0944
  455MOL0     C59960   7.037   4.317   9.571  0.3695 -0.2054 -1.1957
  455MOL0     C59961   6.911   4.332   9.533 -0.5006  0.4285  0.3958
  455MOL0     C59962   6.802   4.346   9.617 -0.6960 -0.8516 -0.4894
  455MOL0     O59963   6.674   4.352   9.582 -0.8918  0.2948 -0.4134
  455MOL0     C59964   6.638   4.341   9.442  0.2310  0.5970  0.0921
  455MOL0     C59965   6.492   4.345   9.422 -0.0269 -0.9836 -0.4919
  455MOL0     C59966   6.428   4.235   9.486 -0.2272 -0.2439  0.7866
  455MOL0     C59967   6.287   4.220   9.442  0.1848  0.5187  0.7702
  455MOL0     C59968   6.190   4.313   9.510 -0.4921 -0.8909  0.6739
  455MOL0     C59969   6.046   4.253   9.500  0.4252  0.1776 -0.7960
  455MOL0     C59970   5.998   4.234   9.358  0.9576  0.3915 -0.1658
  455MOL0     C59971   5.845   4.238   9.344  0.5716 -0.1389  0.4296
  455MOL0    Cl59972   5.805   4.164   9.178  0.0035  0.2793 -0.1708
  455MOL0     C59973   6.829   4.352   9.757  0.2288  0.3461 -0.3050
  455MOL0     C59974   6.962   4.329   9.796 -0.6142  0.2571 -0.8678
  455MOL0     O59975   7.305   4.195   9.626 -0.3384 -0.1674  0.3610
  455MOL0     C59976   7.446   4.447   9.848  1.2371 -0.2676  0.3024
  455MOL0     C59977   7.571   4.478   9.902 -0.2696  0.3824 -0.0216
  455MOL0     N59978   8.465   4.338   9.788 -0.0386 -0.2524  0.5538
  455MOL0     N59979   8.576   4.296   9.830  0.0647  1.0528 -0.8818
  455MOL0     C59980   9.799   4.479   9.973  0.2062 -1.1216  0.2971
  455MOL0     C59981   9.929   4.533   9.992 -0.3470 -0.4321 -0.0010
  455MOL0     C59982  10.402   4.547   9.974  1.1356  0.0651 -0.6981
  455MOL0     C59983  10.397   4.685   9.979 -0.3951  0.3025 -0.1664
  455MOL0     C59984  10.517   4.759   9.953 -0.1945 -0.0836  0.6145
  455MOL0     C59985  10.639   4.688   9.949 -0.3975  0.2118  0.1324
  455MOL0     O59986  10.757   4.766   9.919  0.1326  0.2660  0.2274
  455MOL0     C59987  10.880   4.694   9.890 -0.3914 -1.0530 -0.0683
  455MOL0     C59988  10.978   4.780   9.819  0.2064 -0.1387  0.2665
  455MOL0     C59989  11.028   4.915   9.889 -0.4594 -0.0287 -0.3331
  455MOL0     C59990  11.127   4.976   9.794  0.3972 -0.6182 -0.1969
  455MOL0     C59991  11.261   4.906   9.799  0.5302  0.6247 -0.6461
  455MOL0     C59992  11.363   4.842   9.815 -0.3295 -0.3667 -0.1322
  455MOL0     C59993  10.640   4.550   9.955  0.5811  0.5181  0.8691
  455MOL0     C59994  10.524   4.478   9.964  0.1404 -0.4605 -0.2406
  455MOL0     H59995  10.096   4.274   9.872 -2.5995 -1.5473 -0.9033
  455MOL0     H59996   9.873   4.167   9.880 -0.3734 -0.4127  0.9417
  455MOL0     H59997   9.702   4.185  10.110 -0.9057  2.9565  2.4042
  455MOL0     H59998   9.591   4.109   9.997 -0.6887  0.3431 -1.8602
  455MOL0     H59999   9.532   4.356  10.152  1.0855 -0.2362 -0.9140
  455MOL0     H60000   9.454   4.185  10.156  0.6727 -2.4613 -2.1424
  455MOL0     H60001   9.373   4.226   9.927 -0.0207  2.1334 -1.1577
  455MOL0     H60002   9.399   4.391   9.944  0.5980  0.2789  0.3780
  455MOL0     H60003   9.209   4.243  10.139 -0.9532  0.1780 -1.4024
  455MOL0     H60004   9.240   4.417  10.124  2.4661  0.7026 -1.6484
  455MOL0     H60005   9.112   4.230   9.914 -1.5837  0.4967  0.8006
  455MOL0     H60006   9.140   4.403   9.881  2.6528  1.1945  2.2768
  455MOL0     H60007   8.981   4.464  10.047 -1.5230  0.9395 -0.0299
  455MOL0     H60008   8.988   4.306  10.126  0.6999 -0.0331 -0.3302
  455MOL0     H60009   8.852   4.403   9.866  0.5968 -0.4389 -1.8422
  455MOL0     H60010   8.873   4.228   9.908  2.8588  0.6752  0.4868
  455MOL0     H60011   8.752   4.425  10.098  0.7088 -1.0575  0.5451
  455MOL0     H60012   8.707   4.250  10.075 -1.2553  1.0233  1.7409
  455MOL0     H60013   8.509   4.510  10.070  0.5523 -2.3692  1.2426
  455MOL0     H60014   8.286   4.563   9.783  3.6865  3.3815  2.0714
  455MOL0     H60015   8.283   4.578   9.955  0.9159 -1.9577  2.5126
  455MOL0     H60016   8.177   4.352   9.974  1.3432 -1.3983 -0.1718
  455MOL0     H60017   8.183   4.318   9.808 -1.6435 -3.3722  2.0989
  455MOL0     H60018   8.041   4.535   9.975  1.7710 -0.6380  0.9549
  455MOL0     H60019   8.028   4.546   9.796  0.0685 -0.3630 -0.5788
  455MOL0     H60020   7.940   4.297   9.946  0.5653 -1.1122 -1.2793
  455MOL0     H60021   7.921   4.334   9.778  2.1414 -0.3804 -0.4174
  455MOL0     H60022   7.754   4.231   9.748 -1.4358 -2.7478 -1.5308
  455MOL0     H60023   7.537   4.157   9.702 -0.3043  1.8417 -3.2377
  455MOL0     H60024   7.111   4.307   9.493 -0.1239 -1.7967 -1.5053
  455MOL0     H60025   6.894   4.316   9.427  0.3653 -1.8294  0.5413
  455MOL0     H60026   6.662   4.248   9.389 -3.7968 -1.0129  0.7540
  455MOL0     H60027   6.675   4.421   9.378  1.5924  1.9292  2.4088
  455MOL0     H60028   6.471   4.356   9.315  0.0504 -1.2793 -0.5399
  455MOL0     H60029   6.443   4.436   9.460 -3.2355 -2.5144 -0.6609
  455MOL0     H60030   6.439   4.232   9.595 -0.0981 -0.7826  0.7625
  455MOL0     H60031   6.480   4.145   9.451 -1.5632 -1.7142  2.3668
  455MOL0     H60032   6.277   4.235   9.334 -0.2042  0.4408  0.7944
  455MOL0     H60033   6.258   4.115   9.453 -0.1514  0.7892  2.7960
  455MOL0     H60034   6.196   4.412   9.464  2.2240 -0.8175  0.9872
  455MOL0     H60035   6.220   4.334   9.613  1.1494 -2.1811  0.5094
  455MOL0     H60036   5.981   4.321   9.555  0.3872 -1.2380  0.9822
  455MOL0     H60037   6.040   4.155   9.548 -2.0773 -0.0561 -1.4385
  455MOL0     H60038   6.042   4.311   9.294  1.8245  1.7540  1.9664
  455MOL0     H60039   6.032   4.138   9.320 -1.4804 -0.5049 -0.2733
  455MOL0     H60040   5.807   4.340   9.340 -1.0809 -0.7087  0.9509
  455MOL0     H60041   5.800   4.184   9.428 -1.4705  0.3549 -0.3056
  455MOL0     H60042   6.751   4.376   9.829  2.7003 -0.3363  2.8355
  455MOL0     H60043   6.975   4.328   9.903 -1.9918  0.0136 -0.6852
  455MOL0     H60044   7.363   4.516   9.855 -0.2177 -1.8862 -0.3697
  455MOL0     H60045   7.593   4.566   9.963 -1.6060  3.1281 -3.1904
  455MOL0     H60046   9.710   4.536  10.001 -1.1066 -2.7483 -0.3956
  455MOL0     H60047   9.934   4.640  10.009  1.0952 -0.8748  2.9585
  455MOL0     H60048  10.302   4.737   9.994 -0.9277 -0.5912 -0.3346
  455MOL0     H60049  10.513   4.868   9.951 -0.4975 -0.0842  1.0961
  455MOL0     H60050  10.869   4.615   9.816 -1.0158 -0.0147 -1.1025
  455MOL0     H60051  10.926   4.644   9.976 -2.1254 -0.2313  1.4147
  455MOL0     H60052  11.062   4.713   9.800 -0.8070 -0.9310 -1.7239
  455MOL0     H60053  10.933   4.801   9.722  1.0278  0.3425 -0.0197
  455MOL0     H60054  11.068   4.897   9.990 -2.6749  0.0583  0.6146
  455MOL0     H60055  10.938   4.974   9.907  0.6334  1.6509 -0.1334
  455MOL0     H60056  11.084   4.979   9.693  1.2461  0.7520 -0.5462
  455MOL0     H60057  11.146   5.078   9.827 -1.4128 -1.0422  2.4958
  455MOL0     H60058  11.465   4.813   9.821 -0.6586 -1.7592 -0.9923
  455MOL0     H60059  10.734   4.495   9.953 -0.8723 -2.0798 -0.2043
  455MOL0     H60060  10.521   4.369   9.961 -1.1269 -0.4935  1.1938
  456MOL0     O60061   3.457   4.739   1.720 -0.1479 -0.5339 -0.2688
  456MOL0     C60062   3.461   4.658   1.815 -0.0076  0.7899 -0.4264
  456MOL0     O60063   3.353   4.601   1.864 -0.6284  0.5687 -1.0962
  456MOL0     C60064   3.228   4.632   1.832  0.2484 -0.1242  0.4227
  456MOL0     C60065   3.143   4.666   1.931  0.1793 -0.2195  0.5876
  456MOL0     C60066   3.016   4.706   1.897  0.0118  0.3640 -0.0571
  456MOL0     C60067   2.963   4.678   1.774 -0.4780  0.2478  0.7755
  456MOL0     O60068   2.832   4.700   1.743 -0.3606  0.1151  0.6180
  456MOL0     C60069   2.750   4.594   1.790  0.4160 -0.0802  0.6545
  456MOL0     C60070   2.608   4.589   1.743  0.4672  0.6178  0.4440
  456MOL0     C60071   2.531   4.717   1.777 -0.2752 -0.3308 -0.6132
  456MOL0     C60072   2.387   4.689   1.747 -0.0942  0.1383 -0.0997
  456MOL0     C60073   2.292   4.811   1.784  0.3321  0.2498  0.2102
  456MOL0     C60074   2.144   4.781   1.721 -0.5724  0.0577  0.1504
  456MOL0     C60075   2.087   4.629   1.732 -0.5249 -0.1383  0.0737
  456MOL0     C60076   1.954   4.609   1.657 -0.0238  0.5815  0.3231
  456MOL0     N60077   1.916   4.471   1.671 -0.0801  0.2746 -0.6943
  456MOL0     C60078   1.890   4.387   1.570  0.1505  0.0957  0.2353
  456MOL0     C60079   1.856   4.265   1.624  0.2450 -0.8459  0.0227
  456MOL0     C60080   1.840   4.150   1.536 -0.8522  0.5038 -0.7332
  456MOL0     C60081   1.699   4.085   1.544 -1.2412 -0.2743 -0.1528
  456MOL0     C60082   1.600   4.120   1.432 -0.2628  0.2732  0.5794
  456MOL0     C60083   1.474   4.053   1.448 -1.0134  0.3017 -0.6027
  456MOL0     O60084   1.381   4.087   1.349  1.1184  0.3570  0.3123
  456MOL0     C60085   1.254   4.054   1.367  0.0958 -0.6633 -0.1433
  456MOL0     C60086   1.201   3.948   1.442  0.3824 -0.0519 -0.5695
  456MOL0     C60087   1.061   3.928   1.442  0.3990 -0.8890 -0.6272
  456MOL0     C60088   0.972   4.012   1.374  0.0801 -0.1667 -0.4368
  456MOL0     C60089   0.832   3.983   1.355  0.7430 -0.1940  0.2286
  456MOL0     O60090   0.763   4.066   1.279  1.0994  0.0218  0.2000
  456MOL0     C60091   0.627   4.074   1.314 -0.9047 -0.1045  0.5479
  456MOL0     C60092   0.547   4.110   1.206 -0.8759  0.4560  0.4858
  456MOL0     C60093   0.405   4.134   1.221 -0.6846  0.6699  0.4668
  456MOL0     C60094   0.348   4.107   1.346 -0.4469  0.1047 -0.1739
  456MOL0     O60095   0.210   4.126   1.360  0.4154 -0.5488 -0.6157
  456MOL0     C60096   0.143   4.074   1.475  0.3307 -0.5189 -0.4738
  456MOL0     C60097  -0.009   4.050   1.458 -0.7930  0.8314 -0.2339
  456MOL0     C60098  -0.100   4.170   1.429 -0.3119  0.1644 -0.2746
  456MOL0     C60099  -0.114   4.261   1.556 -0.0094  0.7912 -0.1120
  456MOL0     C60100  -0.200   4.379   1.520 -0.2599 -0.9075  0.4671
  456MOL0     C60101  -0.179   4.498   1.618 -0.1084 -0.3833  0.8477
  456MOL0     C60102  -0.267   4.616   1.601 -0.6637 -0.4853 -0.1936
  456MOL0     C60103  -0.250   4.707   1.722  0.7833  0.1917 -0.5643
  456MOL0    Cl60104  -0.082   4.761   1.752 -0.4326 -0.0982  0.1348
  456MOL0     C60105   0.437   4.069   1.449  0.6598  0.1128  0.3712
  456MOL0     C60106   0.570   4.062   1.433 -0.1943 -0.7093  0.5884
  456MOL0     O60107   0.793   3.880   1.398  0.3049 -0.1920  0.0381
  456MOL0     C60108   1.031   4.124   1.306 -0.1962  0.4781  0.3125
  456MOL0     C60109   1.172   4.145   1.310 -0.1297  0.1734 -0.0093
  456MOL0     N60110   1.856   4.276   1.756  0.1061 -0.0492  0.1834
  456MOL0     N60111   1.880   4.400   1.785  0.4734  0.0948  0.3370
  456MOL0     C60112   3.048   4.626   1.670  0.3351 -0.3006 -0.0757
  456MOL0     C60113   3.182   4.608   1.704  0.1034 -0.2849  0.6887
  456MOL0     C60114   3.600   4.624   1.854 -0.6198 -0.7644  0.1930
  456MOL0     C60115   3.718   4.688   1.811 -0.5535 -0.8721  0.0684
  456MOL0     C60116   3.842   4.654   1.871 -1.2214 -0.1981  0.1981
  456MOL0     C60117   3.844   4.551   1.967 -0.4738 -0.0367  0.0372
  456MOL0     O60118   3.966   4.508   2.021  0.1244 -1.0346 -0.5980
  456MOL0     C60119   3.997   4.371   2.018  0.2554 -0.2216 -0.4289
  456MOL0     C60120   4.010   4.303   1.879 -0.1284  0.1468  0.0635
  456MOL0     C60121   4.090   4.379   1.777  0.1554 -1.0201  0.2728
  456MOL0     C60122   4.240   4.398   1.820  0.9514  0.2384  0.4548
  456MOL0     C60123   4.317   4.277   1.769  0.7351 -0.8002 -0.1120
  456MOL0     C60124   4.381   4.182   1.717  0.0886  0.5848 -0.3721
  456MOL0     C60125   3.726   4.500   2.006 -0.4650 -0.1248  0.8509
  456MOL0     C60126   3.605   4.535   1.953  0.0399  0.3253 -0.5023
  456MOL0     H60127   3.168   4.689   2.034  0.2012  2.3573  0.0795
  456MOL0     H60128   2.962   4.761   1.973 -1.3389  2.5186 -2.4431
  456MOL0     H60129   2.754   4.582   1.899 -1.2387  0.0137  0.7513
  456MOL0     H60130   2.783   4.497   1.752  0.1249 -0.5710  1.6143
  456MOL0     H60131   2.559   4.501   1.787  0.3734 -0.7579 -2.2341
  456MOL0     H60132   2.592   4.581   1.635 -1.2840 -1.0067  0.7608
  456MOL0     H60133   2.575   4.796   1.715 -1.0167 -0.3203 -1.1318
  456MOL0     H60134   2.553   4.734   1.883  0.2080 -1.6371 -0.4870
  456MOL0     H60135   2.376   4.665   1.641  1.1764  2.0037 -0.6981
  456MOL0     H60136   2.365   4.598   1.805  1.4014  1.4680  2.7569
  456MOL0     H60137   2.328   4.905   1.741  1.6337 -0.9145 -1.3481
  456MOL0     H60138   2.284   4.826   1.892  2.1324  0.6271  0.3188
  456MOL0     H60139   2.136   4.809   1.616 -2.7752 -0.4739  0.1266
  456MOL0     H60140   2.079   4.850   1.774 -0.6210  1.2844 -1.4284
  456MOL0     H60141   2.159   4.550   1.706  0.5879  0.6855  0.5930
  456MOL0     H60142   2.064   4.619   1.838 -0.6396 -0.9482 -0.0159
  456MOL0     H60143   1.976   4.627   1.551 -1.6258  0.5963 -0.0259
  456MOL0     H60144   1.889   4.684   1.702  1.0337  1.5325  0.3007
  456MOL0     H60145   1.894   4.416   1.465  2.6648  4.6614  1.3213
  456MOL0     H60146   1.910   4.082   1.586 -0.9192 -0.9003 -2.4440
  456MOL0     H60147   1.871   4.165   1.432  2.8749 -0.7200  0.0135
  456MOL0     H60148   1.657   4.105   1.643  0.0744  0.8447  0.2062
  456MOL0     H60149   1.717   3.977   1.551  1.7995  0.1122 -0.6252
  456MOL0     H60150   1.588   4.229   1.430  1.5160  0.5074 -1.9977
  456MOL0     H60151   1.637   4.089   1.334 -1.1586  0.8518  0.0433
  456MOL0     H60152   1.440   4.065   1.551 -1.7983 -0.6550 -0.7361
  456MOL0     H60153   1.496   3.946   1.436  1.0638  0.4847  0.9930
  456MOL0     H60154   1.257   3.878   1.503 -0.3553  1.1433  1.5795
  456MOL0     H60155   1.033   3.833   1.486 -2.9731 -1.0499 -2.7706
  456MOL0     H60156   0.602   4.112   1.112 -0.4889 -2.2708  0.5604
  456MOL0     H60157   0.332   4.165   1.146 -1.0294 -0.4902  0.3055
  456MOL0     H60158   0.143   4.158   1.545 -2.1772 -0.9801  0.1699
  456MOL0     H60159   0.189   3.990   1.528 -2.3587 -0.1786  2.7377
  456MOL0     H60160  -0.034   4.003   1.554  2.9910 -0.3387  0.3383
  456MOL0     H60161  -0.020   3.989   1.368 -2.8290 -1.1545  1.2270
  456MOL0     H60162  -0.204   4.149   1.401 -1.5509  2.0934  2.4828
  456MOL0     H60163  -0.053   4.229   1.349 -1.1089 -0.8956 -1.5823
  456MOL0     H60164  -0.159   4.200   1.635  3.0749 -0.3524  0.9150
  456MOL0     H60165  -0.014   4.294   1.588 -1.1708  3.2047  1.2804
  456MOL0     H60166  -0.306   4.354   1.508 -0.4305  0.3899 -1.0392
  456MOL0     H60167  -0.166   4.414   1.421 -2.7455  0.1872 -0.0711
  456MOL0     H60168  -0.074   4.526   1.604 -0.5802  0.3872 -1.9322
  456MOL0     H60169  -0.191   4.455   1.717 -2.9914 -2.3270 -0.2212
  456MOL0     H60170  -0.236   4.669   1.510 -1.6243  0.2087 -0.1271
  456MOL0     H60171  -0.371   4.584   1.590 -0.5469 -0.8537 -0.2458
  456MOL0     H60172  -0.277   4.650   1.811 -0.3484 -0.6707 -1.4381
  456MOL0     H60173  -0.313   4.796   1.713  0.3708 -0.2411 -2.2917
  456MOL0     H60174   0.399   4.062   1.550 -0.6049  2.9262  0.1943
  456MOL0     H60175   0.623   4.030   1.522 -0.1336 -2.7004 -0.1132
  456MOL0     H60176   0.969   4.201   1.263 -0.3763 -0.9828 -2.2121
  456MOL0     H60177   1.202   4.238   1.262  0.3654  0.4725  0.8553
  456MOL0     H60178   2.996   4.611   1.576 -0.8444  2.1787  0.1091
  456MOL0     H60179   3.246   4.570   1.625  0.3571  2.7270 -0.7250
  456MOL0     H60180   3.720   4.768   1.738  0.0853 -1.8909 -1.0800
  456MOL0     H60181   3.931   4.703   1.833 -0.1036 -2.1875  0.0868
  456MOL0     H60182   3.923   4.319   2.080 -1.8268  0.2295 -2.4115
  456MOL0     H60183   4.081   4.344   2.082 -2.5052  0.7010  4.1096
  456MOL0     H60184   4.052   4.204   1.898  0.7162  0.8918  2.3806
  456MOL0     H60185   3.911   4.284   1.838 -0.2779  3.6043 -1.4941
  456MOL0     H60186   4.055   4.480   1.752  1.2535 -1.1625 -2.1259
  456MOL0     H60187   4.090   4.322   1.683  0.0186 -0.3048 -0.1717
  456MOL0     H60188   4.282   4.480   1.760  2.7700 -1.0524 -0.1227
  456MOL0     H60189   4.255   4.409   1.928  0.9660 -2.3548  0.7665
  456MOL0     H60190   4.417   4.096   1.663  1.2421 -0.2464  1.6474
  456MOL0     H60191   3.734   4.423   2.082  2.1689  1.0566  1.8747
  456MOL0     H60192   3.511   4.492   1.988  0.8270 -0.0935  1.2084
  457MOL0     O60193   3.217   3.601  10.593 -0.3319  0.7695 -0.1934
  457MOL0     C60194   3.317   3.576  10.527 -1.0955 -0.3539  0.3024
  457MOL0     O60195   3.320   3.547  10.398 -0.2457 -0.8921  0.1514
  457MOL0     C60196   3.200   3.521  10.341  0.2319  0.6069 -0.3406
  457MOL0     C60197   3.205   3.408  10.267 -0.1689 -0.7491  0.1159
  457MOL0     C60198   3.095   3.362  10.194 -0.2758 -0.8610  0.1629
  457MOL0     C60199   2.979   3.440  10.173  0.9055  0.8219 -2.0585
  457MOL0     O60200   2.887   3.396  10.088 -0.7508  0.2713 -0.3774
  457MOL0     C60201   2.760   3.418  10.133 -0.4300  0.1107  0.3977
  457MOL0     C60202   2.723   3.332  10.255  0.5787  0.3241 -0.0503
  457MOL0     C60203   2.569   3.309  10.268 -0.8478 -0.8804  0.5073
  457MOL0     C60204   2.495   3.438  10.262 -0.1257 -0.9379  0.0299
  457MOL0     C60205   2.341   3.404  10.255  0.3863  0.4983  0.4804
  457MOL0     C60206   2.295   3.323  10.374  0.1211  0.2255 -0.0967
  457MOL0     C60207   2.138   3.291  10.366 -0.0135 -1.1936 -0.8646
  457MOL0     C60208   2.108   3.160  10.318  1.1143  0.5072 -0.0013
  457MOL0     N60209   1.978   3.153  10.247 -0.2245 -0.4078 -0.0830
  457MOL0     C60210   1.957   3.206  10.117 -0.3778  0.3209  0.0861
  457MOL0     C60211   1.842   3.154  10.070  0.7646 -0.1016  0.2075
  457MOL0     C60212   1.772   3.176   9.945 -0.8914 -0.1928  0.5268
  457MOL0     C60213   1.628   3.136   9.928  0.0813  0.2654 -0.0995
  457MOL0     C60214   1.588   3.167   9.783  0.8057  0.3377  0.8509
  457MOL0     C60215   1.455   3.105   9.748 -0.3177 -0.8659 -0.2160
  457MOL0     O60216   1.363   3.131   9.855  0.1524 -0.1481 -0.9650
  457MOL0     C60217   1.239   3.078   9.864 -0.4794 -0.6805  1.0412
  457MOL0     C60218   1.165   3.111   9.969  0.5029 -0.4649  0.3925
  457MOL0     C60219   1.030   3.061   9.982  0.0837 -0.5307 -0.2071
  457MOL0     C60220   0.977   2.971   9.889  0.2602 -0.0122 -0.2190
  457MOL0     C60221   0.839   2.923   9.905 -0.6470  0.2092 -0.3457
  457MOL0     O60222   0.803   2.807   9.840  0.8022  1.0726  1.2770
  457MOL0     C60223   0.684   2.735   9.864 -0.6206 -0.1298  0.5855
  457MOL0     C60224   0.678   2.601   9.803  0.2185 -1.3432  0.2082
  457MOL0     C60225   0.569   2.520   9.814  0.3813 -1.4263  0.3061
  457MOL0     C60226   0.447   2.563   9.872 -0.3595 -0.3811  0.6781
  457MOL0     O60227   0.347   2.473   9.872  0.4275  0.9239 -0.6328
  457MOL0     C60228   0.314   2.434  10.012  0.6575  1.1978  0.8460
  457MOL0     C60229   0.188   2.504  10.060 -0.3525 -0.2370 -0.2208
  457MOL0     C60230   0.090   2.531   9.951 -0.3955 -0.5613 -0.9659
  457MOL0     C60231  -0.042   2.589   9.998  0.5822 -0.9385 -0.8047
  457MOL0     C60232  -0.164   2.490  10.028 -0.6929  0.2742 -0.2129
  457MOL0     C60233  -0.125   2.370  10.114 -0.6154  0.4985 -0.4765
  457MOL0     C60234  -0.241   2.271  10.142  0.6643 -0.2224 -0.0658
  457MOL0     C60235  -0.295   2.228  10.007  0.4938  0.3434 -0.6876
  457MOL0    Cl60236  -0.418   2.100  10.038  0.5078  0.4940 -0.1168
  457MOL0     C60237   0.453   2.694   9.917 -0.3496 -0.8427 -0.1569
  457MOL0     C60238   0.565   2.777   9.909 -0.2641 -0.0073  0.2839
  457MOL0     O60239   0.768   2.986   9.981 -0.9059  0.3302 -0.4503
  457MOL0     C60240   1.054   2.941   9.778  0.3059  0.5573 -0.5608
  457MOL0     C60241   1.183   2.993   9.771 -1.0325  0.0625 -0.4309
  457MOL0     N60242   1.794   3.075  10.172 -0.3618 -0.8602  0.0596
  457MOL0     N60243   1.864   3.090  10.283  0.0432  0.5510 -0.4513
  457MOL0     C60244   2.973   3.558  10.251  0.3703  0.7078 -0.4978
  457MOL0     C60245   3.087   3.592  10.339 -0.1548 -0.4418  0.5614
  457MOL0     C60246   3.455   3.593  10.579 -0.4239  0.8566 -0.2039
  457MOL0     C60247   3.474   3.619  10.710  0.4814  0.3178 -0.5569
  457MOL0     C60248   3.602   3.643  10.765 -0.6813  0.0845  0.4873
  457MOL0     C60249   3.719   3.630  10.678 -0.2608 -0.7479 -1.0492
  457MOL0     O60250   3.842   3.668  10.736  0.5661 -0.6047 -0.6268
  457MOL0     C60251   3.961   3.700  10.663 -0.4321  0.4472 -0.5393
  457MOL0     C60252   4.075   3.676  10.758  0.0027 -0.4281  0.4322
  457MOL0     C60253   4.203   3.705  10.677  0.2133 -0.2459 -0.0311
  457MOL0     C60254   4.315   3.617  10.732 -0.0505  0.2602  0.6415
  457MOL0     C60255   4.350   3.644  10.871 -0.8308 -1.1220  0.4415
  457MOL0     C60256   4.381   3.642  10.993 -0.9579  0.5849 -0.3361
  457MOL0     C60257   3.694   3.593  10.544 -0.0305  0.0631  0.3761
  457MOL0     C60258   3.565   3.581  10.494  0.2601 -0.4130  0.3320
  457MOL0     H60259   3.285   3.336  10.278  0.7230 -0.1952 -2.0834
  457MOL0     H60260   3.107   3.276  10.128  1.3455  0.2526 -1.0828
  457MOL0     H60261   2.701   3.389  10.046 -0.2885  0.5122  0.1668
  457MOL0     H60262   2.748   3.526  10.144  0.0483  0.2357 -0.2325
  457MOL0     H60263   2.758   3.346  10.358  0.3524  0.4065  0.0158
  457MOL0     H60264   2.755   3.229  10.240 -1.3402 -0.4976  1.1658
  457MOL0     H60265   2.549   3.266  10.367  2.0573  0.5870  1.8542
  457MOL0     H60266   2.547   3.240  10.186 -1.0663  0.3083 -0.4584
  457MOL0     H60267   2.518   3.497  10.351 -0.1492 -0.0026 -0.5661
  457MOL0     H60268   2.522   3.493  10.171 -1.0145  0.5202  0.6157
  457MOL0     H60269   2.313   3.365  10.157  0.6850 -0.3366  0.7177
  457MOL0     H60270   2.283   3.497  10.250 -0.6093 -0.1767 -1.4687
  457MOL0     H60271   2.317   3.375  10.467  0.4692  2.0904 -1.1849
  457MOL0     H60272   2.352   3.229  10.379 -2.4356 -1.3710  1.7082
  457MOL0     H60273   2.094   3.301  10.466 -0.6240  2.5069 -1.3575
  457MOL0     H60274   2.084   3.367  10.309  2.1526  1.1587  0.0429
  457MOL0     H60275   2.107   3.090  10.401  0.7955 -0.3257 -0.6937
  457MOL0     H60276   2.174   3.127  10.237  0.9484  2.7190 -1.1110
  457MOL0     H60277   2.018   3.273  10.058 -1.5252  0.7097 -0.6904
  457MOL0     H60278   1.831   3.118   9.874  0.7294  3.1268 -1.1031
  457MOL0     H60279   1.778   3.281   9.915  0.5141 -0.8721 -1.8530
  457MOL0     H60280   1.562   3.189   9.997 -0.2163 -2.8489  2.2200
  457MOL0     H60281   1.626   3.030   9.956  0.1527  0.1524 -0.5095
  457MOL0     H60282   1.553   3.271   9.776 -0.0728  0.0062  0.2435
  457MOL0     H60283   1.662   3.154   9.704 -0.5266  0.1030 -0.3934
  457MOL0     H60284   1.473   2.999   9.730  1.9592 -0.4695 -0.5771
  457MOL0     H60285   1.417   3.146   9.654  1.6403 -1.4485 -1.3162
  457MOL0     H60286   1.195   3.190  10.037  0.6527  2.5805 -2.9359
  457MOL0     H60287   0.962   3.090  10.061 -0.6870 -4.3533  0.7475
  457MOL0     H60288   0.757   2.567   9.738  1.1043  1.6430 -0.4340
  457MOL0     H60289   0.570   2.428   9.756 -2.1682  0.3052 -2.7993
  457MOL0     H60290   0.397   2.441  10.083  0.6627  1.0794  0.8533
  457MOL0     H60291   0.298   2.327   9.992 -1.3559  1.8022 -1.1116
  457MOL0     H60292   0.225   2.598  10.101 -1.3625 -0.4180  1.1617
  457MOL0     H60293   0.134   2.439  10.128 -2.7554  0.2440 -1.5327
  457MOL0     H60294   0.086   2.444   9.884 -1.1981  0.1341 -1.8388
  457MOL0     H60295   0.152   2.609   9.905 -0.2321 -0.0886  0.0175
  457MOL0     H60296  -0.035   2.630  10.099 -1.8438 -3.2318  0.4181
  457MOL0     H60297  -0.068   2.674   9.934 -0.6409  1.5384  2.6732
  457MOL0     H60298  -0.204   2.458   9.932 -0.3903  0.6332 -0.4590
  457MOL0     H60299  -0.251   2.545  10.067 -1.1092  1.1426 -2.2631
  457MOL0     H60300  -0.073   2.398  10.206  0.7068  0.0304 -1.0615
  457MOL0     H60301  -0.062   2.304  10.055 -1.4616 -0.3445 -0.4687
  457MOL0     H60302  -0.203   2.176  10.179 -1.7995 -0.3796  2.4052
  457MOL0     H60303  -0.309   2.313  10.216 -0.2479  0.0330 -1.0228
  457MOL0     H60304  -0.216   2.197   9.938  0.4608 -2.3127  0.3563
  457MOL0     H60305  -0.340   2.316   9.961  0.2528  0.5084 -0.1508
  457MOL0     H60306   0.373   2.749   9.965 -1.9840 -3.9467  0.9813
  457MOL0     H60307   0.567   2.876   9.953 -0.6008  0.4491 -0.7011
  457MOL0     H60308   1.008   2.880   9.701  1.0932 -0.4171 -0.2722
  457MOL0     H60309   1.236   2.956   9.684 -1.3976  0.8305 -0.9943
  457MOL0     H60310   2.883   3.618  10.252 -0.3663 -0.3048 -2.2956
  457MOL0     H60311   3.082   3.685  10.395 -2.3534  0.9588 -1.7443
  457MOL0     H60312   3.381   3.621  10.766 -0.2562 -1.2833 -1.6582
  457MOL0     H60313   3.620   3.676  10.867 -0.0549  0.2377  0.3304
  457MOL0     H60314   3.967   3.799  10.619  0.5917  1.0579  0.8904
  457MOL0     H60315   3.967   3.629  10.580  0.4784 -1.3065  0.9382
  457MOL0     H60316   4.067   3.746  10.841 -0.4387 -1.2868  1.1273
  457MOL0     H60317   4.070   3.578  10.804  1.2235 -0.9177 -0.4373
  457MOL0     H60318   4.239   3.807  10.689  0.3970 -0.3976  0.7178
  457MOL0     H60319   4.178   3.676  10.574 -1.4410 -1.3013  0.6243
  457MOL0     H60320   4.280   3.516  10.709 -1.6619  1.3607 -2.2660
  457MOL0     H60321   4.407   3.637  10.676 -1.4594  2.5861 -1.0120
  457MOL0     H60322   4.398   3.638  11.099 -2.5796 -0.5842 -0.0740
  457MOL0     H60323   3.779   3.608  10.479 -0.6470  1.0158 -0.2225
  457MOL0     H60324   3.554   3.555  10.390  1.1399 -1.8141  0.5643
  458MOL0     O60325   0.126   2.580   1.988 -0.3194 -0.5244 -0.4205
  458MOL0     C60326   0.169   2.672   1.920 -1.0774 -0.5602 -0.0946
  458MOL0     O60327   0.095   2.786   1.891  0.0724 -0.2259 -0.2236
  458MOL0     C60328  -0.015   2.807   1.966 -1.3833  0.4509 -0.4717
  458MOL0     C60329  -0.140   2.779   1.910  1.2493 -0.0095 -0.7985
  458MOL0     C60330  -0.257   2.807   1.982  0.1038  0.0037  0.0442
  458MOL0     C60331  -0.248   2.862   2.104  0.4605 -0.4578  0.2066
  458MOL0     O60332  -0.354   2.871   2.193 -1.0630 -0.0561 -0.5650
  458MOL0     C60333  -0.449   2.973   2.158 -0.0484 -0.5472  0.6278
  458MOL0     C60334  -0.562   2.989   2.265  0.0276 -0.7732 -0.1868
  458MOL0     C60335  -0.669   3.085   2.211 -0.2102 -1.5174  0.3279
  458MOL0     C60336  -0.800   3.073   2.288 -0.1106  0.4482  0.0922
  458MOL0     C60337  -0.897   3.187   2.255  0.0271 -0.7464  0.3936
  458MOL0     C60338  -0.975   3.163   2.120  0.1968 -0.0413 -0.2778
  458MOL0     C60339  -1.030   3.305   2.065 -0.5932 -0.3858  0.9365
  458MOL0     C60340  -1.137   3.379   2.143 -0.1880  0.1234 -1.0243
  458MOL0     N60341  -1.260   3.302   2.126  0.0144 -0.0285 -0.1782
  458MOL0     C60342  -1.347   3.278   2.017 -0.1465 -0.8198 -0.0684
  458MOL0     C60343  -1.441   3.204   2.070 -0.0253 -0.4378 -0.5550
  458MOL0     C60344  -1.574   3.159   2.010  0.0561  0.5852 -0.0369
  458MOL0     C60345  -1.705   3.202   2.083 -0.1511  0.1857  0.1203
  458MOL0     C60346  -1.822   3.126   2.036 -0.0857 -0.2068  0.1635
  458MOL0     C60347  -1.941   3.149   2.131 -0.1511  0.2101  0.8190
  458MOL0     O60348  -1.922   3.100   2.264  0.6592 -0.6234 -0.2926
  458MOL0     C60349  -2.026   3.100   2.355  0.4102 -0.2804 -0.0561
  458MOL0     C60350  -2.156   3.144   2.327  0.6357  0.0873  0.1063
  458MOL0     C60351  -2.250   3.152   2.428  1.0205 -0.7062 -0.3105
  458MOL0     C60352  -2.228   3.083   2.546  0.2774 -0.4964 -0.0941
  458MOL0     C60353  -2.329   3.087   2.656 -0.4961  0.9036  0.5360
  458MOL0     O60354  -2.433   3.176   2.648 -0.3078  0.0007 -0.3562
  458MOL0     C60355  -2.536   3.168   2.739  0.9924  0.3536 -0.0838
  458MOL0     C60356  -2.525   3.207   2.875  0.5715 -0.2192 -0.3294
  458MOL0     C60357  -2.641   3.207   2.945 -0.8899 -0.5183  0.0064
  458MOL0     C60358  -2.764   3.145   2.899  0.3995  0.1016 -0.0976
  458MOL0     O60359  -2.889   3.166   2.963  0.0184 -0.3395  0.4065
  458MOL0     C60360  -2.928   3.077   3.071 -1.0891 -0.2668 -0.0741
  458MOL0     C60361  -2.847   3.103   3.196 -0.4445 -1.0063 -0.3217
  458MOL0     C60362  -2.904   3.022   3.311 -0.1117 -0.6508  0.5560
  458MOL0     C60363  -2.847   3.064   3.449  0.2357 -0.5100 -0.8039
  458MOL0     C60364  -2.697   3.014   3.461 -0.8681 -0.0224 -0.1878
  458MOL0     C60365  -2.632   3.073   3.587  0.3940  0.6648  0.1799
  458MOL0     C60366  -2.478   3.069   3.584  0.4671 -0.3361  0.2750
  458MOL0     C60367  -2.397   3.186   3.536  0.4149  0.0057 -0.6207
  458MOL0    Cl60368  -2.243   3.210   3.627  0.4506  0.3475  0.0828
  458MOL0     C60369  -2.769   3.099   2.771  0.0156 -0.5988 -0.2980
  458MOL0     C60370  -2.657   3.112   2.693 -0.9815  0.4214 -0.4634
  458MOL0     O60371  -2.311   3.011   2.752 -0.3128 -0.7913  0.4959
  458MOL0     C60372  -2.110   3.017   2.567 -0.3793  0.6444  0.2806
  458MOL0     C60373  -2.009   3.032   2.473 -0.6993 -0.7222  0.0706
  458MOL0     N60374  -1.411   3.171   2.205 -0.3528  0.2018  0.3462
  458MOL0     N60375  -1.302   3.228   2.233  0.0035 -0.4999 -0.3653
  458MOL0     C60376  -0.122   2.907   2.153  1.0649  0.8535 -0.5441
  458MOL0     C60377  -0.005   2.890   2.078  0.1359  0.2315 -0.4692
  458MOL0     C60378   0.308   2.665   1.862  0.2712  0.3416 -0.2100
  458MOL0     C60379   0.351   2.765   1.782  0.7404 -0.7148  0.1075
  458MOL0     C60380   0.474   2.754   1.708 -0.1839  0.5723  1.1762
  458MOL0     C60381   0.559   2.643   1.735 -0.4560 -0.4668  0.9046
  458MOL0     O60382   0.683   2.623   1.667 -0.0413 -0.1429  1.0960
  458MOL0     C60383   0.730   2.733   1.591 -0.4644  0.4595  0.0218
  458MOL0     C60384   0.884   2.734   1.582  0.1824  1.3119 -0.2524
  458MOL0     C60385   0.936   2.826   1.474  0.9318  1.0398  0.5922
  458MOL0     C60386   0.944   2.964   1.530 -0.6616 -0.5894 -0.2774
  458MOL0     C60387   0.996   3.062   1.427 -0.0710  0.6120  0.4124
  458MOL0     C60388   1.032   3.134   1.338 -0.1711 -0.3012 -0.0326
  458MOL0     C60389   0.513   2.545   1.820 -0.8556  0.2076 -0.5102
  458MOL0     C60390   0.391   2.553   1.890  0.4399  0.7549  0.6858
  458MOL0     H60391  -0.149   2.732   1.812  1.3566 -2.1214  0.1480
  458MOL0     H60392  -0.355   2.770   1.953 -0.5485  0.6510  1.3409
  458MOL0     H60393  -0.499   2.944   2.065 -0.9729 -2.5198  1.6728
  458MOL0     H60394  -0.400   3.071   2.155  0.4622 -0.8250 -0.5003
  458MOL0     H60395  -0.519   3.025   2.359  2.5953 -2.8317 -0.4568
  458MOL0     H60396  -0.605   2.891   2.287  2.7303 -1.6676  1.7538
  458MOL0     H60397  -0.685   3.070   2.104  0.1985  1.0472 -0.1455
  458MOL0     H60398  -0.628   3.186   2.213 -0.8838 -1.0900 -2.4353
  458MOL0     H60399  -0.841   2.974   2.265  0.7823  0.2208 -0.5397
  458MOL0     H60400  -0.789   3.097   2.394  0.3812 -1.5234  0.5274
  458MOL0     H60401  -0.836   3.277   2.237 -1.9786  0.5529 -0.3074
  458MOL0     H60402  -0.972   3.205   2.332 -1.9697 -0.2476 -1.5743
  458MOL0     H60403  -1.061   3.096   2.123 -1.7760  2.1679 -2.6803
  458MOL0     H60404  -0.902   3.123   2.050 -0.8450  1.9357 -2.6421
  458MOL0     H60405  -0.958   3.386   2.058 -1.0035 -0.1148 -0.6249
  458MOL0     H60406  -1.068   3.293   1.963 -1.0379  0.7020  0.9613
  458MOL0     H60407  -1.137   3.485   2.116 -3.8265  0.3282 -0.7684
  458MOL0     H60408  -1.092   3.381   2.242 -0.1936 -0.2435 -1.0125
  458MOL0     H60409  -1.347   3.348   1.934  1.8871  0.2450  0.7506
  458MOL0     H60410  -1.566   3.050   2.000  2.0353  0.6105  0.8279
  458MOL0     H60411  -1.579   3.211   1.914  4.1000 -2.4000 -2.1839
  458MOL0     H60412  -1.711   3.311   2.083 -0.7535  0.1969 -2.3047
  458MOL0     H60413  -1.694   3.168   2.187 -1.5372  4.2390  1.7869
  458MOL0     H60414  -1.856   3.166   1.939 -4.5777 -1.7515  0.8812
  458MOL0     H60415  -1.815   3.018   2.022 -2.3716 -0.2291 -1.2019
  458MOL0     H60416  -2.034   3.116   2.085 -0.8506  1.5295  1.2286
  458MOL0     H60417  -1.949   3.257   2.144  0.3597  0.1987  1.2656
  458MOL0     H60418  -2.159   3.203   2.235  0.1293  1.2109  0.8215
  458MOL0     H60419  -2.348   3.196   2.411  0.9691  0.0898  1.7678
  458MOL0     H60420  -2.436   3.257   2.911  0.4420  0.8766 -1.4789
  458MOL0     H60421  -2.646   3.242   3.048  1.0341  3.3988 -1.0239
  458MOL0     H60422  -2.915   2.975   3.034 -0.2566  0.9626 -3.4532
  458MOL0     H60423  -3.034   3.085   3.097 -1.7720 -2.2728 -1.9303
  458MOL0     H60424  -2.849   3.210   3.220  4.2056  0.0387 -3.2022
  458MOL0     H60425  -2.741   3.081   3.178 -0.1783  0.6891 -1.0243
  458MOL0     H60426  -2.882   2.916   3.296  1.5976 -0.3142  0.4733
  458MOL0     H60427  -3.014   3.024   3.312 -0.1466 -1.8141  1.5850
  458MOL0     H60428  -2.849   3.173   3.455 -0.7057 -0.6151  2.3849
  458MOL0     H60429  -2.919   3.029   3.523 -0.3733 -1.5674 -1.8613
  458MOL0     H60430  -2.645   3.057   3.375 -1.1429  0.6549 -0.0261
  458MOL0     H60431  -2.688   2.905   3.466 -0.3473  0.0772  1.9578
  458MOL0     H60432  -2.676   3.019   3.672  0.5329 -1.2645 -0.8989
  458MOL0     H60433  -2.663   3.178   3.591 -1.2819  0.2923 -1.3753
  458MOL0     H60434  -2.448   3.050   3.688  3.5502  0.7071 -0.3031
  458MOL0     H60435  -2.441   2.981   3.529  0.7735  1.6495 -2.9453
  458MOL0     H60436  -2.438   3.285   3.554  2.7680  1.2388 -1.6094
  458MOL0     H60437  -2.392   3.189   3.427 -1.6914 -1.6770 -0.8284
  458MOL0     H60438  -2.859   3.056   2.729  0.5521  1.2690 -3.6507
  458MOL0     H60439  -2.660   3.078   2.590 -1.9517 -2.3030  0.3570
  458MOL0     H60440  -2.077   2.953   2.648  0.0966  0.6847  0.1228
  458MOL0     H60441  -1.920   2.970   2.478  0.0966  0.2600 -1.2348
  458MOL0     H60442  -0.118   2.948   2.254 -2.9276 -3.6921  1.8429
  458MOL0     H60443   0.089   2.932   2.111  1.5250 -0.6562 -3.1085
  458MOL0     H60444   0.290   2.852   1.758  0.2864 -0.4393  2.0846
  458MOL0     H60445   0.510   2.831   1.641  2.1090 -0.6333  0.9563
  458MOL0     H60446   0.704   2.829   1.638  0.8664  0.0422  1.6824
  458MOL0     H60447   0.682   2.731   1.492 -0.3385  2.1096 -0.1112
  458MOL0     H60448   0.921   2.768   1.680  2.2814  2.3764 -1.3257
  458MOL0     H60449   0.928   2.634   1.578 -2.3907  0.1264 -0.2724
  458MOL0     H60450   0.886   2.813   1.377 -0.1080 -1.3393  1.3736
  458MOL0     H60451   1.033   2.786   1.443 -1.2326 -1.0206 -4.7187
  458MOL0     H60452   0.844   2.995   1.560 -0.8835 -0.5241 -1.0603
  458MOL0     H60453   1.005   2.975   1.620  2.1670  2.5713 -2.3059
  458MOL0     H60454   1.090   3.190   1.268  1.2358 -0.5679  0.8712
  458MOL0     H60455   0.571   2.454   1.837 -2.6022 -0.9747 -0.6354
  458MOL0     H60456   0.360   2.477   1.962 -0.5625 -0.1883 -0.7048
  459MOL0     O60457   2.792   2.783   3.679 -0.1748  0.2306 -0.7641
  459MOL0     C60458   2.760   2.784   3.798 -0.5382 -0.4196 -0.5079
  459MOL0     O60459   2.837   2.747   3.912 -0.4827  0.0041  0.8691
  459MOL0     C60460   2.969   2.716   3.905  0.2385 -0.2813  0.8869
  459MOL0     C60461   3.027   2.622   3.988 -0.3763  0.1956  0.7059
  459MOL0     C60462   3.168   2.601   3.996  0.2035 -0.1143  0.4064
  459MOL0     C60463   3.258   2.686   3.928  0.4002 -0.6191 -0.5544
  459MOL0     O60464   3.391   2.681   3.945 -0.2074  0.6290 -0.4677
  459MOL0     C60465   3.485   2.784   3.915 -0.1829 -0.0832  0.2415
  459MOL0     C60466   3.631   2.737   3.948  0.9095 -0.0508  0.2655
  459MOL0     C60467   3.707   2.857   3.988 -1.1803  0.3603  0.5311
  459MOL0     C60468   3.849   2.811   3.999 -0.6425  0.4833 -0.6216
  459MOL0     C60469   3.934   2.934   4.018  0.5701 -0.7847  0.3313
  459MOL0     C60470   3.929   3.027   4.145  0.5322 -1.2024 -0.7695
  459MOL0     C60471   3.920   2.955   4.279 -0.5444  0.7174 -0.4446
  459MOL0     C60472   3.898   3.053   4.396 -0.7691 -0.0898 -0.0609
  459MOL0     N60473   3.871   2.980   4.522  0.6871  0.2718 -0.0725
  459MOL0     C60474   3.746   2.930   4.546 -0.0103 -0.1444 -0.3231
  459MOL0     C60475   3.760   2.835   4.644  0.2645  0.5324 -0.0480
  459MOL0     C60476   3.653   2.739   4.676 -0.9366 -0.0068 -0.0418
  459MOL0     C60477   3.513   2.797   4.657  0.2502  0.0201 -0.0610
  459MOL0     C60478   3.405   2.693   4.702 -0.1143  0.1955 -0.1764
  459MOL0     C60479   3.262   2.722   4.641  0.1105  0.4211  0.4701
  459MOL0     O60480   3.178   2.823   4.717 -0.9313 -0.3723 -0.4492
  459MOL0     C60481   3.043   2.806   4.710 -0.3580  1.0434 -0.1228
  459MOL0     C60482   2.962   2.860   4.810  0.1863  0.4521 -0.2373
  459MOL0     C60483   2.825   2.820   4.822  0.3205 -0.8734 -0.6686
  459MOL0     C60484   2.766   2.742   4.726 -0.3851  1.4377 -0.0937
  459MOL0     C60485   2.621   2.716   4.727 -1.0608  0.8350 -0.4241
  459MOL0     O60486   2.554   2.793   4.811  0.8001 -0.6941  0.4248
  459MOL0     C60487   2.417   2.783   4.810  0.0066  0.4997 -0.6174
  459MOL0     C60488   2.343   2.759   4.922  0.4958  0.6630 -0.6909
  459MOL0     C60489   2.200   2.758   4.919  0.7867  0.6944  0.0819
  459MOL0     C60490   2.137   2.752   4.793 -0.2960 -0.1744 -0.7933
  459MOL0     O60491   2.005   2.741   4.807  0.3885  0.1715 -0.0739
  459MOL0     C60492   1.917   2.790   4.700  0.5580  0.5781 -0.0618
  459MOL0     C60493   1.769   2.782   4.741  0.0997 -0.2163  0.7298
  459MOL0     C60494   1.675   2.886   4.685 -0.5291  0.1906  0.8345
  459MOL0     C60495   1.548   2.884   4.777  1.0778 -0.7471 -0.8124
  459MOL0     C60496   1.446   2.981   4.721  0.5756 -0.0748  0.2010
  459MOL0     C60497   1.323   3.005   4.812  0.2430 -0.1749  0.2514
  459MOL0     C60498   1.210   3.085   4.740  1.2441 -0.6611  0.3538
  459MOL0     C60499   1.090   3.082   4.830 -0.1991 -0.6200 -0.6686
  459MOL0    Cl60500   0.967   3.185   4.738 -0.2366  0.0549 -0.0713
  459MOL0     C60501   2.216   2.772   4.680 -0.0027 -0.1966  0.3368
  459MOL0     C60502   2.350   2.801   4.695 -0.5685  0.5623  0.1092
  459MOL0     O60503   2.582   2.624   4.652  0.1414  0.2124 -0.5805
  459MOL0     C60504   2.846   2.686   4.626 -0.8290 -0.1704  0.9641
  459MOL0     C60505   2.979   2.732   4.610  0.2678  0.8107  0.2544
  459MOL0     N60506   3.899   2.825   4.674  0.3790  0.1555 -0.0286
  459MOL0     N60507   3.960   2.922   4.610  0.1286 -0.0032  0.5174
  459MOL0     C60508   3.196   2.784   3.844  0.4679  0.4419 -1.1127
  459MOL0     C60509   3.058   2.797   3.829 -0.0355 -0.3238 -0.0922
  459MOL0     C60510   2.631   2.855   3.821  0.5549 -0.1228 -0.7034
  459MOL0     C60511   2.554   2.920   3.728 -0.1415 -0.7050  0.7549
  459MOL0     C60512   2.440   2.994   3.771 -1.0729  0.3171  0.2161
  459MOL0     C60513   2.409   3.008   3.907  0.2077 -0.9249 -0.4541
  459MOL0     O60514   2.296   3.067   3.967 -0.5226 -0.9329 -0.0205
  459MOL0     C60515   2.191   3.119   3.877 -0.6574 -0.1003  0.8489
  459MOL0     C60516   2.063   3.167   3.954  0.4275 -0.1247  0.4602
  459MOL0     C60517   2.097   3.244   4.088  0.1359  0.1205 -0.0600
  459MOL0     C60518   2.149   3.381   4.051  1.3403 -0.8278  0.2381
  459MOL0     C60519   2.198   3.452   4.167  0.2661  0.0643 -0.6617
  459MOL0     C60520   2.246   3.515   4.259 -0.2170  0.4967  0.6685
  459MOL0     C60521   2.496   2.948   3.993 -0.1755  0.1929 -0.5051
  459MOL0     C60522   2.602   2.869   3.957 -0.3281  0.5254 -0.3035
  459MOL0     H60523   2.966   2.542   4.028 -2.8627  0.4347 -2.2694
  459MOL0     H60524   3.203   2.522   4.062 -0.7556 -0.3296  0.6608
  459MOL0     H60525   3.454   2.873   3.970  0.2021 -0.2876  0.8028
  459MOL0     H60526   3.488   2.808   3.809 -0.6735 -0.5336  0.1177
  459MOL0     H60527   3.677   2.698   3.858 -0.4792  3.1734 -2.0398
  459MOL0     H60528   3.618   2.660   4.025 -1.5103  1.0035  1.0276
  459MOL0     H60529   3.682   2.887   4.090 -0.8840  0.5229  0.5555
  459MOL0     H60530   3.691   2.940   3.919  1.1840  1.1363  0.8302
  459MOL0     H60531   3.862   2.738   4.080  0.8201 -0.6013 -1.7864
  459MOL0     H60532   3.881   2.762   3.907 -2.6411 -2.3662  0.0434
  459MOL0     H60533   3.914   2.991   3.927 -1.1837 -1.7567  0.0687
  459MOL0     H60534   4.041   2.911   4.015  0.4536 -1.2716 -0.5989
  459MOL0     H60535   3.840   3.090   4.136  2.2281  1.4517 -0.1454
  459MOL0     H60536   4.007   3.103   4.151 -1.2442  0.6424  0.8003
  459MOL0     H60537   3.828   2.896   4.274 -2.5075  3.5791 -1.1894
  459MOL0     H60538   4.007   2.894   4.305 -2.2947 -0.8480  2.1001
  459MOL0     H60539   3.813   3.120   4.381  0.3848  1.3760 -0.2540
  459MOL0     H60540   3.982   3.120   4.417 -1.0849 -0.1672  1.6003
  459MOL0     H60541   3.657   2.966   4.497 -1.2888 -0.8022  1.4048
  459MOL0     H60542   3.654   2.709   4.781 -2.2558 -1.1292 -0.3245
  459MOL0     H60543   3.676   2.649   4.619  0.2318  1.0941 -1.3993
  459MOL0     H60544   3.499   2.825   4.552  0.8990  0.8009  0.0509
  459MOL0     H60545   3.498   2.885   4.719 -0.8115 -0.3243  0.1816
  459MOL0     H60546   3.444   2.594   4.675  2.9517  1.7750 -2.0568
  459MOL0     H60547   3.396   2.695   4.811  1.7382 -2.2498  0.1005
  459MOL0     H60548   3.214   2.623   4.646 -1.1972  0.8133 -2.4680
  459MOL0     H60549   3.265   2.764   4.540 -0.0530  2.3591  1.2446
  459MOL0     H60550   3.012   2.919   4.886  4.4742 -1.7084 -1.0671
  459MOL0     H60551   2.767   2.867   4.901  3.6957  2.4827  0.0933
  459MOL0     H60552   2.389   2.737   5.017 -0.5293  1.7203  0.0766
  459MOL0     H60553   2.155   2.737   5.015 -0.2613  0.0974 -0.5252
  459MOL0     H60554   1.928   2.732   4.608 -0.8337 -2.6188  1.6182
  459MOL0     H60555   1.944   2.893   4.676  0.2427  0.7963  0.4882
  459MOL0     H60556   1.774   2.811   4.847 -0.1652  2.4847  0.0553
  459MOL0     H60557   1.731   2.680   4.726  1.6432 -1.0783  2.1780
  459MOL0     H60558   1.648   2.853   4.585  0.2138  0.7611  0.4356
  459MOL0     H60559   1.718   2.987   4.687 -1.3188  0.5382  2.9703
  459MOL0     H60560   1.499   2.787   4.785 -1.1314  0.3250 -0.4717
  459MOL0     H60561   1.562   2.920   4.880  0.5775 -3.1602  0.1681
  459MOL0     H60562   1.407   2.927   4.634 -2.1066 -1.5758  2.1843
  459MOL0     H60563   1.490   3.075   4.685  0.2841 -0.3702 -0.9594
  459MOL0     H60564   1.365   3.067   4.892 -0.4440  2.4375 -1.2757
  459MOL0     H60565   1.298   2.904   4.846 -1.0287 -1.7005 -4.5022
  459MOL0     H60566   1.233   3.190   4.722 -3.5387  0.4993 -0.5335
  459MOL0     H60567   1.194   3.040   4.641  1.4681 -0.4532  0.2223
  459MOL0     H60568   1.111   3.128   4.927  0.2436 -1.3230 -0.4215
  459MOL0     H60569   1.051   2.981   4.847 -1.5348 -0.0420 -0.1190
  459MOL0     H60570   2.161   2.768   4.586  1.0725 -3.2469 -0.2802
  459MOL0     H60571   2.409   2.826   4.607  1.3432 -6.2618 -1.1588
  459MOL0     H60572   2.808   2.616   4.553  0.8953 -0.0910 -0.0619
  459MOL0     H60573   3.037   2.699   4.525  0.4753 -2.6068  1.5436
  459MOL0     H60574   3.257   2.855   3.788  1.8671  0.9495  0.9447
  459MOL0     H60575   3.022   2.855   3.745 -1.1582 -3.4311 -1.9143
  459MOL0     H60576   2.590   2.918   3.625 -3.0989  0.8883 -0.4566
  459MOL0     H60577   2.389   3.050   3.694  2.5621  1.6799 -1.4566
  459MOL0     H60578   2.169   3.047   3.798  2.1996  2.2321 -2.4309
  459MOL0     H60579   2.247   3.203   3.834 -0.3462 -0.2390  0.9832
  459MOL0     H60580   1.988   3.217   3.893  0.6435 -0.3889 -0.0276
  459MOL0     H60581   2.018   3.069   3.974  0.2338 -0.6749 -2.3117
  459MOL0     H60582   2.171   3.187   4.144 -0.5451 -2.6058 -1.7308
  459MOL0     H60583   2.002   3.258   4.139 -1.9953 -0.2960 -3.5849
  459MOL0     H60584   2.221   3.380   3.969  1.5771 -2.4546  0.4295
  459MOL0     H60585   2.063   3.434   4.010  1.6905 -0.6232 -0.2433
  459MOL0     H60586   2.296   3.569   4.338  0.2385  3.7313 -1.6249
  459MOL0     H60587   2.480   2.959   4.100  1.5793  1.1037 -0.3059
  459MOL0     H60588   2.661   2.822   4.035  2.6897  0.6352 -2.3502
  460MOL0     O60589   4.694   0.913   4.282  0.4381 -0.5346 -0.1387
  460MOL0     C60590   4.715   0.883   4.403  0.3931 -0.2081 -0.2856
  460MOL0     O60591   4.621   0.856   4.496  0.6905  0.3068 -0.4318
  460MOL0     C60592   4.490   0.882   4.467  0.4279  0.1070  0.5186
  460MOL0     C60593   4.428   0.978   4.550  0.1961 -0.2394 -0.6072
  460MOL0     C60594   4.289   0.996   4.541 -0.0718 -0.3698 -0.2286
  460MOL0     C60595   4.209   0.938   4.446 -0.3042 -1.0088  0.7599
  460MOL0     O60596   4.078   0.979   4.440 -0.8545  0.3979 -0.7045
  460MOL0     C60597   3.990   0.900   4.358 -0.6942 -0.3135 -1.0059
  460MOL0     C60598   3.865   0.989   4.349 -0.0475 -0.2053  0.9046
  460MOL0     C60599   3.726   0.927   4.360 -0.6684  0.4840  0.0967
  460MOL0     C60600   3.616   1.033   4.356  0.3418  0.4025 -0.5674
  460MOL0     C60601   3.477   0.987   4.383 -0.3900  0.3634 -0.0841
  460MOL0     C60602   3.462   0.910   4.514  0.6989  0.4850  0.1194
  460MOL0     C60603   3.329   0.853   4.529  0.7396  0.5157  0.5507
  460MOL0     C60604   3.292   0.822   4.675  0.0330  0.7279 -0.6180
  460MOL0     N60605   3.148   0.781   4.688 -0.5586  0.0758  0.0334
  460MOL0     C60606   3.102   0.671   4.618 -0.1167  0.3665 -0.8750
  460MOL0     C60607   2.978   0.655   4.667  0.4468  0.3708 -0.1553
  460MOL0     C60608   2.892   0.537   4.648 -0.2989 -0.8229 -0.7002
  460MOL0     C60609   2.774   0.573   4.562  0.0649  0.0500 -0.2533
  460MOL0     C60610   2.690   0.448   4.541  0.4942  0.3159  0.2900
  460MOL0     C60611   2.543   0.478   4.505  0.1176 -0.2628 -0.3919
  460MOL0     O60612   2.466   0.359   4.488 -0.5121 -0.1054  0.0617
  460MOL0     C60613   2.327   0.342   4.506  0.1937  0.2289  0.0101
  460MOL0     C60614   2.271   0.214   4.494 -0.3401 -0.2414  0.2232
  460MOL0     C60615   2.130   0.190   4.484 -0.1866  0.5917 -0.2759
  460MOL0     C60616   2.044   0.298   4.482 -0.0630 -0.4629  1.2173
  460MOL0     C60617   1.896   0.276   4.461 -1.2031 -0.6029  0.5746
  460MOL0     O60618   1.820   0.382   4.444  0.0329 -0.2812  1.1430
  460MOL0     C60619   1.685   0.368   4.450 -0.0544  0.0519  0.3760
  460MOL0     C60620   1.616   0.350   4.572 -0.4902 -1.1311  0.0133
  460MOL0     C60621   1.478   0.337   4.576 -0.1051  1.6900  0.5703
  460MOL0     C60622   1.400   0.353   4.458  0.4205  0.7209 -0.6190
  460MOL0     O60623   1.265   0.352   4.461  0.5621  0.2962 -0.1715
  460MOL0     C60624   1.199   0.277   4.562 -0.4944  0.6084  0.1838
  460MOL0     C60625   1.070   0.238   4.495  0.2290 -0.2522  0.8175
  460MOL0     C60626   0.974   0.145   4.576 -0.0051  0.0164 -0.1702
  460MOL0     C60627   0.845   0.142   4.496  0.4966  0.4104 -0.0219
  460MOL0     C60628   0.723   0.111   4.584  0.0452 -0.3445  0.2727
  460MOL0     C60629   0.736  -0.013   4.669 -0.5586  0.8791  0.4651
  460MOL0     C60630   0.604  -0.047   4.745  0.5216 -0.4879  0.2566
  460MOL0     C60631   0.584   0.044   4.866 -0.4483 -0.7452 -0.2661
  460MOL0    Cl60632   0.425   0.025   4.935  0.2661  0.2117 -0.1620
  460MOL0     C60633   1.466   0.378   4.339  0.2115 -0.7098  0.2905
  460MOL0     C60634   1.608   0.382   4.331 -0.2594  0.2806  0.4402
  460MOL0     O60635   1.850   0.164   4.473  0.1087 -0.2322  0.2420
  460MOL0     C60636   2.093   0.430   4.497 -0.6395  0.1240 -0.2758
  460MOL0     C60637   2.233   0.445   4.518  0.1283 -0.4652 -0.1096
  460MOL0     N60638   2.949   0.748   4.761 -0.8026  0.0910  0.7147
  460MOL0     N60639   3.059   0.822   4.787 -0.1952  0.5941  0.1506
  460MOL0     C60640   4.272   0.846   4.351  0.0481 -0.3002  0.0272
  460MOL0     C60641   4.409   0.813   4.370  0.3383 -0.9801  0.5502
  460MOL0     C60642   4.852   0.855   4.428  0.2423  0.3747 -0.1113
  460MOL0     C60643   4.947   0.871   4.330 -0.2358 -0.5738  0.3655
  460MOL0     C60644   5.075   0.811   4.345  0.3501  0.1412 -0.0451
  460MOL0     C60645   5.116   0.736   4.454 -0.1756  0.6459 -0.1187
  460MOL0     O60646   5.246   0.696   4.470  0.0650 -0.2579 -0.0674
  460MOL0     C60647   5.329   0.810   4.504 -0.1528 -0.7795  0.6374
  460MOL0     C60648   5.467   0.777   4.441  0.2039 -0.4798  0.3824
  460MOL0     C60649   5.544   0.911   4.418  0.0487  0.0188  1.3010
  460MOL0     C60650   5.539   1.009   4.536 -0.2930  0.9244  1.2840
  460MOL0     C60651   5.603   0.949   4.651  0.1836  0.4071 -1.3922
  460MOL0     C60652   5.636   0.927   4.757 -1.0649 -0.2906 -0.0853
  460MOL0     C60653   5.012   0.727   4.555  0.3146 -0.4371  0.5424
  460MOL0     C60654   4.885   0.785   4.546  0.0343 -0.7317  0.5273
  460MOL0     H60655   4.478   1.036   4.627  1.8911  1.5976 -2.9172
  460MOL0     H60656   4.246   1.060   4.617  1.1545 -2.0886  2.0352
  460MOL0     H60657   3.964   0.806   4.408 -1.4125  0.7022  0.6371
  460MOL0     H60658   4.034   0.882   4.260  0.2601 -2.0345 -0.3026
  460MOL0     H60659   3.864   1.060   4.266 -3.1159 -0.3201  0.7447
  460MOL0     H60660   3.860   1.054   4.437 -1.2871  0.1202  0.6123
  460MOL0     H60661   3.726   0.870   4.453  1.4401 -0.6679 -0.5538
  460MOL0     H60662   3.722   0.850   4.282  1.7306  0.7754 -0.3991
  460MOL0     H60663   3.644   1.108   4.430 -1.3127 -0.7719  1.3726
  460MOL0     H60664   3.622   1.083   4.259  1.9383 -2.0900 -1.8675
  460MOL0     H60665   3.445   0.922   4.301  1.2654 -1.7588  0.8622
  460MOL0     H60666   3.413   1.074   4.399 -1.5135 -0.5547  0.5357
  460MOL0     H60667   3.479   0.987   4.590 -1.1845  2.5952 -1.4740
  460MOL0     H60668   3.536   0.830   4.526  1.7121  1.2314 -0.9772
  460MOL0     H60669   3.249   0.915   4.488 -0.9208 -2.3139 -0.8512
  460MOL0     H60670   3.320   0.766   4.463  2.1280  0.4909  0.3527
  460MOL0     H60671   3.307   0.906   4.743  0.2543  1.3685 -1.4426
  460MOL0     H60672   3.354   0.740   4.714 -2.6736 -0.4554  1.5516
  460MOL0     H60673   3.163   0.615   4.549  0.4298  0.0693 -0.1629
  460MOL0     H60674   2.857   0.503   4.746  3.7612  1.7287  1.8831
  460MOL0     H60675   2.949   0.458   4.598  0.3677 -0.6753 -0.1749
  460MOL0     H60676   2.805   0.604   4.462 -0.1780 -1.7071 -0.9056
  460MOL0     H60677   2.718   0.647   4.620 -0.2070  0.1440 -0.6338
  460MOL0     H60678   2.737   0.384   4.466 -0.1326 -0.9689  0.9481
  460MOL0     H60679   2.700   0.384   4.629  1.2078  0.9391  0.6746
  460MOL0     H60680   2.543   0.541   4.415  1.4939  1.8973  1.0304
  460MOL0     H60681   2.491   0.535   4.583 -1.1787 -1.1862 -0.5401
  460MOL0     H60682   2.333   0.125   4.491 -2.5447 -1.8812  0.2667
  460MOL0     H60683   2.094   0.089   4.469  1.4620  0.0613 -0.8720
  460MOL0     H60684   1.673   0.328   4.662 -1.4234  0.7066  1.1100
  460MOL0     H60685   1.433   0.306   4.669  0.5858  1.2951  0.7761
  460MOL0     H60686   1.173   0.333   4.652 -1.8288 -1.1114  0.9236
  460MOL0     H60687   1.252   0.189   4.598 -1.2683  0.8689  2.0670
  460MOL0     H60688   1.083   0.188   4.398 -3.2109 -0.3703  0.3045
  460MOL0     H60689   1.022   0.334   4.472 -1.4621 -1.3041 -0.2718
  460MOL0     H60690   0.961   0.181   4.678  2.7561  0.8397 -0.0226
  460MOL0     H60691   1.014   0.044   4.587  1.2862  0.7722  3.6435
  460MOL0     H60692   0.818   0.229   4.436 -2.4383 -0.3467  0.0570
  460MOL0     H60693   0.865   0.066   4.420  0.8354  1.4996 -1.0428
  460MOL0     H60694   0.643   0.100   4.510 -1.0370 -0.7448  1.4706
  460MOL0     H60695   0.705   0.201   4.644  0.3871 -0.9323  1.2656
  460MOL0     H60696   0.813   0.007   4.744  0.0418  2.4844 -0.5316
  460MOL0     H60697   0.764  -0.093   4.601 -3.1976 -1.9942  2.4530
  460MOL0     H60698   0.517  -0.040   4.680  1.2051 -0.4183 -0.6693
  460MOL0     H60699   0.604  -0.150   4.781 -2.3715 -0.5035  0.3829
  460MOL0     H60700   0.606   0.147   4.835  0.7076 -1.0018 -0.3465
  460MOL0     H60701   0.653   0.008   4.942 -1.1132 -0.3744  0.5250
  460MOL0     H60702   1.405   0.409   4.254 -0.3416  3.9930  2.1084
  460MOL0     H60703   1.663   0.409   4.241 -0.7917 -1.5537 -0.4762
  460MOL0     H60704   2.037   0.523   4.498  2.7959  2.3974 -1.0557
  460MOL0     H60705   2.264   0.548   4.531 -0.2812 -0.2836 -0.5125
  460MOL0     H60706   4.219   0.790   4.273 -3.0149 -0.0386  1.7527
  460MOL0     H60707   4.463   0.747   4.302 -1.7312 -0.4534 -1.7704
  460MOL0     H60708   4.931   0.945   4.252  0.2616  0.0724  0.8599
  460MOL0     H60709   5.156   0.833   4.277  1.4920 -0.8242  0.9501
  460MOL0     H60710   5.345   0.834   4.609  0.6448  1.6708  0.0099
  460MOL0     H60711   5.290   0.900   4.456  3.0290 -0.2669 -1.2881
  460MOL0     H60712   5.522   0.707   4.504  0.8569 -0.1576  0.1780
  460MOL0     H60713   5.444   0.733   4.344  1.5112  0.0250 -0.1812
  460MOL0     H60714   5.490   0.958   4.335 -1.9749 -4.2161 -0.0542
  460MOL0     H60715   5.640   0.885   4.372 -1.0301 -1.5472 -0.2126
  460MOL0     H60716   5.605   1.093   4.512 -0.3051  0.9718  1.4162
  460MOL0     H60717   5.439   1.049   4.557 -0.9814 -1.6126  3.3904
  460MOL0     H60718   5.685   0.921   4.852 -0.3686 -1.1350 -0.4918
  460MOL0     H60719   5.043   0.662   4.637  2.2379  3.3144  3.1001
  460MOL0     H60720   4.817   0.768   4.629  1.2080  1.2591  1.9897
  461MOL0     O60721   7.535   9.540   1.044  0.0939 -0.9134  0.2781
  461MOL0     C60722   7.635   9.613   1.072  1.3718  0.7606  0.3662
  461MOL0     O60723   7.625   9.712   1.163 -0.9539 -0.4507  0.4423
  461MOL0     C60724   7.524   9.720   1.256  0.5396 -0.5612  0.0976
  461MOL0     C60725   7.495   9.843   1.311  1.0690  0.4418 -0.1349
  461MOL0     C60726   7.386   9.853   1.399  0.3388 -0.6949 -0.1855
  461MOL0     C60727   7.315   9.745   1.456  0.3362 -0.3361 -1.0315
  461MOL0     O60728   7.225   9.756   1.557  0.2408  0.3947 -0.2267
  461MOL0     C60729   7.160   9.881   1.564 -0.1162 -0.1014  0.2206
  461MOL0     C60730   7.028   9.850   1.631  0.8251 -0.5528  0.6644
  461MOL0     C60731   6.971   9.983   1.673 -0.8801 -0.0627  0.5973
  461MOL0     C60732   6.830   9.981   1.719 -0.7553  0.2322  0.9982
  461MOL0     C60733   6.784  10.117   1.770 -0.2740  0.1254  0.0431
  461MOL0     C60734   6.647  10.110   1.839 -0.3911 -0.1857  0.0622
  461MOL0     C60735   6.601  10.252   1.881 -0.4427 -0.1622 -0.1716
  461MOL0     C60736   6.689  10.325   1.986  0.7590 -0.0883  0.3100
  461MOL0     N60737   6.688  10.242   2.109  0.2385 -0.6885 -0.0319
  461MOL0     C60738   6.583  10.233   2.205  0.6373 -0.6061  0.3180
  461MOL0     C60739   6.634  10.159   2.311 -0.1479 -0.1075  0.6733
  461MOL0     C60740   6.553  10.125   2.428 -0.2464  0.3932 -0.2306
  461MOL0     C60741   6.582   9.984   2.467  0.4222 -0.6807  0.7191
  461MOL0     C60742   6.476   9.951   2.576  0.2604 -0.4474 -0.5441
  461MOL0     C60743   6.492  10.052   2.695  0.7053 -0.1948  0.1472
  461MOL0     O60744   6.441  10.004   2.811  0.4764  0.1275  0.5349
  461MOL0     C60745   6.306   9.988   2.831 -0.4900  0.6849  0.2382
  461MOL0     C60746   6.198  10.035   2.754 -0.6844  0.5619 -0.1181
  461MOL0     C60747   6.067  10.012   2.787 -0.3772  0.7437 -0.3078
  461MOL0     C60748   6.035   9.958   2.913 -0.4960  0.2201 -0.5236
  461MOL0     C60749   5.894   9.945   2.963 -0.7645  0.6617 -0.2259
  461MOL0     O60750   5.869   9.893   3.091 -0.0680  0.2242  0.5529
  461MOL0     C60751   5.739   9.881   3.132 -0.1049  0.8310  0.5450
  461MOL0     C60752   5.669   9.976   3.200 -0.0412 -0.5399  0.2463
  461MOL0     C60753   5.542   9.944   3.243 -0.3466 -0.3718 -0.7161
  461MOL0     C60754   5.471   9.830   3.216 -0.5834 -1.0406  1.4714
  461MOL0     O60755   5.339   9.801   3.249  0.8747 -0.2233 -0.3202
  461MOL0     C60756   5.288   9.870   3.368 -0.1139  0.2868 -0.1928
  461MOL0     C60757   5.169   9.783   3.423  0.3485  0.5793 -0.5144
  461MOL0     C60758   5.074   9.857   3.517  0.5771  1.6221 -0.1400
  461MOL0     C60759   4.958   9.758   3.563  0.2938  0.2826  0.4522
  461MOL0     C60760   4.861   9.827   3.670 -0.8108 -0.0761 -0.8261
  461MOL0     C60761   4.751   9.730   3.717 -0.6326 -0.2638  0.0951
  461MOL0     C60762   4.662   9.794   3.822 -0.1586 -0.6993  0.1235
  461MOL0     C60763   4.599   9.925   3.762  0.0722 -0.1966  0.3976
  461MOL0    Cl60764   4.438   9.960   3.811  0.3160 -0.1694 -0.5520
  461MOL0     C60765   5.548   9.734   3.146  0.4115  0.6022  0.4287
  461MOL0     C60766   5.670   9.761   3.091 -0.2245 -0.0641 -0.1894
  461MOL0     O60767   5.806   9.964   2.884  0.7504 -0.3207 -0.1045
  461MOL0     C60768   6.145   9.910   2.991 -0.1328  0.1217 -0.8065
  461MOL0     C60769   6.281   9.927   2.955 -0.2298 -0.4054 -0.5248
  461MOL0     N60770   6.770  10.130   2.276 -0.1312  0.3759  0.0061
  461MOL0     N60771   6.798  10.168   2.150 -0.4497 -0.7369  0.2477
  461MOL0     C60772   7.348   9.618   1.404  0.5360 -0.1270  0.3265
  461MOL0     C60773   7.450   9.605   1.306  0.0696 -0.8035 -0.7662
  461MOL0     C60774   7.765   9.583   1.014 -0.3100 -0.8514 -0.1521
  461MOL0     C60775   7.883   9.642   1.059 -0.9363 -0.3068 -0.5076
  461MOL0     C60776   8.001   9.615   0.989  0.1188  1.1799 -0.5543
  461MOL0     C60777   8.007   9.529   0.874 -0.6620  0.3316 -0.9591
  461MOL0     O60778   8.121   9.497   0.806 -0.4684 -0.1705  0.0655
  461MOL0     C60779   8.161   9.360   0.787 -0.3193  0.0202  0.2843
  461MOL0     C60780   8.186   9.305   0.923  0.5758 -0.2064 -0.1461
  461MOL0     C60781   8.307   9.371   0.995 -0.3649 -0.2100 -0.4701
  461MOL0     C60782   8.326   9.323   1.140 -0.5755 -0.5040 -0.7163
  461MOL0     C60783   8.312   9.430   1.240  0.8913  0.1331  0.4753
  461MOL0     C60784   8.291   9.513   1.328  0.1966  0.7391 -0.0161
  461MOL0     C60785   7.890   9.469   0.830  0.4926  0.4320  1.1059
  461MOL0     C60786   7.772   9.497   0.905 -0.0597 -0.8279 -0.0096
  461MOL0     H60787   7.551   9.930   1.277 -2.3888  1.6855 -3.5188
  461MOL0     H60788   7.376   9.957   1.428 -1.4200 -1.1251  0.9168
  461MOL0     H60789   7.134   9.917   1.464  0.4876  1.0548  0.4648
  461MOL0     H60790   7.222   9.958   1.610 -0.3489 -0.7712  1.7215
  461MOL0     H60791   7.035   9.793   1.724  0.1117  1.6139  2.1125
  461MOL0     H60792   6.961   9.798   1.562  0.5115  1.9299 -1.0358
  461MOL0     H60793   7.004  10.065   1.609  1.2461 -1.5146 -0.2534
  461MOL0     H60794   7.020  10.004   1.769 -3.1519 -2.0773  2.3245
  461MOL0     H60795   6.763   9.951   1.637 -1.8095  2.9905  0.7635
  461MOL0     H60796   6.823   9.910   1.802 -0.8402 -1.8030 -0.6357
  461MOL0     H60797   6.786  10.181   1.682 -0.2871 -0.8403 -0.6723
  461MOL0     H60798   6.862  10.168   1.827  0.5941 -0.6841 -0.3917
  461MOL0     H60799   6.646  10.037   1.921  1.3422 -0.3919 -0.0523
  461MOL0     H60800   6.584  10.066   1.761 -1.9919  0.2153  1.0927
  461MOL0     H60801   6.598  10.319   1.795 -4.8049  0.9338  0.5622
  461MOL0     H60802   6.503  10.242   1.930  0.1922 -1.6244  0.8893
  461MOL0     H60803   6.641  10.418   2.016  1.0906 -0.0803  0.8325
  461MOL0     H60804   6.791  10.343   1.949  0.2556 -0.9193 -1.6063
  461MOL0     H60805   6.484  10.275   2.194 -0.4190 -2.5313  1.7415
  461MOL0     H60806   6.446  10.142   2.414 -0.1388  1.4865  0.1585
  461MOL0     H60807   6.593  10.195   2.502  2.2066 -0.1383 -0.9720
  461MOL0     H60808   6.686   9.971   2.499  1.3979 -1.5402 -2.4384
  461MOL0     H60809   6.569   9.920   2.379 -1.1689  1.2005 -0.4986
  461MOL0     H60810   6.379   9.947   2.525 -1.4393 -1.9653  2.5349
  461MOL0     H60811   6.498   9.848   2.607  0.0169  0.2780  2.3665
  461MOL0     H60812   6.444  10.147   2.671  1.3341 -0.0553 -0.5856
  461MOL0     H60813   6.600  10.065   2.710  0.6090  0.9286 -0.0130
  461MOL0     H60814   6.209  10.078   2.654 -0.1435 -2.2066 -1.3506
  461MOL0     H60815   5.996  10.063   2.724 -2.1250 -1.6324 -0.3765
  461MOL0     H60816   5.717  10.070   3.225  2.6460 -1.7033 -0.1459
  461MOL0     H60817   5.495  10.023   3.301  0.0199  0.5530 -1.6404
  461MOL0     H60818   5.250   9.967   3.337 -1.3380  0.1878  0.8929
  461MOL0     H60819   5.366   9.881   3.444  0.8782  1.9934 -1.4301
  461MOL0     H60820   5.215   9.701   3.479 -0.3182  0.1684 -0.5593
  461MOL0     H60821   5.111   9.742   3.340  1.9808 -0.1548 -1.3371
  461MOL0     H60822   5.013   9.930   3.464  0.0830  0.4686 -1.2110
  461MOL0     H60823   5.130   9.891   3.605 -0.2439 -2.2452  2.1039
  461MOL0     H60824   4.899   9.730   3.475  1.1859 -0.5480  0.1082
  461MOL0     H60825   4.995   9.666   3.608 -3.1194 -1.0969  0.7912
  461MOL0     H60826   4.823   9.922   3.632  2.2519  0.8093 -1.9002
  461MOL0     H60827   4.910   9.858   3.763 -0.1104  0.3258 -1.3235
  461MOL0     H60828   4.792   9.637   3.757 -0.1703  0.0531  0.3623
  461MOL0     H60829   4.688   9.710   3.630 -0.9332  0.4674  0.1396
  461MOL0     H60830   4.590   9.724   3.864 -2.5281  1.1163 -0.6624
  461MOL0     H60831   4.727   9.826   3.904  0.7732 -1.3924 -0.3346
  461MOL0     H60832   4.601   9.901   3.656  2.0173 -1.0101  0.5834
  461MOL0     H60833   4.656  10.017   3.779  0.8065 -0.7831  1.2128
  461MOL0     H60834   5.492   9.647   3.113 -0.6099  1.1744  0.6429
  461MOL0     H60835   5.717   9.693   3.021  0.4334 -0.4520  0.6040
  461MOL0     H60836   6.115   9.842   3.071  1.4998  0.7523  0.3997
  461MOL0     H60837   6.343   9.881   3.030 -3.1094 -0.1181  2.2401
  461MOL0     H60838   7.298   9.529   1.442 -2.0575  1.3276  0.5354
  461MOL0     H60839   7.477   9.506   1.273 -0.0184 -1.1495  0.1899
  461MOL0     H60840   7.883   9.684   1.159  1.2052 -3.0426  0.7853
  461MOL0     H60841   8.103   9.638   1.019  0.4971 -0.4837 -0.4739
  461MOL0     H60842   8.253   9.360   0.727  0.8342  0.0325  1.9720
  461MOL0     H60843   8.087   9.299   0.736  1.9864 -1.2264 -1.7661
  461MOL0     H60844   8.101   9.313   0.991 -1.4801 -1.9076 -2.3571
  461MOL0     H60845   8.207   9.198   0.928 -0.0699 -0.2853  2.3003
  461MOL0     H60846   8.283   9.477   0.988 -0.9772 -0.2821  0.4543
  461MOL0     H60847   8.399   9.339   0.944 -0.6120 -1.4481 -0.1814
  461MOL0     H60848   8.249   9.252   1.170 -0.9126 -0.1619 -0.7724
  461MOL0     H60849   8.421   9.268   1.140  0.4139  1.1461 -0.9836
  461MOL0     H60850   8.284   9.592   1.400 -0.6985  0.9019 -0.2672
  461MOL0     H60851   7.896   9.393   0.753  4.2199 -0.2715  1.8643
  461MOL0     H60852   7.688   9.447   0.859 -0.0445  0.2915 -1.3030
  462MOL0     O60853   6.645   2.907   1.591  0.2247  1.0278 -0.4032
  462MOL0     C60854   6.631   2.818   1.503  1.3055 -0.3079 -0.0916
  462MOL0     O60855   6.722   2.792   1.405  0.0403 -0.5247 -0.1971
  462MOL0     C60856   6.842   2.864   1.391  0.0615  0.5901  0.5455
  462MOL0     C60857   6.850   3.000   1.380  0.0883  0.2882 -0.0120
  462MOL0     C60858   6.968   3.063   1.361  0.1232 -0.4820 -0.4131
  462MOL0     C60859   7.086   2.989   1.365 -0.3813 -0.0125  0.0997
  462MOL0     O60860   7.208   3.034   1.348  0.0760 -0.4422  0.3023
  462MOL0     C60861   7.242   3.178   1.331  0.2275  0.2533  1.3624
  462MOL0     C60862   7.252   3.236   1.474  0.3703  1.5392  0.3444
  462MOL0     C60863   7.382   3.204   1.541 -0.6291 -0.1282 -0.3403
  462MOL0     C60864   7.379   3.269   1.673 -0.0310  0.5812  0.3539
  462MOL0     C60865   7.516   3.261   1.742 -0.8427 -0.9483  0.6633
  462MOL0     C60866   7.522   3.283   1.898  0.2888 -0.4494 -0.2257
  462MOL0     C60867   7.529   3.434   1.952  0.4053 -0.3498  0.0960
  462MOL0     C60868   7.525   3.433   2.103 -1.2242  0.6593 -0.2460
  462MOL0     N60869   7.389   3.398   2.157  0.9688 -0.3003  0.6383
  462MOL0     C60870   7.299   3.472   2.227 -0.0548 -0.5041 -0.2250
  462MOL0     C60871   7.226   3.380   2.288  0.1588  0.3073 -0.4425
  462MOL0     C60872   7.137   3.403   2.408  0.3918  0.2803 -0.6946
  462MOL0     C60873   7.014   3.481   2.362 -0.1684  0.2025 -0.3965
  462MOL0     C60874   6.884   3.412   2.394  1.3403  0.4279 -0.6779
  462MOL0     C60875   6.756   3.489   2.357 -0.3981 -0.5872  0.7188
  462MOL0     O60876   6.748   3.620   2.412 -0.8356  0.1894  0.3622
  462MOL0     C60877   6.659   3.707   2.358  0.7905 -0.3697  0.1483
  462MOL0     C60878   6.681   3.845   2.375  0.5197 -0.1846  0.2651
  462MOL0     C60879   6.595   3.948   2.324  0.4081 -0.0734 -0.2535
  462MOL0     C60880   6.474   3.910   2.265  0.2594  1.1924  0.5603
  462MOL0     C60881   6.384   4.014   2.210 -0.4272 -0.1112 -0.2028
  462MOL0     O60882   6.263   3.971   2.156  0.4226 -0.0461 -0.5303
  462MOL0     C60883   6.181   4.069   2.101  0.5801  0.4946  0.1825
  462MOL0     C60884   6.150   4.054   1.965  0.2956  0.7009  0.3050
  462MOL0     C60885   6.069   4.157   1.911 -0.4229 -1.2230  0.0653
  462MOL0     C60886   6.002   4.253   1.979 -0.4898 -0.6314  0.2107
  462MOL0     O60887   5.921   4.353   1.926 -0.3220  0.9713  0.3076
  462MOL0     C60888   5.841   4.328   1.802  0.5360  0.1268 -0.5209
  462MOL0     C60889   5.929   4.347   1.672 -0.2038  0.1751  0.3027
  462MOL0     C60890   5.850   4.371   1.547 -0.5466  0.0825  1.0084
  462MOL0     C60891   5.742   4.258   1.522 -0.0695 -0.7077  0.2895
  462MOL0     C60892   5.719   4.252   1.373  0.2519 -0.0207  0.1383
  462MOL0     C60893   5.576   4.220   1.333 -0.4605 -0.9825 -0.2722
  462MOL0     C60894   5.541   4.074   1.315 -0.0620  0.1486 -0.0712
  462MOL0     C60895   5.467   4.030   1.439 -0.0659 -0.3113 -0.0309
  462MOL0    Cl60896   5.391   3.875   1.422  0.1538 -0.2183  0.0969
  462MOL0     C60897   6.017   4.249   2.120 -0.2281 -0.4766 -0.1170
  462MOL0     C60898   6.113   4.167   2.177  0.5514 -0.1949 -0.1929
  462MOL0     O60899   6.421   4.135   2.225 -0.4922  0.1588 -0.3058
  462MOL0     C60900   6.447   3.770   2.248  0.2507  0.1714 -0.6016
  462MOL0     C60901   6.534   3.670   2.294 -0.2363 -0.5315 -0.0764
  462MOL0     N60902   7.260   3.252   2.254  0.3465 -0.7357  0.5373
  462MOL0     N60903   7.361   3.268   2.175  0.6590  0.9051 -0.0861
  462MOL0     C60904   7.070   2.850   1.358 -0.1193 -0.6949 -0.0184
  462MOL0     C60905   6.951   2.788   1.379 -0.0614  0.1013 -0.0952
  462MOL0     C60906   6.499   2.751   1.502 -0.6537  0.2859  0.4404
  462MOL0     C60907   6.390   2.785   1.583  0.8855  0.3140  0.1822
  462MOL0     C60908   6.268   2.708   1.583 -0.6590 -0.0426 -0.1364
  462MOL0     C60909   6.245   2.601   1.492 -0.1376 -0.2046  0.5611
  462MOL0     O60910   6.129   2.530   1.479  0.0182  0.5749 -0.1612
  462MOL0     C60911   6.009   2.582   1.549 -0.1596 -0.3358 -0.6745
  462MOL0     C60912   5.885   2.489   1.523  0.2401 -0.8582  0.8071
  462MOL0     C60913   5.752   2.562   1.515 -0.2313  0.0396  0.1168
  462MOL0     C60914   5.725   2.661   1.410  0.6495 -0.4750  0.1315
  462MOL0     C60915   5.585   2.706   1.428 -0.1293 -0.3079 -0.3327
  462MOL0     C60916   5.479   2.752   1.443 -0.0512 -0.3545 -0.2681
  462MOL0     C60917   6.364   2.566   1.421  0.8957  0.2613 -0.0868
  462MOL0     C60918   6.479   2.642   1.415  0.1485 -0.3249 -0.5319
  462MOL0     H60919   6.754   3.049   1.372 -0.7569 -1.1455  0.9245
  462MOL0     H60920   6.973   3.171   1.350  1.9948 -0.5119 -0.0836
  462MOL0     H60921   7.166   3.233   1.275  0.6705  1.0215  1.5025
  462MOL0     H60922   7.330   3.195   1.268  0.6531 -0.0736  1.8624
  462MOL0     H60923   7.164   3.196   1.525  1.1776 -2.8370 -1.2737
  462MOL0     H60924   7.240   3.345   1.469 -1.2335  1.4123  0.8238
  462MOL0     H60925   7.467   3.239   1.481 -0.6859 -1.7042 -1.3895
  462MOL0     H60926   7.393   3.096   1.552  0.8462  0.2067  2.7776
  462MOL0     H60927   7.359   3.374   1.651 -0.5185 -0.1312 -3.1613
  462MOL0     H60928   7.309   3.213   1.736 -0.7078 -0.6993 -1.4328
  462MOL0     H60929   7.580   3.333   1.689 -2.2665 -0.2179 -0.1374
  462MOL0     H60930   7.558   3.163   1.720 -3.1997 -1.6902 -0.9287
  462MOL0     H60931   7.615   3.244   1.940  0.9731 -1.5201 -2.5534
  462MOL0     H60932   7.432   3.240   1.942 -0.5262  3.5953  2.6388
  462MOL0     H60933   7.624   3.478   1.923 -0.3619  2.1766  1.1192
  462MOL0     H60934   7.449   3.500   1.919  0.5170 -0.4480 -0.3725
  462MOL0     H60935   7.561   3.530   2.141  3.6725 -0.7177 -0.6938
  462MOL0     H60936   7.599   3.358   2.134 -0.5256  0.6017 -1.9650
  462MOL0     H60937   7.311   3.579   2.244  1.4150 -0.5459 -0.8303
  462MOL0     H60938   7.187   3.462   2.485 -2.4440  0.9574  0.7836
  462MOL0     H60939   7.115   3.308   2.457  0.9040  1.0666  1.1755
  462MOL0     H60940   7.022   3.499   2.255 -0.9823  1.4308 -0.2676
  462MOL0     H60941   7.017   3.578   2.413 -0.5856  0.0068  0.0114
  462MOL0     H60942   6.877   3.310   2.357  1.3665 -0.9468  2.7762
  462MOL0     H60943   6.885   3.400   2.503 -0.3183 -0.0874 -0.6972
  462MOL0     H60944   6.678   3.437   2.413  1.7553 -0.5582  3.9926
  462MOL0     H60945   6.743   3.489   2.248 -0.1592  0.6509  0.6712
  462MOL0     H60946   6.774   3.865   2.427 -0.9102  1.4919  2.3107
  462MOL0     H60947   6.639   4.047   2.321 -0.5845  0.3645 -1.1388
  462MOL0     H60948   6.196   3.977   1.905 -2.6207 -0.9336  0.0075
  462MOL0     H60949   6.050   4.151   1.804  1.6444  0.1293 -0.4357
  462MOL0     H60950   5.758   4.398   1.808 -0.6809 -1.3816  1.3172
  462MOL0     H60951   5.796   4.229   1.792  2.1311 -0.7049  0.0408
  462MOL0     H60952   5.998   4.264   1.656 -1.7493 -0.7673 -2.0253
  462MOL0     H60953   5.993   4.434   1.686 -0.9808  0.3377  3.6881
  462MOL0     H60954   5.914   4.379   1.459  0.5053 -1.6708  1.5461
  462MOL0     H60955   5.793   4.464   1.548  1.4925  1.4045 -0.5018
  462MOL0     H60956   5.770   4.161   1.563  2.8748  0.2672  0.8495
  462MOL0     H60957   5.645   4.278   1.569 -1.2398 -0.3734 -2.1200
  462MOL0     H60958   5.800   4.185   1.341  1.7866  1.2702  1.1734
  462MOL0     H60959   5.733   4.345   1.317 -0.4016 -0.3707 -0.6302
  462MOL0     H60960   5.559   4.260   1.233 -3.1950 -1.2187  0.0316
  462MOL0     H60961   5.506   4.275   1.397  0.0318  1.7666 -1.9166
  462MOL0     H60962   5.472   4.065   1.231 -0.5699  0.1318  0.3449
  462MOL0     H60963   5.626   4.005   1.304 -1.2816 -1.7909  1.7776
  462MOL0     H60964   5.387   4.103   1.451  2.5852  3.0122 -0.8781
  462MOL0     H60965   5.535   4.044   1.525 -2.1565 -0.6386  1.7532
  462MOL0     H60966   5.967   4.316   2.189  2.6100  3.1033 -1.2281
  462MOL0     H60967   6.123   4.165   2.285  0.7549 -2.3963 -0.1995
  462MOL0     H60968   6.355   3.738   2.201 -0.2253 -1.7154  1.4520
  462MOL0     H60969   6.507   3.565   2.296  0.4007 -0.6905  1.7182
  462MOL0     H60970   7.153   2.781   1.350 -0.2049 -1.0207  1.6899
  462MOL0     H60971   6.962   2.680   1.377  0.4791  0.1652 -1.1023
  462MOL0     H60972   6.396   2.870   1.650  1.2993 -0.3012  0.9466
  462MOL0     H60973   6.183   2.726   1.649 -2.5132 -0.6060 -2.2540
  462MOL0     H60974   5.989   2.679   1.503  1.7429 -0.5990 -2.1542
  462MOL0     H60975   6.027   2.602   1.655  3.0376  0.3847 -1.2454
  462MOL0     H60976   5.899   2.452   1.421 -1.1833 -2.0061  0.9902
  462MOL0     H60977   5.872   2.409   1.596 -2.6717 -2.3877 -1.1698
  462MOL0     H60978   5.720   2.617   1.603 -1.2633 -0.1239 -0.1468
  462MOL0     H60979   5.682   2.480   1.498 -0.8091  0.6443 -0.4490
  462MOL0     H60980   5.805   2.736   1.412  0.1854  0.0243 -0.0507
  462MOL0     H60981   5.732   2.613   1.312  0.3534  0.9760 -0.6251
  462MOL0     H60982   5.382   2.798   1.444  0.9941  1.9570 -0.6586
  462MOL0     H60983   6.360   2.474   1.365 -0.4008 -1.7539  3.0170
  462MOL0     H60984   6.559   2.602   1.354  2.6517  0.6594  1.9004
  463MOL0     O60985  10.393   4.806   1.180 -0.2900 -0.5473  0.0102
  463MOL0     C60986  10.439   4.727   1.092  0.6204 -0.1126 -0.2983
  463MOL0     O60987  10.369   4.613   1.053 -0.5166 -0.2692  0.0613
  463MOL0     C60988  10.260   4.583   1.127 -0.0178  0.2119  0.7816
  463MOL0     C60989  10.267   4.508   1.238 -0.3684  0.9491  0.4395
  463MOL0     C60990  10.162   4.484   1.330  0.1972  0.5723  0.4715
  463MOL0     C60991  10.039   4.547   1.304  0.2782 -0.8591  0.3960
  463MOL0     O60992   9.930   4.530   1.389 -0.9249  0.0967  0.1197
  463MOL0     C60993   9.809   4.604   1.350 -0.3424  0.8721 -0.2697
  463MOL0     C60994   9.701   4.603   1.461 -1.0065 -0.1206  0.3303
  463MOL0     C60995   9.566   4.525   1.427  0.3289 -1.0661 -0.0057
  463MOL0     C60996   9.485   4.517   1.564  0.1034 -0.0566  0.5413
  463MOL0     C60997   9.351   4.435   1.559  0.1274 -0.3215  0.0026
  463MOL0     C60998   9.262   4.487   1.439  0.4728 -0.0354 -0.9139
  463MOL0     C60999   9.115   4.436   1.442  0.4026  0.0777 -0.0111
  463MOL0     C61000   9.034   4.437   1.582 -0.5791  0.6142 -0.1005
  463MOL0     N61001   8.892   4.474   1.554  0.6217 -0.2768 -0.5560
  463MOL0     C61002   8.821   4.430   1.446 -0.2428  0.1633 -0.1992
  463MOL0     C61003   8.699   4.502   1.456 -0.8514  0.8460 -0.0319
  463MOL0     C61004   8.603   4.493   1.348  0.2350  0.0147 -0.0119
  463MOL0     C61005   8.468   4.442   1.399 -0.8896 -0.5985  0.1153
  463MOL0     C61006   8.378   4.394   1.291  0.3107  0.5308 -0.1304
  463MOL0     C61007   8.354   4.493   1.182 -0.0212 -1.5918 -0.5032
  463MOL0     O61008   8.271   4.458   1.084 -0.1984  0.6894 -0.1248
  463MOL0     C61009   8.152   4.422   1.124  0.1079  0.4525 -0.2787
  463MOL0     C61010   8.109   4.291   1.092 -0.5418  0.1314  0.5757
  463MOL0     C61011   7.976   4.248   1.133 -0.6845  0.2320  0.8298
  463MOL0     C61012   7.894   4.336   1.208 -0.5420  1.2323 -0.4200
  463MOL0     C61013   7.763   4.291   1.267 -0.4878  0.9843  0.3474
  463MOL0     O61014   7.680   4.394   1.293 -0.5997 -0.0725  0.1823
  463MOL0     C61015   7.556   4.367   1.350 -0.4037  0.2095 -0.0605
  463MOL0     C61016   7.536   4.332   1.485  0.2833  0.4445  0.7452
  463MOL0     C61017   7.407   4.321   1.535 -0.7444 -0.0595 -0.1413
  463MOL0     C61018   7.296   4.340   1.460 -0.0339  0.0544  0.0746
  463MOL0     O61019   7.173   4.324   1.523  0.0820  1.3936 -0.4218
  463MOL0     C61020   7.081   4.225   1.463  0.3710 -0.4557 -0.7358
  463MOL0     C61021   6.963   4.292   1.398  0.7332  0.5241  0.1961
  463MOL0     C61022   6.879   4.363   1.504 -0.1393 -0.3545 -0.0491
  463MOL0     C61023   6.785   4.255   1.580 -0.8320 -0.2307 -0.2306
  463MOL0     C61024   6.697   4.312   1.685 -0.1454 -0.8579 -0.4014
  463MOL0     C61025   6.598   4.209   1.730  0.1988  0.6845  0.8342
  463MOL0     C61026   6.527   4.243   1.869 -0.6693  0.1261  0.1621
  463MOL0     C61027   6.451   4.372   1.866 -1.0685 -0.2037  0.8616
  463MOL0    Cl61028   6.291   4.347   1.784  0.1984 -0.1292  0.0992
  463MOL0     C61029   7.317   4.362   1.328  0.2609  0.2430 -0.2777
  463MOL0     C61030   7.442   4.387   1.274 -0.0668 -0.0235 -0.1230
  463MOL0     O61031   7.739   4.175   1.291  0.1671  0.3961  0.2025
  463MOL0     C61032   7.942   4.471   1.227  0.2759 -0.3731  0.3094
  463MOL0     C61033   8.064   4.509   1.192 -0.8492  0.2982 -0.6907
  463MOL0     N61034   8.706   4.582   1.564 -1.3899  0.5022 -1.2248
  463MOL0     N61035   8.821   4.572   1.613 -0.1531 -0.3115 -1.2029
  463MOL0     C61036  10.029   4.612   1.180 -0.4286  0.1085 -0.6611
  463MOL0     C61037  10.136   4.639   1.096 -0.0405 -0.3955 -0.2096
  463MOL0     C61038  10.560   4.778   1.021  0.3509 -0.3319  0.6916
  463MOL0     C61039  10.625   4.894   1.053 -0.1925  0.2853 -0.5501
  463MOL0     C61040  10.739   4.929   0.980 -0.0281 -0.5616  0.1458
  463MOL0     C61041  10.794   4.849   0.879  0.3533  0.5046 -0.3579
  463MOL0     O61042  10.910   4.876   0.815 -0.2096  0.9892  0.1666
  463MOL0     C61043  11.021   4.912   0.896  0.0714  0.2671  0.2493
  463MOL0     C61044  11.147   4.885   0.823  0.1083 -0.0866 -0.4366
  463MOL0     C61045  11.263   4.889   0.920 -1.1692 -0.3631 -0.0864
  463MOL0     C61046  11.386   4.831   0.850  0.5740 -0.0397 -0.4283
  463MOL0     C61047  11.515   4.851   0.926 -0.5349 -0.3032  0.3477
  463MOL0     C61048  11.627   4.860   0.986  0.5642  0.1038 -0.2689
  463MOL0     C61049  10.721   4.739   0.845 -0.8845  0.4090 -0.2231
  463MOL0     C61050  10.610   4.708   0.911  0.0608  0.8086 -0.1111
  463MOL0     H61051  10.363   4.465   1.265  0.4937  2.6562  0.2135
  463MOL0     H61052  10.174   4.430   1.423  2.4592  0.0340 -0.0718
  463MOL0     H61053   9.766   4.564   1.258  0.8788  0.0234 -0.5084
  463MOL0     H61054   9.835   4.709   1.332  1.0531  0.5327 -0.3430
  463MOL0     H61055   9.672   4.704   1.491 -0.9123  1.1449 -3.2445
  463MOL0     H61056   9.743   4.550   1.546  0.5731 -2.7413 -1.8990
  463MOL0     H61057   9.590   4.425   1.389 -1.1779 -0.8741 -1.6157
  463MOL0     H61058   9.512   4.586   1.354 -1.4016 -1.0884  1.1862
  463MOL0     H61059   9.555   4.468   1.632  1.0002  0.9466  0.3633
  463MOL0     H61060   9.458   4.612   1.612  0.7633  0.9822 -1.0511
  463MOL0     H61061   9.294   4.454   1.650  0.3203 -1.2808  0.3332
  463MOL0     H61062   9.366   4.327   1.551 -2.8270 -0.8484  0.6942
  463MOL0     H61063   9.305   4.450   1.345 -1.7996 -2.0290 -1.2748
  463MOL0     H61064   9.261   4.596   1.438  0.2665  0.1463  3.0421
  463MOL0     H61065   9.061   4.501   1.372 -0.7810 -0.7686  0.0704
  463MOL0     H61066   9.102   4.337   1.397  0.5774  0.3725 -0.7106
  463MOL0     H61067   9.075   4.499   1.662 -0.3300 -0.5281  0.6931
  463MOL0     H61068   9.022   4.337   1.625 -0.9000  0.8382  0.3455
  463MOL0     H61069   8.849   4.354   1.374  1.9933 -0.1979  0.9582
  463MOL0     H61070   8.646   4.426   1.274 -0.5465  0.8802 -1.2902
  463MOL0     H61071   8.590   4.591   1.300  1.6018  0.3292  0.1919
  463MOL0     H61072   8.421   4.505   1.475 -1.1858  1.6517 -1.7879
  463MOL0     H61073   8.495   4.350   1.451 -0.8999  0.2038  1.5840
  463MOL0     H61074   8.414   4.310   1.232 -2.3936 -0.8696  0.0735
  463MOL0     H61075   8.287   4.364   1.344  0.9084 -1.0755  0.0429
  463MOL0     H61076   8.451   4.519   1.137 -0.4502  0.5254 -0.2933
  463MOL0     H61077   8.321   4.584   1.233  2.6218 -1.3219  0.9036
  463MOL0     H61078   8.172   4.216   1.046 -0.1837 -0.3852  1.8545
  463MOL0     H61079   7.940   4.148   1.108 -2.6751  1.1651 -0.2780
  463MOL0     H61080   7.613   4.314   1.559 -1.0323 -1.4768  1.7457
  463MOL0     H61081   7.392   4.308   1.642 -0.4837  0.0855 -0.0846
  463MOL0     H61082   7.045   4.152   1.536 -0.4248 -0.5090 -1.1740
  463MOL0     H61083   7.140   4.175   1.387  2.5979  1.8347 -0.6509
  463MOL0     H61084   6.904   4.220   1.342  0.6041  1.8166 -1.3980
  463MOL0     H61085   6.996   4.372   1.332 -0.6596  2.6531  1.9417
  463MOL0     H61086   6.816   4.440   1.458  0.9953  0.3506 -0.4413
  463MOL0     H61087   6.942   4.416   1.576  0.3016 -2.1516  0.9408
  463MOL0     H61088   6.725   4.204   1.504  0.3709  0.2034 -1.5009
  463MOL0     H61089   6.843   4.174   1.625 -4.1375 -3.2238 -0.9061
  463MOL0     H61090   6.655   4.400   1.636 -0.9889 -0.5309  0.8591
  463MOL0     H61091   6.758   4.347   1.769 -1.6553 -0.7634  0.6990
  463MOL0     H61092   6.653   4.115   1.736 -1.0970 -0.3197 -1.6422
  463MOL0     H61093   6.515   4.197   1.659  0.4246  3.1963  0.0701
  463MOL0     H61094   6.468   4.158   1.905  2.2632 -1.4341  1.5984
  463MOL0     H61095   6.601   4.259   1.948 -0.5414  0.9235 -0.1129
  463MOL0     H61096   6.508   4.451   1.815 -0.2761 -1.1517  0.2465
  463MOL0     H61097   6.428   4.408   1.967 -2.9201  0.5023  0.2425
  463MOL0     H61098   7.222   4.372   1.275  0.0129 -1.0042 -0.0990
  463MOL0     H61099   7.457   4.423   1.172 -2.8634 -2.2948 -1.4644
  463MOL0     H61100   7.894   4.547   1.287  2.6491 -0.7195  2.8396
  463MOL0     H61101   8.098   4.609   1.218 -0.3120  0.2022 -1.0075
  463MOL0     H61102   9.937   4.654   1.141 -1.5159  0.4033  1.9994
  463MOL0     H61103  10.126   4.704   1.010  1.9489  1.7587  1.0607
  463MOL0     H61104  10.588   4.970   1.122 -3.1113  0.8829 -2.5712
  463MOL0     H61105  10.769   5.031   1.005 -2.6996  0.1706  0.6435
  463MOL0     H61106  11.015   4.853   0.988 -1.0935  0.1434  0.1177
  463MOL0     H61107  11.013   5.016   0.928  0.9058  0.3637  0.1417
  463MOL0     H61108  11.135   4.784   0.781  0.0779 -1.4431  2.5259
  463MOL0     H61109  11.158   4.961   0.745  1.4448  1.3693  1.0901
  463MOL0     H61110  11.232   4.840   1.012 -0.6987 -2.6711 -1.0927
  463MOL0     H61111  11.286   4.992   0.949 -0.8737 -0.9968  2.1460
  463MOL0     H61112  11.376   4.722   0.848 -1.7037  0.1437 -2.3138
  463MOL0     H61113  11.406   4.870   0.750  3.3074 -2.4161 -0.9647
  463MOL0     H61114  11.727   4.870   1.026  0.1859 -0.8484  0.9984
  463MOL0     H61115  10.755   4.688   0.755 -1.5004 -1.7308  0.6794
  463MOL0     H61116  10.554   4.620   0.881 -0.3989  0.5827  1.3274
  464MOL0     O61117  11.001   3.079   6.810 -0.4245  0.9377  0.7170
  464MOL0     C61118  11.042   3.195   6.786  1.0167 -1.4068 -0.8832
  464MOL0     O61119  10.955   3.308   6.785 -0.2583 -0.1932  0.3635
  464MOL0     C61120  10.831   3.295   6.840  0.0788 -1.1315 -0.5549
  464MOL0     C61121  10.804   3.238   6.967  0.0059  0.7073 -0.5541
  464MOL0     C61122  10.680   3.238   7.022  0.9719 -0.3518  0.0356
  464MOL0     C61123  10.572   3.305   6.955  0.7043  0.0807 -0.4517
  464MOL0     O61124  10.452   3.284   7.023  0.0354  0.1514  0.3636
  464MOL0     C61125  10.331   3.306   6.947  0.4402 -0.4184 -0.0879
  464MOL0     C61126  10.204   3.273   7.036 -0.2538  0.3412  0.1452
  464MOL0     C61127  10.068   3.276   6.955  0.0702 -0.6105 -0.3836
  464MOL0     C61128   9.951   3.309   7.061  0.8595 -0.1393  0.9533
  464MOL0     C61129   9.817   3.289   6.992  0.1837 -0.6662 -0.1427
  464MOL0     C61130   9.782   3.405   6.907 -0.2040  0.3629 -0.0312
  464MOL0     C61131   9.648   3.395   6.846  0.4479  0.4547 -0.0644
  464MOL0     C61132   9.622   3.274   6.766  0.7314  0.4124 -0.4015
  464MOL0     N61133   9.528   3.302   6.650  0.3311 -0.3959 -0.5046
  464MOL0     C61134   9.559   3.325   6.518  0.4976 -0.1533 -0.5492
  464MOL0     C61135   9.438   3.339   6.467  0.0513 -0.7302 -0.6870
  464MOL0     C61136   9.424   3.366   6.321  0.6509 -0.4237 -1.0245
  464MOL0     C61137   9.328   3.275   6.239  0.5179 -0.2953  0.0503
  464MOL0     C61138   9.180   3.263   6.279  0.1366 -0.1399  0.6806
  464MOL0     C61139   9.122   3.401   6.254  0.3017  0.5613 -0.4489
  464MOL0     O61140   8.976   3.388   6.242  0.0654  0.0678 -0.5639
  464MOL0     C61141   8.897   3.505   6.238  0.5347  0.8421  0.4531
  464MOL0     C61142   8.935   3.643   6.263  0.2946  0.0247  0.2164
  464MOL0     C61143   8.849   3.747   6.258 -0.6203 -0.1108  0.2474
  464MOL0     C61144   8.723   3.727   6.219  1.1242  0.2746 -0.3469
  464MOL0     C61145   8.624   3.837   6.228 -0.6633  0.0552  0.0368
  464MOL0     O61146   8.495   3.803   6.219  0.4136  0.3733  0.0640
  464MOL0     C61147   8.410   3.909   6.229  0.7337  0.4573 -0.0413
  464MOL0     C61148   8.410   4.029   6.150 -0.5704  0.5152 -1.1154
  464MOL0     C61149   8.308   4.116   6.182  0.5021 -0.5165  0.8192
  464MOL0     C61150   8.213   4.097   6.281  0.0780 -0.0534  0.6378
  464MOL0     O61151   8.107   4.187   6.308  0.7089 -0.0187 -0.4285
  464MOL0     C61152   8.079   4.290   6.212 -1.0075 -1.0169  0.2593
  464MOL0     C61153   7.955   4.250   6.138 -0.5581  0.2226  0.1680
  464MOL0     C61154   7.832   4.280   6.227  0.5350  0.2117  0.0855
  464MOL0     C61155   7.710   4.216   6.151 -0.0846 -0.7672 -0.6741
  464MOL0     C61156   7.580   4.270   6.188  0.3475  0.9304  0.2192
  464MOL0     C61157   7.472   4.220   6.086 -0.1684 -0.7088 -0.2443
  464MOL0     C61158   7.334   4.246   6.143  0.1231  0.2276 -0.0830
  464MOL0     C61159   7.277   4.118   6.210  0.8075  0.6168 -0.3930
  464MOL0    Cl61160   7.133   4.157   6.309 -0.4709  0.1476  0.2725
  464MOL0     C61161   8.226   3.984   6.359  0.7292 -0.5651 -0.6298
  464MOL0     C61162   8.315   3.883   6.319  0.1087 -0.9390  0.2281
  464MOL0     O61163   8.670   3.950   6.246 -0.3180 -0.1913 -0.2008
  464MOL0     C61164   8.688   3.604   6.180  0.2532  0.2582  0.3786
  464MOL0     C61165   8.769   3.487   6.185 -0.2684 -0.8165 -1.2532
  464MOL0     N61166   9.338   3.336   6.561  0.1392  0.2915 -0.8387
  464MOL0     N61167   9.398   3.322   6.679  0.3181 -0.5864 -0.0730
  464MOL0     C61168  10.598   3.362   6.828  0.2210 -0.0521  0.6844
  464MOL0     C61169  10.725   3.367   6.774  0.1647 -0.1795 -0.3856
  464MOL0     C61170  11.178   3.225   6.740  0.4815 -0.0420 -0.3944
  464MOL0     C61171  11.226   3.358   6.695 -0.5516 -0.3601 -0.0431
  464MOL0     C61172  11.350   3.369   6.638  0.1403 -1.0926  0.8724
  464MOL0     C61173  11.438   3.261   6.622  0.0670  0.4220 -0.1516
  464MOL0     O61174  11.560   3.259   6.557  0.6864 -0.3281 -0.1390
  464MOL0     C61175  11.630   3.384   6.563  0.7498 -0.2229  1.1019
  464MOL0     C61176  11.769   3.354   6.514  0.9382  0.5534 -0.1110
  464MOL0     C61177  11.861   3.478   6.503  0.1802 -0.4986 -1.4091
  464MOL0     C61178  12.003   3.456   6.532  0.2451  0.5461  0.4842
  464MOL0     C61179  12.049   3.349   6.451  0.2729 -0.0900 -0.5196
  464MOL0     C61180  12.100   3.252   6.394  0.1909  0.5662  0.1398
  464MOL0     C61181  11.394   3.142   6.680 -1.3050  0.9666 -0.9536
  464MOL0     C61182  11.269   3.119   6.738 -0.1024  0.7886 -0.0043
  464MOL0     H61183  10.890   3.198   7.021 -0.7359 -0.7820 -0.4265
  464MOL0     H61184  10.650   3.180   7.108 -0.9148  1.2602  0.5197
  464MOL0     H61185  10.334   3.248   6.854  0.3985  0.4617 -0.6472
  464MOL0     H61186  10.322   3.412   6.924  1.4579  0.0810  1.6560
  464MOL0     H61187  10.203   3.346   7.118 -0.7687  1.6500 -0.9939
  464MOL0     H61188  10.209   3.178   7.091 -0.7739  1.2871  1.9182
  464MOL0     H61189  10.051   3.182   6.900  2.0498  1.1844 -4.5393
  464MOL0     H61190  10.071   3.350   6.875  0.4328 -0.4059 -0.1837
  464MOL0     H61191   9.956   3.236   7.143 -0.3538  0.8626  1.9421
  464MOL0     H61192   9.962   3.412   7.095 -2.0732  1.0676 -1.2662
  464MOL0     H61193   9.749   3.282   7.077  2.8105 -0.4685  2.0807
  464MOL0     H61194   9.818   3.196   6.935  2.3340 -1.6386  1.3674
  464MOL0     H61195   9.850   3.421   6.823 -0.3426  2.2258  0.1762
  464MOL0     H61196   9.768   3.493   6.970 -1.2638  0.2594 -0.1068
  464MOL0     H61197   9.579   3.399   6.932  1.1983 -2.5585  0.7990
  464MOL0     H61198   9.635   3.479   6.777 -0.9530 -0.4004 -0.8999
  464MOL0     H61199   9.587   3.198   6.837  0.3659  0.9800  0.0364
  464MOL0     H61200   9.715   3.233   6.725 -1.0749 -1.4125 -3.0327
  464MOL0     H61201   9.654   3.337   6.467  0.9972 -0.8736  0.1984
  464MOL0     H61202   9.522   3.363   6.273  1.9209  0.3641  1.3642
  464MOL0     H61203   9.395   3.471   6.323 -1.9135 -0.9877  2.1940
  464MOL0     H61204   9.366   3.172   6.239 -1.4760 -1.1250  2.0219
  464MOL0     H61205   9.337   3.297   6.132 -0.6171 -1.4571 -0.3118
  464MOL0     H61206   9.131   3.187   6.219  1.3714 -0.3578 -0.0909
  464MOL0     H61207   9.171   3.243   6.386 -0.0395 -1.2876  0.4643
  464MOL0     H61208   9.171   3.439   6.164  1.7341  1.0698  0.5199
  464MOL0     H61209   9.143   3.468   6.337 -0.7851 -0.7884  0.9849
  464MOL0     H61210   9.034   3.655   6.306  1.2760  2.2765 -2.3871
  464MOL0     H61211   8.872   3.843   6.302  0.2169  0.3093 -1.0692
  464MOL0     H61212   8.485   4.067   6.081  0.8037 -0.1957 -0.0578
  464MOL0     H61213   8.327   4.203   6.119  2.2561 -0.5356  1.2851
  464MOL0     H61214   8.160   4.325   6.148 -2.0586 -0.2246 -0.7015
  464MOL0     H61215   8.071   4.388   6.259  2.0037 -0.9225  0.7717
  464MOL0     H61216   7.975   4.144   6.118 -1.7652 -0.0044  0.0940
  464MOL0     H61217   7.953   4.304   6.043 -0.7757  1.0737  0.6521
  464MOL0     H61218   7.822   4.389   6.230  3.3140  0.5162  1.9247
  464MOL0     H61219   7.834   4.242   6.329 -1.8711 -0.8743 -0.1958
  464MOL0     H61220   7.725   4.244   6.046  0.7755  0.1993 -0.3183
  464MOL0     H61221   7.705   4.107   6.159 -1.4561 -0.5882  2.1300
  464MOL0     H61222   7.577   4.379   6.185 -4.0666  1.0514  1.4317
  464MOL0     H61223   7.561   4.237   6.290  1.9703  1.2042  0.6339
  464MOL0     H61224   7.492   4.114   6.067 -1.0228 -0.9367  0.0923
  464MOL0     H61225   7.482   4.273   5.990  0.1358  2.4722  1.4019
  464MOL0     H61226   7.331   4.328   6.214 -2.9897  2.1063 -2.1392
  464MOL0     H61227   7.261   4.271   6.065 -0.4399  3.9254  1.4437
  464MOL0     H61228   7.352   4.078   6.279  0.1018  1.3103  0.8033
  464MOL0     H61229   7.269   4.040   6.133 -0.4724  1.1863 -0.8715
  464MOL0     H61230   8.151   3.953   6.431 -2.7732 -3.1426 -4.8741
  464MOL0     H61231   8.330   3.801   6.390  0.6155 -0.5121  0.6260
  464MOL0     H61232   8.583   3.597   6.156 -1.1009  1.4366  4.9655
  464MOL0     H61233   8.730   3.394   6.144 -2.8296 -0.0917 -0.6247
  464MOL0     H61234  10.523   3.403   6.761 -2.2810 -0.3883  3.0922
  464MOL0     H61235  10.742   3.427   6.685 -3.6450 -0.9376 -1.7987
  464MOL0     H61236  11.150   3.436   6.697 -1.8731 -1.4455 -2.7317
  464MOL0     H61237  11.379   3.468   6.602 -0.3384 -1.2430  0.0566
  464MOL0     H61238  11.629   3.426   6.664 -1.9399  0.4734  0.8399
  464MOL0     H61239  11.579   3.451   6.494  1.4105  0.2625  1.0722
  464MOL0     H61240  11.824   3.280   6.572  2.9409  1.6058 -0.5842
  464MOL0     H61241  11.767   3.307   6.415  1.0987  2.5735 -1.1231
  464MOL0     H61242  11.825   3.546   6.580 -0.1750 -2.9648  0.7381
  464MOL0     H61243  11.842   3.528   6.408 -0.2854  0.3660 -0.8697
  464MOL0     H61244  12.053   3.551   6.513 -0.1019  1.0361  1.8748
  464MOL0     H61245  12.036   3.428   6.633  2.3619 -1.4621 -0.6812
  464MOL0     H61246  12.153   3.187   6.326 -1.2196  1.4741 -1.9074
  464MOL0     H61247  11.463   3.058   6.680 -1.6306  0.6950 -0.4277
  464MOL0     H61248  11.234   3.025   6.778  0.9211  0.0447 -0.8045
  465MOL0     O61249   1.976   1.185   7.595  0.1408 -0.1159  0.3723
  465MOL0     C61250   2.053   1.178   7.688  0.1072  0.1393 -0.0425
  465MOL0     O61251   2.187   1.207   7.691  0.0935  0.3135 -0.4975
  465MOL0     C61252   2.274   1.238   7.590 -0.1207  0.3971  0.1950
  465MOL0     C61253   2.397   1.289   7.622 -0.9470 -0.0443 -1.2095
  465MOL0     C61254   2.489   1.328   7.525  0.6808 -0.8843 -0.1878
  465MOL0     C61255   2.458   1.310   7.390 -0.2335  0.2988  0.4639
  465MOL0     O61256   2.541   1.351   7.285 -0.0443  0.6425 -0.1293
  465MOL0     C61257   2.683   1.369   7.300 -0.2590 -0.6932  0.7452
  465MOL0     C61258   2.742   1.451   7.183  0.5330  0.3390  0.4683
  465MOL0     C61259   2.896   1.452   7.194 -0.2152  0.0616  0.0544
  465MOL0     C61260   2.975   1.368   7.091  0.0154  0.1098  0.0259
  465MOL0     C61261   3.133   1.372   7.094  0.4172 -0.1425  0.1273
  465MOL0     C61262   3.187   1.508   7.053 -0.0943  0.0260 -0.0107
  465MOL0     C61263   3.340   1.513   7.068 -0.6012  0.0994 -0.1192
  465MOL0     C61264   3.383   1.516   7.214  0.4060  0.3345  0.4043
  465MOL0     N61265   3.394   1.659   7.268 -0.5048  0.2104  0.7236
  465MOL0     C61266   3.310   1.715   7.364  0.1743 -0.1785  0.3008
  465MOL0     C61267   3.369   1.831   7.397 -0.1020  0.0849 -0.5875
  465MOL0     C61268   3.322   1.939   7.492  0.2433  0.9674 -0.0522
  465MOL0     C61269   3.171   1.934   7.529 -0.4346  0.2784  0.5084
  465MOL0     C61270   3.144   2.037   7.634 -0.3182 -0.6269 -0.6463
  465MOL0     C61271   3.034   2.008   7.735 -0.3839  0.0763  0.0432
  465MOL0     O61272   2.907   2.026   7.673  0.0207 -0.0193 -0.0132
  465MOL0     C61273   2.791   2.039   7.741 -0.5199 -0.1029  0.6052
  465MOL0     C61274   2.784   2.055   7.882  0.0280 -0.3273 -0.1434
  465MOL0     C61275   2.658   2.079   7.933  0.1703 -0.8885 -0.0716
  465MOL0     C61276   2.542   2.091   7.852 -0.1348 -0.5203  0.4564
  465MOL0     C61277   2.408   2.090   7.905 -0.2272 -0.3354 -1.1878
  465MOL0     O61278   2.302   2.102   7.823  0.4146 -0.0312  0.1392
  465MOL0     C61279   2.179   2.099   7.878  0.0992  0.4078 -0.5551
  465MOL0     C61280   2.094   2.208   7.871 -0.2563 -0.3973  0.2541
  465MOL0     C61281   1.955   2.198   7.899  0.0646  0.8913 -0.9433
  465MOL0     C61282   1.904   2.068   7.937  0.8851 -0.3161 -1.3674
  465MOL0     O61283   1.784   2.048   7.987 -0.1230 -0.8583 -0.2591
  465MOL0     C61284   1.729   1.920   7.987  0.4928 -0.1421 -0.1754
  465MOL0     C61285   1.578   1.951   7.994  0.5878  0.9806 -1.1866
  465MOL0     C61286   1.505   1.816   8.002  0.1879 -0.4198  0.5118
  465MOL0     C61287   1.357   1.841   7.962 -0.4154  0.5815 -0.3849
  465MOL0     C61288   1.267   1.725   8.004  0.8879  0.5743  0.7787
  465MOL0     C61289   1.126   1.758   7.960  0.1910  1.4557  0.5016
  465MOL0     C61290   1.029   1.638   7.960  0.3055 -0.1850  0.3884
  465MOL0     C61291   0.889   1.683   7.914  0.6826  0.5229  0.1500
  465MOL0    Cl61292   0.781   1.587   8.020 -0.1897 -0.0019 -0.2075
  465MOL0     C61293   1.996   1.955   7.945  0.0570 -1.4924  0.1067
  465MOL0     C61294   2.129   1.977   7.919 -0.1918  0.2099 -0.3375
  465MOL0     O61295   2.401   2.070   8.026 -0.7468 -0.7404  0.0329
  465MOL0     C61296   2.550   2.062   7.717  0.0985  1.0967  0.2253
  465MOL0     C61297   2.677   2.034   7.662 -0.2225 -0.4896  0.4063
  465MOL0     N61298   3.498   1.836   7.336 -0.0039  0.6653 -0.8849
  465MOL0     N61299   3.506   1.738   7.255 -0.0015 -0.6113  0.4309
  465MOL0     C61300   2.333   1.261   7.354  0.7034 -0.3494 -0.0108
  465MOL0     C61301   2.240   1.232   7.457  0.3136 -0.1375 -0.3215
  465MOL0     C61302   1.993   1.140   7.816  0.5667 -0.0784 -0.4813
  465MOL0     C61303   1.855   1.114   7.829  0.6668 -0.2127  0.5373
  465MOL0     C61304   1.803   1.073   7.947 -0.1048 -0.3473 -0.5153
  465MOL0     C61305   1.872   1.057   8.058 -0.4859 -0.2659 -0.1323
  465MOL0     O61306   1.807   1.000   8.160  0.6251  0.4549 -0.2402
  465MOL0     C61307   1.871   0.971   8.282  0.2723  0.0514 -0.6973
  465MOL0     C61308   1.762   0.946   8.393  0.9379 -0.1296  0.4489
  465MOL0     C61309   1.658   1.057   8.427 -0.6319  0.2531 -0.4118
  465MOL0     C61310   1.562   1.086   8.313 -0.4318  0.4390  0.5493
  465MOL0     C61311   1.491   0.959   8.271 -0.0212  0.1968 -0.6181
  465MOL0     C61312   1.438   0.852   8.263 -0.7939  0.1276  0.3555
  465MOL0     C61313   2.007   1.105   8.062  0.4773 -0.8569  0.3901
  465MOL0     C61314   2.067   1.144   7.939  0.6276  0.6053  0.8939
  465MOL0     H61315   2.415   1.308   7.727  1.5840  1.8330 -1.8928
  465MOL0     H61316   2.586   1.361   7.562  2.0127 -3.9524 -0.5540
  465MOL0     H61317   2.731   1.272   7.319  1.3845 -0.1188 -0.2140
  465MOL0     H61318   2.705   1.424   7.392  1.9005 -0.6288  0.2404
  465MOL0     H61319   2.701   1.553   7.181 -1.8199 -0.5254 -2.6437
  465MOL0     H61320   2.728   1.393   7.092  2.4872 -0.7427  0.7848
  465MOL0     H61321   2.940   1.431   7.291 -0.4222  0.8066  0.3169
  465MOL0     H61322   2.930   1.552   7.166  2.6643 -0.9609 -0.3948
  465MOL0     H61323   2.953   1.261   7.090  0.6486 -0.0460 -1.3585
  465MOL0     H61324   2.946   1.409   6.994 -0.5723 -0.3100  0.0164
  465MOL0     H61325   3.174   1.287   7.038 -1.9351 -2.6641  1.9716
  465MOL0     H61326   3.163   1.352   7.197 -1.4149  1.0936  0.9609
  465MOL0     H61327   3.140   1.582   7.117  1.2948  0.8569  0.0961
  465MOL0     H61328   3.169   1.530   6.947 -2.8902 -0.2260  0.3343
  465MOL0     H61329   3.380   1.427   7.012 -0.3048 -0.7449  1.3311
  465MOL0     H61330   3.384   1.606   7.030  0.2856 -0.4086 -0.3657
  465MOL0     H61331   3.484   1.473   7.213  0.5004  0.5529  0.2167
  465MOL0     H61332   3.322   1.454   7.279  0.1780 -0.0792 -0.1991
  465MOL0     H61333   3.206   1.691   7.381  0.0915 -0.9045 -1.0570
  465MOL0     H61334   3.336   2.034   7.439 -0.1059 -0.2877 -2.5218
  465MOL0     H61335   3.380   1.940   7.585 -1.7637  1.1986  1.2451
  465MOL0     H61336   3.159   1.832   7.569  1.2479  0.4863  1.6304
  465MOL0     H61337   3.102   1.949   7.445 -1.7358  2.7228  1.9123
  465MOL0     H61338   3.231   2.062   7.696 -1.6503  2.4490  0.1795
  465MOL0     H61339   3.113   2.130   7.585 -0.9209  0.2133  1.2386
  465MOL0     H61340   3.038   2.081   7.816  0.1902 -0.1457  0.2221
  465MOL0     H61341   3.047   1.905   7.770 -1.6291 -0.5972 -1.3699
  465MOL0     H61342   2.873   2.067   7.943 -0.9747  0.4651  1.2295
  465MOL0     H61343   2.651   2.081   8.042 -0.9574  1.4922 -0.1386
  465MOL0     H61344   2.133   2.302   7.834  2.5459 -2.4194 -2.5548
  465MOL0     H61345   1.890   2.285   7.907 -1.3721 -0.1853 -0.6128
  465MOL0     H61346   1.762   1.866   8.077 -3.0961 -0.5535  1.0533
  465MOL0     H61347   1.748   1.858   7.899 -0.6429 -2.9407  1.4179
  465MOL0     H61348   1.546   2.019   7.914 -0.1205  0.2011 -1.5659
  465MOL0     H61349   1.560   2.006   8.087 -3.9104  0.4451 -1.5333
  465MOL0     H61350   1.517   1.785   8.106  0.4746  0.9585  0.9187
  465MOL0     H61351   1.552   1.741   7.938  1.1305  1.2951 -0.9064
  465MOL0     H61352   1.329   1.940   7.999 -2.6419  0.3333 -1.2738
  465MOL0     H61353   1.359   1.845   7.853 -1.5748  2.4299 -0.3876
  465MOL0     H61354   1.261   1.690   8.107 -2.5366 -3.0177 -0.3755
  465MOL0     H61355   1.311   1.648   7.940  2.6881  0.2494  2.3156
  465MOL0     H61356   1.126   1.793   7.856 -0.5412  2.4002  0.8065
  465MOL0     H61357   1.076   1.839   8.014 -0.3607  2.0283 -0.8212
  465MOL0     H61358   1.073   1.567   7.890  2.6556  2.1857 -0.6918
  465MOL0     H61359   1.017   1.593   8.060 -2.7556 -0.5322 -0.0336
  465MOL0     H61360   0.881   1.667   7.807  0.5883  0.3352  0.1847
  465MOL0     H61361   0.885   1.790   7.937 -0.7808  1.2391 -2.9601
  465MOL0     H61362   1.965   1.855   7.971  1.8395 -2.2993 -0.6901
  465MOL0     H61363   2.190   1.887   7.914  1.4923  1.2301  0.9323
  465MOL0     H61364   2.466   2.073   7.650  1.9122  1.5995 -2.0637
  465MOL0     H61365   2.679   2.019   7.554  1.7658 -1.8736  0.5910
  465MOL0     H61366   2.310   1.255   7.248 -4.8899  0.2779  0.8572
  465MOL0     H61367   2.145   1.199   7.417 -0.6027  0.2169  1.4804
  465MOL0     H61368   1.787   1.113   7.744  0.3674 -0.2219  0.7763
  465MOL0     H61369   1.703   1.031   7.947 -0.1643 -0.2100 -0.8386
  465MOL0     H61370   1.932   1.052   8.325 -1.4203 -0.3873  2.8140
  465MOL0     H61371   1.936   0.884   8.267 -0.8910 -0.9791  0.0952
  465MOL0     H61372   1.722   0.846   8.375 -0.5581  0.6000 -0.3969
  465MOL0     H61373   1.815   0.933   8.488  0.6704  0.0248  0.6199
  465MOL0     H61374   1.707   1.149   8.459 -0.7391  0.1984 -0.0809
  465MOL0     H61375   1.597   1.029   8.514 -2.2075  0.7956 -1.2961
  465MOL0     H61376   1.482   1.154   8.345  1.7568  2.4941  2.0244
  465MOL0     H61377   1.611   1.133   8.227 -0.8120 -1.7999 -0.9680
  465MOL0     H61378   1.409   0.749   8.254  4.6617 -1.5944 -1.7284
  465MOL0     H61379   2.061   1.109   8.156 -1.8394  1.2386  1.7560
  465MOL0     H61380   2.169   1.178   7.949  0.7979  0.0252  1.1711
  466MOL0     O61381   2.248   0.512   6.111 -0.0695  0.4015 -1.0416
  466MOL0     C61382   2.192   0.441   6.028 -0.0328  0.0242  0.3036
  466MOL0     O61383   2.244   0.402   5.909 -0.1720 -0.3403  0.3951
  466MOL0     C61384   2.375   0.434   5.864 -0.2733 -0.5351 -0.6825
  466MOL0     C61385   2.417   0.372   5.751 -0.6434 -0.5998 -0.0177
  466MOL0     C61386   2.549   0.381   5.702 -0.0139  1.2305 -0.1117
  466MOL0     C61387   2.642   0.445   5.780 -0.5059  0.1004  0.1340
  466MOL0     O61388   2.768   0.471   5.737 -0.5382  0.1135  0.4219
  466MOL0     C61389   2.808   0.483   5.593  0.7455  0.1089  0.1369
  466MOL0     C61390   2.901   0.602   5.597 -0.1734 -0.3307  0.9586
  466MOL0     C61391   2.812   0.731   5.620  0.3804  0.3585  0.9081
  466MOL0     C61392   2.889   0.858   5.575  0.1684  0.3112 -0.4103
  466MOL0     C61393   2.818   0.985   5.593  0.4160 -0.6265  0.1562
  466MOL0     C61394   2.796   1.014   5.742  0.3873 -0.6471  0.6883
  466MOL0     C61395   2.720   1.157   5.747 -0.2510  0.6459  0.3531
  466MOL0     C61396   2.641   1.159   5.883  0.2449 -0.7025 -0.0951
  466MOL0     N61397   2.502   1.113   5.876 -0.5744 -0.3951  0.2078
  466MOL0     C61398   2.451   1.008   5.796  0.2934  0.2090 -0.3728
  466MOL0     C61399   2.321   1.026   5.805  0.8064  0.4685 -1.1891
  466MOL0     C61400   2.235   0.928   5.755  0.1156  1.1782  0.3457
  466MOL0     C61401   2.150   0.877   5.872 -0.0179 -0.6276  0.0475
  466MOL0     C61402   2.036   0.779   5.832  0.8920 -0.1578 -0.6444
  466MOL0     C61403   1.968   0.752   5.965  0.4343  0.2382  0.6499
  466MOL0     O61404   1.840   0.693   5.952  0.2840 -0.1508  0.3590
  466MOL0     C61405   1.730   0.748   5.905  0.6116 -0.7533 -0.1332
  466MOL0     C61406   1.720   0.885   5.859 -0.8620  0.4727  0.3408
  466MOL0     C61407   1.600   0.934   5.809  0.3820 -0.5979 -0.9254
  466MOL0     C61408   1.482   0.859   5.802 -1.0920 -0.1408 -0.4545
  466MOL0     C61409   1.363   0.922   5.754  0.3908  0.4614  0.2320
  466MOL0     O61410   1.371   1.043   5.687 -0.1970  0.1812 -0.1768
  466MOL0     C61411   1.248   1.082   5.634  0.2394 -1.0095 -1.0202
  466MOL0     C61412   1.199   1.055   5.495  0.0510 -0.1814  0.2335
  466MOL0     C61413   1.086   1.124   5.451 -0.1866  0.6476  0.0107
  466MOL0     C61414   1.012   1.205   5.539  0.0705  0.4160  0.1235
  466MOL0     O61415   0.899   1.271   5.500 -0.3661  0.8383  0.5764
  466MOL0     C61416   0.827   1.234   5.374  1.3758 -0.0300 -0.8672
  466MOL0     C61417   0.691   1.296   5.385 -0.2804 -0.0830  0.0477
  466MOL0     C61418   0.604   1.230   5.500  0.7497 -0.5007 -0.6446
  466MOL0     C61419   0.458   1.291   5.513 -0.1552 -0.4327  1.0666
  466MOL0     C61420   0.363   1.224   5.621  0.5880 -0.1867  0.5734
  466MOL0     C61421   0.216   1.254   5.602  0.0508 -0.7407 -0.1319
  466MOL0     C61422   0.163   1.366   5.688 -0.7730  0.1816  0.0669
  466MOL0     C61423   0.040   1.421   5.625  0.0456 -0.4927  0.8716
  466MOL0    Cl61424  -0.101   1.300   5.593  0.1617 -0.1553  0.5230
  466MOL0     C61425   1.054   1.223   5.669 -0.4803  0.0866 -0.9325
  466MOL0     C61426   1.177   1.170   5.715 -0.0973 -0.9914  0.4826
  466MOL0     O61427   1.260   0.863   5.783  0.2314 -0.3258 -0.3406
  466MOL0     C61428   1.483   0.734   5.871  0.3523  1.0155 -0.0593
  466MOL0     C61429   1.606   0.678   5.911 -0.9182 -0.3922  0.0283
  466MOL0     N61430   2.289   1.131   5.889 -0.3008 -0.2536 -0.2936
  466MOL0     N61431   2.406   1.196   5.926  0.9576  0.8130  0.0846
  466MOL0     C61432   2.609   0.493   5.902  0.5936 -0.1748 -0.1383
  466MOL0     C61433   2.476   0.486   5.947  0.5858  0.4063  0.0507
  466MOL0     C61434   2.053   0.415   6.051 -0.0669 -0.0196  0.8866
  466MOL0     C61435   2.007   0.400   6.181  1.2775 -0.2250  0.1741
  466MOL0     C61436   1.877   0.366   6.208 -0.3255  0.6185 -0.7970
  466MOL0     C61437   1.781   0.359   6.107 -0.3253  0.3002  0.2518
  466MOL0     O61438   1.646   0.333   6.121 -0.7776  0.3700  0.5752
  466MOL0     C61439   1.590   0.309   6.248  0.5263  0.5309  0.3258
  466MOL0     C61440   1.436   0.335   6.245  0.4605  0.2857  0.2604
  466MOL0     C61441   1.402   0.489   6.243 -0.1145 -0.1438  0.1895
  466MOL0     C61442   1.255   0.521   6.205 -0.5377 -0.1545 -0.2948
  466MOL0     C61443   1.155   0.476   6.313 -0.3464  0.1045  0.2779
  466MOL0     C61444   1.074   0.423   6.384  0.9198 -0.4060 -0.2120
  466MOL0     C61445   1.823   0.374   5.972 -0.4120  0.4492 -0.0300
  466MOL0     C61446   1.962   0.394   5.948  0.2669 -0.6531 -0.2087
  466MOL0     H61447   2.348   0.330   5.678 -2.3893 -2.9159  2.7375
  466MOL0     H61448   2.586   0.329   5.614  2.3103 -1.0977  2.0561
  466MOL0     H61449   2.718   0.512   5.538  0.9610  2.6543  0.9928
  466MOL0     H61450   2.860   0.398   5.549 -0.7358  0.1146 -1.7524
  466MOL0     H61451   2.956   0.608   5.503 -1.8207 -4.6412 -0.5273
  466MOL0     H61452   2.973   0.584   5.677  1.4518  0.5118 -0.2455
  466MOL0     H61453   2.773   0.733   5.722 -1.3076  1.8768  0.2857
  466MOL0     H61454   2.731   0.716   5.549  0.7829 -2.7970  0.9799
  466MOL0     H61455   2.981   0.859   5.635  1.5543  0.7875 -2.4591
  466MOL0     H61456   2.906   0.845   5.468 -0.6990 -1.6184 -0.3562
  466MOL0     H61457   2.720   0.976   5.545  0.2111 -0.3844  0.5263
  466MOL0     H61458   2.882   1.062   5.550 -0.6243 -0.7280 -1.6918
  466MOL0     H61459   2.891   1.025   5.794  1.0614  0.6652 -0.7537
  466MOL0     H61460   2.741   0.930   5.787  4.5898 -2.0642  3.8144
  466MOL0     H61461   2.790   1.241   5.745  1.5753 -0.7520  1.6889
  466MOL0     H61462   2.651   1.165   5.663 -1.7232 -0.4052  1.4126
  466MOL0     H61463   2.638   1.265   5.912 -0.9847 -0.5552 -0.6684
  466MOL0     H61464   2.694   1.104   5.960 -0.5555 -2.8523 -1.0138
  466MOL0     H61465   2.501   0.926   5.746 -0.2826 -2.1273  2.5976
  466MOL0     H61466   2.291   0.845   5.710  0.0555 -0.1164  2.4992
  466MOL0     H61467   2.174   0.979   5.680 -1.5239 -0.5108  0.4441
  466MOL0     H61468   2.116   0.959   5.936  2.4122  0.2636  0.2723
  466MOL0     H61469   2.219   0.828   5.941 -0.6405 -1.6069  0.0070
  466MOL0     H61470   1.977   0.827   5.754  1.5024  1.2922 -0.2602
  466MOL0     H61471   2.061   0.680   5.794 -1.8263 -0.5256 -1.6561
  466MOL0     H61472   1.966   0.848   6.019 -0.3728  0.3280  0.4698
  466MOL0     H61473   2.034   0.683   6.018  1.9273 -0.7658 -2.3421
  466MOL0     H61474   1.814   0.939   5.856  0.7626 -1.9441  2.4722
  466MOL0     H61475   1.601   1.039   5.780  1.8637  0.0050  1.0174
  466MOL0     H61476   1.263   1.001   5.426  1.5746  1.8135 -0.0106
  466MOL0     H61477   1.074   1.108   5.345  1.2178 -0.0969 -0.0620
  466MOL0     H61478   0.821   1.126   5.365  1.8772 -0.1066 -0.2869
  466MOL0     H61479   0.879   1.278   5.288  2.7053  0.3584  0.1033
  466MOL0     H61480   0.641   1.282   5.289 -1.4384  0.1328  0.5902
  466MOL0     H61481   0.698   1.402   5.411  0.5995 -0.4423  1.3777
  466MOL0     H61482   0.655   1.247   5.596 -1.1385 -1.6613  0.6379
  466MOL0     H61483   0.600   1.123   5.480  0.3884 -0.3112 -1.6138
  466MOL0     H61484   0.467   1.398   5.535  3.7595 -0.0130 -1.6197
  466MOL0     H61485   0.404   1.283   5.419  0.3168  3.1485  0.3612
  466MOL0     H61486   0.396   1.261   5.719  0.4605  2.8098 -0.4306
  466MOL0     H61487   0.374   1.115   5.619 -0.1013 -0.3887  3.3123
  466MOL0     H61488   0.161   1.162   5.625  1.0061 -0.6727  2.7633
  466MOL0     H61489   0.196   1.279   5.497  0.0170 -0.2820 -0.0173
  466MOL0     H61490   0.135   1.328   5.787 -3.1685  1.2791 -0.1073
  466MOL0     H61491   0.240   1.443   5.693 -2.1304  1.5272  1.2645
  466MOL0     H61492   0.063   1.468   5.529  0.2702  2.5489  2.2928
  466MOL0     H61493  -0.002   1.505   5.682  1.9451  2.3956 -1.6803
  466MOL0     H61494   1.011   1.299   5.734 -2.0722  1.4328 -3.4138
  466MOL0     H61495   1.222   1.198   5.810 -2.6829  2.1627  0.9438
  466MOL0     H61496   1.397   0.668   5.879  1.0035 -0.0548 -1.4430
  466MOL0     H61497   1.609   0.581   5.960 -1.6888 -0.1359  0.5921
  466MOL0     H61498   2.678   0.539   5.972 -0.9034  3.5345 -0.8631
  466MOL0     H61499   2.455   0.506   6.051 -2.1293 -1.8738  0.0443
  466MOL0     H61500   2.086   0.407   6.256  2.0676 -0.7600 -0.5920
  466MOL0     H61501   1.866   0.339   6.313 -2.4347  0.8007 -0.9236
  466MOL0     H61502   1.631   0.373   6.327  0.9511 -0.3515  0.8415
  466MOL0     H61503   1.602   0.204   6.277 -2.3100  0.2690  0.8651
  466MOL0     H61504   1.379   0.286   6.166  0.0039  0.1567  0.6686
  466MOL0     H61505   1.397   0.293   6.338 -0.1606  1.3385  0.4994
  466MOL0     H61506   1.466   0.529   6.164 -0.1351 -0.8137 -0.1744
  466MOL0     H61507   1.433   0.526   6.341 -3.0074 -0.0194  1.1371
  466MOL0     H61508   1.257   0.630   6.215  1.2032 -0.3872  4.6967
  466MOL0     H61509   1.229   0.484   6.105 -0.2141 -1.7951  0.2006
  466MOL0     H61510   1.001   0.379   6.448 -0.6057  2.1447 -0.0303
  466MOL0     H61511   1.757   0.353   5.889  1.4422 -2.3040 -0.9406
  466MOL0     H61512   1.999   0.406   5.847 -0.0545 -3.2943 -0.7047
  467MOL0     O61513  10.844   3.984   2.608 -0.8775 -0.5226 -0.3581
  467MOL0     C61514  10.795   3.895   2.679 -1.0562  1.1947  0.6496
  467MOL0     O61515  10.859   3.778   2.729 -0.6394 -0.4973 -0.3550
  467MOL0     C61516  10.989   3.750   2.719  0.0818 -0.3487  1.1090
  467MOL0     C61517  11.093   3.850   2.714  0.6744  0.2335 -0.3918
  467MOL0     C61518  11.229   3.822   2.690 -0.4281  0.5404  0.9650
  467MOL0     C61519  11.267   3.687   2.685  0.3543  0.0805 -0.0333
  467MOL0     O61520  11.400   3.664   2.656  0.1809  0.3822 -0.8202
  467MOL0     C61521  11.428   3.588   2.541  0.0980  0.3472  0.7825
  467MOL0     C61522  11.568   3.524   2.553  0.6948  0.5017  0.4523
  467MOL0     C61523  11.605   3.472   2.411  0.1720 -0.2299  0.2421
  467MOL0     C61524  11.745   3.398   2.417 -0.2179 -0.3324  0.1726
  467MOL0     C61525  11.710   3.251   2.429  0.0680 -0.0659 -0.1944
  467MOL0     C61526  11.836   3.168   2.462 -0.2880  0.5115  0.1574
  467MOL0     C61527  11.803   3.015   2.451 -0.1610  0.7236  0.6284
  467MOL0     C61528  11.759   2.957   2.591  0.0015  1.2157 -0.2925
  467MOL0     N61529  11.626   2.998   2.639 -0.1145  0.1015  0.1994
  467MOL0     C61530  11.506   2.931   2.618 -1.5663  0.2037  0.1552
  467MOL0     C61531  11.418   3.012   2.689 -0.7135  0.6758 -0.0003
  467MOL0     C61532  11.273   2.985   2.709 -0.5378  0.4638 -0.0797
  467MOL0     C61533  11.192   3.048   2.590 -0.3691  1.2581  0.0966
  467MOL0     C61534  11.089   3.152   2.619 -0.3058 -0.5249 -0.0758
  467MOL0     C61535  11.017   3.187   2.484  0.2852 -0.2500 -0.8500
  467MOL0     O61536  10.944   3.304   2.485  0.0055 -0.1166 -0.0998
  467MOL0     C61537  10.821   3.308   2.531 -0.1823 -0.4443 -0.0142
  467MOL0     C61538  10.759   3.208   2.611  0.8813 -0.5458  0.6462
  467MOL0     C61539  10.625   3.213   2.650  0.8774  0.0087  0.0926
  467MOL0     C61540  10.541   3.324   2.614 -0.4835 -0.6290 -0.3234
  467MOL0     C61541  10.406   3.341   2.661  0.0288  0.3992 -0.0335
  467MOL0     O61542  10.334   3.435   2.594  0.1337 -0.6021 -0.3024
  467MOL0     C61543  10.207   3.464   2.636 -0.4017 -0.1124 -0.1974
  467MOL0     C61544  10.101   3.430   2.550  0.1607 -1.0811 -0.2547
  467MOL0     C61545   9.965   3.441   2.588 -0.4531 -0.0020 -0.0979
  467MOL0     C61546   9.937   3.487   2.716 -0.1505 -0.5547  0.3486
  467MOL0     O61547   9.812   3.499   2.764 -0.0586 -0.3597 -0.0001
  467MOL0     C61548   9.751   3.633   2.731 -0.1922  0.1652  0.3831
  467MOL0     C61549   9.653   3.665   2.833  0.0235  0.7860 -0.6856
  467MOL0     C61550   9.604   3.805   2.810  0.9341 -0.4761 -0.1381
  467MOL0     C61551   9.485   3.850   2.908 -0.2652  0.4635  0.4473
  467MOL0     C61552   9.416   3.975   2.857  0.1999  0.5202  0.1263
  467MOL0     C61553   9.451   4.105   2.929  0.4554 -0.4429 -0.0924
  467MOL0     C61554   9.401   4.238   2.872  0.2801  0.2765  0.0638
  467MOL0     C61555   9.254   4.260   2.834  0.3875 -0.2432 -0.2780
  467MOL0    Cl61556   9.208   4.172   2.685 -0.0004  0.2695 -0.2022
  467MOL0     C61557  10.050   3.527   2.794  0.3484  0.2839 -0.0599
  467MOL0     C61558  10.183   3.503   2.759 -0.2163  0.6673 -0.5790
  467MOL0     O61559  10.369   3.274   2.761 -0.1079  0.1031 -0.3379
  467MOL0     C61560  10.599   3.420   2.527  0.2669  0.1161  0.2573
  467MOL0     C61561  10.730   3.409   2.491 -0.6708 -0.5038 -1.3691
  467MOL0     N61562  11.488   3.109   2.756  0.2634  0.2585 -0.6363
  467MOL0     N61563  11.616   3.099   2.729  0.3730 -0.2358  0.1012
  467MOL0     C61564  11.163   3.584   2.700 -0.1777 -0.1121  0.0964
  467MOL0     C61565  11.031   3.617   2.709 -0.0474 -0.4578  0.3146
  467MOL0     C61566  10.649   3.896   2.695 -0.4069  0.7583  0.0055
  467MOL0     C61567  10.582   4.010   2.697  0.3668 -0.1832  0.3648
  467MOL0     C61568  10.444   4.016   2.721  0.3628 -0.3540  0.5937
  467MOL0     C61569  10.369   3.897   2.742 -0.1239 -0.6514 -0.2946
  467MOL0     O61570  10.229   3.891   2.745 -0.2220 -0.0256 -0.1683
  467MOL0     C61571  10.160   4.016   2.771  0.3381 -0.2344 -0.3985
  467MOL0     C61572  10.018   3.986   2.801  0.2763 -0.2296  0.2786
  467MOL0     C61573   9.934   4.117   2.827  0.0990  0.4950  0.0112
  467MOL0     C61574   9.966   4.169   2.964 -0.0505 -0.3363  0.9655
  467MOL0     C61575   9.847   4.249   3.010 -0.2871  0.0581  0.0772
  467MOL0     C61576   9.741   4.300   3.049  0.5799 -0.9777 -0.2911
  467MOL0     C61577  10.437   3.777   2.733  0.0982  0.2704 -1.0001
  467MOL0     C61578  10.580   3.778   2.725  0.5396  0.9786 -0.2717
  467MOL0     H61579  11.064   3.953   2.697  1.1153  0.7877  1.8621
  467MOL0     H61580  11.305   3.899   2.683 -0.0808  0.0625 -1.7690
  467MOL0     H61581  11.420   3.653   2.453  2.5448  1.0411  0.9930
  467MOL0     H61582  11.353   3.513   2.515  2.3778 -0.3967 -5.4535
  467MOL0     H61583  11.555   3.440   2.621  0.0880  0.0264 -0.2327
  467MOL0     H61584  11.649   3.589   2.587 -0.3998  1.7624  0.7247
  467MOL0     H61585  11.641   3.560   2.358  1.8998 -0.1680  1.4358
  467MOL0     H61586  11.530   3.410   2.361 -2.1400 -0.7044  3.9255
  467MOL0     H61587  11.799   3.397   2.322  0.5051  3.8746  0.3251
  467MOL0     H61588  11.795   3.451   2.499 -2.8567  1.7641  0.5889
  467MOL0     H61589  11.674   3.221   2.330 -0.9533  2.2852 -0.5947
  467MOL0     H61590  11.628   3.244   2.501  0.8418 -0.3982  0.6869
  467MOL0     H61591  11.874   3.194   2.561 -0.6093  0.4797  0.2868
  467MOL0     H61592  11.917   3.198   2.394  0.4630  0.7867  1.1476
  467MOL0     H61593  11.718   3.002   2.383 -1.0525 -1.0108  1.9682
  467MOL0     H61594  11.886   2.954   2.414 -0.7569 -1.1732  2.2266
  467MOL0     H61595  11.833   2.992   2.664 -0.6953  2.6223 -0.2255
  467MOL0     H61596  11.765   2.849   2.580  0.3339  0.8587  2.5080
  467MOL0     H61597  11.496   2.855   2.541  0.6862  0.6717 -0.6941
  467MOL0     H61598  11.241   3.028   2.805  0.9419 -0.5393  0.9122
  467MOL0     H61599  11.255   2.878   2.715 -2.0284  0.7435  1.2798
  467MOL0     H61600  11.143   2.965   2.538 -0.7714 -0.6401  3.2558
  467MOL0     H61601  11.266   3.094   2.525  0.3056 -2.4410 -2.0346
  467MOL0     H61602  11.013   3.113   2.687 -3.0466  0.7541 -2.1829
  467MOL0     H61603  11.126   3.243   2.666 -1.6982 -0.4385  0.8873
  467MOL0     H61604  10.951   3.103   2.459 -2.7902  1.5298  0.6997
  467MOL0     H61605  11.096   3.202   2.410  1.0522 -1.5882 -0.3401
  467MOL0     H61606  10.822   3.129   2.651  3.8036  1.3252  0.0502
  467MOL0     H61607  10.585   3.128   2.705 -0.8987  0.4065 -0.5441
  467MOL0     H61608  10.118   3.397   2.448 -3.2874  1.1087 -1.7174
  467MOL0     H61609   9.889   3.413   2.515  4.3716 -3.4578 -4.5750
  467MOL0     H61610   9.725   3.629   2.625  1.1955 -0.5672  0.0484
  467MOL0     H61611   9.824   3.715   2.735  0.1652 -0.1336  0.0524
  467MOL0     H61612   9.691   3.664   2.936  0.9353  0.1195 -1.0139
  467MOL0     H61613   9.564   3.603   2.824  1.8078 -1.8222 -1.4323
  467MOL0     H61614   9.555   3.797   2.713 -0.6785  0.1848  0.5796
  467MOL0     H61615   9.682   3.880   2.794 -0.3239  0.5449 -1.8392
  467MOL0     H61616   9.403   3.778   2.920 -1.7534  2.4674  3.0975
  467MOL0     H61617   9.518   3.870   3.010 -3.5868  0.2923  1.6909
  467MOL0     H61618   9.309   3.962   2.878  0.1077 -1.0698 -1.1597
  467MOL0     H61619   9.432   3.974   2.749  1.6914 -3.9219  0.1688
  467MOL0     H61620   9.559   4.114   2.935  0.3217  0.6321  1.0773
  467MOL0     H61621   9.418   4.094   3.033  1.2328  0.1451  0.2202
  467MOL0     H61622   9.438   4.310   2.946 -1.0412 -0.8146  1.8930
  467MOL0     H61623   9.454   4.258   2.779 -0.8514 -1.0134 -0.9043
  467MOL0     H61624   9.241   4.366   2.811 -0.0282 -0.3610 -0.6058
  467MOL0     H61625   9.188   4.234   2.917  0.4219 -1.8650 -0.7196
  467MOL0     H61626  10.018   3.563   2.891  0.0576  0.1909 -0.1210
  467MOL0     H61627  10.265   3.529   2.826 -0.8406  1.9873 -0.2811
  467MOL0     H61628  10.545   3.506   2.488  4.3969  2.5921 -0.5409
  467MOL0     H61629  10.775   3.486   2.429 -2.1093  1.0782 -0.5025
  467MOL0     H61630  11.188   3.479   2.711 -0.8019 -0.5088 -1.8429
  467MOL0     H61631  10.952   3.543   2.723 -0.7545 -0.1300 -1.6504
  467MOL0     H61632  10.633   4.106   2.703  0.7384 -0.4100  0.9358
  467MOL0     H61633  10.380   4.103   2.720  3.0238  1.7683 -0.8075
  467MOL0     H61634  10.170   4.071   2.677  2.7099 -0.1575 -0.1446
  467MOL0     H61635  10.212   4.076   2.846  0.2978  0.4942 -0.9461
  467MOL0     H61636   9.968   3.930   2.721  1.7729 -0.8523 -0.2589
  467MOL0     H61637  10.018   3.925   2.892 -3.1557 -1.6713 -0.5168
  467MOL0     H61638   9.829   4.088   2.823 -0.1275  1.4227 -1.2856
  467MOL0     H61639   9.946   4.189   2.745  0.0365  1.1586  0.5740
  467MOL0     H61640   9.997   4.095   3.038  0.3336 -4.7876 -3.1472
  467MOL0     H61641  10.051   4.238   2.961 -1.9368  2.2725 -3.8148
  467MOL0     H61642   9.654   4.353   3.081 -0.6801 -1.4696 -2.7211
  467MOL0     H61643  10.382   3.683   2.735  0.8244 -0.1582  1.0681
  467MOL0     H61644  10.637   3.685   2.722  0.0261  0.6802 -2.8712
  468MOL0     O61645   9.748   3.014   7.610  0.0852 -0.4134 -0.1857
  468MOL0     C61646   9.857   3.003   7.552 -0.1243 -1.0761 -0.3800
  468MOL0     O61647   9.866   2.965   7.422  0.0613 -0.1265 -0.4016
  468MOL0     C61648   9.754   2.943   7.343  0.5919  1.3964  0.2330
  468MOL0     C61649   9.672   2.835   7.374  0.2770 -0.0391 -0.0193
  468MOL0     C61650   9.569   2.806   7.297  0.0275 -0.7724  0.7183
  468MOL0     C61651   9.554   2.866   7.168  0.0278  0.4590  0.1008
  468MOL0     O61652   9.439   2.826   7.094  0.2075  0.5821  0.7091
  468MOL0     C61653   9.445   2.810   6.955  0.4000 -0.5720 -1.1385
  468MOL0     C61654   9.323   2.734   6.908 -0.0699  0.2308  0.3609
  468MOL0     C61655   9.202   2.825   6.909  0.3402 -0.3633 -0.9252
  468MOL0     C61656   9.074   2.754   6.851 -0.2938  0.1235  0.4417
  468MOL0     C61657   8.938   2.819   6.883  1.0040  0.1596  0.2545
  468MOL0     C61658   8.814   2.723   6.861 -1.0183 -0.8898 -0.1332
  468MOL0     C61659   8.691   2.811   6.836  0.0068 -0.6477 -0.5783
  468MOL0     C61660   8.571   2.781   6.930  0.4448 -0.1215 -1.2880
  468MOL0     N61661   8.467   2.864   6.884  0.1341 -0.4843  0.0773
  468MOL0     C61662   8.448   2.999   6.891 -0.0664 -0.1707 -0.5360
  468MOL0     C61663   8.314   3.028   6.875 -0.3139 -0.3236 -0.1337
  468MOL0     C61664   8.255   3.162   6.881  0.5187  0.8575 -0.5832
  468MOL0     C61665   8.281   3.243   6.749  0.4776 -0.3319 -0.1491
  468MOL0     C61666   8.203   3.214   6.625  0.0534 -0.5093 -0.6342
  468MOL0     C61667   8.068   3.279   6.623  0.9503 -0.2241 -0.1256
  468MOL0     O61668   7.986   3.229   6.726 -0.2237 -0.4780  0.2728
  468MOL0     C61669   7.866   3.279   6.745 -0.0714  0.5008  0.1837
  468MOL0     C61670   7.803   3.240   6.855  0.1803  0.0099  0.1814
  468MOL0     C61671   7.676   3.267   6.881  0.1883  0.1520  0.2545
  468MOL0     C61672   7.601   3.346   6.787 -0.9490 -0.4646  0.4279
  468MOL0     C61673   7.460   3.384   6.810 -0.4272 -0.9069  0.7237
  468MOL0     O61674   7.421   3.493   6.735  0.2147  0.8061  0.3814
  468MOL0     C61675   7.290   3.544   6.738 -0.2051 -0.1827 -0.5630
  468MOL0     C61676   7.244   3.606   6.623  0.2164  0.1586  0.1467
  468MOL0     C61677   7.120   3.660   6.618  1.5179 -0.5909 -0.0456
  468MOL0     C61678   7.040   3.668   6.734  0.4753  0.2238 -0.0002
  468MOL0     O61679   6.932   3.745   6.727  0.3043  0.3725 -0.4726
  468MOL0     C61680   6.879   3.802   6.849 -0.8132  0.0809 -0.5501
  468MOL0     C61681   6.759   3.882   6.793  0.1390 -0.0152 -0.9108
  468MOL0     C61682   6.658   3.926   6.906  0.4300 -0.4809 -0.0274
  468MOL0     C61683   6.578   3.804   6.949 -0.1821 -0.4006  0.4524
  468MOL0     C61684   6.452   3.843   7.023  0.4070 -0.2395 -0.2384
  468MOL0     C61685   6.391   3.720   7.089 -0.6534  0.0628  0.4005
  468MOL0     C61686   6.248   3.750   7.140 -0.3709  0.5018 -1.0782
  468MOL0     C61687   6.146   3.654   7.110  0.1884 -0.0234  0.9419
  468MOL0    Cl61688   6.121   3.623   6.927 -0.0944  0.2434 -0.4002
  468MOL0     C61689   7.077   3.595   6.842  0.1988  0.4899  0.0397
  468MOL0     C61690   7.208   3.540   6.852  0.3777 -0.2151 -0.0814
  468MOL0     O61691   7.413   3.343   6.915 -0.2379 -0.2183 -0.2593
  468MOL0     C61692   7.661   3.380   6.663  0.5435  0.9564 -0.4439
  468MOL0     C61693   7.795   3.348   6.646  0.3652  0.0698  0.3303
  468MOL0     N61694   8.257   2.912   6.836 -0.2808  0.0247  1.1082
  468MOL0     N61695   8.347   2.815   6.841 -0.0117 -0.2172 -0.0223
  468MOL0     C61696   9.638   2.973   7.130  0.6622  1.1752  0.2211
  468MOL0     C61697   9.738   3.006   7.224  0.1316 -0.6624  0.3388
  468MOL0     C61698   9.985   3.033   7.637 -0.1914  0.1434  0.5193
  468MOL0     C61699  10.106   3.024   7.577 -0.0467  0.0723 -0.6215
  468MOL0     C61700  10.221   3.039   7.660  0.1716  0.0780 -0.1192
  468MOL0     C61701  10.219   3.055   7.796  0.3228  0.1985 -0.3170
  468MOL0     O61702  10.326   3.063   7.875  0.3425  0.0401 -0.3876
  468MOL0     C61703  10.369   3.198   7.902 -0.3931  0.1081 -0.7180
  468MOL0     C61704  10.351   3.222   8.052  0.0092 -0.0103 -0.2917
  468MOL0     C61705  10.420   3.121   8.142  0.1808  0.6816  0.3812
  468MOL0     C61706  10.423   3.164   8.285 -1.1922 -0.0920 -1.0246
  468MOL0     C61707  10.343   3.089   8.384  0.4011 -0.8333  1.1584
  468MOL0     C61708  10.269   3.045   8.470 -0.4407 -0.2613  0.0656
  468MOL0     C61709  10.098   3.060   7.852 -0.6029 -0.2364 -0.4198
  468MOL0     C61710   9.975   3.059   7.782  0.1311 -0.5084  0.3204
  468MOL0     H61711   9.679   2.788   7.472 -2.0961  0.0775  0.2535
  468MOL0     H61712   9.492   2.732   7.314 -1.0417 -1.4024 -4.8330
  468MOL0     H61713   9.530   2.742   6.946  0.6187 -0.4560 -0.1329
  468MOL0     H61714   9.464   2.902   6.899 -0.1695  0.0648 -0.3078
  468MOL0     H61715   9.314   2.643   6.968  1.3218 -0.4603 -0.4327
  468MOL0     H61716   9.333   2.709   6.802 -3.2560  1.6814 -0.4205
  468MOL0     H61717   9.209   2.918   6.852 -2.6500  0.3142 -0.3630
  468MOL0     H61718   9.181   2.850   7.013 -3.0696  2.6707 -2.1148
  468MOL0     H61719   9.091   2.743   6.743  2.6778 -0.3865  0.8590
  468MOL0     H61720   9.070   2.651   6.889 -0.3533 -0.9180 -2.1475
  468MOL0     H61721   8.928   2.905   6.816 -1.3867 -1.0265 -1.0193
  468MOL0     H61722   8.942   2.858   6.985 -0.1228 -0.4480  0.5470
  468MOL0     H61723   8.804   2.665   6.954  2.4332 -2.4999 -0.5869
  468MOL0     H61724   8.828   2.647   6.783  0.4390  0.0931 -0.8790
  468MOL0     H61725   8.721   2.916   6.832 -1.2107 -0.0507  2.8458
  468MOL0     H61726   8.648   2.801   6.736 -0.1881  1.2201 -0.7192
  468MOL0     H61727   8.593   2.793   7.036  2.6808 -0.1103 -1.6904
  468MOL0     H61728   8.544   2.676   6.916  0.8266 -0.4854  0.4595
  468MOL0     H61729   8.513   3.078   6.928  0.2240  0.1482 -1.6889
  468MOL0     H61730   8.299   3.216   6.966  0.0871 -0.8723  0.8152
  468MOL0     H61731   8.149   3.157   6.908  0.3342  1.2817 -1.2212
  468MOL0     H61732   8.385   3.240   6.714 -0.0874 -1.6663 -1.7936
  468MOL0     H61733   8.264   3.347   6.780  0.7018 -1.0124  2.5019
  468MOL0     H61734   8.250   3.258   6.537 -2.5034 -0.9934 -2.3347
  468MOL0     H61735   8.207   3.105   6.618  0.7319 -0.4361 -1.4974
  468MOL0     H61736   8.015   3.252   6.531 -0.3675  0.4331  0.4135
  468MOL0     H61737   8.083   3.387   6.615  0.4542 -0.1384  0.0779
  468MOL0     H61738   7.858   3.180   6.927  1.7275 -0.3537 -1.2358
  468MOL0     H61739   7.639   3.226   6.974  3.4233  0.4255  1.7782
  468MOL0     H61740   7.306   3.617   6.535  3.2715  4.0951  2.4682
  468MOL0     H61741   7.072   3.717   6.539 -5.2980  2.5304  5.2776
  468MOL0     H61742   6.961   3.849   6.904 -1.1494 -1.1458  1.0982
  468MOL0     H61743   6.838   3.719   6.907 -2.9936  1.6919  0.3578
  468MOL0     H61744   6.704   3.830   6.715 -0.4921 -0.4072 -0.2191
  468MOL0     H61745   6.797   3.976   6.752  0.8766  0.5419  0.9343
  468MOL0     H61746   6.598   4.006   6.861  2.3688  0.3313 -1.2613
  468MOL0     H61747   6.704   3.962   6.999 -0.6640 -1.6616  1.0118
  468MOL0     H61748   6.552   3.744   6.861 -2.3240 -0.9064  1.3748
  468MOL0     H61749   6.641   3.746   7.017 -1.8920 -0.8979  1.6776
  468MOL0     H61750   6.381   3.876   6.947  2.0198 -0.0856 -1.7591
  468MOL0     H61751   6.474   3.926   7.090 -1.9924  0.1033  0.1878
  468MOL0     H61752   6.466   3.701   7.166  2.6150  2.2642 -1.9266
  468MOL0     H61753   6.398   3.635   7.019 -1.4740 -1.0068  1.5693
  468MOL0     H61754   6.253   3.760   7.249  2.7365  0.8137 -1.1702
  468MOL0     H61755   6.217   3.847   7.100 -0.2219  1.1553  0.3224
  468MOL0     H61756   6.049   3.689   7.146 -0.2667 -0.2643 -0.0394
  468MOL0     H61757   6.174   3.559   7.155 -1.0274 -0.5085  0.7182
  468MOL0     H61758   7.016   3.593   6.932 -3.6309 -0.0506 -2.3330
  468MOL0     H61759   7.242   3.480   6.936  1.0198  0.5007  0.1829
  468MOL0     H61760   7.604   3.423   6.582  2.1417  3.0227 -0.5375
  468MOL0     H61761   7.836   3.378   6.550 -0.2217 -1.8387 -0.5901
  468MOL0     H61762   9.628   3.021   7.033  0.4636 -4.1227 -2.7784
  468MOL0     H61763   9.806   3.089   7.208 -0.6497  0.5292  2.7482
  468MOL0     H61764  10.114   3.005   7.470  1.1635 -0.7706 -0.3973
  468MOL0     H61765  10.317   3.037   7.609 -0.3993  0.6141 -1.2537
  468MOL0     H61766  10.317   3.273   7.841 -0.8976 -0.5040 -1.0571
  468MOL0     H61767  10.474   3.211   7.878 -1.0304  2.0055 -2.8289
  468MOL0     H61768  10.380   3.322   8.085  0.6677 -0.8225  1.7597
  468MOL0     H61769  10.245   3.222   8.078  0.0363  1.5921 -0.1135
  468MOL0     H61770  10.518   3.101   8.097  0.0860 -0.5659  0.6927
  468MOL0     H61771  10.359   3.031   8.133 -1.3121  1.5713  1.2218
  468MOL0     H61772  10.525   3.161   8.324 -1.9352  1.1196  1.1898
  468MOL0     H61773  10.388   3.267   8.290 -2.9595 -0.6888  0.0292
  468MOL0     H61774  10.193   3.008   8.536 -0.6622 -0.6726 -0.4069
  468MOL0     H61775  10.103   3.082   7.958  2.6104 -3.3556  0.2355
  468MOL0     H61776   9.877   3.084   7.820 -1.4648  1.3119 -4.3072
  469MOL0     O61777   1.311   2.928   9.313  0.0831 -0.5022 -0.3943
  469MOL0     C61778   1.290   2.862   9.414  0.9495 -1.4717 -0.2307
  469MOL0     O61779   1.373   2.835   9.515  0.1464  0.4409 -0.4983
  469MOL0     C61780   1.505   2.856   9.507 -0.1600 -0.6606  0.5920
  469MOL0     C61781   1.597   2.753   9.554  0.0631  0.0875 -0.6743
  469MOL0     C61782   1.734   2.774   9.564  0.1337  0.2286  0.3076
  469MOL0     C61783   1.790   2.897   9.513 -0.2807 -0.1054 -0.1950
  469MOL0     O61784   1.917   2.943   9.540  0.2205 -0.5423 -0.2142
  469MOL0     C61785   2.027   2.851   9.584  0.4579 -0.9485  0.1869
  469MOL0     C61786   2.162   2.938   9.604  0.0138  0.3703  0.1941
  469MOL0     C61787   2.265   2.858   9.677 -0.0627  0.1507 -0.2732
  469MOL0     C61788   2.410   2.921   9.682  0.3779  1.6134  0.8240
  469MOL0     C61789   2.512   2.817   9.640 -0.5267  0.6554 -0.5060
  469MOL0     C61790   2.514   2.784   9.491  0.5826  0.4213  0.1512
  469MOL0     C61791   2.633   2.699   9.470 -0.4551  0.4612  0.0064
  469MOL0     C61792   2.644   2.650   9.324 -0.0648 -0.8399  0.7393
  469MOL0     N61793   2.519   2.594   9.272 -0.5050 -0.2921  0.5005
  469MOL0     C61794   2.432   2.659   9.195  0.8648  0.3426  0.1108
  469MOL0     C61795   2.347   2.552   9.147  0.1233 -0.1325  0.5017
  469MOL0     C61796   2.235   2.577   9.051 -0.4534  0.5191 -0.3554
  469MOL0     C61797   2.135   2.664   9.113 -0.1005  0.3104 -0.1328
  469MOL0     C61798   2.052   2.581   9.213 -0.4843 -0.6492 -0.4394
  469MOL0     C61799   1.915   2.637   9.250 -0.1858 -0.5484  0.0911
  469MOL0     O61800   1.824   2.647   9.140 -0.0114 -0.3182  0.4378
  469MOL0     C61801   1.694   2.603   9.169  1.1888  0.3041  0.1748
  469MOL0     C61802   1.667   2.477   9.117  0.3995 -0.3051 -0.7206
  469MOL0     C61803   1.527   2.437   9.097 -0.0152 -0.1221  0.0746
  469MOL0     C61804   1.423   2.523   9.139  0.1501 -0.9170  0.3551
  469MOL0     C61805   1.286   2.480   9.124 -0.1142  0.3095 -0.3299
  469MOL0     O61806   1.199   2.580   9.087 -0.2767  0.0473  0.3397
  469MOL0     C61807   1.078   2.530   9.047 -0.0014 -0.1556  0.7330
  469MOL0     C61808   1.055   2.482   8.913  0.1217 -0.0728 -0.4967
  469MOL0     C61809   0.931   2.442   8.874  0.3101  0.3407  0.2368
  469MOL0     C61810   0.819   2.454   8.967 -0.2065 -0.1426  0.1625
  469MOL0     O61811   0.689   2.428   8.927 -0.2775 -0.5054 -0.5887
  469MOL0     C61812   0.668   2.370   8.802 -0.6545  0.4497  0.1505
  469MOL0     C61813   0.520   2.353   8.784  0.4290  0.1338  0.1334
  469MOL0     C61814   0.492   2.345   8.628 -0.1855  0.1937  0.3065
  469MOL0     C61815   0.345   2.324   8.592  0.2390  0.7156  0.4274
  469MOL0     C61816   0.327   2.303   8.440 -0.3681 -0.6040 -0.4357
  469MOL0     C61817   0.187   2.345   8.396 -0.0143 -0.2732 -0.2270
  469MOL0     C61818   0.179   2.331   8.245  0.6011 -0.0165  0.6249
  469MOL0     C61819   0.246   2.442   8.167 -0.1182 -0.0223  0.3426
  469MOL0    Cl61820   0.202   2.610   8.213  0.1263  0.0347  0.7033
  469MOL0     C61821   0.838   2.496   9.089  0.7104 -0.4230 -0.5950
  469MOL0     C61822   0.967   2.541   9.135  0.0459  0.6880  0.2063
  469MOL0     O61823   1.256   2.361   9.145  0.4960 -0.5324  0.0281
  469MOL0     C61824   1.463   2.652   9.189 -0.6494 -0.0873 -0.2239
  469MOL0     C61825   1.591   2.691   9.198 -0.7246  0.0347  0.2002
  469MOL0     N61826   2.375   2.442   9.220  0.7297  0.4022 -0.3885
  469MOL0     N61827   2.471   2.469   9.297  0.0195  0.6496 -0.3313
  469MOL0     C61828   1.708   2.991   9.439  0.0962 -0.0074 -0.1496
  469MOL0     C61829   1.570   2.964   9.438 -0.3290 -0.6058 -0.1202
  469MOL0     C61830   1.153   2.805   9.431  0.3352 -0.5292  0.2798
  469MOL0     C61831   1.046   2.850   9.353 -0.6246  0.0994 -0.1192
  469MOL0     C61832   0.921   2.794   9.379  0.0591  0.8635  0.0068
  469MOL0     C61833   0.900   2.700   9.481  0.3297  1.4082  0.9139
  469MOL0     O61834   0.781   2.636   9.503  1.2847 -0.2418 -0.3687
  469MOL0     C61835   0.674   2.663   9.407  0.5537 -0.0472 -0.0325
  469MOL0     C61836   0.549   2.592   9.470 -0.3799  0.4068 -0.0380
  469MOL0     C61837   0.449   2.559   9.353  0.7597  1.0589 -0.0242
  469MOL0     C61838   0.357   2.460   9.417 -0.0475 -0.2491  0.0310
  469MOL0     C61839   0.240   2.416   9.343 -0.4458  0.2989  0.7779
  469MOL0     C61840   0.145   2.377   9.280  0.2372  0.6286  0.4077
  469MOL0     C61841   1.007   2.648   9.553 -0.5513 -0.2116 -0.0400
  469MOL0     C61842   1.129   2.715   9.541 -0.5898 -0.9748  0.8366
  469MOL0     H61843   1.544   2.670   9.599  0.8942 -0.1049 -0.0463
  469MOL0     H61844   1.795   2.699   9.612 -4.4308 -2.1643  3.0836
  469MOL0     H61845   2.034   2.775   9.505 -0.1396  1.3653 -2.2553
  469MOL0     H61846   1.995   2.810   9.680  2.5744 -0.9155  0.9523
  469MOL0     H61847   2.151   3.040   9.642  0.7864 -0.2040  2.0878
  469MOL0     H61848   2.194   2.947   9.500  0.1094  0.3355  0.2203
  469MOL0     H61849   2.261   2.756   9.638 -0.6825  1.2023 -3.2306
  469MOL0     H61850   2.244   2.861   9.784  1.7441 -3.4667  0.3568
  469MOL0     H61851   2.411   3.008   9.617 -2.6442  0.3647 -1.1068
  469MOL0     H61852   2.421   2.953   9.786 -1.4931 -0.9931  1.9438
  469MOL0     H61853   2.496   2.724   9.695 -0.6668  0.6000 -0.6385
  469MOL0     H61854   2.608   2.863   9.664  0.5393 -1.9764  0.6108
  469MOL0     H61855   2.504   2.878   9.436 -2.0438 -0.1642 -0.5095
  469MOL0     H61856   2.422   2.726   9.479  1.4323 -0.9200 -0.0713
  469MOL0     H61857   2.726   2.755   9.487  2.7075 -3.4008 -2.6680
  469MOL0     H61858   2.639   2.611   9.535  2.0703  0.6070  0.0618
  469MOL0     H61859   2.724   2.577   9.307 -0.6581 -0.7969 -3.0805
  469MOL0     H61860   2.673   2.737   9.264 -0.1941  0.2395  2.1807
  469MOL0     H61861   2.414   2.762   9.166 -2.2850  0.6923  2.6546
  469MOL0     H61862   2.196   2.479   9.025  1.4225 -0.8004  1.5340
  469MOL0     H61863   2.274   2.617   8.957  1.2397  0.3041  0.2251
  469MOL0     H61864   2.067   2.708   9.039 -0.3524 -0.1227 -0.1588
  469MOL0     H61865   2.182   2.745   9.169 -1.3586  0.6518  0.4610
  469MOL0     H61866   2.034   2.488   9.159 -2.7493 -1.2673  1.2360
  469MOL0     H61867   2.117   2.571   9.300  0.5748  0.8373 -1.0141
  469MOL0     H61868   1.929   2.742   9.276 -3.2160  1.8019 -5.8818
  469MOL0     H61869   1.875   2.583   9.336 -1.7002 -0.3275 -0.4405
  469MOL0     H61870   1.740   2.400   9.096  1.2773  0.0086  1.0264
  469MOL0     H61871   1.509   2.341   9.050  5.0242 -1.4034  0.1387
  469MOL0     H61872   1.137   2.483   8.842 -2.3921 -0.6696 -3.6531
  469MOL0     H61873   0.932   2.398   8.775 -0.2686  0.3016  0.2455
  469MOL0     H61874   0.723   2.277   8.787  0.1353  0.9903 -0.4117
  469MOL0     H61875   0.720   2.427   8.724  1.5149 -1.3669  0.1477
  469MOL0     H61876   0.471   2.442   8.826  0.7998  0.7583 -0.7240
  469MOL0     H61877   0.487   2.261   8.833  1.6877 -0.9967 -1.0737
  469MOL0     H61878   0.547   2.259   8.586  3.0142  0.0485  4.2298
  469MOL0     H61879   0.516   2.441   8.581  1.8055  0.8700  2.4620
  469MOL0     H61880   0.308   2.239   8.651 -1.0188  0.9506 -0.0006
  469MOL0     H61881   0.291   2.417   8.613 -0.2624  0.3347  0.8817
  469MOL0     H61882   0.343   2.198   8.413 -0.7730 -0.1864 -2.4625
  469MOL0     H61883   0.403   2.364   8.390 -0.5369  0.9530  1.1338
  469MOL0     H61884   0.172   2.450   8.424  2.2099 -0.5640  2.4877
  469MOL0     H61885   0.106   2.299   8.454  0.2974  0.4487  0.8160
  469MOL0     H61886   0.236   2.244   8.212 -1.7287 -1.5500  0.4225
  469MOL0     H61887   0.072   2.326   8.225 -0.1449  1.6299  3.6253
  469MOL0     H61888   0.217   2.420   8.064 -1.6967 -4.3584  1.4678
  469MOL0     H61889   0.354   2.434   8.161 -0.2782 -6.2340 -1.5981
  469MOL0     H61890   0.756   2.502   9.160  0.5194 -1.3880 -0.7137
  469MOL0     H61891   0.988   2.572   9.237  0.5258 -2.0018  0.9937
  469MOL0     H61892   1.395   2.735   9.206 -1.2409 -0.9249  1.6682
  469MOL0     H61893   1.611   2.791   9.237 -0.8220 -0.4374  1.5119
  469MOL0     H61894   1.747   3.083   9.399  0.1887  0.7579  1.6276
  469MOL0     H61895   1.524   3.051   9.391 -0.6449  0.5260  2.1546
  469MOL0     H61896   1.065   2.913   9.267 -1.1309 -0.8481 -0.9417
  469MOL0     H61897   0.835   2.835   9.326  0.4369  0.6791 -0.7629
  469MOL0     H61898   0.694   2.617   9.310 -1.5069  3.6302 -2.4394
  469MOL0     H61899   0.651   2.767   9.384 -0.4926  0.3987  2.6106
  469MOL0     H61900   0.589   2.500   9.512 -1.4889 -0.4797 -0.8460
  469MOL0     H61901   0.507   2.654   9.551 -1.1042  0.7543 -0.6608
  469MOL0     H61902   0.490   2.522   9.259 -1.6783  2.9181 -1.9461
  469MOL0     H61903   0.403   2.658   9.348  1.0978  1.3682  1.9204
  469MOL0     H61904   0.411   2.375   9.460  0.4731 -0.4782 -1.0571
  469MOL0     H61905   0.312   2.516   9.500  0.4909  1.7561 -0.9467
  469MOL0     H61906   0.078   2.317   9.222 -0.4806  0.4397  1.3971
  469MOL0     H61907   1.000   2.571   9.629  0.6503 -1.2360 -0.9366
  469MOL0     H61908   1.214   2.682   9.601  0.1430 -0.5456  0.0658
  470MOL0     O61909   8.153   5.927   5.645 -0.1854 -0.2495  1.1404
  470MOL0     C61910   8.270   5.964   5.631  0.0926 -0.2641 -0.4217
  470MOL0     O61911   8.313   6.100   5.632  0.7791  0.0607  0.2766
  470MOL0     C61912   8.221   6.199   5.674 -1.1762  0.1466 -0.8466
  470MOL0     C61913   8.092   6.212   5.639  1.0974 -0.3282  0.1268
  470MOL0     C61914   8.006   6.305   5.686  0.0304 -0.8810 -0.4335
  470MOL0     C61915   8.051   6.407   5.769  0.6124  0.2612 -0.3164
  470MOL0     O61916   7.975   6.508   5.829 -0.4544 -0.3879  0.4475
  470MOL0     C61917   7.835   6.509   5.832 -0.1797 -0.0342 -0.0273
  470MOL0     C61918   7.780   6.637   5.898  0.2566  0.0489  0.4004
  470MOL0     C61919   7.805   6.764   5.824  0.2357 -0.2791  0.1399
  470MOL0     C61920   7.738   6.886   5.892 -0.4079 -0.6804  0.4865
  470MOL0     C61921   7.593   6.893   5.849 -0.2707  0.1049 -0.1454
  470MOL0     C61922   7.526   7.010   5.920 -0.4112 -0.2823  0.2492
  470MOL0     C61923   7.375   7.020   5.879  0.2225 -0.1283 -0.3028
  470MOL0     C61924   7.301   7.111   5.979 -0.1428 -0.1684 -0.3289
  470MOL0     N61925   7.256   7.056   6.106 -0.6637 -0.2355  0.3346
  470MOL0     C61926   7.289   6.932   6.159 -0.8241  0.3550  0.6254
  470MOL0     C61927   7.213   6.927   6.270 -0.4735  0.5059  0.1095
  470MOL0     C61928   7.216   6.813   6.376 -0.0654  0.0982  0.2002
  470MOL0     C61929   7.099   6.713   6.343 -0.8778  0.6280  0.3054
  470MOL0     C61930   6.978   6.755   6.406  1.4757  0.0883 -0.0507
  470MOL0     C61931   6.867   6.661   6.374  0.2396  0.9495  0.8169
  470MOL0     O61932   6.747   6.692   6.440 -0.4223  0.7178 -0.2792
  470MOL0     C61933   6.634   6.628   6.393 -0.5422 -0.0409  0.9993
  470MOL0     C61934   6.624   6.530   6.294 -0.8827  0.1168  0.3974
  470MOL0     C61935   6.497   6.476   6.267  0.2092 -0.0983 -0.3798
  470MOL0     C61936   6.382   6.528   6.325 -0.1321 -0.9852  0.5191
  470MOL0     C61937   6.244   6.479   6.284  0.0678 -0.3012  0.1380
  470MOL0     O61938   6.129   6.517   6.359 -0.3918  0.0200  0.3587
  470MOL0     C61939   6.012   6.459   6.322 -0.1165  0.4885  0.2891
  470MOL0     C61940   5.914   6.532   6.257  0.3881  0.6092  0.6086
  470MOL0     C61941   5.795   6.470   6.218  0.5164 -0.3552 -0.4865
  470MOL0     C61942   5.771   6.335   6.253 -0.3505 -0.0336  0.0562
  470MOL0     O61943   5.638   6.293   6.221 -0.4620  0.5634  0.0672
  470MOL0     C61944   5.607   6.150   6.208  0.1706  0.0866 -0.0728
  470MOL0     C61945   5.459   6.112   6.214  0.5276  0.1179 -0.4485
  470MOL0     C61946   5.379   6.169   6.099  0.1617 -0.5497 -0.3837
  470MOL0     C61947   5.236   6.103   6.097 -0.4457  0.6724  0.3346
  470MOL0     C61948   5.147   6.173   5.995  0.6734  0.3731 -0.2562
  470MOL0     C61949   5.013   6.116   6.012 -0.3935 -1.0309 -0.5828
  470MOL0     C61950   4.937   6.183   5.907 -0.1512 -0.7131  0.3800
  470MOL0     C61951   4.825   6.092   5.855  0.5979 -0.6031 -0.3462
  470MOL0    Cl61952   4.719   6.043   5.992  0.4453 -0.4067 -0.0501
  470MOL0     C61953   5.874   6.260   6.310  0.7574  0.5442 -1.0411
  470MOL0     C61954   5.992   6.319   6.342  0.4670  0.1966  0.2771
  470MOL0     O61955   6.242   6.407   6.189 -0.7395  0.9143  0.3488
  470MOL0     C61956   6.395   6.623   6.429 -0.3462 -0.0179 -0.2807
  470MOL0     C61957   6.525   6.668   6.471 -0.0858 -0.7091  0.3715
  470MOL0     N61958   7.123   7.036   6.277  0.1157  0.0118 -0.1207
  470MOL0     N61959   7.152   7.113   6.178  0.1053  0.5283  0.1585
  470MOL0     C61960   8.186   6.394   5.816 -0.2242  0.6163  0.7163
  470MOL0     C61961   8.277   6.295   5.761 -0.1495 -0.3621  0.8808
  470MOL0     C61962   8.379   5.857   5.613  0.6446  0.0903  0.1210
  470MOL0     C61963   8.517   5.893   5.634  0.4263 -0.4526  0.6052
  470MOL0     C61964   8.622   5.801   5.620  0.3148 -0.6079  0.1636
  470MOL0     C61965   8.587   5.665   5.593 -0.6556 -0.5305 -0.2132
  470MOL0     O61966   8.685   5.576   5.579  0.0076 -0.3996  0.1587
  470MOL0     C61967   8.759   5.596   5.452  1.0133  0.1485 -0.5184
  470MOL0     C61968   8.909   5.575   5.470  0.7683 -0.1191 -0.0758
  470MOL0     C61969   8.987   5.577   5.341 -1.0512 -0.0678  0.6763
  470MOL0     C61970   9.139   5.582   5.364 -0.7581 -0.8820 -0.6671
  470MOL0     C61971   9.178   5.717   5.397 -0.9149  0.3894  0.7439
  470MOL0     C61972   9.199   5.837   5.408  0.1703  0.7505  0.4449
  470MOL0     C61973   8.456   5.627   5.581  0.1989 -0.2662  0.0340
  470MOL0     C61974   8.359   5.721   5.587  0.5805 -0.2255 -0.9343
  470MOL0     H61975   8.041   6.146   5.570 -0.5190 -0.2806  1.2096
  470MOL0     H61976   7.908   6.321   5.641  0.2992  2.0017 -0.1909
  470MOL0     H61977   7.803   6.432   5.902  1.2456  0.0686  0.7768
  470MOL0     H61978   7.794   6.490   5.732 -0.1840 -0.2973  0.0244
  470MOL0     H61979   7.828   6.648   5.995  2.0052  0.5748 -0.4886
  470MOL0     H61980   7.671   6.628   5.903  0.0495  0.8060 -1.7074
  470MOL0     H61981   7.788   6.769   5.716 -0.1448 -0.3703  0.1972
  470MOL0     H61982   7.913   6.769   5.843  0.2315 -2.3693  0.9292
  470MOL0     H61983   7.741   6.869   6.000 -1.8649 -1.6667  0.4000
  470MOL0     H61984   7.782   6.981   5.860 -0.9036 -0.9242 -0.9953
  470MOL0     H61985   7.545   6.801   5.885  0.1345 -0.2918 -0.5908
  470MOL0     H61986   7.594   6.888   5.740  0.8885 -0.1427 -0.1402
  470MOL0     H61987   7.582   7.099   5.890 -0.3074 -0.9369 -1.6850
  470MOL0     H61988   7.529   7.007   6.029  0.2725  2.5152  0.3769
  470MOL0     H61989   7.377   7.061   5.778 -1.6016 -0.7805 -0.6491
  470MOL0     H61990   7.329   6.921   5.880 -1.0174  0.4332  0.9368
  470MOL0     H61991   7.208   7.144   5.931  0.4251  1.1600 -0.5550
  470MOL0     H61992   7.364   7.198   6.000 -0.8693  1.0424 -2.7817
  470MOL0     H61993   7.361   6.854   6.139  1.1746  1.9531  1.3091
  470MOL0     H61994   7.193   6.852   6.476  1.2476 -0.0707  0.5829
  470MOL0     H61995   7.314   6.764   6.377 -0.7582 -1.4317 -1.4412
  470MOL0     H61996   7.122   6.620   6.397 -0.2215  1.6178  1.7818
  470MOL0     H61997   7.093   6.689   6.237 -1.2683  1.2924  0.1745
  470MOL0     H61998   6.994   6.756   6.514 -2.3469 -1.9236  0.6818
  470MOL0     H61999   6.950   6.857   6.378  0.9022  0.5814  2.1266
  470MOL0     H62000   6.886   6.557   6.402 -4.6920 -0.9323 -1.6017
  470MOL0     H62001   6.837   6.657   6.268 -3.8508 -2.0707  1.8379
  470MOL0     H62002   6.707   6.489   6.239 -2.5273 -1.7791 -0.7909
  470MOL0     H62003   6.488   6.386   6.207 -0.3432 -0.4920  0.2921
  470MOL0     H62004   5.931   6.628   6.208 -0.2485 -0.3309 -1.6215
  470MOL0     H62005   5.726   6.530   6.159  0.8790  2.7513  2.0281
  470MOL0     H62006   5.657   6.087   6.282 -0.0010  0.9565  0.8028
  470MOL0     H62007   5.639   6.107   6.112  1.0816 -1.5454  0.9265
  470MOL0     H62008   5.418   6.147   6.309 -2.4038  0.5829 -1.7697
  470MOL0     H62009   5.461   6.003   6.221  1.6660  0.1722  0.3856
  470MOL0     H62010   5.431   6.147   6.005 -0.6884  0.4148 -1.0976
  470MOL0     H62011   5.367   6.276   6.120  1.0089 -0.3896 -0.6879
  470MOL0     H62012   5.232   5.994   6.087 -0.3966  0.3560  2.9840
  470MOL0     H62013   5.192   6.111   6.197 -0.6724 -2.0457  0.5209
  470MOL0     H62014   5.192   6.149   5.898  0.1960  3.2793 -1.2983
  470MOL0     H62015   5.144   6.281   6.015 -1.0400  0.9993 -3.2251
  470MOL0     H62016   4.972   6.123   6.113  1.2315 -4.9285  0.5258
  470MOL0     H62017   5.014   6.009   5.987 -1.2754 -0.6212 -2.6199
  470MOL0     H62018   4.896   6.276   5.947 -1.6785 -0.2620 -2.0755
  470MOL0     H62019   4.994   6.206   5.817  0.0826 -1.0263  0.4477
  470MOL0     H62020   4.856   6.005   5.797  1.3033  0.2341 -1.2619
  470MOL0     H62021   4.772   6.166   5.794 -0.7532 -2.2008 -1.1846
  470MOL0     H62022   5.864   6.153   6.327 -0.1115 -0.0018 -4.2992
  470MOL0     H62023   6.069   6.259   6.390 -0.5736  0.9952  3.1218
  470MOL0     H62024   6.313   6.643   6.497 -1.1648 -1.3989 -0.8174
  470MOL0     H62025   6.532   6.739   6.553 -1.0090  1.3491 -1.2413
  470MOL0     H62026   8.212   6.462   5.897 -1.5562 -0.4933  2.1470
  470MOL0     H62027   8.377   6.301   5.804  0.5010 -0.3958 -0.5618
  470MOL0     H62028   8.543   5.996   5.658 -1.0133 -0.1078  0.8079
  470MOL0     H62029   8.723   5.829   5.646  0.5125 -0.8721 -0.3065
  470MOL0     H62030   8.741   5.696   5.413  0.0985  0.7432  1.2927
  470MOL0     H62031   8.726   5.525   5.376 -1.1300 -0.5880  0.9869
  470MOL0     H62032   8.940   5.660   5.530  2.7595  0.9363 -2.4238
  470MOL0     H62033   8.922   5.478   5.518  0.7863 -1.6319 -2.8999
  470MOL0     H62034   8.951   5.663   5.283 -3.3529 -1.4883 -0.1370
  470MOL0     H62035   8.972   5.484   5.286  5.9889 -1.4220  0.0816
  470MOL0     H62036   9.163   5.507   5.440 -1.1714 -0.7096 -0.3608
  470MOL0     H62037   9.185   5.538   5.275 -2.0248 -1.9202 -0.8481
  470MOL0     H62038   9.207   5.944   5.415  2.7143  0.8522 -2.0790
  470MOL0     H62039   8.426   5.523   5.571 -0.8802  0.0224  0.0753
  470MOL0     H62040   8.257   5.683   5.589  0.3635  0.2665  2.6385
  471MOL0     O62041   8.089   2.544   8.154 -0.2543 -0.2468 -0.7670
  471MOL0     C62042   8.178   2.633   8.155  0.8386 -0.3948  0.5866
  471MOL0     O62043   8.149   2.774   8.174  0.7748  0.2212 -0.4189
  471MOL0     C62044   8.017   2.827   8.158  0.4446 -0.4612  0.2399
  471MOL0     C62045   7.922   2.786   8.061  0.3108  0.1432  0.6200
  471MOL0     C62046   7.801   2.858   8.046 -0.5964  0.6286 -0.0314
  471MOL0     C62047   7.776   2.970   8.128  0.3434  0.4353  0.1676
  471MOL0     O62048   7.660   3.032   8.091 -0.4333  0.1254 -0.0815
  471MOL0     C62049   7.579   3.078   8.205  0.2410  0.2251  0.7459
  471MOL0     C62050   7.463   3.165   8.163  0.5244 -0.3996  0.4199
  471MOL0     C62051   7.488   3.302   8.107 -0.6782  1.0424  0.2831
  471MOL0     C62052   7.363   3.380   8.056 -0.4232 -0.4915 -0.1052
  471MOL0     C62053   7.272   3.436   8.174  0.2037  0.5617 -0.5872
  471MOL0     C62054   7.120   3.434   8.149  1.2349 -0.9480 -0.4505
  471MOL0     C62055   7.056   3.307   8.117 -0.2075 -0.2501 -0.9287
  471MOL0     C62056   6.910   3.307   8.103  0.2914 -0.5269 -0.0269
  471MOL0     N62057   6.849   3.380   8.223  0.2330  0.5290  0.9305
  471MOL0     C62058   6.840   3.318   8.342  0.2334 -0.4057  0.8146
  471MOL0     C62059   6.782   3.416   8.416 -0.2112  0.2525  0.4183
  471MOL0     C62060   6.763   3.381   8.563 -0.1614  0.2463 -0.6643
  471MOL0     C62061   6.638   3.297   8.581 -0.2550  0.1745  0.0207
  471MOL0     C62062   6.599   3.273   8.734 -0.4387 -0.5853  0.1446
  471MOL0     C62063   6.719   3.222   8.824 -1.0114 -0.0756 -0.0098
  471MOL0     O62064   6.753   3.081   8.790  0.6193 -0.0710 -0.2656
  471MOL0     C62065   6.865   3.012   8.836 -0.3650  0.3767 -0.1149
  471MOL0     C62066   6.962   3.062   8.915 -0.8650 -0.0830 -0.1526
  471MOL0     C62067   7.083   2.984   8.935 -1.1686  0.3187 -0.3836
  471MOL0     C62068   7.099   2.858   8.882 -0.2225 -0.0325 -1.1060
  471MOL0     C62069   7.227   2.780   8.910  0.4526 -0.5007  0.1839
  471MOL0     O62070   7.235   2.669   8.828  0.6397 -0.0570  0.0355
  471MOL0     C62071   7.349   2.602   8.846  0.1733 -0.0626  0.4537
  471MOL0     C62072   7.371   2.536   8.962 -1.2245 -1.0371 -0.4238
  471MOL0     C62073   7.494   2.473   8.989 -0.2335 -0.1516 -0.8811
  471MOL0     C62074   7.582   2.451   8.887 -0.0613 -0.8711  0.3218
  471MOL0     O62075   7.693   2.366   8.902 -0.7004  0.4889  0.2095
  471MOL0     C62076   7.732   2.321   9.032  0.1622  0.8430 -0.5567
  471MOL0     C62077   7.840   2.219   9.008  0.1951  0.2199 -0.5923
  471MOL0     C62078   7.968   2.259   8.956 -1.1377 -0.9337  0.4278
  471MOL0     C62079   8.073   2.163   9.004 -0.1477 -0.6457 -0.6622
  471MOL0     C62080   8.197   2.150   8.924 -0.2464 -0.5708  0.6266
  471MOL0     C62081   8.299   2.057   9.001 -0.2905  0.3776  0.1174
  471MOL0     C62082   8.425   2.020   8.927 -0.3763 -0.8817 -0.2865
  471MOL0     C62083   8.494   1.904   8.997 -0.2757  0.1233 -0.1559
  471MOL0    Cl62084   8.593   1.976   9.123  0.0727 -0.0471  0.5529
  471MOL0     C62085   7.562   2.516   8.760  0.2971  0.0199  0.9160
  471MOL0     C62086   7.443   2.590   8.742  0.1367 -0.1389  0.1679
  471MOL0     O62087   7.300   2.802   9.004 -0.3063 -0.0762 -0.7352
  471MOL0     C62088   6.994   2.801   8.809 -0.0176  0.1067 -0.8725
  471MOL0     C62089   6.881   2.880   8.787 -0.3841 -0.0225  0.1212
  471MOL0     N62090   6.750   3.532   8.343 -0.3954  0.3186  0.3669
  471MOL0     N62091   6.805   3.509   8.225  0.0143  0.1996 -0.1772
  471MOL0     C62092   7.875   3.022   8.208  0.3246 -0.6756  0.3586
  471MOL0     C62093   7.994   2.951   8.219 -0.1582  0.1855  0.1034
  471MOL0     C62094   8.311   2.583   8.147  0.2264 -0.5877  0.8673
  471MOL0     C62095   8.342   2.444   8.167 -0.3408  0.0376 -0.2367
  471MOL0     C62096   8.477   2.405   8.163 -0.0613  0.1960  0.2870
  471MOL0     C62097   8.583   2.489   8.134 -0.8625  1.1761  0.1916
  471MOL0     O62098   8.712   2.441   8.114 -0.2068 -0.9645  0.2418
  471MOL0     C62099   8.785   2.489   8.228 -0.6552 -0.0868 -0.1503
  471MOL0     C62100   8.928   2.420   8.241  0.5006 -0.0231  0.0123
  471MOL0     C62101   9.016   2.416   8.116 -0.1340 -0.2324  0.2944
  471MOL0     C62102   9.140   2.331   8.141 -0.0240 -0.3832  0.5989
  471MOL0     C62103   9.226   2.352   8.017  1.1354  0.6149 -0.4537
  471MOL0     C62104   9.290   2.376   7.919 -1.1553  0.2695 -0.2831
  471MOL0     C62105   8.554   2.626   8.117  0.1229 -0.1409 -0.1898
  471MOL0     C62106   8.427   2.669   8.121  0.0633 -1.2656  0.3605
  471MOL0     H62107   7.939   2.699   7.998 -3.2853  1.4034 -2.4639
  471MOL0     H62108   7.726   2.832   7.972 -1.1815  1.8324  0.1064
  471MOL0     H62109   7.635   3.124   8.287  2.3630  1.8326 -1.4929
  471MOL0     H62110   7.536   2.982   8.238  0.0491 -1.8928 -4.6650
  471MOL0     H62111   7.410   3.180   8.258  1.4968 -1.0918  1.0889
  471MOL0     H62112   7.411   3.105   8.088  2.9112 -2.8272  0.5414
  471MOL0     H62113   7.549   3.289   8.017 -0.3292 -1.9135  0.8461
  471MOL0     H62114   7.548   3.365   8.174  2.2039  0.9153 -1.9468
  471MOL0     H62115   7.399   3.471   8.005  2.1554 -0.3771  1.7318
  471MOL0     H62116   7.312   3.319   7.980  1.8417 -0.5771 -1.6644
  471MOL0     H62117   7.298   3.538   8.200  2.4580  0.3901 -1.8903
  471MOL0     H62118   7.305   3.372   8.257  3.3060  0.6498 -1.6012
  471MOL0     H62119   7.109   3.496   8.060 -1.1809 -0.0402  0.4147
  471MOL0     H62120   7.067   3.492   8.225  1.1901  1.7917 -2.4319
  471MOL0     H62121   7.103   3.261   8.030  2.2701 -1.4556  0.9514
  471MOL0     H62122   7.078   3.240   8.200  1.0046  0.8395 -0.3227
  471MOL0     H62123   6.871   3.206   8.089  2.0710 -1.0602 -1.4457
  471MOL0     H62124   6.875   3.363   8.016 -1.3442 -0.7793  0.4357
  471MOL0     H62125   6.869   3.219   8.376 -1.3439 -1.5054 -0.8604
  471MOL0     H62126   6.756   3.469   8.627  1.3984 -0.5793  0.7213
  471MOL0     H62127   6.851   3.329   8.601  0.3790  1.7883  0.2827
  471MOL0     H62128   6.652   3.196   8.541 -2.3472 -0.3242  0.4055
  471MOL0     H62129   6.560   3.342   8.519  2.8207  2.5329 -2.4694
  471MOL0     H62130   6.584   3.377   8.764  0.6387 -0.0733 -1.0076
  471MOL0     H62131   6.515   3.205   8.748  0.4620 -1.8052 -0.1549
  471MOL0     H62132   6.688   3.230   8.929  1.6089  2.1192  0.7326
  471MOL0     H62133   6.799   3.296   8.812 -1.9968  0.8157 -1.4124
  471MOL0     H62134   6.947   3.161   8.958 -6.4260 -0.4890 -0.4427
  471MOL0     H62135   7.170   3.021   8.989 -0.8909 -1.0771  0.1637
  471MOL0     H62136   7.299   2.534   9.043 -2.7778  0.7940 -1.6739
  471MOL0     H62137   7.518   2.433   9.087  1.5220  4.3572  0.7945
  471MOL0     H62138   7.644   2.277   9.080 -1.6934  1.2892 -3.3348
  471MOL0     H62139   7.782   2.399   9.089  4.6565 -0.1947 -2.6140
  471MOL0     H62140   7.799   2.138   8.948 -1.9926 -0.3595  1.5152
  471MOL0     H62141   7.853   2.167   9.104  0.7202  2.8017  0.8500
  471MOL0     H62142   8.001   2.360   8.983 -2.1304 -1.2065  2.8952
  471MOL0     H62143   7.961   2.247   8.847  0.5725  0.1486  0.1475
  471MOL0     H62144   8.094   2.200   9.104  0.2730  0.7957 -1.2617
  471MOL0     H62145   8.037   2.061   9.019 -0.2670 -0.4831  0.1850
  471MOL0     H62146   8.238   2.251   8.912 -1.4628 -0.1600 -0.2713
  471MOL0     H62147   8.174   2.116   8.823  4.5537  0.6797 -1.1557
  471MOL0     H62148   8.240   1.968   9.026 -2.7667  1.2180 -2.3309
  471MOL0     H62149   8.316   2.098   9.101  0.1083  3.7827 -1.2161
  471MOL0     H62150   8.414   2.001   8.820  1.0062 -0.0734 -0.5845
  471MOL0     H62151   8.494   2.104   8.935 -1.0802 -0.4643  2.9850
  471MOL0     H62152   8.552   1.856   8.917  1.2242 -1.3341  1.7017
  471MOL0     H62153   8.430   1.835   9.052  1.7800 -2.2574 -0.5263
  471MOL0     H62154   7.632   2.525   8.678 -0.4457  3.7822  0.4808
  471MOL0     H62155   7.412   2.624   8.643  2.0859 -0.1999 -0.5002
  471MOL0     H62156   6.996   2.703   8.763 -0.0865 -0.9768  1.3285
  471MOL0     H62157   6.801   2.861   8.715  1.2402  2.5491 -2.5698
  471MOL0     H62158   7.857   3.122   8.247 -3.2242 -1.9435  2.4718
  471MOL0     H62159   8.080   2.999   8.266 -0.7406  1.2425  0.1177
  471MOL0     H62160   8.269   2.364   8.158  1.6093 -1.7104 -1.7514
  471MOL0     H62161   8.512   2.303   8.163  0.4576  0.3650  1.1637
  471MOL0     H62162   8.729   2.463   8.318 -0.3842  1.1957  0.4015
  471MOL0     H62163   8.797   2.597   8.235 -3.9486  0.3484  0.5455
  471MOL0     H62164   8.972   2.476   8.324  0.5810 -0.5555  0.3348
  471MOL0     H62165   8.904   2.315   8.262 -2.3873  0.5101 -0.1283
  471MOL0     H62166   9.052   2.514   8.086 -2.2414  0.3177 -0.6018
  471MOL0     H62167   8.957   2.384   8.030 -1.5241  1.8797  0.3841
  471MOL0     H62168   9.195   2.363   8.230  0.0524  0.9099  0.1134
  471MOL0     H62169   9.114   2.226   8.154 -0.5921 -0.4238 -0.7141
  471MOL0     H62170   9.335   2.414   7.829 -1.1381  1.4692  0.2068
  471MOL0     H62171   8.633   2.696   8.094  3.2930 -3.0592  0.9648
  471MOL0     H62172   8.411   2.776   8.117  1.3862 -1.0894 -1.4444
  472MOL0     O62173  10.267   5.718   9.001  0.3310 -0.1909  0.3472
  472MOL0     C62174  10.324   5.744   9.106 -0.0875  0.7491 -0.2637
  472MOL0     O62175  10.268   5.776   9.227 -0.8434 -0.1989  0.7467
  472MOL0     C62176  10.152   5.712   9.266  0.3092 -0.0354 -0.3492
  472MOL0     C62177  10.129   5.579   9.222 -0.0611  0.4777 -0.1243
  472MOL0     C62178   9.993   5.526   9.237 -0.2581 -0.1965  0.4885
  472MOL0     C62179   9.893   5.609   9.307  0.2247 -0.2538  0.5957
  472MOL0     O62180   9.769   5.569   9.335 -0.1396 -1.1941 -0.1161
  472MOL0     C62181   9.727   5.439   9.298 -0.6383  0.5454 -0.2842
  472MOL0     C62182   9.584   5.423   9.339  0.5464  0.5470 -0.0915
  472MOL0     C62183   9.546   5.269   9.327  0.2895 -0.3751  1.1207
  472MOL0     C62184   9.422   5.231   9.397 -1.0030  0.1789 -0.4202
  472MOL0     C62185   9.356   5.115   9.336 -0.6533  0.9904  0.1973
  472MOL0     C62186   9.249   5.061   9.439 -0.4888  0.2518 -0.5114
  472MOL0     C62187   9.211   4.916   9.420  0.2446 -0.3521 -0.3632
  472MOL0     C62188   9.081   4.870   9.477 -0.2159  0.2139  0.0655
  472MOL0     N62189   8.962   4.946   9.420 -0.0280 -0.1244 -0.3857
  472MOL0     C62190   8.873   4.905   9.332  0.7008  0.7804 -0.2706
  472MOL0     C62191   8.775   4.993   9.346 -0.2044 -0.2494  0.8392
  472MOL0     C62192   8.634   4.995   9.285 -0.3909  0.4104  1.1767
  472MOL0     C62193   8.632   4.952   9.141  0.1377 -0.0967  0.9988
  472MOL0     C62194   8.504   5.008   9.082 -0.5637 -0.0071  0.6663
  472MOL0     C62195   8.498   4.965   8.929  0.1064  0.3792  0.3131
  472MOL0     O62196   8.369   4.937   8.874  0.6622 -0.5390  0.1967
  472MOL0     C62197   8.273   5.043   8.870 -1.1051 -0.6322 -0.1911
  472MOL0     C62198   8.143   5.000   8.852 -0.1425 -0.4984  0.3599
  472MOL0     C62199   8.039   5.089   8.831 -0.1006 -0.1501 -0.2858
  472MOL0     C62200   8.068   5.227   8.825  0.3053  0.3413  0.0249
  472MOL0     C62201   7.959   5.330   8.798 -0.8448 -0.4230 -0.4047
  472MOL0     O62202   7.997   5.462   8.814  0.6054 -0.3665  0.0592
  472MOL0     C62203   7.914   5.563   8.771  1.2415  0.4868 -0.0476
  472MOL0     C62204   7.785   5.571   8.819  0.7044 -0.6653 -0.4223
  472MOL0     C62205   7.706   5.685   8.792  0.0088  0.2987 -0.2296
  472MOL0     C62206   7.748   5.784   8.702 -0.2632  0.4407  0.4000
  472MOL0     O62207   7.663   5.887   8.677  0.3966  0.2485 -0.9395
  472MOL0     C62208   7.658   5.939   8.550  0.4779  0.7661 -0.4244
  472MOL0     C62209   7.518   5.994   8.522 -1.0595 -0.1581  0.1320
  472MOL0     C62210   7.483   6.021   8.376  0.3228  0.5182  0.9393
  472MOL0     C62211   7.338   6.073   8.375 -0.2872 -0.1055  0.0106
  472MOL0     C62212   7.282   6.121   8.241 -0.6500 -0.9002  0.1162
  472MOL0     C62213   7.123   6.116   8.251 -0.8949 -0.9819  0.0774
  472MOL0     C62214   7.049   6.209   8.153 -0.2231  0.0301  0.1447
  472MOL0     C62215   6.896   6.182   8.159 -0.1814  1.0953 -0.0928
  472MOL0    Cl62216   6.803   6.248   8.020  0.0352 -0.6426  0.0050
  472MOL0     C62217   7.883   5.777   8.656  0.0477 -0.0692 -1.0003
  472MOL0     C62218   7.958   5.672   8.691 -1.0268  0.1218 -0.9426
  472MOL0     O62219   7.851   5.288   8.766  0.6107 -0.1427  0.1133
  472MOL0     C62220   8.200   5.267   8.848  0.4038  0.3039 -0.6237
  472MOL0     C62221   8.303   5.179   8.866 -0.3579 -0.5778  0.3626
  472MOL0     N62222   8.797   5.081   9.445 -0.7358 -0.6483  0.1657
  472MOL0     N62223   8.911   5.046   9.492 -0.1415  0.7085  0.1308
  472MOL0     C62224   9.919   5.738   9.346 -0.1890  0.3463  0.4740
  472MOL0     C62225  10.050   5.786   9.321 -0.3860 -0.1588 -0.6614
  472MOL0     C62226  10.477   5.754   9.102  0.7571 -0.6191 -0.3956
  472MOL0     C62227  10.548   5.804   9.212  0.1410  0.0612  0.4463
  472MOL0     C62228  10.686   5.817   9.198 -0.0264 -0.1974  0.1984
  472MOL0     C62229  10.761   5.780   9.080  0.0551  0.9264 -0.1715
  472MOL0     O62230  10.892   5.815   9.073 -0.4600  0.2062 -1.2372
  472MOL0     C62231  10.984   5.729   9.018 -0.3680  0.5562  0.7267
  472MOL0     C62232  11.129   5.769   9.060 -0.4069  0.2740 -0.5535
  472MOL0     C62233  11.233   5.662   9.034  0.7168 -0.1277 -0.3638
  472MOL0     C62234  11.364   5.708   9.104  0.7447 -0.2165 -1.0188
  472MOL0     C62235  11.473   5.615   9.065 -0.2067 -1.1440  0.1508
  472MOL0     C62236  11.568   5.544   9.071 -0.1270 -0.1252 -1.2180
  472MOL0     C62237  10.690   5.735   8.974  0.1855  0.2851 -0.4347
  472MOL0     C62238  10.545   5.716   8.983 -0.9590 -0.2781 -0.3485
  472MOL0     H62239  10.201   5.520   9.167 -1.7793 -0.2405 -1.7225
  472MOL0     H62240   9.958   5.431   9.198 -0.3338 -0.8179  2.0023
  472MOL0     H62241   9.799   5.374   9.349 -1.1129 -0.2105 -0.5643
  472MOL0     H62242   9.735   5.439   9.189 -2.9386  1.6954 -0.5140
  472MOL0     H62243   9.521   5.489   9.278 -0.7708 -0.8404 -0.2985
  472MOL0     H62244   9.573   5.435   9.447  1.8709 -4.8262  0.8987
  472MOL0     H62245   9.634   5.211   9.356  1.2486 -0.1786 -1.1796
  472MOL0     H62246   9.531   5.239   9.223 -1.4110 -3.9318  2.2549
  472MOL0     H62247   9.458   5.215   9.499  2.2868 -0.6465 -1.5864
  472MOL0     H62248   9.346   5.306   9.421 -2.7976 -2.0271  1.3218
  472MOL0     H62249   9.433   5.039   9.319  1.0637  3.0454 -1.7257
  472MOL0     H62250   9.319   5.141   9.237  3.1005  0.3975 -1.5412
  472MOL0     H62251   9.167   5.133   9.428  0.2148  1.5332  1.8989
  472MOL0     H62252   9.285   5.076   9.541  1.4214 -0.0995 -1.0874
  472MOL0     H62253   9.214   4.898   9.312  2.4040  1.5185 -0.6989
  472MOL0     H62254   9.281   4.845   9.465 -0.4609 -0.4711  0.5763
  472MOL0     H62255   9.072   4.881   9.586 -3.2685 -2.5067  0.2100
  472MOL0     H62256   9.071   4.765   9.451  2.3122 -0.3881  1.2196
  472MOL0     H62257   8.867   4.804   9.293 -0.5639  0.7227  0.0353
  472MOL0     H62258   8.588   5.095   9.287 -0.1148  0.5380  1.2245
  472MOL0     H62259   8.563   4.934   9.342  0.2382 -0.7611  0.7243
  472MOL0     H62260   8.645   4.845   9.122  0.4322  0.1497 -0.3093
  472MOL0     H62261   8.717   5.005   9.097 -0.4908 -1.7206 -2.4833
  472MOL0     H62262   8.417   4.966   9.134 -1.7200  0.6431 -0.6996
  472MOL0     H62263   8.494   5.116   9.095 -1.2138  0.4618 -2.7486
  472MOL0     H62264   8.564   4.879   8.914 -2.4454 -2.4648  3.4934
  472MOL0     H62265   8.541   5.033   8.856 -1.3410 -0.0028 -0.9614
  472MOL0     H62266   8.118   4.896   8.837  2.6699 -1.0111 -1.5343
  472MOL0     H62267   7.938   5.050   8.818 -0.5313  0.6404  0.6006
  472MOL0     H62268   7.761   5.488   8.886  1.9921  0.2020  1.1817
  472MOL0     H62269   7.605   5.683   8.832 -0.1047  1.3184 -0.4402
  472MOL0     H62270   7.682   5.860   8.477  2.7252 -0.1028  1.1563
  472MOL0     H62271   7.736   6.016   8.543  1.3120  0.0909  1.1160
  472MOL0     H62272   7.500   6.091   8.569  3.1340  0.7866  0.2034
  472MOL0     H62273   7.459   5.909   8.556 -0.7723 -0.7101 -0.7298
  472MOL0     H62274   7.476   5.935   8.309 -0.1450  1.6108 -0.4820
  472MOL0     H62275   7.550   6.096   8.331  1.3052 -0.3709  0.8768
  472MOL0     H62276   7.275   5.985   8.391  0.7507 -0.8787 -0.0974
  472MOL0     H62277   7.325   6.155   8.447  0.9221  1.0218 -0.9936
  472MOL0     H62278   7.310   6.046   8.166 -2.1790 -2.1484  0.7335
  472MOL0     H62279   7.313   6.223   8.217 -1.1120 -0.2419  2.1045
  472MOL0     H62280   7.091   6.147   8.351 -2.6493 -2.5955  0.0842
  472MOL0     H62281   7.090   6.012   8.238  0.6753 -1.5980  0.8374
  472MOL0     H62282   7.070   6.314   8.175  1.6034  0.2394 -2.2734
  472MOL0     H62283   7.090   6.175   8.057  0.5577 -0.0782  0.5069
  472MOL0     H62284   6.851   6.201   8.257  1.3124 -4.3329  2.0457
  472MOL0     H62285   6.885   6.073   8.153 -0.7984  1.0041  1.8632
  472MOL0     H62286   7.923   5.855   8.592 -0.8215  0.5502 -0.8042
  472MOL0     H62287   8.063   5.662   8.666 -0.7318  2.3458 -0.7892
  472MOL0     H62288   8.225   5.372   8.857  1.3821 -0.1098  4.3632
  472MOL0     H62289   8.400   5.228   8.871 -0.8894  0.5413  0.0646
  472MOL0     H62290   9.848   5.795   9.406  0.6799  2.5102 -0.4524
  472MOL0     H62291  10.076   5.888   9.347  0.7089 -0.2688 -1.2907
  472MOL0     H62292  10.503   5.826   9.309  0.2863  3.2603 -0.1107
  472MOL0     H62293  10.752   5.840   9.281 -0.6318  1.0157  0.3695
  472MOL0     H62294  10.988   5.722   8.909  0.5179  1.2681  0.7017
  472MOL0     H62295  10.961   5.629   9.055 -1.5349  0.3106 -0.5585
  472MOL0     H62296  11.170   5.860   9.015  1.3426 -0.2840 -0.2022
  472MOL0     H62297  11.126   5.781   9.169  0.6126 -0.6436 -0.4045
  472MOL0     H62298  11.238   5.638   8.928 -0.5509 -0.6884 -0.3185
  472MOL0     H62299  11.189   5.572   9.078 -3.2435  1.3120 -0.9814
  472MOL0     H62300  11.398   5.808   9.075  1.1623  0.0908  0.4321
  472MOL0     H62301  11.349   5.707   9.213 -0.9636  2.7728 -1.1306
  472MOL0     H62302  11.651   5.478   9.089  0.9264  2.0030  3.1564
  472MOL0     H62303  10.742   5.701   8.885 -0.6585 -0.7897 -0.5382
  472MOL0     H62304  10.489   5.694   8.893 -0.7837 -4.5149  0.3782
  473MOL0     O62305   0.883   1.917   5.096  0.0529  1.3186  0.3998
  473MOL0     C62306   0.977   1.852   5.152 -0.1935 -0.3223  0.2648
  473MOL0     O62307   1.084   1.902   5.212  0.2459  0.0813  0.6972
  473MOL0     C62308   1.087   2.044   5.207 -0.7141 -0.6636 -0.9727
  473MOL0     C62309   1.108   2.130   5.094  0.6043  0.1443 -0.2432
  473MOL0     C62310   1.090   2.270   5.107  0.8873 -0.3347 -0.2692
  473MOL0     C62311   1.066   2.339   5.228 -0.5196  0.4173  0.3819
  473MOL0     O62312   1.059   2.472   5.229 -0.6195 -0.1666 -0.2252
  473MOL0     C62313   1.025   2.548   5.107 -0.3654  0.7863 -0.3354
  473MOL0     C62314   1.003   2.692   5.147  0.7232 -0.0567 -0.0031
  473MOL0     C62315   1.123   2.770   5.105 -1.0681 -0.5014  0.3428
  473MOL0     C62316   1.259   2.730   5.167 -0.0617 -0.5888 -0.7051
  473MOL0     C62317   1.352   2.845   5.180  0.4308 -0.1211 -0.0555
  473MOL0     C62318   1.489   2.810   5.234  0.7383  0.2763 -0.3351
  473MOL0     C62319   1.581   2.706   5.159 -0.0914 -0.5840  0.1553
  473MOL0     C62320   1.710   2.690   5.246 -0.2866  0.4435 -0.1133
  473MOL0     N62321   1.778   2.817   5.273 -0.2628 -0.0873 -0.7873
  473MOL0     C62322   1.858   2.825   5.381 -0.0965  0.7955 -0.1317
  473MOL0     C62323   1.943   2.928   5.354 -0.4605  0.5278 -0.2262
  473MOL0     C62324   2.048   2.980   5.439 -0.6396 -0.0275 -0.4242
  473MOL0     C62325   2.175   3.017   5.364 -0.2928  0.2149 -0.3284
  473MOL0     C62326   2.255   2.891   5.319  0.0207 -0.3999  0.2157
  473MOL0     C62327   2.387   2.932   5.255 -0.2263 -0.2511  0.5546
  473MOL0     O62328   2.470   2.981   5.360 -0.3767 -0.9477  0.0141
  473MOL0     C62329   2.591   3.031   5.319 -0.1906 -0.2377  0.4983
  473MOL0     C62330   2.709   3.006   5.400 -0.1534 -0.0875  0.3299
  473MOL0     C62331   2.830   3.047   5.363 -0.0014 -0.3642  0.2881
  473MOL0     C62332   2.852   3.129   5.248  0.2788  0.1046  0.2916
  473MOL0     C62333   2.990   3.156   5.209  0.6523  0.1938  0.0782
  473MOL0     O62334   3.095   3.159   5.296 -0.9678 -0.3778  0.5549
  473MOL0     C62335   3.218   3.199   5.247 -0.3807 -0.2775  0.2378
  473MOL0     C62336   3.231   3.334   5.216 -0.5315  0.3920  0.1167
  473MOL0     C62337   3.364   3.378   5.171 -0.3062 -0.2943 -0.7975
  473MOL0     C62338   3.472   3.287   5.162  0.3854 -0.8709  1.3084
  473MOL0     O62339   3.599   3.331   5.127  0.8134 -0.2399  0.0781
  473MOL0     C62340   3.651   3.415   5.235 -0.5281  0.0301 -0.5660
  473MOL0     C62341   3.794   3.460   5.231  0.1421  0.5621  0.5093
  473MOL0     C62342   3.810   3.577   5.138  0.5807  0.6198 -0.5330
  473MOL0     C62343   3.957   3.629   5.143 -1.1466 -0.1220 -0.8030
  473MOL0     C62344   3.992   3.754   5.063  0.0272  0.3607  0.8614
  473MOL0     C62345   4.142   3.795   5.097  1.3704  0.3071 -0.9352
  473MOL0     C62346   4.180   3.933   5.059 -0.6303 -0.5141 -0.7347
  473MOL0     C62347   4.158   3.969   4.914  0.8771 -0.9080 -0.0428
  473MOL0    Cl62348   4.258   3.885   4.796  0.0560 -0.0892 -0.2753
  473MOL0     C62349   3.445   3.158   5.192 -0.4984 -0.4337 -0.3687
  473MOL0     C62350   3.322   3.112   5.241  0.2547 -0.1263  0.4962
  473MOL0     O62351   2.999   3.173   5.086  0.1563  0.1751 -0.3377
  473MOL0     C62352   2.738   3.173   5.174 -0.6398  0.4143 -0.3673
  473MOL0     C62353   2.610   3.121   5.212 -0.1303 -0.5059 -0.5145
  473MOL0     N62354   1.913   2.986   5.232  0.3661  0.4619 -0.1346
  473MOL0     N62355   1.819   2.914   5.182  0.1661 -0.1873 -0.6229
  473MOL0     C62356   1.067   2.253   5.344 -0.1231 -0.6867  0.0158
  473MOL0     C62357   1.080   2.111   5.334 -0.1023  0.0293  0.7197
  473MOL0     C62358   0.970   1.707   5.138  0.6729 -0.3072  1.1401
  473MOL0     C62359   1.094   1.619   5.139 -0.2142  0.9182 -0.2390
  473MOL0     C62360   1.079   1.481   5.098  0.9997  0.0224 -0.4233
  473MOL0     C62361   0.949   1.429   5.073  0.4865 -0.6107 -0.8697
  473MOL0     O62362   0.947   1.292   5.054  1.0942 -0.1473 -0.1332
  473MOL0     C62363   0.829   1.236   5.000  0.2051 -0.2052 -0.1546
  473MOL0     C62364   0.865   1.091   4.958  0.0473  0.0112 -0.1157
  473MOL0     C62365   0.756   1.034   4.864 -0.1313 -0.0113 -0.7859
  473MOL0     C62366   0.751   0.880   4.843 -0.5095 -0.2098 -1.0229
  473MOL0     C62367   0.641   0.845   4.761  0.6053  0.2026 -0.1926
  473MOL0     C62368   0.556   0.800   4.690 -0.2918  0.8758 -0.1918
  473MOL0     C62369   0.831   1.510   5.090 -0.1112 -0.0425  1.1706
  473MOL0     C62370   0.839   1.644   5.122  0.5492  0.0089  1.8657
  473MOL0     H62371   1.105   2.096   4.991  1.0665 -1.0993  0.1452
  473MOL0     H62372   1.087   2.318   5.009 -0.6719 -0.6551 -0.4046
  473MOL0     H62373   0.930   2.513   5.064  0.2379 -1.6726  0.1630
  473MOL0     H62374   1.101   2.547   5.029  1.7554 -0.4633  1.6330
  473MOL0     H62375   0.981   2.716   5.251 -0.9480 -0.2771 -0.2662
  473MOL0     H62376   0.912   2.726   5.096  0.4186 -0.2044  0.4438
  473MOL0     H62377   1.109   2.878   5.114  1.5499  0.3253 -3.3072
  473MOL0     H62378   1.142   2.766   4.997 -1.0355  0.4180  0.3081
  473MOL0     H62379   1.239   2.687   5.266 -0.7180  1.3004  0.0295
  473MOL0     H62380   1.308   2.650   5.110 -0.4711 -2.3211  1.2361
  473MOL0     H62381   1.314   2.912   5.257  2.0624  0.2776  0.4407
  473MOL0     H62382   1.352   2.900   5.086 -2.1228 -0.8117 -0.5254
  473MOL0     H62383   1.487   2.781   5.340 -1.3777  2.5455  0.3638
  473MOL0     H62384   1.546   2.904   5.231 -0.8581  1.5731  3.3551
  473MOL0     H62385   1.528   2.611   5.149 -0.3581 -0.2639 -2.1416
  473MOL0     H62386   1.608   2.742   5.060  0.4080  0.5151  0.6776
  473MOL0     H62387   1.780   2.621   5.198  0.7697  1.5385 -0.2195
  473MOL0     H62388   1.682   2.647   5.342 -0.3302  0.1692 -0.2503
  473MOL0     H62389   1.861   2.751   5.460  1.1241  2.0760  1.0877
  473MOL0     H62390   2.072   2.901   5.511 -1.8309  1.8277  2.1645
  473MOL0     H62391   2.006   3.064   5.496 -1.2375 -0.0829 -0.7720
  473MOL0     H62392   2.229   3.084   5.432  0.6823 -1.0040  0.1299
  473MOL0     H62393   2.151   3.083   5.280 -0.3254  1.0850  0.3494
  473MOL0     H62394   2.284   2.825   5.401 -1.3628 -0.3934  0.7503
  473MOL0     H62395   2.190   2.829   5.257 -0.0916 -0.7617  0.6913
  473MOL0     H62396   2.360   3.004   5.178 -0.5999 -0.2950  0.6426
  473MOL0     H62397   2.432   2.843   5.209  0.1492  2.3334 -4.7841
  473MOL0     H62398   2.698   2.951   5.493  1.9175  2.5487  2.3187
  473MOL0     H62399   2.917   3.027   5.424  0.6927 -0.8746 -0.8437
  473MOL0     H62400   3.151   3.407   5.207 -1.7567 -0.9881 -0.5894
  473MOL0     H62401   3.385   3.482   5.152 -2.3175  0.0645 -1.2884
  473MOL0     H62402   3.631   3.366   5.331 -4.4034  2.8962  0.3484
  473MOL0     H62403   3.586   3.501   5.251 -0.1072  0.4991 -1.2812
  473MOL0     H62404   3.846   3.370   5.196 -0.2751 -0.2717  1.9677
  473MOL0     H62405   3.811   3.492   5.334 -0.9446  0.6985  0.6574
  473MOL0     H62406   3.751   3.660   5.176  1.7076  1.2221 -0.0657
  473MOL0     H62407   3.766   3.559   5.039 -1.7063  0.1041  0.5144
  473MOL0     H62408   3.986   3.638   5.247  1.3887  0.2296 -1.4794
  473MOL0     H62409   4.029   3.557   5.102  1.0907  0.8035  1.3023
  473MOL0     H62410   3.930   3.842   5.084 -0.4572  0.4747 -0.8461
  473MOL0     H62411   3.987   3.736   4.955  0.3088  0.7289  0.7847
  473MOL0     H62412   4.207   3.716   5.058 -0.3434 -1.1445 -0.9980
  473MOL0     H62413   4.156   3.799   5.205 -3.4548 -1.3944  0.0085
  473MOL0     H62414   4.139   4.005   5.130  2.8094  0.3498  0.5630
  473MOL0     H62415   4.288   3.937   5.079 -0.9104  0.4614  0.7055
  473MOL0     H62416   4.175   4.077   4.908  0.9052 -0.8621  0.8164
  473MOL0     H62417   4.051   3.963   4.891  0.4567 -0.2268  1.6263
  473MOL0     H62418   3.525   3.085   5.191 -1.4217 -1.4773  0.1649
  473MOL0     H62419   3.315   3.009   5.272  2.0647 -0.0968  1.1005
  473MOL0     H62420   2.741   3.255   5.103 -1.2447  0.2708 -0.5628
  473MOL0     H62421   2.531   3.172   5.158 -0.6837  0.4636  1.1463
  473MOL0     H62422   1.069   2.303   5.441  3.0825  2.2520 -1.3563
  473MOL0     H62423   1.068   2.053   5.425  1.4178 -0.2905  0.7398
  473MOL0     H62424   1.191   1.665   5.158  0.7494 -1.3629  0.7175
  473MOL0     H62425   1.171   1.424   5.093  1.6452  0.8316  1.3731
  473MOL0     H62426   0.781   1.286   4.916 -1.7725 -2.9258 -0.7753
  473MOL0     H62427   0.764   1.235   5.088  1.2324  1.1744  0.6662
  473MOL0     H62428   0.965   1.093   4.915 -0.7097  0.3723 -1.9318
  473MOL0     H62429   0.857   1.021   5.042 -4.4340  0.7290  0.3288
  473MOL0     H62430   0.765   1.077   4.764 -0.0795  1.8312 -0.0278
  473MOL0     H62431   0.671   1.086   4.909  2.0589  0.6970  2.9822
  473MOL0     H62432   0.851   0.845   4.816 -0.4261 -2.3639  1.5215
  473MOL0     H62433   0.728   0.833   4.940 -0.2872 -0.0754 -0.9039
  473MOL0     H62434   0.488   0.751   4.623  2.0179 -0.5019 -1.6792
  473MOL0     H62435   0.737   1.455   5.092  0.2579 -0.8755 -1.0984
  473MOL0     H62436   0.751   1.706   5.132  0.7388  1.2764 -2.2120
  474MOL0     O62437   9.288  10.571   6.125 -0.6926 -0.5343 -0.1952
  474MOL0     C62438   9.212  10.483   6.165 -0.0381  0.4702  0.0556
  474MOL0     O62439   9.191  10.369   6.096 -0.6280  0.2330 -0.1500
  474MOL0     C62440   9.240  10.356   5.973 -0.7929  0.6652 -0.0917
  474MOL0     C62441   9.379  10.373   5.943  0.5275  0.0929  0.0603
  474MOL0     C62442   9.427  10.343   5.813 -1.3428  0.5209  0.0078
  474MOL0     C62443   9.331  10.315   5.707 -0.2392 -0.3788  0.2427
  474MOL0     O62444   9.384  10.294   5.583  0.2558  0.3454  0.4010
  474MOL0     C62445   9.306  10.251   5.469  0.4171 -0.2556 -0.2303
  474MOL0     C62446   9.388  10.196   5.352 -0.2238  0.2479 -0.9083
  474MOL0     C62447   9.301  10.103   5.278 -0.0014 -0.5555  0.5469
  474MOL0     C62448   9.203  10.173   5.192  0.2815  1.1823 -0.1224
  474MOL0     C62449   9.180  10.068   5.081 -0.0409  0.2786  0.5123
  474MOL0     C62450   9.067  10.116   4.982  0.1918 -0.3608 -0.5854
  474MOL0     C62451   8.921  10.089   5.029  0.0972  0.3167  0.8594
  474MOL0     C62452   8.804  10.118   4.934 -0.0476  0.3764  0.1262
  474MOL0     N62453   8.795  10.024   4.821 -0.9320 -0.1584  0.4992
  474MOL0     C62454   8.847  10.054   4.699 -0.0240  0.5894  0.3016
  474MOL0     C62455   8.844   9.928   4.643  0.3366 -0.9005  0.4227
  474MOL0     C62456   8.901   9.905   4.508  0.6282 -0.5705 -0.0635
  474MOL0     C62457   9.014   9.816   4.521 -0.4957  0.2843 -0.5978
  474MOL0     C62458   9.127   9.848   4.610  0.3983  0.1410 -0.2560
  474MOL0     C62459   9.258   9.768   4.581 -0.1518  0.2776 -0.0955
  474MOL0     O62460   9.366   9.863   4.557 -0.7459  0.2051 -0.3412
  474MOL0     C62461   9.496   9.807   4.565  0.6428  0.5706 -0.3642
  474MOL0     C62462   9.554   9.840   4.685 -0.1375  0.5610  0.0297
  474MOL0     C62463   9.678   9.797   4.719  0.2759  0.1131  0.5795
  474MOL0     C62464   9.751   9.715   4.629  1.2208  0.5282  1.2202
  474MOL0     C62465   9.884   9.665   4.664 -0.2839  0.1004  0.5402
  474MOL0     O62466   9.977   9.663   4.569  0.5329 -0.1897 -0.0364
  474MOL0     C62467  10.101   9.636   4.604 -0.7675  0.8076 -0.5724
  474MOL0     C62468  10.159   9.513   4.554  0.0442 -0.3420 -0.1572
  474MOL0     C62469  10.281   9.476   4.595 -0.4793 -0.1344 -0.6138
  474MOL0     C62470  10.359   9.545   4.679 -0.4673 -0.5290  0.1667
  474MOL0     O62471  10.485   9.495   4.701  0.2958  0.7921  1.0535
  474MOL0     C62472  10.589   9.579   4.735 -0.6037 -0.3934 -0.1933
  474MOL0     C62473  10.710   9.484   4.742  0.0227 -0.0179  0.0196
  474MOL0     C62474  10.837   9.562   4.759  0.5467 -0.1736 -1.6684
  474MOL0     C62475  10.965   9.474   4.723  0.1023  0.2926  0.3019
  474MOL0     C62476  11.095   9.558   4.747 -0.3981 -0.2599  0.3765
  474MOL0     C62477  11.111   9.667   4.635  0.2856  0.8737 -0.3562
  474MOL0     C62478  11.153   9.606   4.496  0.4799  0.6530 -0.1765
  474MOL0     C62479  11.122   9.706   4.384 -0.0635  0.0249 -0.1095
  474MOL0    Cl62480  10.944   9.709   4.361 -0.0605 -0.3450 -0.2297
  474MOL0     C62481  10.312   9.670   4.729 -0.1286  0.5827 -0.4914
  474MOL0     C62482  10.181   9.717   4.694  0.9347 -0.6521 -0.8687
  474MOL0     O62483   9.896   9.641   4.784 -0.3717 -0.4925 -0.2109
  474MOL0     C62484   9.686   9.675   4.511  0.2101 -0.1498 -0.6665
  474MOL0     C62485   9.557   9.720   4.484  0.9075  0.3844  0.0518
  474MOL0     N62486   8.778   9.841   4.727  0.0588 -0.6683 -0.0694
  474MOL0     N62487   8.761   9.900   4.837 -0.5345  1.2152  0.2799
  474MOL0     C62488   9.200  10.304   5.737 -0.4987 -0.3674  0.4543
  474MOL0     C62489   9.155  10.316   5.871  0.6627 -0.6236 -0.0573
  474MOL0     C62490   9.146  10.500   6.295  0.5651  0.0247  0.4362
  474MOL0     C62491   9.167  10.614   6.378  0.2998 -0.3041  0.0201
  474MOL0     C62492   9.115  10.617   6.506  0.8791 -0.6492  0.1714
  474MOL0     C62493   9.021  10.520   6.552 -0.3826 -0.8545 -0.2467
  474MOL0     O62494   8.950  10.545   6.669  0.0750  0.4668  0.1352
  474MOL0     C62495   8.875  10.442   6.732  0.1133 -0.1335  1.2134
  474MOL0     C62496   8.837  10.498   6.867  0.0359 -1.0123  0.3824
  474MOL0     C62497   8.716  10.431   6.932 -0.2621  0.1109 -0.0195
  474MOL0     C62498   8.707  10.438   7.085  0.7447  0.8287 -0.1684
  474MOL0     C62499   8.575  10.377   7.111 -1.2788  0.4023 -0.4211
  474MOL0     C62500   8.464  10.325   7.135 -0.3802  0.6985 -0.9903
  474MOL0     C62501   9.013  10.402   6.478 -0.4884 -0.2721  0.5669
  474MOL0     C62502   9.072  10.395   6.353  0.3580 -0.7721  1.0004
  474MOL0     H62503   9.451  10.409   6.016 -1.1818  2.0489  0.8835
  474MOL0     H62504   9.533  10.354   5.792 -1.4623 -0.6281 -1.3948
  474MOL0     H62505   9.258  10.341   5.428 -1.0849 -0.4833  0.9333
  474MOL0     H62506   9.232  10.180   5.504  1.6810 -0.4723  2.2020
  474MOL0     H62507   9.469  10.140   5.399  0.7606  2.0612 -0.3323
  474MOL0     H62508   9.439  10.265   5.284 -0.3282  1.0395 -0.2108
  474MOL0     H62509   9.255  10.036   5.351 -0.6274 -1.3162 -0.5043
  474MOL0     H62510   9.376  10.051   5.217 -0.9962  1.1883 -2.3626
  474MOL0     H62511   9.107  10.185   5.244 -0.0947 -0.5551 -0.3461
  474MOL0     H62512   9.241  10.266   5.148  5.5281 -0.9299 -0.6550
  474MOL0     H62513   9.154   9.973   5.129  1.5148 -1.1414 -1.2938
  474MOL0     H62514   9.274  10.049   5.029 -0.5394 -0.8619 -0.0024
  474MOL0     H62515   9.086  10.070   4.884 -0.3392 -0.6459 -0.5576
  474MOL0     H62516   9.067  10.224   4.969 -0.0428 -0.0986  1.3571
  474MOL0     H62517   8.916   9.982   5.050 -0.4124  0.5060  1.7745
  474MOL0     H62518   8.907  10.133   5.129 -0.3111 -3.2193  2.4937
  474MOL0     H62519   8.814  10.222   4.902 -1.9801  0.3686 -0.6257
  474MOL0     H62520   8.710  10.110   4.990 -0.4306 -1.9459 -0.7489
  474MOL0     H62521   8.893  10.146   4.665 -0.1990  0.3998 -0.4835
  474MOL0     H62522   8.929  10.002   4.467 -0.5542 -0.3451 -0.3675
  474MOL0     H62523   8.828   9.862   4.439 -1.5131 -1.0084  2.3027
  474MOL0     H62524   9.032   9.793   4.415 -1.1613  1.4764 -0.9918
  474MOL0     H62525   8.983   9.720   4.561  4.5449  0.3641  4.7437
  474MOL0     H62526   9.144   9.956   4.613 -0.5246  0.2773  1.3772
  474MOL0     H62527   9.097   9.839   4.715 -1.5059 -0.4577 -0.8087
  474MOL0     H62528   9.254   9.708   4.490 -0.9629 -0.2889  0.2958
  474MOL0     H62529   9.274   9.703   4.668  0.0877 -0.4833 -0.7033
  474MOL0     H62530   9.495   9.904   4.749  1.3829 -0.2000  2.3250
  474MOL0     H62531   9.723   9.825   4.813 -0.4969 -1.5558  1.4926
  474MOL0     H62532  10.092   9.450   4.496 -0.4155  0.0715 -0.0837
  474MOL0     H62533  10.318   9.381   4.558  0.5347  0.4226 -1.0745
  474MOL0     H62534  10.580   9.615   4.838  3.7085 -0.7982  0.4937
  474MOL0     H62535  10.596   9.663   4.665  0.4684 -1.1544 -1.0248
  474MOL0     H62536  10.728   9.432   4.647  0.1787 -0.2937  0.1984
  474MOL0     H62537  10.708   9.419   4.830 -1.7462  1.4788  1.1730
  474MOL0     H62538  10.835   9.588   4.865  0.8641 -4.4522 -0.4095
  474MOL0     H62539  10.846   9.654   4.700  2.5767 -0.0687 -1.2521
  474MOL0     H62540  10.962   9.384   4.785 -1.3820  0.8080  1.0186
  474MOL0     H62541  10.954   9.431   4.623  1.0181 -2.0580  1.1610
  474MOL0     H62542  11.184   9.496   4.749 -0.5631 -0.6728 -1.9825
  474MOL0     H62543  11.092   9.610   4.844  1.1212  0.7831 -0.0943
  474MOL0     H62544  11.197   9.727   4.667  0.6142 -1.4208  3.8329
  474MOL0     H62545  11.027   9.738   4.627  0.1667  1.0723  1.9404
  474MOL0     H62546  11.259   9.578   4.500 -0.3427 -2.9799 -0.2226
  474MOL0     H62547  11.087   9.521   4.478  2.2678 -0.5586 -1.3683
  474MOL0     H62548  11.185   9.677   4.299  1.6810  2.0206  0.4207
  474MOL0     H62549  11.155   9.807   4.408  0.1873  0.4283 -2.0032
  474MOL0     H62550  10.384   9.727   4.787  2.5439 -0.6200 -2.4435
  474MOL0     H62551  10.154   9.812   4.740  1.7458 -1.2170  0.8798
  474MOL0     H62552   9.732   9.599   4.448  1.7471 -1.4897  1.9128
  474MOL0     H62553   9.509   9.688   4.392 -0.7008  0.5994  0.7706
  474MOL0     H62554   9.125  10.289   5.660 -0.8643 -0.4184  0.8185
  474MOL0     H62555   9.050  10.309   5.897  0.3417  0.0658 -1.1062
  474MOL0     H62556   9.223  10.701   6.345 -1.3350  0.0376 -2.0525
  474MOL0     H62557   9.123  10.713   6.557  2.1543  1.2932 -3.3402
  474MOL0     H62558   8.946  10.363   6.760 -0.6433 -1.1564  0.3454
  474MOL0     H62559   8.793  10.403   6.671  0.5535  0.2771  0.3391
  474MOL0     H62560   8.922  10.490   6.935 -0.5938  0.5724  1.3987
  474MOL0     H62561   8.829  10.606   6.859 -0.4924 -1.1623 -1.8371
  474MOL0     H62562   8.723  10.324   6.909  0.7622 -0.4637  2.5701
  474MOL0     H62563   8.626  10.480   6.894 -0.9429  0.7777  2.3145
  474MOL0     H62564   8.791  10.395   7.139  2.3953 -1.5776 -4.2185
  474MOL0     H62565   8.698  10.543   7.116 -1.1513  0.7812 -0.4600
  474MOL0     H62566   8.367  10.281   7.148  0.6676 -1.3885  0.3541
  474MOL0     H62567   8.966  10.314   6.520  3.0309 -0.6714  4.2555
  474MOL0     H62568   9.060  10.299   6.303 -0.0496  0.0545 -0.5341
  475MOL0     O62569   1.635   6.449   5.980 -0.2095  0.6029  0.3126
  475MOL0     C62570   1.682   6.544   5.920  0.8857  0.3162  0.7047
  475MOL0     O62571   1.603   6.623   5.841 -0.2521 -0.5188 -0.4099
  475MOL0     C62572   1.481   6.578   5.811 -1.8797  0.6257  1.2539
  475MOL0     C62573   1.388   6.578   5.908 -0.6478 -0.9626 -0.1990
  475MOL0     C62574   1.256   6.560   5.873 -1.7142 -1.5472  0.2178
  475MOL0     C62575   1.219   6.540   5.733 -1.1115 -0.0539 -0.0807
  475MOL0     O62576   1.093   6.532   5.691  0.4312 -0.7023 -0.2168
  475MOL0     C62577   0.982   6.535   5.783 -0.8824 -0.0314  0.3652
  475MOL0     C62578   0.860   6.563   5.696  0.1193  0.4329 -0.2686
  475MOL0     C62579   0.727   6.541   5.760 -0.5363  0.7003  0.4888
  475MOL0     C62580   0.623   6.527   5.648 -0.7797  0.5532  0.2079
  475MOL0     C62581   0.478   6.503   5.690  0.2121  0.2076 -0.2373
  475MOL0     C62582   0.388   6.466   5.573  1.0133  0.7593  0.6312
  475MOL0     C62583   0.241   6.445   5.613 -0.2647 -0.1780 -0.1551
  475MOL0     C62584   0.217   6.306   5.662  0.3051 -1.0908 -0.1924
  475MOL0     N62585   0.102   6.306   5.753 -0.5743 -0.2616 -0.4273
  475MOL0     C62586  -0.029   6.281   5.722  0.2958  0.5025 -0.1699
  475MOL0     C62587  -0.093   6.273   5.842 -0.0571 -0.5836 -0.1666
  475MOL0     C62588  -0.235   6.225   5.853 -0.3858 -0.3184  0.3321
  475MOL0     C62589  -0.243   6.118   5.948  0.0254  0.2522 -0.3553
  475MOL0     C62590  -0.363   6.023   5.926  0.3370  0.2120 -0.3112
  475MOL0     C62591  -0.490   6.077   5.983  0.7071 -0.1462 -0.2973
  475MOL0     O62592  -0.539   6.206   5.928 -0.1225 -0.0941  0.9595
  475MOL0     C62593  -0.667   6.191   5.865 -0.7731 -0.1060 -0.0954
  475MOL0     C62594  -0.684   6.114   5.759  0.3907 -0.6077 -0.2471
  475MOL0     C62595  -0.802   6.118   5.687  0.1513 -0.4842 -0.1199
  475MOL0     C62596  -0.914   6.190   5.734 -0.1512  0.2578  0.3037
  475MOL0     C62597  -1.044   6.190   5.664  0.0278  0.7551 -0.1668
  475MOL0     O62598  -1.146   6.259   5.727 -0.8507  0.1104 -0.0672
  475MOL0     C62599  -1.262   6.281   5.664  0.9450  0.0824  0.9729
  475MOL0     C62600  -1.382   6.265   5.736  0.3483  0.5530  0.5192
  475MOL0     C62601  -1.511   6.286   5.688  0.8090 -0.7186 -0.4886
  475MOL0     C62602  -1.527   6.318   5.547  1.1624 -0.7636  0.1259
  475MOL0     O62603  -1.648   6.325   5.480 -0.6639  0.5098  0.2996
  475MOL0     C62604  -1.769   6.290   5.553 -0.5053 -0.4784  0.6930
  475MOL0     C62605  -1.883   6.293   5.453  0.3623  0.1543 -0.0708
  475MOL0     C62606  -1.997   6.214   5.510 -0.4963 -0.2081  0.1669
  475MOL0     C62607  -2.125   6.239   5.432  0.3114  0.4615  0.3837
  475MOL0     C62608  -2.246   6.177   5.499 -0.6419  0.3116 -0.4639
  475MOL0     C62609  -2.374   6.174   5.416 -0.1150  0.7158 -0.4210
  475MOL0     C62610  -2.440   6.315   5.429 -1.0074  0.0292  0.5293
  475MOL0     C62611  -2.572   6.307   5.364  0.1237 -1.0881 -0.4225
  475MOL0    Cl62612  -2.676   6.194   5.456 -0.2901 -0.0654 -0.1261
  475MOL0     C62613  -1.415   6.325   5.476 -0.0332 -0.6404  0.1511
  475MOL0     C62614  -1.285   6.319   5.529 -0.0181  0.2623  0.4038
  475MOL0     O62615  -1.057   6.130   5.555 -0.6767  0.4874  0.2029
  475MOL0     C62616  -0.901   6.262   5.847 -0.7168  0.2799 -0.4662
  475MOL0     C62617  -0.780   6.263   5.909 -1.1449  0.5760 -0.0778
  475MOL0     N62618  -0.013   6.303   5.947 -0.7555 -1.1280 -0.4790
  475MOL0     N62619   0.105   6.319   5.893  0.7371  0.5182 -0.9323
  475MOL0     C62620   1.327   6.524   5.640 -0.1990 -0.7315 -0.1448
  475MOL0     C62621   1.457   6.547   5.677  0.7697  0.0016 -0.1944
  475MOL0     C62622   1.827   6.562   5.922 -0.0930  0.0166  0.3779
  475MOL0     C62623   1.881   6.675   5.867 -1.0133  0.2375  0.3344
  475MOL0     C62624   2.022   6.688   5.854 -0.1881 -0.4285 -0.3011
  475MOL0     C62625   2.113   6.601   5.918  0.8867  0.4703 -0.6354
  475MOL0     O62626   2.246   6.627   5.913 -0.2833  0.0817  0.2439
  475MOL0     C62627   2.344   6.547   5.993  0.8306  0.2395  0.3694
  475MOL0     C62628   2.482   6.612   5.958  0.3116  0.5568 -0.0082
  475MOL0     C62629   2.483   6.756   5.992  0.0032  0.0595 -0.3328
  475MOL0     C62630   2.616   6.823   5.996 -0.0742 -0.3477 -0.0411
  475MOL0     C62631   2.706   6.805   5.886  0.1472  0.0578 -0.1921
  475MOL0     C62632   2.795   6.775   5.811 -0.4089 -0.3313 -0.2857
  475MOL0     C62633   2.060   6.483   5.978 -0.5845 -0.4783 -0.9515
  475MOL0     C62634   1.917   6.463   5.979  0.1873 -0.0366 -0.3504
  475MOL0     H62635   1.425   6.604   6.007 -2.2339 -0.0239  0.1794
  475MOL0     H62636   1.176   6.574   5.945  0.1697  1.1128  1.9693
  475MOL0     H62637   0.987   6.607   5.866 -0.1168 -0.4841  0.7286
  475MOL0     H62638   0.969   6.437   5.829 -1.5282 -0.2027 -0.1743
  475MOL0     H62639   0.880   6.519   5.598  3.3501 -3.3591  1.7738
  475MOL0     H62640   0.860   6.672   5.683 -3.9760  0.9087  1.9747
  475MOL0     H62641   0.683   6.616   5.825 -3.6181 -2.4080  2.3405
  475MOL0     H62642   0.739   6.451   5.821  2.1867  0.2738 -0.5101
  475MOL0     H62643   0.638   6.613   5.583  0.7435 -1.4703 -2.3145
  475MOL0     H62644   0.658   6.439   5.594 -2.9365 -1.6870  2.1819
  475MOL0     H62645   0.436   6.588   5.746  1.1674 -1.9045  4.1752
  475MOL0     H62646   0.478   6.426   5.768 -2.5474  1.8126  1.5017
  475MOL0     H62647   0.426   6.372   5.531 -1.5977 -0.4873  0.8006
  475MOL0     H62648   0.391   6.549   5.502 -1.6134  0.6489  0.2862
  475MOL0     H62649   0.205   6.511   5.692  2.9219  0.0254  1.2734
  475MOL0     H62650   0.185   6.477   5.524  2.7254  2.0400 -1.3992
  475MOL0     H62651   0.297   6.275   5.730 -2.4358  2.8286  5.8110
  475MOL0     H62652   0.192   6.239   5.580 -0.9515  0.6149 -1.2699
  475MOL0     H62653  -0.067   6.247   5.627 -0.6411 -2.2724  1.0796
  475MOL0     H62654  -0.278   6.183   5.762  0.2562 -1.0300  0.3563
  475MOL0     H62655  -0.304   6.309   5.872 -1.9000  0.5989 -6.4917
  475MOL0     H62656  -0.223   6.145   6.052 -1.8529 -0.3115  0.1990
  475MOL0     H62657  -0.155   6.058   5.924 -0.8390 -1.2348  0.0275
  475MOL0     H62658  -0.377   6.001   5.819  1.8866  0.6964 -0.6312
  475MOL0     H62659  -0.354   5.923   5.969  1.5382  0.6728  0.5662
  475MOL0     H62660  -0.480   6.086   6.091  2.1771 -0.4914 -0.3920
  475MOL0     H62661  -0.568   6.000   5.978 -1.5983  1.8018  2.2381
  475MOL0     H62662  -0.598   6.057   5.725  1.9352  2.1154 -1.2782
  475MOL0     H62663  -0.821   6.049   5.606 -3.3186 -1.6862  1.5196
  475MOL0     H62664  -1.361   6.230   5.837 -0.8939  1.2268  1.0351
  475MOL0     H62665  -1.604   6.272   5.742  0.6826 -0.4053 -0.6212
  475MOL0     H62666  -1.779   6.354   5.641 -0.0162  1.6921 -0.7513
  475MOL0     H62667  -1.745   6.189   5.588  3.2406 -0.6509 -1.8510
  475MOL0     H62668  -1.857   6.275   5.349  4.3503  2.1605  0.3661
  475MOL0     H62669  -1.912   6.399   5.449  2.0770  0.6138 -1.9227
  475MOL0     H62670  -2.007   6.234   5.617 -1.3896 -1.6117  0.3687
  475MOL0     H62671  -1.955   6.113   5.507  0.0111 -0.0669  1.8487
  475MOL0     H62672  -2.146   6.346   5.426 -2.1836  0.1659  2.2890
  475MOL0     H62673  -2.109   6.200   5.331  2.3477 -0.4034  0.9845
  475MOL0     H62674  -2.257   6.220   5.599  2.1135  0.7604 -0.2774
  475MOL0     H62675  -2.205   6.076   5.510  4.4217  2.1488  0.1852
  475MOL0     H62676  -2.436   6.094   5.457  2.7304 -0.8968  0.9965
  475MOL0     H62677  -2.354   6.163   5.309 -1.1815  0.5425 -0.6213
  475MOL0     H62678  -2.452   6.345   5.533 -0.9768 -0.1770  0.5925
  475MOL0     H62679  -2.380   6.400   5.396  2.7862 -0.6086  4.7807
  475MOL0     H62680  -2.560   6.270   5.262  1.2836 -2.5857  0.2162
  475MOL0     H62681  -2.602   6.412   5.366  2.9207 -0.2225  1.1555
  475MOL0     H62682  -1.432   6.345   5.370 -0.5584  0.6789  0.4760
  475MOL0     H62683  -1.194   6.355   5.481 -0.1699 -0.6675 -0.6163
  475MOL0     H62684  -0.983   6.313   5.897  1.3229  1.8383  1.5302
  475MOL0     H62685  -0.763   6.330   5.993  3.2892  2.2585 -2.0124
  475MOL0     H62686   1.292   6.495   5.542 -2.3469 -0.3070  0.4345
  475MOL0     H62687   1.526   6.528   5.596 -0.2119  0.2077 -1.1105
  475MOL0     H62688   1.812   6.751   5.833  0.2703  0.8820 -0.9646
  475MOL0     H62689   2.054   6.778   5.802 -0.3208 -0.0091  0.3318
  475MOL0     H62690   2.351   6.440   5.969  2.1697  0.2600  0.5993
  475MOL0     H62691   2.326   6.545   6.101 -1.2345 -0.5492  0.0650
  475MOL0     H62692   2.564   6.568   6.015  0.6252 -0.0522 -0.9105
  475MOL0     H62693   2.503   6.587   5.853  1.7889 -0.6131  0.5439
  475MOL0     H62694   2.428   6.771   6.085  0.0191  2.5889 -0.6647
  475MOL0     H62695   2.430   6.808   5.912 -0.7987 -1.5362 -0.8745
  475MOL0     H62696   2.602   6.931   6.009  0.6708 -0.0597 -1.4577
  475MOL0     H62697   2.674   6.776   6.076  0.7159  5.3240  3.3232
  475MOL0     H62698   2.877   6.754   5.746  0.0360 -0.7323  0.3923
  475MOL0     H62699   2.121   6.404   6.021  1.0914  0.6439 -1.1633
  475MOL0     H62700   1.870   6.377   6.025  3.9678 -3.6394 -2.4190
  476MOL0     O62701   8.118   3.879   4.312  0.1149  0.1087 -0.6916
  476MOL0     C62702   8.144   3.775   4.361  0.2248  0.4883  0.3880
  476MOL0     O62703   8.068   3.670   4.394  0.0872 -0.3834 -0.7607
  476MOL0     C62704   7.933   3.702   4.384  0.1139 -0.7742 -0.1754
  476MOL0     C62705   7.873   3.682   4.260  0.2966 -0.0980 -0.3656
  476MOL0     C62706   7.737   3.698   4.242  0.2588  0.0926  0.0746
  476MOL0     C62707   7.656   3.744   4.354  0.2053 -0.5233  0.1967
  476MOL0     O62708   7.524   3.730   4.326 -1.0157  0.4917 -0.6413
  476MOL0     C62709   7.451   3.661   4.434  0.2362  0.3126  0.1656
  476MOL0     C62710   7.382   3.542   4.371 -0.1835  0.1423 -0.0001
  476MOL0     C62711   7.277   3.595   4.271 -0.5641 -0.7198  0.1906
  476MOL0     C62712   7.211   3.486   4.196 -0.4607 -0.0298 -0.3317
  476MOL0     C62713   7.109   3.530   4.082 -0.0631 -0.8567 -0.6129
  476MOL0     C62714   7.065   3.423   3.983 -0.7800  0.6551 -0.2966
  476MOL0     C62715   6.953   3.468   3.890 -0.0754  0.2410  0.0281
  476MOL0     C62716   6.922   3.353   3.786 -0.1897  0.6020  0.3792
  476MOL0     N62717   6.815   3.407   3.697 -0.0956  0.6986  0.0250
  476MOL0     C62718   6.802   3.541   3.642 -0.4314 -0.2995 -0.0719
  476MOL0     C62719   6.678   3.545   3.578  0.0949 -1.0260  0.1588
  476MOL0     C62720   6.602   3.667   3.511  0.3626 -0.8030 -0.1714
  476MOL0     C62721   6.488   3.717   3.597  0.6128  0.2365 -0.9892
  476MOL0     C62722   6.393   3.796   3.513 -0.6348 -0.1775 -0.1216
  476MOL0     C62723   6.302   3.874   3.599  1.1111 -0.1905 -0.0216
  476MOL0     O62724   6.214   3.926   3.500  0.4241  0.1317 -0.5345
  476MOL0     C62725   6.079   3.894   3.506  0.4499  0.8386  0.9016
  476MOL0     C62726   5.987   3.988   3.456  0.5641 -0.2107 -0.1783
  476MOL0     C62727   5.854   3.957   3.456 -0.8918 -0.1026  0.1859
  476MOL0     C62728   5.799   3.828   3.491 -0.0399  0.6463 -0.1102
  476MOL0     C62729   5.655   3.784   3.497  0.0583  0.4156 -0.4013
  476MOL0     O62730   5.623   3.654   3.514  0.1081  0.7808  0.2284
  476MOL0     C62731   5.499   3.609   3.546  0.0878  0.3528  0.3735
  476MOL0     C62732   5.508   3.473   3.582 -0.7947 -0.3436 -0.0489
  476MOL0     C62733   5.394   3.399   3.603  0.0865 -0.5611  0.1599
  476MOL0     C62734   5.264   3.460   3.604  0.4725  0.0288  0.5066
  476MOL0     O62735   5.146   3.386   3.631  0.2629  0.0124 -0.3541
  476MOL0     C62736   5.136   3.259   3.698  0.0402  0.3695 -0.8009
  476MOL0     C62737   5.168   3.269   3.845  0.3211 -0.1019  0.4822
  476MOL0     C62738   5.175   3.123   3.900  0.2273 -0.1387  0.0439
  476MOL0     C62739   5.052   3.034   3.889 -0.5224  0.1343  0.0397
  476MOL0     C62740   5.073   2.911   3.986  0.2305  0.9116 -0.2216
  476MOL0     C62741   4.949   2.827   4.027 -0.3443  0.5714  0.5296
  476MOL0     C62742   4.838   2.889   4.119 -0.2575 -0.2475  0.6918
  476MOL0     C62743   4.850   2.855   4.267  0.1079 -0.1026  0.1253
  476MOL0    Cl62744   4.835   2.678   4.304  0.5381  0.5603 -0.3507
  476MOL0     C62745   5.256   3.590   3.573 -0.2477  0.2518 -0.3818
  476MOL0     C62746   5.373   3.668   3.538 -0.4049  1.1184  0.7662
  476MOL0     O62747   5.575   3.882   3.503  0.5935 -0.5967 -0.0655
  476MOL0     C62748   5.893   3.735   3.542 -1.0368 -0.4410 -0.5549
  476MOL0     C62749   6.026   3.771   3.550 -1.1375 -0.2475  1.0249
  476MOL0     N62750   6.628   3.417   3.590  0.4556  0.8610 -0.6214
  476MOL0     N62751   6.707   3.336   3.653  0.3507 -0.7543 -0.7736
  476MOL0     C62752   7.721   3.783   4.474  0.4529 -0.3124  0.4684
  476MOL0     C62753   7.854   3.758   4.490 -0.6589 -0.7013  0.2881
  476MOL0     C62754   8.290   3.765   4.377 -0.7935 -0.1260  0.5321
  476MOL0     C62755   8.378   3.826   4.283 -0.6756 -0.9367  0.1821
  476MOL0     C62756   8.523   3.804   4.293  0.5177  0.1812 -0.8485
  476MOL0     C62757   8.577   3.723   4.404  0.0713 -0.2083  0.9623
  476MOL0     O62758   8.712   3.708   4.430  0.3380  0.0497  0.2616
  476MOL0     C62759   8.797   3.815   4.392  0.5341 -0.9238  0.3407
  476MOL0     C62760   8.924   3.833   4.475 -0.3030  0.2625 -0.5825
  476MOL0     C62761   8.981   3.700   4.498  0.6594 -0.1506 -0.2892
  476MOL0     C62762   9.124   3.703   4.567  0.6812  0.1404 -0.2500
  476MOL0     C62763   9.219   3.650   4.471 -1.1430 -0.1338  0.4974
  476MOL0     C62764   9.302   3.597   4.403  0.2300  0.1786  0.3402
  476MOL0     C62765   8.481   3.654   4.481 -0.3727 -0.6000 -0.8490
  476MOL0     C62766   8.345   3.676   4.474  0.5033  0.5829  0.4064
  476MOL0     H62767   7.928   3.653   4.171  1.6397 -1.7972  0.9296
  476MOL0     H62768   7.692   3.687   4.144 -0.2272 -1.5609  0.4496
  476MOL0     H62769   7.374   3.725   4.479  0.7897  0.7726  0.4597
  476MOL0     H62770   7.514   3.620   4.513 -0.4256  1.6336  1.4309
  476MOL0     H62771   7.338   3.478   4.448  1.9102  0.2416  1.3402
  476MOL0     H62772   7.453   3.475   4.323  1.1958  1.5301  0.0114
  476MOL0     H62773   7.321   3.668   4.203  1.5987 -1.3873  0.8114
  476MOL0     H62774   7.200   3.644   4.331  0.0673 -0.1943  0.5750
  476MOL0     H62775   7.282   3.419   4.145 -1.1722 -2.1517  1.2985
  476MOL0     H62776   7.167   3.418   4.269  2.4620 -0.3943  1.2263
  476MOL0     H62777   7.157   3.605   4.019  3.3400 -1.7691  0.6720
  476MOL0     H62778   7.025   3.583   4.127  1.4100  0.9501  0.1340
  476MOL0     H62779   7.041   3.330   4.036 -1.1332  0.1770 -1.2679
  476MOL0     H62780   7.155   3.406   3.923 -0.7380 -2.3823  0.4253
  476MOL0     H62781   6.857   3.479   3.941  0.1868  0.2711  0.5187
  476MOL0     H62782   6.996   3.556   3.841 -1.5107  2.7109  2.9021
  476MOL0     H62783   6.896   3.258   3.833  0.7848  0.7112  1.1670
  476MOL0     H62784   7.005   3.334   3.718  0.7476 -0.9289  1.8868
  476MOL0     H62785   6.875   3.621   3.651 -2.0142  1.1628  0.3728
  476MOL0     H62786   6.566   3.625   3.416 -0.6807  3.6488 -1.9682
  476MOL0     H62787   6.662   3.755   3.490 -3.6389  2.0996 -0.5561
  476MOL0     H62788   6.525   3.774   3.682 -1.2533 -1.9207  1.4348
  476MOL0     H62789   6.425   3.639   3.642  0.9083  1.5315  1.8889
  476MOL0     H62790   6.458   3.860   3.453  1.9140 -1.9588  0.5791
  476MOL0     H62791   6.334   3.725   3.454  0.0718 -1.7664  0.9937
  476MOL0     H62792   6.350   3.957   3.652 -2.3167  1.2018  1.1246
  476MOL0     H62793   6.259   3.807   3.673  2.9735  0.4286  1.7034
  476MOL0     H62794   6.012   4.088   3.421  0.9514 -0.4069 -0.4733
  476MOL0     H62795   5.787   4.036   3.425  2.3130  2.3332 -1.0887
  476MOL0     H62796   5.610   3.436   3.589  0.2800  2.5016  0.9879
  476MOL0     H62797   5.401   3.290   3.605 -4.5193 -1.1910 -3.2101
  476MOL0     H62798   5.211   3.194   3.653  1.7235  2.5714 -1.3898
  476MOL0     H62799   5.038   3.214   3.684 -1.0406  1.1396  3.0881
  476MOL0     H62800   5.086   3.321   3.896 -1.7316 -2.1250 -0.5554
  476MOL0     H62801   5.269   3.301   3.872  0.4630  0.5390 -0.7768
  476MOL0     H62802   5.181   3.145   4.007 -4.0066 -0.0705  0.4340
  476MOL0     H62803   5.267   3.079   3.861 -1.5256 -1.6915 -2.6639
  476MOL0     H62804   4.968   3.097   3.918 -0.0886  1.0608 -0.6591
  476MOL0     H62805   5.030   2.994   3.789  0.3745  1.0657 -0.5541
  476MOL0     H62806   5.129   2.945   4.074  1.9628 -1.1939 -0.4423
  476MOL0     H62807   5.141   2.850   3.927 -0.4471 -2.3108  2.0671
  476MOL0     H62808   4.982   2.737   4.081  0.7720  2.4638  3.1898
  476MOL0     H62809   4.888   2.809   3.937 -2.1549  0.1212  1.7877
  476MOL0     H62810   4.845   2.998   4.107  0.3656 -0.4676 -1.5768
  476MOL0     H62811   4.738   2.857   4.090  0.1313  1.0682 -2.6601
  476MOL0     H62812   4.764   2.902   4.316 -0.1183 -1.4279  1.0499
  476MOL0     H62813   4.936   2.904   4.313  0.1589  0.8896 -0.9748
  476MOL0     H62814   5.153   3.625   3.570  0.4170  2.3507 -0.4872
  476MOL0     H62815   5.360   3.775   3.525 -1.0160  0.7119 -3.2960
  476MOL0     H62816   5.863   3.633   3.560  0.6627 -1.2397 -1.9804
  476MOL0     H62817   6.098   3.699   3.587  0.9871  1.4066  0.2976
  476MOL0     H62818   7.666   3.820   4.559  2.0074 -2.2976  2.4430
  476MOL0     H62819   7.905   3.771   4.585 -0.1422 -4.7726  0.7256
  476MOL0     H62820   8.337   3.887   4.203  1.6802  0.6574  0.0924
  476MOL0     H62821   8.585   3.853   4.219 -1.1187  0.2885 -2.2210
  476MOL0     H62822   8.745   3.909   4.411  1.4773 -0.7349  2.2324
  476MOL0     H62823   8.818   3.804   4.285  1.2336  1.4810  0.1807
  476MOL0     H62824   8.992   3.900   4.422  3.4044 -2.3429  0.4595
  476MOL0     H62825   8.900   3.872   4.575  0.2271  0.2718 -0.4579
  476MOL0     H62826   8.996   3.651   4.401 -0.5952  0.3421 -0.7431
  476MOL0     H62827   8.906   3.647   4.556 -0.9635  1.6336 -0.6622
  476MOL0     H62828   9.158   3.803   4.599  0.4205 -0.5552  2.5104
  476MOL0     H62829   9.112   3.635   4.652  2.5623 -2.0262 -1.6119
  476MOL0     H62830   9.378   3.557   4.340  0.4292  1.1200 -0.0317
  476MOL0     H62831   8.523   3.574   4.541 -0.4845 -1.2460 -1.6186
  476MOL0     H62832   8.277   3.619   4.536 -4.3247 -0.0444 -4.7210
  477MOL0     O62833   7.107   9.451   3.651  0.0194  0.9765  1.5313
  477MOL0     C62834   7.101   9.406   3.541  0.1565 -0.0064  0.9052
  477MOL0     O62835   6.999   9.333   3.487  0.3814 -0.8304 -0.9006
  477MOL0     C62836   6.887   9.333   3.561  0.8653  0.6850  0.6224
  477MOL0     C62837   6.780   9.411   3.526 -0.1597  0.2103 -0.0507
  477MOL0     C62838   6.660   9.418   3.594 -0.0738  0.0402  0.1123
  477MOL0     C62839   6.640   9.333   3.703 -0.1390  0.2207  0.3437
  477MOL0     O62840   6.527   9.343   3.773  0.3633 -1.2372  0.3174
  477MOL0     C62841   6.539   9.337   3.915  0.2736 -0.6814 -0.5245
  477MOL0     C62842   6.475   9.213   3.984 -0.2237  0.5363 -0.5424
  477MOL0     C62843   6.321   9.228   3.984  0.0807 -0.2043 -0.1129
  477MOL0     C62844   6.277   9.114   4.065  0.5440  0.6883 -1.1867
  477MOL0     C62845   6.126   9.094   4.063  0.2900 -0.5857  0.4314
  477MOL0     C62846   6.055   9.227   4.102 -0.9885  0.0035  0.5643
  477MOL0     C62847   5.907   9.191   4.134  0.0583  0.0157  0.0569
  477MOL0     C62848   5.828   9.325   4.129  0.9561 -0.6455  0.0436
  477MOL0     N62849   5.698   9.311   4.191  0.0577  0.3257  0.6667
  477MOL0     C62850   5.674   9.336   4.328  0.2706 -1.0221  0.5740
  477MOL0     C62851   5.543   9.304   4.345  0.8530  0.2052 -0.2410
  477MOL0     C62852   5.453   9.326   4.463  0.3447 -0.6387 -0.1927
  477MOL0     C62853   5.331   9.415   4.429 -0.6393  0.3227  0.1178
  477MOL0     C62854   5.347   9.569   4.444 -0.5827  0.5122  0.4925
  477MOL0     C62855   5.221   9.641   4.392  0.5009  0.0321  0.2499
  477MOL0     O62856   5.111   9.622   4.469 -0.1256  0.4490  0.3450
  477MOL0     C62857   5.010   9.712   4.434 -0.8589 -0.3997 -0.4902
  477MOL0     C62858   4.948   9.705   4.312 -0.3196  0.0502 -0.0425
  477MOL0     C62859   4.847   9.786   4.289 -0.4010 -0.6219  0.0172
  477MOL0     C62860   4.790   9.889   4.377  0.1733  0.1361 -0.1505
  477MOL0     C62861   4.677   9.985   4.352 -0.6112  0.2608  0.1171
  477MOL0     O62862   4.634  10.068   4.446 -0.3553 -1.0117  0.1077
  477MOL0     C62863   4.511  10.127   4.453 -0.3255  0.0343  0.2580
  477MOL0     C62864   4.498  10.262   4.503 -0.3516 -0.4858 -0.2389
  477MOL0     C62865   4.374  10.324   4.498 -0.4691 -0.6900 -0.0893
  477MOL0     C62866   4.251  10.248   4.475 -0.0462 -0.1682  0.0899
  477MOL0     O62867   4.118  10.294   4.476 -0.1332 -0.4859 -0.1437
  477MOL0     C62868   4.105  10.432   4.500  0.2778 -0.0963 -0.8098
  477MOL0     C62869   3.961  10.464   4.528  0.8003 -0.3090  0.0312
  477MOL0     C62870   3.933  10.473   4.680 -0.4515 -0.3781 -1.2356
  477MOL0     C62871   3.809  10.557   4.709  0.0488  0.1574  0.3058
  477MOL0     C62872   3.675  10.493   4.659  0.3182  0.7030 -0.3282
  477MOL0     C62873   3.555  10.586   4.685  0.1844 -1.1761 -0.2610
  477MOL0     C62874   3.419  10.527   4.655 -0.1275 -0.5510 -0.5639
  477MOL0     C62875   3.297  10.619   4.706 -0.3187 -0.0470  0.9986
  477MOL0    Cl62876   3.144  10.531   4.683  0.0629 -0.0790  0.2561
  477MOL0     C62877   4.266  10.116   4.436 -0.4338 -0.5136  0.0784
  477MOL0     C62878   4.395  10.059   4.417  1.1202  0.5722  0.0007
  477MOL0     O62879   4.615   9.974   4.241  0.5707  0.5013 -0.9495
  477MOL0     C62880   4.847   9.887   4.505 -0.1158 -1.1446  0.2675
  477MOL0     C62881   4.960   9.803   4.529 -0.0441 -0.3415 -0.5915
  477MOL0     N62882   5.494   9.274   4.222 -0.1744 -0.0652  0.3157
  477MOL0     N62883   5.587   9.267   4.131  0.2267  0.1713 -0.1701
  477MOL0     C62884   6.746   9.236   3.734 -0.0278 -0.7023 -0.4516
  477MOL0     C62885   6.875   9.250   3.668  0.0175 -0.2531 -0.3635
  477MOL0     C62886   7.225   9.407   3.460  0.2037 -0.4256 -0.8593
  477MOL0     C62887   7.242   9.327   3.351  0.8771 -0.6532  0.0635
  477MOL0     C62888   7.359   9.325   3.276  0.5164 -0.4202 -0.4269
  477MOL0     C62889   7.471   9.394   3.326 -0.0600  0.1506  0.2817
  477MOL0     O62890   7.590   9.420   3.250  0.0434  0.1363  0.1682
  477MOL0     C62891   7.606   9.349   3.128  0.6592 -0.3464 -0.2652
  477MOL0     C62892   7.731   9.393   3.058 -0.7922  0.5582  0.2380
  477MOL0     C62893   7.859   9.323   3.096 -0.0307 -0.3898 -0.2918
  477MOL0     C62894   7.987   9.364   3.016  0.6567 -0.0097  0.1578
  477MOL0     C62895   8.107   9.330   3.094  0.3454 -0.3081 -0.3572
  477MOL0     C62896   8.214   9.331   3.149 -0.6739 -0.2121 -0.0393
  477MOL0     C62897   7.461   9.467   3.450 -0.8029 -0.2653  0.2099
  477MOL0     C62898   7.341   9.480   3.509  0.3940 -0.2050  0.1736
  477MOL0     H62899   6.794   9.461   3.430  0.3243 -1.2362 -0.7661
  477MOL0     H62900   6.577   9.485   3.572 -1.0694 -2.0271 -3.0559
  477MOL0     H62901   6.482   9.424   3.947 -0.9969 -1.8361  0.4837
  477MOL0     H62902   6.641   9.349   3.951  0.2739  1.6021 -1.1295
  477MOL0     H62903   6.516   9.207   4.085 -1.1519 -0.8273 -0.2110
  477MOL0     H62904   6.515   9.135   3.919  2.6214  2.4000 -1.2089
  477MOL0     H62905   6.291   9.198   3.883  2.1237 -0.9269 -0.5551
  477MOL0     H62906   6.287   9.328   4.009 -1.0387  1.1095 -5.5556
  477MOL0     H62907   6.320   9.017   4.037 -2.3276 -0.1342 -3.1756
  477MOL0     H62908   6.291   9.135   4.171 -0.3085 -1.6014 -0.5577
  477MOL0     H62909   6.095   9.009   4.124 -0.2001  0.0634  1.1013
  477MOL0     H62910   6.104   9.073   3.957  1.3376 -3.0541  0.6326
  477MOL0     H62911   6.065   9.301   4.021  0.6421  0.8121  1.4646
  477MOL0     H62912   6.089   9.278   4.193  0.0064 -0.4456  0.4529
  477MOL0     H62913   5.864   9.130   4.055 -0.4764 -1.5207  1.4952
  477MOL0     H62914   5.904   9.148   4.234  0.0364  3.4419  1.7059
  477MOL0     H62915   5.817   9.361   4.026  1.4936  1.6011  0.7094
  477MOL0     H62916   5.867   9.412   4.184 -1.5073  1.8984 -1.9444
  477MOL0     H62917   5.747   9.366   4.403  0.0709  0.7101  0.1182
  477MOL0     H62918   5.501   9.367   4.551 -0.8138 -0.0038  0.1665
  477MOL0     H62919   5.419   9.223   4.483  0.3959 -0.8351 -1.0660
  477MOL0     H62920   5.274   9.397   4.521  1.0713 -2.7313  0.7170
  477MOL0     H62921   5.261   9.385   4.350 -0.6708  2.4234 -0.7259
  477MOL0     H62922   5.366   9.600   4.547  1.0172 -0.6375  0.5903
  477MOL0     H62923   5.430   9.599   4.380 -2.0053  0.9061 -1.2575
  477MOL0     H62924   5.207   9.605   4.290  2.7671 -0.6549  0.1164
  477MOL0     H62925   5.243   9.748   4.383  0.3142  0.0998  0.5854
  477MOL0     H62926   4.982   9.641   4.231  0.8841  1.4250 -0.6847
  477MOL0     H62927   4.811   9.789   4.187  0.1061 -0.4133 -0.1596
  477MOL0     H62928   4.585  10.324   4.522 -1.7918  2.0172 -1.3564
  477MOL0     H62929   4.365  10.427   4.530  0.3489 -1.0838  1.4863
  477MOL0     H62930   4.148  10.495   4.421 -0.0256 -0.7330 -1.4920
  477MOL0     H62931   4.152  10.463   4.594 -2.5133  2.5420 -0.1154
  477MOL0     H62932   3.903  10.383   4.484 -1.8348  1.6318 -0.3297
  477MOL0     H62933   3.936  10.562   4.486  0.7856 -0.1011  0.5096
  477MOL0     H62934   4.019  10.505   4.740 -1.9473 -1.8225  1.8925
  477MOL0     H62935   3.917  10.372   4.719  0.3192 -0.0348  0.0325
  477MOL0     H62936   3.810  10.571   4.817  0.2823  1.8385  0.1138
  477MOL0     H62937   3.816  10.661   4.674  0.4009 -0.1895 -0.6940
  477MOL0     H62938   3.658  10.394   4.704  0.7457 -0.3871 -2.4335
  477MOL0     H62939   3.680  10.479   4.551 -1.8207 -0.5358 -0.3442
  477MOL0     H62940   3.559  10.666   4.611 -3.0980 -0.3782  0.2601
  477MOL0     H62941   3.542  10.627   4.786 -0.8952 -0.8012 -0.5438
  477MOL0     H62942   3.407  10.518   4.547 -1.1238  0.6071 -0.5773
  477MOL0     H62943   3.418  10.427   4.699 -1.7584  1.5046  5.0131
  477MOL0     H62944   3.291  10.714   4.652  2.4543  0.7327  1.9072
  477MOL0     H62945   3.307  10.647   4.811  0.1448  1.4093  0.5979
  477MOL0     H62946   4.187  10.044   4.417 -0.9254 -0.8740  2.9704
  477MOL0     H62947   4.388   9.960   4.373 -1.7648  1.7286 -2.4846
  477MOL0     H62948   4.821   9.953   4.587 -0.0682 -0.5875 -0.1556
  477MOL0     H62949   5.016   9.809   4.622 -0.9108  1.2151 -0.1408
  477MOL0     H62950   6.731   9.157   3.806 -1.5932 -0.8140 -0.8578
  477MOL0     H62951   6.942   9.170   3.697  0.1841 -1.6690 -4.1122
  477MOL0     H62952   7.165   9.266   3.305 -0.9949  2.4093 -1.1836
  477MOL0     H62953   7.364   9.269   3.183  1.3199 -0.5245 -0.3254
  477MOL0     H62954   7.519   9.372   3.066  2.0028  0.1225 -2.0730
  477MOL0     H62955   7.604   9.243   3.155  0.2673 -0.7652 -1.8409
  477MOL0     H62956   7.719   9.387   2.950  0.1828  0.3454  0.1291
  477MOL0     H62957   7.743   9.501   3.066 -1.0904  0.4614  3.5693
  477MOL0     H62958   7.856   9.216   3.070  3.1363 -0.6867  0.1366
  477MOL0     H62959   7.880   9.325   3.203 -0.9219 -2.6465 -0.0259
  477MOL0     H62960   7.987   9.312   2.920 -1.3072  0.4099 -0.0985
  477MOL0     H62961   8.011   9.470   3.005  3.4036 -0.6989 -1.6822
  477MOL0     H62962   8.305   9.336   3.205 -1.5747 -1.4649  1.6278
  477MOL0     H62963   7.543   9.521   3.496 -0.9145 -1.7264  2.2604
  477MOL0     H62964   7.329   9.538   3.600 -1.7233 -1.0333  0.4611
  478MOL0     O62965   5.502   4.722   2.007  0.2384  0.0287  0.2092
  478MOL0     C62966   5.620   4.700   1.999  0.7073 -0.3523 -0.3278
  478MOL0     O62967   5.699   4.718   1.884  0.3536  0.1118 -0.0459
  478MOL0     C62968   5.645   4.742   1.758  0.3522  0.4322  0.1006
  478MOL0     C62969   5.671   4.862   1.688 -0.0512 -0.1730 -0.3109
  478MOL0     C62970   5.627   4.888   1.556 -0.4871 -0.0273 -0.3133
  478MOL0     C62971   5.548   4.787   1.496  0.2501  0.5455 -0.4168
  478MOL0     O62972   5.495   4.817   1.375  0.0415 -0.3914 -0.2443
  478MOL0     C62973   5.408   4.728   1.296  0.3916  0.9317 -1.1593
  478MOL0     C62974   5.264   4.717   1.347 -0.5958 -0.1733 -0.7858
  478MOL0     C62975   5.173   4.647   1.249  0.4194  0.6946  0.5165
  478MOL0     C62976   5.207   4.503   1.205  0.1975  0.2263 -0.1533
  478MOL0     C62977   5.182   4.399   1.322 -0.2812  0.6628  0.0552
  478MOL0     C62978   5.207   4.249   1.275 -0.4520  0.2935 -0.1244
  478MOL0     C62979   5.101   4.192   1.179 -1.0100 -0.6265 -0.4656
  478MOL0     C62980   5.151   4.059   1.135 -0.4571  0.5347 -0.1452
  478MOL0     N62981   5.050   4.003   1.039  0.4557  0.8768  0.8950
  478MOL0     C62982   4.949   3.907   1.068 -0.8745 -0.3459  0.4349
  478MOL0     C62983   4.896   3.873   0.946 -0.6339 -0.3659 -0.0979
  478MOL0     C62984   4.801   3.751   0.928 -0.6413  0.1004 -0.7922
  478MOL0     C62985   4.672   3.772   1.011  0.4504  0.1467 -0.3022
  478MOL0     C62986   4.581   3.652   0.995 -1.0484 -0.1107  0.8230
  478MOL0     C62987   4.466   3.664   1.080  0.5341  0.3079  0.4406
  478MOL0     O62988   4.370   3.765   1.030 -0.0786 -0.1561 -0.0735
  478MOL0     C62989   4.246   3.776   1.096  0.3231  0.5469  1.1284
  478MOL0     C62990   4.202   3.696   1.208  0.0995 -0.8179 -0.4809
  478MOL0     C62991   4.078   3.728   1.266 -0.3334  0.3314  0.4150
  478MOL0     C62992   3.996   3.820   1.210 -0.4787 -0.3354  0.6100
  478MOL0     C62993   3.859   3.836   1.251  0.9667 -0.2716 -0.9444
  478MOL0     O62994   3.789   3.931   1.183  0.3496  0.2514  0.0741
  478MOL0     C62995   3.653   3.932   1.187 -0.2760 -0.3480 -0.8093
  478MOL0     C62996   3.588   4.047   1.157  0.3045 -0.5960 -0.5892
  478MOL0     C62997   3.453   4.052   1.144 -0.3039  0.1586  0.4333
  478MOL0     C62998   3.371   3.944   1.157 -0.2059  0.3350 -0.8630
  478MOL0     O62999   3.240   3.955   1.159 -0.2622  0.1215 -0.1100
  478MOL0     C63000   3.182   4.084   1.128  0.4180  0.3066 -0.4168
  478MOL0     C63001   3.032   4.071   1.168 -0.6487 -0.8713  0.1630
  478MOL0     C63002   2.962   4.003   1.048  0.0488  0.3056 -0.5790
  478MOL0     C63003   2.813   3.991   1.063  0.0396  0.6375  0.7427
  478MOL0     C63004   2.753   3.915   0.946 -0.7885  0.6244 -0.3791
  478MOL0     C63005   2.804   3.765   0.913 -0.0224  0.3971 -0.2165
  478MOL0     C63006   2.810   3.659   1.027  0.0120  0.5246  0.1405
  478MOL0     C63007   2.681   3.639   1.099  0.5575  0.4924  0.5474
  478MOL0    Cl63008   2.711   3.527   1.227 -0.0698 -0.1817 -0.2307
  478MOL0     C63009   3.442   3.818   1.190 -0.5556 -0.3188  0.4855
  478MOL0     C63010   3.580   3.817   1.194 -0.1324 -0.0942 -0.2049
  478MOL0     O63011   3.826   3.770   1.354  0.4246  0.0593  0.0171
  478MOL0     C63012   4.039   3.896   1.098 -0.4963  0.1631  0.0561
  478MOL0     C63013   4.164   3.873   1.046 -0.1623 -0.3940 -0.5265
  478MOL0     N63014   4.969   3.939   0.847  0.0511  0.5790  0.0859
  478MOL0     N63015   5.052   4.021   0.905 -0.1931 -0.3140  0.3660
  478MOL0     C63016   5.530   4.659   1.561  0.2422  0.0829 -0.3283
  478MOL0     C63017   5.582   4.636   1.688  0.7640 -0.3384  0.0232
  478MOL0     C63018   5.696   4.661   2.110 -0.4883  0.7262 -0.5139
  478MOL0     C63019   5.638   4.645   2.239  0.7010 -0.3734  0.6902
  478MOL0     C63020   5.720   4.618   2.352  0.1572 -0.1496  0.7751
  478MOL0     C63021   5.855   4.596   2.331  0.3754  0.0350 -0.6872
  478MOL0     O63022   5.923   4.571   2.448  0.4528  0.3616  0.7472
  478MOL0     C63023   6.066   4.610   2.456 -0.0975 -0.2635 -0.2518
  478MOL0     C63024   6.097   4.635   2.606  0.0555 -0.4083 -0.2011
  478MOL0     C63025   6.250   4.671   2.613  0.4971  0.1991 -0.1699
  478MOL0     C63026   6.306   4.664   2.763 -0.0480  0.5856 -0.6103
  478MOL0     C63027   6.232   4.771   2.841 -0.6793  0.0320 -0.2623
  478MOL0     C63028   6.179   4.870   2.891 -0.4331  0.1291  0.5839
  478MOL0     C63029   5.914   4.602   2.203  0.3012 -0.1832  0.2007
  478MOL0     C63030   5.839   4.643   2.096  0.7449  0.4187  0.7389
  478MOL0     H63031   5.736   4.942   1.722 -2.7816  2.2289 -0.3842
  478MOL0     H63032   5.644   4.981   1.503 -1.8373 -0.8991 -2.4225
  478MOL0     H63033   5.454   4.630   1.282  2.8149  2.4020 -5.0813
  478MOL0     H63034   5.420   4.763   1.193  3.0535  0.5572 -1.0430
  478MOL0     H63035   5.224   4.817   1.366 -1.1143 -0.2938 -1.2158
  478MOL0     H63036   5.261   4.671   1.447 -0.5174  1.8472  0.2050
  478MOL0     H63037   5.157   4.697   1.153  0.0642  0.3084  0.3707
  478MOL0     H63038   5.076   4.640   1.300 -0.9006 -1.3535 -2.0113
  478MOL0     H63039   5.134   4.472   1.129 -0.1787  1.6843 -0.4236
  478MOL0     H63040   5.309   4.499   1.166  0.9228 -1.3684  1.7428
  478MOL0     H63041   5.076   4.403   1.351 -0.8683 -3.7214 -0.7487
  478MOL0     H63042   5.250   4.412   1.407 -0.0527 -1.8474  0.3152
  478MOL0     H63043   5.207   4.191   1.367 -4.6906 -1.8443 -1.2460
  478MOL0     H63044   5.307   4.248   1.229 -0.9810  3.5482 -1.6849
  478MOL0     H63045   5.001   4.195   1.223 -1.1810  0.3240 -0.9005
  478MOL0     H63046   5.106   4.257   1.092 -0.0240  0.9507  0.7190
  478MOL0     H63047   5.158   3.999   1.227  3.6491  2.0812  0.7672
  478MOL0     H63048   5.245   4.075   1.083 -0.5273  1.9648  0.1312
  478MOL0     H63049   4.931   3.853   1.161  0.4320 -0.5528  0.5870
  478MOL0     H63050   4.862   3.664   0.955  3.5223  2.4437 -1.7495
  478MOL0     H63051   4.773   3.742   0.823  1.0678  0.5766 -1.3269
  478MOL0     H63052   4.619   3.864   0.984  0.7142  0.0112 -1.3359
  478MOL0     H63053   4.697   3.779   1.117 -0.1252  3.1770 -0.2567
  478MOL0     H63054   4.550   3.646   0.890 -2.6519  3.8506  0.9039
  478MOL0     H63055   4.632   3.560   1.026 -0.2544  0.0918  0.1655
  478MOL0     H63056   4.485   3.693   1.184  0.8909 -0.5254  0.6153
  478MOL0     H63057   4.423   3.566   1.102 -0.0322  0.7796  1.5616
  478MOL0     H63058   4.264   3.625   1.261  2.3817  0.8854 -0.7187
  478MOL0     H63059   4.047   3.676   1.357 -0.2431  0.0314  0.2782
  478MOL0     H63060   3.658   4.128   1.142  1.1297 -1.3659 -0.9452
  478MOL0     H63061   3.422   4.155   1.137  3.1565  1.2076 -3.0158
  478MOL0     H63062   3.180   4.118   1.023  1.2585  0.7972 -0.2865
  478MOL0     H63063   3.225   4.172   1.178 -1.1350  0.0771  1.4351
  478MOL0     H63064   3.003   4.175   1.189  2.4933  0.0941  0.2572
  478MOL0     H63065   3.027   4.017   1.262 -3.3233  0.4258  0.8617
  478MOL0     H63066   3.009   3.905   1.054  1.4441  0.9337 -0.8594
  478MOL0     H63067   2.985   4.051   0.953  0.7909 -0.0750 -0.5965
  478MOL0     H63068   2.794   3.932   1.153 -0.9802 -0.9704 -0.4693
  478MOL0     H63069   2.776   4.093   1.076  1.5448  1.0537  2.1995
  478MOL0     H63070   2.751   3.974   0.854  1.1274  0.9060 -0.2914
  478MOL0     H63071   2.646   3.906   0.966 -0.9057  0.8489 -0.8918
  478MOL0     H63072   2.909   3.785   0.892 -0.4110  2.1729 -0.6669
  478MOL0     H63073   2.739   3.729   0.833 -2.6043  4.1134 -0.0805
  478MOL0     H63074   2.850   3.564   0.991 -1.6769 -0.3504  0.4564
  478MOL0     H63075   2.881   3.693   1.104 -1.9531 -1.4851  3.0539
  478MOL0     H63076   2.604   3.616   1.025 -1.4647  2.6102  1.8407
  478MOL0     H63077   2.643   3.734   1.137 -5.0557 -0.5939 -1.3623
  478MOL0     H63078   3.379   3.730   1.197 -0.2566 -0.5083  0.8436
  478MOL0     H63079   3.638   3.726   1.203  5.2340  2.9289 -0.3758
  478MOL0     H63080   3.973   3.966   1.047 -1.2597 -2.2783 -2.5802
  478MOL0     H63081   4.201   3.932   0.962  0.9504  0.0899  0.2695
  478MOL0     H63082   5.477   4.578   1.512  2.0177  0.8552 -3.8480
  478MOL0     H63083   5.566   4.538   1.733  3.7107 -0.6229  0.6710
  478MOL0     H63084   5.538   4.678   2.268  0.4869 -1.9572  1.9051
  478MOL0     H63085   5.677   4.608   2.451 -1.5999 -0.9115 -0.0233
  478MOL0     H63086   6.075   4.709   2.409 -1.9425 -0.5047 -1.1667
  478MOL0     H63087   6.132   4.535   2.411 -1.2584  0.0331 -2.5802
  478MOL0     H63088   6.044   4.719   2.652  1.9075  2.0086 -2.2114
  478MOL0     H63089   6.068   4.550   2.670  0.1522  0.9956  1.8061
  478MOL0     H63090   6.263   4.777   2.589  0.2471 -0.0030 -1.2612
  478MOL0     H63091   6.320   4.620   2.545  1.4267  0.9845  0.1638
  478MOL0     H63092   6.290   4.566   2.810 -2.4924  0.4247 -1.6017
  478MOL0     H63093   6.408   4.701   2.761 -0.3233  1.3883 -0.2326
  478MOL0     H63094   6.135   4.965   2.912  0.3394  1.0717 -1.7224
  478MOL0     H63095   6.020   4.594   2.182  0.4379  2.1893 -0.3479
  478MOL0     H63096   5.892   4.644   2.002  0.9940 -0.2398  0.8703
  479MOL0     O63097   3.197   6.261   0.462 -0.3358  0.6117  0.4368
  479MOL0     C63098   3.223   6.144   0.493 -0.9151 -0.4527 -0.6598
  479MOL0     O63099   3.134   6.060   0.545 -0.5309 -0.5150 -0.0245
  479MOL0     C63100   3.006   6.108   0.548  0.6654  0.2028  0.0841
  479MOL0     C63101   2.952   6.128   0.679 -0.0857 -0.5116 -0.4591
  479MOL0     C63102   2.816   6.168   0.704 -0.4493 -0.1172  0.3304
  479MOL0     C63103   2.739   6.196   0.587  0.0265 -0.0522 -0.0883
  479MOL0     O63104   2.619   6.255   0.579  0.2762 -0.1110  0.0399
  479MOL0     C63105   2.571   6.333   0.689  0.0089  0.6331  0.9253
  479MOL0     C63106   2.439   6.402   0.646  0.7448  0.2164  0.4216
  479MOL0     C63107   2.322   6.313   0.613  0.1527  0.8127  0.1511
  479MOL0     C63108   2.261   6.259   0.745 -0.1198  0.7299  0.0810
  479MOL0     C63109   2.166   6.139   0.713  0.0371 -0.0259 -0.2050
  479MOL0     C63110   2.043   6.176   0.623  0.2600  1.7439  0.3516
  479MOL0     C63111   1.903   6.156   0.689 -0.0964  0.0615  0.0925
  479MOL0     C63112   1.803   6.083   0.601 -0.8712 -0.6977  0.4977
  479MOL0     N63113   1.659   6.112   0.643  0.2594  0.8348 -0.4898
  479MOL0     C63114   1.615   6.216   0.724  0.0452  0.8293  0.3391
  479MOL0     C63115   1.483   6.206   0.735 -0.0108 -0.2355  0.0129
  479MOL0     C63116   1.392   6.319   0.783 -0.4329  0.5652 -0.0499
  479MOL0     C63117   1.364   6.335   0.936  0.1393 -0.8865  0.0083
  479MOL0     C63118   1.282   6.222   1.000 -0.0027  0.5615 -1.0250
  479MOL0     C63119   1.144   6.203   0.933  0.0946 -0.5104 -0.2639
  479MOL0     O63120   1.061   6.316   0.959 -0.3017 -0.8455  0.1070
  479MOL0     C63121   0.925   6.303   0.939 -0.7145  0.4877 -1.2769
  479MOL0     C63122   0.843   6.407   0.976  0.8338  0.1548  0.3002
  479MOL0     C63123   0.701   6.401   0.977 -0.7644 -0.7170  0.2309
  479MOL0     C63124   0.648   6.275   0.948  0.0153  0.3356 -0.4449
  479MOL0     C63125   0.495   6.253   0.930  0.2031  0.4609 -0.2678
  479MOL0     O63126   0.421   6.359   0.972  0.3173 -0.8600 -0.1634
  479MOL0     C63127   0.284   6.349   0.958  0.6907 -0.5523  1.0189
  479MOL0     C63128   0.200   6.304   1.060 -0.2424  0.8503 -0.2165
  479MOL0     C63129   0.063   6.295   1.035 -0.2819  0.2171 -1.2914
  479MOL0     C63130   0.014   6.335   0.905 -0.2282  1.1514 -0.3542
  479MOL0     O63131  -0.119   6.334   0.865 -0.1548 -0.2203  0.4730
  479MOL0     C63132  -0.218   6.330   0.963  0.3863 -0.0887 -0.3172
  479MOL0     C63133  -0.336   6.395   0.883 -0.1149  0.4923 -0.4799
  479MOL0     C63134  -0.449   6.438   0.981  0.3295  0.1881 -0.8309
  479MOL0     C63135  -0.557   6.524   0.912 -0.3417  0.2073  0.8740
  479MOL0     C63136  -0.672   6.555   1.010  0.0555  0.2250 -0.5538
  479MOL0     C63137  -0.774   6.637   0.927 -0.6342  0.0957 -0.0279
  479MOL0     C63138  -0.870   6.710   1.022  0.4007  0.2190  0.2239
  479MOL0     C63139  -1.003   6.746   0.942 -0.3960 -0.0732 -0.1292
  479MOL0    Cl63140  -1.081   6.601   0.878  0.0513  0.1292  0.2992
  479MOL0     C63141   0.101   6.358   0.801 -0.2978  0.1090 -0.1867
  479MOL0     C63142   0.236   6.367   0.832  0.5934 -1.4112  0.6356
  479MOL0     O63143   0.455   6.149   0.877 -0.8212 -0.4102 -0.2346
  479MOL0     C63144   0.730   6.168   0.919 -0.0684  0.1287 -0.1409
  479MOL0     C63145   0.866   6.178   0.909  0.4684 -0.0227  0.5412
  479MOL0     N63146   1.454   6.080   0.684  0.0420  1.2318  0.2069
  479MOL0     N63147   1.556   6.028   0.626 -0.3884  0.9719  0.4178
  479MOL0     C63148   2.787   6.166   0.461 -0.3487  0.0283 -0.7395
  479MOL0     C63149   2.918   6.128   0.443  0.5208  0.3383 -0.0541
  479MOL0     C63150   3.363   6.103   0.475 -0.0527 -0.2899  0.3765
  479MOL0     C63151   3.416   6.015   0.562  0.5884  0.4095  0.6218
  479MOL0     C63152   3.549   5.989   0.555  0.2826 -0.4373 -1.4477
  479MOL0     C63153   3.633   6.049   0.458  0.8052 -1.0100 -0.3552
  479MOL0     O63154   3.769   6.053   0.461  0.0164 -0.0708 -0.1092
  479MOL0     C63155   3.835   6.039   0.592  0.6022  0.9986  0.5266
  479MOL0     C63156   3.982   6.083   0.589 -0.4378 -0.4579 -0.4464
  479MOL0     C63157   4.086   6.013   0.490  0.2925 -0.2441  0.6931
  479MOL0     C63158   4.219   6.088   0.471  0.0297 -0.1011  1.4918
  479MOL0     C63159   4.323   6.015   0.541 -0.1785 -0.4966  0.5434
  479MOL0     C63160   4.417   5.961   0.584 -0.5781  1.1790  0.1353
  479MOL0     C63161   3.577   6.136   0.366  0.5103  0.1038 -0.2845
  479MOL0     C63162   3.445   6.160   0.376  0.9810 -0.2642 -0.0111
  479MOL0     H63163   3.008   6.116   0.771 -0.4706  1.2336  0.0231
  479MOL0     H63164   2.781   6.196   0.803 -0.6176  0.0568  0.2212
  479MOL0     H63165   2.642   6.412   0.715  0.2501  0.9852 -0.6994
  479MOL0     H63166   2.549   6.262   0.769 -2.2630 -0.0598 -0.2079
  479MOL0     H63167   2.467   6.453   0.554 -1.3267  0.1576 -0.3052
  479MOL0     H63168   2.418   6.480   0.720 -1.0393  0.7957 -0.6340
  479MOL0     H63169   2.357   6.232   0.548 -0.3697  0.3912  0.3946
  479MOL0     H63170   2.245   6.372   0.562  0.6174  2.0065  0.7958
  479MOL0     H63171   2.349   6.219   0.795  2.0326  0.1344 -3.7476
  479MOL0     H63172   2.223   6.330   0.819  0.1576  0.1892  0.7457
  479MOL0     H63173   2.131   6.100   0.809  0.2704 -1.2770 -0.6105
  479MOL0     H63174   2.218   6.053   0.669 -1.0369  0.4988 -2.7244
  479MOL0     H63175   2.047   6.119   0.530 -1.0778 -0.6948  1.6880
  479MOL0     H63176   2.047   6.282   0.595  3.8685  1.0052 -2.8228
  479MOL0     H63177   1.912   6.109   0.787 -1.0720 -1.6247 -0.5902
  479MOL0     H63178   1.868   6.259   0.696 -2.1871 -0.7193  2.6559
  479MOL0     H63179   1.820   5.975   0.599 -1.0681 -0.7226 -1.2125
  479MOL0     H63180   1.823   6.113   0.498 -0.2262 -2.3799  0.1008
  479MOL0     H63181   1.671   6.304   0.755 -1.0029  1.8611 -0.6266
  479MOL0     H63182   1.299   6.306   0.727 -1.1001 -0.2731  1.2133
  479MOL0     H63183   1.444   6.409   0.751  2.8918 -2.0488 -2.8084
  479MOL0     H63184   1.303   6.425   0.942 -0.3418 -1.2842  1.8729
  479MOL0     H63185   1.460   6.350   0.986  0.6884  0.4609 -1.4054
  479MOL0     H63186   1.332   6.126   0.986  0.0884  0.6257 -1.1464
  479MOL0     H63187   1.267   6.243   1.106  0.6369 -0.5426 -0.6976
  479MOL0     H63188   1.095   6.119   0.982 -0.3114 -0.2660 -0.2459
  479MOL0     H63189   1.148   6.193   0.824  2.6666  0.3560 -0.3174
  479MOL0     H63190   0.886   6.502   1.007 -0.3433  1.0736 -0.7949
  479MOL0     H63191   0.639   6.482   1.014  0.5431 -0.6973  2.5238
  479MOL0     H63192   0.243   6.277   1.156  2.1025  2.4809 -0.7240
  479MOL0     H63193  -0.008   6.278   1.115 -1.6953  2.5247 -1.9531
  479MOL0     H63194  -0.198   6.404   1.042  1.0496  0.3020 -0.8391
  479MOL0     H63195  -0.236   6.232   1.007 -2.6104  0.5472  0.0753
  479MOL0     H63196  -0.372   6.334   0.800 -3.9250  0.9253  0.6911
  479MOL0     H63197  -0.306   6.486   0.829 -1.9155  1.0254 -0.6367
  479MOL0     H63198  -0.413   6.488   1.071  1.5186 -3.8261  1.2050
  479MOL0     H63199  -0.484   6.342   1.020 -0.2507  0.0393 -1.6927
  479MOL0     H63200  -0.517   6.618   0.872 -0.1046  1.8325  4.4696
  479MOL0     H63201  -0.599   6.468   0.828  2.3805 -0.3727 -0.1898
  479MOL0     H63202  -0.634   6.620   1.089 -1.3288  1.7726 -1.1005
  479MOL0     H63203  -0.713   6.465   1.055 -1.3996  1.8203  1.5338
  479MOL0     H63204  -0.826   6.569   0.858 -1.1176 -1.3403  1.6662
  479MOL0     H63205  -0.724   6.720   0.876  0.7988 -0.1364  0.9324
  479MOL0     H63206  -0.892   6.635   1.099  1.0395 -1.1609 -0.9044
  479MOL0     H63207  -0.839   6.803   1.071 -1.4216  1.1055 -0.1871
  479MOL0     H63208  -0.974   6.800   0.852  1.1203  2.2606  1.6569
  479MOL0     H63209  -1.065   6.804   1.011  0.7087  2.3635 -1.0720
  479MOL0     H63210   0.060   6.385   0.704  1.2797  2.1712 -0.3319
  479MOL0     H63211   0.297   6.385   0.744  0.0128 -0.7788  0.3470
  479MOL0     H63212   0.685   6.074   0.888 -0.9155  0.9796 -1.6417
  479MOL0     H63213   0.923   6.100   0.860  0.3902  0.8185 -0.9395
  479MOL0     H63214   2.731   6.186   0.370 -2.6808 -0.9493  0.4163
  479MOL0     H63215   2.961   6.106   0.346  3.4065  0.0133  1.2177
  479MOL0     H63216   3.357   5.974   0.643  3.1179 -2.9259  0.9875
  479MOL0     H63217   3.594   5.935   0.637 -0.2045 -0.0926 -0.9445
  479MOL0     H63218   3.824   5.938   0.632 -1.6916  0.3147 -1.5578
  479MOL0     H63219   3.783   6.102   0.664 -1.2741 -1.7615  1.7554
  479MOL0     H63220   3.972   6.190   0.573  0.3785  0.2925  3.1618
  479MOL0     H63221   4.027   6.064   0.687  0.3132 -2.7557 -1.1508
  479MOL0     H63222   4.031   6.009   0.395  0.9036 -1.1725  0.3615
  479MOL0     H63223   4.098   5.909   0.521 -0.2220  0.2053  2.5479
  479MOL0     H63224   4.239   6.077   0.364 -1.4081  0.6342  1.1228
  479MOL0     H63225   4.220   6.193   0.503  0.7366  0.4337 -0.1790
  479MOL0     H63226   4.503   5.904   0.612 -2.7200 -2.5946 -0.2762
  479MOL0     H63227   3.645   6.188   0.299  2.4616  0.8351  2.1312
  479MOL0     H63228   3.406   6.240   0.315  1.1311 -0.2404 -0.0766
  480MOL0     O63229   2.979   1.934   3.537 -0.5109 -0.3089 -0.6256
  480MOL0     C63230   2.882   1.857   3.548 -1.1834 -0.4838 -0.0277
  480MOL0     O63231   2.891   1.723   3.528  0.0150  0.2418 -0.1423
  480MOL0     C63232   3.011   1.668   3.494  0.3151 -0.0483 -0.3343
  480MOL0     C63233   3.054   1.681   3.356 -0.5192  1.0218 -0.9942
  480MOL0     C63234   3.171   1.616   3.328 -0.4606 -0.1276  0.8081
  480MOL0     C63235   3.244   1.546   3.422  0.1954  0.8225  0.6931
  480MOL0     O63236   3.347   1.454   3.379 -0.3072 -0.5330 -0.0656
  480MOL0     C63237   3.433   1.502   3.276 -0.5948 -0.0284 -0.1062
  480MOL0     C63238   3.542   1.393   3.259  0.0335  0.5553 -0.0599
  480MOL0     C63239   3.680   1.458   3.220 -0.4410  0.7075 -0.3292
  480MOL0     C63240   3.791   1.345   3.218  0.2912 -0.1583  0.6006
  480MOL0     C63241   3.759   1.229   3.130 -0.9274 -0.4949  0.0947
  480MOL0     C63242   3.739   1.268   2.980  0.4609  0.0626 -0.7160
  480MOL0     C63243   3.727   1.151   2.883  0.3416 -0.6750  0.7084
  480MOL0     C63244   3.608   1.055   2.922 -0.4331  0.1247  0.1466
  480MOL0     N63245   3.483   1.132   2.953 -0.3053 -0.1788  0.5530
  480MOL0     C63246   3.396   1.088   3.048  0.8856 -0.1775  0.5066
  480MOL0     C63247   3.292   1.177   3.028 -0.1324  0.4221 -0.6617
  480MOL0     C63248   3.149   1.170   3.074  0.1855  0.0311  0.7116
  480MOL0     C63249   3.101   1.298   3.123  0.6784 -0.3165  0.6169
  480MOL0     C63250   3.007   1.362   3.020 -0.2742  0.0234  0.2970
  480MOL0     C63251   2.870   1.347   3.064 -0.4743 -0.1463  0.1296
  480MOL0     O63252   2.844   1.405   3.193  0.1735 -0.5271  0.6816
  480MOL0     C63253   2.720   1.456   3.207  0.6367  0.3890  0.3580
  480MOL0     C63254   2.687   1.579   3.269  0.3482 -0.1428 -0.8029
  480MOL0     C63255   2.561   1.628   3.291  0.1096 -0.2497  0.1672
  480MOL0     C63256   2.447   1.549   3.245  0.4750 -0.8328  0.8682
  480MOL0     C63257   2.306   1.599   3.267 -0.2283  0.8026 -0.2556
  480MOL0     O63258   2.286   1.697   3.357 -0.1531  0.6791 -0.4713
  480MOL0     C63259   2.157   1.744   3.368 -1.0070  0.5236  0.4666
  480MOL0     C63260   2.131   1.866   3.318  0.6134  0.0556 -0.2868
  480MOL0     C63261   1.999   1.916   3.327 -0.0317  0.1832  0.2479
  480MOL0     C63262   1.894   1.834   3.370 -0.0802 -0.5432  0.6967
  480MOL0     O63263   1.760   1.858   3.361 -0.5899 -0.3536  0.1723
  480MOL0     C63264   1.718   1.982   3.304 -0.5263 -0.8853 -0.1908
  480MOL0     C63265   1.570   1.995   3.288 -0.9139 -0.0107 -0.5815
  480MOL0     C63266   1.528   2.141   3.247  0.7595  0.5243 -0.4150
  480MOL0     C63267   1.386   2.178   3.286 -0.6922  0.6245  0.5337
  480MOL0     C63268   1.284   2.067   3.246 -0.2305 -0.7633  0.5576
  480MOL0     C63269   1.147   2.103   3.288  0.3547  0.2167  0.2040
  480MOL0     C63270   1.039   1.987   3.252 -0.6591  0.4868 -1.0096
  480MOL0     C63271   0.904   2.024   3.328  0.2168 -1.4780 -1.1094
  480MOL0    Cl63272   0.751   1.965   3.269 -0.0970  0.0815 -0.0070
  480MOL0     C63273   1.929   1.709   3.412  0.0443  0.5976  0.6279
  480MOL0     C63274   2.060   1.659   3.414  0.0243  0.8630  0.1985
  480MOL0     O63275   2.223   1.553   3.190  0.6491  0.6861  0.0379
  480MOL0     C63276   2.476   1.429   3.176  0.1458 -0.3003 -1.2693
  480MOL0     C63277   2.603   1.384   3.164 -0.4828 -0.0460  0.2891
  480MOL0     N63278   3.316   1.265   2.919 -0.0473 -0.5365 -0.1692
  480MOL0     N63279   3.431   1.225   2.865  0.1299 -0.1334  0.6661
  480MOL0     C63280   3.197   1.547   3.558 -0.3653  0.4168  0.1154
  480MOL0     C63281   3.080   1.605   3.596  0.4898  0.4084  0.4220
  480MOL0     C63282   2.743   1.905   3.563  0.3352 -0.2607 -0.5359
  480MOL0     C63283   2.712   2.040   3.572  0.3475 -0.1332  0.9866
  480MOL0     C63284   2.583   2.079   3.601 -0.2381  0.3121 -0.8097
  480MOL0     C63285   2.480   1.993   3.591  0.6147  0.4470  0.1787
  480MOL0     O63286   2.347   2.022   3.608 -0.2454 -0.2998  0.5439
  480MOL0     C63287   2.311   2.157   3.638  0.2416 -0.2373  0.7000
  480MOL0     C63288   2.158   2.169   3.648  0.5305 -0.1988 -1.1370
  480MOL0     C63289   2.105   2.118   3.783 -0.2535  0.0816  0.1262
  480MOL0     C63290   1.962   2.175   3.809 -0.0110  0.0692  0.6969
  480MOL0     C63291   1.862   2.105   3.723  0.2731 -0.6454  0.1033
  480MOL0     C63292   1.775   2.046   3.663  0.0591 -0.1485 -0.1318
  480MOL0     C63293   2.513   1.857   3.580 -0.9423 -0.1249  0.1878
  480MOL0     C63294   2.643   1.813   3.572  0.2000 -0.6154  0.6329
  480MOL0     H63295   2.994   1.720   3.274 -1.0120  1.7616 -0.2997
  480MOL0     H63296   3.192   1.621   3.222  1.5502  0.3593  1.1841
  480MOL0     H63297   3.468   1.594   3.324 -0.6154  0.1385 -0.4108
  480MOL0     H63298   3.380   1.535   3.186  0.8156 -1.0128 -1.3443
  480MOL0     H63299   3.498   1.326   3.184  1.5564  0.6249 -1.0459
  480MOL0     H63300   3.554   1.336   3.351 -2.5052 -1.8740 -1.0732
  480MOL0     H63301   3.709   1.533   3.295 -1.0055 -0.3777  1.0257
  480MOL0     H63302   3.684   1.511   3.125  0.4137  0.8106 -0.2438
  480MOL0     H63303   3.883   1.396   3.185 -0.0468 -0.3920 -0.7910
  480MOL0     H63304   3.803   1.304   3.318  0.8663 -1.0581  0.1768
  480MOL0     H63305   3.678   1.173   3.177 -1.3903 -0.1993 -0.3450
  480MOL0     H63306   3.845   1.162   3.135  0.1403  0.8901  1.0973
  480MOL0     H63307   3.826   1.324   2.943  0.2036  0.2846 -0.9957
  480MOL0     H63308   3.654   1.336   2.969  1.6537  1.5078 -1.3621
  480MOL0     H63309   3.705   1.184   2.781  2.1486 -0.4535  0.3628
  480MOL0     H63310   3.819   1.092   2.882  1.7403  1.4076  0.4580
  480MOL0     H63311   3.630   0.991   3.008  2.5829 -0.1854 -0.7355
  480MOL0     H63312   3.586   0.987   2.839 -1.1419 -0.2180  0.5986
  480MOL0     H63313   3.398   1.006   3.120 -1.4664  0.0403  0.8870
  480MOL0     H63314   3.136   1.101   3.158 -1.7951 -0.4256  0.0851
  480MOL0     H63315   3.089   1.126   2.994 -3.7011 -1.1878  3.9235
  480MOL0     H63316   3.184   1.368   3.136  0.7300  0.4392 -2.7188
  480MOL0     H63317   3.044   1.295   3.216 -0.5026  3.2389  0.1556
  480MOL0     H63318   3.021   1.470   3.016 -3.5131  0.5029 -1.0009
  480MOL0     H63319   3.013   1.334   2.915 -0.8486  2.2231 -0.3658
  480MOL0     H63320   2.844   1.241   3.070 -0.7907 -0.0107  1.6465
  480MOL0     H63321   2.806   1.403   2.995  0.1258  0.8969  0.4102
  480MOL0     H63322   2.760   1.649   3.309 -0.4578  1.5186 -2.1610
  480MOL0     H63323   2.543   1.722   3.341  1.6553 -1.1256  2.5539
  480MOL0     H63324   2.210   1.917   3.263 -1.1481  0.0762 -2.9528
  480MOL0     H63325   1.977   2.011   3.280 -2.0767 -2.0726 -3.9158
  480MOL0     H63326   1.761   1.989   3.203 -1.2872  0.7416 -0.4426
  480MOL0     H63327   1.740   2.064   3.373 -2.7958  1.1447 -1.7154
  480MOL0     H63328   1.536   1.981   3.391 -1.8249  1.4451 -0.6647
  480MOL0     H63329   1.535   1.908   3.232  0.5886  0.9716 -3.2421
  480MOL0     H63330   1.542   2.145   3.139  2.5431 -2.4888 -0.4073
  480MOL0     H63331   1.601   2.210   3.290  1.0078 -0.1043  0.1963
  480MOL0     H63332   1.388   2.179   3.395  1.4999 -2.9174  0.6865
  480MOL0     H63333   1.366   2.276   3.243 -1.0217 -0.6739 -2.5397
  480MOL0     H63334   1.303   1.973   3.299  3.3774  0.4919  1.7928
  480MOL0     H63335   1.293   2.051   3.138  0.2009 -0.0155  0.4773
  480MOL0     H63336   1.119   2.202   3.252  0.7264  0.2824  0.0896
  480MOL0     H63337   1.141   2.109   3.397 -0.5825  2.0243  0.0773
  480MOL0     H63338   1.031   1.958   3.147  1.9218 -4.5039 -0.1213
  480MOL0     H63339   1.073   1.892   3.295 -0.7515  1.8520  2.4336
  480MOL0     H63340   0.899   2.133   3.317  1.7046 -1.3632 -0.8312
  480MOL0     H63341   0.919   1.996   3.433 -0.3851 -3.1706 -1.4422
  480MOL0     H63342   1.849   1.641   3.440 -0.7769  0.5136 -1.6699
  480MOL0     H63343   2.080   1.559   3.451 -0.1850 -0.2761 -2.5295
  480MOL0     H63344   2.393   1.367   3.143 -1.5784  2.0899 -1.6659
  480MOL0     H63345   2.621   1.284   3.124  1.8406 -0.2011  1.5659
  480MOL0     H63346   3.248   1.485   3.631 -2.0724 -0.3337  0.7394
  480MOL0     H63347   3.034   1.595   3.693  0.3558  0.8217  0.4046
  480MOL0     H63348   2.793   2.112   3.566 -0.6802  0.9614 -0.8072
  480MOL0     H63349   2.560   2.184   3.619 -0.1690 -0.1484  2.6544
  480MOL0     H63350   2.334   2.230   3.559 -1.6575  2.0522  2.1003
  480MOL0     H63351   2.365   2.200   3.723  2.9946 -1.9670 -0.0416
  480MOL0     H63352   2.137   2.274   3.627  2.5360  0.3660 -0.6086
  480MOL0     H63353   2.115   2.104   3.572 -0.5449 -1.4292  0.4704
  480MOL0     H63354   2.170   2.144   3.866  0.4662 -0.7174 -0.1737
  480MOL0     H63355   2.092   2.010   3.776 -2.1474  0.3403 -1.2870
  480MOL0     H63356   1.924   2.167   3.912 -1.0548  1.3358  0.4398
  480MOL0     H63357   1.973   2.283   3.793 -0.5317 -0.0031 -0.2432
  480MOL0     H63358   1.710   1.988   3.601  1.0561 -2.2307  0.6782
  480MOL0     H63359   2.431   1.786   3.584 -0.1204 -1.0807  0.3777
  480MOL0     H63360   2.662   1.706   3.569  1.4213 -0.4009  0.1384
  481MOL0     O63361   1.598   1.681   5.751  0.2179 -0.6455 -0.2091
  481MOL0     C63362   1.636   1.615   5.661 -0.8254  0.4623  0.1907
  481MOL0     O63363   1.570   1.593   5.542 -0.4879  0.0772  0.3369
  481MOL0     C63364   1.436   1.617   5.535  0.7136 -0.1098 -0.2296
  481MOL0     C63365   1.350   1.518   5.476  1.2247  0.0477 -0.7150
  481MOL0     C63366   1.210   1.529   5.470 -0.5081 -0.1708 -0.3874
  481MOL0     C63367   1.154   1.643   5.523  0.4098  0.3222  0.5332
  481MOL0     O63368   1.014   1.646   5.525 -0.4232  0.6981 -0.2008
  481MOL0     C63369   0.941   1.750   5.582  0.0283 -0.2790  0.3107
  481MOL0     C63370   0.794   1.725   5.554 -0.1777 -0.7628  0.2094
  481MOL0     C63371   0.711   1.854   5.560 -0.2197 -0.0264  0.6933
  481MOL0     C63372   0.730   1.927   5.424 -0.0332  0.4511  0.4604
  481MOL0     C63373   0.656   2.059   5.407  0.4778  1.1853 -0.1479
  481MOL0     C63374   0.706   2.127   5.277 -0.8421 -0.3762 -0.8050
  481MOL0     C63375   0.638   2.262   5.290 -0.1644 -0.1360  0.4790
  481MOL0     C63376   0.629   2.336   5.152  0.1241  0.4243 -0.0142
  481MOL0     N63377   0.582   2.470   5.163  0.3072  0.6169 -0.6973
  481MOL0     C63378   0.442   2.504   5.163  0.1373  0.8958 -0.1074
  481MOL0     C63379   0.444   2.633   5.135 -0.4131  0.8721  0.3879
  481MOL0     C63380   0.318   2.703   5.118 -0.6960 -1.4095 -0.6238
  481MOL0     C63381   0.343   2.836   5.038 -0.1149  0.0262  0.0393
  481MOL0     C63382   0.224   2.898   4.972  0.7244 -0.6345  0.1736
  481MOL0     C63383   0.132   2.968   5.085 -0.5767 -0.3790  0.2429
  481MOL0     O63384   0.057   3.077   5.025  0.8181 -0.3915 -1.0559
  481MOL0     C63385  -0.073   3.068   5.000  0.6173 -0.9838  0.4171
  481MOL0     C63386  -0.124   3.145   4.894  0.6254  0.7732 -0.2029
  481MOL0     C63387  -0.263   3.160   4.875 -0.1636  0.0743  0.2975
  481MOL0     C63388  -0.353   3.100   4.963  0.2720 -0.3040 -0.5603
  481MOL0     C63389  -0.501   3.124   4.964 -0.0203  0.2063 -0.0700
  481MOL0     O63390  -0.583   3.038   5.028 -0.7644 -0.2011  0.3734
  481MOL0     C63391  -0.709   3.027   4.979  0.3756 -0.4040  0.2023
  481MOL0     C63392  -0.814   3.031   5.074  0.5341  1.0216 -0.7214
  481MOL0     C63393  -0.943   2.991   5.039  0.4917 -0.1253  0.2971
  481MOL0     C63394  -0.973   2.963   4.904  1.4396 -0.3100  0.5294
  481MOL0     O63395  -1.099   2.927   4.857  0.4564  0.0535 -1.1030
  481MOL0     C63396  -1.220   2.969   4.927 -0.2151 -0.0464  1.0079
  481MOL0     C63397  -1.334   2.953   4.834 -0.2333  0.3493  0.0041
  481MOL0     C63398  -1.473   3.005   4.873 -0.2942 -0.0337 -1.4659
  481MOL0     C63399  -1.528   2.925   4.988  0.2325 -0.2906  0.4512
  481MOL0     C63400  -1.664   2.989   5.034  1.0530 -0.7748  0.3414
  481MOL0     C63401  -1.751   2.883   5.106  0.6591 -0.3510 -0.1179
  481MOL0     C63402  -1.846   2.814   5.018  0.9131 -0.3825 -0.5613
  481MOL0     C63403  -1.946   2.727   5.100 -0.3453 -0.4912  0.8683
  481MOL0    Cl63404  -2.047   2.813   5.226 -0.1738 -0.3650  0.1254
  481MOL0     C63405  -0.870   2.950   4.811 -0.2710  0.1266  0.0393
  481MOL0     C63406  -0.736   2.979   4.851 -0.0353 -0.4763 -0.5408
  481MOL0     O63407  -0.541   3.199   4.879 -0.1877 -0.4736 -0.0781
  481MOL0     C63408  -0.305   3.019   5.071 -0.6166 -0.6792 -0.2038
  481MOL0     C63409  -0.165   3.008   5.091 -0.4179 -0.6462  0.8520
  481MOL0     N63410   0.575   2.679   5.106  0.3769 -0.2783  0.5266
  481MOL0     N63411   0.653   2.577   5.121  0.1999  0.0973  0.5077
  481MOL0     C63412   1.235   1.747   5.582 -0.5315 -0.1365  0.3636
  481MOL0     C63413   1.375   1.728   5.590 -0.0598  0.8201 -0.4364
  481MOL0     C63414   1.786   1.580   5.660 -0.4914 -0.2777  0.0418
  481MOL0     C63415   1.879   1.650   5.741  0.6527 -0.3290  0.7645
  481MOL0     C63416   2.013   1.623   5.730  0.0056  0.0023  0.2055
  481MOL0     C63417   2.059   1.520   5.655 -0.4442 -0.2761 -0.2514
  481MOL0     O63418   2.192   1.499   5.647  0.5333 -0.0525  0.9870
  481MOL0     C63419   2.257   1.612   5.604  0.5242 -0.3248 -0.2715
  481MOL0     C63420   2.382   1.568   5.560 -0.0907  0.5494  0.3836
  481MOL0     C63421   2.469   1.499   5.675  0.4346  0.0141 -0.0739
  481MOL0     C63422   2.619   1.491   5.640  0.1518 -0.2349  0.3023
  481MOL0     C63423   2.678   1.619   5.610  0.2794  0.5650 -0.0235
  481MOL0     C63424   2.705   1.734   5.588  0.1685 -0.5314 -0.3620
  481MOL0     C63425   1.969   1.441   5.579  0.0500  0.0943 -0.6309
  481MOL0     C63426   1.834   1.474   5.577 -0.0857 -0.9833  0.0547
  481MOL0     H63427   1.396   1.423   5.449 -1.1786 -1.9016  1.4637
  481MOL0     H63428   1.153   1.442   5.439 -0.3856 -1.6720  3.0975
  481MOL0     H63429   0.976   1.844   5.538 -0.3129 -1.4757 -2.7860
  481MOL0     H63430   0.962   1.740   5.689 -2.2769 -1.0982  0.7468
  481MOL0     H63431   0.756   1.653   5.626 -0.3670 -1.9228 -1.0095
  481MOL0     H63432   0.782   1.682   5.454  1.2230  0.3757 -0.4999
  481MOL0     H63433   0.740   1.921   5.641  0.8161  0.9324 -0.4266
  481MOL0     H63434   0.603   1.840   5.575 -0.4691 -4.2825 -2.9174
  481MOL0     H63435   0.836   1.953   5.413  0.0237 -0.0994 -0.3782
  481MOL0     H63436   0.699   1.856   5.347  1.0425 -1.7182  1.9142
  481MOL0     H63437   0.663   2.128   5.491 -0.4190  1.1064  0.0002
  481MOL0     H63438   0.553   2.022   5.399  1.4902 -1.5458 -2.3402
  481MOL0     H63439   0.680   2.070   5.187  1.6488 -2.5260 -0.2944
  481MOL0     H63440   0.815   2.123   5.274 -0.7817  1.0284 -1.4083
  481MOL0     H63441   0.533   2.244   5.313 -0.1402  0.2089  0.8711
  481MOL0     H63442   0.683   2.325   5.367 -3.5641  1.4909  1.3025
  481MOL0     H63443   0.563   2.295   5.075  0.2270  0.2612 -0.0153
  481MOL0     H63444   0.731   2.329   5.114  1.1147 -0.9455  2.6545
  481MOL0     H63445   0.358   2.445   5.197  1.3796 -0.3146  1.0141
  481MOL0     H63446   0.280   2.728   5.217  1.7152 -1.8244  0.4621
  481MOL0     H63447   0.248   2.645   5.057 -0.6755  0.2968 -2.3954
  481MOL0     H63448   0.420   2.823   4.961  1.3218 -1.1719  1.5970
  481MOL0     H63449   0.390   2.904   5.109  4.5732 -1.7888 -0.9757
  481MOL0     H63450   0.253   2.984   4.911 -0.5942 -0.8232 -0.7559
  481MOL0     H63451   0.162   2.821   4.926 -0.4279 -0.4048  1.2854
  481MOL0     H63452   0.188   3.004   5.172  1.9436  1.8096 -2.0971
  481MOL0     H63453   0.068   2.884   5.115 -1.4916  0.2884  0.2029
  481MOL0     H63454  -0.059   3.209   4.835  0.4304  2.3931  1.2495
  481MOL0     H63455  -0.294   3.219   4.789  1.2420 -2.5288 -2.1694
  481MOL0     H63456  -0.792   3.065   5.174  0.5437 -0.9834  0.0008
  481MOL0     H63457  -1.022   2.991   5.114  1.2603 -2.9308  1.2133
  481MOL0     H63458  -1.213   3.074   4.957 -2.5987  0.3586  0.3507
  481MOL0     H63459  -1.229   2.905   5.015  1.4593 -1.9877 -0.1501
  481MOL0     H63460  -1.332   2.844   4.821  1.5735 -0.5257  5.1729
  481MOL0     H63461  -1.305   2.996   4.738  0.4822 -0.4025 -0.1397
  481MOL0     H63462  -1.537   2.985   4.787 -1.0016 -1.4501 -0.6516
  481MOL0     H63463  -1.460   3.108   4.906  0.7503  0.1949 -2.5242
  481MOL0     H63464  -1.561   2.829   4.946  0.8072  0.3870 -1.6433
  481MOL0     H63465  -1.458   2.914   5.071 -1.0924 -1.5449  1.4713
  481MOL0     H63466  -1.721   3.038   4.955  3.2700 -0.2809 -1.0189
  481MOL0     H63467  -1.650   3.070   5.106 -1.7328 -1.1250  1.4070
  481MOL0     H63468  -1.810   2.937   5.180  0.9875 -0.2964  0.1095
  481MOL0     H63469  -1.685   2.807   5.149 -2.0651 -3.0901 -0.4315
  481MOL0     H63470  -1.910   2.890   4.972 -1.6726 -0.8842  1.8959
  481MOL0     H63471  -1.789   2.753   4.947  1.4936 -0.5726  0.0550
  481MOL0     H63472  -1.891   2.654   5.160  2.7015  0.5963 -0.4184
  481MOL0     H63473  -2.013   2.665   5.039 -1.7158  0.8560  0.9298
  481MOL0     H63474  -0.886   2.915   4.710  0.1982  0.0567 -0.0167
  481MOL0     H63475  -0.657   2.956   4.781 -1.4563 -1.5484 -1.8595
  481MOL0     H63476  -0.382   2.996   5.143 -0.7167  2.7107  0.9448
  481MOL0     H63477  -0.129   2.946   5.173  5.0407  1.6383  0.5938
  481MOL0     H63478   1.191   1.835   5.628 -1.2583 -0.6515  0.6751
  481MOL0     H63479   1.431   1.812   5.630 -1.1939  1.3787 -0.0088
  481MOL0     H63480   1.841   1.718   5.817  1.4248 -0.7341  1.5286
  481MOL0     H63481   2.074   1.696   5.781 -0.4665  0.9569 -0.5637
  481MOL0     H63482   2.278   1.682   5.685 -2.0637 -1.6526  1.6961
  481MOL0     H63483   2.207   1.658   5.518  0.8584 -0.1130 -0.3542
  481MOL0     H63484   2.385   1.504   5.471 -0.6198  0.8554  0.1421
  481MOL0     H63485   2.428   1.659   5.519 -0.3106  0.2116 -0.6573
  481MOL0     H63486   2.429   1.399   5.692  0.1217  0.4185  1.7521
  481MOL0     H63487   2.454   1.551   5.770  1.3676  0.5276 -0.1980
  481MOL0     H63488   2.656   1.440   5.729 -1.0375  0.9525  1.5197
  481MOL0     H63489   2.646   1.421   5.560  0.3584 -2.4080  2.1535
  481MOL0     H63490   2.734   1.829   5.550  1.9043 -1.3626 -1.2283
  481MOL0     H63491   2.000   1.362   5.511  0.8809  2.4793 -3.2477
  481MOL0     H63492   1.767   1.412   5.518  1.1611 -0.5113 -1.9504
  482MOL0     O63493   9.685   8.211   8.350 -0.1730  0.1061 -0.1079
  482MOL0     C63494   9.650   8.242   8.239 -0.5967 -0.1249 -0.9826
  482MOL0     O63495   9.527   8.230   8.186 -0.1269 -0.3301 -0.4221
  482MOL0     C63496   9.415   8.182   8.243 -0.2883 -0.2809  1.0912
  482MOL0     C63497   9.395   8.138   8.369  0.2096  0.9525 -0.2911
  482MOL0     C63498   9.267   8.115   8.418  0.6756  0.6438  0.8608
  482MOL0     C63499   9.151   8.133   8.339  0.3433  0.2592  0.3766
  482MOL0     O63500   9.017   8.121   8.376 -0.4396  0.3502  0.1936
  482MOL0     C63501   8.985   8.105   8.513 -0.4498 -0.3097 -0.4816
  482MOL0     C63502   8.834   8.110   8.541 -0.4362 -0.1645 -0.7402
  482MOL0     C63503   8.791   7.970   8.524 -0.6839  1.1686  0.0607
  482MOL0     C63504   8.637   7.952   8.530  0.4448 -0.0959  0.1225
  482MOL0     C63505   8.563   8.054   8.620  1.4819  0.8202 -0.4096
  482MOL0     C63506   8.405   8.028   8.609  0.0018  0.7899  0.1575
  482MOL0     C63507   8.339   8.115   8.717 -0.1668  1.2267  0.6285
  482MOL0     C63508   8.194   8.096   8.709 -0.1789  0.0559  0.7319
  482MOL0     N63509   8.129   8.138   8.582  1.1558 -0.3849  1.2790
  482MOL0     C63510   8.089   8.061   8.475 -1.0138 -0.6701  0.0202
  482MOL0     C63511   8.059   8.146   8.372  0.3947 -0.2660  0.4524
  482MOL0     C63512   8.074   8.098   8.222  0.0958  0.9289  0.4986
  482MOL0     C63513   8.209   8.028   8.203  0.7139 -0.5039 -0.1172
  482MOL0     C63514   8.227   8.016   8.048  0.3680 -0.1957  0.8736
  482MOL0     C63515   8.360   7.956   8.011  0.3084  0.3322  0.5790
  482MOL0     O63516   8.452   8.066   8.024 -0.1860  0.5008  0.1295
  482MOL0     C63517   8.569   8.053   7.953  0.2861 -0.6353 -0.8640
  482MOL0     C63518   8.669   8.151   7.972 -0.8075  1.2961 -0.0119
  482MOL0     C63519   8.794   8.126   7.913  0.6136  0.0116 -0.2347
  482MOL0     C63520   8.819   8.015   7.833 -0.7648  0.5812 -0.4244
  482MOL0     C63521   8.952   8.000   7.765 -0.3613  1.2163 -0.7653
  482MOL0     O63522   9.044   8.100   7.781  0.5037  0.2778  0.5832
  482MOL0     C63523   9.176   8.100   7.735 -0.4858 -0.6321 -0.9509
  482MOL0     C63524   9.249   8.207   7.784  0.5280 -0.3076 -0.5228
  482MOL0     C63525   9.385   8.218   7.762  0.3071 -0.1274 -0.0314
  482MOL0     C63526   9.455   8.123   7.696 -0.0994  1.1230  0.1453
  482MOL0     O63527   9.586   8.133   7.675 -0.7563 -0.1360 -0.3305
  482MOL0     C63528   9.635   8.265   7.650  0.3195 -0.1864 -0.9941
  482MOL0     C63529   9.770   8.255   7.573  0.1704 -0.3727  0.1091
  482MOL0     C63530   9.763   8.163   7.440  0.7433  0.7328 -0.3487
  482MOL0     C63531   9.667   8.225   7.329  0.1473 -0.7369 -0.5503
  482MOL0     C63532   9.702   8.160   7.193  1.1621 -0.2883 -0.4907
  482MOL0     C63533   9.620   8.215   7.083  0.1250  0.4072  0.5131
  482MOL0     C63534   9.644   8.133   6.957 -0.6834  0.1334 -0.0137
  482MOL0     C63535   9.549   8.156   6.840 -0.1388  0.6697  0.2246
  482MOL0    Cl63536   9.621   8.289   6.752 -0.3428 -0.2349  0.4093
  482MOL0     C63537   9.393   8.011   7.656 -0.2070  0.1417 -0.3955
  482MOL0     C63538   9.252   8.002   7.665  1.0367  0.2101 -0.5278
  482MOL0     O63539   8.973   7.895   7.700 -0.1667  0.0193 -0.3474
  482MOL0     C63540   8.726   7.923   7.813  0.8618  0.7718 -0.0157
  482MOL0     C63541   8.599   7.937   7.873 -0.0167 -0.2304 -0.9978
  482MOL0     N63542   8.059   8.279   8.428 -0.5262 -0.0435  0.0407
  482MOL0     N63543   8.097   8.268   8.554 -0.2559 -0.9769 -0.2603
  482MOL0     C63544   9.175   8.179   8.212  1.1098  0.0504  0.9751
  482MOL0     C63545   9.305   8.202   8.160  0.6859  0.8701  0.2203
  482MOL0     C63546   9.756   8.298   8.162  0.1177  0.1663  0.6281
  482MOL0     C63547   9.888   8.310   8.212 -0.5465 -0.4229 -0.2025
  482MOL0     C63548   9.987   8.359   8.128  0.5782  0.7115 -0.1105
  482MOL0     C63549   9.966   8.403   7.996 -0.1921  0.0054  0.5851
  482MOL0     O63550  10.067   8.433   7.908  0.5232  0.2793  0.0477
  482MOL0     C63551  10.197   8.449   7.960  0.7295  0.7900  0.9931
  482MOL0     C63552  10.297   8.414   7.842 -1.0847 -0.1485 -0.3099
  482MOL0     C63553  10.427   8.486   7.867  0.7917 -0.8406  0.5556
  482MOL0     C63554  10.405   8.635   7.819  0.1537 -0.0828  0.2917
  482MOL0     C63555  10.528   8.709   7.844  0.5563 -0.5987  0.5336
  482MOL0     C63556  10.637   8.756   7.876 -0.2059 -0.4560 -0.7977
  482MOL0     C63557   9.835   8.401   7.949 -0.1425 -0.0936 -0.6240
  482MOL0     C63558   9.734   8.357   8.032  1.2307  0.1067 -0.9003
  482MOL0     H63559   9.474   8.110   8.438 -0.4454 -2.6599 -0.8289
  482MOL0     H63560   9.254   8.080   8.520  1.3762 -3.9579 -0.4145
  482MOL0     H63561   9.031   8.187   8.569  0.6626 -1.0695 -0.2561
  482MOL0     H63562   9.020   8.010   8.554 -1.7017 -1.4518 -1.9001
  482MOL0     H63563   8.790   8.178   8.468  0.0082 -1.7347 -2.5460
  482MOL0     H63564   8.821   8.147   8.643  0.5512 -0.1303 -0.6204
  482MOL0     H63565   8.832   7.916   8.610  1.6108  0.0322 -1.6305
  482MOL0     H63566   8.826   7.934   8.427 -1.6133  1.2526 -0.3184
  482MOL0     H63567   8.587   7.956   8.433 -2.1049 -0.7902  1.3199
  482MOL0     H63568   8.612   7.852   8.568  0.9348  0.4829  2.0948
  482MOL0     H63569   8.583   8.157   8.588  2.8525  0.2936 -1.2872
  482MOL0     H63570   8.595   8.046   8.724 -3.0066 -2.1311  1.0555
  482MOL0     H63571   8.369   7.925   8.615  1.9887  0.0650  0.5270
  482MOL0     H63572   8.380   8.070   8.511  0.8708 -0.4164 -0.6092
  482MOL0     H63573   8.370   8.090   8.819  0.4114 -2.7194 -0.3476
  482MOL0     H63574   8.360   8.220   8.692 -3.6429  1.4595 -2.0310
  482MOL0     H63575   8.147   8.148   8.792  1.3735  3.2524 -0.2353
  482MOL0     H63576   8.180   7.988   8.719 -0.3898 -0.0834 -0.8009
  482MOL0     H63577   8.109   7.954   8.471  0.3654 -0.4240 -0.4520
  482MOL0     H63578   8.072   8.179   8.149  1.1531  1.3860  0.9599
  482MOL0     H63579   7.999   8.021   8.200  2.2979 -0.8084 -1.3912
  482MOL0     H63580   8.216   7.930   8.251  3.0465  0.6189  2.0367
  482MOL0     H63581   8.283   8.099   8.241 -1.6577 -0.0933  4.3846
  482MOL0     H63582   8.153   7.950   8.003 -0.1654  0.8664  0.1540
  482MOL0     H63583   8.224   8.113   7.998  0.9436 -0.2725  0.6779
  482MOL0     H63584   8.360   7.915   7.910  1.0639  0.6311  0.4483
  482MOL0     H63585   8.383   7.873   8.078 -1.4988 -1.6215 -1.1014
  482MOL0     H63586   8.663   8.243   8.028  2.1059 -0.5476  3.8289
  482MOL0     H63587   8.875   8.199   7.914  2.6262 -1.9562 -2.9873
  482MOL0     H63588   9.201   8.295   7.826  2.4131  0.6883 -0.3320
  482MOL0     H63589   9.436   8.307   7.798 -0.7905  0.9071 -0.9801
  482MOL0     H63590   9.639   8.314   7.748 -1.4337 -0.3218 -0.8154
  482MOL0     H63591   9.567   8.314   7.579  1.3342  0.6291 -1.4306
  482MOL0     H63592   9.839   8.214   7.647  1.3141  0.8110 -0.2703
  482MOL0     H63593   9.801   8.357   7.549  0.8864 -1.1518 -2.5504
  482MOL0     H63594   9.731   8.062   7.465  1.1269  0.8670  0.7057
  482MOL0     H63595   9.864   8.163   7.398  1.7953  4.4810  1.7490
  482MOL0     H63596   9.562   8.212   7.356 -0.2110  0.9699 -1.0087
  482MOL0     H63597   9.690   8.332   7.330  0.9188 -0.8691  1.5888
  482MOL0     H63598   9.675   8.056   7.213 -1.4701  0.7283  2.0728
  482MOL0     H63599   9.809   8.162   7.169  1.1949 -2.9261 -0.8256
  482MOL0     H63600   9.627   8.323   7.067 -1.0773  0.2925 -0.9895
  482MOL0     H63601   9.513   8.208   7.107 -0.0921  2.2754  0.2325
  482MOL0     H63602   9.751   8.137   6.933 -0.5563  0.5013  0.5844
  482MOL0     H63603   9.613   8.033   6.990 -2.2905  0.3074 -0.9042
  482MOL0     H63604   9.447   8.177   6.873 -0.3135  0.6296 -0.2820
  482MOL0     H63605   9.530   8.073   6.771  0.2339  0.1979  0.6848
  482MOL0     H63606   9.449   7.946   7.590 -4.4125 -1.1384 -3.1129
  482MOL0     H63607   9.202   7.914   7.626  0.1519 -0.9634  2.8802
  482MOL0     H63608   8.735   7.830   7.757  0.5377  0.9065 -0.2942
  482MOL0     H63609   8.534   7.850   7.869  0.6238 -1.1214  2.9589
  482MOL0     H63610   9.085   8.191   8.153 -0.0019 -3.1506  1.7735
  482MOL0     H63611   9.323   8.243   8.061  2.2503  0.7280  0.4089
  482MOL0     H63612   9.907   8.266   8.309 -1.4130 -2.2561 -0.8326
  482MOL0     H63613  10.086   8.356   8.172  1.0158 -3.2276 -0.9915
  482MOL0     H63614  10.225   8.378   8.038  0.4426 -0.5900 -0.1228
  482MOL0     H63615  10.204   8.550   8.002 -0.8257  0.9271  0.9828
  482MOL0     H63616  10.318   8.307   7.847 -0.4608  0.0228  2.4698
  482MOL0     H63617  10.243   8.443   7.751 -1.0411  0.0186 -0.2831
  482MOL0     H63618  10.511   8.460   7.802  1.6177 -2.3402  2.1618
  482MOL0     H63619  10.456   8.485   7.972 -0.1732  3.3502  1.0406
  482MOL0     H63620  10.403   8.625   7.710  2.6410 -2.0445  0.3195
  482MOL0     H63621  10.312   8.680   7.856 -0.8724 -1.7881 -0.1133
  482MOL0     H63622  10.717   8.809   7.924 -0.8811 -0.2210  0.1031
  482MOL0     H63623   9.808   8.434   7.849  1.4847 -2.1153 -1.8060
  482MOL0     H63624   9.633   8.362   7.992  0.4431  2.7027  1.1340
  483MOL0     O63625   4.517   7.884   4.391  0.4022 -0.2314 -0.1371
  483MOL0     C63626   4.580   7.896   4.503 -0.1730 -0.3479  0.7761
  483MOL0     O63627   4.527   7.956   4.616  0.6570 -0.4150  0.0416
  483MOL0     C63628   4.395   7.986   4.602 -0.2831  0.7015 -0.4821
  483MOL0     C63629   4.296   7.888   4.595 -0.7933  1.0071 -0.1500
  483MOL0     C63630   4.166   7.922   4.592  0.0429 -0.6120 -0.2061
  483MOL0     C63631   4.125   8.050   4.614 -0.0945 -0.1299 -0.2818
  483MOL0     O63632   3.984   8.071   4.613  0.3580 -0.1049  0.0093
  483MOL0     C63633   3.928   8.199   4.660  0.0604 -0.5051  0.5511
  483MOL0     C63634   3.783   8.164   4.689 -1.3705 -0.3517  0.7720
  483MOL0     C63635   3.706   8.289   4.740 -0.1848  0.2725 -0.5730
  483MOL0     C63636   3.561   8.251   4.771  0.0358  0.5408  0.0473
  483MOL0     C63637   3.466   8.361   4.708 -0.4431  0.6195 -0.4160
  483MOL0     C63638   3.318   8.327   4.740  0.4596 -0.0884  0.2703
  483MOL0     C63639   3.220   8.408   4.655  0.3706  1.1328 -0.2813
  483MOL0     C63640   3.100   8.435   4.734 -0.7433 -0.8903 -0.2092
  483MOL0     N63641   3.005   8.500   4.649  0.1542  0.6410  0.1730
  483MOL0     C63642   2.915   8.422   4.566 -0.0068  0.4600  0.1188
  483MOL0     C63643   2.847   8.517   4.493 -0.5162  0.2112  0.0554
  483MOL0     C63644   2.735   8.501   4.392  0.5341 -0.1081 -0.2221
  483MOL0     C63645   2.612   8.566   4.457  0.5439 -0.4604  0.7445
  483MOL0     C63646   2.493   8.578   4.350  0.2177  0.3538 -1.1740
  483MOL0     C63647   2.417   8.713   4.378 -0.3461 -0.1940 -1.0414
  483MOL0     O63648   2.315   8.729   4.275 -0.8630 -0.0978  0.2395
  483MOL0     C63649   2.204   8.658   4.287  0.6191  0.7858 -0.3681
  483MOL0     C63650   2.095   8.677   4.190 -0.3869 -0.4098 -0.1376
  483MOL0     C63651   1.971   8.621   4.216 -0.0254  0.2700  0.5048
  483MOL0     C63652   1.946   8.534   4.317 -0.2305 -0.2463  0.7531
  483MOL0     C63653   1.810   8.481   4.340 -0.6999 -0.4843  0.5637
  483MOL0     O63654   1.781   8.423   4.457  0.1325 -0.0045  0.2293
  483MOL0     C63655   1.657   8.376   4.478  0.6161 -0.3872 -0.0849
  483MOL0     C63656   1.532   8.431   4.426  0.4519  0.5307 -0.1335
  483MOL0     C63657   1.413   8.367   4.458 -0.5583  0.2362  0.1024
  483MOL0     C63658   1.407   8.258   4.538 -0.0441  0.2689 -0.5118
  483MOL0     O63659   1.286   8.193   4.542 -0.1372  0.3744 -0.1311
  483MOL0     C63660   1.237   8.120   4.655  0.0151 -0.3673 -0.6701
  483MOL0     C63661   1.080   8.108   4.643 -0.3419  0.5127 -0.1792
  483MOL0     C63662   1.036   8.050   4.515 -0.8855  0.4217  0.4930
  483MOL0     C63663   0.883   8.040   4.488 -0.1726  0.1682 -0.9781
  483MOL0     C63664   0.847   7.967   4.362 -0.2317 -0.2150 -0.3859
  483MOL0     C63665   0.919   8.030   4.236  0.0558  0.7411  0.2709
  483MOL0     C63666   0.899   8.184   4.223  0.0799  0.2959  0.3297
  483MOL0     C63667   0.911   8.235   4.080 -0.1061 -0.6056  0.0944
  483MOL0    Cl63668   0.757   8.192   4.006 -0.1183  0.0977  0.0815
  483MOL0     C63669   1.530   8.212   4.599 -0.6762  0.6090  0.6672
  483MOL0     C63670   1.647   8.272   4.563 -0.4384  0.5021  0.1792
  483MOL0     O63671   1.738   8.490   4.244 -0.3041  0.4241  0.3908
  483MOL0     C63672   2.060   8.497   4.407  1.2871  0.0556  0.4955
  483MOL0     C63673   2.178   8.567   4.392 -0.4648  0.0349  0.1387
  483MOL0     N63674   2.903   8.648   4.525 -0.2308  0.2945  0.4278
  483MOL0     N63675   2.994   8.628   4.616  0.4230 -0.7720  0.5111
  483MOL0     C63676   4.219   8.150   4.632  0.7562 -0.0863  0.1624
  483MOL0     C63677   4.359   8.116   4.629  0.5031 -0.2326 -0.6732
  483MOL0     C63678   4.720   7.848   4.508 -0.4231 -1.3041 -0.3725
  483MOL0     C63679   4.814   7.910   4.594 -0.1151 -0.1367  0.2230
  483MOL0     C63680   4.950   7.881   4.587  0.6891 -0.3053  0.2732
  483MOL0     C63681   5.003   7.789   4.495  0.2395  0.2332  0.0554
  483MOL0     O63682   5.134   7.766   4.476  0.6909  0.2844 -0.1626
  483MOL0     C63683   5.231   7.798   4.576  1.1832 -0.3885  0.0003
  483MOL0     C63684   5.263   7.947   4.572  0.6706 -1.2962 -0.4723
  483MOL0     C63685   5.329   7.980   4.709  0.7160 -0.0101  0.4689
  483MOL0     C63686   5.389   8.123   4.708  0.0712  0.9573  0.2169
  483MOL0     C63687   5.498   8.137   4.610  0.7484  0.7898 -0.6885
  483MOL0     C63688   5.591   8.150   4.526  0.2158 -0.3279 -0.2909
  483MOL0     C63689   4.911   7.725   4.408  0.0715 -0.2606  0.0495
  483MOL0     C63690   4.772   7.760   4.412  0.4580 -0.6090  0.1133
  483MOL0     H63691   4.330   7.787   4.576  2.6002  2.1101 -0.7053
  483MOL0     H63692   4.086   7.850   4.607 -1.4205  1.5104  3.3965
  483MOL0     H63693   3.934   8.281   4.589 -1.4241  0.0515  1.0478
  483MOL0     H63694   3.968   8.230   4.757  0.5050  0.8423 -0.0346
  483MOL0     H63695   3.786   8.079   4.757  2.3285 -0.7070  0.3657
  483MOL0     H63696   3.733   8.143   4.594  0.3474  0.1837 -0.2878
  483MOL0     H63697   3.720   8.369   4.667  2.8735  1.3405  0.9902
  483MOL0     H63698   3.744   8.325   4.836 -2.5545  3.9076 -0.8073
  483MOL0     H63699   3.533   8.153   4.731  1.0860 -0.1078  0.8572
  483MOL0     H63700   3.554   8.241   4.880  1.1211 -1.1609 -0.0142
  483MOL0     H63701   3.493   8.347   4.603 -0.2748 -0.4554 -0.2387
  483MOL0     H63702   3.487   8.458   4.756  0.3468 -1.1195  3.0714
  483MOL0     H63703   3.308   8.338   4.848  2.4698  2.9683  0.2675
  483MOL0     H63704   3.295   8.221   4.721  0.9310 -1.0461  4.1978
  483MOL0     H63705   3.270   8.496   4.615  0.4108  0.5265 -1.6135
  483MOL0     H63706   3.191   8.357   4.562  1.8555  0.4157 -0.3841
  483MOL0     H63707   3.132   8.499   4.817 -2.3032  0.2624 -0.4410
  483MOL0     H63708   3.072   8.336   4.771  2.4959 -2.2968 -1.1072
  483MOL0     H63709   2.908   8.315   4.582  0.6311  0.1815 -1.3507
  483MOL0     H63710   2.710   8.397   4.372  1.2063 -0.1766 -0.7415
  483MOL0     H63711   2.752   8.558   4.300 -1.9018  1.3265  0.1352
  483MOL0     H63712   2.633   8.670   4.484 -1.1129  0.2052 -0.3678
  483MOL0     H63713   2.579   8.502   4.539 -1.7327 -2.2914 -1.4411
  483MOL0     H63714   2.528   8.583   4.247 -1.1365  0.5405 -1.6415
  483MOL0     H63715   2.429   8.490   4.364  1.1777 -0.0710  1.0449
  483MOL0     H63716   2.487   8.796   4.370 -0.0442 -0.2545  0.6679
  483MOL0     H63717   2.367   8.714   4.476  0.6261 -0.7676 -0.5316
  483MOL0     H63718   2.127   8.724   4.097  0.9020 -1.5438 -0.2980
  483MOL0     H63719   1.892   8.643   4.144 -0.7963  3.0962  2.0601
  483MOL0     H63720   1.524   8.518   4.362  1.4806  0.5871 -0.2019
  483MOL0     H63721   1.324   8.407   4.411 -0.6068  0.6873  0.5842
  483MOL0     H63722   1.268   8.167   4.748 -0.6064 -0.0304 -0.6293
  483MOL0     H63723   1.280   8.020   4.670 -0.0092 -0.3766 -0.6651
  483MOL0     H63724   1.033   8.207   4.651 -1.7934  0.4234 -4.7603
  483MOL0     H63725   1.052   8.037   4.720  0.5662 -0.0648 -0.3646
  483MOL0     H63726   1.071   7.947   4.511 -0.9543  0.4103  0.1673
  483MOL0     H63727   1.083   8.104   4.433  2.7781 -0.5982  1.7515
  483MOL0     H63728   0.840   7.988   4.574  3.0865 -1.0584  0.0533
  483MOL0     H63729   0.829   8.134   4.478  0.4872  0.3425 -3.5565
  483MOL0     H63730   0.739   7.979   4.352 -0.1402  3.1020  1.1857
  483MOL0     H63731   0.867   7.861   4.377 -2.2045 -0.3012  2.4572
  483MOL0     H63732   0.872   7.987   4.147 -1.2567  0.1840  1.2017
  483MOL0     H63733   1.028   8.020   4.233  0.2839  2.4221  1.5255
  483MOL0     H63734   0.807   8.212   4.275  0.7260 -0.2709  1.8227
  483MOL0     H63735   0.978   8.239   4.275 -0.9628  3.6899 -1.4116
  483MOL0     H63736   0.994   8.190   4.025  0.1474  2.6627 -2.4830
  483MOL0     H63737   0.930   8.341   4.067 -2.4630 -0.3197 -1.6605
  483MOL0     H63738   1.530   8.123   4.662  0.5247  0.7609  0.9013
  483MOL0     H63739   1.732   8.218   4.605 -0.4029  0.2159 -0.2539
  483MOL0     H63740   2.054   8.416   4.480  3.3040 -0.7467 -0.1589
  483MOL0     H63741   2.251   8.541   4.467  0.8000  1.7563 -0.4296
  483MOL0     H63742   4.209   8.258   4.630 -0.7198 -0.1846 -2.1145
  483MOL0     H63743   4.435   8.191   4.648 -1.0811  0.7091  2.7924
  483MOL0     H63744   4.784   7.990   4.661 -1.0327 -0.7744  0.5894
  483MOL0     H63745   5.009   7.939   4.658  1.6706  0.9131 -1.4414
  483MOL0     H63746   5.322   7.739   4.563  0.7827 -0.5880 -2.2986
  483MOL0     H63747   5.206   7.766   4.678  3.5660 -4.2346 -0.4194
  483MOL0     H63748   5.330   7.969   4.489 -2.0661  0.1210 -2.4849
  483MOL0     H63749   5.184   8.021   4.553  1.9204  0.2025 -0.0413
  483MOL0     H63750   5.410   7.910   4.730  0.0778 -0.5122  1.3154
  483MOL0     H63751   5.259   7.990   4.792  1.9542  1.9470  1.3703
  483MOL0     H63752   5.310   8.197   4.690  0.4177  1.3515  0.2798
  483MOL0     H63753   5.429   8.152   4.806  1.4483  2.6181 -0.7683
  483MOL0     H63754   5.670   8.163   4.456  0.6762  2.7113  0.6369
  483MOL0     H63755   4.952   7.666   4.327  1.4660 -0.3347  0.7751
  483MOL0     H63756   4.701   7.717   4.342  0.0934 -0.1514  0.1973
  484MOL0     O63757   2.372   6.089   0.227  0.4546  0.3981  0.3040
  484MOL0     C63758   2.436   5.995   0.183 -0.3221  0.5624  0.9015
  484MOL0     O63759   2.385   5.869   0.182 -0.9267  0.5373  0.2540
  484MOL0     C63760   2.249   5.851   0.179 -1.0208 -0.2723  0.3213
  484MOL0     C63761   2.176   5.876   0.291  0.1954 -0.1378  0.0005
  484MOL0     C63762   2.034   5.844   0.287  0.6513 -0.4273  0.3894
  484MOL0     C63763   1.972   5.802   0.167 -0.1467  0.3368  0.4978
  484MOL0     O63764   1.830   5.784   0.168 -0.4423 -0.7162 -0.0143
  484MOL0     C63765   1.756   5.880   0.097 -0.6208  0.0891  0.5088
  484MOL0     C63766   1.615   5.834   0.085 -0.0071 -0.0330 -0.3879
  484MOL0     C63767   1.534   5.804   0.226 -0.0379 -0.7182 -0.7489
  484MOL0     C63768   1.396   5.766   0.191  0.4978  0.3155  0.4734
  484MOL0     C63769   1.322   5.730   0.323 -0.2009  0.2950 -0.7516
  484MOL0     C63770   1.310   5.845   0.422 -0.5057 -0.2466  0.3572
  484MOL0     C63771   1.176   5.845   0.500  0.3849 -0.1049  1.1607
  484MOL0     C63772   1.157   5.726   0.592  0.4892  0.5110 -0.5312
  484MOL0     N63773   1.049   5.753   0.689 -1.1067  1.1832  0.0334
  484MOL0     C63774   0.916   5.716   0.677 -0.0081  0.4360  0.0346
  484MOL0     C63775   0.856   5.755   0.791  0.0629 -0.4659 -0.0845
  484MOL0     C63776   0.703   5.756   0.806 -0.5013  0.1153  0.4811
  484MOL0     C63777   0.650   5.610   0.810  0.5105  0.0270  0.4573
  484MOL0     C63778   0.492   5.618   0.819  0.0724  0.0214 -0.4120
  484MOL0     C63779   0.442   5.688   0.948  0.5450  0.7206  0.0228
  484MOL0     O63780   0.300   5.661   0.970 -0.4231  0.0044 -0.3305
  484MOL0     C63781   0.226   5.748   1.048  1.2411  0.5448  0.1804
  484MOL0     C63782   0.272   5.843   1.138 -0.3650  0.1319 -1.1654
  484MOL0     C63783   0.187   5.928   1.216 -0.6738 -0.7788  0.0382
  484MOL0     C63784   0.048   5.903   1.217  0.1993  0.4419 -0.1981
  484MOL0     C63785  -0.048   5.994   1.284  0.0406 -0.2048  0.5725
  484MOL0     O63786  -0.169   6.012   1.229  0.3190 -0.3283  0.0536
  484MOL0     C63787  -0.260   6.113   1.267  0.1300  0.3633 -0.2317
  484MOL0     C63788  -0.399   6.114   1.254 -0.7463  0.4740 -0.3135
  484MOL0     C63789  -0.484   6.223   1.281  0.2508  0.4396 -0.3655
  484MOL0     C63790  -0.424   6.346   1.314  0.5766 -0.3112 -0.1834
  484MOL0     O63791  -0.487   6.466   1.341 -0.2779  0.4305  0.3782
  484MOL0     C63792  -0.607   6.472   1.427 -0.3102  0.7417  0.1382
  484MOL0     C63793  -0.729   6.510   1.349 -0.4737  0.6881  0.3511
  484MOL0     C63794  -0.858   6.528   1.427  0.7153 -0.1929 -0.3768
  484MOL0     C63795  -0.975   6.581   1.343 -0.2793  0.8385 -0.1383
  484MOL0     C63796  -1.104   6.551   1.423  0.5905  0.3169 -1.5706
  484MOL0     C63797  -1.222   6.626   1.367  0.0967 -0.1647 -0.0119
  484MOL0     C63798  -1.272   6.572   1.232 -0.3408  0.5701 -0.2686
  484MOL0     C63799  -1.342   6.683   1.146 -0.1942  0.3895  0.4035
  484MOL0    Cl63800  -1.456   6.779   1.235  0.2150 -0.4481 -0.3241
  484MOL0     C63801  -0.286   6.355   1.329  0.6371 -0.6819 -0.3747
  484MOL0     C63802  -0.207   6.238   1.319  0.0138  0.1109 -0.5546
  484MOL0     O63803  -0.014   6.040   1.392 -0.7470 -0.4695  0.0143
  484MOL0     C63804   0.002   5.804   1.132 -0.3431  0.1859 -0.0277
  484MOL0     C63805   0.090   5.716   1.056  0.5376 -1.4061 -0.1548
  484MOL0     N63806   0.950   5.817   0.866 -0.1184 -0.7808 -0.1615
  484MOL0     N63807   1.065   5.822   0.806  0.7684  0.5162  0.2489
  484MOL0     C63808   2.055   5.783   0.052  0.7533 -0.3516  0.8573
  484MOL0     C63809   2.191   5.802   0.059 -0.1155  0.6756 -0.0652
  484MOL0     C63810   2.580   6.012   0.151  0.1423  0.1216  0.4245
  484MOL0     C63811   2.662   5.901   0.164 -0.1795 -0.0997  0.3297
  484MOL0     C63812   2.793   5.914   0.136  0.1915  0.2218 -0.2122
  484MOL0     C63813   2.850   6.046   0.099 -0.1121 -0.1146  1.1743
  484MOL0     O63814   2.984   6.077   0.086 -0.3861  0.4381  0.7378
  484MOL0     C63815   3.069   5.984   0.150 -0.2639  0.8412 -0.1389
  484MOL0     C63816   3.214   6.036   0.164  1.0780 -0.2913  0.1276
  484MOL0     C63817   3.286   6.053   0.028  0.0990 -0.1667  0.6223
  484MOL0     C63818   3.425   6.120   0.059  0.2841 -0.0696  0.2334
  484MOL0     C63819   3.494   6.142  -0.066  0.0151  0.1054 -0.3171
  484MOL0     C63820   3.521   6.166  -0.188 -0.6843 -1.1668 -0.3957
  484MOL0     C63821   2.766   6.158   0.078  0.5176 -0.4596 -0.8770
  484MOL0     C63822   2.631   6.141   0.099  0.5851  0.4893 -0.4341
  484MOL0     H63823   2.225   5.915   0.379  0.7589 -2.9773  1.0465
  484MOL0     H63824   1.977   5.863   0.377  1.7076  1.5280  0.6967
  484MOL0     H63825   1.799   5.884  -0.004 -1.6182 -1.6283 -0.0196
  484MOL0     H63826   1.763   5.974   0.153  1.1152 -1.6313  3.4799
  484MOL0     H63827   1.603   5.737   0.036  0.6701 -1.0919  1.4590
  484MOL0     H63828   1.571   5.915   0.026 -1.7357  0.7486  1.8334
  484MOL0     H63829   1.532   5.893   0.290 -1.7028 -0.2029 -1.4586
  484MOL0     H63830   1.580   5.720   0.279  1.7013 -0.6033 -1.9755
  484MOL0     H63831   1.343   5.846   0.139  0.8346  0.1389 -0.1648
  484MOL0     H63832   1.414   5.676   0.130  2.1640  1.3396 -0.6427
  484MOL0     H63833   1.364   5.639   0.366 -1.8173  0.0269  0.3705
  484MOL0     H63834   1.218   5.713   0.294  0.2030  2.2379 -3.7352
  484MOL0     H63835   1.305   5.941   0.370  1.6854  1.0920  2.3950
  484MOL0     H63836   1.403   5.839   0.479 -0.1590 -2.0398 -0.3208
  484MOL0     H63837   1.176   5.933   0.565 -0.4534  1.0434 -0.3350
  484MOL0     H63838   1.086   5.855   0.439  2.3393  0.1265 -1.9125
  484MOL0     H63839   1.247   5.698   0.648 -0.0647 -5.4578 -1.9113
  484MOL0     H63840   1.130   5.633   0.540  0.1133  0.5726 -0.4517
  484MOL0     H63841   0.870   5.663   0.594  1.3132  0.3338 -0.6506
  484MOL0     H63842   0.650   5.795   0.718 -0.4385  3.3784  1.7393
  484MOL0     H63843   0.683   5.822   0.891 -2.5312  1.4631 -0.9537
  484MOL0     H63844   0.683   5.549   0.895 -0.5877 -0.9432  0.2210
  484MOL0     H63845   0.681   5.558   0.718 -0.2494  2.3336 -1.2015
  484MOL0     H63846   0.452   5.669   0.731 -1.5691 -2.4097 -1.1709
  484MOL0     H63847   0.453   5.516   0.815  2.6919 -1.1242  0.5395
  484MOL0     H63848   0.459   5.795   0.935  0.6700  0.4581 -2.5200
  484MOL0     H63849   0.499   5.639   1.027 -0.7242  0.1923  0.6388
  484MOL0     H63850   0.379   5.859   1.148 -0.8649  3.0538  0.6263
  484MOL0     H63851   0.230   6.005   1.280  1.8923 -3.8470  2.2874
  484MOL0     H63852  -0.458   6.026   1.234 -0.9567  0.2929  1.0246
  484MOL0     H63853  -0.591   6.229   1.266  0.0155 -1.5451  0.2700
  484MOL0     H63854  -0.595   6.545   1.508  1.3691 -0.8032  1.3973
  484MOL0     H63855  -0.622   6.379   1.483  1.5928  0.6779  0.6194
  484MOL0     H63856  -0.754   6.440   1.269 -3.0681  0.8525  0.9310
  484MOL0     H63857  -0.701   6.608   1.309 -3.3559  0.9774 -1.2392
  484MOL0     H63858  -0.829   6.602   1.503  2.3963  1.5930 -2.5954
  484MOL0     H63859  -0.892   6.434   1.470 -1.9241 -0.4064 -2.6831
  484MOL0     H63860  -0.953   6.688   1.340  2.8494  0.5414  3.7543
  484MOL0     H63861  -0.968   6.536   1.243  3.0563 -0.5084  0.5596
  484MOL0     H63862  -1.085   6.592   1.522  0.8229  1.2175 -1.9764
  484MOL0     H63863  -1.135   6.448   1.446  5.3681 -1.2482 -1.0568
  484MOL0     H63864  -1.208   6.734   1.361 -1.4307  0.1162  0.9550
  484MOL0     H63865  -1.306   6.616   1.436 -1.5745  1.6869 -1.6709
  484MOL0     H63866  -1.197   6.518   1.174 -0.9367 -1.9605  1.1678
  484MOL0     H63867  -1.347   6.498   1.263 -1.4058  1.5151 -0.5150
  484MOL0     H63868  -1.392   6.633   1.063 -2.9507  2.6270  0.5511
  484MOL0     H63869  -1.272   6.756   1.105  0.3533 -0.2571  0.1666
  484MOL0     H63870  -0.250   6.454   1.355  3.3021 -1.8637  0.8721
  484MOL0     H63871  -0.107   6.252   1.360  0.8401 -2.0387 -1.6271
  484MOL0     H63872  -0.105   5.792   1.113  0.0154 -0.6368 -1.6432
  484MOL0     H63873   0.043   5.646   0.989  3.3185 -3.6252  0.0051
  484MOL0     H63874   2.024   5.740  -0.043  2.1170  0.0318  0.2008
  484MOL0     H63875   2.253   5.797  -0.030 -0.3884  0.5926 -0.2508
  484MOL0     H63876   2.611   5.807   0.184 -1.7969 -0.0537 -2.9934
  484MOL0     H63877   2.854   5.824   0.144 -2.1176 -1.2471  2.6682
  484MOL0     H63878   3.082   5.902   0.078  1.4525  0.0796  0.9731
  484MOL0     H63879   3.039   5.944   0.247  0.3957 -2.0421 -1.0121
  484MOL0     H63880   3.200   6.136   0.207  2.0032 -0.5868  1.1361
  484MOL0     H63881   3.276   5.974   0.228  3.5270 -0.5212 -2.2927
  484MOL0     H63882   3.227   6.105  -0.049  2.3043 -0.8199 -1.6352
  484MOL0     H63883   3.295   5.954  -0.018 -1.4770  0.6428 -1.5815
  484MOL0     H63884   3.413   6.222   0.098 -2.2244 -0.4133  0.5130
  484MOL0     H63885   3.475   6.059   0.135 -1.6848 -1.3331  0.5868
  484MOL0     H63886   3.550   6.202  -0.284  1.1919  0.2437  0.6298
  484MOL0     H63887   2.795   6.259   0.050 -1.0481  0.7823  1.6608
  484MOL0     H63888   2.553   6.212   0.070  2.0985  1.2136 -3.1643
  485MOL0     O63889   6.181   2.864   0.614  0.2818 -0.0986 -0.2295
  485MOL0     C63890   6.211   2.944   0.526  0.5537  0.2639  0.0996
  485MOL0     O63891   6.128   2.994   0.436  0.3949 -0.0146 -0.7879
  485MOL0     C63892   6.006   2.946   0.426  0.3648  0.2687 -0.5961
  485MOL0     C63893   5.915   2.953   0.540 -0.7407  0.5853  0.3315
  485MOL0     C63894   5.798   2.884   0.523 -0.3705 -0.6387  0.6692
  485MOL0     C63895   5.753   2.812   0.417 -0.3364 -0.1427 -0.1305
  485MOL0     O63896   5.626   2.757   0.420  0.1244 -0.0715 -0.0794
  485MOL0     C63897   5.633   2.631   0.360  0.4416  1.1467 -0.7278
  485MOL0     C63898   5.511   2.553   0.393  0.2570  0.0384 -0.2513
  485MOL0     C63899   5.485   2.444   0.298  1.1854  0.9794  0.4742
  485MOL0     C63900   5.344   2.403   0.322  0.1211 -0.7252  0.0183
  485MOL0     C63901   5.308   2.275   0.242  0.8057 -0.1350 -0.0889
  485MOL0     C63902   5.155   2.258   0.246 -1.5249 -0.0858  0.4775
  485MOL0     C63903   5.105   2.168   0.140  0.4643  1.0736  0.0255
  485MOL0     C63904   4.950   2.143   0.141 -0.2515 -0.7137 -0.4222
  485MOL0     N63905   4.908   2.081   0.268 -0.5290  0.0373  0.6774
  485MOL0     C63906   4.878   2.144   0.386  0.1947 -0.4643  0.0275
  485MOL0     C63907   4.851   2.040   0.472  0.6312  0.3885  0.3838
  485MOL0     C63908   4.803   2.057   0.614  0.0045  0.5221  0.4402
  485MOL0     C63909   4.652   2.029   0.619 -0.0116  0.8442 -0.1205
  485MOL0     C63910   4.577   2.031   0.754  0.1351  0.6275  0.0397
  485MOL0     C63911   4.429   1.999   0.748 -0.3742  0.3792  0.6455
  485MOL0     O63912   4.386   2.023   0.881  0.6311  0.2772 -0.4089
  485MOL0     C63913   4.246   2.034   0.897  0.0864  0.8207  0.1903
  485MOL0     C63914   4.204   2.043   1.023  0.7102 -0.9182 -0.1136
  485MOL0     C63915   4.064   2.052   1.040  0.8641 -0.2370  0.5805
  485MOL0     C63916   3.980   2.025   0.936  0.8565 -0.1732  0.8185
  485MOL0     C63917   3.836   2.013   0.956  0.0073  0.7117  0.6239
  485MOL0     O63918   3.793   2.019   1.086  0.5646 -0.3970 -0.2235
  485MOL0     C63919   3.663   2.033   1.111 -0.8652 -0.6282  0.0542
  485MOL0     C63920   3.625   1.981   1.231 -0.3592  0.7359 -0.3964
  485MOL0     C63921   3.495   1.992   1.276  0.6048 -1.4379 -0.0908
  485MOL0     C63922   3.407   2.066   1.191  0.3368 -0.5171  0.6904
  485MOL0     O63923   3.275   2.088   1.228  0.4619  0.0443  0.2743
  485MOL0     C63924   3.171   2.006   1.172 -0.0215  0.0238  0.1612
  485MOL0     C63925   3.098   2.091   1.061 -0.7252  0.8369 -0.5633
  485MOL0     C63926   2.977   2.016   1.019 -0.3983 -0.0266  0.5170
  485MOL0     C63927   2.858   2.033   1.118 -0.8982  0.8019 -0.4778
  485MOL0     C63928   2.729   1.958   1.064 -0.2613  0.4526 -0.2580
  485MOL0     C63929   2.616   1.939   1.169 -0.0474  0.0384  0.1180
  485MOL0     C63930   2.494   1.865   1.120  0.7055 -0.4298 -1.1944
  485MOL0     C63931   2.374   1.877   1.203 -0.1642  0.2162 -0.2087
  485MOL0    Cl63932   2.237   1.779   1.142 -0.0016  0.3356 -0.7580
  485MOL0     C63933   3.453   2.133   1.077  0.3129  0.0990 -0.0044
  485MOL0     C63934   3.581   2.120   1.037 -1.0052  0.5506  0.1253
  485MOL0     O63935   3.762   2.005   0.855 -0.2059 -0.1294 -0.3656
  485MOL0     C63936   4.025   2.024   0.804 -0.2221 -0.5744  0.1034
  485MOL0     C63937   4.159   2.021   0.788  0.5609 -0.0938  0.2265
  485MOL0     N63938   4.863   1.921   0.398 -0.3192  0.5520 -0.2821
  485MOL0     N63939   4.908   1.948   0.278 -0.7202  0.4548 -0.7525
  485MOL0     C63940   5.842   2.807   0.307 -0.0173  0.0592 -0.2054
  485MOL0     C63941   5.968   2.862   0.320 -0.3670 -1.1787 -0.5672
  485MOL0     C63942   6.354   2.972   0.527 -0.1946 -0.7409 -1.0645
  485MOL0     C63943   6.452   2.882   0.574  0.0351 -0.0506  0.6867
  485MOL0     C63944   6.585   2.915   0.590 -0.0278 -0.0301  0.7063
  485MOL0     C63945   6.631   3.037   0.539 -0.1189  0.1827  0.1166
  485MOL0     O63946   6.764   3.068   0.533  0.5930  0.4453 -0.7562
  485MOL0     C63947   6.864   2.967   0.492  0.2134 -0.5228 -0.4587
  485MOL0     C63948   6.936   3.003   0.366  1.4132  0.0110  0.7425
  485MOL0     C63949   6.844   3.024   0.246 -0.3656  0.4807 -0.3107
  485MOL0     C63950   6.929   3.039   0.125  0.4699  0.1270  0.4729
  485MOL0     C63951   6.848   3.041   0.006  0.4046  0.3158 -0.0519
  485MOL0     C63952   6.777   3.057  -0.090  0.2887 -0.0112  0.2784
  485MOL0     C63953   6.531   3.123   0.499 -0.1737 -1.0685  0.2826
  485MOL0     C63954   6.395   3.097   0.488  0.3785 -0.1555 -0.8354
  485MOL0     H63955   5.940   3.002   0.633 -0.4675  1.8377 -0.3779
  485MOL0     H63956   5.730   2.890   0.607  1.5908 -1.5228  2.3812
  485MOL0     H63957   5.722   2.573   0.385  0.7236  2.2351  0.9604
  485MOL0     H63958   5.626   2.651   0.253 -0.0980  1.5567 -0.6225
  485MOL0     H63959   5.438   2.635   0.396  2.0740  1.7606 -0.6244
  485MOL0     H63960   5.522   2.520   0.497 -0.9275 -1.4863 -0.5880
  485MOL0     H63961   5.553   2.363   0.325  1.4005  1.3997  1.2144
  485MOL0     H63962   5.490   2.481   0.195  0.5271  3.1714  1.1941
  485MOL0     H63963   5.325   2.379   0.427 -0.1805 -2.1301 -0.3350
  485MOL0     H63964   5.278   2.488   0.301  1.3990  0.0012 -1.1955
  485MOL0     H63965   5.359   2.187   0.282  0.6152  0.2511  1.0091
  485MOL0     H63966   5.336   2.291   0.137  0.2031  6.0347  0.3510
  485MOL0     H63967   5.115   2.358   0.228 -0.4970  0.4387  1.0057
  485MOL0     H63968   5.123   2.231   0.347 -1.1306  0.2650  0.6988
  485MOL0     H63969   5.122   2.221   0.045 -1.4001 -0.1091 -1.0235
  485MOL0     H63970   5.164   2.077   0.132 -0.1368  0.7049 -0.3546
  485MOL0     H63971   4.912   2.098   0.049  0.4341 -0.2483 -0.9470
  485MOL0     H63972   4.910   2.245   0.139 -0.3892 -0.7803 -2.2051
  485MOL0     H63973   4.877   2.251   0.400 -0.4011 -0.7848  3.2395
  485MOL0     H63974   4.829   2.159   0.644  2.1547 -0.2589  1.4280
  485MOL0     H63975   4.869   1.997   0.678  2.1458  3.8131  1.5526
  485MOL0     H63976   4.643   1.936   0.563  2.2832 -0.3144  1.2988
  485MOL0     H63977   4.608   2.108   0.557 -1.4159  0.4708  0.3556
  485MOL0     H63978   4.627   1.957   0.818  0.7665 -1.3943 -2.5996
  485MOL0     H63979   4.594   2.125   0.806  1.1284 -0.6215  2.1317
  485MOL0     H63980   4.409   1.897   0.713  0.1840  0.9527 -1.5057
  485MOL0     H63981   4.395   2.067   0.669  1.7754 -2.1721 -2.7826
  485MOL0     H63982   4.276   2.055   1.103  0.6219  3.6170 -0.4499
  485MOL0     H63983   4.010   2.069   1.132 -1.3352 -1.1778 -0.4720
  485MOL0     H63984   3.704   1.939   1.293 -0.0540 -1.7717 -2.3499
  485MOL0     H63985   3.466   1.956   1.374  0.5810  0.0697  0.4860
  485MOL0     H63986   3.102   1.963   1.244 -1.9953  1.5220 -0.7476
  485MOL0     H63987   3.218   1.921   1.120 -0.2926 -2.4657  3.6719
  485MOL0     H63988   3.156   2.110   0.970  0.2048  2.3530  0.2959
  485MOL0     H63989   3.056   2.188   1.090 -0.5488  2.6268 -5.3880
  485MOL0     H63990   2.998   1.910   1.005  2.5924  0.2729  1.9640
  485MOL0     H63991   2.938   2.053   0.924  1.1561 -0.4029 -0.3005
  485MOL0     H63992   2.877   1.972   1.206  1.8830 -0.7265 -1.9945
  485MOL0     H63993   2.824   2.133   1.147 -1.8010  0.3352  0.1293
  485MOL0     H63994   2.747   1.860   1.019 -1.7012 -0.4610  1.0200
  485MOL0     H63995   2.692   2.021   0.983  1.6559  0.5490 -1.0908
  485MOL0     H63996   2.592   2.041   1.198 -1.0348  0.9509 -3.4201
  485MOL0     H63997   2.651   1.875   1.250  0.3268 -2.2482 -1.7366
  485MOL0     H63998   2.470   1.893   1.017  0.2219  3.2063 -0.2313
  485MOL0     H63999   2.513   1.758   1.121 -0.9495 -0.7658 -2.2987
  485MOL0     H64000   2.345   1.982   1.212 -0.9520 -0.0919  1.1748
  485MOL0     H64001   2.398   1.839   1.303  0.4861  1.1707  0.0116
  485MOL0     H64002   3.376   2.195   1.032  0.8745  0.9124  0.1472
  485MOL0     H64003   3.624   2.180   0.957  0.6519 -1.4250 -0.5533
  485MOL0     H64004   3.963   1.997   0.718 -0.0816 -3.0879  0.7190
  485MOL0     H64005   4.199   2.001   0.690  0.2640 -1.0697  0.2913
  485MOL0     H64006   5.816   2.770   0.208  3.2268 -0.1129 -1.0993
  485MOL0     H64007   6.055   2.847   0.256  0.1669 -1.1878  0.1377
  485MOL0     H64008   6.421   2.782   0.604 -0.2350  0.4088  2.0114
  485MOL0     H64009   6.658   2.841   0.621 -0.3577  0.0679  1.7540
  485MOL0     H64010   6.828   2.864   0.485  1.6663 -1.1122  0.2574
  485MOL0     H64011   6.938   2.951   0.571  1.2843  1.8846 -0.8972
  485MOL0     H64012   6.984   3.100   0.378 -1.0350  1.3514  0.2513
  485MOL0     H64013   7.015   2.930   0.347  0.2426 -0.8498 -1.0762
  485MOL0     H64014   6.783   3.113   0.265 -2.1348 -1.2511  2.8330
  485MOL0     H64015   6.765   2.950   0.235 -0.4662  0.5120  0.1786
  485MOL0     H64016   6.992   3.128   0.129  4.3194 -2.0839 -2.9181
  485MOL0     H64017   6.994   2.951   0.115 -0.3479 -0.4293 -0.0473
  485MOL0     H64018   6.704   3.062  -0.167 -0.2168 -2.9403  0.4560
  485MOL0     H64019   6.561   3.222   0.465 -1.7596 -0.6889 -0.1032
  485MOL0     H64020   6.331   3.178   0.457  2.6590  2.8088  1.5694
  486MOL0     O64021   0.566  10.994   2.267  0.5300 -0.1223  0.2541
  486MOL0     C64022   0.578  10.869   2.260 -0.4793 -0.0344 -0.8156
  486MOL0     O64023   0.480  10.769   2.259 -0.7392  0.2305 -0.0358
  486MOL0     C64024   0.342  10.797   2.269  0.1929 -0.1733  0.6704
  486MOL0     C64025   0.286  10.911   2.338  0.2781 -0.1530  0.6849
  486MOL0     C64026   0.144  10.919   2.342  0.6529 -0.2017 -0.3419
  486MOL0     C64027   0.065  10.831   2.275  1.0146 -0.2835 -0.4167
  486MOL0     O64028  -0.072  10.852   2.286 -0.3245 -0.6661 -0.2150
  486MOL0     C64029  -0.155  10.809   2.184  0.4867  0.3081 -0.2202
  486MOL0     C64030  -0.254  10.919   2.156  0.1955  0.4958  0.2231
  486MOL0     C64031  -0.363  10.866   2.074 -0.7779  0.1992 -0.4409
  486MOL0     C64032  -0.465  10.974   2.040  0.2019 -0.1402 -0.3297
  486MOL0     C64033  -0.588  10.911   1.981 -0.2638  0.1632 -0.4083
  486MOL0     C64034  -0.713  11.003   1.970  1.0438  0.1237  0.2970
  486MOL0     C64035  -0.690  11.113   1.868 -0.5129  0.2378  0.1318
  486MOL0     C64036  -0.820  11.195   1.847 -0.1440  0.6694  0.5895
  486MOL0     N64037  -0.932  11.127   1.788 -0.1741  0.1804 -0.2873
  486MOL0     C64038  -0.934  11.060   1.671 -0.4368  0.0211 -0.1410
  486MOL0     C64039  -1.068  11.047   1.644  0.2245 -0.2984  0.5963
  486MOL0     C64040  -1.120  11.009   1.515  0.8068  0.2093  0.3608
  486MOL0     C64041  -1.121  11.113   1.401  0.3668  0.1812 -0.2868
  486MOL0     C64042  -1.169  11.059   1.265 -0.2658  0.4853  0.6981
  486MOL0     C64043  -1.310  10.996   1.264 -0.5033  0.4437 -0.3774
  486MOL0     O64044  -1.350  10.971   1.129 -0.1760 -0.8480  0.1565
  486MOL0     C64045  -1.478  10.940   1.099 -0.2551 -0.2536 -1.0554
  486MOL0     C64046  -1.572  10.919   1.205 -0.2388 -0.0999  0.2742
  486MOL0     C64047  -1.710  10.893   1.168  0.5509 -0.1222 -0.4850
  486MOL0     C64048  -1.753  10.889   1.034 -0.3686  0.0285  0.0510
  486MOL0     C64049  -1.899  10.881   1.002  0.0423 -0.3163  0.6441
  486MOL0     O64050  -1.918  10.841   0.873  0.7376  1.1730 -0.2289
  486MOL0     C64051  -2.046  10.803   0.826  0.1998 -0.4071  0.2007
  486MOL0     C64052  -2.058  10.670   0.772 -0.5717 -0.7482 -0.4450
  486MOL0     C64053  -2.182  10.619   0.730 -0.0239 -0.5969  0.3739
  486MOL0     C64054  -2.304  10.703   0.734  0.0270  1.0918 -0.9034
  486MOL0     O64055  -2.423  10.652   0.692 -1.0012  0.4102 -0.4474
  486MOL0     C64056  -2.434  10.531   0.616  0.4167  0.2849  0.1189
  486MOL0     C64057  -2.557  10.563   0.525  0.1519 -0.2386 -0.7006
  486MOL0     C64058  -2.569  10.467   0.399  0.6252  0.5912 -0.6299
  486MOL0     C64059  -2.642  10.342   0.444  0.7016  0.3647 -0.3610
  486MOL0     C64060  -2.790  10.364   0.451  0.8965  0.5023 -0.1299
  486MOL0     C64061  -2.863  10.402   0.314  0.3595  0.4978  0.1928
  486MOL0     C64062  -3.016  10.367   0.310 -0.5265 -0.2830  0.3853
  486MOL0     C64063  -3.034  10.216   0.312  0.4401 -0.2596  0.2961
  486MOL0    Cl64064  -3.206  10.181   0.308 -0.1877  0.0897  0.0464
  486MOL0     C64065  -2.290  10.830   0.779  0.0004  0.5834  0.1174
  486MOL0     C64066  -2.168  10.884   0.825 -0.5778 -0.2182  0.5513
  486MOL0     O64067  -1.980  10.886   1.092  0.1492  0.1409 -0.1447
  486MOL0     C64068  -1.655  10.900   0.934 -0.0482 -1.0418 -0.2452
  486MOL0     C64069  -1.522  10.927   0.968  0.5261 -0.4535  0.2878
  486MOL0     N64070  -1.140  11.111   1.741  0.2829  0.2898 -0.0577
  486MOL0     N64071  -1.058  11.138   1.833 -0.2756 -0.6960 -0.4433
  486MOL0     C64072   0.122  10.717   2.224 -0.2509 -0.4395  0.2910
  486MOL0     C64073   0.260  10.706   2.214  0.3789 -0.1443 -1.5017
  486MOL0     C64074   0.716  10.831   2.221 -0.3009  0.1247 -0.1802
  486MOL0     C64075   0.748  10.697   2.189 -1.4508  0.7527 -0.4520
  486MOL0     C64076   0.886  10.661   2.176  0.6050 -0.2823  0.3760
  486MOL0     C64077   0.992  10.759   2.180 -0.7428 -0.4153 -0.3649
  486MOL0     O64078   1.128  10.732   2.171  0.6097  0.6034 -0.1627
  486MOL0     C64079   1.173  10.603   2.142  0.2332 -0.0496 -0.2512
  486MOL0     C64080   1.325  10.591   2.157 -0.3871 -0.6374 -0.5710
  486MOL0     C64081   1.359  10.624   2.301 -0.0687 -0.5717  0.1189
  486MOL0     C64082   1.495  10.556   2.323 -0.2701 -0.6948 -0.3731
  486MOL0     C64083   1.547  10.588   2.454  0.6785 -0.2751 -0.7270
  486MOL0     C64084   1.603  10.612   2.559 -0.4214  0.1463 -0.3356
  486MOL0     C64085   0.950  10.893   2.200 -0.0942  0.2708  0.1414
  486MOL0     C64086   0.820  10.925   2.233  0.7993  0.0567  0.2807
  486MOL0     H64087   0.345  10.992   2.381  0.4123  0.9526 -1.4661
  486MOL0     H64088   0.096  10.998   2.400 -0.6251 -0.5495 -0.8871
  486MOL0     H64089  -0.210  10.718   2.208 -2.8443  1.5256 -2.3387
  486MOL0     H64090  -0.100  10.788   2.092 -0.6075  0.9646 -1.0521
  486MOL0     H64091  -0.207  11.011   2.120 -0.5976  1.0152  0.4790
  486MOL0     H64092  -0.299  10.957   2.247 -2.6243 -0.6665 -0.5612
  486MOL0     H64093  -0.410  10.778   2.119  0.7970  0.4354  1.8268
  486MOL0     H64094  -0.320  10.839   1.978 -2.0815 -1.5008 -0.6036
  486MOL0     H64095  -0.497  11.018   2.135 -0.6121  0.7812 -1.0077
  486MOL0     H64096  -0.413  11.046   1.976  0.6696 -1.7803 -1.8642
  486MOL0     H64097  -0.613  10.828   2.048  1.8293  0.7017  1.1312
  486MOL0     H64098  -0.560  10.860   1.888  2.2419  0.7235 -0.0406
  486MOL0     H64099  -0.733  11.060   2.061  0.2110  1.2656 -0.5772
  486MOL0     H64100  -0.788  10.931   1.936  2.8247 -3.4327  3.1382
  486MOL0     H64101  -0.610  11.181   1.897  1.5171 -2.1737  0.4783
  486MOL0     H64102  -0.667  11.065   1.773 -2.4091 -1.5172  0.4791
  486MOL0     H64103  -0.798  11.294   1.807  1.0478  0.8656  1.6494
  486MOL0     H64104  -0.867  11.224   1.940 -6.4981 -2.2719 -1.1366
  486MOL0     H64105  -0.840  11.033   1.623 -0.2315 -0.8834  0.7348
  486MOL0     H64106  -1.225  10.978   1.525  0.0148  1.4079 -2.8317
  486MOL0     H64107  -1.054  10.931   1.476  0.3387 -0.0446  0.0595
  486MOL0     H64108  -1.017  11.145   1.386  1.1511 -2.8335 -2.3949
  486MOL0     H64109  -1.184  11.195   1.435 -0.4679 -0.8305  0.6463
  486MOL0     H64110  -1.158  11.137   1.189  3.8392 -0.6238 -0.0762
  486MOL0     H64111  -1.099  10.981   1.235 -1.4833 -0.9455  1.4546
  486MOL0     H64112  -1.376  11.062   1.321  0.3175  0.4684  0.5848
  486MOL0     H64113  -1.303  10.898   1.311 -1.0142  0.6414  0.1188
  486MOL0     H64114  -1.548  10.908   1.310 -2.0358 -0.5209  0.6849
  486MOL0     H64115  -1.790  10.876   1.240  0.0456  1.6595 -0.5838
  486MOL0     H64116  -1.970  10.609   0.756 -0.6763 -1.6821  2.0037
  486MOL0     H64117  -2.180  10.517   0.693 -1.9181 -0.8184  0.7819
  486MOL0     H64118  -2.446  10.439   0.675  0.6496 -0.7215 -1.3356
  486MOL0     H64119  -2.348  10.508   0.552 -0.4843 -1.6801 -0.4503
  486MOL0     H64120  -2.537  10.663   0.484  0.2193  0.5382  1.1297
  486MOL0     H64121  -2.655  10.572   0.572  0.6880 -1.4619  0.7260
  486MOL0     H64122  -2.466  10.437   0.376  1.9886  3.6599  0.8130
  486MOL0     H64123  -2.620  10.519   0.317 -1.0340 -2.7321 -1.8549
  486MOL0     H64124  -2.625  10.263   0.370 -1.4016 -1.9648  1.4431
  486MOL0     H64125  -2.603  10.303   0.538 -2.3268 -0.9976  0.4834
  486MOL0     H64126  -2.807  10.440   0.528 -1.3354 -0.1573  0.0890
  486MOL0     H64127  -2.825  10.268   0.491  1.0303  0.6387  0.3237
  486MOL0     H64128  -2.816  10.349   0.231 -1.8192  0.6496 -1.2394
  486MOL0     H64129  -2.855  10.510   0.300 -0.2011  0.5198 -0.0214
  486MOL0     H64130  -3.068  10.409   0.397 -1.2137 -0.2359 -0.0386
  486MOL0     H64131  -3.055  10.407   0.216  1.3879 -0.8460 -0.7031
  486MOL0     H64132  -2.993  10.165   0.399  0.5189 -3.0680 -1.2516
  486MOL0     H64133  -2.979  10.172   0.227  4.2455 -1.5434  3.1375
  486MOL0     H64134  -2.385  10.881   0.792 -1.3019 -0.8818 -2.7610
  486MOL0     H64135  -2.160  10.982   0.872  0.9465  0.0515 -0.2119
  486MOL0     H64136  -1.681  10.889   0.829 -0.3505  0.7289 -0.3884
  486MOL0     H64137  -1.452  10.941   0.885  1.5896  3.1122  1.6038
  486MOL0     H64138   0.067  10.643   2.167  2.6162 -2.0222 -0.5711
  486MOL0     H64139   0.307  10.615   2.179  3.3871  0.5556  0.4219
  486MOL0     H64140   0.668  10.624   2.182 -0.5077 -0.4111  0.6893
  486MOL0     H64141   0.923  10.561   2.158 -0.2657 -0.8019  1.3275
  486MOL0     H64142   1.141  10.573   2.042  1.1638  1.8559 -1.1728
  486MOL0     H64143   1.136  10.536   2.220  1.5270 -0.9485 -0.3866
  486MOL0     H64144   1.350  10.486   2.140  2.6069  0.2226 -2.2200
  486MOL0     H64145   1.378  10.659   2.090  0.6981 -1.1094 -0.2211
  486MOL0     H64146   1.292  10.585   2.379  0.2577 -1.1467  0.1159
  486MOL0     H64147   1.372  10.730   2.324 -1.1994 -0.4924  0.4853
  486MOL0     H64148   1.489  10.446   2.318 -1.1522 -0.6384 -0.8092
  486MOL0     H64149   1.561  10.594   2.245  0.7633 -1.6779 -0.0106
  486MOL0     H64150   1.665  10.623   2.645  0.3170  0.6734 -0.9256
  486MOL0     H64151   1.018  10.977   2.183  1.1420 -0.7708 -0.2354
  486MOL0     H64152   0.794  11.028   2.255  0.6252  0.6229 -2.2638
  487MOL0     O64153   9.701   0.442   5.014  0.4376 -0.1092  0.1597
  487MOL0     C64154   9.779   0.367   5.068 -0.4647  0.6038 -0.5146
  487MOL0     O64155   9.754   0.285   5.179 -0.3381  0.0973 -0.4479
  487MOL0     C64156   9.623   0.292   5.221 -0.5866 -0.6539 -0.4406
  487MOL0     C64157   9.589   0.367   5.335  0.3757 -0.0901  0.7797
  487MOL0     C64158   9.455   0.391   5.359  0.3545  1.2458 -0.0804
  487MOL0     C64159   9.345   0.334   5.282  0.1376 -0.2024  0.1148
  487MOL0     O64160   9.228   0.399   5.288 -0.0890  0.2009  0.3594
  487MOL0     C64161   9.156   0.372   5.412  0.8059  1.3060 -0.4166
  487MOL0     C64162   9.080   0.239   5.383 -0.1655 -0.2258 -0.3776
  487MOL0     C64163   8.966   0.223   5.486 -0.6065 -0.3761  0.4437
  487MOL0     C64164   8.936   0.079   5.507  0.6777  0.2358 -0.0011
  487MOL0     C64165   8.808   0.055   5.582 -0.5928  0.6059 -0.6409
  487MOL0     C64166   8.822  -0.064   5.679  0.7863 -0.0306 -0.2377
  487MOL0     C64167   8.709  -0.082   5.776  1.1510 -0.0613  0.3656
  487MOL0     C64168   8.575  -0.128   5.726  1.0247 -0.0683 -0.2830
  487MOL0     N64169   8.483  -0.144   5.839 -0.2546 -0.8979  0.4447
  487MOL0     C64170   8.424  -0.036   5.893 -0.8132  0.3665  0.4769
  487MOL0     C64171   8.328  -0.079   5.974 -0.3073  0.3081  0.1654
  487MOL0     C64172   8.222  -0.014   6.063  0.3808 -0.1921  0.0248
  487MOL0     C64173   8.124   0.058   5.977 -0.2964 -0.4940 -0.2553
  487MOL0     C64174   8.170   0.200   5.936 -0.4635  0.3917  0.2428
  487MOL0     C64175   8.057   0.264   5.853  0.0401 -0.7384  0.0902
  487MOL0     O64176   8.069   0.408   5.825  0.1131  0.0687  1.0656
  487MOL0     C64177   8.181   0.440   5.753  0.2156 -0.8649 -0.2260
  487MOL0     C64178   8.250   0.558   5.793  0.1075  0.2248  0.5559
  487MOL0     C64179   8.370   0.592   5.731 -0.3872  0.8742  0.3761
  487MOL0     C64180   8.433   0.506   5.640  0.3238  0.0479  0.4815
  487MOL0     C64181   8.563   0.520   5.582  0.8526 -0.3976 -0.2753
  487MOL0     O64182   8.621   0.640   5.593 -0.0472  0.4981  0.2222
  487MOL0     C64183   8.765   0.651   5.599 -0.1333  0.2795  1.1487
  487MOL0     C64184   8.854   0.551   5.654 -0.8497 -0.2320 -0.1167
  487MOL0     C64185   8.993   0.576   5.656  0.3607 -0.5213  0.0416
  487MOL0     C64186   9.039   0.693   5.586 -0.0300  0.1007 -0.0423
  487MOL0     O64187   9.177   0.698   5.561  0.5367 -0.3128 -0.2518
  487MOL0     C64188   9.236   0.819   5.515  0.0527 -0.5978  0.0532
  487MOL0     C64189   9.388   0.792   5.512 -0.4732 -0.1399  0.1828
  487MOL0     C64190   9.447   0.734   5.638 -0.1811 -0.0545  0.6181
  487MOL0     C64191   9.428   0.825   5.758  0.0027  0.3216 -0.0069
  487MOL0     C64192   9.526   0.786   5.874  0.7201  0.5761  0.9281
  487MOL0     C64193   9.478   0.835   6.019 -0.2427 -0.7211  0.0934
  487MOL0     C64194   9.492   0.987   6.027  0.6116  0.8301  0.2871
  487MOL0     C64195   9.544   1.027   6.168 -0.4905 -0.5783 -0.3489
  487MOL0    Cl64196   9.438   0.956   6.298 -0.3347  0.1069 -0.1378
  487MOL0     C64197   8.958   0.792   5.540 -0.4707 -0.8422 -0.2526
  487MOL0     C64198   8.817   0.778   5.545 -0.4183  0.0047 -0.2523
  487MOL0     O64199   8.617   0.424   5.537 -0.4786 -0.5921  0.4046
  487MOL0     C64200   8.363   0.392   5.606 -0.4364  0.1915  0.8886
  487MOL0     C64201   8.235   0.355   5.660  0.0361 -0.3828  0.9313
  487MOL0     N64202   8.344  -0.213   5.973 -0.6093  0.1127  0.9310
  487MOL0     N64203   8.433  -0.252   5.895  0.3639  0.3617  0.5560
  487MOL0     C64204   9.385   0.268   5.168 -0.0982 -0.6152 -0.6488
  487MOL0     C64205   9.523   0.233   5.142  0.0174  0.9031  0.2873
  487MOL0     C64206   9.911   0.364   5.006 -1.1201 -0.6596  0.5315
  487MOL0     C64207   9.941   0.413   4.876 -0.2951  0.2834  0.0909
  487MOL0     C64208  10.070   0.401   4.828 -0.5805 -0.3017  0.1227
  487MOL0     C64209  10.173   0.356   4.908 -0.2447  0.0780 -0.2142
  487MOL0     O64210  10.295   0.369   4.849 -0.0372 -0.2615  0.1558
  487MOL0     C64211  10.408   0.309   4.915 -0.6027  0.5913  0.3776
  487MOL0     C64212  10.403   0.151   4.926 -0.5602  0.9352  0.6487
  487MOL0     C64213  10.520   0.101   5.005  0.3442  0.0506  1.1757
  487MOL0     C64214  10.550  -0.046   4.970  0.2641 -0.2198  0.8812
  487MOL0     C64215  10.645  -0.103   5.070 -0.0239  0.2179  1.5664
  487MOL0     C64216  10.719  -0.161   5.142 -0.6582  0.3758  0.3053
  487MOL0     C64217  10.151   0.314   5.038 -0.2406 -1.1156  0.3554
  487MOL0     C64218  10.018   0.315   5.085 -0.7155  0.0145 -0.1561
  487MOL0     H64219   9.662   0.399   5.409  0.3658  0.8447  0.4023
  487MOL0     H64220   9.435   0.460   5.441  1.7187 -0.7727  2.0791
  487MOL0     H64221   9.079   0.447   5.432 -1.0378 -0.5596 -0.2293
  487MOL0     H64222   9.223   0.365   5.499  1.0040  1.0677 -0.5865
  487MOL0     H64223   9.157   0.162   5.386 -0.0115 -0.3346 -3.6350
  487MOL0     H64224   9.045   0.255   5.281 -0.4131  3.3017  0.1248
  487MOL0     H64225   8.876   0.277   5.454 -3.4828 -3.6269  2.3202
  487MOL0     H64226   8.998   0.249   5.587 -0.8516 -0.0386  0.4333
  487MOL0     H64227   8.932   0.020   5.415 -0.0378 -0.4054  0.4297
  487MOL0     H64228   9.022   0.039   5.562  0.1257  0.1896  0.8485
  487MOL0     H64229   8.729   0.043   5.507 -0.2849 -4.4049 -0.4779
  487MOL0     H64230   8.801   0.142   5.647  2.5066  1.7627 -1.6269
  487MOL0     H64231   8.913  -0.041   5.736 -0.3312  1.5839  1.0152
  487MOL0     H64232   8.822  -0.162   5.632 -1.6062 -0.2483  0.0616
  487MOL0     H64233   8.742  -0.148   5.856  1.2493  0.2917  0.6177
  487MOL0     H64234   8.696   0.014   5.827 -5.1428  1.2247 -2.7248
  487MOL0     H64235   8.587  -0.225   5.676 -1.1198  0.9306 -2.9884
  487MOL0     H64236   8.525  -0.057   5.659  3.9739  3.1851  0.7056
  487MOL0     H64237   8.456   0.066   5.874  0.0574 -0.2772 -1.7131
  487MOL0     H64238   8.268   0.058   6.131  0.8282 -2.0869  1.8100
  487MOL0     H64239   8.181  -0.090   6.131 -1.5730  0.1714 -0.6685
  487MOL0     H64240   8.029   0.067   6.030 -1.5239  1.4616 -2.6009
  487MOL0     H64241   8.112   0.002   5.883  0.5055  2.8785 -2.5708
  487MOL0     H64242   8.190   0.261   6.024 -2.3917 -1.1993  1.8718
  487MOL0     H64243   8.261   0.180   5.878 -1.9293 -1.1648 -1.6973
  487MOL0     H64244   7.964   0.264   5.910 -1.7024  4.4999 -2.0754
  487MOL0     H64245   8.041   0.216   5.756 -0.1628  0.0718 -0.2853
  487MOL0     H64246   8.210   0.624   5.869  1.1221 -0.7743  1.9980
  487MOL0     H64247   8.417   0.686   5.760  0.4436  0.5579  0.0705
  487MOL0     H64248   8.837   0.446   5.673  0.0265 -0.5301 -0.9267
  487MOL0     H64249   9.063   0.502   5.693 -0.6880 -1.0609  1.0067
  487MOL0     H64250   9.218   0.908   5.576  1.3268  0.3894 -0.9293
  487MOL0     H64251   9.189   0.834   5.417 -3.5693  0.8102  1.8253
  487MOL0     H64252   9.436   0.886   5.481  0.8073 -1.2065 -1.2695
  487MOL0     H64253   9.405   0.721   5.430  1.2022 -4.2998  3.7513
  487MOL0     H64254   9.554   0.720   5.618 -0.3253  1.6106 -1.8141
  487MOL0     H64255   9.409   0.635   5.661  1.4996 -0.2468  2.9314
  487MOL0     H64256   9.437   0.932   5.742 -2.9723  0.6574  0.0635
  487MOL0     H64257   9.329   0.807   5.802  0.3633 -0.5638  0.4784
  487MOL0     H64258   9.618   0.835   5.842  1.4037  0.9631  3.2858
  487MOL0     H64259   9.537   0.677   5.867 -1.6664  0.3840 -1.6727
  487MOL0     H64260   9.540   0.790   6.097  2.6460  2.9001  0.1578
  487MOL0     H64261   9.375   0.799   6.031  0.1511 -1.5667  1.1781
  487MOL0     H64262   9.549   1.038   5.949  0.8234  0.8552  0.4594
  487MOL0     H64263   9.393   1.027   6.003  0.0719  0.2703  1.4651
  487MOL0     H64264   9.540   1.136   6.177 -0.8536 -0.3454 -2.6886
  487MOL0     H64265   9.646   0.992   6.186 -0.8237 -0.8892  1.0493
  487MOL0     H64266   8.994   0.884   5.495 -2.9654 -0.9639 -2.7823
  487MOL0     H64267   8.755   0.847   5.488  0.9636  0.8977 -0.7221
  487MOL0     H64268   8.397   0.336   5.520 -3.6548  0.5095 -0.7310
  487MOL0     H64269   8.187   0.271   5.610  0.6117 -0.9846  1.3792
  487MOL0     H64270   9.307   0.245   5.096  0.0133 -0.4813 -0.8125
  487MOL0     H64271   9.537   0.177   5.051 -0.4852  0.1130  0.6829
  487MOL0     H64272   9.855   0.453   4.823 -0.9268 -0.1316  0.7939
  487MOL0     H64273  10.097   0.445   4.732  1.3966 -0.3124  0.6341
  487MOL0     H64274  10.425   0.365   5.008  1.8624 -0.1189  0.4058
  487MOL0     H64275  10.495   0.317   4.850 -1.5020 -0.2553 -0.9616
  487MOL0     H64276  10.316   0.126   4.987  0.0318 -1.4283  0.6252
  487MOL0     H64277  10.392   0.110   4.826 -2.0967 -0.1554  1.2305
  487MOL0     H64278  10.492   0.124   5.109  0.9768  0.2523  1.3093
  487MOL0     H64279  10.609   0.160   4.980 -0.6165  1.1029  0.1201
  487MOL0     H64280  10.466  -0.115   4.962  1.6826 -1.8706 -0.4029
  487MOL0     H64281  10.602  -0.061   4.875 -0.7733 -0.4478  0.3347
  487MOL0     H64282  10.786  -0.195   5.219 -0.7293  1.1483  0.7165
  487MOL0     H64283  10.228   0.274   5.103 -0.6527 -1.6010  0.5475
  487MOL0     H64284  10.008   0.266   5.182 -0.4393 -0.7487 -0.5034
  488MOL0     O64285   1.835   5.298   5.938 -0.6034 -0.1937  0.0140
  488MOL0     C64286   1.895   5.190   5.960  0.0425 -0.3559  0.2007
  488MOL0     O64287   1.842   5.061   5.936  0.0544  0.1656  0.2432
  488MOL0     C64288   1.709   5.049   5.901 -0.2147  0.1568 -0.3725
  488MOL0     C64289   1.652   4.936   5.950  0.1900 -0.5303  0.1594
  488MOL0     C64290   1.517   4.915   5.932  0.5608  0.3684 -0.0246
  488MOL0     C64291   1.434   5.005   5.857 -0.1823 -0.4224 -0.0000
  488MOL0     O64292   1.313   4.975   5.820  0.2625  0.4640  0.2845
  488MOL0     C64293   1.227   5.081   5.823  0.7393  0.1601  0.1274
  488MOL0     C64294   1.089   5.015   5.785  0.3836 -0.3487 -0.0573
  488MOL0     C64295   0.980   5.120   5.783  0.3480  0.3885  0.0113
  488MOL0     C64296   0.847   5.062   5.765  0.1594  0.1658 -0.7255
  488MOL0     C64297   0.737   5.176   5.774 -0.9459  0.6198 -0.0099
  488MOL0     C64298   0.592   5.118   5.778  0.3914  0.0212 -0.1637
  488MOL0     C64299   0.508   5.223   5.842 -0.2240  0.4678 -0.3066
  488MOL0     C64300   0.499   5.194   5.993  0.5572  0.3875  0.2732
  488MOL0     N64301   0.432   5.309   6.061  0.3909 -0.5822 -0.0222
  488MOL0     C64302   0.489   5.382   6.163  0.0895 -0.5035  0.5896
  488MOL0     C64303   0.390   5.460   6.203  0.2425 -0.1020 -0.1894
  488MOL0     C64304   0.392   5.560   6.314  0.2459  0.0773 -0.3973
  488MOL0     C64305   0.449   5.702   6.276  0.6796  0.8814  0.0260
  488MOL0     C64306   0.520   5.755   6.400  0.7255 -0.7769 -0.1332
  488MOL0     C64307   0.587   5.883   6.360  0.6817 -0.4256  0.4814
  488MOL0     O64308   0.721   5.863   6.302 -0.0381  0.1849  0.6480
  488MOL0     C64309   0.750   5.917   6.182  0.1347  0.6819 -0.3779
  488MOL0     C64310   0.701   6.040   6.127 -0.1262  0.6009 -0.1468
  488MOL0     C64311   0.754   6.083   6.004 -0.1975 -0.0196 -0.3252
  488MOL0     C64312   0.853   6.016   5.933 -0.6630  0.2011  0.7721
  488MOL0     C64313   0.888   6.055   5.800  0.4708  1.4987  0.1778
  488MOL0     O64314   0.815   6.162   5.746  0.0059 -0.2031 -0.4194
  488MOL0     C64315   0.850   6.205   5.616  0.3704  0.2092  0.0999
  488MOL0     C64316   0.982   6.239   5.577  0.5999 -0.4789  0.4963
  488MOL0     C64317   1.014   6.264   5.447  0.4001 -0.6331  0.6440
  488MOL0     C64318   0.907   6.269   5.350 -0.2940  0.3978  0.5959
  488MOL0     O64319   0.917   6.304   5.222  0.1038  0.0298 -0.7906
  488MOL0     C64320   1.042   6.280   5.163  0.3151  0.0049  0.6906
  488MOL0     C64321   1.001   6.247   5.012 -0.0928  0.3826 -0.0286
  488MOL0     C64322   0.923   6.118   4.993  0.2857  0.7387 -0.5681
  488MOL0     C64323   0.911   6.104   4.842 -0.1641 -0.3294  0.6281
  488MOL0     C64324   0.777   6.027   4.822  0.7270  0.0099  0.1073
  488MOL0     C64325   0.743   6.014   4.676 -0.2946  0.6115 -0.0611
  488MOL0     C64326   0.591   5.981   4.660 -0.2512 -0.0594 -0.5290
  488MOL0     C64327   0.549   5.965   4.507 -0.2576  0.5750  0.2787
  488MOL0    Cl64328   0.630   6.089   4.402  0.5855 -0.3964 -0.0540
  488MOL0     C64329   0.779   6.248   5.388  0.7910 -0.6267 -0.5460
  488MOL0     C64330   0.748   6.214   5.520 -0.7271 -0.6210  0.5219
  488MOL0     O64331   0.960   5.971   5.743  0.2929 -0.1746 -0.1697
  488MOL0     C64332   0.902   5.901   5.991 -0.1956  0.1905 -0.1834
  488MOL0     C64333   0.863   5.850   6.116  0.7483  0.4896 -0.3540
  488MOL0     N64334   0.281   5.449   6.118 -0.0117  0.5341 -0.0066
  488MOL0     N64335   0.311   5.358   6.032 -0.4201 -0.4957 -0.9625
  488MOL0     C64336   1.503   5.106   5.800  0.6615 -0.4456 -0.2260
  488MOL0     C64337   1.638   5.126   5.812  0.0752 -0.1275  0.0953
  488MOL0     C64338   2.035   5.201   6.010 -0.5107  0.4734  0.2948
  488MOL0     C64339   2.104   5.326   6.011 -0.0490 -0.0051 -0.4416
  488MOL0     C64340   2.236   5.338   6.066 -0.4971  0.8699 -0.7260
  488MOL0     C64341   2.307   5.219   6.099  0.8157 -0.5577  0.5140
  488MOL0     O64342   2.437   5.209   6.138  0.3630 -0.1919  0.1682
  488MOL0     C64343   2.521   5.325   6.148  0.2214 -0.4704 -0.9935
  488MOL0     C64344   2.662   5.285   6.146  0.0853 -0.6811 -0.1678
  488MOL0     C64345   2.691   5.209   6.274  0.0532 -0.3596 -0.2549
  488MOL0     C64346   2.760   5.072   6.254 -0.0648  1.0181 -0.4497
  488MOL0     C64347   2.891   5.083   6.184  0.1378  0.6361 -0.2103
  488MOL0     C64348   2.998   5.072   6.123  0.5860  0.5010  0.0480
  488MOL0     C64349   2.236   5.094   6.086 -0.8861 -0.2063 -0.5274
  488MOL0     C64350   2.099   5.088   6.051  0.4699  0.7950 -0.4312
  488MOL0     H64351   1.712   4.869   6.011  3.3171  0.3586 -1.7010
  488MOL0     H64352   1.469   4.819   5.951  2.1295 -0.5922 -0.6395
  488MOL0     H64353   1.258   5.163   5.758  3.1780  0.2601  1.3115
  488MOL0     H64354   1.212   5.129   5.920  1.7585 -3.2633  2.1376
  488MOL0     H64355   1.069   4.940   5.862  2.3416  1.6209  2.5535
  488MOL0     H64356   1.086   4.963   5.689  0.9112  0.2918 -0.4292
  488MOL0     H64357   0.986   5.189   5.698  0.3434 -2.1704 -2.2006
  488MOL0     H64358   0.984   5.183   5.872 -1.2479  3.3563 -1.8423
  488MOL0     H64359   0.843   5.012   5.667 -2.5892 -0.8218 -0.1910
  488MOL0     H64360   0.831   4.989   5.845  0.8308  0.2684 -0.4913
  488MOL0     H64361   0.746   5.240   5.685 -4.1905 -0.6670 -1.4037
  488MOL0     H64362   0.764   5.223   5.869  1.5417 -0.3651 -0.1428
  488MOL0     H64363   0.586   5.024   5.834 -1.5450  1.9636  3.2647
  488MOL0     H64364   0.551   5.101   5.678 -1.4323  0.2323  0.5049
  488MOL0     H64365   0.549   5.324   5.830 -3.3779  1.6280 -2.9431
  488MOL0     H64366   0.406   5.232   5.803 -0.4701  2.7937  0.6585
  488MOL0     H64367   0.600   5.195   6.033  0.7172 -0.4599 -0.0885
  488MOL0     H64368   0.453   5.096   6.014  1.4135  0.3500  2.1337
  488MOL0     H64369   0.591   5.380   6.200  0.6013  0.0853 -0.7608
  488MOL0     H64370   0.463   5.523   6.389  2.7690  0.2595 -2.5546
  488MOL0     H64371   0.291   5.555   6.357  0.1567 -2.2175 -0.7504
  488MOL0     H64372   0.370   5.774   6.252 -0.3474 -0.2475 -0.0865
  488MOL0     H64373   0.522   5.678   6.198  1.8005 -1.3995  1.6786
  488MOL0     H64374   0.448   5.776   6.479  0.1598  1.8331 -1.2331
  488MOL0     H64375   0.603   5.702   6.448  0.9825  0.7002  1.1727
  488MOL0     H64376   0.604   5.950   6.445 -0.7075 -0.0918  0.5235
  488MOL0     H64377   0.528   5.941   6.289  1.1166 -0.9623 -0.3308
  488MOL0     H64378   0.618   6.093   6.173 -0.2063  1.5123 -1.3093
  488MOL0     H64379   0.701   6.169   5.962 -1.8114 -1.0651 -0.5163
  488MOL0     H64380   1.068   6.253   5.641  0.3212  0.0387  0.7686
  488MOL0     H64381   1.115   6.285   5.414 -0.7171  1.1673 -1.9650
  488MOL0     H64382   1.099   6.195   5.202  2.0898  0.6374 -0.4068
  488MOL0     H64383   1.098   6.373   5.156 -0.6569  0.4698 -3.1470
  488MOL0     H64384   1.094   6.241   4.955 -0.2972 -0.9330 -0.2492
  488MOL0     H64385   0.947   6.328   4.961  2.9994  1.3680 -2.0199
  488MOL0     H64386   0.828   6.134   5.046  1.2867  1.2887  1.1630
  488MOL0     H64387   0.967   6.021   5.019 -0.9872  0.3639  0.3151
  488MOL0     H64388   0.910   6.202   4.794  1.7435 -1.7699 -2.6871
  488MOL0     H64389   0.995   6.048   4.799 -1.9236 -2.8325  0.2776
  488MOL0     H64390   0.696   6.085   4.866 -0.5480 -2.0761  0.6909
  488MOL0     H64391   0.777   5.929   4.871  0.5730  0.6183  1.3627
  488MOL0     H64392   0.806   5.946   4.618 -2.0167 -0.0478 -1.2675
  488MOL0     H64393   0.761   6.116   4.640  0.9512  1.2591  2.2261
  488MOL0     H64394   0.568   5.882   4.699 -1.0785 -0.8430 -2.8019
  488MOL0     H64395   0.535   6.065   4.701 -1.4371 -1.0177 -0.1194
  488MOL0     H64396   0.440   5.960   4.495 -0.4588  0.4487  1.8832
  488MOL0     H64397   0.590   5.870   4.472 -1.2461  0.2057  0.1075
  488MOL0     H64398   0.698   6.281   5.324 -4.5125 -2.3781  4.3223
  488MOL0     H64399   0.643   6.200   5.544 -1.4302 -2.4229 -2.9659
  488MOL0     H64400   0.982   5.849   5.940  0.8314  0.6679  0.9040
  488MOL0     H64401   0.918   5.770   6.166  0.8690  0.9154  0.2067
  488MOL0     H64402   1.456   5.190   5.749 -0.5088 -0.4778  0.7415
  488MOL0     H64403   1.688   5.205   5.757  0.5281 -1.2314 -1.1283
  488MOL0     H64404   2.061   5.418   5.971 -1.6393 -0.1822  0.7595
  488MOL0     H64405   2.292   5.430   6.075  1.4947 -0.4840  4.7373
  488MOL0     H64406   2.498   5.374   6.243  3.2288 -1.3157  0.2870
  488MOL0     H64407   2.497   5.391   6.065 -1.3363 -0.4740 -0.5765
  488MOL0     H64408   2.694   5.234   6.055 -1.4394 -5.2952  1.5939
  488MOL0     H64409   2.707   5.385   6.142 -1.7472  0.2047  0.0843
  488MOL0     H64410   2.606   5.213   6.342  0.8429  2.5964  0.7424
  488MOL0     H64411   2.762   5.273   6.328 -0.4110 -0.5559  0.6069
  488MOL0     H64412   2.766   5.022   6.351  2.0810 -2.0454 -2.0017
  488MOL0     H64413   2.698   5.006   6.193  1.1556 -1.2053  0.6159
  488MOL0     H64414   3.085   5.067   6.061  1.8104 -0.4846  1.7519
  488MOL0     H64415   2.296   5.010   6.119  1.2766  2.0439  1.6331
  488MOL0     H64416   2.056   4.989   6.063  0.4867  1.0017  1.7128
  489MOL0     O64417   4.827   9.954   9.930 -0.0342  0.4164  0.0946
  489MOL0     C64418   4.896   9.981   9.834 -1.1325  0.4767  0.2724
  489MOL0     O64419   4.852  10.021   9.703  0.3399  0.0009  0.1313
  489MOL0     C64420   4.719   9.995   9.670 -0.5865  0.5975 -0.1180
  489MOL0     C64421   4.628  10.099   9.638 -0.0320 -0.0662 -0.0689
  489MOL0     C64422   4.502  10.067   9.598  0.4318 -0.0141 -0.1664
  489MOL0     C64423   4.464   9.937   9.583 -0.0398  1.1804  1.4894
  489MOL0     O64424   4.342   9.903   9.524 -0.1313  0.2850  0.0953
  489MOL0     C64425   4.264  10.002   9.452  0.5439 -0.5397  0.4565
  489MOL0     C64426   4.184   9.925   9.350  0.2714  1.0645  0.8962
  489MOL0     C64427   4.089  10.018   9.259 -1.0141 -0.5233 -0.1504
  489MOL0     C64428   3.996  10.112   9.331  0.2912  0.1006  0.2474
  489MOL0     C64429   3.876  10.065   9.414 -0.5365 -0.4156 -0.6774
  489MOL0     C64430   3.776   9.990   9.327  0.0760 -0.5147  1.0239
  489MOL0     C64431   3.624   9.981   9.380  0.3681  0.5015  0.3425
  489MOL0     C64432   3.543   9.889   9.279 -0.4939 -0.2929 -1.0913
  489MOL0     N64433   3.404   9.871   9.321 -0.1062 -0.1560  0.3666
  489MOL0     C64434   3.362   9.832   9.441  0.8436 -0.0186  0.0392
  489MOL0     C64435   3.221   9.829   9.430  0.0669  0.0427 -0.1035
  489MOL0     C64436   3.135   9.777   9.546  0.1226 -0.1050  0.6021
  489MOL0     C64437   2.991   9.758   9.509  1.0043  0.2033  0.1686
  489MOL0     C64438   2.912   9.883   9.450  0.3525  0.2392  0.2112
  489MOL0     C64439   2.759   9.883   9.454  0.3496 -0.4085 -0.8935
  489MOL0     O64440   2.687   9.994   9.391  0.1068  0.6619 -0.3980
  489MOL0     C64441   2.559   9.983   9.367 -0.6232 -0.2015 -0.8015
  489MOL0     C64442   2.470   9.883   9.414 -0.9105 -0.1315  0.2414
  489MOL0     C64443   2.342   9.883   9.366  0.6439 -0.1782 -0.9561
  489MOL0     C64444   2.296   9.971   9.267 -0.2689 -0.2363  0.0374
  489MOL0     C64445   2.166   9.964   9.212  1.1891 -0.0390  0.0032
  489MOL0     O64446   2.064   9.910   9.284 -0.2763 -0.3476 -0.3267
  489MOL0     C64447   1.946   9.943   9.226  0.1810 -0.3965 -0.6809
  489MOL0     C64448   1.890   9.863   9.133 -0.1626 -0.1884  0.2264
  489MOL0     C64449   1.755   9.882   9.091 -0.0326 -0.0024 -0.3864
  489MOL0     C64450   1.687   9.992   9.124  0.0807 -0.1639 -0.6983
  489MOL0     O64451   1.565  10.011   9.073  0.9714  0.2487 -0.2359
  489MOL0     C64452   1.477  10.121   9.125  0.1938  0.3583 -0.4977
  489MOL0     C64453   1.339  10.087   9.064  0.7422  0.4727 -0.8938
  489MOL0     C64454   1.280   9.960   9.124  0.8916  0.1112  0.7734
  489MOL0     C64455   1.127   9.974   9.087 -0.6931  0.4934  0.1480
  489MOL0     C64456   1.047   9.856   9.153  0.2596 -0.4173 -0.0620
  489MOL0     C64457   0.917   9.850   9.094  0.6387  1.1243 -0.2584
  489MOL0     C64458   0.842   9.740   9.180 -0.3657  0.8352 -0.4192
  489MOL0     C64459   0.690   9.755   9.147  0.4766  0.4910  0.3308
  489MOL0    Cl64460   0.594   9.687   9.269 -0.2847  0.3752  0.6453
  489MOL0     C64461   1.749  10.071   9.225 -0.3853 -1.5559  0.4168
  489MOL0     C64462   1.875  10.056   9.274  0.2442 -0.1024  0.1652
  489MOL0     O64463   2.155   9.997   9.091  0.2741 -0.3872 -0.3073
  489MOL0     C64464   2.384  10.077   9.227  0.2917  0.6831  0.6774
  489MOL0     C64465   2.515  10.088   9.280 -0.1137  0.8182 -0.1829
  489MOL0     N64466   3.195   9.882   9.311 -0.2249  0.5531 -0.4467
  489MOL0     N64467   3.293   9.902   9.247 -0.2885 -0.1969 -0.0500
  489MOL0     C64468   4.552   9.824   9.608 -0.3729 -0.7287 -0.4723
  489MOL0     C64469   4.677   9.855   9.658 -0.4363 -0.0633  0.1798
  489MOL0     C64470   5.044   9.998   9.866  0.4952  0.4063 -0.7452
  489MOL0     C64471   5.095   9.987   9.994  0.2297 -0.3488  0.5516
  489MOL0     C64472   5.228  10.009  10.020 -0.1342  0.5620 -1.3180
  489MOL0     C64473   5.318  10.030   9.916 -0.3950 -1.0546 -0.8723
  489MOL0     O64474   5.453  10.040   9.934 -0.3202 -1.0688  0.1279
  489MOL0     C64475   5.541  10.055   9.824  0.4677 -0.4463  0.5584
  489MOL0     C64476   5.681   9.996   9.867  0.3619  0.1967  0.6989
  489MOL0     C64477   5.649   9.849   9.890 -0.6904 -0.7758  1.1071
  489MOL0     C64478   5.785   9.783   9.920 -0.7177  0.0357  0.6763
  489MOL0     C64479   5.762   9.660  10.007  0.0954 -0.1706  0.6873
  489MOL0     C64480   5.727   9.562  10.075  0.2561  0.4838  0.0647
  489MOL0     C64481   5.269  10.047   9.787  0.1605 -0.4827  0.4045
  489MOL0     C64482   5.133  10.034   9.768  0.4694 -0.4748  0.4287
  489MOL0     H64483   4.664  10.201   9.642 -2.1296  0.7325 -0.2093
  489MOL0     H64484   4.435  10.149   9.576  3.3222  1.9544 -2.4644
  489MOL0     H64485   4.321  10.071   9.389 -1.6582  0.9743 -0.0070
  489MOL0     H64486   4.201  10.058   9.522  0.1575 -0.3402 -0.0459
  489MOL0     H64487   4.113   9.855   9.397  2.2395 -0.3527  1.9193
  489MOL0     H64488   4.243   9.864   9.281 -1.3609  1.2806 -0.7718
  489MOL0     H64489   4.029   9.955   9.193 -0.7570 -0.8007 -0.1194
  489MOL0     H64490   4.155  10.087   9.206 -1.1484  0.5788  1.0929
  489MOL0     H64491   4.058  10.172   9.398  0.7166 -0.2577  0.1786
  489MOL0     H64492   3.945  10.184   9.266  1.5875  0.7751 -0.0404
  489MOL0     H64493   3.829  10.155   9.453 -2.0987 -0.7008 -1.8307
  489MOL0     H64494   3.904   9.994   9.492  1.3287  1.0419  0.0703
  489MOL0     H64495   3.822   9.894   9.301  0.9765  0.2425 -0.2784
  489MOL0     H64496   3.753  10.057   9.244 -3.4531 -0.7975  1.5882
  489MOL0     H64497   3.633   9.933   9.479  1.0145 -2.5557 -1.0744
  489MOL0     H64498   3.577  10.079   9.388  0.0118  0.4119 -0.5836
  489MOL0     H64499   3.592   9.791   9.288 -0.4125 -0.0982  1.7054
  489MOL0     H64500   3.543   9.935   9.180  0.8153  2.2019 -0.0275
  489MOL0     H64501   3.420   9.826   9.532 -0.9833  2.3768  1.4765
  489MOL0     H64502   3.141   9.856   9.622 -1.9611 -0.1056  0.8199
  489MOL0     H64503   3.179   9.680   9.571  0.5946  0.1695  0.8676
  489MOL0     H64504   2.942   9.733   9.604  0.2870  2.3482  0.4000
  489MOL0     H64505   2.979   9.666   9.451 -0.2483  0.0519  0.6302
  489MOL0     H64506   2.928   9.971   9.513 -4.8695  1.7780 -0.1134
  489MOL0     H64507   2.944   9.900   9.347  0.3219  3.3904  0.6138
  489MOL0     H64508   2.731   9.878   9.560  1.1997 -3.9823 -0.7162
  489MOL0     H64509   2.734   9.788   9.407 -1.1607 -0.2222 -0.5283
  489MOL0     H64510   2.511   9.810   9.482  0.1962  1.2432  1.1142
  489MOL0     H64511   2.267   9.812   9.401  2.2855 -1.7211 -0.4572
  489MOL0     H64512   1.946   9.776   9.102 -0.6308 -0.4207  0.0125
  489MOL0     H64513   1.716   9.802   9.029  0.9844  0.0554 -1.1347
  489MOL0     H64514   1.501  10.219   9.082 -1.3411  0.6693 -0.7084
  489MOL0     H64515   1.469  10.117   9.234  0.7260 -1.0761 -0.4986
  489MOL0     H64516   1.340  10.072   8.956 -1.8631  0.9127 -1.0406
  489MOL0     H64517   1.271  10.171   9.082 -1.1456 -0.9421 -1.0696
  489MOL0     H64518   1.300   9.958   9.231  0.5783  2.7767  0.9482
  489MOL0     H64519   1.310   9.865   9.078 -0.7108  0.1720 -0.5309
  489MOL0     H64520   1.089  10.069   9.125 -0.7144  0.4010  0.3622
  489MOL0     H64521   1.115   9.969   8.979  1.1603  0.3008 -0.0899
  489MOL0     H64522   1.038   9.870   9.261  1.4705 -0.9709  0.1313
  489MOL0     H64523   1.094   9.759   9.138  1.7718 -0.0222  1.7795
  489MOL0     H64524   0.919   9.802   8.996  2.5778 -2.3386  1.2915
  489MOL0     H64525   0.871   9.949   9.104  1.8010  1.5875  0.7429
  489MOL0     H64526   0.873   9.639   9.151 -0.5561  0.7612 -0.3672
  489MOL0     H64527   0.860   9.748   9.287  2.1519 -2.0761 -0.4697
  489MOL0     H64528   0.673   9.704   9.051  2.5663  1.0359 -0.3769
  489MOL0     H64529   0.667   9.861   9.138  2.6743  0.9314 -1.0249
  489MOL0     H64530   1.691  10.150   9.272 -0.6904 -0.9377 -0.9463
  489MOL0     H64531   1.916  10.120   9.351 -1.5726  2.9946 -1.2487
  489MOL0     H64532   2.349  10.150   9.155  0.6830 -0.1120 -0.3355
  489MOL0     H64533   2.581  10.170   9.257 -1.0567  1.4190 -0.8359
  489MOL0     H64534   4.534   9.723   9.572 -3.7794 -0.3647 -0.1563
  489MOL0     H64535   4.733   9.767   9.688 -0.5433 -0.5245 -0.9216
  489MOL0     H64536   5.024   9.968  10.073  0.5203  0.6399  1.0643
  489MOL0     H64537   5.260  10.000  10.123  0.3837  0.1053 -1.5148
  489MOL0     H64538   5.548  10.160   9.796 -2.2975 -0.3196  0.1064
  489MOL0     H64539   5.513  10.002   9.732 -2.2784 -1.2250  1.7569
  489MOL0     H64540   5.749  10.017   9.785  1.0381 -1.2069  0.8844
  489MOL0     H64541   5.721  10.036   9.961  0.0700 -0.7314  1.2359
  489MOL0     H64542   5.609   9.812   9.795 -0.3002 -2.0487  1.4260
  489MOL0     H64543   5.571   9.819   9.961  0.3368 -2.9660  1.3842
  489MOL0     H64544   5.833   9.754   9.825  0.7186 -0.7450  1.5999
  489MOL0     H64545   5.855   9.849   9.973 -0.9095 -0.2840  1.3211
  489MOL0     H64546   5.711   9.476  10.138  0.0218  0.3523 -0.1716
  489MOL0     H64547   5.331  10.059   9.699  0.1977 -2.0865  0.1834
  489MOL0     H64548   5.077  10.033   9.675 -1.4519 -2.6590  1.5113
  490MOL0     O64549   8.108   8.441   5.903  0.2583 -0.3289  0.1866
  490MOL0     C64550   8.087   8.325   5.860 -0.0540 -0.2561  0.2514
  490MOL0     O64551   7.975   8.276   5.812 -0.3206 -0.6300  0.1540
  490MOL0     C64552   7.859   8.342   5.831 -0.2339 -0.4481 -0.4270
  490MOL0     C64553   7.819   8.456   5.763  0.2421  0.1502 -0.0260
  490MOL0     C64554   7.683   8.505   5.784 -1.4601 -0.4212 -0.0328
  490MOL0     C64555   7.598   8.448   5.877 -0.3256  0.2310 -1.1847
  490MOL0     O64556   7.476   8.510   5.891  0.1554  0.1184  0.5480
  490MOL0     C64557   7.380   8.446   5.966  0.3476 -0.4524 -0.1669
  490MOL0     C64558   7.259   8.535   5.968 -0.6380 -0.3909 -0.2330
  490MOL0     C64559   7.148   8.458   6.053 -0.0791 -0.0513 -0.0595
  490MOL0     C64560   7.006   8.497   5.994  0.1664 -0.4806 -0.1176
  490MOL0     C64561   6.892   8.394   6.016 -0.0619 -0.6547  0.6409
  490MOL0     C64562   6.866   8.366   6.162  0.9022  0.0379  0.3140
  490MOL0     C64563   6.768   8.474   6.216  0.2837 -0.1121 -0.6515
  490MOL0     C64564   6.617   8.437   6.222 -0.2961  0.4699  0.1856
  490MOL0     N64565   6.543   8.551   6.261 -0.1963  0.2780  0.3343
  490MOL0     C64566   6.508   8.656   6.180  0.2764  0.0768  1.0872
  490MOL0     C64567   6.443   8.747   6.263 -0.0826  0.0402  0.4091
  490MOL0     C64568   6.377   8.879   6.214  0.0889 -0.3292 -0.0123
  490MOL0     C64569   6.320   8.875   6.064  0.0685 -0.2656 -0.1090
  490MOL0     C64570   6.189   8.789   6.054 -0.1862  0.7175 -0.0533
  490MOL0     C64571   6.082   8.816   6.155 -0.5173  0.9965  0.5073
  490MOL0     O64572   6.047   8.950   6.172 -0.4389 -0.3929 -0.3021
  490MOL0     C64573   5.962   8.985   6.276 -0.4718  0.3026  0.0959
  490MOL0     C64574   5.949   9.122   6.296  0.3152 -1.0750 -0.5278
  490MOL0     C64575   5.838   9.177   6.372 -0.4485  0.3143  0.4131
  490MOL0     C64576   5.748   9.080   6.432 -0.2805 -0.4606 -0.0420
  490MOL0     C64577   5.638   9.138   6.519 -0.5269 -0.2425  0.0735
  490MOL0     O64578   5.611   9.270   6.504 -0.8217  0.2491 -1.2094
  490MOL0     C64579   5.520   9.326   6.584 -0.0352 -0.1389 -0.7329
  490MOL0     C64580   5.549   9.399   6.700  0.7964 -0.3275  0.8180
  490MOL0     C64581   5.450   9.470   6.769  1.0167  0.1799 -0.1659
  490MOL0     C64582   5.315   9.454   6.726 -0.2283  0.3870 -0.2502
  490MOL0     O64583   5.213   9.512   6.798  0.0807 -0.1211  0.3349
  490MOL0     C64584   5.220   9.655   6.838 -0.9939 -0.4884 -0.6168
  490MOL0     C64585   5.082   9.727   6.822 -0.2993 -0.7712 -0.5182
  490MOL0     C64586   4.974   9.625   6.869 -0.5490  0.1082  0.6095
  490MOL0     C64587   4.824   9.678   6.845  0.4130  0.1076 -0.0365
  490MOL0     C64588   4.723   9.564   6.884  0.3730 -0.9436  0.2325
  490MOL0     C64589   4.584   9.625   6.925  0.4822 -0.1042 -0.5106
  490MOL0     C64590   4.517   9.682   6.793 -0.0556  0.5358  0.2461
  490MOL0     C64591   4.377   9.718   6.832  0.1078 -0.5036 -0.5012
  490MOL0    Cl64592   4.311   9.779   6.681  0.1430  0.5253 -0.1508
  490MOL0     C64593   5.278   9.380   6.624  0.2228  0.1471  0.4372
  490MOL0     C64594   5.385   9.309   6.554  0.1547  0.0898  0.1207
  490MOL0     O64595   5.568   9.059   6.579  0.1088 -0.5727  0.5924
  490MOL0     C64596   5.782   8.948   6.430  0.0711  0.6600 -0.2828
  490MOL0     C64597   5.883   8.902   6.351  0.1834 -0.3456  0.2037
  490MOL0     N64598   6.442   8.696   6.394  0.2553 -0.0637  0.5341
  490MOL0     N64599   6.504   8.585   6.392  0.5090  0.5465  0.6865
  490MOL0     C64600   7.645   8.341   5.946 -0.1339 -0.0748 -0.0011
  490MOL0     C64601   7.772   8.284   5.920 -0.1896  0.2201  0.7058
  490MOL0     C64602   8.205   8.235   5.834 -0.1154  0.5115  0.0588
  490MOL0     C64603   8.195   8.101   5.792  0.9088  0.7067 -0.1372
  490MOL0     C64604   8.308   8.030   5.785 -1.0587 -0.5841 -0.1813
  490MOL0     C64605   8.437   8.071   5.815  0.2616 -0.6277  0.1549
  490MOL0     O64606   8.545   7.977   5.799 -0.2056  0.0683 -0.8252
  490MOL0     C64607   8.676   8.037   5.788 -0.1774 -0.3074  0.1368
  490MOL0     C64608   8.780   7.937   5.728  0.7441 -0.4405 -0.1251
  490MOL0     C64609   8.924   7.984   5.752  0.1433 -1.4104  0.2232
  490MOL0     C64610   8.961   7.972   5.896  0.0292 -0.2175  0.2971
  490MOL0     C64611   9.102   8.001   5.911  0.3733  0.1433  0.4471
  490MOL0     C64612   9.218   8.043   5.895  0.3906  0.4475  0.1235
  490MOL0     C64613   8.442   8.209   5.856 -0.4319  0.6476  0.4252
  490MOL0     C64614   8.332   8.289   5.855 -0.6712  0.4204  0.3646
  490MOL0     H64615   7.894   8.496   5.697  0.6836  1.4598  1.2182
  490MOL0     H64616   7.641   8.583   5.721 -2.0595  0.1041  0.9876
  490MOL0     H64617   7.410   8.427   6.070 -1.8178 -1.8607  0.2608
  490MOL0     H64618   7.350   8.357   5.909 -0.5801  0.6077 -1.3839
  490MOL0     H64619   7.221   8.558   5.868 -1.7525  1.5631  0.5807
  490MOL0     H64620   7.281   8.633   6.010 -1.6071 -0.4924  0.5644
  490MOL0     H64621   7.150   8.485   6.159 -1.0712 -0.6835  0.1355
  490MOL0     H64622   7.162   8.350   6.056  1.7981  0.1496  3.7419
  490MOL0     H64623   6.981   8.587   6.050  3.3414 -0.4459  1.4019
  490MOL0     H64624   7.007   8.511   5.885  2.3152  2.6845  0.1994
  490MOL0     H64625   6.912   8.298   5.967  2.5251 -0.7694  1.7648
  490MOL0     H64626   6.799   8.430   5.970  0.1965 -0.1509  0.5150
  490MOL0     H64627   6.960   8.368   6.218  1.4465  4.3589 -0.4056
  490MOL0     H64628   6.827   8.264   6.164 -0.0139  0.3913  1.3286
  490MOL0     H64629   6.806   8.498   6.315 -3.4778 -0.2634  0.9911
  490MOL0     H64630   6.763   8.570   6.164 -3.8769  1.8440  2.7638
  490MOL0     H64631   6.601   8.357   6.295  1.6477  0.5111  0.7118
  490MOL0     H64632   6.587   8.395   6.126  0.2016 -1.6114  0.8771
  490MOL0     H64633   6.518   8.665   6.072 -0.2589  3.2401  1.2061
  490MOL0     H64634   6.463   8.947   6.209  1.3196 -1.8246  0.1566
  490MOL0     H64635   6.307   8.918   6.288 -0.4875  0.2532 -0.8502
  490MOL0     H64636   6.390   8.825   5.997  2.8310  0.6127  1.9264
  490MOL0     H64637   6.296   8.971   6.019 -2.9057 -1.4550 -1.3716
  490MOL0     H64638   6.158   8.805   5.951 -1.1277 -0.8373 -0.0275
  490MOL0     H64639   6.210   8.682   6.052  0.5006  0.8606 -1.2100
  490MOL0     H64640   6.115   8.769   6.248 -1.8999 -1.7101 -0.2640
  490MOL0     H64641   5.995   8.755   6.132  1.3581 -1.7095  0.0435
  490MOL0     H64642   6.024   9.182   6.246  0.6235 -0.2955  0.8129
  490MOL0     H64643   5.826   9.284   6.386 -0.6245  0.4021 -0.3879
  490MOL0     H64644   5.656   9.402   6.716  1.2075 -1.4674 -1.3619
  490MOL0     H64645   5.483   9.532   6.851 -1.9911  1.4984  0.1524
  490MOL0     H64646   5.293   9.707   6.775  0.7950 -0.5237  1.2888
  490MOL0     H64647   5.253   9.660   6.942  0.9499 -3.7367 -0.9554
  490MOL0     H64648   5.065   9.741   6.715 -2.1969 -1.7320 -0.3982
  490MOL0     H64649   5.072   9.826   6.867  1.8907 -0.7789  0.0934
  490MOL0     H64650   4.988   9.597   6.973 -2.3144  1.7734  1.3480
  490MOL0     H64651   4.985   9.536   6.806 -0.0725  1.7306 -1.7330
  490MOL0     H64652   4.800   9.764   6.907 -1.1093 -0.0900 -0.2870
  490MOL0     H64653   4.800   9.712   6.744 -0.8800  1.0450  0.5544
  490MOL0     H64654   4.765   9.501   6.964  1.0395 -0.2951  0.4077
  490MOL0     H64655   4.714   9.496   6.799  0.4893 -0.8399  0.1365
  490MOL0     H64656   4.584   9.710   6.993  0.9375  1.3266 -2.2255
  490MOL0     H64657   4.527   9.548   6.978  0.3779  0.2616 -0.0957
  490MOL0     H64658   4.572   9.765   6.748 -2.8998  0.7952 -3.1356
  490MOL0     H64659   4.510   9.607   6.713  0.0220  0.0935  0.6526
  490MOL0     H64660   4.375   9.789   6.915  0.5349  0.8638 -1.6208
  490MOL0     H64661   4.330   9.627   6.871  0.4245 -1.5866 -2.5333
  490MOL0     H64662   5.173   9.389   6.600  0.4946 -0.3004 -0.9757
  490MOL0     H64663   5.366   9.245   6.469 -0.4863 -1.5911  1.4765
  490MOL0     H64664   5.712   8.884   6.482 -1.0607 -0.1744 -2.6996
  490MOL0     H64665   5.901   8.796   6.339 -2.3709 -0.7625 -0.6702
  490MOL0     H64666   7.587   8.291   6.023 -0.3124  0.8534  0.4819
  490MOL0     H64667   7.809   8.208   5.988  0.0277 -0.9567 -0.6882
  490MOL0     H64668   8.100   8.054   5.769 -0.3304  1.9446  2.1219
  490MOL0     H64669   8.297   7.933   5.737  1.2658 -1.5587  1.0575
  490MOL0     H64670   8.712   8.072   5.884  0.7334 -1.1072  0.1032
  490MOL0     H64671   8.665   8.126   5.725  0.3789 -2.1525 -2.7733
  490MOL0     H64672   8.764   7.839   5.773 -0.7395 -0.8567 -1.4701
  490MOL0     H64673   8.758   7.930   5.621 -2.1438  0.4928  0.3245
  490MOL0     H64674   8.948   8.083   5.713  0.2974 -1.4019  0.3386
  490MOL0     H64675   8.987   7.917   5.692  0.6658 -0.4986 -0.2565
  490MOL0     H64676   8.896   8.031   5.961 -0.9477  0.3720 -1.1562
  490MOL0     H64677   8.950   7.866   5.922  1.1824 -0.0695  1.5245
  490MOL0     H64678   9.319   8.075   5.882  1.0997 -1.9310 -1.0286
  490MOL0     H64679   8.533   8.263   5.878 -0.7249  1.7234 -0.8751
  490MOL0     H64680   8.333   8.396   5.876 -1.9435 -0.2672  4.8896
  491MOL0     O64681   3.395   1.768   9.712 -0.7147  0.0949 -0.1718
  491MOL0     C64682   3.404   1.745   9.591  0.2014 -0.1393  0.2391
  491MOL0     O64683   3.320   1.669   9.511 -0.8231 -0.2741 -0.6857
  491MOL0     C64684   3.216   1.609   9.576  0.3150  0.2478  0.1221
  491MOL0     C64685   3.233   1.494   9.637  0.5498 -0.4938 -0.1978
  491MOL0     C64686   3.117   1.418   9.682 -0.9478 -0.9894  0.1023
  491MOL0     C64687   2.993   1.468   9.662  0.4881 -0.7063  0.2408
  491MOL0     O64688   2.884   1.378   9.676  0.3230  0.5278 -0.1116
  491MOL0     C64689   2.750   1.429   9.667  0.2005 -0.0177 -0.3916
  491MOL0     C64690   2.643   1.320   9.670  0.4869  1.0619 -0.7438
  491MOL0     C64691   2.511   1.373   9.629  0.0066  0.6616 -0.3553
  491MOL0     C64692   2.411   1.256   9.631 -0.0474  0.3505 -0.0747
  491MOL0     C64693   2.260   1.300   9.622 -0.2892  0.3676 -0.2045
  491MOL0     C64694   2.172   1.174   9.629 -0.5783  0.2388  0.8970
  491MOL0     C64695   2.028   1.205   9.662  0.0786  0.0790  0.2003
  491MOL0     C64696   1.949   1.238   9.533  0.2394 -0.2997 -1.4874
  491MOL0     N64697   1.805   1.232   9.552  0.0022  0.3184  0.0390
  491MOL0     C64698   1.732   1.121   9.583 -0.0826 -0.2666  0.3124
  491MOL0     C64699   1.609   1.163   9.592 -0.0734 -0.2507 -0.6426
  491MOL0     C64700   1.490   1.079   9.609  0.2246  0.2445 -0.0540
  491MOL0     C64701   1.368   1.167   9.575 -0.1066  0.6199  0.1504
  491MOL0     C64702   1.243   1.109   9.651  0.4378 -0.9259 -0.8998
  491MOL0     C64703   1.234   0.952   9.642 -0.7377  0.5068 -0.0290
  491MOL0     O64704   1.170   0.903   9.757  0.1402  0.1432  0.1999
  491MOL0     C64705   1.036   0.929   9.776  0.0299 -0.9932  0.0233
  491MOL0     C64706   0.942   0.926   9.669 -0.0221 -0.1608 -0.2907
  491MOL0     C64707   0.808   0.968   9.687 -0.2330  0.2641  0.3723
  491MOL0     C64708   0.763   1.014   9.806 -0.3514  0.0323 -0.6952
  491MOL0     C64709   0.619   1.045   9.830  0.0431 -0.3023 -0.6700
  491MOL0     O64710   0.544   1.052   9.714  0.4196 -0.1461 -0.3353
  491MOL0     C64711   0.401   1.053   9.729  0.1391  0.3455  0.3679
  491MOL0     C64712   0.334   1.158   9.791 -0.5587 -0.7770 -0.3877
  491MOL0     C64713   0.195   1.154   9.811  0.0710 -0.4302  0.2549
  491MOL0     C64714   0.113   1.049   9.770 -0.1042  0.1571 -1.0687
  491MOL0     O64715  -0.022   1.056   9.784  0.4569  0.6130  0.0855
  491MOL0     C64716  -0.102   0.979   9.690 -0.1851  0.3960  0.6510
  491MOL0     C64717  -0.247   1.020   9.690 -0.6438  0.2944 -0.3473
  491MOL0     C64718  -0.325   0.937   9.595 -0.3647 -0.4420 -0.8211
  491MOL0     C64719  -0.463   1.005   9.580 -0.0107  0.0491 -0.0853
  491MOL0     C64720  -0.547   0.924   9.483 -0.0050 -0.5856  0.0341
  491MOL0     C64721  -0.701   0.941   9.512 -0.2170 -0.0512 -0.6405
  491MOL0     C64722  -0.769   0.870   9.401  0.0989  0.4968  0.1678
  491MOL0     C64723  -0.921   0.873   9.417 -0.2548 -0.2992  0.4411
  491MOL0    Cl64724  -0.958   1.048   9.424  0.4494  0.0474 -0.0724
  491MOL0     C64725   0.184   0.942   9.701  0.4515 -0.6658  0.1355
  491MOL0     C64726   0.323   0.951   9.670 -0.0298  0.2844 -0.2206
  491MOL0     O64727   0.590   1.089   9.941  0.3559 -0.6640  0.1797
  491MOL0     C64728   0.856   1.017   9.918 -0.0602 -1.0814  0.0663
  491MOL0     C64729   0.989   0.980   9.902 -1.2817  0.5352  0.2065
  491MOL0     N64730   1.613   1.300   9.568 -0.1390 -0.1143 -0.5138
  491MOL0     N64731   1.728   1.344   9.549  0.5700  1.1650 -0.5106
  491MOL0     C64732   2.982   1.604   9.622 -0.2166  0.7127 -0.6161
  491MOL0     C64733   3.093   1.668   9.578 -0.1872  0.2777  0.4381
  491MOL0     C64734   3.514   1.815   9.516  0.2143 -1.3016 -0.5551
  491MOL0     C64735   3.530   1.787   9.381 -0.5798  0.5892  0.9108
  491MOL0     C64736   3.638   1.844   9.308  0.3661 -0.6430 -0.1649
  491MOL0     C64737   3.725   1.929   9.367  0.5314 -0.4568  0.8024
  491MOL0     O64738   3.824   1.975   9.281 -0.5619 -0.0285  0.5127
  491MOL0     C64739   3.927   2.063   9.336  0.3784 -0.1090 -0.9478
  491MOL0     C64740   4.002   2.118   9.218  0.2857 -0.0100  0.2346
  491MOL0     C64741   4.130   2.211   9.258 -0.3645  0.9660 -0.4352
  491MOL0     C64742   4.258   2.139   9.304 -0.3530 -0.0373 -0.0545
  491MOL0     C64743   4.373   2.218   9.296 -0.6677  0.1937  0.3071
  491MOL0     C64744   4.473   2.288   9.284 -0.0306 -0.8987 -0.3010
  491MOL0     C64745   3.709   1.965   9.503 -0.6125 -0.7346  0.0867
  491MOL0     C64746   3.602   1.905   9.576  0.4218  0.0275 -0.6682
  491MOL0     H64747   3.325   1.437   9.648  0.7953 -0.7078 -2.8366
  491MOL0     H64748   3.146   1.319   9.713  0.4724 -0.4634  0.5484
  491MOL0     H64749   2.737   1.495   9.580 -2.0326  0.7898  0.4833
  491MOL0     H64750   2.735   1.489   9.757  0.3293  0.8629 -0.9366
  491MOL0     H64751   2.627   1.281   9.771  0.5876  0.9921 -0.7541
  491MOL0     H64752   2.680   1.233   9.614 -2.0707 -2.6612  2.8097
  491MOL0     H64753   2.507   1.413   9.527 -1.7716 -0.7907 -0.9274
  491MOL0     H64754   2.477   1.453   9.695 -1.2754 -0.6489  0.6348
  491MOL0     H64755   2.435   1.196   9.542 -0.0382 -1.3903  1.0424
  491MOL0     H64756   2.418   1.190   9.718  1.3057  0.3442 -0.1591
  491MOL0     H64757   2.241   1.350   9.527  2.2117  0.8600 -0.5191
  491MOL0     H64758   2.224   1.360   9.706 -2.7390 -0.5927 -0.4843
  491MOL0     H64759   2.211   1.114   9.711  1.1562  0.8121  0.5396
  491MOL0     H64760   2.186   1.120   9.535 -1.9584  0.6698  0.4219
  491MOL0     H64761   1.972   1.125   9.712  0.0150  1.2897  2.1509
  491MOL0     H64762   2.021   1.284   9.737  0.9714 -1.1321  1.6203
  491MOL0     H64763   1.980   1.154   9.470 -0.9013 -1.9725  0.0880
  491MOL0     H64764   1.986   1.335   9.498  0.2213 -0.1681 -1.1512
  491MOL0     H64765   1.770   1.019   9.585 -0.4566 -0.4051  1.9298
  491MOL0     H64766   1.494   1.042   9.712 -0.5996 -2.2659 -0.8689
  491MOL0     H64767   1.476   0.993   9.543 -3.9759 -0.3748  1.3285
  491MOL0     H64768   1.352   1.160   9.467 -1.6110 -3.9429  0.4365
  491MOL0     H64769   1.377   1.271   9.606  0.7780  0.2143  1.3133
  491MOL0     H64770   1.243   1.151   9.752  1.3802  3.9976 -2.6351
  491MOL0     H64771   1.161   1.165   9.604  0.8324 -0.3728 -0.9432
  491MOL0     H64772   1.327   0.893   9.639 -1.6353 -1.3146  3.0616
  491MOL0     H64773   1.173   0.921   9.557 -3.5348  1.4728  1.5297
  491MOL0     H64774   0.979   0.896   9.571  2.0501 -0.5265  0.5456
  491MOL0     H64775   0.731   0.958   9.611 -1.4834 -0.6242  1.7090
  491MOL0     H64776   0.388   1.247   9.823  0.3750 -1.2844 -0.5162
  491MOL0     H64777   0.161   1.239   9.869  2.8640 -0.0270  1.4214
  491MOL0     H64778  -0.076   0.874   9.706  0.7310  0.5903  0.4604
  491MOL0     H64779  -0.051   1.001   9.596 -0.1974 -2.2261 -0.0456
  491MOL0     H64780  -0.257   1.125   9.660  0.7016 -0.1810 -2.7672
  491MOL0     H64781  -0.298   1.012   9.786 -1.2993  4.3612 -0.1509
  491MOL0     H64782  -0.343   0.838   9.638 -2.1322  0.1182 -0.1550
  491MOL0     H64783  -0.278   0.925   9.497 -0.1479  4.1529 -1.4737
  491MOL0     H64784  -0.512   0.998   9.678  0.4282 -1.9043  0.0298
  491MOL0     H64785  -0.456   1.109   9.547 -2.1884  0.8110  1.6305
  491MOL0     H64786  -0.519   0.820   9.504 -2.1960 -0.8182  2.3528
  491MOL0     H64787  -0.531   0.958   9.380 -3.0942  0.8115 -0.1038
  491MOL0     H64788  -0.725   1.047   9.523 -0.6231 -0.2325  0.3234
  491MOL0     H64789  -0.719   0.892   9.608 -0.0185 -0.0781 -0.6154
  491MOL0     H64790  -0.752   0.923   9.306 -0.6634  0.8590  0.2286
  491MOL0     H64791  -0.748   0.764   9.388 -1.5219 -0.1016  2.0202
  491MOL0     H64792  -0.948   0.821   9.509  0.4820 -1.2207  0.1466
  491MOL0     H64793  -0.984   0.824   9.343 -0.3211 -0.3156  0.5081
  491MOL0     H64794   0.133   0.849   9.676  1.6246 -1.0692 -0.8186
  491MOL0     H64795   0.365   0.865   9.620 -0.5962  1.5432 -3.0959
  491MOL0     H64796   0.821   1.074  10.003 -3.2376  0.9557 -2.3992
  491MOL0     H64797   1.065   0.984   9.980  1.6470  0.1352 -2.4060
  491MOL0     H64798   2.884   1.652   9.617 -0.0084  1.4709  1.5194
  491MOL0     H64799   3.080   1.764   9.529  0.2834  1.2401  2.1123
  491MOL0     H64800   3.450   1.724   9.341 -0.5102  0.5027  0.9078
  491MOL0     H64801   3.642   1.839   9.200 -4.1491 -0.8077 -0.5067
  491MOL0     H64802   4.006   2.018   9.397 -0.4871 -2.0531 -1.1840
  491MOL0     H64803   3.871   2.128   9.404  0.4888 -1.8963  0.9598
  491MOL0     H64804   4.039   2.040   9.150 -1.3029 -0.1364 -0.5317
  491MOL0     H64805   3.930   2.170   9.153 -1.8290  0.2914  2.6888
  491MOL0     H64806   4.108   2.274   9.345  0.7168  0.1601  0.4602
  491MOL0     H64807   4.143   2.289   9.183 -2.6451  3.1448  1.2354
  491MOL0     H64808   4.244   2.086   9.399  1.1212 -3.3753 -1.5355
  491MOL0     H64809   4.272   2.056   9.234 -1.8804 -1.8130  1.6009
  491MOL0     H64810   4.553   2.360   9.285 -0.0755 -0.8508  0.2458
  491MOL0     H64811   3.777   2.040   9.544 -2.0501  0.0025  1.2304
  491MOL0     H64812   3.588   1.928   9.681  1.9982  0.0667 -0.4418
  492MOL0     O64813  10.656   6.740   3.133  1.1571  0.3547 -0.7333
  492MOL0     C64814  10.731   6.667   3.066 -0.7446  0.1712 -0.1395
  492MOL0     O64815  10.699   6.573   2.980 -0.0043  0.2506  0.3800
  492MOL0     C64816  10.566   6.528   2.969 -0.5246  0.0103 -0.3068
  492MOL0     C64817  10.524   6.407   3.015  0.6051 -0.5880 -0.4769
  492MOL0     C64818  10.386   6.375   3.014 -0.0750  0.7241  0.1295
  492MOL0     C64819  10.293   6.457   2.952 -0.7198 -1.2258 -0.3158
  492MOL0     O64820  10.171   6.422   2.914  0.6935  0.4010  0.3649
  492MOL0     C64821  10.135   6.279   2.901  0.9441  0.0634 -0.3051
  492MOL0     C64822   9.985   6.260   2.872  0.6935  0.3142 -0.1222
  492MOL0     C64823   9.893   6.324   2.970  0.4043 -0.2608 -0.3406
  492MOL0     C64824   9.756   6.354   2.912  0.8492  0.9031  0.0084
  492MOL0     C64825   9.653   6.396   3.028 -0.7910 -0.6171  0.0974
  492MOL0     C64826   9.514   6.409   2.954  0.7232  0.1563 -0.7823
  492MOL0     C64827   9.445   6.270   2.937  0.5959 -0.4883 -0.1926
  492MOL0     C64828   9.331   6.265   2.828 -0.5177 -0.0198  0.8879
  492MOL0     N64829   9.264   6.134   2.831  0.3080  0.3909 -0.2220
  492MOL0     C64830   9.136   6.118   2.857  0.2857 -0.7981  0.5593
  492MOL0     C64831   9.117   5.983   2.851  0.0462  0.8578 -0.0834
  492MOL0     C64832   8.989   5.907   2.889 -0.0654  0.9374  0.0273
  492MOL0     C64833   8.864   5.987   2.914  0.0718  0.5396  0.1367
  492MOL0     C64834   8.791   6.014   2.782  0.6335 -0.2987 -0.7178
  492MOL0     C64835   8.653   6.035   2.817  0.4278  0.4489  0.1169
  492MOL0     O64836   8.591   5.933   2.898 -0.2067 -0.8992 -0.7381
  492MOL0     C64837   8.455   5.945   2.932  0.2449  0.2205 -0.3419
  492MOL0     C64838   8.365   6.040   2.884 -1.2130 -0.9715 -0.0304
  492MOL0     C64839   8.229   6.043   2.919 -0.4412 -0.3683 -1.7116
  492MOL0     C64840   8.175   5.946   3.009  0.1227  0.4820 -0.2730
  492MOL0     C64841   8.031   5.936   3.048 -0.3078  0.4231  0.5926
  492MOL0     O64842   7.945   6.017   2.975 -0.5643 -0.4279 -0.4045
  492MOL0     C64843   7.809   5.995   2.977 -0.9407 -0.9818  0.4139
  492MOL0     C64844   7.746   5.868   2.980 -0.1218 -0.0960  0.1921
  492MOL0     C64845   7.604   5.858   2.987  0.2896 -0.3212 -0.4573
  492MOL0     C64846   7.521   5.970   2.978  0.2488  0.2488 -0.3517
  492MOL0     O64847   7.382   5.951   2.983  0.0254 -0.2487 -0.0135
  492MOL0     C64848   7.298   6.009   2.890 -0.1222  0.8080  0.5067
  492MOL0     C64849   7.156   5.948   2.904  0.4130  0.3964  0.6487
  492MOL0     C64850   7.104   5.938   3.038 -0.0176 -1.0133 -0.3038
  492MOL0     C64851   6.970   5.877   3.053 -0.5559  0.4109 -0.0708
  492MOL0     C64852   6.866   5.975   2.999  1.0098 -0.0859 -0.4138
  492MOL0     C64853   6.828   6.083   3.099 -0.0867  0.2505 -0.8682
  492MOL0     C64854   6.727   6.179   3.034 -0.0710  0.4837 -0.5453
  492MOL0     C64855   6.579   6.124   3.042  0.0809 -0.5635 -0.0374
  492MOL0    Cl64856   6.466   6.261   2.999  0.0620  0.0139 -0.2076
  492MOL0     C64857   7.589   6.090   2.957  0.3839  0.4795 -0.1039
  492MOL0     C64858   7.724   6.104   2.956  0.0631 -0.5700  0.7416
  492MOL0     O64859   8.001   5.848   3.127 -0.0935  0.2595  0.1933
  492MOL0     C64860   8.266   5.843   3.057  0.0559 -0.4307 -0.5928
  492MOL0     C64861   8.405   5.849   3.022  0.2165 -0.8578  0.0607
  492MOL0     N64862   9.243   5.923   2.820 -0.5832 -0.7249  0.8385
  492MOL0     N64863   9.327   6.018   2.816 -0.0812  0.9883 -0.1960
  492MOL0     C64864  10.334   6.584   2.911  0.5564 -0.4723  0.0910
  492MOL0     C64865  10.474   6.618   2.910  0.9357 -0.5193  0.8130
  492MOL0     C64866  10.876   6.714   3.056 -0.6317 -0.5307  0.7271
  492MOL0     C64867  10.917   6.817   3.142  0.4801 -0.0059  0.5347
  492MOL0     C64868  11.035   6.887   3.122 -0.8251  0.5608  0.0583
  492MOL0     C64869  11.115   6.865   3.008  0.1864 -0.7401  0.0632
  492MOL0     O64870  11.227   6.930   2.969 -0.4542  0.3986 -0.1047
  492MOL0     C64871  11.298   7.000   3.056 -0.2514 -0.7121 -0.4351
  492MOL0     C64872  11.428   7.045   2.981  1.4293  0.1347 -0.3154
  492MOL0     C64873  11.550   7.036   3.069  0.0255 -0.3494 -0.4662
  492MOL0     C64874  11.683   7.093   3.016 -0.1903  0.6351 -0.1550
  492MOL0     C64875  11.719   7.040   2.886 -0.4842 -0.5469  0.5837
  492MOL0     C64876  11.758   6.985   2.777 -0.0992  0.5916 -0.0116
  492MOL0     C64877  11.072   6.754   2.926 -0.3361 -0.3214 -0.0674
  492MOL0     C64878  10.959   6.680   2.944  0.4768  0.3182 -0.5951
  492MOL0     H64879  10.596   6.340   3.061  0.1480  0.7013  2.3388
  492MOL0     H64880  10.352   6.275   3.039  0.6417  0.8524  1.7461
  492MOL0     H64881  10.157   6.236   2.999 -0.6349 -0.1799 -0.0304
  492MOL0     H64882  10.188   6.232   2.818  0.4890 -0.0692 -0.5255
  492MOL0     H64883   9.954   6.156   2.859  2.0416  0.0090 -0.9871
  492MOL0     H64884   9.977   6.305   2.773 -0.3269  0.0957 -0.1551
  492MOL0     H64885   9.921   6.414   3.027 -1.0705 -0.3175  0.5277
  492MOL0     H64886   9.869   6.241   3.037 -3.1864  0.3594 -0.6478
  492MOL0     H64887   9.767   6.434   2.838 -0.7447  0.1925 -1.0487
  492MOL0     H64888   9.723   6.262   2.863 -1.9894  0.5495  2.2994
  492MOL0     H64889   9.691   6.485   3.080 -0.1905 -0.8669  0.1045
  492MOL0     H64890   9.647   6.322   3.108 -0.9048  2.4546  3.1642
  492MOL0     H64891   9.523   6.460   2.858  0.0053  0.4632 -0.6924
  492MOL0     H64892   9.446   6.473   3.011  1.3047  1.5339 -1.5832
  492MOL0     H64893   9.519   6.191   2.922  0.8540  0.0207 -1.7563
  492MOL0     H64894   9.398   6.241   3.031  2.6711  0.2798  1.1583
  492MOL0     H64895   9.367   6.276   2.725 -0.9663 -3.2825  0.2694
  492MOL0     H64896   9.250   6.336   2.843 -1.9714 -1.6345  1.0406
  492MOL0     H64897   9.070   6.198   2.887  4.2304  2.7148  0.7022
  492MOL0     H64898   9.004   5.855   2.984  3.4515  1.4503 -0.1279
  492MOL0     H64899   8.975   5.824   2.820  0.9809  1.3547 -0.7088
  492MOL0     H64900   8.874   6.076   2.976 -0.8420  0.7392 -0.0009
  492MOL0     H64901   8.802   5.924   2.979 -2.2664  2.9623  0.4117
  492MOL0     H64902   8.841   6.103   2.742 -1.1868  1.8722  1.5487
  492MOL0     H64903   8.800   5.934   2.708  0.6120  0.2685 -1.3457
  492MOL0     H64904   8.614   6.041   2.715  3.8719 -3.7700 -1.7816
  492MOL0     H64905   8.646   6.129   2.873 -0.8150  0.0930  0.5892
  492MOL0     H64906   8.392   6.121   2.818 -1.7334  0.0873  1.0110
  492MOL0     H64907   8.183   6.133   2.880  4.8269  3.6560  0.0598
  492MOL0     H64908   7.804   5.776   2.984  1.2147  0.7330  0.4731
  492MOL0     H64909   7.548   5.765   2.996 -1.2730  0.7466  2.0450
  492MOL0     H64910   7.327   5.975   2.790  0.5290 -0.3591  1.0783
  492MOL0     H64911   7.304   6.118   2.888  1.1174  0.8075  2.4319
  492MOL0     H64912   7.159   5.850   2.856 -0.7413  0.3620  0.6155
  492MOL0     H64913   7.091   6.009   2.840  0.1203 -0.0044  0.5535
  492MOL0     H64914   7.103   6.039   3.080 -0.4283 -1.9683  2.1174
  492MOL0     H64915   7.171   5.882   3.104  1.0137  0.6076  0.0860
  492MOL0     H64916   6.970   5.781   3.000 -2.3747 -1.2780  2.7021
  492MOL0     H64917   6.954   5.855   3.159 -2.2917 -4.3291 -1.0588
  492MOL0     H64918   6.774   5.916   2.993  0.3415  0.9070 -0.1316
  492MOL0     H64919   6.888   6.013   2.898  1.5329  0.5420 -0.0741
  492MOL0     H64920   6.919   6.137   3.126 -0.6517 -0.2023  2.2528
  492MOL0     H64921   6.801   6.045   3.197  0.2060  1.4275 -0.3140
  492MOL0     H64922   6.732   6.274   3.088 -2.2602 -1.0034  2.6236
  492MOL0     H64923   6.749   6.200   2.929  2.5482 -0.7335 -0.3065
  492MOL0     H64924   6.556   6.073   3.136  2.2096 -1.9600 -0.1984
  492MOL0     H64925   6.565   6.051   2.962  2.4840 -0.5002 -0.5808
  492MOL0     H64926   7.544   6.182   2.921  0.9165  1.0778  0.7492
  492MOL0     H64927   7.768   6.200   2.928 -2.3084  0.3795  0.0307
  492MOL0     H64928   8.242   5.754   3.115  1.5777  0.7359  2.0526
  492MOL0     H64929   8.485   5.784   3.058 -0.6818 -2.7001 -1.1416
  492MOL0     H64930  10.266   6.655   2.865  1.7518 -0.3053 -1.5019
  492MOL0     H64931  10.506   6.717   2.879 -0.7317 -0.3362 -0.4496
  492MOL0     H64932  10.848   6.833   3.225  0.0506 -1.6905  0.5289
  492MOL0     H64933  11.060   6.964   3.194  0.4513  0.0702  0.1509
  492MOL0     H64934  11.320   6.941   3.146  0.6919  0.4314  0.1116
  492MOL0     H64935  11.243   7.090   3.083 -2.5959 -1.8762 -1.1047
  492MOL0     H64936  11.442   6.973   2.900 -2.1008 -2.4677  1.1412
  492MOL0     H64937  11.417   7.150   2.951 -2.3027  0.3931  1.3832
  492MOL0     H64938  11.568   6.929   3.083 -2.8328 -0.8015  0.2602
  492MOL0     H64939  11.525   7.077   3.168 -3.0666  0.0662 -1.3264
  492MOL0     H64940  11.676   7.200   2.994 -2.4690  0.1640 -2.0846
  492MOL0     H64941  11.764   7.065   3.084 -2.5762 -2.0759  1.8279
  492MOL0     H64942  11.807   6.939   2.693 -2.4747  0.1863 -1.2694
  492MOL0     H64943  11.135   6.735   2.840 -0.1301  2.0664 -0.4986
  492MOL0     H64944  10.913   6.611   2.874 -3.7982  0.6908  1.5355
  493MOL0     O64945   5.931   3.597  10.206 -0.2385 -0.0305  0.0255
  493MOL0     C64946   5.944   3.623  10.326  0.4461 -0.6445  0.2698
  493MOL0     O64947   5.850   3.682  10.407  1.1615  0.1339  0.5943
  493MOL0     C64948   5.723   3.694  10.357 -0.5805 -0.2403 -0.5441
  493MOL0     C64949   5.687   3.768  10.240 -0.6208  0.3101  0.9409
  493MOL0     C64950   5.558   3.803  10.218  0.3820  0.3400  0.2422
  493MOL0     C64951   5.450   3.763  10.304  0.1313 -1.1068 -0.1519
  493MOL0     O64952   5.328   3.796  10.268  0.1401  0.6774  0.4714
  493MOL0     C64953   5.260   3.902  10.337  0.0854  0.1830  0.5536
  493MOL0     C64954   5.108   3.865  10.338 -0.0638  0.0034 -0.6975
  493MOL0     C64955   5.046   3.862  10.199 -0.6792  0.4985  0.2364
  493MOL0     C64956   4.891   3.846  10.204 -0.1135  0.7183 -0.5029
  493MOL0     C64957   4.826   3.845  10.060 -0.4754 -0.1294 -0.4910
  493MOL0     C64958   4.686   3.783  10.079  0.0417 -0.4397 -0.4111
  493MOL0     C64959   4.597   3.775   9.947 -0.3734 -0.2143  0.1730
  493MOL0     C64960   4.565   3.917   9.900 -0.9060 -0.6956  0.4721
  493MOL0     N64961   4.494   4.009   9.997 -0.0750 -0.4958 -0.2287
  493MOL0     C64962   4.354   4.026  10.000  0.2904  0.2409 -0.1033
  493MOL0     C64963   4.336   4.127  10.096  0.2080  0.0959  0.5645
  493MOL0     C64964   4.209   4.180  10.163  0.3358  0.5749  0.5743
  493MOL0     C64965   4.142   4.076  10.256  0.6376  0.2769 -0.2763
  493MOL0     C64966   4.009   4.136  10.318 -0.5744  0.3961  0.0857
  493MOL0     C64967   3.929   4.044  10.412  0.5799  0.1399 -0.4397
  493MOL0     O64968   3.866   3.945  10.330  0.3054  0.1291  0.8051
  493MOL0     C64969   3.732   3.963  10.300  0.3273 -0.3298 -0.5878
  493MOL0     C64970   3.649   3.847  10.295  0.1054  1.0186  0.2642
  493MOL0     C64971   3.511   3.860  10.287 -0.2732 -0.6125  0.0016
  493MOL0     C64972   3.458   3.988  10.260  0.4771  0.5449 -0.2241
  493MOL0     C64973   3.310   3.989  10.263  0.6785 -0.5581  0.9377
  493MOL0     O64974   3.249   4.108  10.256 -0.3043 -0.2384 -0.5697
  493MOL0     C64975   3.119   4.142  10.256  1.1923  0.0396 -0.8820
  493MOL0     C64976   3.094   4.280  10.231 -0.6464 -0.2666  0.3001
  493MOL0     C64977   2.963   4.334  10.248  0.2499 -0.6508 -0.3564
  493MOL0     C64978   2.849   4.269  10.273  0.5079  0.7451 -0.8843
  493MOL0     O64979   2.720   4.312  10.297 -0.7747  0.2444 -1.3363
  493MOL0     C64980   2.695   4.449  10.260 -0.4067 -0.3687 -0.2395
  493MOL0     C64981   2.682   4.481  10.102 -0.2043 -0.8248 -0.6751
  493MOL0     C64982   2.567   4.407  10.040  1.3981 -0.7790 -0.1909
  493MOL0     C64983   2.574   4.424   9.891 -0.5627  1.0256  0.5238
  493MOL0     C64984   2.456   4.358   9.819 -0.2335  0.1374 -0.4182
  493MOL0     C64985   2.463   4.208   9.778  0.1820  0.0610  0.2898
  493MOL0     C64986   2.351   4.173   9.686 -0.1200  0.3646 -0.7736
  493MOL0     C64987   2.319   4.020   9.701 -0.0828 -0.2763  0.4124
  493MOL0    Cl64988   2.200   3.990   9.824 -0.0043 -0.4995  0.3052
  493MOL0     C64989   2.868   4.128  10.292 -0.0688 -0.4208  0.2011
  493MOL0     C64990   2.996   4.066  10.290  0.0510  0.9270 -0.2862
  493MOL0     O64991   3.244   3.887  10.276 -0.5637  0.7671 -0.0231
  493MOL0     C64992   3.541   4.100  10.261 -0.2198  0.2024 -0.1043
  493MOL0     C64993   3.678   4.089  10.284  0.0012  0.6408  0.3541
  493MOL0     N64994   4.459   4.186  10.125  0.0935 -0.1740  0.4474
  493MOL0     N64995   4.551   4.114  10.067  0.0702 -0.7386 -0.0388
  493MOL0     C64996   5.480   3.684  10.414  0.0974  0.6073  0.7510
  493MOL0     C64997   5.613   3.655  10.438 -0.0220  0.9529 -0.3686
  493MOL0     C64998   6.078   3.605  10.393  0.5703 -0.5836  0.5685
  493MOL0     C64999   6.196   3.562  10.327 -0.6457 -0.8308 -0.2884
  493MOL0     C65000   6.321   3.565  10.387 -0.1943 -0.3503 -0.2991
  493MOL0     C65001   6.334   3.593  10.521  0.2067  0.6872 -0.6995
  493MOL0     O65002   6.461   3.565  10.574 -0.2704  0.6127 -0.3154
  493MOL0     C65003   6.479   3.571  10.718 -0.3642  0.2464 -0.1337
  493MOL0     C65004   6.439   3.441  10.783  0.9315  0.5937 -0.2610
  493MOL0     C65005   6.455   3.443  10.939  0.1077  0.4950  0.4919
  493MOL0     C65006   6.549   3.335  10.987  0.0041  0.4982 -0.2422
  493MOL0     C65007   6.498   3.203  10.976 -0.1433  0.4270  0.9782
  493MOL0     C65008   6.456   3.092  10.976 -0.0272 -0.3242  0.2187
  493MOL0     C65009   6.212   3.614  10.597  0.5416  0.4479  0.5580
  493MOL0     C65010   6.086   3.626  10.531 -0.1999  0.6364  0.6154
  493MOL0     H65011   5.767   3.808  10.178 -1.8123  1.1346 -0.0987
  493MOL0     H65012   5.543   3.880  10.142  3.2611  2.2134  1.3983
  493MOL0     H65013   5.272   3.999  10.288 -2.1041  0.7483  1.0308
  493MOL0     H65014   5.298   3.907  10.439  2.2486  1.0933 -0.2200
  493MOL0     H65015   5.066   3.948  10.395  1.8548  0.2660  0.3937
  493MOL0     H65016   5.086   3.777  10.397 -0.6491  0.1442 -0.7010
  493MOL0     H65017   5.091   3.777  10.147  2.2072  1.9384  0.1718
  493MOL0     H65018   5.073   3.952  10.143 -1.0239 -1.7932 -3.9960
  493MOL0     H65019   4.878   3.749  10.252 -2.9226  0.3833 -1.7750
  493MOL0     H65020   4.852   3.930  10.261  0.6519  0.1642  0.8845
  493MOL0     H65021   4.883   3.803   9.977  0.5875 -1.6539  0.9272
  493MOL0     H65022   4.814   3.950  10.033  1.5681 -0.0606 -1.3036
  493MOL0     H65023   4.626   3.838  10.152 -0.2547  0.0868 -1.0411
  493MOL0     H65024   4.702   3.678  10.106  2.0221 -0.2996 -0.8294
  493MOL0     H65025   4.652   3.715   9.873  0.5851 -1.3212  1.7123
  493MOL0     H65026   4.507   3.718   9.972  0.6139 -0.7852  2.8146
  493MOL0     H65027   4.507   3.913   9.808  0.3637  1.1484 -0.4744
  493MOL0     H65028   4.657   3.973   9.879 -1.8694  1.2432  1.1201
  493MOL0     H65029   4.279   3.962   9.953 -0.8676 -0.4820  2.5305
  493MOL0     H65030   4.136   4.216  10.090 -0.1835  1.6089  1.5610
  493MOL0     H65031   4.225   4.274  10.218  1.1407  1.2746 -0.7906
  493MOL0     H65032   4.205   4.047  10.340 -1.1082  0.1468  1.0649
  493MOL0     H65033   4.111   3.986  10.202 -1.1147  0.2727  0.6656
  493MOL0     H65034   4.030   4.217  10.387 -2.8388 -1.3488  3.0912
  493MOL0     H65035   3.940   4.173  10.241 -0.9780  0.3180  0.4086
  493MOL0     H65036   3.855   4.105  10.464 -0.9986 -2.6713  0.8562
  493MOL0     H65037   3.987   3.987  10.485  2.8465 -1.2618 -3.1130
  493MOL0     H65038   3.683   3.745  10.311 -1.8053  0.4672  1.0411
  493MOL0     H65039   3.452   3.769  10.295  2.1712 -2.1365  2.4327
  493MOL0     H65040   3.180   4.347  10.221 -0.2293 -0.2670  3.1113
  493MOL0     H65041   2.959   4.442  10.240  2.4820 -0.3810  1.2517
  493MOL0     H65042   2.771   4.518  10.296 -0.4598  0.6688 -2.0044
  493MOL0     H65043   2.597   4.479  10.298 -0.6459 -2.4014  0.9021
  493MOL0     H65044   2.776   4.457  10.050  1.1902 -0.2345  1.4207
  493MOL0     H65045   2.667   4.588  10.092 -0.6633 -0.8821 -0.6093
  493MOL0     H65046   2.470   4.448  10.070  0.9300 -2.0089  0.0334
  493MOL0     H65047   2.572   4.301  10.070 -0.4024 -0.5654  1.0239
  493MOL0     H65048   2.600   4.523   9.851 -0.8650  0.8815 -0.0341
  493MOL0     H65049   2.666   4.374   9.862  1.1771  3.6522  1.0841
  493MOL0     H65050   2.442   4.423   9.732 -1.6962 -0.9148 -1.0273
  493MOL0     H65051   2.367   4.374   9.881  0.5271  0.4027  0.6105
  493MOL0     H65052   2.462   4.158   9.875  3.2548  2.0889  1.5395
  493MOL0     H65053   2.558   4.181   9.730 -0.7739  0.2497 -1.8117
  493MOL0     H65054   2.269   4.241   9.710  0.6458  1.4984 -1.2843
  493MOL0     H65055   2.385   4.183   9.582  1.4523 -1.3110 -0.4848
  493MOL0     H65056   2.407   3.955   9.710  1.5606  1.9738  1.6072
  493MOL0     H65057   2.272   3.985   9.609  1.2496  2.6833 -1.5255
  493MOL0     H65058   2.776   4.074  10.311 -0.9278 -0.7005 -3.9892
  493MOL0     H65059   3.001   3.962  10.320  0.4066  0.7397 -0.9718
  493MOL0     H65060   3.497   4.195  10.232 -0.5254 -0.1689 -0.8947
  493MOL0     H65061   3.726   4.185  10.295 -0.3596  0.6711  2.0466
  493MOL0     H65062   5.404   3.656  10.486 -0.9275  1.3400  0.0009
  493MOL0     H65063   5.633   3.606  10.533  3.5170 -0.1314 -1.4955
  493MOL0     H65064   6.202   3.550  10.219 -1.9403 -2.1854 -0.2341
  493MOL0     H65065   6.418   3.554  10.340  2.0949  3.0913  3.0426
  493MOL0     H65066   6.412   3.646  10.761 -2.5087 -0.7741 -1.5034
  493MOL0     H65067   6.585   3.591  10.734 -0.4512  1.2281 -0.7219
  493MOL0     H65068   6.338   3.413  10.752  1.6897 -2.3665 -0.2899
  493MOL0     H65069   6.510   3.362  10.756  1.3753 -0.3381  3.1789
  493MOL0     H65070   6.358   3.429  10.987 -0.0989  0.9516  0.2170
  493MOL0     H65071   6.499   3.539  10.968  0.5520  0.2147  0.7601
  493MOL0     H65072   6.643   3.341  10.931  0.7970 -2.0891  0.6856
  493MOL0     H65073   6.572   3.340  11.094  1.1475  0.6028 -0.4694
  493MOL0     H65074   6.418   2.992  10.985 -2.1722  0.3549 -0.6363
  493MOL0     H65075   6.205   3.634  10.703  0.5448  0.6524  0.5187
  493MOL0     H65076   5.998   3.655  10.587 -0.6293 -0.0186  0.2916
  494MOL0     O65077   6.550  10.688   0.446  1.2594 -0.1681 -1.0700
  494MOL0     C65078   6.614  10.582   0.479  0.4378  0.1127  0.3964
  494MOL0     O65079   6.565  10.466   0.538  0.3192  0.3889 -0.1312
  494MOL0     C65080   6.428  10.446   0.571 -0.9265  0.8658  0.2564
  494MOL0     C65081   6.411  10.321   0.630  0.7162  0.3899  0.3546
  494MOL0     C65082   6.277  10.283   0.666 -0.1964  0.1346 -0.1030
  494MOL0     C65083   6.168  10.368   0.656  0.2400 -0.3328 -1.0798
  494MOL0     O65084   6.044  10.317   0.684 -0.3552 -0.2503 -0.3569
  494MOL0     C65085   5.925  10.402   0.665 -1.2334 -0.0603 -0.3804
  494MOL0     C65086   5.801  10.339   0.724  0.8140 -0.2761  0.4090
  494MOL0     C65087   5.670  10.424   0.719  0.3189 -1.0398  0.0555
  494MOL0     C65088   5.613  10.452   0.577 -0.2900  0.0033 -0.6548
  494MOL0     C65089   5.481  10.537   0.578 -0.2895  0.3749  0.2527
  494MOL0     C65090   5.527  10.686   0.599 -0.0684  0.2509 -1.0086
  494MOL0     C65091   5.402  10.779   0.629  0.5633  0.0283  0.2954
  494MOL0     C65092   5.303  10.771   0.518  0.2012 -0.5602 -0.7347
  494MOL0     N65093   5.208  10.878   0.498  0.1499  0.2939 -0.4781
  494MOL0     C65094   5.110  10.911   0.590  0.7069 -0.0668 -0.6013
  494MOL0     C65095   5.026  10.996   0.519 -0.8408 -0.1799 -0.7102
  494MOL0     C65096   4.908  11.054   0.580  0.0075  0.0201  0.8872
  494MOL0     C65097   4.773  11.006   0.522 -0.5822 -0.3324 -0.4641
  494MOL0     C65098   4.667  11.106   0.582  0.3021 -1.2893  0.7948
  494MOL0     C65099   4.523  11.047   0.576 -0.4001 -0.2143 -0.4471
  494MOL0     O65100   4.433  11.152   0.596  0.2572  0.4998  0.2085
  494MOL0     C65101   4.302  11.111   0.583  0.1521  0.0826  0.3739
  494MOL0     C65102   4.258  10.982   0.574  1.2556 -0.1436  0.5347
  494MOL0     C65103   4.119  10.958   0.568  0.1239  0.4758 -0.3182
  494MOL0     C65104   4.026  11.060   0.548  0.7461  1.0162 -1.3234
  494MOL0     C65105   3.879  11.044   0.536  0.0749 -0.1302  0.1686
  494MOL0     O65106   3.832  10.917   0.573 -0.2052 -0.2360 -0.0409
  494MOL0     C65107   3.697  10.907   0.548  0.6008 -0.4996 -0.0934
  494MOL0     C65108   3.593  10.952   0.635  0.4481  0.2972 -0.0955
  494MOL0     C65109   3.456  10.935   0.615 -0.1487  0.6132  0.2853
  494MOL0     C65110   3.421  10.858   0.503 -0.2408  0.3454 -0.2951
  494MOL0     O65111   3.293  10.827   0.477 -0.3207  0.1816  0.8317
  494MOL0     C65112   3.209  10.940   0.479 -0.3147  0.2394 -0.0027
  494MOL0     C65113   3.065  10.897   0.462  0.2455 -0.0230 -0.6276
  494MOL0     C65114   3.031  10.849   0.322 -0.9697  0.4768  0.8122
  494MOL0     C65115   2.887  10.810   0.298 -0.6725 -0.4747 -0.8765
  494MOL0     C65116   2.846  10.834   0.151 -0.0229  0.7245 -0.0664
  494MOL0     C65117   2.702  10.788   0.118  0.0074 -0.0611 -0.1233
  494MOL0     C65118   2.599  10.885   0.185  0.3626  0.5343 -0.4753
  494MOL0     C65119   2.451  10.851   0.128  0.7069  0.2220 -0.7896
  494MOL0    Cl65120   2.402  10.691   0.190  0.2980  0.5013 -0.3313
  494MOL0     C65121   3.509  10.821   0.406 -0.6000 -0.0086  0.2783
  494MOL0     C65122   3.650  10.847   0.432 -0.2309 -0.3348 -0.0369
  494MOL0     O65123   3.811  11.139   0.490 -0.8504 -0.1560 -0.0863
  494MOL0     C65124   4.075  11.188   0.553 -0.0097 -0.8118  0.4182
  494MOL0     C65125   4.203  11.215   0.576 -0.0308  0.0937  0.3330
  494MOL0     N65126   5.095  11.031   0.407  0.2105  0.1792 -0.2473
  494MOL0     N65127   5.199  10.961   0.387 -0.0808  0.1307  0.2181
  494MOL0     C65128   6.189  10.484   0.586  0.7313  0.6904  0.1640
  494MOL0     C65129   6.318  10.521   0.546  0.0263  0.0395 -0.4763
  494MOL0     C65130   6.761  10.587   0.462 -0.4770  0.4908  0.2294
  494MOL0     C65131   6.822  10.700   0.405  0.3341  0.6343  0.1155
  494MOL0     C65132   6.966  10.695   0.379 -0.6549 -0.0930 -0.4634
  494MOL0     C65133   7.046  10.596   0.416  0.2370  0.1270 -0.8191
  494MOL0     O65134   7.183  10.599   0.388  0.4422 -0.2434 -0.2327
  494MOL0     C65135   7.223  10.652   0.260  0.8432 -0.0221 -0.7312
  494MOL0     C65136   7.372  10.661   0.244  0.1246 -0.4566  0.9755
  494MOL0     C65137   7.422  10.665   0.095 -0.2741  0.5459  0.6492
  494MOL0     C65138   7.575  10.623   0.076  0.0915  0.8183 -0.4728
  494MOL0     C65139   7.660  10.738   0.115  0.2427 -0.0172 -0.3108
  494MOL0     C65140   7.731  10.821   0.158 -0.1211  1.0274  0.6507
  494MOL0     C65141   6.982  10.490   0.483 -0.4947 -0.3482 -0.1728
  494MOL0     C65142   6.843  10.488   0.508 -0.2693  1.1588 -0.5034
  494MOL0     H65143   6.495  10.256   0.654 -1.1791 -2.0564  0.8010
  494MOL0     H65144   6.259  10.190   0.720  0.7995  1.1784  2.1780
  494MOL0     H65145   5.906  10.427   0.560 -2.6804 -1.9500 -0.6159
  494MOL0     H65146   5.940  10.498   0.716 -1.7952 -2.3571  4.7795
  494MOL0     H65147   5.817  10.300   0.825  3.7421 -1.0286 -0.2383
  494MOL0     H65148   5.793  10.256   0.654  2.4318  0.2967 -0.5147
  494MOL0     H65149   5.688  10.517   0.773 -0.3835 -1.1593  0.5060
  494MOL0     H65150   5.599  10.368   0.780 -0.0749  0.7309  1.3111
  494MOL0     H65151   5.683  10.500   0.508 -1.5756  2.6267 -0.2391
  494MOL0     H65152   5.588  10.356   0.530  3.1787 -0.1620 -2.5293
  494MOL0     H65153   5.411  10.502   0.654  0.4415 -2.5224 -0.2784
  494MOL0     H65154   5.442  10.540   0.475  1.2824 -0.4076 -0.4011
  494MOL0     H65155   5.594  10.717   0.518 -0.8086  0.4379 -1.5685
  494MOL0     H65156   5.579  10.681   0.695  0.5108  0.3978 -1.3142
  494MOL0     H65157   5.351  10.739   0.718 -1.6211 -1.3705 -1.4772
  494MOL0     H65158   5.425  10.884   0.649 -2.4312  1.2645 -2.0118
  494MOL0     H65159   5.245  10.681   0.538  0.6235 -0.2334  2.6182
  494MOL0     H65160   5.356  10.756   0.424  0.3174 -0.5112 -0.6785
  494MOL0     H65161   5.097  10.865   0.687 -1.4651  0.0532 -0.7743
  494MOL0     H65162   4.910  11.163   0.567 -5.7919  0.3782 -0.0393
  494MOL0     H65163   4.891  11.028   0.685 -3.9898  1.4585  0.8069
  494MOL0     H65164   4.756  10.903   0.552  1.7531 -0.9404 -1.0444
  494MOL0     H65165   4.760  11.018   0.414  1.5117  1.3771 -0.6119
  494MOL0     H65166   4.691  11.149   0.679  1.2568  0.8115 -0.3005
  494MOL0     H65167   4.669  11.188   0.509 -0.1064 -2.2816 -0.3641
  494MOL0     H65168   4.514  10.968   0.652 -1.1782 -0.2807 -0.6021
  494MOL0     H65169   4.517  10.998   0.478  1.7830 -1.0043 -0.2544
  494MOL0     H65170   4.321  10.894   0.578 -0.5615 -1.4620  3.1692
  494MOL0     H65171   4.087  10.854   0.567  2.0530 -0.1463 -0.4749
  494MOL0     H65172   3.617  11.014   0.720 -1.1223 -1.0582  1.4061
  494MOL0     H65173   3.377  10.971   0.681 -0.2384 -0.2273  0.6542
  494MOL0     H65174   3.244  11.020   0.414  1.3400  0.0107  0.5530
  494MOL0     H65175   3.200  10.984   0.579 -1.2618 -1.3142  0.6312
  494MOL0     H65176   2.998  10.978   0.492 -1.0962 -0.7172 -1.5978
  494MOL0     H65177   3.052  10.817   0.536  0.3539 -0.8729 -1.5076
  494MOL0     H65178   3.101  10.768   0.303 -1.1793  0.9972 -2.8721
  494MOL0     H65179   3.067  10.933   0.262  2.4596 -1.2336  0.2619
  494MOL0     H65180   2.869  10.708   0.332 -2.3348  0.3155  0.7825
  494MOL0     H65181   2.816  10.869   0.356 -2.1486 -3.5553  0.6735
  494MOL0     H65182   2.920  10.780   0.090  0.5649  3.2933 -1.7924
  494MOL0     H65183   2.866  10.938   0.122 -1.2013  1.0097  0.0876
  494MOL0     H65184   2.679  10.684   0.141 -4.0088  0.8875  0.9907
  494MOL0     H65185   2.689  10.808   0.011 -0.5309 -0.6215 -0.1701
  494MOL0     H65186   2.598  10.886   0.294 -1.0088  0.6455 -0.4729
  494MOL0     H65187   2.609  10.991   0.158 -2.5949  0.4379 -2.5155
  494MOL0     H65188   2.460  10.848   0.019 -0.8910  1.0093 -0.9824
  494MOL0     H65189   2.387  10.934   0.158  0.9586  0.7595 -1.7194
  494MOL0     H65190   3.474  10.770   0.316 -2.2789 -1.0311  1.4581
  494MOL0     H65191   3.714  10.802   0.356 -0.0857  0.9975 -0.7290
  494MOL0     H65192   4.011  11.270   0.523  1.0037 -0.6114 -1.3255
  494MOL0     H65193   4.248  11.313   0.589  0.1640  0.8341 -4.2680
  494MOL0     H65194   6.109  10.549   0.552  1.0814  1.2130  0.3347
  494MOL0     H65195   6.319  10.613   0.489 -1.3502 -0.6186 -1.6197
  494MOL0     H65196   6.750  10.779   0.384 -2.9955 -2.5012 -1.3685
  494MOL0     H65197   7.010  10.787   0.340  0.5525  0.2522  1.5694
  494MOL0     H65198   7.184  10.752   0.239 -1.9016 -1.1531 -1.5286
  494MOL0     H65199   7.179  10.588   0.183  1.3926 -1.9030  0.4479
  494MOL0     H65200   7.402  10.754   0.294 -1.5870  0.5317  0.2586
  494MOL0     H65201   7.399  10.573   0.304 -3.5609 -2.0155  0.6176
  494MOL0     H65202   7.415  10.766   0.054  2.3356  0.7050  0.4113
  494MOL0     H65203   7.369  10.599   0.026  1.0470  0.8169 -0.6923
  494MOL0     H65204   7.605  10.539   0.140  0.4566  1.3822  0.1079
  494MOL0     H65205   7.593  10.608  -0.030 -2.2861  0.4121 -0.8720
  494MOL0     H65206   7.784  10.907   0.195 -0.1038  2.2580 -1.9573
  494MOL0     H65207   7.045  10.405   0.507  1.7815  2.1527  4.0993
  494MOL0     H65208   6.784  10.412   0.558 -1.4652  3.8955  2.6696
  495MOL0     O65209   5.292   1.257   6.748  0.8874  0.6775  0.4513
  495MOL0     C65210   5.354   1.196   6.835 -0.1361 -0.4057  0.6152
  495MOL0     O65211   5.327   1.187   6.970  0.5685  0.4119 -0.1983
  495MOL0     C65212   5.205   1.227   7.004  0.0419  0.1838 -0.1050
  495MOL0     C65213   5.096   1.143   7.034  1.2818  0.3231  0.7553
  495MOL0     C65214   4.976   1.191   7.076 -0.4412 -0.0948 -0.1275
  495MOL0     C65215   4.957   1.332   7.092  0.0316 -0.0137 -0.3118
  495MOL0     O65216   4.849   1.396   7.156  0.2443  0.2820 -0.0846
  495MOL0     C65217   4.728   1.317   7.197 -0.2949 -0.9682 -0.0314
  495MOL0     C65218   4.596   1.401   7.186 -0.5991 -0.7789  0.5641
  495MOL0     C65219   4.485   1.339   7.274  0.1685  0.0125 -0.2076
  495MOL0     C65220   4.365   1.440   7.286  1.0217  0.4921  0.9921
  495MOL0     C65221   4.244   1.392   7.374 -1.1865  0.3235  0.1962
  495MOL0     C65222   4.143   1.511   7.396  0.4732 -0.6572  0.0419
  495MOL0     C65223   4.023   1.476   7.486  0.7203  0.1022 -0.7681
  495MOL0     C65224   3.935   1.362   7.423  1.2234  0.6234  0.0495
  495MOL0     N65225   3.822   1.346   7.517 -0.4960 -0.6266 -0.0629
  495MOL0     C65226   3.701   1.416   7.505 -0.4290 -0.4987 -0.5036
  495MOL0     C65227   3.634   1.378   7.620 -0.4982  0.3921 -0.5892
  495MOL0     C65228   3.520   1.453   7.681  0.0744  0.6219 -0.0658
  495MOL0     C65229   3.399   1.427   7.587 -0.1282  0.3045 -0.2046
  495MOL0     C65230   3.275   1.493   7.660 -0.5904 -0.3383 -0.1050
  495MOL0     C65231   3.150   1.474   7.583 -0.3817  0.5683 -0.4309
  495MOL0     O65232   3.066   1.591   7.598 -0.1367  0.3145  0.7179
  495MOL0     C65233   2.961   1.588   7.690  0.7436 -0.3889 -0.3393
  495MOL0     C65234   2.940   1.495   7.788 -0.2893 -0.1939 -0.4496
  495MOL0     C65235   2.822   1.482   7.854 -0.6950 -0.7711  0.0893
  495MOL0     C65236   2.724   1.575   7.827  1.5293  0.2791  0.4679
  495MOL0     C65237   2.587   1.557   7.889  0.7179 -0.4895 -0.7527
  495MOL0     O65238   2.502   1.660   7.881  0.3655 -0.6720 -0.2785
  495MOL0     C65239   2.378   1.635   7.943 -0.1142 -0.2987 -0.5262
  495MOL0     C65240   2.290   1.531   7.904 -0.6438 -0.0913 -0.1860
  495MOL0     C65241   2.178   1.490   7.973  0.7694 -0.7348  0.3047
  495MOL0     C65242   2.130   1.563   8.086  0.2581 -0.0582 -0.4197
  495MOL0     O65243   2.016   1.536   8.157  0.8837 -0.4546 -0.2116
  495MOL0     C65244   1.914   1.438   8.125 -0.0359 -0.1202 -0.2214
  495MOL0     C65245   1.782   1.470   8.196 -0.1206  0.2491  0.0916
  495MOL0     C65246   1.665   1.404   8.124 -0.0678  0.0374 -1.1649
  495MOL0     C65247   1.528   1.451   8.187 -0.1297 -0.6989  1.4562
  495MOL0     C65248   1.409   1.384   8.124 -0.4321 -0.2666 -0.6392
  495MOL0     C65249   1.288   1.391   8.217 -0.7341 -0.1432  0.9160
  495MOL0     C65250   1.170   1.318   8.153 -0.4942 -0.5177 -0.0234
  495MOL0     C65251   1.069   1.262   8.257 -0.3585 -0.8467  0.4257
  495MOL0    Cl65252   1.139   1.117   8.336 -0.2707  0.1804  0.3310
  495MOL0     C65253   2.206   1.676   8.127 -0.0772  0.0645 -1.1520
  495MOL0     C65254   2.328   1.711   8.060 -0.5420  0.9352  0.1901
  495MOL0     O65255   2.563   1.451   7.950  0.4918 -0.0033  0.1413
  495MOL0     C65256   2.736   1.683   7.736  0.1660  0.4806 -0.0952
  495MOL0     C65257   2.860   1.683   7.662 -0.4280 -0.0232 -0.5773
  495MOL0     N65258   3.702   1.271   7.681  0.3631  0.2060 -0.3503
  495MOL0     N65259   3.824   1.264   7.624  0.6753  0.7613  0.1099
  495MOL0     C65260   5.060   1.420   7.054  0.1859 -0.3371 -0.1042
  495MOL0     C65261   5.184   1.365   7.020 -0.2640  0.0485  0.9582
  495MOL0     C65262   5.464   1.118   6.783  0.4599 -0.9091 -0.3919
  495MOL0     C65263   5.488   1.106   6.646 -0.7739 -1.2114  0.0521
  495MOL0     C65264   5.590   1.024   6.599  0.5531 -0.4370 -0.2031
  495MOL0     C65265   5.672   0.950   6.686  0.7156  0.6079  0.1432
  495MOL0     O65266   5.780   0.886   6.635  0.7664  0.0073  0.2588
  495MOL0     C65267   5.882   0.957   6.563  0.5619 -0.1538 -0.0759
  495MOL0     C65268   5.983   1.000   6.660 -0.5289 -0.4391 -0.0323
  495MOL0     C65269   6.047   0.875   6.739  0.3647 -0.7681 -0.1700
  495MOL0     C65270   6.144   0.934   6.842 -0.2405  0.0736  0.9286
  495MOL0     C65271   6.227   0.827   6.902  1.3002  1.4416  0.3133
  495MOL0     C65272   6.286   0.734   6.959 -0.1363  0.0434 -0.1336
  495MOL0     C65273   5.657   0.961   6.825 -0.5473  0.1177 -0.0834
  495MOL0     C65274   5.557   1.052   6.871 -0.3088  0.1452  0.4445
  495MOL0     H65275   5.095   1.035   7.032 -1.1667  0.2830  1.2192
  495MOL0     H65276   4.902   1.114   7.097 -0.6611 -0.8239 -3.0557
  495MOL0     H65277   4.746   1.286   7.300  1.4226 -2.9049 -0.8409
  495MOL0     H65278   4.725   1.229   7.132  2.7344 -1.5955  0.5160
  495MOL0     H65279   4.561   1.418   7.084  2.4192 -1.7982 -0.7757
  495MOL0     H65280   4.627   1.495   7.233  1.0311 -1.1919  0.3898
  495MOL0     H65281   4.533   1.324   7.371  3.5008  1.1358 -1.5211
  495MOL0     H65282   4.457   1.245   7.227  3.3337  0.9385 -4.5476
  495MOL0     H65283   4.405   1.536   7.320  0.7880  1.1877 -0.6192
  495MOL0     H65284   4.324   1.449   7.185  1.8365  1.5791  0.7462
  495MOL0     H65285   4.286   1.382   7.474 -2.3458  0.3800  0.7090
  495MOL0     H65286   4.199   1.296   7.346 -0.9386  0.2596  0.0223
  495MOL0     H65287   4.095   1.540   7.302  2.6686  0.6231 -0.7711
  495MOL0     H65288   4.191   1.604   7.428 -0.0953  0.0472 -1.0630
  495MOL0     H65289   4.049   1.452   7.590  1.5459 -0.0697 -1.0077
  495MOL0     H65290   3.959   1.564   7.497 -3.3178 -2.6605  0.2131
  495MOL0     H65291   3.992   1.269   7.422 -0.5544 -0.5481  1.3506
  495MOL0     H65292   3.894   1.388   7.325 -3.1880 -0.4108  1.4215
  495MOL0     H65293   3.666   1.487   7.431 -1.3526 -0.6428 -0.2169
  495MOL0     H65294   3.537   1.561   7.674  0.1654  0.6256  0.1921
  495MOL0     H65295   3.502   1.405   7.778 -0.5999 -0.0434 -0.5140
  495MOL0     H65296   3.384   1.320   7.571  0.6958  0.2405 -0.5797
  495MOL0     H65297   3.407   1.466   7.485 -0.5043 -0.1591 -0.4171
  495MOL0     H65298   3.270   1.453   7.762  2.6469  0.1837  0.3552
  495MOL0     H65299   3.299   1.599   7.651 -1.1519 -0.3719 -3.7254
  495MOL0     H65300   3.102   1.382   7.614  0.8472  0.0096 -0.1186
  495MOL0     H65301   3.176   1.459   7.478  0.6736 -1.6754  0.0971
  495MOL0     H65302   3.024   1.434   7.819 -1.9330 -3.1395 -1.4177
  495MOL0     H65303   2.807   1.412   7.936  1.3504 -1.3936 -0.0137
  495MOL0     H65304   2.331   1.466   7.827 -2.3365 -2.0639  0.4724
  495MOL0     H65305   2.121   1.408   7.931  0.4624 -0.5734  0.3957
  495MOL0     H65306   1.951   1.341   8.158  3.0067  1.3090  0.8933
  495MOL0     H65307   1.905   1.415   8.018  2.9807 -1.5413 -0.2521
  495MOL0     H65308   1.759   1.577   8.192 -0.9891  0.0357 -1.6133
  495MOL0     H65309   1.792   1.429   8.297  0.1786  1.1624  0.4436
  495MOL0     H65310   1.666   1.295   8.129 -0.3148  0.0950  2.5866
  495MOL0     H65311   1.666   1.433   8.018 -0.2900 -0.4396 -1.3025
  495MOL0     H65312   1.521   1.420   8.291 -0.6783 -0.1546  1.5838
  495MOL0     H65313   1.521   1.560   8.190  1.4900 -0.4933 -0.0784
  495MOL0     H65314   1.432   1.277   8.114 -2.7712 -1.3187  3.1540
  495MOL0     H65315   1.371   1.438   8.037  0.0958  1.7148  0.3012
  495MOL0     H65316   1.250   1.491   8.237  1.3530  0.5667  1.5040
  495MOL0     H65317   1.328   1.361   8.314  1.9031  2.6387  0.8266
  495MOL0     H65318   1.107   1.384   8.092  3.2234  2.6077 -0.8389
  495MOL0     H65319   1.201   1.237   8.087  1.5702 -1.5084  2.0265
  495MOL0     H65320   0.978   1.222   8.210 -0.5384 -0.5522  0.5250
  495MOL0     H65321   1.035   1.331   8.334  0.6589  0.6732 -0.4242
  495MOL0     H65322   2.177   1.743   8.207  1.6269  3.0859 -2.9170
  495MOL0     H65323   2.382   1.803   8.081 -0.0697  0.7208 -0.0757
  495MOL0     H65324   2.660   1.758   7.719  1.3839  1.7353 -0.2315
  495MOL0     H65325   2.888   1.768   7.601  2.7234  0.7427  1.7079
  495MOL0     H65326   5.042   1.525   7.072 -1.3156 -0.7608  1.0049
  495MOL0     H65327   5.255   1.440   6.987 -0.9071 -0.4853 -1.9784
  495MOL0     H65328   5.435   1.164   6.571 -0.9740 -1.1647  0.2305
  495MOL0     H65329   5.612   1.014   6.494 -0.4336 -0.8377 -0.3788
  495MOL0     H65330   5.833   1.045   6.520  0.8079  0.6405  1.2152
  495MOL0     H65331   5.926   0.884   6.494  1.2750 -0.1803  0.4036
  495MOL0     H65332   6.064   1.049   6.607 -0.7636 -0.8874 -0.8120
  495MOL0     H65333   5.933   1.065   6.734 -0.6493 -0.5871  0.0171
  495MOL0     H65334   6.099   0.799   6.679  0.7432 -0.7158  0.0853
  495MOL0     H65335   5.968   0.820   6.790 -0.4085 -2.8676 -3.3442
  495MOL0     H65336   6.212   1.008   6.799  0.2566 -0.7490  0.2646
  495MOL0     H65337   6.091   0.986   6.923 -2.8386  0.4429 -0.9107
  495MOL0     H65338   6.343   0.651   6.995  0.9059  0.5100 -0.6398
  495MOL0     H65339   5.736   0.929   6.892  0.0437  1.5984 -0.0369
  495MOL0     H65340   5.542   1.043   6.978 -0.9672 -4.5201  0.1883
  496MOL0     O65341   0.410   8.914   5.878  0.9324 -0.5924  0.0274
  496MOL0     C65342   0.470   8.906   5.770 -0.4993  0.2246 -0.1199
  496MOL0     O65343   0.411   8.906   5.644  0.2858  0.2211 -0.8800
  496MOL0     C65344   0.274   8.908   5.622 -0.1996 -0.0325  0.4427
  496MOL0     C65345   0.170   8.852   5.699  0.1210 -0.0991 -0.1215
  496MOL0     C65346   0.036   8.875   5.669  0.1874  0.2016 -0.2533
  496MOL0     C65347  -0.001   8.949   5.555 -0.0735  0.7778  0.7195
  496MOL0     O65348  -0.131   8.952   5.515  0.1380  0.1656  0.5625
  496MOL0     C65349  -0.172   8.975   5.378 -0.1439  0.3346  0.3253
  496MOL0     C65350  -0.314   9.013   5.383 -0.3503 -0.1455 -0.5611
  496MOL0     C65351  -0.389   8.986   5.251  0.0863  0.2546 -0.1487
  496MOL0     C65352  -0.529   9.028   5.267  0.6720  0.4809  0.4839
  496MOL0     C65353  -0.610   8.974   5.391 -0.7034  0.3708 -0.8033
  496MOL0     C65354  -0.597   8.828   5.415  0.1419  0.2428  0.6076
  496MOL0     C65355  -0.639   8.728   5.303 -0.9606  0.5614 -0.3275
  496MOL0     C65356  -0.634   8.578   5.343 -0.0602 -0.2186 -0.2742
  496MOL0     N65357  -0.495   8.541   5.374  0.1319 -0.3705 -0.0051
  496MOL0     C65358  -0.432   8.533   5.499  0.2135 -0.0796  0.4563
  496MOL0     C65359  -0.304   8.483   5.481  0.3200  0.1157 -0.0264
  496MOL0     C65360  -0.209   8.478   5.595  0.2322 -1.1771  0.0250
  496MOL0     C65361  -0.081   8.563   5.577 -0.2509  0.5046  0.4970
  496MOL0     C65362   0.000   8.528   5.446 -0.7201  0.9382 -0.0293
  496MOL0     C65363   0.138   8.582   5.436 -1.1061  0.1034  0.1636
  496MOL0     O65364   0.207   8.542   5.549 -0.5738 -0.1453  0.1649
  496MOL0     C65365   0.341   8.524   5.545 -0.4931  0.2802 -0.1583
  496MOL0     C65366   0.429   8.540   5.434  1.0940  0.1116 -0.1134
  496MOL0     C65367   0.561   8.493   5.430  0.0824 -0.1408 -0.9150
  496MOL0     C65368   0.626   8.461   5.546  0.4285 -0.1890 -0.0608
  496MOL0     C65369   0.772   8.426   5.547 -0.4544 -0.7896 -0.0003
  496MOL0     O65370   0.832   8.428   5.680  0.1209 -0.2908  0.5612
  496MOL0     C65371   0.963   8.389   5.693  0.8142 -0.8944 -0.0310
  496MOL0     C65372   1.069   8.457   5.623 -0.4593 -0.0532 -0.0251
  496MOL0     C65373   1.196   8.408   5.637 -0.6713 -1.0700  0.2608
  496MOL0     C65374   1.221   8.300   5.715  0.8148  0.1879  0.4134
  496MOL0     O65375   1.349   8.265   5.698  0.3268 -0.0724 -1.0887
  496MOL0     C65376   1.397   8.145   5.760  0.2169 -0.0806 -0.0190
  496MOL0     C65377   1.556   8.149   5.755  0.0655  0.7799  0.1204
  496MOL0     C65378   1.617   8.267   5.822  0.1097 -0.3808  0.3182
  496MOL0     C65379   1.766   8.267   5.789  0.3633 -0.1416 -0.4538
  496MOL0     C65380   1.859   8.346   5.876 -0.0742 -0.7398 -0.9149
  496MOL0     C65381   1.797   8.473   5.942 -1.3635  0.7200  0.1598
  496MOL0     C65382   1.748   8.583   5.841 -0.6053 -0.2488 -0.7225
  496MOL0     C65383   1.875   8.666   5.798  0.5779 -0.4879 -0.1374
  496MOL0    Cl65384   1.814   8.819   5.719  0.6279 -0.0130 -0.5993
  496MOL0     C65385   1.124   8.245   5.798  0.3333  0.3198  0.4512
  496MOL0     C65386   0.989   8.281   5.788 -0.2844 -0.4333 -0.2114
  496MOL0     O65387   0.843   8.424   5.441  0.4295  0.6785  0.1048
  496MOL0     C65388   0.539   8.446   5.656 -0.1168 -0.8532 -0.3397
  496MOL0     C65389   0.400   8.463   5.660  0.0368  0.0571 -0.4449
  496MOL0     N65390  -0.291   8.453   5.344  0.6499 -1.5506 -0.3785
  496MOL0     N65391  -0.396   8.500   5.287  0.9105 -0.1530 -0.1956
  496MOL0     C65392   0.097   9.017   5.489  1.1690 -0.3181  0.7632
  496MOL0     C65393   0.232   8.997   5.522  0.2274 -0.2359 -0.2812
  496MOL0     C65394   0.617   8.872   5.767  0.2644 -0.9880  1.3139
  496MOL0     C65395   0.669   8.826   5.886 -0.6112  0.0618 -0.7336
  496MOL0     C65396   0.809   8.806   5.891  0.0838  0.3782 -0.1678
  496MOL0     C65397   0.902   8.847   5.785 -0.6297  0.0159 -0.3953
  496MOL0     O65398   1.035   8.844   5.793  0.1518 -0.3097 -0.5940
  496MOL0     C65399   1.096   8.787   5.910 -0.3922  1.0937 -0.3460
  496MOL0     C65400   1.241   8.766   5.894  0.0100 -0.2893  0.2279
  496MOL0     C65401   1.315   8.894   5.932  0.2370  0.4001  0.0155
  496MOL0     C65402   1.462   8.872   5.931 -0.5085  0.1329 -0.4546
  496MOL0     C65403   1.531   8.986   5.990  0.7848 -0.2903 -0.8361
  496MOL0     C65404   1.558   9.085   6.059 -0.6412 -0.2670  0.2534
  496MOL0     C65405   0.835   8.894   5.667  0.0559  0.2403 -1.2170
  496MOL0     C65406   0.701   8.905   5.657  0.1301  0.0261 -1.1824
  496MOL0     H65407   0.194   8.788   5.783  0.8095  2.0694  1.4211
  496MOL0     H65408  -0.036   8.818   5.726  0.6175 -2.1354 -1.9114
  496MOL0     H65409  -0.168   8.886   5.314  0.3322  0.5629  0.0291
  496MOL0     H65410  -0.121   9.060   5.332  0.0713  0.6690  1.1555
  496MOL0     H65411  -0.318   9.119   5.411  0.6995 -1.0607  3.8307
  496MOL0     H65412  -0.355   8.963   5.471  0.4848 -0.7340 -0.4973
  496MOL0     H65413  -0.386   8.878   5.236 -0.6615 -0.0700  1.7582
  496MOL0     H65414  -0.350   9.043   5.166  0.1615 -2.1186 -1.7973
  496MOL0     H65415  -0.527   9.138   5.263  0.3359  0.5625  1.9104
  496MOL0     H65416  -0.589   9.000   5.180 -0.3965  1.4679  0.8769
  496MOL0     H65417  -0.711   8.988   5.350 -1.0060  2.2907  0.4511
  496MOL0     H65418  -0.600   9.021   5.489  0.1836 -2.8554  0.8184
  496MOL0     H65419  -0.648   8.802   5.508 -0.0842  1.8164  0.9595
  496MOL0     H65420  -0.491   8.810   5.436  0.3158 -4.0946 -2.5501
  496MOL0     H65421  -0.743   8.755   5.283 -1.2859 -0.4787 -0.1044
  496MOL0     H65422  -0.570   8.739   5.218  0.1419 -2.5548  0.0534
  496MOL0     H65423  -0.667   8.514   5.261  2.8094 -1.6216 -0.4598
  496MOL0     H65424  -0.695   8.557   5.431 -1.3208  1.2402 -0.7600
  496MOL0     H65425  -0.479   8.557   5.594  2.5014 -0.0426  1.6557
  496MOL0     H65426  -0.179   8.373   5.600 -0.3175 -1.3047  0.7190
  496MOL0     H65427  -0.256   8.510   5.688  3.6809 -0.7264  1.7673
  496MOL0     H65428  -0.013   8.549   5.662  0.3437  1.6527  0.2267
  496MOL0     H65429  -0.107   8.670   5.577  1.7654  1.0338  0.1973
  496MOL0     H65430   0.015   8.420   5.454 -0.0570  0.8831 -1.6380
  496MOL0     H65431  -0.067   8.547   5.362 -1.8763 -1.9647  0.1136
  496MOL0     H65432   0.150   8.690   5.424  2.0062  0.2255  2.8218
  496MOL0     H65433   0.190   8.539   5.350  0.8307 -0.1281  1.3865
  496MOL0     H65434   0.394   8.594   5.347  1.4811 -0.9076 -0.9156
  496MOL0     H65435   0.611   8.507   5.334  0.5122  0.5604 -0.5977
  496MOL0     H65436   1.057   8.542   5.556  0.1473  0.1411  0.1054
  496MOL0     H65437   1.278   8.457   5.587  0.6523 -1.5645  1.8526
  496MOL0     H65438   1.366   8.052   5.711 -1.9540  1.4149 -1.7142
  496MOL0     H65439   1.364   8.141   5.864  0.0122 -1.4427 -0.1211
  496MOL0     H65440   1.577   8.154   5.648 -2.7311 -0.6067 -0.5930
  496MOL0     H65441   1.602   8.061   5.801 -0.8653  0.7548  1.0452
  496MOL0     H65442   1.595   8.252   5.928 -2.9985 -1.4805 -0.3856
  496MOL0     H65443   1.565   8.355   5.784 -4.0342 -2.3030  1.0168
  496MOL0     H65444   1.797   8.163   5.786  4.1879  0.7360  2.0689
  496MOL0     H65445   1.776   8.309   5.688  1.3536 -1.2952 -0.8487
  496MOL0     H65446   1.942   8.372   5.809  1.1404 -0.2610  0.7037
  496MOL0     H65447   1.907   8.280   5.949 -0.0948  1.8145  1.5694
  496MOL0     H65448   1.866   8.521   6.012 -1.3363 -4.1360  3.9958
  496MOL0     H65449   1.713   8.442   6.003  0.7239 -3.7786  1.1379
  496MOL0     H65450   1.705   8.536   5.752 -1.0247 -3.4631  1.0256
  496MOL0     H65451   1.672   8.644   5.890  2.9700  2.5171  1.9252
  496MOL0     H65452   1.938   8.603   5.734 -0.7884  1.2200 -3.4359
  496MOL0     H65453   1.927   8.696   5.889 -1.5363 -0.1865  1.0572
  496MOL0     H65454   1.161   8.169   5.865  0.0965  0.0238  0.2499
  496MOL0     H65455   0.915   8.232   5.851 -2.6680  4.3143  1.1921
  496MOL0     H65456   0.582   8.402   5.745  1.8020  1.7759  0.1383
  496MOL0     H65457   0.329   8.446   5.740  0.9103 -0.9132  0.1389
  496MOL0     H65458   0.063   9.083   5.410 -1.2483 -1.6617  0.6072
  496MOL0     H65459   0.295   9.045   5.449 -2.9490  0.8749 -2.5163
  496MOL0     H65460   0.609   8.788   5.968  0.2773  0.1761 -0.0197
  496MOL0     H65461   0.847   8.760   5.981  0.6795  1.2734  0.0538
  496MOL0     H65462   1.056   8.685   5.918  0.6245  0.2643 -3.9124
  496MOL0     H65463   1.077   8.854   5.994  2.7573 -0.6762  2.0248
  496MOL0     H65464   1.266   8.679   5.955  0.2262  1.1971  2.3843
  496MOL0     H65465   1.267   8.736   5.792  1.0490  1.0323  0.0728
  496MOL0     H65466   1.274   8.914   6.031 -4.4746 -1.0914 -1.3359
  496MOL0     H65467   1.284   8.969   5.858  2.1249  3.0859  1.7624
  496MOL0     H65468   1.488   8.781   5.986 -0.1255  0.0709 -0.7327
  496MOL0     H65469   1.498   8.872   5.827 -1.2387  3.1505 -0.7934
  496MOL0     H65470   1.593   9.164   6.123  0.0153 -1.0959  0.9346
  496MOL0     H65471   0.895   8.923   5.581  0.8867 -0.5042 -0.8993
  496MOL0     H65472   0.669   8.923   5.555 -0.7343  1.1107 -0.7490
  497MOL0     O65473   7.453   5.261   8.189  0.1969 -0.2153  0.3641
  497MOL0     C65474   7.551   5.214   8.135  0.6161  0.2463 -0.8352
  497MOL0     O65475   7.568   5.183   8.000 -0.2952  0.1609 -0.7346
  497MOL0     C65476   7.456   5.197   7.919  0.3290 -0.4817 -1.3213
  497MOL0     C65477   7.377   5.088   7.870 -0.0800  1.0109  0.7626
  497MOL0     C65478   7.260   5.099   7.797 -0.5103 -0.4205 -0.1780
  497MOL0     C65479   7.211   5.228   7.775 -0.6775  0.8896 -0.4075
  497MOL0     O65480   7.090   5.233   7.723 -0.2235 -0.2690  0.7394
  497MOL0     C65481   6.986   5.267   7.822  0.1626 -0.0777 -0.3549
  497MOL0     C65482   6.992   5.186   7.951 -0.7047 -0.2567  0.0103
  497MOL0     C65483   6.910   5.259   8.060 -0.1613 -0.0798 -0.9642
  497MOL0     C65484   6.923   5.194   8.193 -1.3373 -0.4419 -0.5287
  497MOL0     C65485   6.805   5.197   8.287 -0.1976 -0.3565 -0.2232
  497MOL0     C65486   6.687   5.124   8.230 -0.9408  0.3810 -1.1575
  497MOL0     C65487   6.620   5.032   8.334 -0.2309  0.3427  0.3797
  497MOL0     C65488   6.490   4.971   8.285  0.1173 -0.1164  0.3270
  497MOL0     N65489   6.370   5.059   8.282  0.1254  0.8293  0.0351
  497MOL0     C65490   6.311   5.124   8.384  0.3842 -0.0834 -0.5339
  497MOL0     C65491   6.203   5.191   8.334 -0.3680  0.5173  0.2327
  497MOL0     C65492   6.103   5.284   8.397 -0.6245 -0.1684  0.2316
  497MOL0     C65493   5.965   5.221   8.422 -0.0843 -0.0443  0.1706
  497MOL0     C65494   5.862   5.258   8.312  0.1485  0.1294  0.2163
  497MOL0     C65495   5.741   5.175   8.328  0.3245 -0.2546 -0.8718
  497MOL0     O65496   5.630   5.237   8.259 -0.2725  0.0846 -0.3232
  497MOL0     C65497   5.511   5.211   8.313  1.2490 -0.7699 -0.6251
  497MOL0     C65498   5.464   5.082   8.334 -0.0112  0.5298 -0.5185
  497MOL0     C65499   5.337   5.060   8.373  0.0349  0.7912  1.1514
  497MOL0     C65500   5.248   5.168   8.402  0.2832 -0.5255 -0.1622
  497MOL0     C65501   5.107   5.156   8.455  0.3594  0.1784  0.4404
  497MOL0     O65502   5.051   5.272   8.498  0.1526  0.1387 -0.7216
  497MOL0     C65503   4.930   5.266   8.564  0.8771 -0.4428  0.1666
  497MOL0     C65504   4.825   5.349   8.517  0.0465 -0.4782  0.5766
  497MOL0     C65505   4.711   5.352   8.589 -0.5895 -0.1211  0.6680
  497MOL0     C65506   4.682   5.251   8.684  0.6417  0.3234  0.1393
  497MOL0     O65507   4.559   5.234   8.747  0.3038 -0.6393 -0.6783
  497MOL0     C65508   4.455   5.329   8.722 -1.1655 -0.3381 -0.4685
  497MOL0     C65509   4.333   5.288   8.812  0.2535 -0.1326  0.0334
  497MOL0     C65510   4.225   5.399   8.797 -0.1698  0.2099  0.8264
  497MOL0     C65511   4.112   5.358   8.890 -0.2052  0.6405 -0.4235
  497MOL0     C65512   3.972   5.429   8.864 -0.5372  0.5960  0.0130
  497MOL0     C65513   3.876   5.411   8.993 -0.5598 -0.3107  0.0473
  497MOL0     C65514   3.738   5.479   8.968  0.3875  0.0741  0.4993
  497MOL0     C65515   3.632   5.451   9.077 -0.6856 -0.1708  0.1373
  497MOL0    Cl65516   3.647   5.559   9.219  0.2106 -0.2717 -0.0149
  497MOL0     C65517   4.790   5.167   8.727 -0.2617  0.4877  0.2124
  497MOL0     C65518   4.917   5.179   8.667 -0.0583 -0.2340 -0.0971
  497MOL0     O65519   5.049   5.044   8.452 -0.2668 -0.6211  0.5000
  497MOL0     C65520   5.304   5.296   8.398 -0.2631 -0.3354  0.1984
  497MOL0     C65521   5.436   5.315   8.345  0.1251 -0.8038 -0.2790
  497MOL0     N65522   6.197   5.164   8.199 -0.8752  0.8581  0.1883
  497MOL0     N65523   6.290   5.073   8.172 -0.6623 -0.8446 -1.0515
  497MOL0     C65524   7.277   5.336   7.819  0.1015 -0.4546  0.0715
  497MOL0     C65525   7.403   5.322   7.889  0.3809 -0.4371  0.1584
  497MOL0     C65526   7.661   5.166   8.219  0.3627 -0.7455  0.5477
  497MOL0     C65527   7.787   5.144   8.164  0.1541  0.2648 -0.4029
  497MOL0     C65528   7.898   5.106   8.229  0.2383 -0.4989 -0.6013
  497MOL0     C65529   7.898   5.104   8.369 -0.2470  0.4496 -1.1038
  497MOL0     O65530   8.008   5.072   8.451  0.1579 -0.6551  0.4731
  497MOL0     C65531   8.136   5.048   8.387  0.1302  0.9750 -0.5165
  497MOL0     C65532   8.249   5.017   8.493  1.3385 -0.2886  0.3716
  497MOL0     C65533   8.370   4.948   8.428  0.1572 -0.0431 -0.4325
  497MOL0     C65534   8.472   4.909   8.543 -0.5800  0.2178  0.7298
  497MOL0     C65535   8.580   4.821   8.494  0.5332 -0.3475  0.4590
  497MOL0     C65536   8.667   4.740   8.462  0.7911 -0.6494 -0.5039
  497MOL0     C65537   7.776   5.134   8.425  0.2484  0.1125 -0.5151
  497MOL0     C65538   7.660   5.160   8.353 -0.3066 -0.6860  0.4746
  497MOL0     H65539   7.427   4.996   7.899  0.0138  1.5509  2.4284
  497MOL0     H65540   7.205   5.014   7.758  0.0699  0.2035 -2.4774
  497MOL0     H65541   6.891   5.261   7.770 -0.9356  0.0021  1.5574
  497MOL0     H65542   7.001   5.373   7.845  0.9846 -0.5297  1.3723
  497MOL0     H65543   7.094   5.168   7.988 -1.5169 -0.0530  2.5556
  497MOL0     H65544   6.952   5.086   7.932 -1.6103  0.0996  0.0094
  497MOL0     H65545   6.806   5.241   8.033 -0.2493 -4.3098  1.2396
  497MOL0     H65546   6.923   5.366   8.078 -0.3901 -0.6680  4.3971
  497MOL0     H65547   6.960   5.091   8.197 -0.3824 -0.0847  1.9704
  497MOL0     H65548   7.005   5.245   8.245 -0.4776 -1.5418 -0.7395
  497MOL0     H65549   6.779   5.301   8.308  2.1716  0.3151 -0.3750
  497MOL0     H65550   6.844   5.156   8.380 -0.4486 -0.1442 -0.0252
  497MOL0     H65551   6.730   5.063   8.149 -3.1995 -2.0424 -0.6602
  497MOL0     H65552   6.613   5.192   8.189 -0.0656  1.0939 -1.5994
  497MOL0     H65553   6.700   4.962   8.358 -0.3462 -1.8919 -4.4651
  497MOL0     H65554   6.599   5.086   8.427  0.6891 -2.1645  2.1178
  497MOL0     H65555   6.456   4.890   8.349 -1.4851  1.4115  1.5157
  497MOL0     H65556   6.507   4.926   8.187 -0.4846  0.2833  0.0328
  497MOL0     H65557   6.343   5.126   8.487  1.1792  0.1888 -0.7736
  497MOL0     H65558   6.098   5.376   8.338  2.3098 -0.2117 -0.2374
  497MOL0     H65559   6.145   5.328   8.488 -0.7063  1.9993 -0.7111
  497MOL0     H65560   5.926   5.253   8.519  3.2069 -0.5657  1.7663
  497MOL0     H65561   5.972   5.111   8.422  2.2786  0.0166 -2.1503
  497MOL0     H65562   5.847   5.365   8.330 -0.3771  0.4148 -1.6972
  497MOL0     H65563   5.900   5.249   8.210 -1.4427 -1.4181 -0.2889
  497MOL0     H65564   5.715   5.177   8.434  0.2262 -1.1799 -0.8654
  497MOL0     H65565   5.746   5.070   8.298 -0.0866 -0.0815 -1.5556
  497MOL0     H65566   5.536   5.003   8.314 -1.0952 -0.1938 -1.7593
  497MOL0     H65567   5.297   4.960   8.391  2.8249 -0.2726  1.9954
  497MOL0     H65568   4.849   5.422   8.440  0.2953 -1.6555 -0.5109
  497MOL0     H65569   4.639   5.428   8.561 -0.4890  0.3502  1.6772
  497MOL0     H65570   4.429   5.329   8.616 -2.1809  1.5599 -0.2754
  497MOL0     H65571   4.502   5.426   8.742 -0.5882 -0.6492 -0.2988
  497MOL0     H65572   4.374   5.269   8.911 -2.4399 -1.1447  1.0498
  497MOL0     H65573   4.285   5.194   8.780 -0.8523  0.7111 -0.9032
  497MOL0     H65574   4.192   5.403   8.693  3.0296 -1.7090 -0.4244
  497MOL0     H65575   4.269   5.496   8.820 -0.0700  0.5199 -0.5996
  497MOL0     H65576   4.090   5.252   8.882 -1.0759  0.5285  2.2878
  497MOL0     H65577   4.138   5.387   8.993  3.0457  0.5368 -1.1180
  497MOL0     H65578   3.915   5.391   8.778 -1.7454  1.3692  0.4437
  497MOL0     H65579   3.997   5.533   8.845 -0.3018  0.9617  2.0745
  497MOL0     H65580   3.911   5.461   9.084 -8.6755  4.0145  1.8233
  497MOL0     H65581   3.870   5.307   9.024 -1.0820  0.3595  2.4814
  497MOL0     H65582   3.746   5.586   8.945  0.4809 -0.1722 -0.6924
  497MOL0     H65583   3.697   5.445   8.873 -0.6498  1.7229  0.3139
  497MOL0     H65584   3.629   5.352   9.123  1.6790 -0.6217 -0.5047
  497MOL0     H65585   3.536   5.477   9.033 -1.5115 -1.4440  1.1060
  497MOL0     H65586   4.776   5.097   8.809  0.5456 -1.3228 -1.1332
  497MOL0     H65587   5.003   5.121   8.697  0.6366  1.8891  2.3825
  497MOL0     H65588   5.248   5.386   8.422 -0.9332 -0.8196  0.5018
  497MOL0     H65589   5.453   5.422   8.343 -2.3531 -0.3131  0.7610
  497MOL0     H65590   7.244   5.438   7.802 -1.4431 -0.9339  0.0083
  497MOL0     H65591   7.446   5.417   7.920  1.0064 -1.0764  1.2910
  497MOL0     H65592   7.799   5.146   8.056  0.1658  2.0003 -0.4014
  497MOL0     H65593   7.993   5.088   8.180 -0.6906 -1.9394 -1.9132
  497MOL0     H65594   8.164   5.135   8.326  0.9440  1.2110  0.1847
  497MOL0     H65595   8.122   4.963   8.319 -1.7117  0.0062  1.0133
  497MOL0     H65596   8.272   5.115   8.535 -3.1176  2.1092 -2.1340
  497MOL0     H65597   8.201   4.957   8.571  0.7369 -0.2010  0.0678
  497MOL0     H65598   8.424   5.014   8.360  2.2035 -0.8439  0.3387
  497MOL0     H65599   8.335   4.853   8.386 -1.2212  0.1624  0.2124
  497MOL0     H65600   8.514   5.002   8.582 -2.2244  0.6803  1.4911
  497MOL0     H65601   8.426   4.859   8.629  2.9354 -2.0120  1.5530
  497MOL0     H65602   8.746   4.674   8.432  2.4835 -0.0929  2.4024
  497MOL0     H65603   7.773   5.129   8.533 -2.6417  0.5563 -0.5021
  497MOL0     H65604   7.568   5.197   8.396 -0.7352  2.3808 -2.6331
  498MOL0     O65605   4.312  10.726   2.052  0.6979 -0.0775  0.3186
  498MOL0     C65606   4.259  10.719   1.941 -0.2815  0.3403 -0.5701
  498MOL0     O65607   4.324  10.712   1.821  0.2599  0.0875  0.1519
  498MOL0     C65608   4.464  10.708   1.821  0.5542 -0.0902  0.1872
  498MOL0     C65609   4.545  10.809   1.878 -0.1445  0.4459  0.5698
  498MOL0     C65610   4.685  10.794   1.870  0.7309  0.6620 -0.1342
  498MOL0     C65611   4.741  10.681   1.818  0.0864  0.4399  0.2938
  498MOL0     O65612   4.872  10.659   1.815 -0.0973 -0.7126 -0.1298
  498MOL0     C65613   4.962  10.727   1.902 -0.9089 -0.5635 -0.0477
  498MOL0     C65614   5.072  10.623   1.922  0.1826 -0.2047 -0.3134
  498MOL0     C65615   5.193  10.667   2.007  0.8190  0.2363 -0.8133
  498MOL0     C65616   5.272  10.776   1.928 -0.7798  0.9657  0.6880
  498MOL0     C65617   5.412  10.783   1.986 -0.2199 -0.9049 -0.0902
  498MOL0     C65618   5.510  10.863   1.890  0.0838 -0.5272 -1.4560
  498MOL0     C65619   5.652  10.879   1.958  0.4924 -0.7242  0.5647
  498MOL0     C65620   5.712  10.737   1.987 -0.5914 -0.3157  0.9207
  498MOL0     N65621   5.846  10.748   2.044 -0.0161 -0.3951 -0.3447
  498MOL0     C65622   5.956  10.793   1.983 -0.3290 -0.2571  0.2529
  498MOL0     C65623   6.048  10.801   2.083 -0.6048 -0.3451  1.0721
  498MOL0     C65624   6.181  10.853   2.057  0.3337  0.2500  0.0298
  498MOL0     C65625   6.210  10.977   2.142 -0.4897 -0.3130 -0.1322
  498MOL0     C65626   6.160  11.100   2.071 -0.0454  0.3199 -0.0929
  498MOL0     C65627   6.011  11.132   2.100  0.1823 -0.0266 -0.1249
  498MOL0     O65628   5.989  11.274   2.113 -0.2135 -0.0932 -0.1688
  498MOL0     C65629   5.862  11.323   2.125  0.4400  0.8364 -1.1476
  498MOL0     C65630   5.851  11.458   2.137  0.1877 -0.9041  0.2181
  498MOL0     C65631   5.722  11.523   2.136 -0.5166 -0.1155 -0.6259
  498MOL0     C65632   5.601  11.451   2.127  0.2421  0.0425 -0.6996
  498MOL0     C65633   5.470  11.515   2.123  0.0233  0.0307 -0.6254
  498MOL0     O65634   5.368  11.439   2.145 -0.2546 -0.0583  0.1905
  498MOL0     C65635   5.240  11.489   2.138 -0.4138 -0.3460  0.7877
  498MOL0     C65636   5.175  11.538   2.026 -0.2195 -0.9881 -0.8680
  498MOL0     C65637   5.039  11.545   2.021 -0.7276  0.7156  0.1634
  498MOL0     C65638   4.963  11.500   2.126  0.2255 -0.4855  0.1403
  498MOL0     O65639   4.826  11.509   2.139  0.2264  0.0001 -0.4556
  498MOL0     C65640   4.767  11.610   2.221  0.1577  0.1454  0.4962
  498MOL0     C65641   4.622  11.574   2.232  0.7744 -0.0946  0.4028
  498MOL0     C65642   4.554  11.681   2.317  0.1928 -0.7562 -0.4181
  498MOL0     C65643   4.417  11.630   2.361  0.0654 -0.7175  0.5240
  498MOL0     C65644   4.304  11.586   2.257 -0.2351  0.1234 -0.6058
  498MOL0     C65645   4.263  11.697   2.163 -0.1177  0.5843 -0.1089
  498MOL0     C65646   4.167  11.649   2.046  0.7698 -0.4671  0.3427
  498MOL0     C65647   4.018  11.670   2.069  0.1777  0.5521  0.1270
  498MOL0    Cl65648   3.944  11.568   2.196  0.3425 -0.3589  0.3149
  498MOL0     C65649   5.028  11.444   2.234  0.3566 -0.6010  0.0408
  498MOL0     C65650   5.164  11.453   2.252  0.9290  0.3861 -0.1375
  498MOL0     O65651   5.460  11.639   2.109  0.0023  0.3871 -0.3314
  498MOL0     C65652   5.615  11.312   2.124 -1.0263  0.7844 -0.5508
  498MOL0     C65653   5.747  11.251   2.120  0.0583 -0.0593  0.8235
  498MOL0     N65654   5.987  10.783   2.199  0.1851 -0.4888 -1.2748
  498MOL0     N65655   5.870  10.740   2.178  0.3730 -0.2807  0.3805
  498MOL0     C65656   4.659  10.582   1.766  0.3467 -0.3589 -0.1388
  498MOL0     C65657   4.520  10.588   1.769 -0.0245 -0.8381 -0.1520
  498MOL0     C65658   4.107  10.714   1.945  0.0613 -0.2160  0.1968
  498MOL0     C65659   4.040  10.713   2.063 -0.8369 -0.2981 -0.2361
  498MOL0     C65660   3.902  10.721   2.061 -0.0650 -0.7727  0.0674
  498MOL0     C65661   3.830  10.724   1.939 -0.5045  0.3159  0.5896
  498MOL0     O65662   3.694  10.726   1.941 -0.0288 -0.7753  0.2016
  498MOL0     C65663   3.641  10.857   1.919  0.3261  0.0479  0.0932
  498MOL0     C65664   3.510  10.878   1.988  0.4478 -0.0608  0.3629
  498MOL0     C65665   3.509  10.840   2.134  0.6915 -0.2836  1.1061
  498MOL0     C65666   3.377  10.898   2.188  0.2345  0.1843  0.4096
  498MOL0     C65667   3.389  10.882   2.330 -0.4476  0.3838  0.2377
  498MOL0     C65668   3.426  10.858   2.440 -0.5818 -0.3167  0.5336
  498MOL0     C65669   3.900  10.720   1.814 -0.0237 -0.3968 -0.1486
  498MOL0     C65670   4.044  10.716   1.819 -0.4028  0.4379 -0.5129
  498MOL0     H65671   4.502  10.889   1.937 -2.9695 -0.4136 -0.1740
  498MOL0     H65672   4.746  10.879   1.901  0.1684  0.2651  2.2176
  498MOL0     H65673   4.927  10.765   1.998  0.5451 -2.6226  1.3757
  498MOL0     H65674   5.006  10.810   1.845 -1.9491  0.8366  1.1263
  498MOL0     H65675   5.099  10.583   1.823  0.9319  3.1282 -1.5813
  498MOL0     H65676   5.026  10.541   1.977  2.7796  0.2289  2.7824
  498MOL0     H65677   5.244  10.578   2.044  2.9422  1.0230 -1.7037
  498MOL0     H65678   5.157  10.717   2.098 -1.6406 -0.9363 -1.0887
  498MOL0     H65679   5.279  10.740   1.825 -2.0231  4.6155 -0.8506
  498MOL0     H65680   5.216  10.870   1.924 -1.6040  0.4502 -1.0401
  498MOL0     H65681   5.454  10.683   1.995 -1.6985 -1.5345  0.0891
  498MOL0     H65682   5.403  10.832   2.084  1.7648  2.3685 -1.3730
  498MOL0     H65683   5.469  10.962   1.874 -0.0065 -0.6555 -2.0228
  498MOL0     H65684   5.529  10.804   1.800  2.1688 -2.5701  0.1564
  498MOL0     H65685   5.724  10.933   1.895 -0.3305 -1.2105 -0.8383
  498MOL0     H65686   5.637  10.934   2.052  0.3764  0.3002 -0.0352
  498MOL0     H65687   5.707  10.670   1.900 -2.4746 -2.0215  2.2275
  498MOL0     H65688   5.646  10.686   2.058 -1.4276 -1.0511 -0.3442
  498MOL0     H65689   5.968  10.808   1.876 -3.4659 -2.0831 -0.4697
  498MOL0     H65690   6.192  10.867   1.949  1.5924 -0.8649 -0.0064
  498MOL0     H65691   6.254  10.775   2.083 -1.9625 -1.9987  0.1991
  498MOL0     H65692   6.319  10.986   2.150 -0.3112 -1.5098 -1.0313
  498MOL0     H65693   6.164  10.958   2.239 -1.1547 -0.6905 -0.5130
  498MOL0     H65694   6.210  11.189   2.112 -0.3415 -0.4060  1.9563
  498MOL0     H65695   6.178  11.104   1.964  0.6841  1.4196  0.0475
  498MOL0     H65696   5.992  11.098   2.202  0.6876  0.7779  0.2541
  498MOL0     H65697   5.952  11.085   2.022  3.0737 -0.4225 -2.2573
  498MOL0     H65698   5.933  11.528   2.126  0.5247 -1.1656  0.9817
  498MOL0     H65699   5.722  11.632   2.137  1.6835 -0.0829 -0.2161
  498MOL0     H65700   5.250  11.559   1.950  1.6362  0.0966  1.1766
  498MOL0     H65701   4.992  11.591   1.935  0.7068 -0.0591 -1.0769
  498MOL0     H65702   4.778  11.708   2.175 -0.3431  0.4759  1.0699
  498MOL0     H65703   4.808  11.611   2.322  1.0815  1.4911  0.1238
  498MOL0     H65704   4.608  11.479   2.285  0.3340 -0.1403  0.2037
  498MOL0     H65705   4.586  11.568   2.129  1.2031  0.1416  0.2374
  498MOL0     H65706   4.534  11.772   2.259  1.1340  1.0765  1.9562
  498MOL0     H65707   4.615  11.709   2.404 -1.1508  2.9071 -0.4559
  498MOL0     H65708   4.439  11.548   2.429  2.3376 -1.5356 -1.0680
  498MOL0     H65709   4.373  11.699   2.433 -1.0055 -3.2875  2.4735
  498MOL0     H65710   4.215  11.551   2.310  0.5067 -0.7617  0.0798
  498MOL0     H65711   4.349  11.503   2.202  0.8194 -0.6320  1.2937
  498MOL0     H65712   4.353  11.743   2.123 -0.2433  0.6230 -0.3508
  498MOL0     H65713   4.215  11.774   2.224  0.1471  0.9103 -0.3091
  498MOL0     H65714   4.190  11.714   1.961 -0.5907  2.7704  2.2429
  498MOL0     H65715   4.200  11.552   2.008  1.6150  0.4286 -1.3049
  498MOL0     H65716   3.973  11.644   1.973 -2.8386  1.7612  1.1120
  498MOL0     H65717   3.997  11.775   2.090  1.0813  1.1595 -1.7890
  498MOL0     H65718   4.971  11.407   2.318 -0.0951  1.1698  0.5658
  498MOL0     H65719   5.205  11.428   2.349 -0.3002  1.7476  0.7762
  498MOL0     H65720   5.521  11.258   2.119 -0.2655 -0.5042 -1.7390
  498MOL0     H65721   5.758  11.145   2.099  3.4171  0.3809 -0.2453
  498MOL0     H65722   4.704  10.495   1.720 -1.6862 -0.4322 -2.1140
  498MOL0     H65723   4.460  10.511   1.721 -0.4526 -0.4091 -0.3123
  498MOL0     H65724   4.080  10.720   2.164 -0.9411 -0.3275 -0.1923
  498MOL0     H65725   3.837  10.729   2.148 -0.1394 -2.0417  0.1372
  498MOL0     H65726   3.617  10.863   1.812  1.1982 -0.7793 -0.1668
  498MOL0     H65727   3.709  10.934   1.954 -1.3714  0.3484  3.0323
  498MOL0     H65728   3.479  10.982   1.979 -2.6487 -0.9730 -0.9643
  498MOL0     H65729   3.442  10.815   1.929 -1.0891 -1.2385  3.1817
  498MOL0     H65730   3.592  10.881   2.191  0.0143 -0.8722  2.5606
  498MOL0     H65731   3.511  10.730   2.138  1.0352 -0.3399 -0.2286
  498MOL0     H65732   3.369  11.001   2.152 -0.0712 -0.0328 -0.1603
  498MOL0     H65733   3.295  10.832   2.159  2.5191 -1.9952 -1.5464
  498MOL0     H65734   3.470  10.833   2.534  0.3936  0.3729  0.2696
  498MOL0     H65735   3.848  10.734   1.720  1.1541 -1.7372 -1.0482
  498MOL0     H65736   4.099  10.717   1.726  1.1833 -0.1196  0.3925
  499MOL0     O65737   8.598   8.183   7.580  0.4452 -0.9285  0.6374
  499MOL0     C65738   8.520   8.142   7.493  0.0256  0.3264  0.3862
  499MOL0     O65739   8.385   8.137   7.493  0.0457 -0.5737 -0.0176
  499MOL0     C65740   8.310   8.203   7.584  0.1511 -0.5315  0.1162
  499MOL0     C65741   8.315   8.338   7.619 -0.4800  0.0518 -0.0460
  499MOL0     C65742   8.242   8.393   7.726 -0.8539  0.4676  0.1641
  499MOL0     C65743   8.141   8.313   7.790 -0.0603 -0.3077  0.5429
  499MOL0     O65744   8.052   8.359   7.885 -0.1216  0.1841  0.4945
  499MOL0     C65745   8.110   8.436   7.992  0.2733 -0.2071  0.5701
  499MOL0     C65746   7.998   8.474   8.089 -0.0654 -0.5916  0.2622
  499MOL0     C65747   8.035   8.598   8.174  0.2096  0.4675 -0.0346
  499MOL0     C65748   7.918   8.642   8.264  0.0822 -0.0028 -0.5151
  499MOL0     C65749   7.967   8.774   8.332  0.1501 -0.0642  0.1995
  499MOL0     C65750   7.854   8.845   8.394  0.5417 -0.1973 -0.0244
  499MOL0     C65751   7.809   8.786   8.528 -1.1869 -0.7494  0.7522
  499MOL0     C65752   7.714   8.885   8.595 -0.5112 -0.1585 -0.4108
  499MOL0     N65753   7.585   8.896   8.517 -0.4928 -0.1209  1.4851
  499MOL0     C65754   7.459   8.871   8.555  0.3330  0.5639 -0.6785
  499MOL0     C65755   7.370   8.927   8.465 -0.9128 -0.1372  0.3586
  499MOL0     C65756   7.221   8.922   8.459 -0.4048 -0.7326  0.1043
  499MOL0     C65757   7.180   8.793   8.384 -0.1162  0.1965 -0.2601
  499MOL0     C65758   7.028   8.773   8.397 -0.7071  0.2761 -0.5133
  499MOL0     C65759   6.939   8.862   8.305  0.1204 -1.1245 -0.1381
  499MOL0     O65760   6.911   8.993   8.366  0.0579 -0.6621 -0.1764
  499MOL0     C65761   6.781   9.042   8.371  0.7163  0.2948 -0.0881
  499MOL0     C65762   6.765   9.178   8.391 -0.9654  0.7099 -0.0907
  499MOL0     C65763   6.638   9.236   8.390  0.3810  0.1084 -0.3923
  499MOL0     C65764   6.523   9.159   8.347 -0.7549  0.0634 -0.2521
  499MOL0     C65765   6.389   9.229   8.325 -0.1848  0.1085 -0.7315
  499MOL0     O65766   6.360   9.341   8.403  0.1516 -0.3372  0.2538
  499MOL0     C65767   6.236   9.405   8.387  0.5311  0.0786  1.0669
  499MOL0     C65768   6.125   9.360   8.459 -0.5948 -1.3044 -0.7594
  499MOL0     C65769   6.000   9.421   8.443  0.6275  0.3915  1.0002
  499MOL0     C65770   5.991   9.538   8.367 -0.2686  0.6394  0.4478
  499MOL0     O65771   5.880   9.608   8.334 -0.3685  0.1589 -0.3192
  499MOL0     C65772   5.775   9.607   8.440 -0.3092 -0.2842  0.5527
  499MOL0     C65773   5.676   9.718   8.411 -0.1543  0.4514  0.5197
  499MOL0     C65774   5.545   9.712   8.495  0.7176 -0.4044  0.4387
  499MOL0     C65775   5.565   9.799   8.619  0.1147 -0.1539  0.4389
  499MOL0     C65776   5.454   9.758   8.715  0.4084 -0.2623  0.7797
  499MOL0     C65777   5.457   9.609   8.785 -0.3682  0.1688  0.2266
  499MOL0     C65778   5.344   9.601   8.890  0.6588  0.1958  0.4046
  499MOL0     C65779   5.380   9.621   9.041  0.1101 -0.1007  1.3267
  499MOL0    Cl65780   5.467   9.489   9.118  0.3202  0.2830 -0.7200
  499MOL0     C65781   6.103   9.582   8.288 -0.7174  0.7308 -0.3842
  499MOL0     C65782   6.231   9.521   8.300  0.5542  0.1121  0.1688
  499MOL0     O65783   6.313   9.166   8.247  0.1552 -0.4917  0.5294
  499MOL0     C65784   6.533   9.019   8.346 -0.3572 -1.0914 -0.3251
  499MOL0     C65785   6.662   8.969   8.353  0.0341  0.3214 -0.5987
  499MOL0     N65786   7.445   8.992   8.369  0.2312  0.4683  0.4497
  499MOL0     N65787   7.574   8.979   8.409  0.2853  0.6852  0.3016
  499MOL0     C65788   8.123   8.182   7.750 -1.2536  0.0014 -0.2432
  499MOL0     C65789   8.209   8.126   7.649  0.4337  0.2456  0.5662
  499MOL0     C65790   8.579   8.078   7.372  0.4339 -0.1056  0.9385
  499MOL0     C65791   8.499   8.043   7.260  1.1270  0.1092 -0.8287
  499MOL0     C65792   8.560   7.995   7.147 -0.3001 -0.3525 -0.5734
  499MOL0     C65793   8.699   7.974   7.133 -0.9342 -0.2864 -0.2828
  499MOL0     O65794   8.755   7.923   7.022  0.2724 -0.5403 -0.5697
  499MOL0     C65795   8.884   7.982   6.985 -0.7327 -0.0998 -0.4631
  499MOL0     C65796   8.886   7.965   6.840  0.2279  0.3745 -0.0876
  499MOL0     C65797   9.002   8.005   6.755  0.2040 -0.4982 -0.3968
  499MOL0     C65798   9.055   8.137   6.789 -0.3627  0.6652 -1.1003
  499MOL0     C65799   9.172   8.171   6.708  0.2046  0.1418  0.1769
  499MOL0     C65800   9.255   8.201   6.624  0.3935  0.4166 -0.2355
  499MOL0     C65801   8.770   8.005   7.243 -0.3444  0.1281  0.5583
  499MOL0     C65802   8.715   8.060   7.362 -0.6802 -0.4896  0.0708
  499MOL0     H65803   8.382   8.398   7.559 -0.1993 -0.0116  0.2017
  499MOL0     H65804   8.261   8.493   7.764  1.3027 -0.6406  2.3040
  499MOL0     H65805   8.161   8.525   7.954  0.8792 -0.0433  1.7175
  499MOL0     H65806   8.186   8.376   8.042 -1.1027 -0.0789  2.9794
  499MOL0     H65807   7.995   8.390   8.160  0.2923  1.1544  2.4486
  499MOL0     H65808   7.902   8.490   8.041  0.1238 -0.3410 -0.0294
  499MOL0     H65809   8.064   8.679   8.108 -0.1680  0.0804 -0.6881
  499MOL0     H65810   8.118   8.572   8.241  0.3536 -0.8542 -0.6903
  499MOL0     H65811   7.829   8.658   8.201  0.4446  2.9644 -0.4288
  499MOL0     H65812   7.893   8.568   8.340  1.2655  1.7134  1.6517
  499MOL0     H65813   8.007   8.836   8.252 -0.6813 -3.9665 -3.6081
  499MOL0     H65814   8.044   8.760   8.408  2.0766  1.8929 -1.2599
  499MOL0     H65815   7.761   8.834   8.337 -2.3854  2.2748  3.7623
  499MOL0     H65816   7.868   8.953   8.398 -0.9329  0.0339 -0.6085
  499MOL0     H65817   7.752   8.692   8.521 -2.7389  0.0138  2.2708
  499MOL0     H65818   7.900   8.776   8.589 -0.3720  1.7586  0.0646
  499MOL0     H65819   7.764   8.981   8.611 -2.1514  0.4886  1.2250
  499MOL0     H65820   7.687   8.840   8.691 -1.3346 -1.6400 -1.3002
  499MOL0     H65821   7.416   8.827   8.644  0.1329  4.0247  1.1367
  499MOL0     H65822   7.190   9.016   8.414 -1.0096 -1.1942 -0.4548
  499MOL0     H65823   7.180   8.916   8.560 -2.5007  1.2634 -0.5613
  499MOL0     H65824   7.225   8.711   8.440 -2.1583  0.0204  1.2263
  499MOL0     H65825   7.221   8.787   8.283  1.9487 -2.8447  0.6218
  499MOL0     H65826   7.002   8.667   8.399  0.3329 -0.0271 -1.6398
  499MOL0     H65827   7.011   8.793   8.503 -3.3856 -2.3486 -0.3023
  499MOL0     H65828   6.850   8.807   8.273  0.1968  0.4428 -3.4770
  499MOL0     H65829   6.991   8.875   8.209 -1.5269  1.6906 -0.7654
  499MOL0     H65830   6.862   9.227   8.396  0.4168 -1.8439 -0.2732
  499MOL0     H65831   6.630   9.343   8.400 -3.0277 -0.2650  2.6620
  499MOL0     H65832   6.141   9.275   8.526 -4.4923 -0.8755  1.0008
  499MOL0     H65833   5.917   9.373   8.494  0.6550  0.0527  0.7358
  499MOL0     H65834   5.830   9.622   8.533  0.5199 -1.4372  0.2690
  499MOL0     H65835   5.724   9.511   8.438  0.5154 -0.7266  0.3891
  499MOL0     H65836   5.643   9.701   8.309  1.4483 -0.5569  0.1375
  499MOL0     H65837   5.724   9.816   8.411  1.1409 -0.1607  1.2960
  499MOL0     H65838   5.515   9.611   8.522  3.6237 -1.5391 -0.2243
  499MOL0     H65839   5.471   9.759   8.430 -0.0409 -1.0392  0.8382
  499MOL0     H65840   5.665   9.784   8.659  0.0930 -1.6724 -0.0086
  499MOL0     H65841   5.552   9.905   8.592  2.4428 -0.0005 -0.3106
  499MOL0     H65842   5.357   9.780   8.671 -0.9077 -0.9677  3.1719
  499MOL0     H65843   5.460   9.830   8.796 -1.3849 -0.8181  1.4508
  499MOL0     H65844   5.555   9.582   8.825 -0.6989 -0.6594  0.5060
  499MOL0     H65845   5.432   9.536   8.707  4.0988 -2.7356  1.1133
  499MOL0     H65846   5.265   9.672   8.865 -0.3795 -0.9100  0.4712
  499MOL0     H65847   5.301   9.500   8.885  3.3115 -1.0363  0.6989
  499MOL0     H65848   5.282   9.636   9.085  0.3650  1.7814  1.3425
  499MOL0     H65849   5.439   9.713   9.055 -0.5791  0.5847 -0.0199
  499MOL0     H65850   6.086   9.664   8.218 -1.2402  2.1143  1.2964
  499MOL0     H65851   6.310   9.544   8.229 -0.0016  0.1562 -0.4490
  499MOL0     H65852   6.440   8.964   8.339 -1.2093  0.3302 -0.7354
  499MOL0     H65853   6.672   8.862   8.339  1.0771  0.1089  1.3503
  499MOL0     H65854   8.037   8.125   7.784 -0.5392 -1.5985 -0.9902
  499MOL0     H65855   8.198   8.019   7.635 -0.6578  0.1389  1.9185
  499MOL0     H65856   8.392   8.055   7.270  1.1099 -0.9944  0.7152
  499MOL0     H65857   8.505   7.960   7.059  1.1505 -4.0885 -0.1679
  499MOL0     H65858   8.962   7.929   7.040 -3.9358 -1.2212  3.5141
  499MOL0     H65859   8.893   8.091   6.995  0.4174 -0.1367 -0.9300
  499MOL0     H65860   8.868   7.859   6.822  1.3681  0.5367 -2.5731
  499MOL0     H65861   8.800   8.015   6.795 -1.6767 -2.0633  0.5880
  499MOL0     H65862   8.983   8.005   6.647 -0.1294  1.0368 -0.3661
  499MOL0     H65863   9.085   7.939   6.781  1.4408  1.0803 -0.1334
  499MOL0     H65864   8.983   8.217   6.773  0.2586  1.5507  0.4193
  499MOL0     H65865   9.085   8.141   6.894 -0.9889  1.4361 -0.9426
  499MOL0     H65866   9.324   8.242   6.553  1.0393 -0.6626 -0.2546
  499MOL0     H65867   8.878   7.990   7.250 -0.4897 -1.2659  0.1449
  499MOL0     H65868   8.781   8.095   7.441  0.4968  0.1363 -1.1445
  500MOL0     O65869  11.142   7.901   7.492 -0.0510 -0.3500 -0.0063
  500MOL0     C65870  11.119   7.989   7.579  0.1047  0.2210 -0.1179
  500MOL0     O65871  11.003   7.990   7.660  0.4896 -0.0317 -0.1625
  500MOL0     C65872  10.907   7.889   7.623  0.4183  0.0443  0.1118
  500MOL0     C65873  10.848   7.815   7.732 -0.2593 -0.2669  0.5215
  500MOL0     C65874  10.737   7.739   7.715  0.6100 -0.2237  0.9636
  500MOL0     C65875  10.686   7.718   7.581  0.8657 -0.5895  0.6293
  500MOL0     O65876  10.569   7.648   7.548 -0.5007  0.0691  0.3986
  500MOL0     C65877  10.491   7.587   7.655  0.1031 -0.6394 -0.7836
  500MOL0     C65878  10.367   7.521   7.592  0.5910  0.5424 -0.0027
  500MOL0     C65879  10.273   7.631   7.547  0.0232 -0.2555 -0.0440
  500MOL0     C65880  10.152   7.571   7.483  0.2357 -0.3598 -0.5487
  500MOL0     C65881  10.039   7.673   7.461  0.8436 -0.2643 -0.2580
  500MOL0     C65882   9.953   7.677   7.591 -0.3048 -0.8600  0.3753
  500MOL0     C65883   9.853   7.777   7.556 -0.3607  0.0605 -0.7478
  500MOL0     C65884   9.744   7.795   7.658  0.3879  0.0589 -0.6829
  500MOL0     N65885   9.619   7.719   7.633 -0.8888  0.3724 -0.2243
  500MOL0     C65886   9.554   7.655   7.736 -0.7635 -1.0551 -0.5753
  500MOL0     C65887   9.455   7.595   7.671 -0.2498  0.7288 -0.3936
  500MOL0     C65888   9.334   7.515   7.726 -0.7703  0.1470  0.3683
  500MOL0     C65889   9.224   7.614   7.749  0.1961 -0.4389 -0.5111
  500MOL0     C65890   9.108   7.551   7.831  0.3691 -0.0893  0.0877
  500MOL0     C65891   9.052   7.421   7.783 -0.7741  0.2149 -0.3386
  500MOL0     O65892   8.921   7.388   7.837  0.2721 -0.1469 -0.6457
  500MOL0     C65893   8.812   7.439   7.766 -0.7688 -0.4531 -0.1959
  500MOL0     C65894   8.820   7.538   7.667  0.1413  0.0760  1.3334
  500MOL0     C65895   8.704   7.571   7.589 -0.2346  0.0812  0.3400
  500MOL0     C65896   8.580   7.510   7.610  0.1644  0.5540  0.2722
  500MOL0     C65897   8.463   7.538   7.519 -0.3854 -0.2003  0.5078
  500MOL0     O65898   8.486   7.646   7.439 -0.2498 -0.2720  0.1226
  500MOL0     C65899   8.393   7.671   7.345  0.3474  0.0955 -0.1455
  500MOL0     C65900   8.314   7.790   7.365 -0.0699 -0.7314  0.0779
  500MOL0     C65901   8.232   7.833   7.262 -0.3765 -0.1158  0.0705
  500MOL0     C65902   8.219   7.762   7.147 -0.9290  0.4024 -0.5799
  500MOL0     O65903   8.123   7.811   7.063  0.0392  0.7198  0.0123
  500MOL0     C65904   8.080   7.723   6.951 -0.0179 -0.1947 -0.1572
  500MOL0     C65905   7.941   7.759   6.905  0.3178 -0.8771  0.6958
  500MOL0     C65906   7.852   7.794   7.025 -0.0057 -0.1233  0.0631
  500MOL0     C65907   7.706   7.799   6.985  0.1411  0.3038 -0.3620
  500MOL0     C65908   7.615   7.856   7.088 -0.4325 -0.7548 -0.2031
  500MOL0     C65909   7.467   7.817   7.092 -0.1538 -0.0977 -0.1413
  500MOL0     C65910   7.391   7.902   7.200 -1.1619  0.5329 -0.3212
  500MOL0     C65911   7.281   7.818   7.253 -0.1834 -1.2616 -0.1405
  500MOL0    Cl65912   7.150   7.803   7.135  0.0766  0.0649 -0.7987
  500MOL0     C65913   8.290   7.643   7.129 -0.0166 -0.0559 -0.1446
  500MOL0     C65914   8.374   7.600   7.228 -0.1779 -0.6480 -0.3908
  500MOL0     O65915   8.354   7.486   7.538 -0.6551  0.3038 -0.1561
  500MOL0     C65916   8.579   7.405   7.696 -0.2246  1.0646 -0.0455
  500MOL0     C65917   8.695   7.368   7.783  0.1347 -0.9469  0.3180
  500MOL0     N65918   9.460   7.622   7.535  0.2414  0.2155 -0.6648
  500MOL0     N65919   9.560   7.706   7.514 -0.1605  0.3536 -0.2482
  500MOL0     C65920  10.758   7.775   7.475  0.3904 -0.0324 -0.1326
  500MOL0     C65921  10.864   7.864   7.493  0.7420 -0.2846 -0.1520
  500MOL0     C65922  11.240   8.069   7.609 -0.0377 -0.3409  0.4739
  500MOL0     C65923  11.281   8.109   7.736 -0.1549 -0.1280 -0.6066
  500MOL0     C65924  11.389   8.191   7.762 -0.6103 -0.0590 -0.1666
  500MOL0     C65925  11.470   8.234   7.648  0.3523 -0.8625  0.4967
  500MOL0     O65926  11.570   8.325   7.655 -1.2313  0.3070  0.2712
  500MOL0     C65927  11.618   8.358   7.790  0.4880  0.4226 -0.2284
  500MOL0     C65928  11.734   8.461   7.779 -0.2829  0.2379  0.5688
  500MOL0     C65929  11.765   8.531   7.912  0.3398 -0.0463 -0.1046
  500MOL0     C65930  11.902   8.596   7.911  1.0161  0.3594  0.6618
  500MOL0     C65931  11.925   8.670   8.034 -0.2231 -0.5753 -0.4702
  500MOL0     C65932  11.923   8.725   8.145 -0.5980  0.7454  0.0096
  500MOL0     C65933  11.424   8.208   7.517 -0.7789 -0.2967 -0.6796
  500MOL0     C65934  11.316   8.121   7.499  0.3399  0.2190  0.1767
  500MOL0     H65935  10.893   7.832   7.830  2.5715  0.0418 -0.7270
  500MOL0     H65936  10.686   7.687   7.796 -1.4669 -0.9886 -0.7523
  500MOL0     H65937  10.457   7.645   7.741 -1.4659 -3.3246  0.5582
  500MOL0     H65938  10.549   7.499   7.685  1.1274  0.4178  0.4703
  500MOL0     H65939  10.318   7.466   7.672  3.0164  0.8833  1.8624
  500MOL0     H65940  10.377   7.453   7.507 -2.9285 -0.7439  0.4850
  500MOL0     H65941  10.324   7.693   7.473  0.9984 -0.7421  0.2048
  500MOL0     H65942  10.245   7.687   7.637  1.4690 -0.2473  0.4230
  500MOL0     H65943  10.184   7.531   7.386 -0.0397 -3.0682  0.3819
  500MOL0     H65944  10.113   7.480   7.529  2.0953 -1.1664 -0.4620
  500MOL0     H65945   9.980   7.649   7.372  1.6059  2.1938 -1.4951
  500MOL0     H65946  10.089   7.767   7.439  2.4204 -1.2412 -0.9702
  500MOL0     H65947  10.004   7.703   7.684  0.6222 -0.7204 -0.1625
  500MOL0     H65948   9.902   7.580   7.590  0.7882 -1.4435  0.1019
  500MOL0     H65949   9.915   7.867   7.558  0.2477 -0.3079 -1.8388
  500MOL0     H65950   9.797   7.773   7.462  0.5340 -0.6875 -1.2625
  500MOL0     H65951   9.729   7.904   7.660 -1.7493 -0.1844 -0.9178
  500MOL0     H65952   9.786   7.759   7.752  1.1608  0.7912 -0.7351
  500MOL0     H65953   9.585   7.666   7.840  1.5129  0.5087 -1.3186
  500MOL0     H65954   9.358   7.467   7.821 -0.8278 -0.3753  0.1290
  500MOL0     H65955   9.300   7.435   7.659  0.8177 -0.1795 -0.1059
  500MOL0     H65956   9.191   7.659   7.654 -1.9273 -2.0331 -0.5936
  500MOL0     H65957   9.265   7.697   7.807 -0.4917  0.5851 -1.4425
  500MOL0     H65958   9.120   7.545   7.939 -1.9802 -2.3301  0.3147
  500MOL0     H65959   9.026   7.622   7.823  0.7677  0.6019  1.7421
  500MOL0     H65960   9.121   7.340   7.812 -1.1904  0.2059  0.6669
  500MOL0     H65961   9.049   7.425   7.674 -0.4179 -0.4986 -0.3818
  500MOL0     H65962   8.917   7.583   7.645 -0.8909  2.4922  1.4470
  500MOL0     H65963   8.721   7.648   7.515  0.9466  0.3972  0.9090
  500MOL0     H65964   8.327   7.847   7.457  0.7924  1.3433 -1.2556
  500MOL0     H65965   8.189   7.933   7.265 -0.5133 -0.1726  0.0276
  500MOL0     H65966   8.074   7.624   6.998 -0.2207 -0.8343 -1.4794
  500MOL0     H65967   8.157   7.728   6.874  1.2141  2.5799  1.1167
  500MOL0     H65968   7.901   7.669   6.857 -1.5444 -0.8936  2.1981
  500MOL0     H65969   7.943   7.842   6.833  2.5395  0.2838  2.0013
  500MOL0     H65970   7.883   7.890   7.066 -1.8243  0.2009  0.8041
  500MOL0     H65971   7.865   7.720   7.105 -1.9538 -1.2147 -0.5371
  500MOL0     H65972   7.695   7.861   6.895 -2.3728 -1.6025 -1.4558
  500MOL0     H65973   7.674   7.697   6.964  2.4688 -1.1026  2.2710
  500MOL0     H65974   7.621   7.965   7.077  2.1101 -0.8926 -0.6298
  500MOL0     H65975   7.661   7.845   7.186  2.2991 -0.2465 -1.3367
  500MOL0     H65976   7.450   7.709   7.090 -3.2544  0.2875 -1.5225
  500MOL0     H65977   7.416   7.840   6.998  0.4933  0.4424 -0.3632
  500MOL0     H65978   7.453   7.918   7.289  0.1075 -2.4831 -0.5573
  500MOL0     H65979   7.358   8.000   7.164  2.2429  2.1779  0.5569
  500MOL0     H65980   7.245   7.867   7.344  2.7126 -0.3633  0.6249
  500MOL0     H65981   7.320   7.722   7.289 -0.3039 -1.6735 -1.0634
  500MOL0     H65982   8.271   7.589   7.037  0.1099  0.8970 -0.7508
  500MOL0     H65983   8.432   7.508   7.228 -1.1902 -1.3154 -1.4735
  500MOL0     H65984   8.486   7.349   7.706  0.7741 -0.3650  1.7712
  500MOL0     H65985   8.700   7.280   7.846 -3.1422 -1.5412 -0.0621
  500MOL0     H65986  10.715   7.747   7.379 -1.7655  2.0530  0.1497
  500MOL0     H65987  10.903   7.915   7.405 -2.7231  1.5659 -0.7798
  500MOL0     H65988  11.215   8.077   7.817 -1.5822  0.3668 -1.5294
  500MOL0     H65989  11.404   8.209   7.868 -1.9886 -0.3020  0.0940
  500MOL0     H65990  11.657   8.272   7.845  2.2172  0.7321 -0.8945
  500MOL0     H65991  11.535   8.398   7.849  0.9390  1.4776 -0.2868
  500MOL0     H65992  11.817   8.401   7.741  1.4076  2.9290 -0.2644
  500MOL0     H65993  11.708   8.533   7.701  2.3176 -1.0508 -1.6759
  500MOL0     H65994  11.762   8.452   7.988 -1.6640 -0.6412 -0.7309
  500MOL0     H65995  11.689   8.607   7.932 -0.5432 -0.9281 -0.0460
  500MOL0     H65996  11.967   8.509   7.899 -0.6166 -0.7438 -0.5245
  500MOL0     H65997  11.908   8.660   7.822 -3.9308  1.8183  1.0831
  500MOL0     H65998  11.923   8.774   8.240 -1.0403 -1.5355  1.2526
  500MOL0     H65999  11.481   8.241   7.431 -1.3735 -1.1717 -1.4272
  500MOL0     H66000  11.290   8.099   7.396  3.0515 -1.8965 -0.1628
  501MOL0     O66001   8.829   1.378   5.365  0.0704 -0.0066  0.4213
  501MOL0     C66002   8.904   1.314   5.437 -0.8629  0.2211 -0.6498
  501MOL0     O66003   8.884   1.289   5.578  0.0597  0.5950  0.3270
  501MOL0     C66004   8.778   1.341   5.638 -0.1884 -0.1671  0.0138
  501MOL0     C66005   8.799   1.436   5.723 -0.2939 -0.6492 -0.4057
  501MOL0     C66006   8.685   1.493   5.798 -0.9011 -0.0510  0.0237
  501MOL0     C66007   8.557   1.448   5.767  0.0171  0.0533 -0.4621
  501MOL0     O66008   8.447   1.485   5.841 -0.1180  0.5201  0.3988
  501MOL0     C66009   8.462   1.563   5.956  1.0636  0.3435 -0.3274
  501MOL0     C66010   8.322   1.554   6.032  0.1809  0.5651 -0.5088
  501MOL0     C66011   8.225   1.674   5.997 -1.6384  0.0549  0.3786
  501MOL0     C66012   8.089   1.663   6.052  0.6270 -0.6798 -0.4612
  501MOL0     C66013   7.977   1.680   5.954  0.1283 -0.7017  0.4367
  501MOL0     C66014   7.948   1.551   5.883 -0.2843  0.6959 -0.4883
  501MOL0     C66015   7.827   1.563   5.786  0.8989 -0.0496  0.4301
  501MOL0     C66016   7.773   1.425   5.740 -0.4711 -0.1911 -0.1398
  501MOL0     N66017   7.656   1.444   5.649  0.2003  0.0726  0.1590
  501MOL0     C66018   7.652   1.429   5.509  0.3435 -0.3011  0.3068
  501MOL0     C66019   7.521   1.468   5.480  0.1496 -0.6455  0.0407
  501MOL0     C66020   7.471   1.472   5.344  0.1365  0.7652  0.3623
  501MOL0     C66021   7.397   1.601   5.291 -0.3207 -0.6516  0.2729
  501MOL0     C66022   7.284   1.645   5.381  0.3424 -0.0513 -0.1605
  501MOL0     C66023   7.222   1.776   5.333 -0.1535  0.1693 -0.2293
  501MOL0     O66024   7.174   1.759   5.198 -0.1145  0.7799 -0.1619
  501MOL0     C66025   7.046   1.799   5.166 -0.7279  0.7182 -0.3157
  501MOL0     C66026   7.026   1.919   5.098  0.4585 -0.3252 -0.7088
  501MOL0     C66027   6.892   1.962   5.090 -1.0239  0.2927  0.0253
  501MOL0     C66028   6.781   1.876   5.122  0.2364 -0.3949  0.4838
  501MOL0     C66029   6.642   1.916   5.115 -0.6370  0.1402 -0.6007
  501MOL0     O66030   6.614   2.019   5.030 -0.0591 -0.0952  0.3327
  501MOL0     C66031   6.483   2.062   5.013  0.0798  0.0220  0.0469
  501MOL0     C66032   6.364   1.988   5.014  0.0102 -0.5906 -0.9122
  501MOL0     C66033   6.246   2.048   4.973 -0.5066  0.6074  0.4530
  501MOL0     C66034   6.244   2.182   4.950  0.0860 -0.3445  0.3493
  501MOL0     O66035   6.124   2.245   4.920  0.5890  0.6749 -0.1858
  501MOL0     C66036   6.076   2.193   4.798  0.1566  0.6200  1.5260
  501MOL0     C66037   5.993   2.301   4.724 -0.7203 -0.1465  0.0805
  501MOL0     C66038   5.895   2.239   4.618 -0.2677  0.2406 -0.6111
  501MOL0     C66039   5.801   2.336   4.538 -0.0287 -0.1918 -1.2600
  501MOL0     C66040   5.659   2.262   4.527  0.1978 -0.0411  0.7558
  501MOL0     C66041   5.653   2.135   4.438  0.1692 -0.3703 -0.5253
  501MOL0     C66042   5.720   2.162   4.304  0.0124 -0.0831 -0.5262
  501MOL0     C66043   5.654   2.270   4.208  0.3839 -0.1258 -1.1059
  501MOL0    Cl66044   5.779   2.268   4.080  0.1459 -0.1691 -0.2432
  501MOL0     C66045   6.356   2.261   4.942 -0.2510  0.1629  0.3767
  501MOL0     C66046   6.477   2.200   4.984 -0.1955 -0.3694 -0.3403
  501MOL0     O66047   6.560   1.863   5.191  0.1163 -0.0310  0.0788
  501MOL0     C66048   6.815   1.746   5.161 -0.7044 -0.8058 -0.3324
  501MOL0     C66049   6.947   1.712   5.191 -0.2082 -0.7065 -0.0562
  501MOL0     N66050   7.452   1.478   5.596 -0.2649  0.2981 -0.7247
  501MOL0     N66051   7.531   1.478   5.694 -0.0512  0.3980  0.3302
  501MOL0     C66052   8.538   1.346   5.669  0.6379  0.6373  0.0670
  501MOL0     C66053   8.647   1.294   5.606  0.4193 -0.6528 -0.2238
  501MOL0     C66054   9.025   1.272   5.364  0.9584 -1.0444  0.3495
  501MOL0     C66055   9.036   1.280   5.227 -0.1547 -0.5806  0.4376
  501MOL0     C66056   9.135   1.198   5.168 -0.3194 -0.2506  0.0625
  501MOL0     C66057   9.224   1.126   5.249  0.1469 -0.3641  0.6042
  501MOL0     O66058   9.338   1.063   5.201 -0.2208 -0.0930 -0.2843
  501MOL0     C66059   9.425   1.143   5.118 -0.3921  0.5181 -0.4211
  501MOL0     C66060   9.550   1.055   5.106 -0.8508 -0.1440  0.1282
  501MOL0     C66061   9.644   1.081   5.222 -0.2018 -0.7741  0.3577
  501MOL0     C66062   9.765   1.000   5.187  0.5586 -0.9032  0.4220
  501MOL0     C66063   9.742   0.857   5.212 -0.0086 -0.4188 -0.3150
  501MOL0     C66064   9.728   0.741   5.252  0.5126  0.4735  0.1690
  501MOL0     C66065   9.210   1.125   5.386 -0.0394  0.0820 -0.3887
  501MOL0     C66066   9.113   1.197   5.445  0.0840 -0.7535  0.6340
  501MOL0     H66067   8.903   1.457   5.746 -0.9086  1.0492  1.1122
  501MOL0     H66068   8.696   1.575   5.869  2.7309  0.8522 -1.3361
  501MOL0     H66069   8.492   1.659   5.914  1.1434  0.3097 -0.3474
  501MOL0     H66070   8.542   1.516   6.013  0.1130 -1.4387 -0.3916
  501MOL0     H66071   8.348   1.568   6.137  1.4433  2.7916 -1.0642
  501MOL0     H66072   8.272   1.458   6.013  2.3168  0.0067 -4.4341
  501MOL0     H66073   8.223   1.666   5.888  3.4748  1.6450 -0.0998
  501MOL0     H66074   8.264   1.772   6.026  1.9963 -0.8918 -0.7785
  501MOL0     H66075   8.088   1.575   6.117 -1.9410  0.5795  1.3768
  501MOL0     H66076   8.058   1.744   6.119 -1.0100 -1.5062 -0.1682
  501MOL0     H66077   8.004   1.758   5.882 -3.1992  1.5776  1.4003
  501MOL0     H66078   7.886   1.714   6.004 -0.9824 -1.4401 -1.0097
  501MOL0     H66079   7.930   1.479   5.964  1.2311 -0.4189 -1.0864
  501MOL0     H66080   8.041   1.513   5.839  0.6708  1.8253  0.4960
  501MOL0     H66081   7.749   1.625   5.833  0.4263 -0.8554  0.7205
  501MOL0     H66082   7.864   1.616   5.698 -1.1482 -0.7577 -0.9216
  501MOL0     H66083   7.723   1.384   5.829 -0.5311  0.5260  0.1654
  501MOL0     H66084   7.864   1.371   5.716  0.7428  1.2540  0.9635
  501MOL0     H66085   7.734   1.413   5.440 -1.3736 -2.1661 -1.4249
  501MOL0     H66086   7.382   1.408   5.349  0.6243 -0.0610 -1.0294
  501MOL0     H66087   7.545   1.428   5.276  0.9061  1.6723  0.5976
  501MOL0     H66088   7.354   1.588   5.191  1.4721  1.4902 -0.8967
  501MOL0     H66089   7.476   1.677   5.283 -0.0713 -0.6851  2.0264
  501MOL0     H66090   7.208   1.567   5.381  1.6373 -1.4029  1.6665
  501MOL0     H66091   7.324   1.672   5.479  2.8108  0.2161 -1.1561
  501MOL0     H66092   7.292   1.860   5.332 -0.3243  0.5007  3.3041
  501MOL0     H66093   7.147   1.800   5.409  0.9681  1.6208  0.4573
  501MOL0     H66094   7.106   1.979   5.057 -3.2531  4.2504 -2.1941
  501MOL0     H66095   6.871   2.063   5.057  2.3848  0.0443 -3.6748
  501MOL0     H66096   6.360   1.881   5.035 -0.3023 -0.3935  0.1056
  501MOL0     H66097   6.152   1.993   4.972 -1.0105  1.4537 -0.1328
  501MOL0     H66098   6.001   2.113   4.810 -3.5003  3.3358 -0.9081
  501MOL0     H66099   6.158   2.146   4.744 -2.0331 -0.3862 -1.1632
  501MOL0     H66100   6.063   2.372   4.678 -0.6077 -0.9624 -1.0781
  501MOL0     H66101   5.925   2.352   4.792 -2.3698 -3.5688  1.2308
  501MOL0     H66102   5.829   2.166   4.667  0.3279  1.0704  1.5280
  501MOL0     H66103   5.959   2.186   4.546  1.9549  1.4342  0.3917
  501MOL0     H66104   5.788   2.428   4.596  0.6980 -2.5048  2.9757
  501MOL0     H66105   5.847   2.363   4.442 -2.9161  2.1329 -2.1336
  501MOL0     H66106   5.587   2.333   4.484 -1.9166 -2.8862 -0.7348
  501MOL0     H66107   5.615   2.240   4.625 -1.8346 -3.0851 -0.6961
  501MOL0     H66108   5.545   2.117   4.429 -0.2724  0.8583  1.5981
  501MOL0     H66109   5.682   2.045   4.493 -3.3884 -1.2207  0.2282
  501MOL0     H66110   5.827   2.179   4.319  0.0108 -0.8922  0.5677
  501MOL0     H66111   5.722   2.069   4.247 -0.2573 -0.7021  0.4359
  501MOL0     H66112   5.651   2.370   4.253  1.7640  0.5231 -2.3673
  501MOL0     H66113   5.554   2.237   4.176  0.2813 -0.2062 -0.7042
  501MOL0     H66114   6.343   2.368   4.926 -1.6746 -0.2781 -1.9658
  501MOL0     H66115   6.575   2.246   4.975 -1.1396  2.0623  0.8412
  501MOL0     H66116   6.731   1.677   5.164 -0.8454 -0.6812 -1.1462
  501MOL0     H66117   6.956   1.614   5.236 -2.8345 -0.3179  1.5327
  501MOL0     H66118   8.440   1.304   5.649  0.4434  1.2540 -0.3173
  501MOL0     H66119   8.633   1.218   5.529 -0.5618 -0.1485 -0.5540
  501MOL0     H66120   8.957   1.322   5.165 -0.6209 -1.7474  0.2083
  501MOL0     H66121   9.138   1.193   5.060 -3.0886 -0.0164 -0.1041
  501MOL0     H66122   9.461   1.241   5.151  0.0625 -1.1402  4.9607
  501MOL0     H66123   9.377   1.148   5.020  1.7478  0.1548 -1.5538
  501MOL0     H66124   9.523   0.950   5.114 -0.3276 -0.1559  2.5582
  501MOL0     H66125   9.598   1.082   5.011 -4.8570  1.0070 -1.7725
  501MOL0     H66126   9.608   1.045   5.319  3.3858 -2.2220  1.3097
  501MOL0     H66127   9.663   1.189   5.230 -1.9862 -0.3514 -0.5085
  501MOL0     H66128   9.791   1.015   5.081 -0.1365  1.7120  0.5402
  501MOL0     H66129   9.846   1.042   5.246 -0.4740  0.9329  0.5954
  501MOL0     H66130   9.722   0.640   5.288 -3.0172  1.1374  1.9193
  501MOL0     H66131   9.291   1.076   5.438  0.1273  1.3419  0.5825
  501MOL0     H66132   9.092   1.193   5.551 -3.5451  0.3752  0.1207
  502MOL0     O66133   7.850   5.225   1.507  0.1238  0.2015 -0.3089
  502MOL0     C66134   7.907   5.248   1.609 -0.4890 -0.1111  0.3195
  502MOL0     O66135   7.853   5.268   1.736  0.7286  0.0754  0.7411
  502MOL0     C66136   7.716   5.263   1.749  0.0223  0.2917 -0.3133
  502MOL0     C66137   7.659   5.360   1.833  1.1159  0.6178  0.2835
  502MOL0     C66138   7.516   5.362   1.855 -0.1243 -0.1600  1.4295
  502MOL0     C66139   7.433   5.265   1.786 -0.4143  0.6187 -0.4956
  502MOL0     O66140   7.293   5.266   1.782 -0.0257  0.4788  0.0934
  502MOL0     C66141   7.226   5.365   1.855 -0.5926 -0.0757 -0.7264
  502MOL0     C66142   7.220   5.494   1.774  0.6103  0.8856 -0.3242
  502MOL0     C66143   7.139   5.468   1.641  0.4709  0.1738  0.1226
  502MOL0     C66144   6.990   5.514   1.647 -0.5470  0.2807  0.0305
  502MOL0     C66145   6.921   5.488   1.508 -1.5028  0.2419  0.0096
  502MOL0     C66146   6.773   5.479   1.524  0.3311 -0.1803 -0.1262
  502MOL0     C66147   6.702   5.478   1.390 -0.2114  0.2818  0.7295
  502MOL0     C66148   6.714   5.617   1.312 -0.3546  0.2380 -0.4564
  502MOL0     N66149   6.684   5.736   1.394  0.7415  0.3960  0.5560
  502MOL0     C66150   6.781   5.823   1.433  1.1342 -0.5250 -1.0427
  502MOL0     C66151   6.722   5.913   1.514 -0.4502  0.2738  0.2845
  502MOL0     C66152   6.788   6.029   1.592  0.6909  0.5222  0.4135
  502MOL0     C66153   6.846   5.981   1.721 -0.2829 -0.5466  0.6505
  502MOL0     C66154   6.892   6.080   1.823  0.6609 -0.7008  0.3627
  502MOL0     C66155   6.789   6.190   1.850 -0.4911 -0.0401 -0.5373
  502MOL0     O66156   6.793   6.284   1.743 -0.1388 -0.1948 -0.2025
  502MOL0     C66157   6.680   6.365   1.733  0.0250  0.4640 -0.7840
  502MOL0     C66158   6.626   6.387   1.611  0.9392  0.9977 -0.2722
  502MOL0     C66159   6.507   6.463   1.590 -0.1998  0.2569  0.1344
  502MOL0     C66160   6.434   6.510   1.701  0.5539  0.5246  0.2762
  502MOL0     C66161   6.310   6.592   1.684 -0.7089 -0.2771 -0.6482
  502MOL0     O66162   6.226   6.604   1.785  0.5734 -0.5358  0.2636
  502MOL0     C66163   6.098   6.655   1.771 -1.0843  0.0235 -0.7833
  502MOL0     C66164   5.991   6.575   1.820  0.3515 -0.1064  1.2355
  502MOL0     C66165   5.862   6.618   1.842 -0.5799  0.0889  0.3434
  502MOL0     C66166   5.827   6.747   1.794  0.1804 -0.1279  0.9006
  502MOL0     O66167   5.704   6.811   1.790 -0.1833 -0.3764  0.1750
  502MOL0     C66168   5.595   6.746   1.863 -0.2278 -0.2708  0.0288
  502MOL0     C66169   5.467   6.821   1.850 -0.0045 -0.7250  0.2423
  502MOL0     C66170   5.343   6.766   1.913  0.9845  0.4081 -0.3482
  502MOL0     C66171   5.342   6.763   2.069  0.3802 -0.0243  0.8532
  502MOL0     C66172   5.212   6.812   2.125 -0.2567  0.1024  0.1862
  502MOL0     C66173   5.093   6.743   2.067  0.5834  0.8446 -0.6302
  502MOL0     C66174   4.978   6.713   2.169 -0.0952 -1.0950 -0.2158
  502MOL0     C66175   5.018   6.612   2.274  0.1593  0.7475 -0.2324
  502MOL0    Cl66176   5.056   6.454   2.197 -0.2790 -0.2783  0.3602
  502MOL0     C66177   5.929   6.817   1.714 -0.5128 -0.0393 -0.6848
  502MOL0     C66178   6.068   6.772   1.709 -0.7396 -0.3567 -0.5064
  502MOL0     O66179   6.292   6.633   1.570 -0.1253 -0.9611  0.2746
  502MOL0     C66180   6.492   6.485   1.828 -0.4578 -0.5621 -0.4986
  502MOL0     C66181   6.616   6.416   1.839  1.0864  0.0522 -0.7531
  502MOL0     N66182   6.584   5.882   1.520 -0.2280  0.3736 -0.3333
  502MOL0     N66183   6.562   5.777   1.443 -0.1100 -0.5508 -0.0451
  502MOL0     C66184   7.495   5.169   1.706 -0.8318  0.1633  0.7828
  502MOL0     C66185   7.634   5.163   1.690  0.5365  0.0487 -0.1739
  502MOL0     C66186   8.057   5.241   1.606  0.3833 -0.3962  0.3442
  502MOL0     C66187   8.129   5.193   1.719  0.8464 -0.2036  1.0895
  502MOL0     C66188   8.271   5.187   1.717  0.0013  0.6005 -0.3504
  502MOL0     C66189   8.340   5.219   1.598 -0.2547 -0.5056  0.0824
  502MOL0     O66190   8.473   5.206   1.592 -0.0785  0.1435  0.4063
  502MOL0     C66191   8.544   5.330   1.602 -0.2498  0.0261 -0.1290
  502MOL0     C66192   8.659   5.323   1.697 -0.2773  0.0109 -0.2681
  502MOL0     C66193   8.721   5.461   1.735  0.7779  0.1728  0.3648
  502MOL0     C66194   8.843   5.469   1.838 -0.1908  0.5438 -0.9405
  502MOL0     C66195   8.956   5.407   1.774  0.1840  0.2818  0.2565
  502MOL0     C66196   9.073   5.383   1.738 -0.8760 -0.0866 -0.3358
  502MOL0     C66197   8.275   5.260   1.486 -0.7516 -0.3083 -1.2885
  502MOL0     C66198   8.137   5.272   1.492 -0.8646  0.4739 -0.0030
  502MOL0     H66199   7.713   5.441   1.881  2.3334  0.4318 -0.7255
  502MOL0     H66200   7.472   5.438   1.918 -2.2489 -0.6263  0.5911
  502MOL0     H66201   7.272   5.379   1.954 -1.3417  0.0277 -0.3843
  502MOL0     H66202   7.128   5.329   1.888 -1.0537  2.3035  0.6954
  502MOL0     H66203   7.315   5.543   1.752  1.1698  1.0136  2.0899
  502MOL0     H66204   7.168   5.574   1.829 -1.2790 -2.4377  3.2394
  502MOL0     H66205   7.149   5.365   1.605 -1.0249  1.0857 -3.3307
  502MOL0     H66206   7.179   5.530   1.560 -1.1334  0.8286 -0.2024
  502MOL0     H66207   6.929   5.456   1.716 -1.8097 -0.0275 -1.3075
  502MOL0     H66208   6.989   5.622   1.667 -0.0148  0.5090 -1.0685
  502MOL0     H66209   6.971   5.409   1.451 -1.7953  0.4657 -0.5595
  502MOL0     H66210   6.960   5.578   1.458  0.8375 -1.3381 -1.2161
  502MOL0     H66211   6.744   5.572   1.575 -0.5581 -1.0858  1.0678
  502MOL0     H66212   6.737   5.398   1.588  0.7783  1.2991  2.1004
  502MOL0     H66213   6.733   5.393   1.328 -3.4608 -0.5071 -0.0482
  502MOL0     H66214   6.594   5.472   1.406 -0.1105 -2.2139  0.8814
  502MOL0     H66215   6.643   5.605   1.230  0.7454  0.1455 -1.4314
  502MOL0     H66216   6.812   5.620   1.264 -0.1190 -1.5995 -0.1777
  502MOL0     H66217   6.887   5.819   1.410  1.1359  3.0423 -2.1957
  502MOL0     H66218   6.712   6.107   1.608  0.9147  0.7664  0.2979
  502MOL0     H66219   6.863   6.070   1.525  0.8465 -0.4141  0.0046
  502MOL0     H66220   6.924   5.908   1.694 -1.5566 -2.0500  0.8685
  502MOL0     H66221   6.769   5.914   1.761 -0.7847  0.2243  0.9940
  502MOL0     H66222   6.908   6.034   1.921 -1.1730  0.0190  1.0368
  502MOL0     H66223   6.981   6.138   1.794 -0.0079  0.4545  0.5419
  502MOL0     H66224   6.824   6.239   1.941 -2.0001 -3.3722  2.0334
  502MOL0     H66225   6.692   6.140   1.856 -1.0615  0.9988 -0.8766
  502MOL0     H66226   6.676   6.354   1.520 -2.6241  3.1935 -3.3189
  502MOL0     H66227   6.469   6.477   1.489 -2.6280  2.8219  1.2555
  502MOL0     H66228   6.016   6.474   1.852 -4.7096 -2.3295 -0.7404
  502MOL0     H66229   5.782   6.556   1.882 -2.2684  2.2377  0.4595
  502MOL0     H66230   5.618   6.752   1.970 -1.8098  2.2350  0.3153
  502MOL0     H66231   5.590   6.642   1.828  2.2206  0.1848 -1.9422
  502MOL0     H66232   5.446   6.840   1.745 -1.5235 -0.9747  0.4715
  502MOL0     H66233   5.479   6.915   1.905  2.9024  0.2834 -1.9341
  502MOL0     H66234   5.321   6.672   1.863 -1.2587 -0.5607  2.2300
  502MOL0     H66235   5.262   6.833   1.884  0.2395 -1.1609 -2.0419
  502MOL0     H66236   5.362   6.661   2.102  0.8093  0.3205  1.6888
  502MOL0     H66237   5.420   6.821   2.120 -0.5325  0.5381  1.6615
  502MOL0     H66238   5.201   6.920   2.122 -0.2055  0.0887 -1.4494
  502MOL0     H66239   5.214   6.791   2.232  0.2051  0.6985  0.2948
  502MOL0     H66240   5.113   6.647   2.019  2.0487  2.4607 -3.5136
  502MOL0     H66241   5.058   6.800   1.981  1.6681  0.0809 -1.6057
  502MOL0     H66242   4.937   6.802   2.218  1.5644 -1.8747  2.8740
  502MOL0     H66243   4.901   6.673   2.103  2.3573 -0.4695 -3.7642
  502MOL0     H66244   4.938   6.603   2.348 -0.3215 -0.2698 -0.8569
  502MOL0     H66245   5.109   6.648   2.324  2.8553 -0.6452 -3.6581
  502MOL0     H66246   5.893   6.901   1.655  0.4961  1.2085  0.4265
  502MOL0     H66247   6.148   6.830   1.664 -1.7355  0.3441 -1.4375
  502MOL0     H66248   6.444   6.530   1.915  3.5766  3.9310 -0.1295
  502MOL0     H66249   6.649   6.401   1.942  1.2358 -2.6430 -1.1150
  502MOL0     H66250   7.430   5.099   1.656  0.7634 -0.1314 -0.9964
  502MOL0     H66251   7.669   5.074   1.638 -0.9534 -1.7630  1.7606
  502MOL0     H66252   8.066   5.168   1.803 -2.0034  0.3686 -0.7509
  502MOL0     H66253   8.320   5.168   1.812  0.8956  2.2744 -0.4380
  502MOL0     H66254   8.492   5.426   1.609  2.0017  1.2753  0.4647
  502MOL0     H66255   8.591   5.338   1.504  0.1452 -0.1808  0.0443
  502MOL0     H66256   8.634   5.266   1.788 -0.2298  0.9257  0.3288
  502MOL0     H66257   8.739   5.263   1.653  0.5638 -1.2721  2.7060
  502MOL0     H66258   8.649   5.523   1.789  3.8211  3.9672  0.5147
  502MOL0     H66259   8.736   5.517   1.643  1.6626 -0.8598 -0.1367
  502MOL0     H66260   8.861   5.570   1.875  1.5778  0.8430 -2.4638
  502MOL0     H66261   8.815   5.409   1.925 -0.8678 -0.0527 -1.5494
  502MOL0     H66262   9.171   5.358   1.705  0.1070  2.3646  0.5102
  502MOL0     H66263   8.335   5.291   1.401 -0.0831 -1.1449 -1.1307
  502MOL0     H66264   8.102   5.306   1.394  1.9598  3.6668 -0.0843
  503MOL0     O66265   3.452   8.159   2.170  0.4350  0.9835 -0.1770
  503MOL0     C66266   3.439   8.051   2.226  0.3004  0.8108 -1.0958
  503MOL0     O66267   3.328   7.991   2.262 -0.1573  0.4442 -0.9768
  503MOL0     C66268   3.205   8.028   2.228  0.2199 -0.1729  0.3233
  503MOL0     C66269   3.095   7.928   2.228 -0.0294 -0.5535  0.2754
  503MOL0     C66270   2.966   7.964   2.184  0.3731  0.3981  0.2018
  503MOL0     C66271   2.938   8.090   2.132 -0.6086 -0.0838  0.0400
  503MOL0     O66272   2.812   8.104   2.088  0.3004  0.5763 -0.9650
  503MOL0     C66273   2.770   8.230   2.041 -0.6308 -1.1454 -0.4465
  503MOL0     C66274   2.616   8.227   2.007 -0.3866  0.2071  0.1742
  503MOL0     C66275   2.581   8.367   1.952 -0.5559  0.3628 -0.0276
  503MOL0     C66276   2.438   8.371   1.890 -0.1762 -0.5620 -1.0154
  503MOL0     C66277   2.332   8.365   2.004 -0.7083 -0.1150  0.3523
  503MOL0     C66278   2.191   8.367   1.943 -0.2849  0.3256  0.5912
  503MOL0     C66279   2.153   8.508   1.905 -0.2254 -0.8736  0.4245
  503MOL0     C66280   2.006   8.511   1.860 -0.1587 -0.2205 -1.2016
  503MOL0     N66281   1.921   8.523   1.985  0.0993  0.4154  0.7200
  503MOL0     C66282   1.832   8.433   2.035  0.2329 -0.1696 -0.5126
  503MOL0     C66283   1.775   8.499   2.140  0.4011 -0.3592  0.3640
  503MOL0     C66284   1.659   8.451   2.220 -0.7918  0.2710  0.4160
  503MOL0     C66285   1.566   8.566   2.256 -0.0938  0.5416  0.2744
  503MOL0     C66286   1.444   8.505   2.324 -0.1195 -0.0385 -0.0924
  503MOL0     C66287   1.325   8.594   2.313  0.9258 -0.0117 -0.0037
  503MOL0     O66288   1.222   8.561   2.405 -0.3784 -0.9221  0.2832
  503MOL0     C66289   1.117   8.644   2.433 -0.5694  0.8037  0.5548
  503MOL0     C66290   1.016   8.583   2.516 -0.7394 -0.4160  0.2961
  503MOL0     C66291   0.890   8.644   2.533 -0.2524  0.8803  0.5710
  503MOL0     C66292   0.860   8.769   2.464  0.8260 -0.0821 -0.6395
  503MOL0     C66293   0.724   8.828   2.466 -0.1494  0.3375 -0.0980
  503MOL0     O66294   0.624   8.755   2.532  0.4598 -0.2130  0.3925
  503MOL0     C66295   0.504   8.810   2.546  0.3769  0.0453  0.4591
  503MOL0     C66296   0.398   8.747   2.482  0.6259  0.0046 -0.0395
  503MOL0     C66297   0.265   8.797   2.510  0.6951 -0.4489  0.3951
  503MOL0     C66298   0.238   8.908   2.591  0.3903 -0.0501 -0.1546
  503MOL0     O66299   0.110   8.948   2.595 -0.4533 -0.4068 -0.0796
  503MOL0     C66300   0.077   9.059   2.684 -1.1348  0.3702  0.4727
  503MOL0     C66301  -0.078   9.078   2.707  0.4040 -0.2941  0.2144
  503MOL0     C66302  -0.152   9.089   2.584  0.1760  0.1566  0.5940
  503MOL0     C66303  -0.305   9.111   2.604  0.2288  0.4027 -0.0618
  503MOL0     C66304  -0.380   9.119   2.464  0.3395 -0.0288 -1.1343
  503MOL0     C66305  -0.410   8.986   2.415 -0.2370  0.6566  0.5198
  503MOL0     C66306  -0.510   8.980   2.296 -0.3100  0.5937  1.1555
  503MOL0     C66307  -0.469   9.037   2.158 -0.3535  0.0478 -0.0417
  503MOL0    Cl66308  -0.317   8.961   2.086  0.6891 -0.1270  0.2744
  503MOL0     C66309   0.350   8.972   2.657  0.0388  0.1385  0.6330
  503MOL0     C66310   0.479   8.920   2.629  0.7896 -0.5275 -0.6701
  503MOL0     O66311   0.713   8.942   2.419  0.1849  0.2762  0.5390
  503MOL0     C66312   0.962   8.816   2.375 -0.1575 -0.0406 -0.0369
  503MOL0     C66313   1.084   8.759   2.367 -0.3489 -0.0527  0.1696
  503MOL0     N66314   1.834   8.626   2.146 -0.4354 -0.1825  0.8540
  503MOL0     N66315   1.918   8.640   2.053  0.1708  0.9093 -0.7815
  503MOL0     C66316   3.036   8.185   2.128 -1.4941  0.5765  0.2814
  503MOL0     C66317   3.164   8.155   2.181 -0.1028  0.4592 -0.2014
  503MOL0     C66318   3.576   7.992   2.257  0.8639  0.1993 -0.6275
  503MOL0     C66319   3.583   7.863   2.314  0.7899  0.0359  0.7781
  503MOL0     C66320   3.707   7.810   2.356  1.1930 -0.3934  0.6643
  503MOL0     C66321   3.831   7.875   2.329  0.6695  0.3010  0.1314
  503MOL0     O66322   3.952   7.842   2.396  0.0429 -0.4013  0.6951
  503MOL0     C66323   3.944   7.751   2.500  0.6893 -0.3529 -0.0232
  503MOL0     C66324   4.073   7.711   2.554 -0.5512  0.3795 -0.1261
  503MOL0     C66325   4.154   7.611   2.461  0.5749  0.7447 -0.3286
  503MOL0     C66326   4.282   7.566   2.517  0.4172 -0.0671  0.2262
  503MOL0     C66327   4.381   7.683   2.510  0.1929  0.6782 -0.5382
  503MOL0     C66328   4.454   7.783   2.493 -1.1489 -0.2513  0.2484
  503MOL0     C66329   3.819   7.990   2.249 -0.4781 -0.7267 -0.4238
  503MOL0     C66330   3.699   8.056   2.214 -0.0488 -0.6549 -1.0254
  503MOL0     H66331   3.105   7.824   2.255 -1.5180 -1.0489 -0.9539
  503MOL0     H66332   2.881   7.897   2.193  1.1328 -0.4416  1.4713
  503MOL0     H66333   2.822   8.248   1.947  1.4020 -1.8113  0.4952
  503MOL0     H66334   2.795   8.306   2.115  0.1230 -1.3518 -0.4778
  503MOL0     H66335   2.553   8.195   2.091  1.8103  2.0130  2.6841
  503MOL0     H66336   2.590   8.163   1.923 -0.2278  0.8326 -0.3583
  503MOL0     H66337   2.650   8.409   1.878 -0.0220 -1.0397 -0.3596
  503MOL0     H66338   2.593   8.439   2.032  2.2803  0.9632 -0.8659
  503MOL0     H66339   2.426   8.472   1.850  1.1501  1.2482  2.6926
  503MOL0     H66340   2.418   8.285   1.825 -0.7113 -0.5514 -0.8743
  503MOL0     H66341   2.347   8.457   2.061 -0.6056  2.0778 -2.9898
  503MOL0     H66342   2.348   8.282   2.074 -0.1853  0.0239  0.3987
  503MOL0     H66343   2.119   8.330   2.017  1.2558  1.7292  2.9220
  503MOL0     H66344   2.183   8.298   1.859  1.8507 -1.5255  1.8135
  503MOL0     H66345   2.157   8.579   1.988 -0.8931 -1.2496  0.7932
  503MOL0     H66346   2.206   8.541   1.815 -1.5185 -0.9443 -0.3946
  503MOL0     H66347   1.976   8.423   1.803 -0.6952 -1.8579  1.3922
  503MOL0     H66348   1.989   8.605   1.806 -1.1928 -0.3251 -1.0838
  503MOL0     H66349   1.800   8.334   2.005 -1.9306 -1.4466  4.8371
  503MOL0     H66350   1.711   8.410   2.307  1.3224  2.6139  0.3728
  503MOL0     H66351   1.602   8.380   2.159 -0.1922 -2.1036  2.4319
  503MOL0     H66352   1.538   8.626   2.170  0.5697  0.2088 -0.1824
  503MOL0     H66353   1.612   8.632   2.330  0.7934 -1.3067  1.4527
  503MOL0     H66354   1.422   8.410   2.275  1.5948  0.6537 -2.3480
  503MOL0     H66355   1.459   8.489   2.432 -0.0850 -2.0540 -0.3432
  503MOL0     H66356   1.282   8.589   2.213  1.3230  1.6684 -0.3020
  503MOL0     H66357   1.362   8.698   2.318  2.1781 -0.4135 -0.5164
  503MOL0     H66358   1.051   8.491   2.563  1.8675 -0.0086 -0.6747
  503MOL0     H66359   0.832   8.593   2.610  1.0425 -0.3091  0.7898
  503MOL0     H66360   0.420   8.660   2.422  0.3243 -1.0496  1.3419
  503MOL0     H66361   0.187   8.734   2.468 -0.4608  2.0699 -1.5021
  503MOL0     H66362   0.121   9.145   2.632  0.7518 -2.9377 -4.0693
  503MOL0     H66363   0.128   9.040   2.779  0.8895 -2.9881 -1.1357
  503MOL0     H66364  -0.086   9.171   2.763  0.2863 -0.3003  0.2087
  503MOL0     H66365  -0.124   8.996   2.762  0.7533 -1.2948 -0.9218
  503MOL0     H66366  -0.143   8.995   2.529 -1.9071 -1.0948  2.2380
  503MOL0     H66367  -0.101   9.167   2.526 -0.2682  1.2591  1.6412
  503MOL0     H66368  -0.343   9.027   2.662 -0.7327  2.0054  1.7248
  503MOL0     H66369  -0.333   9.200   2.660  0.5289 -0.3971  1.4070
  503MOL0     H66370  -0.325   9.176   2.389  2.9474  1.2058  1.5338
  503MOL0     H66371  -0.476   9.171   2.474 -0.9099 -2.2145 -1.1008
  503MOL0     H66372  -0.437   8.918   2.497  1.2027 -1.6784 -0.8034
  503MOL0     H66373  -0.318   8.937   2.381 -2.2198 -1.5379 -2.1103
  503MOL0     H66374  -0.539   8.876   2.279 -2.1998  1.2315  0.2516
  503MOL0     H66375  -0.601   9.034   2.321  0.1626  1.3780  1.2337
  503MOL0     H66376  -0.465   9.146   2.162 -1.9057  0.1090  0.7528
  503MOL0     H66377  -0.547   9.017   2.084 -1.3059 -0.2800  1.0169
  503MOL0     H66378   0.339   9.066   2.709 -1.0485  0.3570  0.0573
  503MOL0     H66379   0.563   8.974   2.672  0.6098  0.1908 -1.1930
  503MOL0     H66380   0.954   8.910   2.321  0.7466 -0.0623 -0.2145
  503MOL0     H66381   1.147   8.809   2.294 -2.0337  2.4083  0.2667
  503MOL0     H66382   3.018   8.283   2.085 -0.1477 -0.8422 -4.1106
  503MOL0     H66383   3.238   8.234   2.178 -0.0910  0.4324 -0.8278
  503MOL0     H66384   3.491   7.813   2.344 -1.6035  3.0960 -0.8465
  503MOL0     H66385   3.694   7.721   2.418  1.4321 -0.4106  0.6896
  503MOL0     H66386   3.876   7.671   2.472  1.9369 -1.7570  0.7980
  503MOL0     H66387   3.887   7.791   2.584  0.7383 -0.2953 -0.0174
  503MOL0     H66388   4.140   7.796   2.571  1.4365 -1.0689 -0.3797
  503MOL0     H66389   4.042   7.669   2.650 -5.3886  1.8075 -0.8039
  503MOL0     H66390   4.167   7.656   2.362 -1.5018  3.6357  0.5519
  503MOL0     H66391   4.091   7.524   2.443  2.0053  0.0858 -2.5236
  503MOL0     H66392   4.271   7.532   2.621 -0.2970 -1.1658 -0.2020
  503MOL0     H66393   4.323   7.480   2.464 -1.3870 -0.7235 -0.1448
  503MOL0     H66394   4.516   7.866   2.470 -1.4675  0.8422  2.9579
  503MOL0     H66395   3.903   8.041   2.204 -1.2480  1.0197  0.0467
  503MOL0     H66396   3.701   8.147   2.154 -1.6720  1.1432  1.4400
  504MOL0     O66397   5.477   7.626   1.073 -0.3323 -1.2985 -0.1491
  504MOL0     C66398   5.543   7.557   0.992 -0.2851 -0.1124  0.0644
  504MOL0     O66399   5.493   7.461   0.905  0.4686  0.2156  0.0928
  504MOL0     C66400   5.362   7.431   0.900  0.3889  0.2075  0.0157
  504MOL0     C66401   5.275   7.422   1.012 -1.3825  0.0328  0.1992
  504MOL0     C66402   5.148   7.364   1.000 -0.0909 -0.3015 -0.8948
  504MOL0     C66403   5.092   7.334   0.872  0.5119  0.1629 -0.3350
  504MOL0     O66404   4.957   7.292   0.851 -0.1018 -0.3220 -0.1551
  504MOL0     C66405   4.877   7.252   0.963 -0.0595  0.0227  0.6680
  504MOL0     C66406   4.747   7.190   0.915 -0.1127 -0.6458  0.6886
  504MOL0     C66407   4.653   7.291   0.858  0.1319 -0.2098 -0.3631
  504MOL0     C66408   4.507   7.242   0.840 -0.5489 -0.5686 -0.8374
  504MOL0     C66409   4.484   7.128   0.748  0.5685  0.1648 -0.5309
  504MOL0     C66410   4.332   7.112   0.717 -0.6513 -0.6618  0.2699
  504MOL0     C66411   4.275   6.974   0.667 -0.1656 -0.0333 -0.3630
  504MOL0     C66412   4.339   6.920   0.538 -0.4724  0.5944 -0.5702
  504MOL0     N66413   4.339   7.008   0.422  0.1308  0.3750  0.8310
  504MOL0     C66414   4.243   7.029   0.329 -0.2119 -0.5442 -0.1600
  504MOL0     C66415   4.288   7.134   0.249  0.5379  0.6509 -1.2166
  504MOL0     C66416   4.216   7.197   0.133 -0.4581 -0.1415 -0.4052
  504MOL0     C66417   4.075   7.235   0.163  0.1220 -0.5882 -0.3815
  504MOL0     C66418   4.020   7.334   0.050 -0.7872  0.0873  0.2642
  504MOL0     C66419   3.868   7.339   0.057 -0.6449 -0.5811  0.0075
  504MOL0     O66420   3.810   7.448  -0.012 -0.2115  0.0091  0.2503
  504MOL0     C66421   3.689   7.511   0.030 -0.1215  0.4729  0.1962
  504MOL0     C66422   3.607   7.484   0.140 -0.5164  0.2808 -0.0218
  504MOL0     C66423   3.483   7.540   0.166  0.3687 -0.3454 -0.5973
  504MOL0     C66424   3.433   7.636   0.068  0.1687  0.7940  0.3411
  504MOL0     C66425   3.313   7.714   0.104  0.0956 -0.2604 -0.1736
  504MOL0     O66426   3.216   7.660   0.185  0.3660 -0.1451 -0.0138
  504MOL0     C66427   3.133   7.756   0.251  0.5718  0.6419  0.5235
  504MOL0     C66428   2.998   7.754   0.244 -0.2341 -0.3217 -2.2856
  504MOL0     C66429   2.928   7.854   0.311  0.0367  0.1156 -0.2886
  504MOL0     C66430   2.990   7.943   0.397  0.8435  0.2629 -0.1686
  504MOL0     O66431   2.904   8.013   0.480 -0.7736 -0.2994  0.2020
  504MOL0     C66432   2.963   8.127   0.552  0.3167  0.8777 -0.7293
  504MOL0     C66433   2.864   8.184   0.653  0.2557  0.4966 -0.2403
  504MOL0     C66434   2.854   8.098   0.779  0.3271 -1.1388  0.0247
  504MOL0     C66435   2.728   8.117   0.864 -0.4192 -0.8310 -0.1175
  504MOL0     C66436   2.731   8.218   0.975  0.8147  0.0631  0.6890
  504MOL0     C66437   2.791   8.358   0.935  0.5908 -0.6489 -0.3527
  504MOL0     C66438   2.721   8.470   1.016 -0.5128 -1.4584  0.0800
  504MOL0     C66439   2.768   8.465   1.163  0.2413 -0.4880  0.1380
  504MOL0    Cl66440   2.935   8.527   1.178 -0.5468  0.4607 -0.1939
  504MOL0     C66441   3.128   7.941   0.410  0.4455  0.8474  0.3740
  504MOL0     C66442   3.196   7.855   0.325 -0.4499  0.8092 -0.3483
  504MOL0     O66443   3.304   7.825   0.046 -0.1932  0.1812  0.4709
  504MOL0     C66444   3.514   7.655  -0.044 -0.3075 -0.3592 -0.1840
  504MOL0     C66445   3.641   7.598  -0.067  0.0818  0.3472 -0.5934
  504MOL0     N66446   4.407   7.174   0.304 -0.0929 -0.7639  0.5967
  504MOL0     N66447   4.437   7.098   0.396 -0.5077 -0.0057  0.0367
  504MOL0     C66448   5.170   7.365   0.762  0.2795 -0.8002  0.9815
  504MOL0     C66449   5.306   7.401   0.771  0.0471  0.4132  0.2984
  504MOL0     C66450   5.688   7.586   0.977 -0.1208  0.0703  0.5160
  504MOL0     C66451   5.775   7.484   0.941  0.3672 -0.4357  0.1022
  504MOL0     C66452   5.916   7.508   0.914 -0.6745  0.0987  0.4422
  504MOL0     C66453   5.960   7.643   0.922  0.0243  0.4002  0.1036
  504MOL0     O66454   6.092   7.686   0.901 -0.1812  0.1560  0.2530
  504MOL0     C66455   6.202   7.586   0.900  0.3304 -0.4094  0.2338
  504MOL0     C66456   6.316   7.629   0.994  0.2814 -0.8721 -0.4030
  504MOL0     C66457   6.256   7.616   1.135  0.0913  0.1518  0.2924
  504MOL0     C66458   6.331   7.677   1.246  1.0992 -0.2024  0.3108
  504MOL0     C66459   6.465   7.619   1.262  0.5445 -0.4708 -0.3230
  504MOL0     C66460   6.575   7.567   1.283  0.1425 -0.1857  0.1703
  504MOL0     C66461   5.875   7.739   0.971 -0.3754  0.0135 -0.2147
  504MOL0     C66462   5.742   7.711   1.000 -0.4895  0.0251 -0.4598
  504MOL0     H66463   5.293   7.465   1.110  0.8923 -1.4766  0.5215
  504MOL0     H66464   5.079   7.384   1.081 -0.3718 -2.3909 -0.5693
  504MOL0     H66465   4.859   7.344   1.019 -0.7041  1.3812 -1.6643
  504MOL0     H66466   4.931   7.176   1.021  0.0095 -1.1524 -0.8751
  504MOL0     H66467   4.708   7.139   1.004 -0.2297 -0.1561  0.9218
  504MOL0     H66468   4.764   7.111   0.841  0.8675 -0.4414  0.6759
  504MOL0     H66469   4.691   7.320   0.759 -0.4767  1.3338 -0.1707
  504MOL0     H66470   4.656   7.381   0.919  1.7145 -1.2543  1.2349
  504MOL0     H66471   4.483   7.211   0.942  1.9023 -2.0720 -0.6351
  504MOL0     H66472   4.458   7.333   0.804  2.7306  1.0718 -1.5329
  504MOL0     H66473   4.517   7.035   0.794  1.4374 -0.2026 -1.8488
  504MOL0     H66474   4.542   7.146   0.657  0.8534  1.2857 -0.1439
  504MOL0     H66475   4.317   7.182   0.634  0.4298 -1.5786 -0.7464
  504MOL0     H66476   4.280   7.138   0.809  0.6135  0.6049  0.6553
  504MOL0     H66477   4.274   6.911   0.756 -1.2577  1.4271  0.6975
  504MOL0     H66478   4.173   6.992   0.634  0.0901  0.1955 -1.0453
  504MOL0     H66479   4.266   6.842   0.515 -1.1205  0.9634  0.1751
  504MOL0     H66480   4.440   6.880   0.555 -0.7688 -0.4083 -1.0568
  504MOL0     H66481   4.147   6.979   0.322  0.5161 -2.3107  1.4760
  504MOL0     H66482   4.225   7.117   0.058 -0.4441 -0.1352 -0.4099
  504MOL0     H66483   4.266   7.285   0.092  2.6757 -2.2555 -1.5140
  504MOL0     H66484   4.075   7.290   0.258  3.4793  1.9850 -1.6567
  504MOL0     H66485   4.028   7.136   0.164 -1.1872 -0.0126 -1.6240
  504MOL0     H66486   4.053   7.437   0.064 -3.0364  0.8129  0.7734
  504MOL0     H66487   4.041   7.304  -0.053 -0.4062  3.6272 -0.8407
  504MOL0     H66488   3.828   7.338   0.159 -2.0540 -0.4785 -0.5355
  504MOL0     H66489   3.828   7.247   0.013 -0.6722  0.4076 -2.1252
  504MOL0     H66490   3.638   7.410   0.214  0.4468 -2.6516 -3.0890
  504MOL0     H66491   3.432   7.514   0.258  0.3666  2.3223  0.2440
  504MOL0     H66492   2.947   7.671   0.196 -0.1460 -1.2014 -0.9156
  504MOL0     H66493   2.820   7.851   0.307 -0.4555  3.0961  3.9564
  504MOL0     H66494   2.996   8.192   0.470 -2.3718 -1.3509 -3.7990
  504MOL0     H66495   3.043   8.093   0.619 -1.9863 -2.1018  0.6975
  504MOL0     H66496   2.770   8.191   0.598 -1.5028 -0.6215  2.3685
  504MOL0     H66497   2.895   8.286   0.677  2.0699 -0.4738  2.0476
  504MOL0     H66498   2.945   8.117   0.836  0.9733 -1.6278 -0.8025
  504MOL0     H66499   2.850   7.996   0.738 -1.1232 -1.3529  0.6436
  504MOL0     H66500   2.653   8.152   0.793  1.5663  2.6875 -0.7328
  504MOL0     H66501   2.712   8.018   0.908  0.9163 -0.4064  1.4152
  504MOL0     H66502   2.775   8.175   1.066 -3.0450 -1.7031  1.9572
  504MOL0     H66503   2.626   8.227   1.007  0.4041 -2.4182  0.2578
  504MOL0     H66504   2.750   8.374   0.835  0.3174  1.2174  0.0247
  504MOL0     H66505   2.900   8.356   0.937  0.5820 -0.5652  0.3587
  504MOL0     H66506   2.751   8.569   0.981 -2.4875 -0.4576  1.0425
  504MOL0     H66507   2.613   8.467   1.000 -0.7673  2.2540  0.1126
  504MOL0     H66508   2.762   8.361   1.197  1.5804 -2.0615 -3.8801
  504MOL0     H66509   2.692   8.514   1.225  0.5662  0.1894  0.0070
  504MOL0     H66510   3.185   7.994   0.486  1.5582  0.8421 -0.4408
  504MOL0     H66511   3.304   7.854   0.334 -0.3514 -3.6660  0.1575
  504MOL0     H66512   3.484   7.728  -0.119 -1.6901  0.1058  0.7821
  504MOL0     H66513   3.697   7.623  -0.156  2.2066 -0.7617  0.3738
  504MOL0     H66514   5.133   7.363   0.660  1.5028  0.8760  0.4612
  504MOL0     H66515   5.362   7.412   0.679 -1.5743  0.2975 -0.7426
  504MOL0     H66516   5.745   7.382   0.919  0.0052 -0.3361  0.1280
  504MOL0     H66517   5.982   7.429   0.883 -1.6664 -0.9050  0.8218
  504MOL0     H66518   6.252   7.585   0.802 -1.8664  2.7224 -1.0911
  504MOL0     H66519   6.168   7.487   0.929 -0.0338 -0.2490  0.3653
  504MOL0     H66520   6.395   7.558   0.968  0.5005  0.1366 -2.7698
  504MOL0     H66521   6.339   7.731   0.963 -0.9880 -0.6291 -0.5745
  504MOL0     H66522   6.242   7.510   1.161  1.4853 -0.1517 -0.1135
  504MOL0     H66523   6.165   7.676   1.141  1.0943  1.9110 -1.1510
  504MOL0     H66524   6.340   7.782   1.218  1.2897 -0.2928  0.0304
  504MOL0     H66525   6.269   7.666   1.335  2.2263  0.4066  1.1934
  504MOL0     H66526   6.675   7.531   1.295 -0.1706 -2.0085 -1.9228
  504MOL0     H66527   5.913   7.840   0.981 -1.8966  0.4937  1.2168
  504MOL0     H66528   5.676   7.789   1.038  1.2160  0.5037  1.7328
  505MOL0     O66529   2.382   5.100   5.467  0.3110 -0.0799  0.1272
  505MOL0     C66530   2.411   5.046   5.569 -0.2159 -1.2221  0.6630
  505MOL0     O66531   2.318   4.994   5.655  0.2863  0.6108  0.1470
  505MOL0     C66532   2.192   4.970   5.609  0.1747 -0.4847 -0.2733
  505MOL0     C66533   2.077   5.038   5.666 -0.0174  0.1101 -0.5637
  505MOL0     C66534   1.952   4.985   5.631  0.1065 -0.1440 -0.2919
  505MOL0     C66535   1.931   4.890   5.520  0.9313  0.1071 -0.6365
  505MOL0     O66536   1.813   4.870   5.450  0.1207 -0.2296 -0.3540
  505MOL0     C66537   1.687   4.912   5.512  0.0868  1.1945 -0.2871
  505MOL0     C66538   1.574   4.890   5.408 -0.0831 -0.4659 -0.4943
  505MOL0     C66539   1.446   4.947   5.463 -0.6722 -0.0791 -0.3918
  505MOL0     C66540   1.330   4.937   5.378 -0.9691 -0.0271  0.4987
  505MOL0     C66541   1.195   4.925   5.443  0.7226  0.3258  0.0736
  505MOL0     C66542   1.100   4.915   5.329  0.1251 -0.0553  0.5562
  505MOL0     C66543   0.962   4.918   5.392  0.5752  0.2601  0.4514
  505MOL0     C66544   0.852   4.888   5.285  0.9197  0.2608 -0.3210
  505MOL0     N66545   0.715   4.876   5.338 -0.0616  0.7017 -0.4365
  505MOL0     C66546   0.604   4.855   5.264 -0.1306 -0.3969  0.3075
  505MOL0     C66547   0.501   4.915   5.324 -0.1558  0.2346  1.0154
  505MOL0     C66548   0.372   4.927   5.254 -0.5811  0.0366  0.4618
  505MOL0     C66549   0.248   4.891   5.339 -0.0204 -1.2883  0.4720
  505MOL0     C66550   0.266   4.750   5.381 -0.4699  0.2292  0.1292
  505MOL0     C66551   0.158   4.701   5.473  0.1379  0.0424  0.7280
  505MOL0     O66552   0.031   4.699   5.397  0.6790  0.0987 -0.3462
  505MOL0     C66553  -0.074   4.682   5.479 -0.5556 -0.9809  0.9937
  505MOL0     C66554  -0.195   4.693   5.425  0.1606  0.1619 -1.1185
  505MOL0     C66555  -0.316   4.691   5.501 -0.1115  0.1177  0.8307
  505MOL0     C66556  -0.317   4.668   5.638  0.3821 -0.7152 -0.1070
  505MOL0     C66557  -0.439   4.664   5.723  0.4749 -0.2391 -0.3980
  505MOL0     O66558  -0.564   4.675   5.665  0.2793 -0.1794  0.9091
  505MOL0     C66559  -0.685   4.652   5.729  0.4693  0.7482 -0.6093
  505MOL0     C66560  -0.787   4.691   5.650  0.0050  0.4987  0.0378
  505MOL0     C66561  -0.921   4.691   5.689 -0.0789 -0.7078 -0.7192
  505MOL0     C66562  -0.957   4.661   5.821  0.5168 -0.1018  0.2252
  505MOL0     O66563  -1.080   4.687   5.859  1.0149 -0.2158  0.3250
  505MOL0     C66564  -1.129   4.650   5.985  0.6583  0.1319 -0.4499
  505MOL0     C66565  -1.287   4.654   5.969  0.4315 -0.6379 -0.0131
  505MOL0     C66566  -1.362   4.528   5.926 -0.7822  0.1683  1.2644
  505MOL0     C66567  -1.501   4.527   5.961  0.8140 -0.3272 -1.0556
  505MOL0     C66568  -1.580   4.409   5.920  0.4494 -0.4541  0.2153
  505MOL0     C66569  -1.736   4.436   5.928 -0.2210  0.4962 -0.7260
  505MOL0     C66570  -1.798   4.544   5.849 -0.2098  0.4444  0.1643
  505MOL0     C66571  -1.942   4.526   5.836 -0.3128 -0.6816  0.1160
  505MOL0    Cl66572  -2.004   4.656   5.722  0.0209  0.3118 -0.0085
  505MOL0     C66573  -0.848   4.625   5.910 -0.1104 -0.7815  0.0012
  505MOL0     C66574  -0.715   4.624   5.864 -0.1183  0.4275  0.0901
  505MOL0     O66575  -0.424   4.641   5.844  0.0851  1.2548  0.1117
  505MOL0     C66576  -0.187   4.644   5.688  0.0294  0.0944 -0.2521
  505MOL0     C66577  -0.069   4.658   5.615 -0.3661  0.0210 -0.7035
  505MOL0     N66578   0.541   4.953   5.444  0.3215  0.9594  0.3941
  505MOL0     N66579   0.676   4.945   5.452 -0.3712 -0.9655 -0.5928
  505MOL0     C66580   2.046   4.836   5.458 -0.0076 -0.1278  0.7299
  505MOL0     C66581   2.170   4.869   5.500 -0.5702 -0.1753 -0.1284
  505MOL0     C66582   2.550   5.058   5.613  0.6753  0.4783 -0.5096
  505MOL0     C66583   2.572   5.034   5.754 -0.0663 -0.6733  0.7123
  505MOL0     C66584   2.698   5.028   5.808 -0.3724  0.1903 -0.2879
  505MOL0     C66585   2.804   5.026   5.715  0.1503  0.2270  0.0498
  505MOL0     O66586   2.926   5.002   5.768  0.9088 -0.1665  0.3308
  505MOL0     C66587   3.041   4.971   5.689 -0.2991 -0.2695  0.2454
  505MOL0     C66588   3.162   4.998   5.780 -0.0111  0.8103 -1.1584
  505MOL0     C66589   3.216   5.134   5.776 -1.4989  0.2152 -0.9901
  505MOL0     C66590   3.364   5.138   5.808 -0.2127 -0.6741 -0.4363
  505MOL0     C66591   3.372   5.077   5.939 -0.0058 -1.1214  0.2667
  505MOL0     C66592   3.370   5.026   6.051 -0.1203  0.6364  0.5689
  505MOL0     C66593   2.783   5.043   5.573 -0.2403  1.0064 -0.6770
  505MOL0     C66594   2.657   5.051   5.517 -0.3519  0.2736 -0.1824
  505MOL0     H66595   2.089   5.112   5.744  1.4062 -2.8520  2.2539
  505MOL0     H66596   1.866   5.036   5.673 -0.1247  0.6933 -1.7187
  505MOL0     H66597   1.692   5.019   5.531  1.3848  1.8512 -3.5763
  505MOL0     H66598   1.664   4.849   5.599  0.1499  1.9526  0.2802
  505MOL0     H66599   1.562   4.782   5.394 -1.2476 -0.2488 -1.3439
  505MOL0     H66600   1.597   4.934   5.310  0.9751 -0.4006 -0.2321
  505MOL0     H66601   1.465   5.054   5.473 -1.1804 -0.1031  0.9349
  505MOL0     H66602   1.417   4.919   5.565 -2.7722  2.8540 -0.0672
  505MOL0     H66603   1.332   5.027   5.316  0.8824 -1.2200 -1.2638
  505MOL0     H66604   1.334   4.844   5.321 -1.2135 -0.9050  1.8700
  505MOL0     H66605   1.185   5.019   5.499  1.9363  2.0150 -2.3161
  505MOL0     H66606   1.190   4.840   5.510  0.4119  0.0663 -0.2734
  505MOL0     H66607   1.115   4.821   5.275  2.8528  0.8821 -0.4589
  505MOL0     H66608   1.118   4.998   5.260 -0.2391 -0.0183  0.5020
  505MOL0     H66609   0.951   4.840   5.468 -1.8565  0.4116  0.3171
  505MOL0     H66610   0.947   5.013   5.443  0.6708 -0.4399  1.8327
  505MOL0     H66611   0.865   4.787   5.244  0.8840 -0.4234  1.2695
  505MOL0     H66612   0.850   4.965   5.207 -1.2039  1.3405  0.7128
  505MOL0     H66613   0.607   4.820   5.161 -0.5634 -0.2391  0.2385
  505MOL0     H66614   0.376   4.857   5.170 -1.6593  1.6020 -0.9411
  505MOL0     H66615   0.350   5.027   5.215 -0.2588 -0.3299 -0.7048
  505MOL0     H66616   0.154   4.900   5.284 -0.9001 -1.8079  1.8397
  505MOL0     H66617   0.234   4.961   5.423 -0.6189  1.3126 -1.6387
  505MOL0     H66618   0.279   4.689   5.291  2.9027 -2.7636  2.3358
  505MOL0     H66619   0.366   4.730   5.420  1.2040  1.2928 -3.2405
  505MOL0     H66620   0.156   4.777   5.551  0.3912  0.5826  0.2152
  505MOL0     H66621   0.170   4.604   5.523  0.1805  0.2657  1.1439
  505MOL0     H66622  -0.204   4.723   5.321 -1.7745 -0.6111 -1.2021
  505MOL0     H66623  -0.407   4.700   5.442  0.6171  0.3163 -0.3111
  505MOL0     H66624  -0.755   4.720   5.550 -1.1127  1.4093 -0.0748
  505MOL0     H66625  -0.992   4.712   5.610 -0.4338 -0.7825 -0.4208
  505MOL0     H66626  -1.105   4.723   6.062 -0.3638 -0.1017  0.1161
  505MOL0     H66627  -1.093   4.550   6.012  0.7285  0.8668  2.4407
  505MOL0     H66628  -1.325   4.733   5.904 -4.5968 -2.2086  0.5971
  505MOL0     H66629  -1.334   4.686   6.063 -1.3370  0.2994 -1.1610
  505MOL0     H66630  -1.323   4.442   5.981 -0.8032 -0.1689  0.7584
  505MOL0     H66631  -1.352   4.517   5.818  0.4067  2.5267  1.0624
  505MOL0     H66632  -1.510   4.517   6.069  1.8963  0.0004 -0.9193
  505MOL0     H66633  -1.551   4.616   5.922 -1.3544 -0.8299  0.4038
  505MOL0     H66634  -1.554   4.328   5.988 -2.4690 -1.0012  0.8291
  505MOL0     H66635  -1.568   4.383   5.815 -0.8569 -0.0140 -0.0661
  505MOL0     H66636  -1.764   4.465   6.030  1.9572 -1.5271  0.5564
  505MOL0     H66637  -1.781   4.336   5.924  1.0814 -0.1761  0.4392
  505MOL0     H66638  -1.765   4.639   5.891  2.4684  0.1131 -0.9745
  505MOL0     H66639  -1.760   4.542   5.746  0.7081 -0.1093  0.4993
  505MOL0     H66640  -1.987   4.534   5.935 -1.3514  0.1873 -0.4121
  505MOL0     H66641  -1.972   4.438   5.777 -4.3198  0.4528  0.1552
  505MOL0     H66642  -0.888   4.605   6.008 -2.5006  3.8424  0.2633
  505MOL0     H66643  -0.632   4.603   5.931 -2.2655 -0.5563  2.5880
  505MOL0     H66644  -0.179   4.611   5.791 -0.6657 -0.3236 -0.3300
  505MOL0     H66645   0.017   4.625   5.672 -0.2991  1.0204 -0.1955
  505MOL0     H66646   2.032   4.763   5.378 -0.4266  2.4357 -1.6935
  505MOL0     H66647   2.262   4.829   5.459 -0.4038  0.0050  0.0626
  505MOL0     H66648   2.488   5.039   5.823 -1.4584 -1.9660 -0.8089
  505MOL0     H66649   2.714   5.016   5.915  2.6453  3.6202 -0.1276
  505MOL0     H66650   3.055   5.030   5.597 -2.5780 -0.1441 -0.0697
  505MOL0     H66651   3.037   4.867   5.656 -0.9207  0.0198 -0.6163
  505MOL0     H66652   3.136   4.975   5.884  2.9347 -0.9901 -0.7323
  505MOL0     H66653   3.233   4.920   5.753 -0.0314  0.0180  0.9195
  505MOL0     H66654   3.152   5.194   5.841 -2.0801 -1.0807 -0.3196
  505MOL0     H66655   3.220   5.180   5.677 -2.7307 -0.1990 -1.2536
  505MOL0     H66656   3.425   5.079   5.738 -0.6516  2.2876 -3.6103
  505MOL0     H66657   3.406   5.239   5.810  2.3749 -1.6649  1.1921
  505MOL0     H66658   3.367   4.984   6.150 -2.6216 -0.3581  0.1322
  505MOL0     H66659   2.867   5.039   5.504 -0.9434  0.3891 -1.5211
  505MOL0     H66660   2.646   5.070   5.411  2.1220 -0.1394 -0.5893
  506MOL0     O66661   0.179   1.507  10.411 -0.0102 -0.4153  0.3394
  506MOL0     C66662   0.266   1.511  10.327  0.5234  0.2788 -0.1809
  506MOL0     O66663   0.243   1.505  10.198  0.0535 -0.1382 -0.5757
  506MOL0     C66664   0.118   1.488  10.137  0.3087 -0.3190 -0.0485
  506MOL0     C66665   0.052   1.610  10.105  0.0337 -0.0987 -0.1483
  506MOL0     C66666  -0.075   1.602  10.046  0.1427  0.5886 -0.7541
  506MOL0     C66667  -0.125   1.473  10.023  0.0463 -0.7166 -0.3712
  506MOL0     O66668  -0.250   1.486   9.968 -0.2500  0.2337 -1.0472
  506MOL0     C66669  -0.332   1.366   9.942 -0.7434 -0.8683  0.0841
  506MOL0     C66670  -0.470   1.410   9.893  0.4190  0.1475  0.2574
  506MOL0     C66671  -0.566   1.289   9.890 -0.5818  0.5751 -0.3407
  506MOL0     C66672  -0.698   1.330   9.823 -0.4696 -1.0086 -0.2258
  506MOL0     C66673  -0.799   1.218   9.822 -0.6516 -0.1974 -1.3070
  506MOL0     C66674  -0.939   1.239   9.768 -0.2157 -0.2172 -0.6439
  506MOL0     C66675  -1.029   1.116   9.791 -0.5720  0.7974  0.8805
  506MOL0     C66676  -1.161   1.135   9.722  0.4426  0.1036 -0.8048
  506MOL0     N66677  -1.262   1.194   9.804 -0.1144 -0.5944  0.4601
  506MOL0     C66678  -1.294   1.324   9.824  0.4291 -0.1462 -0.3419
  506MOL0     C66679  -1.409   1.332   9.897  0.3768 -0.1857  0.5543
  506MOL0     C66680  -1.477   1.458   9.946 -0.5562 -0.4577  0.2221
  506MOL0     C66681  -1.407   1.514  10.066  0.2781  0.4743 -0.1110
  506MOL0     C66682  -1.399   1.420  10.194  0.0122  0.2994 -1.1766
  506MOL0     C66683  -1.524   1.343  10.247 -0.5229 -0.3233 -0.4029
  506MOL0     O66684  -1.629   1.435  10.286 -0.4389  0.1032  0.7253
  506MOL0     C66685  -1.741   1.388  10.349 -0.1910  0.9505 -0.4266
  506MOL0     C66686  -1.764   1.258  10.406  0.0819  0.5024  0.2300
  506MOL0     C66687  -1.885   1.224  10.470 -0.5906 -0.0344  0.2476
  506MOL0     C66688  -1.992   1.310  10.475 -0.2460 -0.6022 -0.3599
  506MOL0     C66689  -2.113   1.281  10.554  0.5108  0.8253 -0.1798
  506MOL0     O66690  -2.193   1.380  10.587 -0.5351 -0.7412 -0.1857
  506MOL0     C66691  -2.285   1.354  10.686  0.2439  0.0680 -0.1053
  506MOL0     C66692  -2.277   1.267  10.799 -0.1113  0.0331  0.8917
  506MOL0     C66693  -2.386   1.221  10.868 -0.2990 -1.0448 -0.8533
  506MOL0     C66694  -2.511   1.276  10.841 -0.1777 -0.7475  1.2320
  506MOL0     O66695  -2.631   1.245  10.908  0.0786 -0.1069  0.2352
  506MOL0     C66696  -2.628   1.165  11.027 -0.3963  0.0221  0.2433
  506MOL0     C66697  -2.644   1.021  10.979  0.5448 -1.2587 -0.3911
  506MOL0     C66698  -2.795   0.985  10.937  0.0173 -0.1957 -0.3755
  506MOL0     C66699  -2.806   0.847  10.882  0.2673  0.1460 -0.6476
  506MOL0     C66700  -2.948   0.817  10.840  0.3131 -0.0530 -0.2853
  506MOL0     C66701  -3.041   0.829  10.961  0.7966  0.0065 -0.7109
  506MOL0     C66702  -3.186   0.781  10.927  0.5787  0.6414  0.1163
  506MOL0     C66703  -3.205   0.628  10.939 -0.2327 -0.1277  0.5016
  506MOL0    Cl66704  -3.143   0.546  11.085 -0.3192  0.1586 -0.1530
  506MOL0     C66705  -2.527   1.365  10.735  1.1948  1.4909  0.2706
  506MOL0     C66706  -2.415   1.403  10.659  0.6755 -0.0165 -0.5151
  506MOL0     O66707  -2.141   1.165  10.581 -0.2550  0.2891 -0.0819
  506MOL0     C66708  -1.967   1.435  10.410  0.4732 -0.5223  0.0190
  506MOL0     C66709  -1.849   1.474  10.348 -0.1574  0.7027  0.3392
  506MOL0     N66710  -1.446   1.206   9.922 -0.6984  0.4974 -0.1866
  506MOL0     N66711  -1.354   1.130   9.871  0.0457  0.0438  0.4840
  506MOL0     C66712  -0.057   1.355  10.042  0.4009  0.0967 -0.3975
  506MOL0     C66713   0.068   1.361  10.103 -0.5554 -0.4842  0.0397
  506MOL0     C66714   0.405   1.521  10.372 -0.4033 -0.0916  0.0184
  506MOL0     C66715   0.503   1.453  10.303  1.2198 -0.9038 -0.3210
  506MOL0     C66716   0.633   1.464  10.345 -0.1179 -0.2033  0.5372
  506MOL0     C66717   0.668   1.544  10.448  0.2788 -0.5646 -0.4219
  506MOL0     O66718   0.799   1.557  10.498 -0.4569  0.3013  0.6410
  506MOL0     C66719   0.844   1.692  10.469  0.1220 -0.0015 -0.3942
  506MOL0     C66720   0.993   1.696  10.440  0.5033  0.1908  0.7922
  506MOL0     C66721   1.057   1.834  10.418 -0.5493 -0.2604 -0.7155
  506MOL0     C66722   1.047   1.902  10.281 -0.6668  0.1975 -0.2324
  506MOL0     C66723   1.156   2.001  10.260  0.4068 -0.8595 -0.0741
  506MOL0     C66724   1.234   2.095  10.259 -0.3087 -0.4330 -0.8107
  506MOL0     C66725   0.570   1.606  10.524 -0.1640  0.5903  0.0719
  506MOL0     C66726   0.433   1.589  10.494 -0.4729  0.3925 -0.4290
  506MOL0     H66727   0.106   1.703  10.119 -0.1829  0.3576 -1.9761
  506MOL0     H66728  -0.128   1.696  10.032  0.5488  0.9295 -0.0681
  506MOL0     H66729  -0.341   1.307  10.034 -0.3922 -0.1616  0.5857
  506MOL0     H66730  -0.280   1.302   9.870 -2.7144 -1.5318 -0.8070
  506MOL0     H66731  -0.452   1.454   9.794  1.9808  1.6260  1.1505
  506MOL0     H66732  -0.508   1.476   9.971 -1.8017 -0.5594 -0.1573
  506MOL0     H66733  -0.583   1.272   9.996 -0.7268 -0.7072 -0.5614
  506MOL0     H66734  -0.524   1.196   9.852 -0.0547 -1.0116  3.6370
  506MOL0     H66735  -0.737   1.413   9.883 -0.2216  0.0079 -1.4258
  506MOL0     H66736  -0.684   1.363   9.720 -0.2174  0.2468  0.1926
  506MOL0     H66737  -0.809   1.190   9.928 -2.4871  2.9295 -0.5338
  506MOL0     H66738  -0.753   1.141   9.760 -1.8945 -0.3412 -2.0751
  506MOL0     H66739  -0.922   1.251   9.661  2.1930 -0.0401 -0.2965
  506MOL0     H66740  -0.975   1.333   9.813 -2.9395 -1.3292 -0.2989
  506MOL0     H66741  -0.980   1.028   9.747 -0.0082  1.2972  0.4872
  506MOL0     H66742  -1.044   1.088   9.896 -2.2854 -0.1777  0.4259
  506MOL0     H66743  -1.202   1.036   9.701  2.5789 -1.2060  0.8498
  506MOL0     H66744  -1.133   1.197   9.636  2.4928 -0.0894 -0.3201
  506MOL0     H66745  -1.239   1.408   9.783 -2.0741  1.8534  0.1302
  506MOL0     H66746  -1.583   1.438   9.966 -1.1878  0.0988 -2.2247
  506MOL0     H66747  -1.470   1.536   9.869 -3.1073  2.0094  2.2353
  506MOL0     H66748  -1.445   1.612  10.094  0.1384  1.1501 -2.4914
  506MOL0     H66749  -1.303   1.540  10.046  0.0907 -0.2300 -2.2459
  506MOL0     H66750  -1.318   1.348  10.178  1.2527  2.0489 -3.3692
  506MOL0     H66751  -1.367   1.492  10.269 -0.5261 -0.9952  0.3487
  506MOL0     H66752  -1.482   1.286  10.330  0.1385  0.3120 -0.2958
  506MOL0     H66753  -1.565   1.269  10.178 -1.3436  0.3198 -0.6297
  506MOL0     H66754  -1.681   1.188  10.412  0.3973  0.7598 -0.8797
  506MOL0     H66755  -1.886   1.132  10.528 -1.1215  0.3913  0.9317
  506MOL0     H66756  -2.187   1.207  10.813 -2.8079 -5.4257 -1.9047
  506MOL0     H66757  -2.379   1.156  10.954 -0.9996 -1.1597 -0.8850
  506MOL0     H66758  -2.714   1.194  11.088 -0.3321  0.2649  0.2198
  506MOL0     H66759  -2.543   1.174  11.094  3.0995 -3.1301 -3.2223
  506MOL0     H66760  -2.616   0.952  11.059  0.9496 -1.4353 -0.6842
  506MOL0     H66761  -2.585   0.994  10.891 -0.3643 -1.4745 -0.9508
  506MOL0     H66762  -2.811   1.053  10.853 -1.3321 -0.8160 -0.6426
  506MOL0     H66763  -2.858   1.003  11.025  0.0928  0.7256 -0.5021
  506MOL0     H66764  -2.739   0.833  10.797  2.0769  0.3962  0.6873
  506MOL0     H66765  -2.773   0.777  10.960  1.1384 -0.8921 -1.9135
  506MOL0     H66766  -2.955   0.718  10.792 -0.3682 -0.1369 -0.0317
  506MOL0     H66767  -2.986   0.889  10.767 -2.5914  1.0719  2.1228
  506MOL0     H66768  -3.042   0.926  11.011  0.3249 -1.2564  1.9296
  506MOL0     H66769  -3.001   0.765  11.040  0.0641  3.0652  2.3876
  506MOL0     H66770  -3.260   0.827  10.993 -1.8836  0.2248 -2.1721
  506MOL0     H66771  -3.210   0.817  10.827 -0.2069  0.8986  0.3856
  506MOL0     H66772  -3.150   0.596  10.850 -0.7787  1.7952 -0.5749
  506MOL0     H66773  -3.308   0.605  10.910 -0.5372  2.7951 -1.1715
  506MOL0     H66774  -2.632   1.388  10.719 -0.9591 -2.7072  5.3546
  506MOL0     H66775  -2.446   1.469  10.579 -1.3103 -1.5338 -1.0752
  506MOL0     H66776  -2.052   1.502  10.423 -0.1637 -1.0317 -1.3725
  506MOL0     H66777  -1.847   1.569  10.295 -2.6566  0.2544 -0.6921
  506MOL0     H66778  -0.084   1.254  10.015  2.2410 -1.2651  2.3695
  506MOL0     H66779   0.121   1.271  10.131 -1.0032 -0.9980 -0.7260
  506MOL0     H66780   0.468   1.398  10.216 -0.7923  0.3394 -0.3903
  506MOL0     H66781   0.713   1.397  10.314  1.1689  1.7229 -0.4799
  506MOL0     H66782   0.830   1.758  10.554  3.4329 -1.6680  1.6400
  506MOL0     H66783   0.798   1.731  10.377 -0.7776  1.1289  0.5052
  506MOL0     H66784   1.030   1.652  10.533 -3.2018 -3.4615  0.8477
  506MOL0     H66785   1.021   1.644  10.348  2.2041  0.3565  1.1855
  506MOL0     H66786   1.165   1.816  10.422 -0.0945  1.2224 -3.4098
  506MOL0     H66787   1.024   1.907  10.492  1.3727  0.1567 -0.2145
  506MOL0     H66788   1.053   1.831  10.197 -0.1516 -0.2405  0.1668
  506MOL0     H66789   0.951   1.954  10.271 -0.5276  1.9113  4.6407
  506MOL0     H66790   1.296   2.181  10.271 -0.0571 -0.7421  0.1861
  506MOL0     H66791   0.604   1.673  10.603  1.8542  0.0101 -0.2524
  506MOL0     H66792   0.356   1.624  10.562  0.5082 -3.1751  2.8074
  507MOL0     O66793   1.397   7.402   0.221  0.0268 -0.6932 -0.2656
  507MOL0     C66794   1.491   7.409   0.298 -0.5682 -0.1205 -0.5327
  507MOL0     O66795   1.486   7.474   0.423 -0.4084  0.6812 -0.4391
  507MOL0     C66796   1.359   7.514   0.454 -0.2773 -0.2087  0.2261
  507MOL0     C66797   1.283   7.429   0.543  0.0132 -0.2475  0.3061
  507MOL0     C66798   1.149   7.467   0.573 -0.6902  0.0212 -0.4791
  507MOL0     C66799   1.094   7.574   0.514 -0.1518  0.5565  0.5788
  507MOL0     O66800   0.962   7.577   0.527 -0.1519  0.5023 -0.1834
  507MOL0     C66801   0.880   7.682   0.478 -0.1571  0.0743  0.1183
  507MOL0     C66802   0.742   7.662   0.536 -0.9149  0.7676  0.2653
  507MOL0     C66803   0.646   7.777   0.522 -0.0732  0.4822  0.4265
  507MOL0     C66804   0.596   7.789   0.387 -0.6030 -0.0545  0.0376
  507MOL0     C66805   0.490   7.901   0.397  0.1942 -0.6858  0.4333
  507MOL0     C66806   0.418   7.927   0.267  1.1602  0.0697 -0.1752
  507MOL0     C66807   0.291   8.007   0.289  0.7973 -0.7254 -0.0731
  507MOL0     C66808   0.308   8.147   0.369  0.1464 -0.0307 -0.0240
  507MOL0     N66809   0.189   8.234   0.333 -0.2158  0.4434  0.5528
  507MOL0     C66810   0.166   8.292   0.215 -0.1592 -0.6955 -0.2541
  507MOL0     C66811   0.059   8.367   0.226 -0.5477 -0.8725 -0.7043
  507MOL0     C66812  -0.005   8.441   0.110  0.1544 -0.8129  0.2322
  507MOL0     C66813   0.084   8.559   0.074 -0.1649 -0.4698 -0.0567
  507MOL0     C66814   0.066   8.626  -0.071  0.1044  0.4989 -0.9209
  507MOL0     C66815  -0.077   8.669  -0.100  0.5122 -0.3853 -0.0653
  507MOL0     O66816  -0.166   8.558  -0.119  0.1079 -0.2972 -0.8321
  507MOL0     C66817  -0.300   8.595  -0.109  0.0572 -0.4813 -0.4945
  507MOL0     C66818  -0.345   8.708  -0.174  0.2444 -0.3243  0.3306
  507MOL0     C66819  -0.483   8.736  -0.158  0.3550 -0.2098 -0.7222
  507MOL0     C66820  -0.568   8.662  -0.072  0.1056 -0.0205 -0.1597
  507MOL0     C66821  -0.712   8.687  -0.076 -0.4235 -0.6125  0.3162
  507MOL0     O66822  -0.781   8.613   0.011  0.3004  0.2533 -0.1421
  507MOL0     C66823  -0.914   8.623   0.042 -0.6813  0.6362 -0.1642
  507MOL0     C66824  -0.957   8.639   0.176 -0.6742 -0.1294 -0.2351
  507MOL0     C66825  -1.100   8.634   0.200 -0.6049  0.6121  0.0212
  507MOL0     C66826  -1.192   8.615   0.097  0.1207  0.0430 -0.2158
  507MOL0     O66827  -1.326   8.606   0.132  0.2664  0.3122  0.0471
  507MOL0     C66828  -1.429   8.603   0.030  0.4268  0.9676 -0.1223
  507MOL0     C66829  -1.566   8.642   0.088 -0.7874 -0.2754 -0.5876
  507MOL0     C66830  -1.601   8.577   0.223  0.5286  0.2714 -0.1313
  507MOL0     C66831  -1.736   8.637   0.270 -0.0154 -0.2318  0.8791
  507MOL0     C66832  -1.805   8.533   0.351 -0.1310  0.3344  0.4419
  507MOL0     C66833  -1.947   8.573   0.390 -0.0581 -0.0270 -0.4926
  507MOL0     C66834  -1.949   8.690   0.486 -0.0441  0.2187  0.0860
  507MOL0     C66835  -2.094   8.751   0.497 -0.0114 -0.2619 -0.2948
  507MOL0    Cl66836  -2.207   8.647   0.608 -0.0041 -0.3519  0.0123
  507MOL0     C66837  -1.143   8.593  -0.037  0.2218  0.6253 -0.6055
  507MOL0     C66838  -1.004   8.598  -0.063  0.0434 -0.3511 -0.3177
  507MOL0     O66839  -0.759   8.778  -0.149 -0.8317  0.3815  0.1500
  507MOL0     C66840  -0.515   8.549  -0.002 -0.2622  0.0644 -1.0418
  507MOL0     C66841  -0.379   8.524  -0.011  0.2303 -0.2004  0.7869
  507MOL0     N66842   0.012   8.336   0.351 -0.5341  0.2744 -0.5108
  507MOL0     N66843   0.095   8.258   0.421  0.3142 -0.0568 -0.0788
  507MOL0     C66844   1.171   7.662   0.434 -0.0214 -0.0367  0.4586
  507MOL0     C66845   1.301   7.631   0.397 -0.2036  1.0562 -0.6513
  507MOL0     C66846   1.629   7.361   0.257  0.6238  0.3002 -0.3696
  507MOL0     C66847   1.651   7.328   0.118 -0.4164  0.4739  0.4881
  507MOL0     C66848   1.774   7.267   0.082  0.1842  0.4029  0.1130
  507MOL0     C66849   1.880   7.252   0.178  0.0591  0.0429  0.1389
  507MOL0     O66850   1.999   7.199   0.147 -0.3457 -0.1573  0.6796
  507MOL0     C66851   2.017   7.129   0.017 -0.1286  1.4042 -0.0680
  507MOL0     C66852   2.138   7.056   0.041 -0.3821 -0.7220 -1.0365
  507MOL0     C66853   2.169   6.954  -0.070  0.3657  0.3505 -0.2289
  507MOL0     C66854   2.300   6.878  -0.031 -0.2682  0.6800 -0.4339
  507MOL0     C66855   2.274   6.798   0.089  0.1980 -0.4891 -0.4076
  507MOL0     C66856   2.254   6.735   0.192 -0.2186 -0.1246 -0.2334
  507MOL0     C66857   1.855   7.297   0.308 -0.8958  0.5417  0.0381
  507MOL0     C66858   1.736   7.355   0.348 -0.7450 -0.2003 -0.2040
  507MOL0     H66859   1.331   7.336   0.572  1.7318  0.4931  0.0005
  507MOL0     H66860   1.091   7.396   0.631 -1.3632  1.6036  0.8312
  507MOL0     H66861   0.877   7.690   0.369 -1.3768  2.0799  0.2625
  507MOL0     H66862   0.915   7.777   0.519 -1.0542  0.2974  0.3829
  507MOL0     H66863   0.757   7.645   0.643  0.9142  1.0121  0.0793
  507MOL0     H66864   0.691   7.577   0.490  1.0945  0.7565 -2.1839
  507MOL0     H66865   0.682   7.876   0.552  0.5125  1.1298 -2.1987
  507MOL0     H66866   0.564   7.759   0.592  0.7508  0.5173  1.4207
  507MOL0     H66867   0.677   7.818   0.320  0.1696  3.3526  2.2006
  507MOL0     H66868   0.554   7.694   0.351  2.1521 -0.6963 -1.8053
  507MOL0     H66869   0.539   7.992   0.432  1.4688 -1.4766  0.7850
  507MOL0     H66870   0.420   7.869   0.475  0.1147 -1.7549 -0.0498
  507MOL0     H66871   0.389   7.830   0.224 -1.1006  0.3242  0.6131
  507MOL0     H66872   0.476   7.984   0.195 -0.4255  2.8897  0.6242
  507MOL0     H66873   0.245   8.030   0.193 -3.3406 -1.3216  1.5196
  507MOL0     H66874   0.222   7.955   0.357  1.0253 -1.6363 -0.5251
  507MOL0     H66875   0.395   8.205   0.339 -0.9742  0.5915 -2.2049
  507MOL0     H66876   0.316   8.124   0.476  0.2136 -2.0410 -0.4238
  507MOL0     H66877   0.226   8.283   0.125  1.1300  2.6435  0.1280
  507MOL0     H66878  -0.105   8.466   0.148  0.7361  2.7050 -0.1995
  507MOL0     H66879  -0.009   8.381   0.019  0.7669  0.5350 -0.7147
  507MOL0     H66880   0.190   8.541   0.094  1.2355  4.1720 -1.8539
  507MOL0     H66881   0.065   8.640   0.145  2.3638  1.9539 -1.8869
  507MOL0     H66882   0.126   8.716  -0.057 -1.6097  1.7767 -1.4750
  507MOL0     H66883   0.102   8.562  -0.151 -1.9373  1.0436 -2.3536
  507MOL0     H66884  -0.091   8.752  -0.170 -2.9411  1.4227  2.4198
  507MOL0     H66885  -0.100   8.707   0.000 -0.0869 -1.0616  0.0573
  507MOL0     H66886  -0.282   8.772  -0.236  1.0634  0.8154  2.2248
  507MOL0     H66887  -0.504   8.822  -0.221  0.7859  0.9212  0.6232
  507MOL0     H66888  -0.891   8.661   0.260 -0.0468  2.2506 -1.2690
  507MOL0     H66889  -1.129   8.645   0.304 -1.0904 -3.1718  0.4241
  507MOL0     H66890  -1.441   8.500  -0.003  2.1567  1.0164 -0.9758
  507MOL0     H66891  -1.399   8.673  -0.049  0.7115  2.0139  0.8783
  507MOL0     H66892  -1.648   8.624   0.017 -1.6512 -2.3830  0.8758
  507MOL0     H66893  -1.562   8.750   0.105  0.9123 -0.7022  2.1833
  507MOL0     H66894  -1.525   8.606   0.296  0.7902  0.9035 -0.6488
  507MOL0     H66895  -1.606   8.468   0.216  0.7104  0.2273  0.3847
  507MOL0     H66896  -1.724   8.733   0.322 -1.5155  1.4177 -1.5919
  507MOL0     H66897  -1.790   8.651   0.176 -0.9617 -2.3375  1.0613
  507MOL0     H66898  -1.744   8.510   0.439  0.8039 -1.5736 -0.6337
  507MOL0     H66899  -1.816   8.436   0.302  2.4067 -0.2574  0.9127
  507MOL0     H66900  -2.003   8.492   0.436  1.4216 -1.9417 -1.9099
  507MOL0     H66901  -2.001   8.598   0.298  0.9619 -3.0084 -2.0186
  507MOL0     H66902  -1.901   8.674   0.583 -0.2513  3.0453  0.7317
  507MOL0     H66903  -1.889   8.768   0.438  1.6163 -0.2545  1.2833
  507MOL0     H66904  -2.136   8.746   0.396 -2.4841 -1.9038  0.7295
  507MOL0     H66905  -2.092   8.851   0.540 -1.1770 -1.1485  1.9660
  507MOL0     H66906  -1.208   8.571  -0.121  0.7640  0.6373 -1.0370
  507MOL0     H66907  -0.967   8.585  -0.165 -0.9085  3.5031 -1.3164
  507MOL0     H66908  -0.570   8.488   0.069 -0.1055  1.1031  0.0020
  507MOL0     H66909  -0.342   8.444   0.053  0.5409 -2.1471 -1.6598
  507MOL0     H66910   1.113   7.740   0.385  2.6566  1.6677 -0.2151
  507MOL0     H66911   1.368   7.683   0.328  3.0014  0.6861  1.9009
  507MOL0     H66912   1.578   7.318   0.038  0.2088 -2.1777  0.1354
  507MOL0     H66913   1.788   7.237  -0.022 -0.1689 -1.0810  0.4734
  507MOL0     H66914   2.032   7.195  -0.068  2.2972  0.2929 -0.5871
  507MOL0     H66915   1.928   7.068  -0.002 -0.3604  1.9227 -0.6720
  507MOL0     H66916   2.223   7.124   0.051 -1.3523  0.3716  0.0609
  507MOL0     H66917   2.133   7.013   0.141  1.2404  1.1515 -0.0649
  507MOL0     H66918   2.169   6.984  -0.175 -0.2904 -0.8710 -0.5961
  507MOL0     H66919   2.090   6.879  -0.065 -1.3193  1.9969 -0.7946
  507MOL0     H66920   2.344   6.812  -0.107  1.2690  2.4300 -1.1457
  507MOL0     H66921   2.381   6.948  -0.009  0.3837 -0.2461  0.2175
  507MOL0     H66922   2.261   6.699   0.292  2.1915  1.3599  0.2161
  507MOL0     H66923   1.948   7.308   0.364 -1.7370  3.2969  1.0629
  507MOL0     H66924   1.718   7.396   0.447  0.5207 -0.6910  0.2497
  508MOL0     O66925   4.092  10.089   2.240  0.0369 -0.1693  0.4292
  508MOL0     C66926   4.179  10.021   2.283  0.2814  0.0510 -0.0401
  508MOL0     O66927   4.211  10.012   2.418 -0.7689 -0.6253  0.7719
  508MOL0     C66928   4.141  10.076   2.517  0.4120  0.3563 -0.1787
  508MOL0     C66929   4.199  10.173   2.604  0.7053 -0.5854 -0.4268
  508MOL0     C66930   4.120  10.246   2.687  0.2054 -0.7736  0.1686
  508MOL0     C66931   3.985  10.235   2.692  1.2093  0.6687 -0.7253
  508MOL0     O66932   3.918  10.302   2.791 -0.0357 -0.5515  0.1415
  508MOL0     C66933   3.777  10.338   2.774 -0.2593 -0.2358  0.3951
  508MOL0     C66934   3.700  10.267   2.894  0.8465  0.0830  0.2465
  508MOL0     C66935   3.555  10.245   2.855 -0.1155  0.2502  1.1479
  508MOL0     C66936   3.469  10.201   2.974 -0.6789  0.3350 -0.3650
  508MOL0     C66937   3.316  10.196   2.936 -0.9362  0.4797 -1.2980
  508MOL0     C66938   3.257  10.335   2.925  0.1693 -0.5755 -0.4845
  508MOL0     C66939   3.109  10.337   2.916  1.6099  0.6024 -0.3957
  508MOL0     C66940   3.056  10.287   2.779  0.4526 -0.2382  0.2129
  508MOL0     N66941   2.910  10.277   2.771 -0.2322  0.5244 -1.0976
  508MOL0     C66942   2.811  10.377   2.774 -0.3089 -0.2922  0.3463
  508MOL0     C66943   2.697  10.314   2.744  0.6134  0.2528  0.5600
  508MOL0     C66944   2.557  10.376   2.764 -0.4952  0.2745 -0.1493
  508MOL0     C66945   2.480  10.380   2.634 -0.1691  0.1277  0.6850
  508MOL0     C66946   2.445  10.230   2.598 -0.1645 -1.0935 -0.1717
  508MOL0     C66947   2.363  10.220   2.476 -0.4358 -0.0308  0.4235
  508MOL0     O66948   2.252  10.309   2.483  0.4837  0.9096  0.2106
  508MOL0     C66949   2.146  10.299   2.403 -0.0062  0.8654  0.4172
  508MOL0     C66950   2.038  10.376   2.448 -0.1100 -0.5457  0.5457
  508MOL0     C66951   1.929  10.390   2.362  0.3706 -0.6006  0.0816
  508MOL0     C66952   1.914  10.301   2.256  0.4995 -0.0461 -0.4037
  508MOL0     C66953   1.782  10.291   2.186  0.3827  0.0467 -0.2049
  508MOL0     O66954   1.768  10.232   2.056 -0.0935  0.0422 -0.5313
  508MOL0     C66955   1.647  10.261   1.996 -0.7737 -0.0144  0.0647
  508MOL0     C66956   1.590  10.396   1.992 -0.0433 -0.2013 -0.3359
  508MOL0     C66957   1.465  10.409   1.928  0.5271  0.5395  0.3885
  508MOL0     C66958   1.400  10.302   1.868 -0.6124  0.2560 -0.9276
  508MOL0     O66959   1.287  10.340   1.797 -0.0776 -0.4702 -0.3771
  508MOL0     C66960   1.220  10.236   1.723 -0.7571 -0.1548  0.7262
  508MOL0     C66961   1.095  10.292   1.659 -0.2849  0.2123  0.0458
  508MOL0     C66962   1.046  10.187   1.559 -0.1296  0.8434  0.1868
  508MOL0     C66963   0.911  10.240   1.519 -0.0720 -0.0733  0.8373
  508MOL0     C66964   0.858  10.153   1.408  0.5893  0.5353 -0.5000
  508MOL0     C66965   0.720  10.204   1.369 -1.3254  0.5051 -0.1348
  508MOL0     C66966   0.608  10.170   1.476 -0.2056 -0.7197 -0.0995
  508MOL0     C66967   0.481  10.238   1.428 -0.5674  0.5658  0.3961
  508MOL0    Cl66968   0.485  10.413   1.471 -0.1342 -0.0137 -0.6519
  508MOL0     C66969   1.455  10.175   1.872  0.2783 -0.2103  0.0774
  508MOL0     C66970   1.570  10.157   1.948 -0.1554  0.1797  0.4121
  508MOL0     O66971   1.689  10.326   2.260 -0.1330 -0.6913 -0.2974
  508MOL0     C66972   2.014  10.216   2.221 -0.2130 -0.0288  0.1412
  508MOL0     C66973   2.134  10.214   2.293  0.0694 -0.0899  0.3839
  508MOL0     N66974   2.727  10.179   2.728 -0.1555 -0.4681 -0.6723
  508MOL0     N66975   2.855  10.159   2.737  0.4504  1.0075 -0.0040
  508MOL0     C66976   3.927  10.124   2.624  0.1588  0.9727  0.2507
  508MOL0     C66977   4.003  10.052   2.535  0.2156  0.2622  0.3246
  508MOL0     C66978   4.227   9.922   2.188 -0.2826 -0.8029  0.0584
  508MOL0     C66979   4.343   9.855   2.202  0.7736 -0.0675 -0.7015
  508MOL0     C66980   4.383   9.758   2.117 -0.4187 -0.9860 -0.4895
  508MOL0     C66981   4.307   9.732   2.005 -0.3117 -0.3551  0.3342
  508MOL0     O66982   4.341   9.625   1.932 -0.4758  0.2082  1.3300
  508MOL0     C66983   4.331   9.643   1.787 -0.3564  0.0248 -0.3238
  508MOL0     C66984   4.463   9.606   1.730 -0.5339  0.6855  0.1412
  508MOL0     C66985   4.583   9.693   1.763  0.5666  0.2935 -0.0737
  508MOL0     C66986   4.714   9.602   1.739 -0.2766 -0.2602  0.7315
  508MOL0     C66987   4.831   9.690   1.723 -0.1435 -0.0072 -0.1292
  508MOL0     C66988   4.935   9.741   1.683  0.0272  0.0127  0.1849
  508MOL0     C66989   4.191   9.812   1.983  0.4081  0.1542 -0.9452
  508MOL0     C66990   4.151   9.902   2.074  0.1857  0.8908 -0.1750
  508MOL0     H66991   4.303  10.200   2.587 -0.2263  3.5148 -0.7630
  508MOL0     H66992   4.171  10.327   2.739 -0.9291 -0.0173  0.1465
  508MOL0     H66993   3.733  10.306   2.679  1.3689  0.4677 -0.6346
  508MOL0     H66994   3.760  10.446   2.784 -1.4641 -0.3552 -0.1404
  508MOL0     H66995   3.716  10.330   2.983  4.0170 -0.2219  0.0283
  508MOL0     H66996   3.749  10.170   2.904 -0.9500 -0.8923 -0.0471
  508MOL0     H66997   3.553  10.174   2.772 -1.2917  1.7213 -0.1636
  508MOL0     H66998   3.501  10.334   2.820 -0.3834  1.1724  3.6958
  508MOL0     H66999   3.498  10.102   3.008 -0.1172  1.3522  2.3750
  508MOL0     H67000   3.484  10.270   3.058 -1.2270 -0.6677  0.5782
  508MOL0     H67001   3.259  10.128   3.001  3.1922 -0.7295  1.4370
  508MOL0     H67002   3.311  10.149   2.837 -3.8149  2.6239 -2.3018
  508MOL0     H67003   3.308  10.392   2.846  0.8091 -0.6345 -0.1238
  508MOL0     H67004   3.281  10.376   3.023 -0.1543 -2.0661  0.2375
  508MOL0     H67005   3.061  10.269   2.988 -1.7687  0.6726 -2.3862
  508MOL0     H67006   3.066  10.436   2.934 -2.7253 -0.7767 -2.0309
  508MOL0     H67007   3.089  10.185   2.757  1.1301  0.3789 -1.8860
  508MOL0     H67008   3.089  10.359   2.703  0.7804  0.1408  0.7053
  508MOL0     H67009   2.819  10.482   2.802  2.1780 -0.9060  2.3316
  508MOL0     H67010   2.572  10.481   2.793  0.8417  0.8640 -2.6611
  508MOL0     H67011   2.500  10.332   2.846 -1.0634  2.2511  0.5839
  508MOL0     H67012   2.539  10.437   2.562  1.9792  2.8666  4.2603
  508MOL0     H67013   2.384  10.430   2.651  1.6658  4.1947  0.3392
  508MOL0     H67014   2.535  10.170   2.581 -0.8272 -2.3831  0.7585
  508MOL0     H67015   2.389  10.187   2.681 -1.8922  0.4896 -0.4529
  508MOL0     H67016   2.324  10.118   2.465 -0.8595  0.0217  1.3887
  508MOL0     H67017   2.433  10.242   2.395  1.3709 -3.0275  0.9852
  508MOL0     H67018   2.061  10.443   2.530  1.1239  0.8324 -0.8613
  508MOL0     H67019   1.852  10.460   2.396  0.8768 -0.2770  0.5849
  508MOL0     H67020   1.643  10.483   2.030 -0.2267 -0.2410  0.0192
  508MOL0     H67021   1.427  10.511   1.922 -0.5283  0.0964 -1.2623
  508MOL0     H67022   1.197  10.164   1.801  4.5315  0.4250  3.2828
  508MOL0     H67023   1.291  10.192   1.652 -3.0099  0.5097 -2.1282
  508MOL0     H67024   1.122  10.381   1.601  1.6704 -1.7863 -2.3779
  508MOL0     H67025   1.025  10.322   1.738  0.6257 -1.4444  1.5611
  508MOL0     H67026   1.038  10.089   1.605 -2.2760  0.7982 -0.1775
  508MOL0     H67027   1.111  10.180   1.471  0.7504  0.2596  0.8598
  508MOL0     H67028   0.854  10.228   1.611  0.9771 -3.5269  1.1752
  508MOL0     H67029   0.922  10.339   1.474  0.9712 -1.3440 -1.9070
  508MOL0     H67030   0.846  10.054   1.454 -5.6279  0.7628 -0.7290
  508MOL0     H67031   0.929  10.155   1.325  1.2592 -2.5781 -0.1179
  508MOL0     H67032   0.686  10.168   1.272  0.8129 -2.0787 -0.0359
  508MOL0     H67033   0.729  10.313   1.360  3.0464  0.6898  3.0487
  508MOL0     H67034   0.590  10.062   1.476  1.3979 -1.0170  0.8855
  508MOL0     H67035   0.626  10.203   1.579 -0.2077 -0.7870 -0.0772
  508MOL0     H67036   0.405  10.171   1.469  1.0729  0.5360  3.7662
  508MOL0     H67037   0.465  10.233   1.320 -2.3063 -0.1160  0.6507
  508MOL0     H67038   1.419  10.086   1.820  3.3718 -2.7508  1.9273
  508MOL0     H67039   1.602  10.053   1.952  1.8922  0.8204  2.5608
  508MOL0     H67040   2.024  10.149   2.136  0.0134 -0.4508  0.4984
  508MOL0     H67041   2.212  10.150   2.254  0.6022  1.0659 -0.5198
  508MOL0     H67042   3.826  10.089   2.641 -0.1471  1.5735 -0.3089
  508MOL0     H67043   3.955   9.962   2.500 -2.5284  0.6216  2.7555
  508MOL0     H67044   4.395   9.883   2.293 -0.0378  0.4864 -0.4018
  508MOL0     H67045   4.467   9.694   2.143 -2.1455 -2.2209  2.6540
  508MOL0     H67046   4.304   9.744   1.756 -0.8877 -0.2098 -0.6276
  508MOL0     H67047   4.264   9.572   1.739 -3.0940  3.1930 -1.5616
  508MOL0     H67048   4.478   9.510   1.779  0.8078  2.7367  4.3111
  508MOL0     H67049   4.463   9.596   1.621  1.5401 -1.9619  0.2936
  508MOL0     H67050   4.591   9.734   1.864 -2.1108 -0.2701  0.4423
  508MOL0     H67051   4.583   9.775   1.691 -1.1592 -0.4051 -0.9137
  508MOL0     H67052   4.737   9.530   1.819 -0.5832  0.7154  1.7157
  508MOL0     H67053   4.700   9.543   1.647 -3.2811  3.0072 -1.1857
  508MOL0     H67054   5.029   9.786   1.656 -0.6468  1.0885 -0.4128
  508MOL0     H67055   4.124   9.785   1.903 -1.1954 -0.6417  0.6033
  508MOL0     H67056   4.055   9.943   2.046 -0.0050  0.7141  0.2010
  509MOL0     O67057   6.958   0.967  10.169  0.1462  0.3058 -0.3258
  509MOL0     C67058   7.060   1.015  10.117 -0.1979  0.7084  0.3778
  509MOL0     O67059   7.064   1.125  10.030 -0.3179  0.1966  0.1194
  509MOL0     C67060   6.954   1.139   9.953 -1.2812  0.3591 -0.2550
  509MOL0     C67061   6.928   1.039   9.849 -0.8814  0.4702  0.0494
  509MOL0     C67062   6.811   1.045   9.779 -0.3768 -0.4888 -0.7039
  509MOL0     C67063   6.718   1.161   9.804 -0.2636 -0.0566  0.4496
  509MOL0     O67064   6.614   1.191   9.724  0.2033 -0.2641  0.0394
  509MOL0     C67065   6.617   1.142   9.590 -0.0818 -0.6486  0.1611
  509MOL0     C67066   6.506   1.206   9.505 -0.0417  0.0016  0.5640
  509MOL0     C67067   6.365   1.193   9.559  0.4972 -0.7021  1.0908
  509MOL0     C67068   6.254   1.237   9.466 -0.4499 -0.1902 -0.5706
  509MOL0     C67069   6.106   1.213   9.523  0.2058  0.7031  0.5693
  509MOL0     C67070   6.002   1.303   9.446 -0.3808 -0.0514  0.0586
  509MOL0     C67071   5.855   1.294   9.489  0.1671 -0.1859 -0.2750
  509MOL0     C67072   5.778   1.387   9.393  0.8031 -0.3739  0.4466
  509MOL0     N67073   5.643   1.404   9.436  0.5430  0.0345 -0.1098
  509MOL0     C67074   5.577   1.512   9.493 -1.0815 -0.0170  0.0705
  509MOL0     C67075   5.450   1.478   9.490  0.5476 -0.0292  0.7208
  509MOL0     C67076   5.335   1.574   9.532 -0.4171  0.3167  0.6891
  509MOL0     C67077   5.324   1.697   9.446  0.6110 -0.2237 -0.5488
  509MOL0     C67078   5.222   1.796   9.495 -0.1076 -0.2008  0.5368
  509MOL0     C67079   5.078   1.757   9.481  0.3673 -0.2137  0.1099
  509MOL0     O67080   5.043   1.730   9.347 -0.3357 -0.5953  0.2773
  509MOL0     C67081   4.923   1.677   9.312 -0.6404  0.0348  0.0496
  509MOL0     C67082   4.904   1.644   9.178  0.2211 -0.1585  0.3740
  509MOL0     C67083   4.784   1.591   9.137  1.1989 -0.4401 -0.4096
  509MOL0     C67084   4.683   1.561   9.229 -1.1770 -1.0498  1.6228
  509MOL0     C67085   4.562   1.501   9.169  0.2353  0.3256 -0.0561
  509MOL0     O67086   4.536   1.518   9.044 -0.2367 -1.4915  0.4526
  509MOL0     C67087   4.426   1.465   8.992 -0.0300 -0.5518  0.3333
  509MOL0     C67088   4.325   1.553   8.951  0.3761 -0.0082  0.0929
  509MOL0     C67089   4.202   1.499   8.899  0.8921  0.8776  0.4085
  509MOL0     C67090   4.184   1.358   8.894 -0.3821  0.6296  0.1258
  509MOL0     O67091   4.056   1.314   8.859 -0.4271  0.3672 -0.2378
  509MOL0     C67092   3.969   1.294   8.966  0.0477 -0.3076  0.6804
  509MOL0     C67093   3.836   1.374   8.946 -0.1291 -0.2427  1.3569
  509MOL0     C67094   3.717   1.328   9.030  0.5223 -1.4590 -0.4223
  509MOL0     C67095   3.591   1.404   8.986  0.2126  0.2067  1.0280
  509MOL0     C67096   3.507   1.441   9.115  0.1542 -0.3237 -0.4953
  509MOL0     C67097   3.387   1.537   9.094 -0.3240 -0.3444 -0.3338
  509MOL0     C67098   3.277   1.524   9.200  0.1388 -0.1623  0.1314
  509MOL0     C67099   3.178   1.645   9.203 -0.6736 -0.0748  0.2755
  509MOL0    Cl67100   3.107   1.663   9.034 -0.3689 -0.1009  0.1928
  509MOL0     C67101   4.287   1.269   8.930  0.3833  0.1171 -0.3429
  509MOL0     C67102   4.414   1.322   8.974 -0.5698 -0.6719  0.1994
  509MOL0     O67103   4.498   1.424   9.244 -0.3605 -0.6668  0.1047
  509MOL0     C67104   4.699   1.590   9.359 -0.4675  0.3139  0.6106
  509MOL0     C67105   4.818   1.655   9.403  0.1447  0.0464 -0.2131
  509MOL0     N67106   5.436   1.347   9.441  0.0664 -0.2831 -0.5133
  509MOL0     N67107   5.552   1.305   9.409 -0.5802  0.3232  0.4449
  509MOL0     C67108   6.748   1.251   9.908  0.2765  0.1814  0.0859
  509MOL0     C67109   6.865   1.246   9.983 -0.0396 -0.2748 -0.6187
  509MOL0     C67110   7.192   0.962  10.161 -0.0557  0.1949  0.6279
  509MOL0     C67111   7.218   0.848  10.237 -0.3199 -0.3561 -1.1124
  509MOL0     C67112   7.356   0.802  10.258 -0.6110  0.7556 -0.9867
  509MOL0     C67113   7.463   0.876  10.211 -1.0486 -0.2876 -0.6319
  509MOL0     O67114   7.590   0.816  10.205 -0.2091  0.1756  0.6851
  509MOL0     C67115   7.698   0.879  10.269 -0.0791  0.0192 -0.0671
  509MOL0     C67116   7.813   0.780  10.280 -0.5310 -0.3116  0.7707
  509MOL0     C67117   7.880   0.735  10.146  0.0236 -0.7467  0.6414
  509MOL0     C67118   8.001   0.647  10.173 -0.3328 -0.2801 -0.8799
  509MOL0     C67119   8.085   0.640  10.054  0.6068 -0.6505 -0.0140
  509MOL0     C67120   8.169   0.644   9.965  0.1442 -0.2831  0.9060
  509MOL0     C67121   7.431   0.985  10.134 -0.7652 -0.0550  0.8744
  509MOL0     C67122   7.299   1.031  10.109  0.7263 -0.0752 -0.2127
  509MOL0     H67123   6.991   0.956   9.821 -2.3573 -0.0356 -1.9666
  509MOL0     H67124   6.782   0.974   9.702 -2.6296  0.5347 -0.8939
  509MOL0     H67125   6.604   1.034   9.587  2.8282 -1.1393  1.7106
  509MOL0     H67126   6.712   1.173   9.546 -0.3067 -1.0966 -0.6522
  509MOL0     H67127   6.503   1.153   9.410  2.0047 -0.1159  0.5177
  509MOL0     H67128   6.531   1.311   9.489  1.0735 -0.2730  0.4049
  509MOL0     H67129   6.361   1.257   9.647  0.9958 -0.8816  1.2495
  509MOL0     H67130   6.352   1.086   9.580  1.0239 -0.9268  0.3099
  509MOL0     H67131   6.264   1.339   9.427 -0.8397 -0.1635 -0.6077
  509MOL0     H67132   6.280   1.173   9.381 -1.5616  0.2926 -1.2980
  509MOL0     H67133   6.120   1.247   9.626 -1.9142  1.0595  0.7895
  509MOL0     H67134   6.079   1.108   9.511 -1.7493  1.0827  1.1919
  509MOL0     H67135   5.997   1.270   9.342 -0.1904  3.7110 -1.3110
  509MOL0     H67136   6.022   1.408   9.472 -2.7775 -0.1442  2.6990
  509MOL0     H67137   5.816   1.193   9.475 -0.0247 -0.1708  0.1227
  509MOL0     H67138   5.855   1.320   9.596 -1.4451 -1.5679  0.0951
  509MOL0     H67139   5.779   1.353   9.289 -0.2963  2.8324 -0.7260
  509MOL0     H67140   5.823   1.486   9.402 -1.4718  0.6658  1.2524
  509MOL0     H67141   5.617   1.605   9.532  3.0580 -1.8411  0.7802
  509MOL0     H67142   5.348   1.598   9.638 -0.5422 -0.1119  0.8060
  509MOL0     H67143   5.243   1.515   9.527 -1.1623  1.5225 -2.4340
  509MOL0     H67144   5.294   1.673   9.344 -2.5290  1.4575 -0.1632
  509MOL0     H67145   5.421   1.748   9.450  2.4612 -3.5648  0.4412
  509MOL0     H67146   5.250   1.817   9.599  1.1037 -0.7058  0.3374
  509MOL0     H67147   5.238   1.883   9.430  1.5662 -0.8086  0.0904
  509MOL0     H67148   5.017   1.843   9.511  0.9362 -0.4636  2.1286
  509MOL0     H67149   5.062   1.669   9.544  3.3124 -0.3536  0.8271
  509MOL0     H67150   4.988   1.653   9.110 -0.7059  0.7421 -0.6828
  509MOL0     H67151   4.764   1.572   9.032  1.5860 -3.6918  0.0025
  509MOL0     H67152   4.342   1.660   8.959 -0.8938  0.2349 -0.2529
  509MOL0     H67153   4.124   1.567   8.864  1.3778  1.1819 -0.1136
  509MOL0     H67154   4.025   1.308   9.059  0.0885  2.1745  0.3267
  509MOL0     H67155   3.933   1.191   8.956 -1.5983  0.3674 -0.9192
  509MOL0     H67156   3.809   1.369   8.840  0.3757  0.7183  1.1682
  509MOL0     H67157   3.861   1.480   8.949  0.5196 -0.3196 -0.3816
  509MOL0     H67158   3.731   1.350   9.136 -0.2246  1.1736 -0.7973
  509MOL0     H67159   3.698   1.220   9.025 -0.6085 -1.2909  0.0904
  509MOL0     H67160   3.628   1.491   8.931  2.1562 -0.7440  0.7625
  509MOL0     H67161   3.525   1.344   8.924  2.0217 -1.1823  0.3833
  509MOL0     H67162   3.585   1.484   9.178  2.3514 -4.6776  0.1708
  509MOL0     H67163   3.484   1.342   9.156  1.1056  0.2069  1.4548
  509MOL0     H67164   3.338   1.512   8.999  1.4897  1.3473 -1.7981
  509MOL0     H67165   3.430   1.637   9.094  1.8869 -1.2391  0.5990
  509MOL0     H67166   3.222   1.431   9.184 -1.3315  0.5706  0.6770
  509MOL0     H67167   3.332   1.518   9.295 -0.8855 -1.6938  0.6730
  509MOL0     H67168   3.224   1.743   9.220 -1.0727  0.5172 -1.7728
  509MOL0     H67169   3.099   1.622   9.274  0.3997  2.1005  2.3152
  509MOL0     H67170   4.277   1.161   8.939  1.4521  0.0268 -0.0976
  509MOL0     H67171   4.482   1.241   8.997 -1.0587 -1.4854 -1.0740
  509MOL0     H67172   4.612   1.574   9.422 -0.9885 -0.8859 -0.3584
  509MOL0     H67173   4.829   1.685   9.507 -1.4868  2.5751 -0.6805
  509MOL0     H67174   6.666   1.319   9.926 -1.2909 -1.6634  0.2748
  509MOL0     H67175   6.888   1.317  10.061  0.8890 -1.1997 -0.0374
  509MOL0     H67176   7.130   0.792  10.267 -0.8243 -1.1831 -3.9041
  509MOL0     H67177   7.385   0.718  10.321 -0.4724  1.5252  0.0016
  509MOL0     H67178   7.667   0.920  10.366 -0.0364 -0.6047  0.2191
  509MOL0     H67179   7.736   0.958  10.204 -2.3917  0.2959 -1.1746
  509MOL0     H67180   7.900   0.818  10.336  0.1723 -0.3428 -0.2676
  509MOL0     H67181   7.784   0.688  10.330  0.7981 -0.4705  1.3028
  509MOL0     H67182   7.909   0.823  10.089 -2.7309 -1.4824 -2.1487
  509MOL0     H67183   7.805   0.687  10.083  0.5212 -0.4436 -0.1938
  509MOL0     H67184   8.058   0.703  10.247 -1.2061  2.0289 -1.8537
  509MOL0     H67185   7.966   0.551  10.211  1.8881 -1.3336 -1.3392
  509MOL0     H67186   8.236   0.660   9.883  0.1030 -2.8259  0.2966
  509MOL0     H67187   7.516   1.042  10.098  0.2946  0.2318  3.5866
  509MOL0     H67188   7.286   1.120  10.048 -3.6319  0.3296  1.0034
  510MOL0     O67189   5.056   3.147   9.849 -0.2890 -0.4730  0.2144
  510MOL0     C67190   5.018   3.224   9.757  0.0508  0.1847 -0.2882
  510MOL0     O67191   4.884   3.247   9.729  0.0629  0.0049 -0.2896
  510MOL0     C67192   4.787   3.183   9.797 -0.9222  0.3074  0.2752
  510MOL0     C67193   4.749   3.057   9.760 -0.5619  0.0263  0.0837
  510MOL0     C67194   4.656   2.975   9.829 -0.5673  0.3208  0.6024
  510MOL0     C67195   4.599   3.022   9.938 -0.2890 -1.5130 -0.4227
  510MOL0     O67196   4.501   2.955  10.002  0.6274 -0.5022  0.0693
  510MOL0     C67197   4.360   2.965   9.963 -0.0968 -1.0831 -0.2723
  510MOL0     C67198   4.289   2.824   9.957 -1.1252  0.1722 -0.0110
  510MOL0     C67199   4.146   2.839   9.911  0.6050  0.4562 -0.0937
  510MOL0     C67200   4.051   2.884  10.030 -0.6611 -0.3889 -0.0762
  510MOL0     C67201   3.905   2.875   9.983 -0.6481 -0.4049 -0.6192
  510MOL0     C67202   3.824   2.921  10.107 -0.1725  0.7650 -0.2494
  510MOL0     C67203   3.679   2.871  10.093 -0.6174  0.0753  0.3933
  510MOL0     C67204   3.611   2.952   9.990 -0.6842 -0.0564 -0.1535
  510MOL0     N67205   3.476   2.918   9.984  0.3180  0.0836 -0.3041
  510MOL0     C67206   3.369   2.964  10.058  0.5033 -0.4942  0.4368
  510MOL0     C67207   3.256   2.897  10.013  0.1876  0.0489  0.7794
  510MOL0     C67208   3.120   2.914  10.063 -0.0979  0.8273  0.2769
  510MOL0     C67209   3.021   2.977   9.962  0.5014  0.3010  0.6077
  510MOL0     C67210   2.887   3.000  10.041  1.2231 -1.0806 -0.5013
  510MOL0     C67211   2.778   3.057   9.953  0.1181  0.1683 -0.0325
  510MOL0     O67212   2.646   3.062  10.023 -0.4899 -0.1912 -0.1844
  510MOL0     C67213   2.542   3.118   9.953 -0.1025 -0.0085 -0.1400
  510MOL0     C67214   2.560   3.203   9.847  0.2286 -0.3127 -0.0342
  510MOL0     C67215   2.444   3.253   9.787  0.7710 -0.5074 -0.3014
  510MOL0     C67216   2.319   3.231   9.828 -0.2195  0.2563 -0.3585
  510MOL0     C67217   2.200   3.292   9.763  0.7143 -0.5234 -1.0873
  510MOL0     O67218   2.225   3.381   9.670  0.3585 -0.0592  0.2149
  510MOL0     C67219   2.132   3.436   9.578 -0.7938  0.2990  0.1665
  510MOL0     C67220   2.159   3.568   9.526 -0.1565 -0.0921 -0.5963
  510MOL0     C67221   2.077   3.616   9.416  0.6703  0.3594 -0.1845
  510MOL0     C67222   1.967   3.545   9.374 -0.3035  0.1043  0.2509
  510MOL0     O67223   1.880   3.612   9.287 -0.3739  0.1158 -0.8991
  510MOL0     C67224   1.765   3.547   9.239 -0.0277  0.0261 -0.7724
  510MOL0     C67225   1.703   3.641   9.142  0.6124 -0.0980  0.6766
  510MOL0     C67226   1.578   3.588   9.074  0.3819 -0.0010 -0.0139
  510MOL0     C67227   1.451   3.609   9.151 -0.4583 -0.0583 -0.0284
  510MOL0     C67228   1.332   3.553   9.084  0.4593  0.5113 -0.1456
  510MOL0     C67229   1.186   3.574   9.145 -0.7355  0.5904  0.5670
  510MOL0     C67230   1.102   3.458   9.088  0.6151 -0.8265 -1.4646
  510MOL0     C67231   0.956   3.488   9.125  0.4137 -0.5368  0.0091
  510MOL0    Cl67232   0.854   3.379   9.022 -0.0141 -0.4148 -0.3281
  510MOL0     C67233   1.934   3.426   9.436 -0.0686 -0.9199  0.6361
  510MOL0     C67234   2.017   3.372   9.538 -0.3293 -0.9084 -0.0558
  510MOL0     O67235   2.088   3.252   9.797  0.7438 -0.6222 -0.6766
  510MOL0     C67236   2.311   3.147   9.935  0.0440 -0.0420 -0.1053
  510MOL0     C67237   2.418   3.088  10.003  1.0654 -0.0141 -0.2476
  510MOL0     N67238   3.291   2.817   9.908  0.4177 -0.2133  0.4060
  510MOL0     N67239   3.419   2.819   9.903 -1.0597 -0.3245 -0.4758
  510MOL0     C67240   4.634   3.156   9.981  0.6515 -0.0422  0.3273
  510MOL0     C67241   4.725   3.239   9.910 -0.0158 -0.7000  0.2443
  510MOL0     C67242   5.120   3.296   9.679  0.0630  1.0872  0.0013
  510MOL0     C67243   5.260   3.272   9.688 -0.4636 -1.1067  0.2654
  510MOL0     C67244   5.351   3.329   9.597  0.6008  0.1490  0.0104
  510MOL0     C67245   5.310   3.423   9.507 -0.3386 -0.1550  0.3608
  510MOL0     O67246   5.414   3.474   9.435 -0.1070 -0.3983  0.2537
  510MOL0     C67247   5.410   3.583   9.336  0.2148 -0.0161  0.0550
  510MOL0     C67248   5.555   3.623   9.291 -0.1930  0.3739 -0.4918
  510MOL0     C67249   5.630   3.681   9.411 -0.2206 -0.3229 -0.4391
  510MOL0     C67250   5.563   3.808   9.487  0.1207  1.0914 -0.1084
  510MOL0     C67251   5.535   3.917   9.388 -0.1121  0.0204 -0.9499
  510MOL0     C67252   5.502   4.006   9.315  0.0212 -0.4927  0.4738
  510MOL0     C67253   5.177   3.462   9.504 -0.2020 -0.1207 -0.3304
  510MOL0     C67254   5.087   3.395   9.586 -0.1211 -0.6692 -0.1714
  510MOL0     H67255   4.801   3.009   9.677 -2.3271 -2.6236  0.3935
  510MOL0     H67256   4.639   2.872   9.803  1.4815 -0.4692  2.1145
  510MOL0     H67257   4.332   3.010   9.867  1.7228  2.1841  0.5742
  510MOL0     H67258   4.313   3.033  10.035  1.8256 -0.8599  0.8372
  510MOL0     H67259   4.288   2.783  10.058 -0.5784 -0.0355 -0.0839
  510MOL0     H67260   4.347   2.762   9.887  2.7092  2.9841  0.3072
  510MOL0     H67261   4.102   2.751   9.863 -1.0565  1.2921 -0.1589
  510MOL0     H67262   4.148   2.913   9.831  0.1615  1.8953  1.1681
  510MOL0     H67263   4.071   2.819  10.116  0.1779  3.3718  2.8731
  510MOL0     H67264   4.067   2.989  10.054  0.2418 -0.1169 -1.7293
  510MOL0     H67265   3.880   2.771   9.961 -2.3536 -0.6401  1.9949
  510MOL0     H67266   3.884   2.941   9.898 -0.5456  0.9849  0.4171
  510MOL0     H67267   3.831   3.030  10.118  0.2245  0.9692 -2.1703
  510MOL0     H67268   3.862   2.875  10.198  0.4192 -0.5360 -1.1300
  510MOL0     H67269   3.682   2.765  10.070  0.8740  0.0370  0.6687
  510MOL0     H67270   3.624   2.887  10.187 -3.1309  0.3291 -1.0231
  510MOL0     H67271   3.659   2.938   9.893  2.4325 -3.6819  1.5977
  510MOL0     H67272   3.628   3.053  10.028  2.8437 -0.5384 -0.0296
  510MOL0     H67273   3.370   3.045  10.129 -2.8112  0.7728 -0.7696
  510MOL0     H67274   3.126   2.971  10.156  2.2052 -0.1620  0.8056
  510MOL0     H67275   3.086   2.814  10.093 -0.2872  1.3493  1.8942
  510MOL0     H67276   3.000   2.922   9.870  1.8283  3.0653 -1.5117
  510MOL0     H67277   3.062   3.070   9.921  1.1323 -0.3212 -0.2264
  510MOL0     H67278   2.857   2.903  10.082  0.1010 -1.8519 -2.9814
  510MOL0     H67279   2.911   3.066  10.125  3.2780 -2.6428  0.2363
  510MOL0     H67280   2.756   2.993   9.867 -2.6599  0.2505  0.5371
  510MOL0     H67281   2.815   3.154   9.918 -0.3455 -0.1407 -1.3941
  510MOL0     H67282   2.653   3.235   9.802  0.8730 -1.1167  0.7018
  510MOL0     H67283   2.460   3.322   9.704  2.6188  1.8960  1.8564
  510MOL0     H67284   2.256   3.609   9.554  0.3134  0.2938 -2.6703
  510MOL0     H67285   2.099   3.705   9.358 -2.0966  0.4786 -1.1978
  510MOL0     H67286   1.699   3.535   9.325 -0.7794  1.4112 -1.1345
  510MOL0     H67287   1.787   3.452   9.189 -1.9453  1.2388 -4.2925
  510MOL0     H67288   1.774   3.642   9.059 -0.7083 -1.2984 -0.5241
  510MOL0     H67289   1.683   3.738   9.188  1.4780 -0.4758  1.9270
  510MOL0     H67290   1.585   3.483   9.045  0.5319  0.3438 -1.3218
  510MOL0     H67291   1.560   3.642   8.980 -2.8877  1.3319  1.2404
  510MOL0     H67292   1.464   3.575   9.254  0.1116 -0.1370 -0.1199
  510MOL0     H67293   1.440   3.718   9.150 -0.1407 -0.0060  1.0318
  510MOL0     H67294   1.351   3.446   9.097  0.7616  0.7530  1.6049
  510MOL0     H67295   1.327   3.578   8.977  0.2357  2.3967  0.2694
  510MOL0     H67296   1.158   3.675   9.114 -0.5172  1.5060  3.1444
  510MOL0     H67297   1.201   3.567   9.253  2.4024 -0.2666  0.1698
  510MOL0     H67298   1.106   3.470   8.979  1.8068  1.6668 -1.2385
  510MOL0     H67299   1.144   3.358   9.103 -0.4158 -1.1866 -0.9324
  510MOL0     H67300   0.922   3.593   9.124  0.9172 -0.3754 -0.5274
  510MOL0     H67301   0.941   3.454   9.228 -2.4279 -2.1954 -0.8552
  510MOL0     H67302   1.850   3.365   9.405  0.3536 -1.3691  0.3438
  510MOL0     H67303   2.008   3.271   9.576 -0.3727 -0.7333  0.4077
  510MOL0     H67304   2.216   3.109   9.970  0.4868 -1.9155 -0.8208
  510MOL0     H67305   2.408   3.017  10.084 -2.4755 -1.1603 -1.4938
  510MOL0     H67306   4.581   3.194  10.068 -1.1045 -0.4595 -0.5022
  510MOL0     H67307   4.756   3.339   9.938 -0.6482  0.1089 -1.7326
  510MOL0     H67308   5.297   3.206   9.766  2.2499  1.3057  1.2167
  510MOL0     H67309   5.457   3.306   9.592  1.1190  2.3129  0.1522
  510MOL0     H67310   5.350   3.667   9.371  1.9914  1.7791 -1.0262
  510MOL0     H67311   5.354   3.543   9.252 -0.6749 -0.0081  0.6361
  510MOL0     H67312   5.610   3.533   9.262  1.0068  1.3515 -1.3432
  510MOL0     H67313   5.554   3.701   9.214 -1.6653  2.4590  1.4868
  510MOL0     H67314   5.735   3.704   9.391 -0.5468  0.6713 -1.0914
  510MOL0     H67315   5.635   3.604   9.489  1.4016 -0.1292 -0.3110
  510MOL0     H67316   5.471   3.775   9.537  2.1821 -1.6816  2.1975
  510MOL0     H67317   5.635   3.842   9.562  1.0336  1.3017 -1.0526
  510MOL0     H67318   5.463   4.073   9.241 -0.3778 -0.7028  0.4916
  510MOL0     H67319   5.131   3.529   9.433 -2.3868  0.6772  1.7253
  510MOL0     H67320   4.982   3.417   9.571 -0.0269  2.0786  2.4071
  511MOL0     O67321   1.780   6.453   5.522  0.1827  0.5641 -0.8514
  511MOL0     C67322   1.852   6.471   5.423  0.3070  0.0666  0.6129
  511MOL0     O67323   1.794   6.500   5.300 -0.3439 -0.2052 -0.3451
  511MOL0     C67324   1.660   6.515   5.290  0.3804  0.2048  0.3147
  511MOL0     C67325   1.573   6.407   5.299 -0.0386  0.1558 -0.0933
  511MOL0     C67326   1.438   6.423   5.310 -0.6014  0.6316  0.9701
  511MOL0     C67327   1.380   6.549   5.284 -0.2720 -0.2843  0.2997
  511MOL0     O67328   1.243   6.575   5.286  0.0610 -0.3195  0.3705
  511MOL0     C67329   1.198   6.706   5.324 -0.0973  0.0989  0.4884
  511MOL0     C67330   1.056   6.692   5.383 -0.6851  0.3877 -0.1116
  511MOL0     C67331   0.954   6.702   5.271 -0.3023 -0.5149 -0.0821
  511MOL0     C67332   0.814   6.717   5.339 -0.3554 -0.1799  0.1193
  511MOL0     C67333   0.705   6.704   5.227 -0.5255 -0.3667 -0.1156
  511MOL0     C67334   0.569   6.741   5.288  0.2237 -0.2769  0.5508
  511MOL0     C67335   0.477   6.740   5.171  0.9410 -0.5546  0.1805
  511MOL0     C67336   0.466   6.866   5.089  0.3698 -0.4199  0.2861
  511MOL0     N67337   0.358   6.863   4.987  0.0915  0.5482 -0.6061
  511MOL0     C67338   0.231   6.900   5.018  0.5042  0.6175  0.2146
  511MOL0     C67339   0.175   6.923   4.895 -0.3231  0.6123 -0.3533
  511MOL0     C67340   0.034   6.960   4.865 -0.4342 -0.2655 -0.6360
  511MOL0     C67341  -0.062   6.849   4.888 -0.2339 -0.5470 -0.2667
  511MOL0     C67342  -0.096   6.822   5.036 -0.2159  0.4918 -0.2601
  511MOL0     C67343  -0.136   6.944   5.107 -0.0463 -0.2276 -0.3186
  511MOL0     O67344  -0.211   6.921   5.231 -0.0569  0.1971 -0.1473
  511MOL0     C67345  -0.348   6.949   5.230  0.7043  0.0842  0.4091
  511MOL0     C67346  -0.446   6.848   5.240  0.2539 -0.2839  0.4809
  511MOL0     C67347  -0.579   6.875   5.238  1.3300  0.5054  0.0975
  511MOL0     C67348  -0.630   7.004   5.219 -0.5883  0.6375  0.0262
  511MOL0     C67349  -0.771   7.028   5.235  0.0947  0.0263 -0.1640
  511MOL0     O67350  -0.813   7.134   5.159  0.1563 -0.0285  0.6251
  511MOL0     C67351  -0.944   7.157   5.120  0.4765  0.7467  0.3355
  511MOL0     C67352  -0.974   7.281   5.057 -0.7450  0.7250 -0.0827
  511MOL0     C67353  -1.103   7.314   5.014 -0.8479 -0.2035 -0.3871
  511MOL0     C67354  -1.207   7.219   5.036 -0.3689 -0.2844 -0.4039
  511MOL0     O67355  -1.330   7.262   5.003  0.6468  0.0117  0.0244
  511MOL0     C67356  -1.434   7.243   5.094 -0.0078 -0.6900  0.2478
  511MOL0     C67357  -1.557   7.317   5.040 -0.1125 -0.6785 -0.1235
  511MOL0     C67358  -1.630   7.244   4.923  0.0915 -0.2662  0.1297
  511MOL0     C67359  -1.717   7.336   4.836 -0.9282 -0.0817  0.0890
  511MOL0     C67360  -1.837   7.393   4.916  1.4793  0.2567 -0.3335
  511MOL0     C67361  -1.914   7.507   4.849 -0.3559 -0.3521  0.6807
  511MOL0     C67362  -2.003   7.461   4.732 -0.2856  0.7141  0.0834
  511MOL0     C67363  -2.057   7.566   4.639  0.2185  0.0750  0.4069
  511MOL0    Cl67364  -2.195   7.509   4.543  0.0467  0.1198  0.5334
  511MOL0     C67365  -1.179   7.090   5.098  0.8651  0.0383  0.7175
  511MOL0     C67366  -1.047   7.064   5.140 -0.0159 -1.4039  1.1678
  511MOL0     O67367  -0.838   6.946   5.294 -0.7595  0.2489 -0.3036
  511MOL0     C67368  -0.532   7.110   5.210 -0.4442 -0.4470 -0.0485
  511MOL0     C67369  -0.392   7.076   5.212  0.4185 -1.5391  0.6867
  511MOL0     N67370   0.263   6.887   4.793  0.5609  1.0031 -0.8770
  511MOL0     N67371   0.379   6.864   4.852  0.7668 -0.0812 -0.2347
  511MOL0     C67372   1.470   6.656   5.255 -0.6040 -0.3015  0.4247
  511MOL0     C67373   1.609   6.647   5.265  0.5883  0.2458  0.4067
  511MOL0     C67374   1.996   6.443   5.434 -0.4551  0.2829  0.7596
  511MOL0     C67375   2.045   6.407   5.560  0.6903  0.4909 -0.0109
  511MOL0     C67376   2.181   6.379   5.565 -0.2783 -0.2040  0.7223
  511MOL0     C67377   2.261   6.373   5.450  0.1655 -0.5395  0.5301
  511MOL0     O67378   2.391   6.335   5.472  0.3517 -0.4560 -0.1703
  511MOL0     C67379   2.496   6.363   5.373  0.3412  0.6913 -0.0433
  511MOL0     C67380   2.623   6.293   5.420 -0.4462  0.9067 -0.0468
  511MOL0     C67381   2.681   6.369   5.533  0.3720 -1.0752  0.2721
  511MOL0     C67382   2.803   6.311   5.601 -0.0603 -0.0550 -0.4376
  511MOL0     C67383   2.860   6.394   5.702 -0.7231 -0.5325  1.3752
  511MOL0     C67384   2.897   6.466   5.789 -0.2701  0.8219 -0.2097
  511MOL0     C67385   2.212   6.418   5.327  0.3287 -0.5121  0.7425
  511MOL0     C67386   2.080   6.452   5.318  0.9336 -0.2025  0.4674
  511MOL0     H67387   1.620   6.312   5.319 -2.0149 -1.0185 -0.7873
  511MOL0     H67388   1.378   6.339   5.343  0.1984  0.1548  1.2453
  511MOL0     H67389   1.196   6.772   5.236  1.4586  0.7570  0.9039
  511MOL0     H67390   1.267   6.756   5.393  3.3163 -2.6074 -0.6405
  511MOL0     H67391   1.034   6.761   5.465 -1.9245 -1.9843  1.7142
  511MOL0     H67392   1.047   6.597   5.438  0.3946  0.4176  0.1480
  511MOL0     H67393   0.951   6.607   5.218  1.9669 -1.7104  1.7275
  511MOL0     H67394   0.966   6.796   5.216 -2.4876 -0.3443 -0.3587
  511MOL0     H67395   0.797   6.641   5.417 -1.0758  0.1311  0.2753
  511MOL0     H67396   0.820   6.818   5.379  1.8685  0.6657 -2.1086
  511MOL0     H67397   0.702   6.604   5.184 -2.3936 -0.3306 -0.1366
  511MOL0     H67398   0.737   6.771   5.146  0.1014  1.9044  1.8661
  511MOL0     H67399   0.594   6.836   5.337  1.8252 -0.2792 -0.2000
  511MOL0     H67400   0.550   6.672   5.371  1.2402  0.9985  1.9151
  511MOL0     H67401   0.510   6.668   5.096  2.8208  0.2495  0.1926
  511MOL0     H67402   0.374   6.720   5.202  0.8860 -1.5285 -0.5979
  511MOL0     H67403   0.560   6.879   5.035  0.2314  2.0447  0.5256
  511MOL0     H67404   0.454   6.954   5.153  0.9886  0.1020 -0.3093
  511MOL0     H67405   0.183   6.900   5.116  1.1762  1.4544  0.5572
  511MOL0     H67406   0.034   7.002   4.764 -0.7739 -2.3469 -1.5324
  511MOL0     H67407   0.015   7.044   4.932  0.6964 -1.3782  1.1508
  511MOL0     H67408  -0.025   6.758   4.839  2.9056  0.7154 -0.4940
  511MOL0     H67409  -0.151   6.881   4.835  1.0901  1.0519 -1.6310
  511MOL0     H67410  -0.185   6.758   5.035 -0.0881  0.3069 -0.0697
  511MOL0     H67411  -0.009   6.777   5.085 -0.9910 -0.3764  0.3418
  511MOL0     H67412  -0.203   7.003   5.043 -2.0724  1.9787  3.4474
  511MOL0     H67413  -0.046   7.003   5.125  0.5350 -1.0005 -0.6673
  511MOL0     H67414  -0.415   6.745   5.254 -2.0383 -0.8320  1.9638
  511MOL0     H67415  -0.653   6.797   5.255  1.2228  0.5249 -0.2629
  511MOL0     H67416  -0.901   7.361   5.055 -0.2010  0.2503 -2.2844
  511MOL0     H67417  -1.133   7.413   4.981 -2.0649 -0.1275  0.8703
  511MOL0     H67418  -1.408   7.286   5.191  0.7806  0.2633 -0.3760
  511MOL0     H67419  -1.467   7.139   5.107 -1.8615 -0.0964  0.6128
  511MOL0     H67420  -1.533   7.416   5.000  0.0344 -0.8032 -0.3469
  511MOL0     H67421  -1.629   7.332   5.121 -0.0178  1.5215 -0.3651
  511MOL0     H67422  -1.698   7.169   4.963 -0.1017 -0.2221 -0.1131
  511MOL0     H67423  -1.559   7.194   4.856  3.4473  2.6534  1.1964
  511MOL0     H67424  -1.646   7.414   4.808  0.3245  0.0640  3.1617
  511MOL0     H67425  -1.739   7.272   4.750  2.1063 -0.2743 -0.6438
  511MOL0     H67426  -1.796   7.436   5.009  3.7314 -0.7355 -0.7881
  511MOL0     H67427  -1.898   7.307   4.944  2.3576  0.6604  3.4782
  511MOL0     H67428  -1.841   7.574   4.802 -0.5074  0.5093  1.6472
  511MOL0     H67429  -1.975   7.566   4.917  1.1231  0.6563  1.1821
  511MOL0     H67430  -1.953   7.397   4.659 -0.1103  1.9371 -0.9017
  511MOL0     H67431  -2.083   7.397   4.772  2.2431 -1.9428  1.2822
  511MOL0     H67432  -1.971   7.596   4.579  0.5236 -0.0890  0.7601
  511MOL0     H67433  -2.100   7.646   4.700  1.2427  0.7563  0.2599
  511MOL0     H67434  -1.256   7.014   5.109  0.1927  0.3008 -1.5736
  511MOL0     H67435  -1.039   6.970   5.194  2.8428 -0.5849  2.3758
  511MOL0     H67436  -0.570   7.211   5.207 -0.2314 -0.3744 -0.3081
  511MOL0     H67437  -0.323   7.158   5.190 -0.9130 -0.1226  1.5694
  511MOL0     H67438   1.453   6.760   5.230  2.3720 -0.3306 -2.4401
  511MOL0     H67439   1.675   6.731   5.244 -0.3945  0.9066 -0.1126
  511MOL0     H67440   1.981   6.402   5.648  1.8241 -4.0079  0.8387
  511MOL0     H67441   2.221   6.353   5.663  0.8628  2.7623  1.1408
  511MOL0     H67442   2.500   6.472   5.369 -1.6238  1.0303  3.1504
  511MOL0     H67443   2.468   6.321   5.276 -0.4009  0.2964  0.3298
  511MOL0     H67444   2.601   6.199   5.473  3.1379  1.0722  2.1066
  511MOL0     H67445   2.700   6.265   5.348 -0.3366 -2.8063  1.2977
  511MOL0     H67446   2.610   6.410   5.606 -0.0731  2.0228 -1.6988
  511MOL0     H67447   2.723   6.455   5.480  3.3026 -1.0906  2.3214
  511MOL0     H67448   2.774   6.220   5.654  0.6377  1.5119  2.8828
  511MOL0     H67449   2.879   6.289   5.525 -1.3592  0.5117 -1.9422
  511MOL0     H67450   2.935   6.526   5.869  1.1912 -2.0479  1.4361
  511MOL0     H67451   2.280   6.428   5.243 -0.8226 -0.7130 -0.2433
  511MOL0     H67452   2.025   6.477   5.227 -0.9903 -2.4673  0.9073
  512MOL0     O67453   8.765   9.849   7.880  0.0227 -0.7429 -0.0195
  512MOL0     C67454   8.820   9.959   7.908 -0.5298  0.2959 -0.5332
  512MOL0     O67455   8.783  10.049   8.004  0.2414  0.6437 -0.0841
  512MOL0     C67456   8.662  10.045   8.071  0.2090  0.3924  0.2190
  512MOL0     C67457   8.532  10.013   8.018  0.0033 -0.9910 -0.0276
  512MOL0     C67458   8.420  10.043   8.093  0.8931  0.6668 -0.3955
  512MOL0     C67459   8.432  10.111   8.218  0.3400 -0.3324 -0.6045
  512MOL0     O67460   8.320  10.141   8.296  0.2542  0.1492  0.8272
  512MOL0     C67461   8.182  10.155   8.246 -0.1562  0.4994 -0.2400
  512MOL0     C67462   8.153  10.292   8.193  1.0232 -0.6929  0.3975
  512MOL0     C67463   8.019  10.305   8.116  0.8613  0.8825 -0.2773
  512MOL0     C67464   8.028  10.443   8.051 -0.3237 -0.2794  0.4680
  512MOL0     C67465   7.914  10.459   7.943  0.0303 -0.0867 -0.5353
  512MOL0     C67466   7.781  10.468   8.004 -0.1557 -0.2545 -0.2048
  512MOL0     C67467   7.742  10.611   8.045  0.1856 -0.2911 -0.7335
  512MOL0     C67468   7.591  10.617   8.065 -0.1566 -0.2087 -0.1999
  512MOL0     N67469   7.557  10.758   8.082 -0.3305 -0.1580 -0.6596
  512MOL0     C67470   7.594  10.861   7.995 -0.4632  0.0180  0.2557
  512MOL0     C67471   7.557  10.973   8.063 -1.1893  1.0940  0.0673
  512MOL0     C67472   7.563  11.119   8.023 -0.4361 -0.4212 -0.2964
  512MOL0     C67473   7.626  11.148   7.883  0.3330  0.4198  0.0315
  512MOL0     C67474   7.564  11.089   7.758 -0.4587  0.9972 -0.4091
  512MOL0     C67475   7.417  11.107   7.745  0.2309  0.8604  0.7978
  512MOL0     O67476   7.383  11.239   7.791 -0.4685  0.0792  0.3618
  512MOL0     C67477   7.250  11.248   7.790  0.0296  1.6479  0.3078
  512MOL0     C67478   7.181  11.185   7.896 -0.1099  0.2124 -0.2800
  512MOL0     C67479   7.047  11.195   7.907 -0.0711 -0.9714 -0.3194
  512MOL0     C67480   6.971  11.274   7.811 -0.0494 -0.1526 -0.3737
  512MOL0     C67481   6.821  11.268   7.812  0.4454  0.6553 -0.2934
  512MOL0     O67482   6.753  11.328   7.708  0.7829  0.4788  0.6281
  512MOL0     C67483   6.612  11.311   7.713  0.3145 -0.6880 -0.2567
  512MOL0     C67484   6.534  11.416   7.756  0.2526 -0.1206 -0.0459
  512MOL0     C67485   6.398  11.399   7.773 -0.8853  0.0308  0.2611
  512MOL0     C67486   6.342  11.271   7.745 -0.1749 -0.0516  0.3572
  512MOL0     O67487   6.207  11.258   7.756  0.0471 -0.1741  0.5165
  512MOL0     C67488   6.129  11.369   7.702  2.0623  0.0608  0.8875
  512MOL0     C67489   5.987  11.328   7.669  0.2235  0.9209 -0.2415
  512MOL0     C67490   5.913  11.451   7.623 -0.7281 -0.3272  0.5991
  512MOL0     C67491   5.774  11.405   7.578  0.6828 -0.5579 -0.8490
  512MOL0     C67492   5.689  11.525   7.537 -0.8920  0.3914 -0.5872
  512MOL0     C67493   5.569  11.474   7.463  0.0713  0.8849 -0.7242
  512MOL0     C67494   5.466  11.402   7.546  0.1713  0.0338  0.4011
  512MOL0     C67495   5.333  11.374   7.469  0.0101 -0.1328  0.3708
  512MOL0    Cl67496   5.366  11.273   7.322  0.1419 -0.1470 -0.4719
  512MOL0     C67497   6.420  11.162   7.707  0.2752 -0.1794  0.5060
  512MOL0     C67498   6.556  11.185   7.694  0.5624 -0.5756  0.4990
  512MOL0     O67499   6.772  11.202   7.903  0.1767 -0.3124 -0.1050
  512MOL0     C67500   7.042  11.342   7.711  0.8138 -0.2439  0.0580
  512MOL0     C67501   7.183  11.325   7.697 -0.4136 -0.4313 -0.1984
  512MOL0     N67502   7.476  10.937   8.167  1.0255  1.0378 -0.0195
  512MOL0     N67503   7.486  10.805   8.182  0.3323  0.2751 -0.0703
  512MOL0     C67504   8.558  10.150   8.268 -0.6078  0.2391 -0.5751
  512MOL0     C67505   8.671  10.117   8.195  0.3097 -0.6437  0.3196
  512MOL0     C67506   8.947   9.977   7.834 -0.2681 -0.3571 -0.2134
  512MOL0     C67507   8.982   9.899   7.712 -0.8122  0.2025  0.0112
  512MOL0     C67508   9.119   9.900   7.664  0.5373 -0.4205  0.2118
  512MOL0     C67509   9.216   9.977   7.729 -0.4359  1.2840  0.7440
  512MOL0     O67510   9.347   9.999   7.690 -0.2599 -0.3258 -0.7877
  512MOL0     C67511   9.389   9.965   7.556 -0.7569  0.6793 -0.4620
  512MOL0     C67512   9.311  10.039   7.445 -0.2528  0.4791  0.3956
  512MOL0     C67513   9.315  10.190   7.469  0.4839  1.0906 -0.2867
  512MOL0     C67514   9.242  10.274   7.362  0.6518 -0.8933  0.8528
  512MOL0     C67515   9.309  10.276   7.234 -0.4857  0.3428  1.9456
  512MOL0     C67516   9.364  10.268   7.126  0.4132  0.4625  0.4060
  512MOL0     C67517   9.172  10.061   7.826 -0.3477  0.0079  0.0740
  512MOL0     C67518   9.047  10.058   7.886  0.2721 -0.0786  0.0279
  512MOL0     H67519   8.528   9.959   7.924 -1.7386 -1.4488  0.2811
  512MOL0     H67520   8.321  10.013   8.060  1.0303  2.9931 -3.3180
  512MOL0     H67521   8.115  10.148   8.331  0.0442  0.2092 -0.1043
  512MOL0     H67522   8.164  10.074   8.174 -3.0500  0.3428  0.5765
  512MOL0     H67523   8.226  10.308   8.113 -1.3944  1.2766 -1.5895
  512MOL0     H67524   8.161  10.368   8.271 -0.5753 -1.2025  1.0900
  512MOL0     H67525   7.937  10.298   8.187  0.0118  0.5163 -1.2773
  512MOL0     H67526   8.003  10.221   8.047 -1.4572 -0.1851  1.4325
  512MOL0     H67527   8.028  10.521   8.128  0.3419 -0.0639  0.2557
  512MOL0     H67528   8.121  10.456   7.995 -0.6658  0.3452  0.0279
  512MOL0     H67529   7.911  10.367   7.884  0.4189 -0.3583 -0.1361
  512MOL0     H67530   7.925  10.541   7.872  0.5501 -0.6795 -1.1554
  512MOL0     H67531   7.769  10.387   8.076 -1.2763  0.3315  0.2822
  512MOL0     H67532   7.718  10.436   7.920  1.5367  0.6383 -1.8969
  512MOL0     H67533   7.800  10.640   8.133 -1.7415  0.0446  0.4833
  512MOL0     H67534   7.759  10.683   7.965 -2.0345 -0.5746 -1.5196
  512MOL0     H67535   7.562  10.564   8.156 -2.4263  0.4604 -0.4689
  512MOL0     H67536   7.538  10.568   7.983  0.6393  1.2034 -1.6116
  512MOL0     H67537   7.644  10.861   7.899  1.1928 -1.9994  1.0363
  512MOL0     H67538   7.630  11.166   8.095  1.5664 -1.9175 -1.1091
  512MOL0     H67539   7.464  11.164   8.032 -0.3522 -0.1417 -0.7203
  512MOL0     H67540   7.734  11.130   7.887  0.1593 -0.3778  2.0062
  512MOL0     H67541   7.628  11.255   7.861 -0.4923  0.7152  1.3136
  512MOL0     H67542   7.612  11.124   7.666 -0.2730 -0.3480 -0.8377
  512MOL0     H67543   7.582  10.981   7.760 -1.5369  0.8049 -0.8399
  512MOL0     H67544   7.370  11.036   7.814 -0.5755 -1.7107 -2.1839
  512MOL0     H67545   7.380  11.092   7.643  0.7211  1.8828  0.4566
  512MOL0     H67546   7.236  11.120   7.963  2.1792  0.8337 -1.4587
  512MOL0     H67547   7.007  11.138   7.990  0.9839  0.0317  0.9426
  512MOL0     H67548   6.593  11.506   7.769 -0.2550  0.1453  0.4834
  512MOL0     H67549   6.349  11.491   7.801 -1.0370 -0.1284  0.5170
  512MOL0     H67550   6.171  11.420   7.615 -0.3488 -1.1378 -1.1334
  512MOL0     H67551   6.132  11.453   7.773 -2.0002  0.4233  0.8640
  512MOL0     H67552   5.944  11.290   7.762  0.0520 -0.0688 -0.7178
  512MOL0     H67553   6.001  11.257   7.587 -0.0621  0.3863  0.1689
  512MOL0     H67554   5.970  11.492   7.539  2.7335 -0.1204  2.8413
  512MOL0     H67555   5.904  11.521   7.706 -1.1307 -1.9220  1.9578
  512MOL0     H67556   5.770  11.335   7.494 -0.0058 -2.8167  0.9448
  512MOL0     H67557   5.725  11.365   7.667  1.7969  0.5450  0.3085
  512MOL0     H67558   5.745  11.588   7.468  2.3559 -0.6889  0.8503
  512MOL0     H67559   5.662  11.583   7.625  0.5573  1.4791 -0.8301
  512MOL0     H67560   5.595  11.414   7.375 -1.5607 -2.2306  0.7313
  512MOL0     H67561   5.511  11.554   7.418 -2.5551 -0.5705 -0.1660
  512MOL0     H67562   5.510  11.303   7.560  1.5679  0.2490 -2.0311
  512MOL0     H67563   5.433  11.456   7.636  1.5101  1.4960  0.0560
  512MOL0     H67564   5.292  11.471   7.441 -0.8808 -0.6899 -0.3190
  512MOL0     H67565   5.263  11.323   7.536 -0.3045 -2.8585 -1.8182
  512MOL0     H67566   6.384  11.061   7.692 -1.6166  0.8500 -2.7704
  512MOL0     H67567   6.615  11.095   7.681 -0.1288 -1.5951  3.6707
  512MOL0     H67568   6.985  11.397   7.636 -0.6944 -3.3443 -1.2781
  512MOL0     H67569   7.246  11.366   7.619  1.7564 -2.8215  0.1635
  512MOL0     H67570   8.579  10.205   8.359  0.7208 -0.6812 -0.2861
  512MOL0     H67571   8.772  10.152   8.214 -0.8215  2.4096  1.4001
  512MOL0     H67572   8.903   9.845   7.662 -0.2894 -1.1234  0.5825
  512MOL0     H67573   9.139   9.837   7.578  1.7788 -2.6392  2.0080
  512MOL0     H67574   9.387   9.858   7.533  0.8622  0.2703  1.1220
  512MOL0     H67575   9.491  10.004   7.553 -1.0684  1.9986  2.6702
  512MOL0     H67576   9.375  10.035   7.355  1.0259  2.0600  1.1673
  512MOL0     H67577   9.211  10.003   7.422 -0.5177  1.3346  0.1451
  512MOL0     H67578   9.419  10.226   7.472  0.7070  0.9462 -3.5221
  512MOL0     H67579   9.268  10.215   7.565 -0.3086  0.1437 -0.4133
  512MOL0     H67580   9.136  10.247   7.348  0.7830 -0.7537 -0.5373
  512MOL0     H67581   9.228  10.380   7.383  2.0616  0.1060 -2.5759
  512MOL0     H67582   9.429  10.256   7.042  1.9399  2.5900  1.1898
  512MOL0     H67583   9.243  10.129   7.873 -1.8511 -0.8750  4.0981
  512MOL0     H67584   9.039  10.137   7.960 -0.9016  1.1055 -1.3142
  513MOL0     O67585   7.938   5.472  10.517  0.2105 -0.4839 -0.4053
  513MOL0     C67586   7.914   5.486  10.394 -0.1844 -0.3134  0.3397
  513MOL0     O67587   8.000   5.502  10.293  0.0631  0.3254  0.7170
  513MOL0     C67588   8.138   5.499  10.316 -0.2944 -0.0558 -0.0561
  513MOL0     C67589   8.184   5.371  10.295 -0.2982  0.7190  0.3635
  513MOL0     C67590   8.323   5.338  10.293 -0.2624  0.0745  0.9887
  513MOL0     C67591   8.417   5.440  10.308  0.5453  0.5869 -0.1601
  513MOL0     O67592   8.541   5.393  10.337 -0.3648 -0.8778  0.3525
  513MOL0     C67593   8.654   5.492  10.316 -0.0451 -0.0900 -0.6693
  513MOL0     C67594   8.784   5.418  10.350 -0.0993 -0.0194  0.1607
  513MOL0     C67595   8.916   5.495  10.335  0.4334  0.6627  0.2321
  513MOL0     C67596   8.928   5.552  10.190  0.3736  0.3175 -0.0026
  513MOL0     C67597   9.060   5.627  10.161  0.4707  0.3370  0.4015
  513MOL0     C67598   9.158   5.541  10.098  0.1194 -0.1598  0.6061
  513MOL0     C67599   9.303   5.600  10.086 -0.1736 -0.9225 -0.1291
  513MOL0     C67600   9.397   5.519  10.002 -0.9971  0.2076  0.5487
  513MOL0     N67601   9.527   5.591   9.983  0.1395  0.7318 -0.6196
  513MOL0     C67602   9.631   5.599  10.068 -0.0221  0.1960  0.3671
  513MOL0     C67603   9.726   5.672   9.997  0.6263 -0.1742  0.3846
  513MOL0     C67604   9.859   5.687  10.045 -0.1710  0.2368  0.0206
  513MOL0     C67605   9.911   5.831  10.025 -0.4792 -1.2125 -0.7772
  513MOL0     C67606  10.050   5.862  10.089  0.0529 -0.5805  0.2694
  513MOL0     C67607  10.111   5.992  10.058  0.0843  0.4754 -0.4473
  513MOL0     O67608  10.215   6.024  10.151  0.0218 -0.0062 -0.6285
  513MOL0     C67609  10.344   6.008  10.101  0.0139  0.4856 -0.6802
  513MOL0     C67610  10.436   6.080  10.170  0.7740  0.3541 -0.5414
  513MOL0     C67611  10.567   6.084  10.123 -1.0171 -0.1838  0.0857
  513MOL0     C67612  10.604   6.013  10.008  0.1731 -0.0730 -0.0291
  513MOL0     C67613  10.747   6.011   9.959  0.2443 -0.3716  0.6704
  513MOL0     O67614  10.835   6.082  10.031 -1.4060  0.6447 -0.4543
  513MOL0     C67615  10.966   6.106   9.986  0.0233  0.3266  0.3995
  513MOL0     C67616  11.068   6.079  10.082  0.1224  0.8489  0.7841
  513MOL0     C67617  11.201   6.073  10.054  0.6428  0.9152  0.5888
  513MOL0     C67618  11.251   6.118   9.934  0.1947 -0.3824 -0.5718
  513MOL0     O67619  11.392   6.117   9.919 -0.5144 -0.1904  0.1391
  513MOL0     C67620  11.452   6.170   9.799 -0.5750  0.8037 -0.1295
  513MOL0     C67621  11.608   6.144   9.827  0.2099 -0.0277 -0.7306
  513MOL0     C67622  11.699   6.222   9.723 -0.3357  0.3795 -0.3820
  513MOL0     C67623  11.699   6.147   9.589  0.4361  0.2313 -0.1851
  513MOL0     C67624  11.748   6.233   9.474 -0.9988  0.4356 -0.2454
  513MOL0     C67625  11.886   6.292   9.504 -0.3159  0.3314  0.7396
  513MOL0     C67626  11.923   6.387   9.385 -0.2591  0.1605  0.0901
  513MOL0     C67627  12.060   6.447   9.414  1.2216  0.0535  0.3385
  513MOL0    Cl67628  12.091   6.573   9.290 -0.3456 -0.0930 -0.5651
  513MOL0     C67629  11.158   6.157   9.838 -0.8353 -0.0023 -0.9005
  513MOL0     C67630  11.018   6.147   9.858  1.1469 -0.0754 -0.4477
  513MOL0     O67631  10.770   5.948   9.855  1.1687  0.1871  0.1134
  513MOL0     C67632  10.509   5.937   9.942 -0.2130 -0.6946 -0.5121
  513MOL0     C67633  10.381   5.928   9.988 -0.0392 -0.3350  0.2384
  513MOL0     N67634   9.673   5.716   9.885  0.3424  0.5050  0.1882
  513MOL0     N67635   9.549   5.666   9.879 -0.0339  0.3725 -0.4443
  513MOL0     C67636   8.371   5.571  10.312 -0.3886 -0.9537 -0.8442
  513MOL0     C67637   8.234   5.605  10.315  0.5381  0.2911  0.8803
  513MOL0     C67638   7.773   5.472  10.355  0.7931 -0.0989 -0.5009
  513MOL0     C67639   7.749   5.404  10.239 -0.5834  0.8141  0.0845
  513MOL0     C67640   7.612   5.380  10.195 -0.8426 -0.4092 -0.6397
  513MOL0     C67641   7.506   5.430  10.264  0.1045  0.5274 -0.5468
  513MOL0     O67642   7.384   5.389  10.210 -0.4591  0.0739 -0.2749
  513MOL0     C67643   7.259   5.460  10.242 -1.4971 -0.5714 -0.1292
  513MOL0     C67644   7.255   5.593  10.168 -0.3585  0.1050 -0.3197
  513MOL0     C67645   7.270   5.580  10.015 -0.3440 -0.0230  0.1537
  513MOL0     C67646   7.133   5.605   9.950 -0.1357  0.1858 -0.9555
  513MOL0     C67647   7.043   5.494   9.989  0.8371 -0.7997 -1.0797
  513MOL0     C67648   6.965   5.404  10.009  0.3130 -0.3571  0.1684
  513MOL0     C67649   7.529   5.511  10.376  0.6476  0.7733  0.5091
  513MOL0     C67650   7.659   5.523  10.422  0.0269 -0.7656  0.1312
  513MOL0     H67651   8.119   5.305  10.238 -0.7652  3.3510 -2.4807
  513MOL0     H67652   8.348   5.235  10.272  0.2583  0.1414  1.2635
  513MOL0     H67653   8.638   5.576  10.384 -0.4350 -0.2811 -0.5267
  513MOL0     H67654   8.659   5.534  10.215 -0.3154  0.7028 -0.3597
  513MOL0     H67655   8.789   5.336  10.277  0.7453  0.1940 -0.0293
  513MOL0     H67656   8.777   5.372  10.449  0.4693 -0.3173  0.0714
  513MOL0     H67657   9.002   5.431  10.358  0.3645  0.3141 -0.4608
  513MOL0     H67658   8.913   5.571  10.413 -0.5902  0.4929  0.3693
  513MOL0     H67659   8.920   5.468  10.120 -2.6640  0.1432  0.4420
  513MOL0     H67660   8.844   5.622  10.183  1.3114  1.5966  0.8794
  513MOL0     H67661   9.107   5.664  10.252  1.7658 -0.2531 -0.0067
  513MOL0     H67662   9.039   5.713  10.098  0.6260  0.7243  0.8739
  513MOL0     H67663   9.108   5.523  10.002  0.0148  1.0390  0.4210
  513MOL0     H67664   9.177   5.444  10.145  0.7898  0.3245  1.3603
  513MOL0     H67665   9.303   5.701  10.043  2.8578 -1.0662 -0.6304
  513MOL0     H67666   9.349   5.604  10.186  0.0284  1.3719 -0.2625
  513MOL0     H67667   9.352   5.498   9.904  0.1014 -0.8007  0.2389
  513MOL0     H67668   9.412   5.420  10.045  0.9959  1.2815  2.5027
  513MOL0     H67669   9.645   5.549  10.163  0.6350  0.8809  0.6347
  513MOL0     H67670   9.930   5.619   9.999  1.2151  2.6970 -1.7415
  513MOL0     H67671   9.855   5.649  10.147 -1.8224 -2.4659 -0.9380
  513MOL0     H67672   9.838   5.904  10.063 -2.2533 -2.0583 -2.3705
  513MOL0     H67673   9.915   5.855   9.918 -1.8290  0.4961 -0.4852
  513MOL0     H67674  10.039   5.851  10.197 -0.1286 -4.7855 -0.0326
  513MOL0     H67675  10.115   5.783  10.051 -0.3061  0.2966 -2.3846
  513MOL0     H67676  10.029   6.065  10.064  0.1260  0.7033 -2.0824
  513MOL0     H67677  10.151   5.994   9.956  0.8603 -0.4336 -0.1754
  513MOL0     H67678  10.395   6.140  10.251 -2.6015 -0.2744 -1.6358
  513MOL0     H67679  10.634   6.157  10.169 -0.8871 -0.8134  0.9144
  513MOL0     H67680  11.018   6.042  10.171 -0.6199 -1.9953 -0.7002
  513MOL0     H67681  11.269   6.028  10.126 -2.2448 -3.5534  0.9042
  513MOL0     H67682  11.434   6.277   9.785 -3.1267  0.6601  1.4890
  513MOL0     H67683  11.431   6.109   9.711  0.2634 -0.9355  0.8376
  513MOL0     H67684  11.630   6.038   9.812 -1.0270 -0.5439  0.8192
  513MOL0     H67685  11.636   6.174   9.928 -2.1743 -0.7723  0.2319
  513MOL0     H67686  11.801   6.224   9.764 -0.2558  1.3410 -0.6015
  513MOL0     H67687  11.678   6.329   9.722  0.6760  0.6244  1.0883
  513MOL0     H67688  11.736   6.044   9.596 -0.4436 -0.0338  0.9135
  513MOL0     H67689  11.592   6.129   9.572  0.8945 -4.1198  0.3766
  513MOL0     H67690  11.684   6.319   9.451 -1.4099  0.7917  1.9995
  513MOL0     H67691  11.754   6.180   9.378 -0.1665  2.4768 -1.3876
  513MOL0     H67692  11.963   6.219   9.530  1.2425  1.5896 -0.1675
  513MOL0     H67693  11.875   6.369   9.582  3.3742  1.0463  0.7349
  513MOL0     H67694  11.918   6.336   9.288 -0.3909  1.4511 -0.6186
  513MOL0     H67695  11.851   6.470   9.382 -0.7758 -0.2672  0.5299
  513MOL0     H67696  12.130   6.364   9.401  1.8543  0.7180 -0.6174
  513MOL0     H67697  12.067   6.488   9.515 -2.3703 -0.4873  0.9276
  513MOL0     H67698  11.200   6.184   9.741  2.0432 -1.0938 -0.0766
  513MOL0     H67699  10.940   6.167   9.786 -0.8117 -0.9418  1.3432
  513MOL0     H67700  10.540   5.880   9.854 -2.1632 -2.0708 -0.3713
  513MOL0     H67701  10.310   5.864   9.937  2.9295 -2.3369 -1.6782
  513MOL0     H67702   8.443   5.652  10.302 -0.3642 -0.8407  0.1461
  513MOL0     H67703   8.205   5.709  10.308  1.2603  0.3973 -0.8398
  513MOL0     H67704   7.815   5.367  10.162  0.4367  0.9891  0.8578
  513MOL0     H67705   7.594   5.322  10.105  1.5970  1.3835 -2.4073
  513MOL0     H67706   7.246   5.489  10.347  2.1255 -0.7039  0.4956
  513MOL0     H67707   7.180   5.393  10.209  1.6118 -3.5846 -2.1632
  513MOL0     H67708   7.171   5.655  10.200  1.8911  4.4447 -1.9830
  513MOL0     H67709   7.343   5.648  10.203  0.0114 -0.2158 -0.7234
  513MOL0     H67710   7.316   5.483   9.992 -0.2941 -0.7647  3.0419
  513MOL0     H67711   7.334   5.667   9.996 -2.2535  2.4413  3.7236
  513MOL0     H67712   7.088   5.697   9.986 -0.8910  0.3359 -2.2519
  513MOL0     H67713   7.139   5.614   9.842 -2.1177 -0.5600 -1.1773
  513MOL0     H67714   6.896   5.322  10.019 -0.2978  0.2028  0.6661
  513MOL0     H67715   7.454   5.572  10.426 -0.3139  0.8136 -0.9443
  513MOL0     H67716   7.662   5.588  10.508 -4.8685  0.7539 -0.5090
  514MOL0     O67717   8.441   0.860   7.186  0.3359 -0.3495 -0.1382
  514MOL0     C67718   8.459   0.830   7.307 -0.1776 -0.1573  0.6495
  514MOL0     O67719   8.375   0.750   7.382  0.0251  0.2058  0.2769
  514MOL0     C67720   8.246   0.729   7.336 -0.4085  0.7387 -1.1019
  514MOL0     C67721   8.137   0.770   7.413  0.0389  0.4260  0.1840
  514MOL0     C67722   8.009   0.732   7.397  0.1704 -0.3229  0.7145
  514MOL0     C67723   7.978   0.636   7.308  0.2239  0.4215 -0.2490
  514MOL0     O67724   7.846   0.595   7.308 -0.3444  0.1569  0.0609
  514MOL0     C67725   7.827   0.484   7.220  0.4177  0.0534 -0.1589
  514MOL0     C67726   7.668   0.466   7.215 -0.6984 -0.2395 -0.2088
  514MOL0     C67727   7.589   0.587   7.152 -1.1543 -0.0974 -0.6260
  514MOL0     C67728   7.450   0.600   7.191  0.0662  0.4367  0.3463
  514MOL0     C67729   7.364   0.625   7.069 -0.4069 -0.0662  0.2403
  514MOL0     C67730   7.220   0.628   7.101  0.8102 -0.1050 -0.0758
  514MOL0     C67731   7.132   0.663   6.983  0.8268  0.1928  0.7322
  514MOL0     C67732   6.996   0.651   7.036  0.6764 -0.1168 -0.4160
  514MOL0     N67733   6.897   0.643   6.933 -0.3706 -0.8051 -0.1516
  514MOL0     C67734   6.814   0.539   6.918  0.2331  0.3560  0.0352
  514MOL0     C67735   6.710   0.592   6.865  1.0119  0.9196 -0.4325
  514MOL0     C67736   6.572   0.525   6.845 -0.5719  0.2553 -0.0333
  514MOL0     C67737   6.596   0.409   6.754  0.0784 -0.4132 -0.1425
  514MOL0     C67738   6.627   0.438   6.604 -0.4719 -0.2022 -0.2688
  514MOL0     C67739   6.617   0.315   6.516  0.7222  1.0575 -0.6937
  514MOL0     O67740   6.481   0.269   6.510  0.4288 -0.1174  0.1797
  514MOL0     C67741   6.400   0.355   6.437 -0.0576  0.1391  0.2459
  514MOL0     C67742   6.421   0.369   6.296  0.8301 -0.3712 -0.0968
  514MOL0     C67743   6.333   0.443   6.216 -0.8047  0.5870 -0.3151
  514MOL0     C67744   6.224   0.513   6.278  0.0313 -1.6466 -0.0880
  514MOL0     C67745   6.138   0.593   6.195 -1.0712  0.3356  0.1323
  514MOL0     O67746   6.030   0.649   6.265 -0.4235 -0.3436 -0.1161
  514MOL0     C67747   5.926   0.724   6.210 -0.3645  0.0949 -0.8223
  514MOL0     C67748   5.926   0.782   6.092  0.4616  0.4965  0.0483
  514MOL0     C67749   5.814   0.835   6.042 -0.0698  0.1557 -0.6194
  514MOL0     C67750   5.698   0.848   6.117  0.8480 -0.3314  0.6735
  514MOL0     O67751   5.589   0.905   6.054 -0.0976 -0.1110  0.6403
  514MOL0     C67752   5.506   0.981   6.142 -0.1140 -0.7166 -0.5170
  514MOL0     C67753   5.396   1.062   6.062  0.0317 -0.1760 -0.3137
  514MOL0     C67754   5.283   1.095   6.164  0.3071 -0.1156  0.6174
  514MOL0     C67755   5.186   1.201   6.115 -0.5705  0.2813  0.8531
  514MOL0     C67756   5.068   1.217   6.208  0.4875 -0.5295 -0.6342
  514MOL0     C67757   4.966   1.328   6.159 -0.1324  0.1772 -0.8872
  514MOL0     C67758   4.840   1.317   6.232 -0.1463  0.0275  0.6024
  514MOL0     C67759   4.735   1.421   6.181  0.4375 -0.7179 -0.7601
  514MOL0    Cl67760   4.582   1.399   6.275  0.3565  0.5754 -0.2059
  514MOL0     C67761   5.696   0.784   6.246  0.2278  0.0934  0.5511
  514MOL0     C67762   5.814   0.720   6.288  0.3089  0.1721 -0.1528
  514MOL0     O67763   6.163   0.612   6.074  0.0912  0.5693 -0.5317
  514MOL0     C67764   6.210   0.498   6.417  0.6604  0.2023 -0.2577
  514MOL0     C67765   6.299   0.423   6.497 -0.3176  0.8593  0.1794
  514MOL0     N67766   6.729   0.724   6.831 -0.3352  0.7679  0.5127
  514MOL0     N67767   6.848   0.755   6.876  0.2210  0.6680 -0.0468
  514MOL0     C67768   8.084   0.594   7.219 -0.0570  1.1668 -0.6955
  514MOL0     C67769   8.217   0.630   7.237  0.9909  0.1483 -0.5086
  514MOL0     C67770   8.570   0.880   7.378 -0.0556  0.1846 -0.7066
  514MOL0     C67771   8.571   0.897   7.514  0.8173  0.8492  0.6779
  514MOL0     C67772   8.687   0.952   7.583  0.5068 -0.0160 -0.7606
  514MOL0     C67773   8.801   0.994   7.513  0.0095  0.3814 -0.4404
  514MOL0     O67774   8.906   1.036   7.590  0.4577  0.1898 -0.0010
  514MOL0     C67775   9.018   1.090   7.522 -0.0028 -0.7577 -0.3523
  514MOL0     C67776   9.113   1.164   7.617 -0.3090 -0.1845 -0.0529
  514MOL0     C67777   9.164   1.059   7.716 -0.1239  0.0443 -0.0037
  514MOL0     C67778   9.194   1.138   7.851  0.0540  0.0611 -0.2349
  514MOL0     C67779   9.255   1.046   7.954 -0.8169 -0.3073 -0.6755
  514MOL0     C67780   9.320   0.962   8.019 -0.3988 -0.4711  0.5507
  514MOL0     C67781   8.797   0.972   7.368 -0.1971 -0.5267 -0.0629
  514MOL0     C67782   8.685   0.916   7.304  0.1481  0.6503  0.2667
  514MOL0     H67783   8.176   0.827   7.497 -0.3433 -2.0055  2.0998
  514MOL0     H67784   7.923   0.769   7.451  0.5367 -0.8527  1.6921
  514MOL0     H67785   7.881   0.402   7.268  1.3102  0.0096 -1.2137
  514MOL0     H67786   7.870   0.502   7.121  2.5733  0.4745  0.8009
  514MOL0     H67787   7.648   0.472   7.322  3.8790  1.2596  0.7711
  514MOL0     H67788   7.634   0.370   7.175  0.7492 -1.1098  0.5976
  514MOL0     H67789   7.607   0.592   7.044 -0.8131  1.5804 -0.5226
  514MOL0     H67790   7.639   0.679   7.185  0.6116 -0.3443 -2.4128
  514MOL0     H67791   7.425   0.507   7.243  1.5029  0.0695  0.4250
  514MOL0     H67792   7.433   0.682   7.261 -2.1031 -0.0662  0.4990
  514MOL0     H67793   7.375   0.552   6.988 -1.1787 -0.8827  0.8521
  514MOL0     H67794   7.393   0.718   7.019  1.8536 -0.8941 -0.0940
  514MOL0     H67795   7.189   0.700   7.177 -0.7867  2.1676 -2.7024
  514MOL0     H67796   7.204   0.527   7.140  0.3389 -0.2913 -0.7381
  514MOL0     H67797   7.159   0.768   6.966  2.9601 -0.6567 -1.8267
  514MOL0     H67798   7.147   0.604   6.893 -0.3718  0.8666  0.0540
  514MOL0     H67799   6.968   0.723   7.114 -2.5128 -1.7839  0.1833
  514MOL0     H67800   6.997   0.556   7.090 -0.1174  0.4481  0.6350
  514MOL0     H67801   6.824   0.439   6.960  2.3461  0.2766 -0.5337
  514MOL0     H67802   6.487   0.583   6.808 -2.0575 -0.3510  2.2349
  514MOL0     H67803   6.539   0.477   6.937  0.0288 -5.4804 -2.3649
  514MOL0     H67804   6.501   0.354   6.756 -0.8380  1.0465  2.8942
  514MOL0     H67805   6.673   0.344   6.797 -0.3092 -0.5751  0.3280
  514MOL0     H67806   6.563   0.518   6.566  1.9389  1.4645 -1.0381
  514MOL0     H67807   6.729   0.474   6.599 -1.2984  2.9126  2.1803
  514MOL0     H67808   6.680   0.232   6.552 -0.6578  0.4067  0.2758
  514MOL0     H67809   6.639   0.344   6.413 -4.1496  3.5218 -1.3191
  514MOL0     H67810   6.488   0.313   6.231 -0.2497  2.4732 -4.0588
  514MOL0     H67811   6.353   0.440   6.109  1.1987 -0.8014  0.0346
  514MOL0     H67812   6.009   0.778   6.023  0.0305  1.6305 -0.5698
  514MOL0     H67813   5.802   0.875   5.941 -4.8675 -1.5591 -0.9527
  514MOL0     H67814   5.559   1.054   6.205  0.4384 -0.2793 -1.4751
  514MOL0     H67815   5.454   0.906   6.203  1.1898 -0.7144  0.6343
  514MOL0     H67816   5.361   1.002   5.978  1.5536  0.8616 -1.7583
  514MOL0     H67817   5.436   1.154   6.018 -2.9414  0.4660 -1.9575
  514MOL0     H67818   5.322   1.145   6.254 -3.0313 -1.2275  2.8645
  514MOL0     H67819   5.229   1.004   6.192 -0.9178 -0.6966 -3.0783
  514MOL0     H67820   5.244   1.292   6.094  0.1522 -0.6365 -1.5598
  514MOL0     H67821   5.151   1.173   6.015  0.1397 -1.9441  1.1857
  514MOL0     H67822   5.109   1.255   6.302 -0.6614 -0.8982  0.0420
  514MOL0     H67823   5.007   1.128   6.224  0.8976 -0.9141 -1.1648
  514MOL0     H67824   4.949   1.325   6.051  1.3781  0.8486 -1.1638
  514MOL0     H67825   5.010   1.426   6.180 -0.1144  1.7255 -6.4180
  514MOL0     H67826   4.814   1.210   6.236  1.8673 -0.4985  0.8451
  514MOL0     H67827   4.859   1.340   6.337  0.6021  2.0526  0.0590
  514MOL0     H67828   4.718   1.404   6.075 -1.1102  0.1568 -0.6725
  514MOL0     H67829   4.778   1.522   6.188 -2.3972  0.5897 -0.7594
  514MOL0     H67830   5.606   0.777   6.305 -0.4729  0.7633 -0.4076
  514MOL0     H67831   5.816   0.668   6.384 -0.4944  2.3680  1.1232
  514MOL0     H67832   6.135   0.552   6.474  1.2378  1.7549 -0.9176
  514MOL0     H67833   6.294   0.415   6.605  0.4744 -1.5438  0.1018
  514MOL0     H67834   8.073   0.534   7.130  2.8265 -1.1263  0.3430
  514MOL0     H67835   8.288   0.602   7.160  0.3479 -1.1611 -0.6647
  514MOL0     H67836   8.484   0.877   7.576  0.4939 -2.2794 -0.5940
  514MOL0     H67837   8.685   0.962   7.691 -2.9681  2.0354 -0.8503
  514MOL0     H67838   8.993   1.165   7.446 -0.7703  1.0874  1.6109
  514MOL0     H67839   9.072   1.017   7.462  2.4804  1.3342 -0.8602
  514MOL0     H67840   9.205   1.205   7.573  0.1768  1.3521  2.2095
  514MOL0     H67841   9.077   1.256   7.662  0.8925  0.4187 -0.2727
  514MOL0     H67842   9.249   1.004   7.674  1.1580  0.5545  1.8085
  514MOL0     H67843   9.091   0.979   7.730 -0.4145 -0.5880 -3.9295
  514MOL0     H67844   9.260   1.223   7.832 -0.6074  0.8412  0.8268
  514MOL0     H67845   9.103   1.171   7.901  0.7803  0.5987  0.7692
  514MOL0     H67846   9.380   0.889   8.069 -0.5027 -1.3013 -0.4940
  514MOL0     H67847   8.887   0.991   7.312  0.1448 -1.4528  0.1585
  514MOL0     H67848   8.689   0.906   7.196  0.8131  3.6451 -0.0642
  515MOL0     O67849   6.369   4.146   1.080 -0.6747  0.3142  0.1493
  515MOL0     C67850   6.393   4.156   1.203  0.2307 -0.6734 -0.0036
  515MOL0     O67851   6.499   4.217   1.259 -0.6139  0.6164  0.9402
  515MOL0     C67852   6.591   4.263   1.169 -0.2474  0.2809 -0.2007
  515MOL0     C67853   6.646   4.395   1.186  0.3202  0.1467  0.6563
  515MOL0     C67854   6.751   4.440   1.099 -0.0071  0.8099  0.2977
  515MOL0     C67855   6.797   4.354   0.994  0.8179 -0.8189 -0.1435
  515MOL0     O67856   6.897   4.384   0.914 -0.3405 -0.9925 -0.6641
  515MOL0     C67857   6.981   4.495   0.959 -0.3839  0.3520 -0.2353
  515MOL0     C67858   7.117   4.475   0.893  0.1025  0.0572  0.7154
  515MOL0     C67859   7.215   4.584   0.945 -0.5003  0.3275  0.3459
  515MOL0     C67860   7.350   4.569   0.878 -0.3342 -0.5106 -0.0476
  515MOL0     C67861   7.353   4.638   0.749 -0.0846 -0.3306  0.0440
  515MOL0     C67862   7.478   4.598   0.665 -0.0745 -0.2792  0.7638
  515MOL0     C67863   7.475   4.655   0.530  1.1196  0.6279  0.4132
  515MOL0     C67864   7.601   4.638   0.444  0.3229  0.5939 -1.1058
  515MOL0     N67865   7.634   4.497   0.443 -0.5270 -0.0046 -0.4436
  515MOL0     C67866   7.552   4.389   0.417  0.4552 -0.6358  1.2078
  515MOL0     C67867   7.631   4.292   0.405 -0.1373  0.2895  1.0654
  515MOL0     C67868   7.592   4.151   0.364  0.2188  0.2174 -0.1360
  515MOL0     C67869   7.522   4.078   0.471 -0.0126  0.6606 -0.2202
  515MOL0     C67870   7.499   3.927   0.441  0.2207  0.1435 -0.3683
  515MOL0     C67871   7.453   3.847   0.561  0.2642  1.0185 -0.8065
  515MOL0     O67872   7.412   3.711   0.529 -0.7987 -0.3542 -0.3881
  515MOL0     C67873   7.501   3.610   0.540  0.1619 -0.7791  0.0051
  515MOL0     C67874   7.635   3.628   0.557 -0.6166  0.1278  0.1540
  515MOL0     C67875   7.720   3.516   0.552  0.2276 -0.8685 -0.9031
  515MOL0     C67876   7.674   3.389   0.524  0.5937 -0.4452  0.2228
  515MOL0     C67877   7.767   3.276   0.516 -0.2529  0.8234 -0.0373
  515MOL0     O67878   7.905   3.304   0.526 -0.0548  0.0046 -0.3322
  515MOL0     C67879   8.009   3.208   0.504 -0.4338  0.1156  0.4356
  515MOL0     C67880   8.128   3.231   0.573 -0.8688  0.5464 -0.3781
  515MOL0     C67881   8.241   3.144   0.535 -0.0355 -0.6597  0.3721
  515MOL0     C67882   8.238   3.054   0.423 -0.0942 -1.0433 -0.2877
  515MOL0     O67883   8.338   2.989   0.358 -0.0559 -0.5014 -0.0296
  515MOL0     C67884   8.471   2.996   0.413 -0.0356  0.7658  0.1729
  515MOL0     C67885   8.554   2.909   0.326 -0.4720 -0.1239  0.4157
  515MOL0     C67886   8.707   2.909   0.343 -0.0223 -0.2764  0.0128
  515MOL0     C67887   8.763   2.797   0.261  0.1424 -0.1363 -0.7553
  515MOL0     C67888   8.912   2.808   0.250  0.1623  0.5654 -0.9726
  515MOL0     C67889   8.960   2.691   0.170  0.5307 -0.0983  0.5409
  515MOL0     C67890   9.110   2.717   0.132  0.6468  0.8784 -0.1889
  515MOL0     C67891   9.169   2.599   0.066  0.6944  0.2676  0.2409
  515MOL0    Cl67892   9.328   2.661   0.010 -0.2592  0.5184 -0.1417
  515MOL0     C67893   8.121   3.044   0.359  0.5417  0.2293  0.8878
  515MOL0     C67894   8.005   3.112   0.396  0.1816  0.3274 -0.3367
  515MOL0     O67895   7.723   3.158   0.506 -0.0304 -0.1617  0.3561
  515MOL0     C67896   7.528   3.371   0.500  0.2631 -0.2099  0.4266
  515MOL0     C67897   7.446   3.482   0.515  0.0850  0.2400  0.0246
  515MOL0     N67898   7.763   4.331   0.420 -0.0052  0.0721  0.4274
  515MOL0     N67899   7.762   4.457   0.445 -0.7664  0.2892  0.2266
  515MOL0     C67900   6.742   4.226   0.974  0.3350 -0.9562 -0.3315
  515MOL0     C67901   6.647   4.180   1.066 -0.1506  0.6687  0.1156
  515MOL0     C67902   6.290   4.099   1.295 -0.2241 -0.1955  0.4881
  515MOL0     C67903   6.310   4.100   1.435 -0.3011  0.1924 -0.4596
  515MOL0     C67904   6.211   4.040   1.525  0.3450 -0.2886  0.0984
  515MOL0     C67905   6.095   3.993   1.465  0.4247 -0.6821 -0.5443
  515MOL0     O67906   6.001   3.941   1.548 -0.1034 -0.0651 -0.6506
  515MOL0     C67907   5.996   3.794   1.536  0.6651 -0.3816 -0.4413
  515MOL0     C67908   5.900   3.734   1.650 -0.5176 -0.1364 -0.1990
  515MOL0     C67909   5.754   3.780   1.653 -0.4904  0.4236  0.0162
  515MOL0     C67910   5.694   3.732   1.786 -0.5191 -0.8426  0.6209
  515MOL0     C67911   5.551   3.780   1.789 -0.3212  0.1119 -0.2519
  515MOL0     C67912   5.433   3.808   1.784 -0.6619 -0.7218  0.3035
  515MOL0     C67913   6.063   4.008   1.329  0.1999  0.6115 -0.3333
  515MOL0     C67914   6.169   4.045   1.249 -0.2416  0.3526  1.1047
  515MOL0     H67915   6.621   4.471   1.260 -2.2482 -0.3507  0.3668
  515MOL0     H67916   6.782   4.541   1.123  2.2530  0.2357  0.0271
  515MOL0     H67917   6.997   4.494   1.067  3.1678  2.4180 -0.5852
  515MOL0     H67918   6.926   4.586   0.933 -1.6627  0.5284  2.7364
  515MOL0     H67919   7.112   4.495   0.786 -0.6369  0.4118  0.8085
  515MOL0     H67920   7.163   4.378   0.916  1.7132  1.0920  1.9911
  515MOL0     H67921   7.233   4.565   1.051  0.2351  0.8648  0.3251
  515MOL0     H67922   7.170   4.684   0.940  0.8010  0.9548 -4.4639
  515MOL0     H67923   7.421   4.607   0.951 -0.2999 -3.2506  1.4648
  515MOL0     H67924   7.373   4.464   0.860 -0.1991 -0.5972  0.6262
  515MOL0     H67925   7.353   4.744   0.776  2.3543 -1.1499  4.1153
  515MOL0     H67926   7.268   4.609   0.686  0.4584  0.0894 -0.9080
  515MOL0     H67927   7.501   4.491   0.673 -0.3650 -0.3636  0.4601
  515MOL0     H67928   7.567   4.643   0.711  0.6536 -1.2071  0.2958
  515MOL0     H67929   7.385   4.619   0.478  0.5488  0.5205  1.4368
  515MOL0     H67930   7.466   4.764   0.532  2.2644  1.1415 -5.4170
  515MOL0     H67931   7.685   4.692   0.487  0.8343 -0.9511 -0.0836
  515MOL0     H67932   7.586   4.677   0.343  2.8598  3.1341 -0.6219
  515MOL0     H67933   7.446   4.401   0.396  0.9460 -1.1371 -1.9488
  515MOL0     H67934   7.684   4.098   0.339 -0.4277  0.3360 -3.1025
  515MOL0     H67935   7.539   4.154   0.268 -0.5560  3.9536  0.2924
  515MOL0     H67936   7.423   4.117   0.494 -1.1728 -2.0115 -0.3027
  515MOL0     H67937   7.588   4.083   0.557  1.9394 -2.7065 -1.3198
  515MOL0     H67938   7.438   3.912   0.351  2.3204  1.7654 -2.1851
  515MOL0     H67939   7.597   3.890   0.408 -1.0113 -2.8927 -1.0281
  515MOL0     H67940   7.364   3.895   0.602  0.2046 -0.4574  0.9033
  515MOL0     H67941   7.526   3.844   0.642 -0.2752  2.4607 -0.2380
  515MOL0     H67942   7.675   3.727   0.572  2.8759 -1.1629  0.2055
  515MOL0     H67943   7.824   3.545   0.557  0.0694 -0.2254 -1.2666
  515MOL0     H67944   8.128   3.312   0.645 -1.0234 -1.2316  1.7675
  515MOL0     H67945   8.337   3.149   0.585 -0.8554 -0.5272  2.0203
  515MOL0     H67946   8.480   2.950   0.512 -1.1489 -0.2286 -0.1685
  515MOL0     H67947   8.497   3.102   0.414  3.2873  0.0558 -0.4163
  515MOL0     H67948   8.526   2.930   0.222 -0.5110 -0.7347  0.3024
  515MOL0     H67949   8.520   2.806   0.321  0.7546 -0.6046  1.3066
  515MOL0     H67950   8.733   2.893   0.448 -0.3515  0.1446  0.1632
  515MOL0     H67951   8.763   2.994   0.303  1.4078 -0.8622  0.7162
  515MOL0     H67952   8.739   2.705   0.315 -0.5993 -1.8950 -3.8331
  515MOL0     H67953   8.707   2.790   0.168 -0.6571 -3.7768 -0.1575
  515MOL0     H67954   8.967   2.824   0.343 -0.9725  0.2266 -0.2283
  515MOL0     H67955   8.926   2.899   0.190 -1.3165  2.7463  1.7650
  515MOL0     H67956   8.904   2.692   0.076 -2.2984  0.2298  2.1044
  515MOL0     H67957   8.947   2.596   0.222  3.3261 -0.4754  0.6890
  515MOL0     H67958   9.117   2.803   0.064 -0.7344  1.1701  0.0188
  515MOL0     H67959   9.172   2.740   0.219  0.1180 -2.7175  1.2998
  515MOL0     H67960   9.112   2.555  -0.016  0.9474  0.4957 -0.0611
  515MOL0     H67961   9.183   2.523   0.143 -2.4916 -0.2479  0.4447
  515MOL0     H67962   8.106   2.975   0.276 -3.2181  0.3203  1.3007
  515MOL0     H67963   7.913   3.106   0.339  1.1497  2.3075 -2.2549
  515MOL0     H67964   7.486   3.274   0.473  0.1245 -1.4512  4.4284
  515MOL0     H67965   7.341   3.456   0.506  0.3735 -0.6519 -1.0969
  515MOL0     H67966   6.766   4.161   0.890  0.7116 -0.7948 -0.3501
  515MOL0     H67967   6.615   4.077   1.055  1.1552  0.3646 -1.1635
  515MOL0     H67968   6.398   4.150   1.472 -0.3681 -1.0022  1.4502
  515MOL0     H67969   6.225   4.040   1.633  0.2336  1.9619  0.1465
  515MOL0     H67970   6.097   3.753   1.544  0.5362 -0.7214 -0.4970
  515MOL0     H67971   5.952   3.773   1.438 -0.3392 -1.5335  0.2266
  515MOL0     H67972   5.895   3.625   1.643 -0.5191 -0.1571  0.1033
  515MOL0     H67973   5.946   3.754   1.747 -0.7398  0.1250 -0.1488
  515MOL0     H67974   5.687   3.743   1.575 -1.3488 -1.2378  1.4748
  515MOL0     H67975   5.754   3.889   1.649 -1.4537  0.5205  1.6078
  515MOL0     H67976   5.697   3.624   1.797 -1.4354 -0.8761  0.5883
  515MOL0     H67977   5.754   3.781   1.864  1.6500 -2.0247 -0.2131
  515MOL0     H67978   5.330   3.830   1.761 -0.7493  1.4248  2.4057
  515MOL0     H67979   5.963   3.989   1.291 -0.8492  1.2945  1.9412
  515MOL0     H67980   6.150   4.056   1.142 -0.8324 -1.2138  1.0201
  516MOL0     O67981   0.239   7.856   1.231  0.1513 -0.8444 -0.2806
  516MOL0     C67982   0.242   7.837   1.349  0.5687  0.1186 -0.1525
  516MOL0     O67983   0.350   7.845   1.425 -0.0319 -0.1120 -0.3641
  516MOL0     C67984   0.462   7.902   1.370  0.7251 -0.2297 -0.6985
  516MOL0     C67985   0.502   8.037   1.389  1.3281 -0.4617  0.0953
  516MOL0     C67986   0.625   8.078   1.336  0.7727  0.4822 -0.0977
  516MOL0     C67987   0.704   7.993   1.265 -0.7206  0.3183 -0.6301
  516MOL0     O67988   0.826   8.028   1.199  0.5242 -0.1482 -0.4461
  516MOL0     C67989   0.896   8.157   1.241  0.7342 -0.4563  0.0415
  516MOL0     C67990   1.039   8.123   1.272 -0.3161 -1.0470 -0.5173
  516MOL0     C67991   1.124   8.134   1.140 -0.5104 -0.1359  0.3959
  516MOL0     C67992   1.265   8.063   1.151 -0.0458  0.2247 -0.3021
  516MOL0     C67993   1.256   7.908   1.140  0.0502  0.0070  0.9997
  516MOL0     C67994   1.387   7.824   1.174 -0.6189  0.0645  0.3344
  516MOL0     C67995   1.517   7.880   1.110 -0.3439 -0.3240  0.6542
  516MOL0     C67996   1.636   7.788   1.116 -0.0594 -0.1786  0.3085
  516MOL0     N67997   1.670   7.728   1.248 -0.1359  0.0868 -0.0938
  516MOL0     C67998   1.669   7.597   1.294 -0.6661  0.0587  0.7911
  516MOL0     C67999   1.684   7.605   1.430 -0.0131 -0.1933 -0.5360
  516MOL0     C68000   1.695   7.497   1.539  0.3996 -0.1563 -0.2208
  516MOL0     C68001   1.564   7.429   1.570 -0.3185  0.3850  0.4254
  516MOL0     C68002   1.477   7.522   1.664  0.2223 -0.4029  0.7194
  516MOL0     C68003   1.329   7.481   1.650  0.9901  0.3766  0.1260
  516MOL0     O68004   1.252   7.579   1.723 -0.2528  0.5296 -0.2186
  516MOL0     C68005   1.124   7.540   1.768 -0.9869 -0.4686  0.3688
  516MOL0     C68006   1.072   7.412   1.762 -0.1465 -0.4019 -0.1209
  516MOL0     C68007   0.954   7.379   1.830 -0.1952 -0.1940  0.1536
  516MOL0     C68008   0.874   7.483   1.877 -0.6056  0.7115  0.2396
  516MOL0     C68009   0.752   7.445   1.951  0.3979 -0.3653 -0.5263
  516MOL0     O68010   0.744   7.311   1.984 -0.2651  0.1036 -0.4315
  516MOL0     C68011   0.640   7.264   2.058  1.2130  0.4131  0.1476
  516MOL0     C68012   0.638   7.209   2.187 -0.3962  0.5750 -0.1334
  516MOL0     C68013   0.529   7.151   2.243 -0.9560  0.5212  1.0240
  516MOL0     C68014   0.406   7.138   2.182  0.4243 -0.0571  0.0304
  516MOL0     O68015   0.305   7.072   2.254 -0.0492 -0.6181  0.5097
  516MOL0     C68016   0.174   7.039   2.192  0.7738  0.3880  0.0272
  516MOL0     C68017   0.193   6.900   2.120  1.2758 -0.3225  0.1202
  516MOL0     C68018   0.063   6.845   2.052 -0.2688  0.9146 -0.4406
  516MOL0     C68019  -0.021   6.777   2.168  0.0798 -0.1488 -0.1005
  516MOL0     C68020  -0.169   6.746   2.131 -0.1538 -0.3605  0.2626
  516MOL0     C68021  -0.251   6.870   2.096  0.1711 -0.1961 -0.4411
  516MOL0     C68022  -0.384   6.838   2.041  0.0778  0.1598 -0.2083
  516MOL0     C68023  -0.471   6.968   2.025  0.5944  0.2995 -0.0451
  516MOL0    Cl68024  -0.481   7.042   2.187  0.6419 -0.0964 -0.3447
  516MOL0     C68025   0.394   7.193   2.059 -0.7065 -0.1675  0.4699
  516MOL0     C68026   0.511   7.255   2.003  1.1364  0.8533  0.2141
  516MOL0     O68027   0.670   7.535   1.984  0.0349 -0.1659 -0.4527
  516MOL0     C68028   0.916   7.612   1.879 -0.4369 -0.1142  0.3188
  516MOL0     C68029   1.042   7.637   1.817  0.2610 -0.1422  0.1133
  516MOL0     N68030   1.693   7.733   1.468 -0.1635 -0.5663  0.7446
  516MOL0     N68031   1.695   7.808   1.361  0.1873 -0.3300 -0.2332
  516MOL0     C68032   0.667   7.865   1.232  0.3711  0.5081 -0.7740
  516MOL0     C68033   0.548   7.817   1.303  0.5038  0.6267  0.5076
  516MOL0     C68034   0.104   7.785   1.399 -0.5464 -0.5882 -0.4128
  516MOL0     C68035   0.014   7.724   1.313  0.6250 -0.4356  0.1355
  516MOL0     C68036  -0.109   7.665   1.346  0.4417  0.1149 -0.1384
  516MOL0     C68037  -0.146   7.660   1.478  0.4956  0.2560 -0.6793
  516MOL0     O68038  -0.272   7.627   1.524  0.1898 -0.2588  0.0046
  516MOL0     C68039  -0.388   7.614   1.441 -0.5525 -0.0215 -0.5133
  516MOL0     C68040  -0.429   7.753   1.387  0.4899  0.2817  1.3038
  516MOL0     C68041  -0.540   7.728   1.282  0.0032 -0.1485  0.0992
  516MOL0     C68042  -0.585   7.865   1.219  0.5625  0.5605  0.4778
  516MOL0     C68043  -0.642   7.950   1.319 -0.8192 -0.3498  0.5246
  516MOL0     C68044  -0.685   7.992   1.420  0.1442 -0.1767  0.7837
  516MOL0     C68045  -0.059   7.720   1.568 -0.8659  0.5140  0.2356
  516MOL0     C68046   0.066   7.768   1.529  0.7574 -1.4581  0.2532
  516MOL0     H68047   0.450   8.098   1.461  3.5970  1.7762 -0.0193
  516MOL0     H68048   0.652   8.181   1.357  0.7138  0.1235  2.0410
  516MOL0     H68049   0.850   8.209   1.325  1.0617  2.6482 -1.5323
  516MOL0     H68050   0.899   8.226   1.155  0.8299  0.4342  0.7418
  516MOL0     H68051   1.052   8.026   1.321 -0.2777 -0.9757 -0.3863
  516MOL0     H68052   1.089   8.196   1.336  2.2460 -0.5133 -2.9228
  516MOL0     H68053   1.138   8.241   1.120  3.1461 -0.3864  0.9595
  516MOL0     H68054   1.075   8.088   1.054  1.1646  0.6907 -1.0597
  516MOL0     H68055   1.338   8.099   1.078  1.3027  0.9020  1.3178
  516MOL0     H68056   1.296   8.083   1.254 -1.8897  0.3325  0.2690
  516MOL0     H68057   1.231   7.886   1.036 -0.4605  1.9658  0.6761
  516MOL0     H68058   1.177   7.872   1.206  1.1973  0.7371  2.8440
  516MOL0     H68059   1.368   7.724   1.133 -2.7436  1.2712 -1.8556
  516MOL0     H68060   1.409   7.821   1.281 -0.9637 -0.2352  0.3992
  516MOL0     H68061   1.488   7.907   1.008 -2.9757  0.6956  1.6013
  516MOL0     H68062   1.536   7.972   1.165 -0.2971  0.8928 -1.2845
  516MOL0     H68063   1.723   7.841   1.075  0.4779 -1.7053 -0.5693
  516MOL0     H68064   1.617   7.711   1.041 -3.5840  3.6392 -3.2141
  516MOL0     H68065   1.651   7.508   1.235  0.5081 -0.9686  1.9445
  516MOL0     H68066   1.741   7.533   1.631  0.6397 -2.1674  0.4801
  516MOL0     H68067   1.763   7.423   1.497 -1.2112 -2.3304  0.8051
  516MOL0     H68068   1.595   7.339   1.623  1.9417 -0.1135 -1.5610
  516MOL0     H68069   1.513   7.407   1.476  1.9987  2.7047 -1.5411
  516MOL0     H68070   1.497   7.512   1.771 -2.3451 -2.8379  1.0718
  516MOL0     H68071   1.488   7.628   1.638 -1.4041 -0.4199 -0.1263
  516MOL0     H68072   1.326   7.373   1.668 -3.2188  0.2009 -0.6702
  516MOL0     H68073   1.292   7.480   1.547 -1.1477  1.6400  0.8253
  516MOL0     H68074   1.125   7.328   1.719 -1.5089 -0.8987 -0.8739
  516MOL0     H68075   0.930   7.274   1.817 -1.9509  0.0893  0.8514
  516MOL0     H68076   0.726   7.205   2.249  0.9803 -2.9694 -1.9897
  516MOL0     H68077   0.531   7.120   2.347 -2.4084  1.7021  1.4355
  516MOL0     H68078   0.136   7.112   2.120 -1.0016 -1.9323 -1.5363
  516MOL0     H68079   0.098   7.032   2.270  0.9309  0.6168  0.2048
  516MOL0     H68080   0.225   6.826   2.195  2.2438  0.9089  0.9600
  516MOL0     H68081   0.263   6.912   2.037 -1.0259 -2.4261 -2.2823
  516MOL0     H68082   0.085   6.770   1.976 -1.9391  0.5496 -0.6118
  516MOL0     H68083   0.010   6.921   1.995  0.5109  0.0359 -2.4362
  516MOL0     H68084   0.022   6.683   2.204 -2.2773 -1.7027 -1.0613
  516MOL0     H68085  -0.029   6.847   2.252  0.0716  1.5490 -1.4486
  516MOL0     H68086  -0.201   6.702   2.226  0.5443 -0.9968  0.2160
  516MOL0     H68087  -0.171   6.668   2.054 -1.4266 -0.0874 -0.0027
  516MOL0     H68088  -0.206   6.939   2.025  0.7171 -1.3195 -1.2210
  516MOL0     H68089  -0.263   6.924   2.191  0.1634 -0.2964 -0.3846
  516MOL0     H68090  -0.380   6.778   1.950 -0.0373 -0.2864  0.0746
  516MOL0     H68091  -0.440   6.785   2.119 -0.1872  0.6006 -0.0931
  516MOL0     H68092  -0.567   6.926   1.996  1.4926 -1.6693 -0.3570
  516MOL0     H68093  -0.431   7.034   1.947  1.3822 -1.9805 -1.7129
  516MOL0     H68094   0.308   7.204   1.993  1.4129  3.8167 -2.0269
  516MOL0     H68095   0.510   7.281   1.898  1.8042  0.0586 -0.0027
  516MOL0     H68096   0.867   7.702   1.914 -0.1473  1.9476 -3.9695
  516MOL0     H68097   1.080   7.737   1.795  2.4620 -0.1237  3.3633
  516MOL0     H68098   0.728   7.798   1.172 -0.3486 -2.0462  1.1787
  516MOL0     H68099   0.517   7.714   1.285 -0.2668  1.1088 -1.1895
  516MOL0     H68100   0.036   7.732   1.207  2.2664  3.4730  0.6061
  516MOL0     H68101  -0.174   7.633   1.265 -0.7202  2.4075 -0.2119
  516MOL0     H68102  -0.475   7.578   1.496 -1.8456  2.0459 -1.0954
  516MOL0     H68103  -0.365   7.546   1.358  0.5839 -1.7984  1.1623
  516MOL0     H68104  -0.476   7.817   1.463 -0.0374 -0.0149  1.2371
  516MOL0     H68105  -0.345   7.800   1.336  0.1843  0.9436  1.4012
  516MOL0     H68106  -0.623   7.677   1.332 -0.2893  0.4788  0.2547
  516MOL0     H68107  -0.498   7.666   1.201  2.0554  0.5078  0.5946
  516MOL0     H68108  -0.500   7.906   1.162 -0.6436  0.5978 -1.3933
  516MOL0     H68109  -0.664   7.838   1.149  1.6425 -1.1054 -0.1736
  516MOL0     H68110  -0.726   8.040   1.506  2.5095 -0.5845  2.2130
  516MOL0     H68111  -0.097   7.710   1.669 -2.0202 -4.2036 -0.4523
  516MOL0     H68112   0.135   7.787   1.611  1.9130  0.3520 -1.0702
  517MOL0     O68113   3.708   3.748   2.758 -0.0890  0.7147  0.7943
  517MOL0     C68114   3.694   3.820   2.858 -0.3711 -0.5007 -0.4598
  517MOL0     O68115   3.577   3.853   2.919  0.2595  0.3411 -0.2486
  517MOL0     C68116   3.451   3.815   2.865  0.3118 -0.9860  0.3765
  517MOL0     C68117   3.423   3.761   2.742 -0.4977 -0.1740  1.1717
  517MOL0     C68118   3.299   3.740   2.701  0.7103  0.6385  0.5642
  517MOL0     C68119   3.187   3.784   2.780 -0.4686 -1.3895  0.1826
  517MOL0     O68120   3.052   3.769   2.767 -0.0657  0.5266  0.4291
  517MOL0     C68121   3.007   3.731   2.629 -0.2444 -0.2111  0.0452
  517MOL0     C68122   2.852   3.725   2.646 -0.0218 -1.0176 -0.0285
  517MOL0     C68123   2.809   3.586   2.686  0.2845 -0.2971 -0.2018
  517MOL0     C68124   2.668   3.555   2.650 -0.6426 -0.6684  0.3934
  517MOL0     C68125   2.613   3.423   2.681  0.4383  0.5637  0.0084
  517MOL0     C68126   2.468   3.390   2.636 -0.5783  0.1213  0.2992
  517MOL0     C68127   2.419   3.264   2.703 -0.6688  0.7407  0.1490
  517MOL0     C68128   2.275   3.235   2.657 -1.1458  0.0749  0.5213
  517MOL0     N68129   2.173   3.333   2.702  0.1879  0.0386 -0.6132
  517MOL0     C68130   2.142   3.446   2.628  0.2482  1.2961 -0.4559
  517MOL0     C68131   2.051   3.510   2.712 -0.5108 -0.3112  0.2443
  517MOL0     C68132   1.969   3.634   2.680  0.3333  0.6233  1.2733
  517MOL0     C68133   1.873   3.686   2.799  0.0784 -0.4601  0.6355
  517MOL0     C68134   1.753   3.772   2.750 -0.7220  0.4714  0.4941
  517MOL0     C68135   1.667   3.831   2.870  0.9397  0.4283 -0.0737
  517MOL0     O68136   1.761   3.923   2.934  0.7384 -0.0110  0.1989
  517MOL0     C68137   1.719   3.971   3.054 -0.5014 -0.1786  0.1860
  517MOL0     C68138   1.595   3.942   3.121 -0.0593 -0.6882 -0.1447
  517MOL0     C68139   1.561   4.013   3.236  0.6192 -0.0842 -0.3540
  517MOL0     C68140   1.650   4.107   3.291  0.4116 -0.9313 -0.6948
  517MOL0     C68141   1.622   4.175   3.413 -0.1788  0.2077  0.8019
  517MOL0     O68142   1.688   4.295   3.431  1.0024 -0.0920  0.4028
  517MOL0     C68143   1.700   4.346   3.549  0.5342  0.0425 -0.4292
  517MOL0     C68144   1.679   4.481   3.570  0.2406 -0.5793  0.1065
  517MOL0     C68145   1.711   4.538   3.686  0.3487  0.0996 -0.7508
  517MOL0     C68146   1.754   4.460   3.797  0.4542  0.2763  0.1665
  517MOL0     O68147   1.771   4.542   3.908  0.2585 -0.0157  0.5919
  517MOL0     C68148   1.758   4.464   4.025  0.3420 -0.0492  0.7137
  517MOL0     C68149   1.610   4.416   4.054  0.5578  0.1596 -0.5850
  517MOL0     C68150   1.498   4.517   4.097 -0.8529  0.2650  0.3208
  517MOL0     C68151   1.543   4.588   4.222 -0.7598 -0.3039  0.1699
  517MOL0     C68152   1.426   4.665   4.298 -0.1088 -1.0497 -0.3622
  517MOL0     C68153   1.298   4.593   4.311 -0.4010 -0.6803 -0.4891
  517MOL0     C68154   1.210   4.667   4.412  0.4892 -0.1412 -0.0364
  517MOL0     C68155   1.077   4.601   4.404  0.1805 -0.4348 -0.8498
  517MOL0    Cl68156   0.994   4.672   4.556 -0.2212  0.1783  0.2135
  517MOL0     C68157   1.776   4.317   3.775 -0.0658  0.0533 -0.6825
  517MOL0     C68158   1.748   4.269   3.649  0.5994 -0.1766  0.2529
  517MOL0     O68159   1.533   4.129   3.480  0.0112  0.1714 -0.1420
  517MOL0     C68160   1.762   4.148   3.216  0.0171 -0.3322 -0.8294
  517MOL0     C68161   1.792   4.080   3.096 -0.1608 -0.5130 -1.0036
  517MOL0     N68162   2.036   3.438   2.826  0.1825 -0.0535 -0.6313
  517MOL0     N68163   2.101   3.332   2.822  0.3953 -0.1050  0.4493
  517MOL0     C68164   3.215   3.854   2.899  1.2016 -0.6421 -0.3020
  517MOL0     C68165   3.342   3.859   2.950  0.5303 -0.9510  0.4437
  517MOL0     C68166   3.821   3.876   2.915 -0.6320 -0.0607 -0.1251
  517MOL0     C68167   3.828   4.006   2.983  0.1824  0.4813  0.7709
  517MOL0     C68168   3.956   4.060   3.019  0.9774  0.0461  0.6889
  517MOL0     C68169   4.067   3.987   3.003  0.2028  0.1729 -0.1054
  517MOL0     O68170   4.186   4.043   3.036 -0.4156  0.6044 -0.3936
  517MOL0     C68171   4.300   4.040   2.945 -0.3922  0.1567  1.2184
  517MOL0     C68172   4.406   4.139   2.999 -0.1495  0.0358 -0.1545
  517MOL0     C68173   4.536   4.129   2.921 -0.0338  0.0317  0.4745
  517MOL0     C68174   4.537   4.168   2.770 -0.7976 -0.1979 -0.0978
  517MOL0     C68175   4.671   4.129   2.717 -0.1204 -0.5658 -0.0443
  517MOL0     C68176   4.778   4.091   2.666  0.2247 -0.2376 -0.0436
  517MOL0     C68177   4.066   3.863   2.938  0.4128  0.4175 -0.5754
  517MOL0     C68178   3.944   3.807   2.891 -0.9211  0.1590  1.2917
  517MOL0     H68179   3.498   3.729   2.670 -1.2728 -0.5283  0.5067
  517MOL0     H68180   3.268   3.684   2.613  0.9469  1.9041 -0.3601
  517MOL0     H68181   3.056   3.634   2.611 -0.1602 -0.4491  1.4417
  517MOL0     H68182   3.039   3.804   2.555  1.3151 -0.3717  0.5149
  517MOL0     H68183   2.815   3.741   2.544  1.3497 -0.6846 -0.4983
  517MOL0     H68184   2.811   3.795   2.720  2.2811  0.6365 -0.1926
  517MOL0     H68185   2.818   3.574   2.794 -0.5259 -0.7527 -0.1739
  517MOL0     H68186   2.872   3.515   2.631 -0.5676 -1.6357  0.4943
  517MOL0     H68187   2.611   3.638   2.693 -1.0530 -1.0825  0.6533
  517MOL0     H68188   2.660   3.554   2.541 -1.4808 -0.2101  0.4458
  517MOL0     H68189   2.614   3.402   2.788 -0.7401 -1.6089 -0.3507
  517MOL0     H68190   2.684   3.349   2.642 -0.7902 -1.2824  1.1132
  517MOL0     H68191   2.474   3.372   2.528  1.9257  0.8522  0.2445
  517MOL0     H68192   2.405   3.478   2.656 -1.7919 -0.7664  0.4505
  517MOL0     H68193   2.488   3.186   2.668 -0.1271  0.3248  2.0698
  517MOL0     H68194   2.424   3.283   2.810 -0.7039  1.8358 -0.0364
  517MOL0     H68195   2.247   3.137   2.695 -0.8755  0.2218  1.0983
  517MOL0     H68196   2.262   3.225   2.548  1.9937 -5.7520  0.3315
  517MOL0     H68197   2.176   3.461   2.526 -3.0012 -2.5231 -2.4019
  517MOL0     H68198   1.902   3.618   2.594 -0.3747  1.4073  1.6608
  517MOL0     H68199   2.032   3.720   2.657 -1.2636  1.2886 -0.9865
  517MOL0     H68200   1.928   3.755   2.863 -1.2222 -0.4661  1.7845
  517MOL0     H68201   1.841   3.598   2.855  0.7930 -0.6965  0.6875
  517MOL0     H68202   1.794   3.861   2.702  1.1201 -1.4487 -1.7880
  517MOL0     H68203   1.693   3.710   2.684  2.9907 -2.1027 -0.8239
  517MOL0     H68204   1.634   3.758   2.945 -0.4377  1.9829  0.9083
  517MOL0     H68205   1.577   3.881   2.833 -0.2145 -2.6340 -1.7571
  517MOL0     H68206   1.519   3.878   3.078 -1.8331  2.6509 -2.5142
  517MOL0     H68207   1.475   3.985   3.297  2.3125 -2.4151  1.1510
  517MOL0     H68208   1.662   4.539   3.480  0.0514  2.6650  2.0902
  517MOL0     H68209   1.678   4.640   3.705 -0.5959 -0.5590  1.5346
  517MOL0     H68210   1.791   4.537   4.099 -0.5814  0.0330  1.0497
  517MOL0     H68211   1.831   4.382   4.025  1.6369  1.0142 -1.3394
  517MOL0     H68212   1.615   4.336   4.129 -2.0695  1.4645  1.1349
  517MOL0     H68213   1.568   4.361   3.969 -0.2533 -0.7234  0.3536
  517MOL0     H68214   1.410   4.453   4.102 -0.5540 -0.4852 -2.5769
  517MOL0     H68215   1.472   4.588   4.019 -1.0640 -1.5063 -1.2917
  517MOL0     H68216   1.600   4.524   4.290 -2.2380 -1.2965  0.4945
  517MOL0     H68217   1.608   4.664   4.177 -1.3215 -0.1166 -0.3416
  517MOL0     H68218   1.412   4.758   4.242  2.8586 -1.5688 -2.1806
  517MOL0     H68219   1.462   4.692   4.398 -3.3400  0.1397  0.5910
  517MOL0     H68220   1.320   4.493   4.349 -1.1391 -0.8992 -0.6152
  517MOL0     H68221   1.240   4.585   4.218 -2.3601  2.3165  0.3229
  517MOL0     H68222   1.256   4.652   4.510  1.7036 -0.0160 -0.5741
  517MOL0     H68223   1.203   4.776   4.417 -2.0799 -0.2595  0.3040
  517MOL0     H68224   1.075   4.492   4.414 -3.1104 -0.2964  1.7431
  517MOL0     H68225   1.010   4.618   4.319 -1.5967  1.6245  0.8475
  517MOL0     H68226   1.818   4.256   3.854  0.3229  0.8093 -0.2952
  517MOL0     H68227   1.766   4.164   3.629 -2.6915 -0.8054  0.1231
  517MOL0     H68228   1.825   4.228   3.254 -2.4202  0.7521  1.2846
  517MOL0     H68229   1.878   4.107   3.035  2.2617 -1.7593  1.6324
  517MOL0     H68230   3.131   3.894   2.953  1.1180 -1.9741  0.5814
  517MOL0     H68231   3.369   3.902   3.046 -0.8719 -2.0719  1.3759
  517MOL0     H68232   3.738   4.065   2.990 -1.0991 -1.2490 -0.4273
  517MOL0     H68233   3.967   4.154   3.072  1.1989 -0.2274  1.1384
  517MOL0     H68234   4.268   4.073   2.845  0.1878 -0.1435  0.9303
  517MOL0     H68235   4.337   3.938   2.934 -1.6071 -0.1668 -0.2767
  517MOL0     H68236   4.356   4.237   2.992 -1.7119 -0.6903  0.3785
  517MOL0     H68237   4.423   4.111   3.103 -1.3800 -1.0982 -0.2301
  517MOL0     H68238   4.574   4.027   2.934  3.1562  1.2400  1.4710
  517MOL0     H68239   4.600   4.198   2.977 -1.9648 -0.4151  3.4637
  517MOL0     H68240   4.470   4.099   2.718 -2.1944 -1.5264  3.1931
  517MOL0     H68241   4.512   4.274   2.761 -1.2087 -0.2018  0.8080
  517MOL0     H68242   4.862   4.059   2.607 -0.7772  0.3828 -1.8814
  517MOL0     H68243   4.159   3.807   2.924  0.4732  0.1753  0.7081
  517MOL0     H68244   3.947   3.718   2.830 -0.6101  2.1968 -1.8889
  518MOL0     O68245   0.261   7.536   3.837  0.6426 -0.0907 -0.1981
  518MOL0     C68246   0.332   7.544   3.739 -0.4350  0.0849 -0.9568
  518MOL0     O68247   0.295   7.501   3.613 -0.3862  0.3903  0.1694
  518MOL0     C68248   0.183   7.412   3.602 -1.0487 -0.0647  0.4112
  518MOL0     C68249   0.055   7.453   3.563 -0.6100 -0.2097 -0.4601
  518MOL0     C68250  -0.057   7.382   3.587 -0.4342  0.7965  1.1220
  518MOL0     C68251  -0.043   7.247   3.623 -0.5518  0.3819 -0.5325
  518MOL0     O68252  -0.148   7.168   3.657 -0.1987  0.0860  0.4589
  518MOL0     C68253  -0.252   7.153   3.556  0.7444  0.6130  0.1462
  518MOL0     C68254  -0.360   7.059   3.602  1.3376 -0.0907  0.2847
  518MOL0     C68255  -0.467   7.037   3.501 -0.1637 -0.1688  0.6777
  518MOL0     C68256  -0.563   6.928   3.536  0.3230 -0.1203  0.4850
  518MOL0     C68257  -0.690   6.954   3.451  0.5888 -0.0323  0.1742
  518MOL0     C68258  -0.797   6.863   3.513 -0.1462 -0.6422  0.4099
  518MOL0     C68259  -0.930   6.876   3.436 -0.0694  0.7098  0.0744
  518MOL0     C68260  -0.940   6.802   3.304  0.8929 -0.7681 -0.2889
  518MOL0     N68261  -1.062   6.843   3.231 -0.1106 -0.0802 -0.6722
  518MOL0     C68262  -1.135   6.752   3.155 -0.3078 -0.4013  0.2776
  518MOL0     C68263  -1.225   6.826   3.081 -0.4707 -0.7276 -0.2093
  518MOL0     C68264  -1.315   6.768   2.979  0.0225 -0.2719 -0.4893
  518MOL0     C68265  -1.457   6.751   3.041 -0.3220 -0.1398 -0.0338
  518MOL0     C68266  -1.514   6.890   3.082  0.6657 -0.0493  0.1018
  518MOL0     C68267  -1.665   6.876   3.128 -0.6744  0.6819 -0.1900
  518MOL0     O68268  -1.736   6.831   3.013  0.1559 -0.5340 -0.1213
  518MOL0     C68269  -1.869   6.853   3.033 -0.5833  0.2122 -0.0044
  518MOL0     C68270  -1.944   6.750   3.086  0.3766  0.5604 -0.3267
  518MOL0     C68271  -2.081   6.775   3.110  0.2201 -0.9948  0.7054
  518MOL0     C68272  -2.140   6.893   3.062  1.0670 -0.3465 -0.7438
  518MOL0     C68273  -2.284   6.919   3.081  0.0267 -0.8403 -0.2253
  518MOL0     O68274  -2.355   6.814   3.143 -0.5379  0.2119 -0.0392
  518MOL0     C68275  -2.486   6.831   3.163  0.3463  0.7372  0.4083
  518MOL0     C68276  -2.575   6.745   3.108  1.1787 -0.5194  0.4582
  518MOL0     C68277  -2.716   6.767   3.122  0.1143 -0.3530 -0.9397
  518MOL0     C68278  -2.775   6.868   3.203 -1.2093 -0.4609 -0.1109
  518MOL0     O68279  -2.905   6.889   3.234  0.5289 -0.8361 -0.4039
  518MOL0     C68280  -3.002   6.897   3.123  0.5412 -0.3837 -0.1098
  518MOL0     C68281  -3.143   6.940   3.174 -0.5637 -0.4094 -0.0956
  518MOL0     C68282  -3.251   6.921   3.067  0.4231  0.4419  0.3789
  518MOL0     C68283  -3.388   6.928   3.137  0.3686 -0.2085  0.7489
  518MOL0     C68284  -3.480   6.869   3.037 -0.0126 -0.0760 -0.1778
  518MOL0     C68285  -3.621   6.908   3.089 -0.8874  0.2540  0.3838
  518MOL0     C68286  -3.723   6.820   3.020  0.4662  0.2646 -1.0244
  518MOL0     C68287  -3.874   6.849   3.065  0.3133 -0.3490 -0.0422
  518MOL0    Cl68288  -3.884   6.847   3.252  0.0417  0.1460 -0.0468
  518MOL0     C68289  -2.672   6.953   3.263  0.5613 -0.8343 -0.1800
  518MOL0     C68290  -2.535   6.934   3.248 -0.2862  0.3987  0.5950
  518MOL0     O68291  -2.330   7.028   3.044 -1.3681 -0.1107 -0.0571
  518MOL0     C68292  -2.055   6.988   2.995  0.4970 -0.2068  0.3087
  518MOL0     C68293  -1.923   6.970   2.987  0.0011 -0.0791  0.5869
  518MOL0     N68294  -1.199   6.958   3.102  0.0207 -0.1124  0.3121
  518MOL0     N68295  -1.103   6.967   3.197  0.6140  0.0001  0.4877
  518MOL0     C68296   0.092   7.197   3.640  0.5754 -0.6092  0.2188
  518MOL0     C68297   0.198   7.277   3.634 -0.6952  0.5122  0.9063
  518MOL0     C68298   0.482   7.596   3.756 -0.0304 -0.0138  0.8369
  518MOL0     C68299   0.567   7.577   3.646 -0.1136 -1.0791  0.2556
  518MOL0     C68300   0.696   7.615   3.665 -0.7026 -0.1527  0.5108
  518MOL0     C68301   0.740   7.695   3.771  0.2086  0.0106 -0.2334
  518MOL0     O68302   0.868   7.729   3.778  0.1101  0.5332 -0.1901
  518MOL0     C68303   0.910   7.823   3.875  0.6271  0.2482 -0.4063
  518MOL0     C68304   1.047   7.880   3.859  0.5295 -0.1439 -0.8405
  518MOL0     C68305   1.161   7.793   3.928  0.7428  0.3279 -0.8481
  518MOL0     C68306   1.183   7.662   3.848 -0.3582  0.3701 -0.9929
  518MOL0     C68307   1.294   7.681   3.755 -0.3759 -0.6068 -0.2522
  518MOL0     C68308   1.384   7.687   3.672  0.2236 -1.6147 -0.5773
  518MOL0     C68309   0.647   7.724   3.873  0.6733  0.6264  0.2283
  518MOL0     C68310   0.518   7.671   3.865  0.1769  0.1775 -0.8933
  518MOL0     H68311   0.054   7.560   3.548  1.2942 -0.0716  0.0782
  518MOL0     H68312  -0.155   7.429   3.593  0.2158  2.2429  0.9024
  518MOL0     H68313  -0.219   7.110   3.460  1.5192 -1.3651  1.2451
  518MOL0     H68314  -0.297   7.249   3.528  0.5720  0.4347 -0.1964
  518MOL0     H68315  -0.391   7.104   3.696 -0.3772  0.5377 -0.5473
  518MOL0     H68316  -0.313   6.961   3.616  2.3247  0.3511  0.1834
  518MOL0     H68317  -0.417   7.020   3.406  0.4302  2.3269  0.4860
  518MOL0     H68318  -0.518   7.133   3.487  0.6204 -0.2731 -5.2790
  518MOL0     H68319  -0.525   6.827   3.517  0.8783  0.0695  0.5503
  518MOL0     H68320  -0.589   6.943   3.641 -0.3272  1.8426  0.0850
  518MOL0     H68321  -0.679   6.931   3.345  0.4126  2.0910 -0.3519
  518MOL0     H68322  -0.717   7.060   3.453 -1.6930 -0.5515 -0.5194
  518MOL0     H68323  -0.825   6.896   3.613  0.5904 -0.8085  0.6798
  518MOL0     H68324  -0.761   6.761   3.526 -1.6678 -1.2857 -0.1296
  518MOL0     H68325  -1.010   6.832   3.497  0.8232  0.6018  1.1914
  518MOL0     H68326  -0.959   6.980   3.421  0.6166  0.9252  0.2360
  518MOL0     H68327  -0.939   6.694   3.320  1.2792 -0.6031  0.8419
  518MOL0     H68328  -0.854   6.820   3.237  0.7234  0.0877 -0.2920
  518MOL0     H68329  -1.137   6.643   3.159  0.1298 -0.4267 -0.1014
  518MOL0     H68330  -1.273   6.669   2.959  0.2736 -0.1714 -0.4721
  518MOL0     H68331  -1.319   6.831   2.890  2.8451 -0.1702 -0.6586
  518MOL0     H68332  -1.440   6.692   3.131  0.5718  0.7727  0.4178
  518MOL0     H68333  -1.528   6.714   2.966  0.6591 -0.3429 -0.8774
  518MOL0     H68334  -1.452   6.927   3.164  3.1175 -2.2922 -0.6048
  518MOL0     H68335  -1.511   6.965   3.003 -0.3579 -0.4350 -0.3276
  518MOL0     H68336  -1.699   6.972   3.168 -1.6230  0.2949 -0.0588
  518MOL0     H68337  -1.676   6.808   3.213 -0.4316  2.1789  1.1018
  518MOL0     H68338  -1.885   6.663   3.113  0.2316  0.5357 -0.0869
  518MOL0     H68339  -2.144   6.705   3.165  0.1674 -0.1112  1.7814
  518MOL0     H68340  -2.543   6.665   3.041 -1.0468 -2.2310  1.2933
  518MOL0     H68341  -2.788   6.700   3.078 -0.5263  1.7241 -3.2762
  518MOL0     H68342  -3.018   6.800   3.077  0.6998 -0.7439  0.5760
  518MOL0     H68343  -2.964   6.971   3.053  0.4362  1.0449  1.2726
  518MOL0     H68344  -3.130   7.043   3.208  1.0301 -0.5811 -0.1122
  518MOL0     H68345  -3.161   6.882   3.264  2.1644 -0.5187  0.4753
  518MOL0     H68346  -3.238   6.824   3.017 -0.2763  1.5094 -2.0560
  518MOL0     H68347  -3.242   6.992   2.983  0.1587  0.5289  0.4243
  518MOL0     H68348  -3.393   6.880   3.235 -2.1866  3.2158  2.5066
  518MOL0     H68349  -3.409   7.034   3.150  0.9844  0.3133 -1.9630
  518MOL0     H68350  -3.458   6.763   3.020  1.0040  0.5013 -2.9230
  518MOL0     H68351  -3.472   6.922   2.942 -0.2429  1.5393  0.6622
  518MOL0     H68352  -3.640   7.013   3.063 -1.3542  0.2108  0.5421
  518MOL0     H68353  -3.621   6.902   3.199  0.7016  1.9348  0.5236
  518MOL0     H68354  -3.721   6.836   2.912  1.5465  1.5606 -0.8331
  518MOL0     H68355  -3.702   6.718   3.054  1.1451  1.0066  0.9610
  518MOL0     H68356  -3.954   6.797   3.012 -0.9085 -0.8684  2.1783
  518MOL0     H68357  -3.894   6.955   3.043  0.4705  0.5766  3.5897
  518MOL0     H68358  -2.709   7.035   3.323  2.4429  0.5257 -0.7848
  518MOL0     H68359  -2.461   6.990   3.305 -2.0926  4.8786 -0.9457
  518MOL0     H68360  -2.111   7.066   2.943 -2.4292 -1.6283  1.0964
  518MOL0     H68361  -1.862   7.047   2.940 -0.3971 -0.6690 -0.9722
  518MOL0     H68362   0.102   7.100   3.687 -4.9502 -0.3390  2.7516
  518MOL0     H68363   0.298   7.247   3.666 -1.9133 -2.4185  2.4230
  518MOL0     H68364   0.531   7.524   3.558 -1.5682 -0.1549  0.2593
  518MOL0     H68365   0.768   7.586   3.590  0.7476 -1.5882  2.3532
  518MOL0     H68366   0.910   7.778   3.975  1.1966 -0.8333 -0.8775
  518MOL0     H68367   0.836   7.904   3.866  0.7926  0.4407 -0.0643
  518MOL0     H68368   1.079   7.899   3.756 -2.0691  0.0791 -1.6735
  518MOL0     H68369   1.031   7.978   3.905  0.4319  1.5757 -4.2123
  518MOL0     H68370   1.117   7.759   4.022  0.0855 -1.7511 -1.8452
  518MOL0     H68371   1.250   7.855   3.944  0.7643 -0.2858  1.9025
  518MOL0     H68372   1.186   7.578   3.919 -2.6259  0.9373 -0.1584
  518MOL0     H68373   1.092   7.643   3.792 -0.4402 -2.1321 -0.1720
  518MOL0     H68374   1.453   7.697   3.590 -0.7139  0.7493 -1.1843
  518MOL0     H68375   0.671   7.782   3.960  1.3439  1.0190 -0.2146
  518MOL0     H68376   0.451   7.698   3.946  0.1521 -0.7424 -0.6068
  519MOL0     O68377   9.919   8.394   1.740 -0.7758  0.5548 -0.2024
  519MOL0     C68378   9.866   8.452   1.643 -0.0305 -0.0322  0.1910
  519MOL0     O68379   9.729   8.464   1.617 -0.6663 -0.4759 -0.1909
  519MOL0     C68380   9.637   8.411   1.706 -0.3410 -0.6404  0.4598
  519MOL0     C68381   9.655   8.371   1.837  0.6562  0.1555 -0.3352
  519MOL0     C68382   9.561   8.286   1.893  0.2817 -0.2529  0.1525
  519MOL0     C68383   9.433   8.271   1.842  0.2644  0.7109  0.7369
  519MOL0     O68384   9.346   8.210   1.924  1.1666 -0.0850 -0.1710
  519MOL0     C68385   9.209   8.245   1.901  0.6720 -0.1548 -0.3398
  519MOL0     C68386   9.120   8.191   2.011  0.4373 -0.4604  0.1809
  519MOL0     C68387   8.974   8.227   1.981  0.6974  0.0224  0.2351
  519MOL0     C68388   8.889   8.159   2.081 -0.2370  0.7526  0.0270
  519MOL0     C68389   8.737   8.180   2.056 -0.1891 -0.5127  0.3488
  519MOL0     C68390   8.678   8.075   2.139 -0.1812 -0.9315 -0.1178
  519MOL0     C68391   8.516   8.061   2.115 -0.5681 -0.0414 -0.3641
  519MOL0     C68392   8.440   8.203   2.146 -0.0373  0.8374  0.0947
  519MOL0     N68393   8.295   8.199   2.156 -0.4014  0.2576  0.2605
  519MOL0     C68394   8.226   8.143   2.052 -0.4302  0.6891  0.2908
  519MOL0     C68395   8.106   8.109   2.102 -0.5715 -0.5232 -0.8504
  519MOL0     C68396   7.984   8.041   2.041 -0.4082 -0.2543  0.6767
  519MOL0     C68397   7.860   8.017   2.129 -0.2112  0.3215  0.3629
  519MOL0     C68398   7.764   7.928   2.057 -1.0408 -0.1233 -0.4140
  519MOL0     C68399   7.631   7.950   2.130  0.3110 -0.0029  1.0849
  519MOL0     O68400   7.535   7.897   2.037 -0.1190 -0.1598 -0.9249
  519MOL0     C68401   7.406   7.926   2.075  0.9191 -0.4075 -0.4633
  519MOL0     C68402   7.309   7.879   1.990  0.4342  0.2414  0.7212
  519MOL0     C68403   7.176   7.920   1.995 -0.0497 -1.2391 -0.3553
  519MOL0     C68404   7.130   7.993   2.113  0.1770  0.0778  0.6241
  519MOL0     C68405   6.980   8.012   2.118 -0.2051 -0.3114 -0.3841
  519MOL0     O68406   6.932   8.025   2.243  0.5705  0.3254 -0.0283
  519MOL0     C68407   6.795   8.028   2.266 -0.6156  1.0550 -0.7591
  519MOL0     C68408   6.735   8.143   2.312 -0.2417  0.2593 -0.0084
  519MOL0     C68409   6.608   8.145   2.359  0.0304 -0.0241  0.0995
  519MOL0     C68410   6.530   8.026   2.357 -0.1915  0.1712 -0.9991
  519MOL0     O68411   6.400   8.032   2.390  0.0967 -0.9181  0.1049
  519MOL0     C68412   6.297   7.945   2.345  0.3132 -0.3705 -0.7088
  519MOL0     C68413   6.171   7.965   2.441 -0.2190 -0.0702  0.9014
  519MOL0     C68414   6.058   7.865   2.392 -0.5666 -0.1396 -0.2178
  519MOL0     C68415   5.943   7.849   2.492  0.1758 -0.4374  0.4823
  519MOL0     C68416   5.856   7.723   2.477  0.5318 -0.5069 -0.0272
  519MOL0     C68417   5.755   7.717   2.362  0.3147  0.5634 -1.0355
  519MOL0     C68418   5.648   7.610   2.390 -0.6622 -0.1225 -0.8402
  519MOL0     C68419   5.553   7.595   2.278  0.5446 -0.7481  0.0679
  519MOL0    Cl68420   5.430   7.723   2.284 -0.6774  0.0404 -0.0106
  519MOL0     C68421   6.591   7.908   2.324  0.1967 -0.1247 -1.0111
  519MOL0     C68422   6.723   7.903   2.273  0.2749 -0.1445 -1.2726
  519MOL0     O68423   6.914   7.988   2.014  0.1036  0.0676 -0.5528
  519MOL0     C68424   7.224   8.022   2.214  0.3662  0.1978 -0.9568
  519MOL0     C68425   7.362   7.994   2.197 -0.0131  0.7576 -0.3364
  519MOL0     N68426   8.103   8.147   2.240 -0.1300  1.3599  0.2560
  519MOL0     N68427   8.227   8.185   2.273 -0.5798 -1.1405 -0.1456
  519MOL0     C68428   9.411   8.320   1.719 -1.1514 -0.9728  0.1205
  519MOL0     C68429   9.510   8.391   1.647 -0.0631  0.7898 -0.4429
  519MOL0     C68430   9.949   8.513   1.538  0.4709 -0.6072 -0.1001
  519MOL0     C68431   9.909   8.521   1.407  0.7855  0.3831 -0.4412
  519MOL0     C68432   9.977   8.592   1.309 -0.6867 -0.5731  0.1298
  519MOL0     C68433  10.105   8.650   1.344  0.6556  0.3110  0.2084
  519MOL0     O68434  10.165   8.723   1.247 -0.2551  0.0930 -0.4646
  519MOL0     C68435  10.301   8.763   1.274  0.7489 -0.6620 -0.5639
  519MOL0     C68436  10.404   8.642   1.266 -0.1504 -0.4686 -0.2309
  519MOL0     C68437  10.402   8.599   1.121 -0.3735  0.0520 -0.1756
  519MOL0     C68438  10.502   8.481   1.087  0.3621  0.5264  0.0720
  519MOL0     C68439  10.453   8.351   1.149 -0.2749 -0.2049 -0.3988
  519MOL0     C68440  10.453   8.259   1.229  0.0174  0.2746  0.9137
  519MOL0     C68441  10.150   8.632   1.475  0.2579  0.1018 -0.9294
  519MOL0     C68442  10.075   8.564   1.576 -0.5636 -1.3010  0.3784
  519MOL0     H68443   9.740   8.394   1.901  1.2178 -1.5098 -0.4525
  519MOL0     H68444   9.579   8.252   1.994 -0.1583 -0.3925  0.1819
  519MOL0     H68445   9.178   8.185   1.815  3.0879  0.1473 -1.5040
  519MOL0     H68446   9.211   8.352   1.877  0.5109 -0.1590 -0.3715
  519MOL0     H68447   9.149   8.238   2.105  1.3974  1.2144 -0.8863
  519MOL0     H68448   9.118   8.082   2.021  0.0730 -0.5550 -0.7772
  519MOL0     H68449   8.945   8.195   1.881  0.3514 -0.8017  0.5945
  519MOL0     H68450   8.950   8.334   1.984 -0.6501 -0.2162 -0.9464
  519MOL0     H68451   8.913   8.053   2.086 -1.1653  0.6063  2.9401
  519MOL0     H68452   8.910   8.202   2.179  1.8208 -0.1078 -0.0017
  519MOL0     H68453   8.703   8.177   1.952 -1.3408  1.6070  0.6032
  519MOL0     H68454   8.713   8.280   2.093 -0.6140 -0.5837  0.2717
  519MOL0     H68455   8.683   8.100   2.246  0.6037 -2.3846  0.2025
  519MOL0     H68456   8.717   7.975   2.118 -1.3852 -1.5558  0.5187
  519MOL0     H68457   8.496   8.027   2.013 -1.5669  5.1176 -2.1695
  519MOL0     H68458   8.488   7.986   2.189 -1.7647 -1.8962 -2.5750
  519MOL0     H68459   8.457   8.275   2.066 -2.8735  0.3942 -1.0502
  519MOL0     H68460   8.472   8.252   2.238  4.1150 -2.3797  0.6650
  519MOL0     H68461   8.266   8.125   1.952  0.8200  4.3765 -0.0398
  519MOL0     H68462   8.020   7.944   2.004  1.5211  1.1243 -1.3460
  519MOL0     H68463   7.957   8.098   1.951 -0.6050 -2.2501 -0.5994
  519MOL0     H68464   7.820   8.116   2.151 -2.2486 -0.5016  0.5796
  519MOL0     H68465   7.895   7.973   2.223 -1.1980  1.4919  1.3168
  519MOL0     H68466   7.742   7.954   1.953 -3.6793  2.0004  0.5416
  519MOL0     H68467   7.795   7.824   2.067  1.3257  0.7531  3.6090
  519MOL0     H68468   7.621   8.058   2.147  1.2915  0.3677 -0.4391
  519MOL0     H68469   7.627   7.899   2.226 -2.0423 -0.9146  0.5779
  519MOL0     H68470   7.336   7.823   1.901  2.4731 -1.0204  2.0384
  519MOL0     H68471   7.110   7.897   1.912  0.5043 -1.1058 -0.8374
  519MOL0     H68472   6.805   8.221   2.341  1.4410 -0.9206 -0.7754
  519MOL0     H68473   6.564   8.230   2.410 -4.2449  0.0171 -3.1137
  519MOL0     H68474   6.328   7.840   2.355  1.0137 -0.2091 -1.1640
  519MOL0     H68475   6.262   7.968   2.244 -0.8274  1.3615  0.0279
  519MOL0     H68476   6.123   8.064   2.446 -1.5736 -0.7659  3.3817
  519MOL0     H68477   6.209   7.936   2.539  5.0313 -1.4203 -1.1798
  519MOL0     H68478   6.104   7.767   2.395 -3.1298 -1.4198  0.4601
  519MOL0     H68479   6.029   7.882   2.288  0.4257 -1.0688 -0.6635
  519MOL0     H68480   5.981   7.855   2.594  2.8537 -1.9633 -0.3266
  519MOL0     H68481   5.878   7.935   2.475  0.6748  0.0996  1.2519
  519MOL0     H68482   5.807   7.707   2.574 -0.0096  1.2138  0.0235
  519MOL0     H68483   5.926   7.641   2.463  0.7137 -0.0178 -2.2547
  519MOL0     H68484   5.804   7.703   2.266 -1.8263 -4.1469 -1.7212
  519MOL0     H68485   5.702   7.813   2.360  0.2737  0.5685 -0.2915
  519MOL0     H68486   5.688   7.508   2.397 -3.0187 -1.0876 -0.4688
  519MOL0     H68487   5.602   7.633   2.486 -1.4382  0.2076 -1.2805
  519MOL0     H68488   5.503   7.497   2.284 -0.7985 -0.1864 -1.1617
  519MOL0     H68489   5.608   7.593   2.183  0.1539 -3.4706 -0.1778
  519MOL0     H68490   6.531   7.818   2.336 -0.2614 -0.0538 -2.5226
  519MOL0     H68491   6.784   7.814   2.259  0.2608 -0.2032 -0.9667
  519MOL0     H68492   7.198   8.079   2.302 -1.7323 -0.7862 -0.8896
  519MOL0     H68493   7.427   8.035   2.274  0.4729  0.0305 -0.3557
  519MOL0     H68494   9.314   8.308   1.672 -0.9384 -0.2147 -0.5396
  519MOL0     H68495   9.500   8.421   1.543 -0.9719 -0.1814 -0.6486
  519MOL0     H68496   9.823   8.468   1.368  1.9433 -2.3393  0.4457
  519MOL0     H68497   9.939   8.595   1.207 -3.3973 -1.8580  1.0061
  519MOL0     H68498  10.300   8.818   1.368 -1.1061  0.9181 -1.4459
  519MOL0     H68499  10.333   8.844   1.208 -1.1230  1.5114  1.0876
  519MOL0     H68500  10.503   8.682   1.291 -0.4390 -0.7147  1.3877
  519MOL0     H68501  10.375   8.558   1.329  2.5264 -2.6907 -1.7003
  519MOL0     H68502  10.426   8.690   1.067  0.6172 -1.0319 -1.6153
  519MOL0     H68503  10.297   8.579   1.096  0.4127 -0.6647 -3.2373
  519MOL0     H68504  10.479   8.467   0.981 -0.3880  2.5593 -0.0808
  519MOL0     H68505  10.606   8.503   1.115  0.0494  0.1879  1.5986
  519MOL0     H68506  10.466   8.177   1.297 -0.9601 -0.3332  0.3965
  519MOL0     H68507  10.245   8.670   1.512 -0.4502 -0.3013  1.4766
  519MOL0     H68508  10.116   8.542   1.674 -1.8372 -0.8630  1.0274
  520MOL0     O68509   2.762   2.969   4.479  0.3719  0.5981  0.3497
  520MOL0     C68510   2.826   2.936   4.383 -0.1973  1.0749  1.0189
  520MOL0     O68511   2.796   2.832   4.296 -0.0086 -0.6523  0.1239
  520MOL0     C68512   2.689   2.749   4.308 -0.8710 -0.7894  0.0706
  520MOL0     C68513   2.718   2.616   4.265 -0.1574 -0.0579 -0.7311
  520MOL0     C68514   2.628   2.513   4.290  0.4371  0.3779  0.4707
  520MOL0     C68515   2.498   2.548   4.337  0.9584 -0.8790 -0.1595
  520MOL0     O68516   2.400   2.447   4.335 -1.0946  0.0782 -0.5259
  520MOL0     C68517   2.370   2.395   4.463 -0.8324 -0.5259  0.7740
  520MOL0     C68518   2.269   2.283   4.447 -0.0916  0.0853  0.6120
  520MOL0     C68519   2.142   2.334   4.385 -0.3604 -0.9250  0.3445
  520MOL0     C68520   2.026   2.231   4.401 -0.1102  0.2531  0.3630
  520MOL0     C68521   1.880   2.301   4.391 -0.6350  0.7774 -0.0479
  520MOL0     C68522   1.853   2.328   4.241 -0.9092 -0.1986 -0.1212
  520MOL0     C68523   1.710   2.294   4.201  0.1446  0.2719  0.4794
  520MOL0     C68524   1.614   2.405   4.231 -0.0987  0.6909  0.6302
  520MOL0     N68525   1.470   2.375   4.198  0.3427  0.1781  0.6115
  520MOL0     C68526   1.381   2.463   4.243 -0.2064 -1.0189  0.3355
  520MOL0     C68527   1.283   2.461   4.156  0.3304  0.5551 -0.3201
  520MOL0     C68528   1.155   2.537   4.171  0.3411  0.6048  0.0420
  520MOL0     C68529   1.040   2.463   4.242 -0.0648  0.8820  0.2134
  520MOL0     C68530   0.906   2.536   4.233  0.8195 -0.0029 -1.3338
  520MOL0     C68531   0.794   2.445   4.290  0.7156 -0.9290  0.2189
  520MOL0     O68532   0.678   2.532   4.311 -0.0941 -0.3396  0.4385
  520MOL0     C68533   0.558   2.464   4.349  0.5626 -0.3878  0.2659
  520MOL0     C68534   0.555   2.337   4.404  0.6979  0.0649  0.0111
  520MOL0     C68535   0.435   2.263   4.425 -0.5645 -0.6902  0.1756
  520MOL0     C68536   0.318   2.327   4.394  0.4072 -0.3270 -0.1428
  520MOL0     C68537   0.187   2.253   4.415 -0.1526  0.2505 -0.8103
  520MOL0     O68538   0.079   2.327   4.363 -0.3018  0.4294 -0.5704
  520MOL0     C68539  -0.040   2.294   4.395 -0.4148  0.3073 -0.5204
  520MOL0     C68540  -0.084   2.212   4.505  0.5411 -0.1951 -0.4584
  520MOL0     C68541  -0.221   2.190   4.527 -0.7042 -0.1314  0.5680
  520MOL0     C68542  -0.326   2.237   4.443 -0.3967 -0.1780  0.0287
  520MOL0     O68543  -0.453   2.196   4.462 -0.4305 -0.1949  0.2022
  520MOL0     C68544  -0.484   2.109   4.574 -0.8042 -0.8987  0.7147
  520MOL0     C68545  -0.640   2.086   4.586  0.2959  0.5282  0.8090
  520MOL0     C68546  -0.686   1.969   4.683 -0.7160 -1.5696  0.0197
  520MOL0     C68547  -0.835   1.953   4.678 -0.1154  0.2306  0.5473
  520MOL0     C68548  -0.916   2.057   4.746  0.6046 -0.0179 -0.3926
  520MOL0     C68549  -0.916   2.033   4.893  0.5350 -0.1641  0.0710
  520MOL0     C68550  -1.002   2.136   4.967 -0.5365  0.9550  0.5411
  520MOL0     C68551  -1.142   2.085   4.965  0.2232 -0.1179  0.2582
  520MOL0    Cl68552  -1.218   2.188   5.091  0.0693  0.7826 -0.4210
  520MOL0     C68553  -0.275   2.324   4.336  0.3302  0.8656  0.9765
  520MOL0     C68554  -0.144   2.350   4.317 -0.5057 -0.4486 -0.4456
  520MOL0     O68555   0.186   2.142   4.465  0.5084 -0.2069 -0.2644
  520MOL0     C68556   0.318   2.453   4.342  0.7354 -0.9523 -0.3350
  520MOL0     C68557   0.437   2.518   4.316 -0.8726 -0.5553 -0.0190
  520MOL0     N68558   1.303   2.349   4.074  0.3636 -0.7271 -0.2377
  520MOL0     N68559   1.418   2.301   4.094  0.1980  0.7123 -0.1462
  520MOL0     C68560   2.464   2.684   4.364  0.5125 -1.2883 -0.0723
  520MOL0     C68561   2.556   2.786   4.347 -0.1830 -0.3503 -0.1189
  520MOL0     C68562   2.959   2.992   4.375  0.4039 -0.5827 -1.1207
  520MOL0     C68563   3.058   2.927   4.296  0.3765 -0.8517 -0.0051
  520MOL0     C68564   3.187   2.974   4.281 -0.0194  0.0606  0.7522
  520MOL0     C68565   3.233   3.093   4.345  0.4888  0.0839 -0.4112
  520MOL0     O68566   3.366   3.123   4.314  0.1152  0.0261 -0.1051
  520MOL0     C68567   3.411   3.231   4.399  0.4915  0.2897  0.9348
  520MOL0     C68568   3.550   3.275   4.374  0.4043  0.1471  0.0890
  520MOL0     C68569   3.568   3.327   4.229 -0.6760 -0.9753 -0.1620
  520MOL0     C68570   3.708   3.385   4.196  0.4565 -1.0164  0.2099
  520MOL0     C68571   3.757   3.489   4.286 -1.0113 -0.6767  0.2619
  520MOL0     C68572   3.810   3.560   4.372  0.6694  0.1753  0.0490
  520MOL0     C68573   3.135   3.160   4.423  0.0550 -0.8412 -0.3970
  520MOL0     C68574   3.002   3.112   4.440 -0.2242 -0.3794  0.0947
  520MOL0     H68575   2.819   2.593   4.234  0.1707 -0.1051  0.3206
  520MOL0     H68576   2.639   2.406   4.276 -0.5839  0.2519  0.5829
  520MOL0     H68577   2.338   2.478   4.527 -0.8290  1.5039 -1.6838
  520MOL0     H68578   2.450   2.342   4.513 -1.5249  0.1873  2.7261
  520MOL0     H68579   2.245   2.248   4.548 -1.1897  1.0487  0.7085
  520MOL0     H68580   2.313   2.206   4.383  0.0517  0.7472 -0.1044
  520MOL0     H68581   2.158   2.356   4.279 -2.7229 -1.8435 -0.2715
  520MOL0     H68582   2.112   2.431   4.426  0.2749 -1.3072  1.7731
  520MOL0     H68583   2.040   2.142   4.339  0.3572  2.0057 -2.1926
  520MOL0     H68584   2.033   2.183   4.499  2.9926  1.3605  0.7843
  520MOL0     H68585   1.870   2.397   4.443 -1.1423  0.4349  0.5045
  520MOL0     H68586   1.804   2.229   4.423  0.3090 -1.4547 -2.4896
  520MOL0     H68587   1.907   2.248   4.190 -0.3117  0.2040 -0.1233
  520MOL0     H68588   1.878   2.430   4.211  2.9770 -0.8502  0.4068
  520MOL0     H68589   1.720   2.275   4.094 -0.2663  1.1996  0.2599
  520MOL0     H68590   1.672   2.205   4.252  0.1517  0.7618  1.3545
  520MOL0     H68591   1.646   2.486   4.165  1.3128 -1.4810 -1.4713
  520MOL0     H68592   1.621   2.438   4.335  2.9173 -3.0259  1.8274
  520MOL0     H68593   1.403   2.530   4.325  1.4711  0.0959 -0.9654
  520MOL0     H68594   1.125   2.559   4.068 -1.6006 -3.9352 -0.6018
  520MOL0     H68595   1.157   2.635   4.218 -0.5523  0.6945 -0.0906
  520MOL0     H68596   1.073   2.442   4.344 -0.3244  0.6500  0.2552
  520MOL0     H68597   1.029   2.365   4.193 -1.7550 -0.2652  2.6472
  520MOL0     H68598   0.910   2.629   4.290 -1.7643 -0.6511  0.0950
  520MOL0     H68599   0.894   2.556   4.127 -0.1304  1.3919 -0.9848
  520MOL0     H68600   0.823   2.407   4.389 -0.9723 -1.5285  0.5224
  520MOL0     H68601   0.786   2.354   4.230  2.1480 -2.2241  1.8658
  520MOL0     H68602   0.647   2.281   4.417  1.6851  1.7674  0.7352
  520MOL0     H68603   0.432   2.171   4.483  1.8076 -1.7517 -1.2366
  520MOL0     H68604  -0.013   2.181   4.581  0.1524  3.9155  1.8541
  520MOL0     H68605  -0.241   2.142   4.622  0.8477 -1.0827  0.4490
  520MOL0     H68606  -0.451   2.161   4.664  0.0962 -0.2597  0.0478
  520MOL0     H68607  -0.432   2.014   4.563  0.4508 -0.0203 -1.8914
  520MOL0     H68608  -0.684   2.070   4.487 -1.6640  1.9139  1.3774
  520MOL0     H68609  -0.686   2.184   4.607  0.2046  1.7231 -3.8086
  520MOL0     H68610  -0.643   1.987   4.782  2.7107  1.6174 -1.7611
  520MOL0     H68611  -0.653   1.873   4.642  0.5544 -0.2251 -2.3080
  520MOL0     H68612  -0.867   1.930   4.576  4.2911  2.1441 -1.5318
  520MOL0     H68613  -0.848   1.862   4.737  4.8259 -0.3761  1.1565
  520MOL0     H68614  -1.017   2.047   4.704  1.3552 -3.2252 -1.7240
  520MOL0     H68615  -0.877   2.154   4.715 -2.3767  1.1740 -0.7642
  520MOL0     H68616  -0.815   2.032   4.934  1.3150 -4.2107 -1.4259
  520MOL0     H68617  -0.947   1.930   4.915 -0.8084  0.1405 -0.3286
  520MOL0     H68618  -0.962   2.148   5.068  0.5740  1.1789  0.0820
  520MOL0     H68619  -1.001   2.238   4.926  0.7191  0.4011 -0.9155
  520MOL0     H68620  -1.151   1.978   4.987  0.1678  0.0355  1.0221
  520MOL0     H68621  -1.199   2.105   4.874 -2.7130 -0.7429  1.8253
  520MOL0     H68622  -0.348   2.361   4.265 -0.9793 -3.6162 -0.3798
  520MOL0     H68623  -0.109   2.411   4.234 -0.4595  1.0384  0.6207
  520MOL0     H68624   0.237   2.515   4.305  0.8157  0.0381  1.0741
  520MOL0     H68625   0.429   2.618   4.274  0.9332 -0.4678 -0.2712
  520MOL0     H68626   2.363   2.716   4.386  1.3648  0.6408  1.3661
  520MOL0     H68627   2.531   2.890   4.366 -2.0036 -1.1064  2.1554
  520MOL0     H68628   3.046   2.834   4.241  0.6766 -0.3295 -0.9644
  520MOL0     H68629   3.258   2.925   4.215 -0.4707 -0.1985  0.4612
  520MOL0     H68630   3.398   3.204   4.504 -3.8028  1.2774  0.8170
  520MOL0     H68631   3.342   3.312   4.376 -0.3047 -0.5426  0.3173
  520MOL0     H68632   3.573   3.353   4.448  2.2518 -1.0757  0.8841
  520MOL0     H68633   3.621   3.195   4.395 -1.3880 -1.0935  1.7047
  520MOL0     H68634   3.500   3.411   4.221  1.7276  1.4655  2.5812
  520MOL0     H68635   3.533   3.263   4.147 -1.5295 -1.6141  0.6746
  520MOL0     H68636   3.778   3.301   4.195  0.8999 -0.7494  2.7866
  520MOL0     H68637   3.689   3.422   4.094 -0.7346  1.1236  1.1339
  520MOL0     H68638   3.858   3.636   4.432 -0.3844  1.8140 -1.1023
  520MOL0     H68639   3.167   3.244   4.484 -0.5941  0.1411 -1.3733
  520MOL0     H68640   2.939   3.161   4.515 -0.6939  0.2415 -0.6875
  521MOL0     O68641   8.794   1.506   2.941 -0.0584  0.6018  0.2855
  521MOL0     C68642   8.819   1.476   3.057 -0.3026 -0.4721  0.0931
  521MOL0     O68643   8.730   1.476   3.158  0.3350 -0.0105 -0.0269
  521MOL0     C68644   8.591   1.495   3.130 -0.5791  0.5009  0.0381
  521MOL0     C68645   8.556   1.622   3.083  0.2017  0.0414 -0.3274
  521MOL0     C68646   8.413   1.649   3.062  0.0328 -0.5350  0.2754
  521MOL0     C68647   8.318   1.554   3.110  0.0644 -0.0992  0.8907
  521MOL0     O68648   8.175   1.573   3.113  0.6872  0.3917  0.3822
  521MOL0     C68649   8.120   1.682   3.031  0.2072 -0.2001 -0.2092
  521MOL0     C68650   7.971   1.702   3.072  0.3223  0.8252 -0.0107
  521MOL0     C68651   7.878   1.596   3.023 -0.2235 -0.1454  0.5987
  521MOL0     C68652   7.877   1.564   2.874 -0.8420 -0.6476 -0.3120
  521MOL0     C68653   7.764   1.469   2.820 -0.7564 -0.1198  0.8077
  521MOL0     C68654   7.736   1.344   2.900 -0.3217  0.2851 -0.2470
  521MOL0     C68655   7.628   1.252   2.841  0.1393 -0.5312  0.1077
  521MOL0     C68656   7.573   1.144   2.934  0.1503 -0.2331 -0.8716
  521MOL0     N68657   7.492   1.201   3.057  0.4599 -0.3353 -0.1459
  521MOL0     C68658   7.532   1.175   3.188 -0.5781 -0.5859  0.4097
  521MOL0     C68659   7.429   1.232   3.266  0.1276  1.2429  0.1140
  521MOL0     C68660   7.404   1.230   3.417  0.2918 -0.6789 -0.4973
  521MOL0     C68661   7.309   1.112   3.460 -0.2476  0.0006  0.1578
  521MOL0     C68662   7.163   1.121   3.396 -0.2137  1.1389 -0.6114
  521MOL0     C68663   7.054   1.030   3.469 -0.3436 -0.0518 -0.1281
  521MOL0     O68664   6.929   1.075   3.401 -0.0990 -0.2567  0.2860
  521MOL0     C68665   6.817   1.054   3.471  0.7132 -0.5413  0.8004
  521MOL0     C68666   6.708   1.137   3.442  0.6452 -0.0805 -0.7257
  521MOL0     C68667   6.581   1.118   3.503 -0.6618 -0.3587  1.2159
  521MOL0     C68668   6.553   1.010   3.588 -0.3786  0.1298  1.2722
  521MOL0     C68669   6.428   0.991   3.646  0.1698 -0.2195 -0.2246
  521MOL0     O68670   6.391   0.867   3.686  0.0042  0.0475  0.4205
  521MOL0     C68671   6.265   0.836   3.725  0.3199  0.2730 -0.4774
  521MOL0     C68672   6.188   0.744   3.654 -0.2892  0.0514  0.0251
  521MOL0     C68673   6.057   0.700   3.692 -0.4984 -0.5583  0.3936
  521MOL0     C68674   6.006   0.758   3.806 -0.0039  0.3774 -0.5411
  521MOL0     O68675   5.884   0.732   3.855  0.3632  0.3102 -0.0859
  521MOL0     C68676   5.816   0.611   3.818 -0.1756  0.4594  0.1791
  521MOL0     C68677   5.689   0.607   3.889 -0.6875 -0.4702 -0.3164
  521MOL0     C68678   5.692   0.573   4.037  0.7516  0.0081  0.3570
  521MOL0     C68679   5.692   0.420   4.056  0.1160 -0.8528 -0.2756
  521MOL0     C68680   5.756   0.383   4.195  0.8044 -0.7878  0.3241
  521MOL0     C68681   5.694   0.461   4.316 -0.1163  0.2187  0.1704
  521MOL0     C68682   5.688   0.387   4.451  0.5686 -0.0976  0.6111
  521MOL0     C68683   5.572   0.282   4.459  0.1146 -0.1510  0.3135
  521MOL0    Cl68684   5.403   0.352   4.445 -0.1209  0.1586 -0.2274
  521MOL0     C68685   6.087   0.842   3.889  0.4961 -0.5179 -0.2212
  521MOL0     C68686   6.213   0.881   3.851 -1.1578  0.8370  0.3221
  521MOL0     O68687   6.361   1.097   3.656  0.1299 -0.2706 -0.3902
  521MOL0     C68688   6.659   0.926   3.612  0.2551  0.3027 -0.9170
  521MOL0     C68689   6.793   0.952   3.565 -0.0281  0.4000  0.3779
  521MOL0     N68690   7.342   1.288   3.170  1.0387  0.0854  0.5002
  521MOL0     N68691   7.380   1.274   3.052  0.3270  0.5951  0.2414
  521MOL0     C68692   8.359   1.436   3.165  0.2978 -0.6549  1.0125
  521MOL0     C68693   8.496   1.402   3.171  0.2096 -0.2399  0.6389
  521MOL0     C68694   8.954   1.432   3.103  0.3430 -0.0966 -0.1418
  521MOL0     C68695   9.052   1.412   3.002  0.2482  0.9693 -0.0896
  521MOL0     C68696   9.176   1.364   3.043 -0.2918 -0.0395 -0.4718
  521MOL0     C68697   9.201   1.332   3.181 -1.6449 -0.2880  0.4154
  521MOL0     O68698   9.316   1.274   3.211 -0.9566  0.2621 -0.2586
  521MOL0     C68699   9.438   1.310   3.154 -0.8028 -0.5431 -0.3939
  521MOL0     C68700   9.559   1.263   3.230 -0.1645 -1.2919 -1.0106
  521MOL0     C68701   9.567   1.328   3.372 -0.5045  1.0820 -0.2327
  521MOL0     C68702   9.668   1.242   3.441  0.2829  0.8017  0.5814
  521MOL0     C68703   9.807   1.281   3.428 -0.6366  0.1702  1.2791
  521MOL0     C68704   9.925   1.302   3.405  0.3539  0.2128  0.1837
  521MOL0     C68705   9.104   1.359   3.273 -0.4711  0.3518 -0.7653
  521MOL0     C68706   8.975   1.402   3.240  0.4100 -0.7211 -0.2062
  521MOL0     H68707   8.642   1.681   3.054  0.1001 -0.1617 -1.0607
  521MOL0     H68708   8.375   1.742   3.022 -1.4664 -2.0122 -1.9837
  521MOL0     H68709   8.145   1.658   2.927  1.6696 -3.5359  0.7981
  521MOL0     H68710   8.173   1.777   3.047 -2.0646  1.8210 -3.5001
  521MOL0     H68711   7.932   1.793   3.026  1.4976 -0.2617 -3.4634
  521MOL0     H68712   7.955   1.707   3.180  2.0786  4.1436  0.2152
  521MOL0     H68713   7.776   1.627   3.048 -0.6229 -0.1856 -0.8946
  521MOL0     H68714   7.903   1.500   3.069  0.5316 -0.0507  0.3961
  521MOL0     H68715   7.874   1.657   2.816  0.8902 -1.5872 -2.0508
  521MOL0     H68716   7.971   1.515   2.846 -2.2098 -2.3891 -2.1837
  521MOL0     H68717   7.784   1.449   2.715 -1.0355 -0.8321  0.8889
  521MOL0     H68718   7.676   1.533   2.812 -0.9765  0.1679  4.0576
  521MOL0     H68719   7.702   1.375   2.999  0.9559  0.6961  0.0784
  521MOL0     H68720   7.828   1.290   2.922 -1.3264 -0.7482  1.7006
  521MOL0     H68721   7.547   1.314   2.802  1.3220 -0.6007 -2.7025
  521MOL0     H68722   7.667   1.205   2.750 -0.0075  3.0877 -2.0134
  521MOL0     H68723   7.658   1.082   2.967  1.9504  2.5709  0.0830
  521MOL0     H68724   7.508   1.076   2.878  2.9315 -3.6834 -0.2883
  521MOL0     H68725   7.623   1.122   3.214 -0.7006 -0.7035  0.6011
  521MOL0     H68726   7.356   1.323   3.450  0.0018 -0.1748 -2.2128
  521MOL0     H68727   7.498   1.214   3.470 -1.5776  0.3300  3.5887
  521MOL0     H68728   7.312   1.117   3.569  0.0531  0.5502  0.1255
  521MOL0     H68729   7.368   1.022   3.438  1.6926 -0.0672  4.6283
  521MOL0     H68730   7.135   1.226   3.413  2.0021  1.4006  2.1695
  521MOL0     H68731   7.171   1.101   3.289  1.6809 -1.3886 -0.0753
  521MOL0     H68732   7.046   1.049   3.577 -1.6063  3.4261 -0.6740
  521MOL0     H68733   7.081   0.925   3.459 -1.2893 -0.2184 -1.0960
  521MOL0     H68734   6.728   1.225   3.382  0.1808  1.5879  1.4306
  521MOL0     H68735   6.507   1.186   3.464 -0.1433 -1.1528 -1.3313
  521MOL0     H68736   6.219   0.711   3.556  3.4084 -0.9973  1.3856
  521MOL0     H68737   6.008   0.627   3.628  1.3468 -1.0126 -0.5728
  521MOL0     H68738   5.871   0.521   3.845 -0.8848  0.4884  1.8444
  521MOL0     H68739   5.808   0.608   3.709  0.5457  7.0680 -0.4555
  521MOL0     H68740   5.615   0.550   3.832  0.3531 -2.4132  0.2039
  521MOL0     H68741   5.667   0.714   3.898  3.0702  0.4274 -0.3116
  521MOL0     H68742   5.602   0.609   4.088 -0.0463 -1.4077 -0.0155
  521MOL0     H68743   5.780   0.625   4.076 -0.6836  3.5629 -0.7620
  521MOL0     H68744   5.590   0.381   4.047  0.8048 -2.6039 -0.9946
  521MOL0     H68745   5.753   0.374   3.978 -1.0285 -1.9127 -0.5837
  521MOL0     H68746   5.861   0.413   4.197  0.9283 -0.6155 -3.3549
  521MOL0     H68747   5.761   0.274   4.209 -0.8354 -0.7588  1.4071
  521MOL0     H68748   5.592   0.495   4.296 -0.1082 -0.3031 -0.8000
  521MOL0     H68749   5.752   0.551   4.339 -1.1228  0.1436  3.7165
  521MOL0     H68750   5.784   0.338   4.467  0.1835 -1.4725 -0.9011
  521MOL0     H68751   5.674   0.460   4.531 -0.7605 -0.4381  0.7238
  521MOL0     H68752   5.585   0.228   4.553 -2.8509 -0.6956  0.5031
  521MOL0     H68753   5.594   0.223   4.369  0.7559  1.1501 -0.4169
  521MOL0     H68754   6.045   0.868   3.985  0.0583  0.1778 -0.5932
  521MOL0     H68755   6.278   0.942   3.914  0.3120 -1.4113  1.0749
  521MOL0     H68756   6.640   0.841   3.677  0.2414  0.8656 -0.1659
  521MOL0     H68757   6.877   0.887   3.587 -1.5068 -2.0319 -0.7646
  521MOL0     H68758   8.284   1.365   3.197 -3.0570  2.1760  0.1477
  521MOL0     H68759   8.514   1.305   3.217 -0.3541 -1.5284 -1.7003
  521MOL0     H68760   9.039   1.437   2.897 -0.6366 -2.7768 -1.0045
  521MOL0     H68761   9.244   1.329   2.966 -1.3555 -2.0094 -0.5990
  521MOL0     H68762   9.449   1.419   3.160  2.3108 -0.7243 -1.2157
  521MOL0     H68763   9.440   1.280   3.048 -0.1839  0.5583 -0.7080
  521MOL0     H68764   9.565   1.154   3.227 -4.5199 -1.6587 -2.1082
  521MOL0     H68765   9.645   1.291   3.168 -0.6801 -0.9986 -1.6065
  521MOL0     H68766   9.471   1.322   3.425 -0.9764  2.2287 -0.9242
  521MOL0     H68767   9.597   1.433   3.379 -0.6952  1.0638  1.0972
  521MOL0     H68768   9.649   1.240   3.549 -0.1286  0.3320  0.5005
  521MOL0     H68769   9.675   1.141   3.400  2.7236  1.3431 -0.5473
  521MOL0     H68770  10.028   1.331   3.392  0.4811 -0.3699 -0.1329
  521MOL0     H68771   9.137   1.341   3.375 -1.2903  1.0776 -0.3573
  521MOL0     H68772   8.908   1.410   3.325  0.0632 -0.5426 -0.4944
  522MOL0     O68773   3.074   9.127   0.076 -0.0070 -1.2431  0.3870
  522MOL0     C68774   3.119   9.206  -0.014 -0.2457  0.3933 -0.1927
  522MOL0     O68775   3.058   9.225  -0.132 -0.0706 -0.4269 -0.7338
  522MOL0     C68776   2.931   9.180  -0.143 -0.0272  0.6369 -0.1643
  522MOL0     C68777   2.845   9.262  -0.215  0.0973 -0.5681  0.8809
  522MOL0     C68778   2.708   9.227  -0.249 -0.8283  1.1369 -0.2224
  522MOL0     C68779   2.654   9.099  -0.211 -0.1159  0.0909 -0.0463
  522MOL0     O68780   2.521   9.079  -0.223  0.8197 -0.7770 -0.3383
  522MOL0     C68781   2.467   8.996  -0.129 -0.3939 -0.3872  0.1797
  522MOL0     C68782   2.312   8.997  -0.140 -0.2097  0.1850 -0.8926
  522MOL0     C68783   2.233   9.134  -0.137 -0.4196  0.5362 -0.2941
  522MOL0     C68784   2.089   9.110  -0.160  0.5133  0.2335  1.0635
  522MOL0     C68785   1.999   9.237  -0.161  1.0098 -0.4104 -0.4266
  522MOL0     C68786   1.846   9.199  -0.141 -0.4571  0.3568  0.0105
  522MOL0     C68787   1.757   9.324  -0.149 -0.1971  0.5038 -0.0544
  522MOL0     C68788   1.617   9.288  -0.151 -0.0158  1.0449  0.9620
  522MOL0     N68789   1.526   9.398  -0.132 -0.5416  0.4326  0.7985
  522MOL0     C68790   1.426   9.409  -0.039 -0.0269  0.3761  0.3185
  522MOL0     C68791   1.348   9.508  -0.082  0.7482 -1.3886 -0.7707
  522MOL0     C68792   1.219   9.555  -0.024 -0.8885 -0.3472 -0.6185
  522MOL0     C68793   1.110   9.451  -0.049  1.7525  0.0955  0.0074
  522MOL0     C68794   0.969   9.517  -0.017 -1.3360  0.2847  0.1827
  522MOL0     C68795   0.847   9.423   0.014  0.1759 -0.4443 -0.0606
  522MOL0     O68796   0.725   9.495   0.018 -0.3242  0.1579  0.8188
  522MOL0     C68797   0.617   9.422  -0.018  1.9167 -1.2076  0.0972
  522MOL0     C68798   0.491   9.492   0.009 -0.3865  0.5429  0.5411
  522MOL0     C68799   0.363   9.436  -0.026  0.6728 -1.1368  0.6521
  522MOL0     C68800   0.356   9.314  -0.091 -0.2381  0.5783  0.4112
  522MOL0     C68801   0.218   9.257  -0.127 -1.0945 -0.0756 -0.2653
  522MOL0     O68802   0.218   9.138  -0.189  0.0433  0.1840 -0.2469
  522MOL0     C68803   0.110   9.063  -0.237 -0.3972  1.0921 -0.0861
  522MOL0     C68804  -0.029   9.093  -0.244  0.7584  0.0922 -0.2641
  522MOL0     C68805  -0.111   9.002  -0.317  0.0628 -0.2936 -0.2197
  522MOL0     C68806  -0.062   8.895  -0.386  0.7442 -0.0528  0.1090
  522MOL0     O68807  -0.125   8.807  -0.471 -0.1181  0.3358 -0.5726
  522MOL0     C68808  -0.261   8.836  -0.514  0.2331 -0.0244 -0.1714
  522MOL0     C68809  -0.259   8.954  -0.616  0.2716  0.2466 -0.3300
  522MOL0     C68810  -0.406   8.985  -0.659  0.9660  0.5020 -0.3909
  522MOL0     C68811  -0.410   9.108  -0.749 -0.5457 -0.5351  0.0031
  522MOL0     C68812  -0.564   9.129  -0.768 -0.1638 -0.1134 -0.7406
  522MOL0     C68813  -0.587   9.260  -0.846  0.3819  0.2505  0.5793
  522MOL0     C68814  -0.741   9.282  -0.833 -0.1616 -0.3657  0.4356
  522MOL0     C68815  -0.804   9.419  -0.879 -0.0001  0.7275  0.5070
  522MOL0    Cl68816  -0.768   9.466  -1.045 -0.5257  0.1158 -0.3528
  522MOL0     C68817   0.076   8.861  -0.369  0.3871  0.7190  0.4709
  522MOL0     C68818   0.152   8.946  -0.293  0.0023  0.4555 -0.0989
  522MOL0     O68819   0.114   9.327  -0.110 -0.0465  0.3832 -0.3845
  522MOL0     C68820   0.468   9.243  -0.122 -0.5586  0.1737 -0.4740
  522MOL0     C68821   0.597   9.304  -0.093  0.4398  0.0825  0.6521
  522MOL0     N68822   1.400   9.556  -0.204  0.8344  0.2727  0.3296
  522MOL0     N68823   1.505   9.487  -0.231 -0.1872 -0.8193 -0.2475
  522MOL0     C68824   2.751   9.009  -0.145  0.7058 -0.0767 -0.3758
  522MOL0     C68825   2.884   9.049  -0.114 -0.6573  0.7447 -0.3164
  522MOL0     C68826   3.253   9.255  -0.003  0.7109 -0.6798  0.2529
  522MOL0     C68827   3.349   9.168   0.045  0.6113 -0.0843  0.2139
  522MOL0     C68828   3.475   9.211   0.064  0.1294  0.3771  0.8237
  522MOL0     C68829   3.512   9.345   0.032  0.1824 -0.6514 -0.3176
  522MOL0     O68830   3.632   9.407   0.065  0.1846 -0.5551 -0.2242
  522MOL0     C68831   3.753   9.325   0.085  0.6691  0.0891 -0.2472
  522MOL0     C68832   3.862   9.411   0.130  0.0574  0.1009  0.2071
  522MOL0     C68833   3.993   9.330   0.148  1.2130  0.3025 -0.0097
  522MOL0     C68834   4.062   9.281   0.026  0.8920  0.6686 -0.0809
  522MOL0     C68835   4.189   9.221   0.058 -0.8348  0.8835 -0.3267
  522MOL0     C68836   4.304   9.193   0.085  0.3192  0.3389  0.2776
  522MOL0     C68837   3.416   9.438  -0.003  1.2070 -0.3015  0.7908
  522MOL0     C68838   3.281   9.396  -0.019 -0.4924  0.2885 -0.3344
  522MOL0     H68839   2.876   9.364  -0.235  2.8228 -1.7123 -1.3926
  522MOL0     H68840   2.644   9.308  -0.282  0.2670  2.6295  1.1444
  522MOL0     H68841   2.507   9.030  -0.033  0.8700  0.4219 -0.6080
  522MOL0     H68842   2.504   8.894  -0.144  0.6084  0.0410 -0.3857
  522MOL0     H68843   2.270   8.934  -0.061  1.2648  1.4341  0.9760
  522MOL0     H68844   2.299   8.937  -0.231 -0.7185 -0.0780 -0.6501
  522MOL0     H68845   2.263   9.206  -0.213  4.9622  0.2077  1.1719
  522MOL0     H68846   2.240   9.180  -0.038 -1.0747 -1.7666  0.8829
  522MOL0     H68847   2.071   9.074  -0.262 -2.1334  2.6644  0.5473
  522MOL0     H68848   2.049   9.046  -0.081 -0.3758  0.4191  0.7760
  522MOL0     H68849   2.014   9.288  -0.256 -0.8180 -0.1359 -0.5863
  522MOL0     H68850   2.027   9.303  -0.078 -1.5407 -0.7262  0.7755
  522MOL0     H68851   1.827   9.141  -0.050 -1.7738  0.9628  0.1553
  522MOL0     H68852   1.811   9.135  -0.223 -1.0515  0.8296 -0.1134
  522MOL0     H68853   1.776   9.385  -0.060  2.2546 -0.4587  0.1695
  522MOL0     H68854   1.790   9.393  -0.228 -0.6219  1.5728  0.6726
  522MOL0     H68855   1.602   9.202  -0.086 -1.4945 -0.8078 -1.6638
  522MOL0     H68856   1.595   9.250  -0.251 -2.6314  3.2656  0.5562
  522MOL0     H68857   1.408   9.338   0.041  1.0963  0.5132  0.7179
  522MOL0     H68858   1.196   9.656  -0.059 -3.0249  1.1525  4.2314
  522MOL0     H68859   1.231   9.563   0.084 -1.0113  2.0937 -0.7302
  522MOL0     H68860   1.128   9.365   0.016  0.1325 -2.3597 -2.5080
  522MOL0     H68861   1.107   9.408  -0.150 -2.3435  0.6367 -0.2689
  522MOL0     H68862   0.989   9.572   0.076 -0.6031  0.9662 -0.3726
  522MOL0     H68863   0.944   9.597  -0.087  0.4667  1.6249  0.9740
  522MOL0     H68864   0.849   9.386   0.117 -2.3394  4.5157  2.1314
  522MOL0     H68865   0.850   9.346  -0.063  2.3183 -2.3323  1.7563
  522MOL0     H68866   0.498   9.592   0.050 -2.7739  0.5211  1.1370
  522MOL0     H68867   0.271   9.492  -0.009  1.1216 -0.6086  1.4024
  522MOL0     H68868  -0.074   9.183  -0.203  0.3756 -0.4282  0.4731
  522MOL0     H68869  -0.215   9.032  -0.330  0.8006  1.8156 -1.6741
  522MOL0     H68870  -0.338   8.857  -0.439  0.5955 -2.6085  1.0365
  522MOL0     H68871  -0.296   8.752  -0.575  2.9687 -2.2230  1.0925
  522MOL0     H68872  -0.207   8.910  -0.701 -1.4737 -2.4940 -0.1089
  522MOL0     H68873  -0.218   9.048  -0.578 -1.0209 -1.1815  5.6043
  522MOL0     H68874  -0.467   8.996  -0.569 -0.2377 -0.3047 -1.0747
  522MOL0     H68875  -0.442   8.899  -0.716 -0.8271  0.6600  0.4503
  522MOL0     H68876  -0.362   9.192  -0.699 -3.0764  1.9816 -1.4848
  522MOL0     H68877  -0.363   9.090  -0.847 -1.1987 -0.5859 -0.3064
  522MOL0     H68878  -0.625   9.128  -0.677 -0.1553  3.4046 -0.5635
  522MOL0     H68879  -0.597   9.039  -0.821  2.3022 -2.5426  1.5374
  522MOL0     H68880  -0.562   9.243  -0.951 -0.4433 -2.4996  0.7479
  522MOL0     H68881  -0.529   9.343  -0.806 -0.5089  1.4755 -0.6108
  522MOL0     H68882  -0.799   9.199  -0.875 -0.7071 -0.3137  1.0645
  522MOL0     H68883  -0.764   9.278  -0.726  1.4783 -3.2359  0.8102
  522MOL0     H68884  -0.763   9.498  -0.816  0.0683  0.1619  1.1876
  522MOL0     H68885  -0.913   9.412  -0.873 -0.1034  1.0776 -0.6624
  522MOL0     H68886   0.117   8.777  -0.424  1.1176  1.6969 -0.5425
  522MOL0     H68887   0.255   8.916  -0.283 -0.6846 -1.6737  1.1894
  522MOL0     H68888   0.460   9.138  -0.150  0.9663 -0.6481  1.8372
  522MOL0     H68889   0.684   9.247  -0.125 -0.1550  0.0814 -1.0853
  522MOL0     H68890   2.724   8.912  -0.107  0.9197  0.0925  0.2182
  522MOL0     H68891   2.944   8.987  -0.048  0.9253  1.8317 -0.6533
  522MOL0     H68892   3.337   9.070   0.090  0.7948 -0.2283 -0.0497
  522MOL0     H68893   3.547   9.137   0.098 -0.6959 -1.8021 -1.8033
  522MOL0     H68894   3.785   9.269  -0.004 -0.3034  0.6949 -0.9921
  522MOL0     H68895   3.725   9.259   0.168  1.6216  0.9853  0.8334
  522MOL0     H68896   3.863   9.501   0.068  1.2651  0.6627  1.0119
  522MOL0     H68897   3.831   9.461   0.223 -0.2514 -0.4321  0.3950
  522MOL0     H68898   3.975   9.265   0.234 -4.3422  1.2832 -0.0969
  522MOL0     H68899   4.067   9.395   0.197 -0.3549  1.1104  1.3929
  522MOL0     H68900   3.990   9.208  -0.012 -0.6335  1.7042  0.7584
  522MOL0     H68901   4.077   9.369  -0.037  0.4385  0.4134 -0.5527
  522MOL0     H68902   4.404   9.154   0.085  1.2504  2.4972 -1.8028
  522MOL0     H68903   3.432   9.546  -0.007 -0.7695 -0.0044 -2.6718
  522MOL0     H68904   3.204   9.461  -0.059 -0.6353  1.5242  1.8228
  523MOL0     O68905   3.650  10.207   7.718  0.6571 -0.0398 -0.9510
  523MOL0     C68906   3.691  10.285   7.632  0.7386 -0.1000 -1.2605
  523MOL0     O68907   3.614  10.330   7.524 -0.2880 -0.3820 -0.0551
  523MOL0     C68908   3.484  10.299   7.513  0.3773 -0.0440  0.9859
  523MOL0     C68909   3.383  10.342   7.601 -0.1098 -0.3699 -0.1448
  523MOL0     C68910   3.251  10.309   7.590 -0.7979  0.7766 -0.4820
  523MOL0     C68911   3.214  10.226   7.485  0.3972 -0.2880 -0.7100
  523MOL0     O68912   3.081  10.192   7.496 -0.4073 -0.7540 -0.1529
  523MOL0     C68913   3.022  10.105   7.395  0.2366 -0.7349 -0.2299
  523MOL0     C68914   2.934  10.192   7.303  0.0039  0.1437 -0.3872
  523MOL0     C68915   2.828  10.113   7.224  0.7713  0.7753 -0.3326
  523MOL0     C68916   2.750  10.191   7.120 -0.0569 -0.4430  0.2221
  523MOL0     C68917   2.608  10.145   7.090 -0.1451 -0.5728 -1.0679
  523MOL0     C68918   2.612   9.996   7.047 -0.0647 -0.5097 -0.2772
  523MOL0     C68919   2.466   9.941   7.038 -0.2487 -0.2055 -0.7348
  523MOL0     C68920   2.469   9.806   6.963 -0.0162 -0.2244  0.5590
  523MOL0     N68921   2.341   9.739   6.966 -0.4212 -0.4331  0.1566
  523MOL0     C68922   2.285   9.666   6.873  0.5206 -0.3845  0.2612
  523MOL0     C68923   2.193   9.588   6.933  0.0419  0.4021 -0.9918
  523MOL0     C68924   2.094   9.518   6.859  0.2202  0.6135  0.3832
  523MOL0     C68925   2.120   9.367   6.846 -0.3582  0.2558  1.0723
  523MOL0     C68926   1.992   9.305   6.851  0.4989  0.5682  0.4861
  523MOL0     C68927   2.004   9.176   6.776 -0.8304  0.0862 -0.0791
  523MOL0     O68928   1.888   9.089   6.800  0.4287  0.1132 -0.0366
  523MOL0     C68929   1.775   9.121   6.736  1.1070 -0.5908  0.1359
  523MOL0     C68930   1.754   9.199   6.627 -0.6454  1.0099  0.2791
  523MOL0     C68931   1.635   9.214   6.562  0.5186 -0.1115 -0.6646
  523MOL0     C68932   1.516   9.155   6.609 -0.0703  0.3449 -0.6464
  523MOL0     C68933   1.390   9.168   6.534 -0.0898  0.1215 -0.8344
  523MOL0     O68934   1.396   9.214   6.405  0.4986 -0.2361 -0.0718
  523MOL0     C68935   1.274   9.227   6.345  0.4430 -0.0962 -0.6498
  523MOL0     C68936   1.203   9.349   6.341 -0.1001 -0.4398  0.6413
  523MOL0     C68937   1.074   9.359   6.275 -1.2888  0.6708  0.8468
  523MOL0     C68938   1.023   9.241   6.211 -0.2499 -0.7504  0.1779
  523MOL0     O68939   0.894   9.252   6.151  0.0666  0.5513 -0.6521
  523MOL0     C68940   0.856   9.138   6.082 -1.2681 -0.2951  0.0811
  523MOL0     C68941   0.731   9.169   6.012 -0.1683 -1.1390  0.8198
  523MOL0     C68942   0.609   9.157   6.100  0.9813  0.2609  0.4185
  523MOL0     C68943   0.485   9.222   6.035 -0.6711 -0.0244 -0.4166
  523MOL0     C68944   0.351   9.177   6.089 -1.1564  0.1951 -0.7843
  523MOL0     C68945   0.232   9.202   5.998 -0.6460  0.1791  0.4600
  523MOL0     C68946   0.100   9.168   6.071 -0.3015  0.6718 -0.2942
  523MOL0     C68947  -0.002   9.134   5.967 -0.1162  0.1534 -0.0797
  523MOL0    Cl68948  -0.162   9.123   6.031 -0.1689 -0.3082 -0.3119
  523MOL0     C68949   1.103   9.122   6.208  0.3183  0.5628 -1.1306
  523MOL0     C68950   1.229   9.115   6.275  0.0376  0.5334 -0.1872
  523MOL0     O68951   1.288   9.140   6.593  0.0419 -0.2025 -0.4603
  523MOL0     C68952   1.538   9.070   6.725 -0.0285  0.4081  0.1211
  523MOL0     C68953   1.666   9.048   6.782  0.4294 -0.4423  0.2348
  523MOL0     N68954   2.189   9.617   7.066  0.6374  0.1880 -0.0959
  523MOL0     N68955   2.283   9.703   7.084  0.3206 -0.6509  0.9233
  523MOL0     C68956   3.307  10.188   7.382  0.3280 -0.2826 -0.6120
  523MOL0     C68957   3.440  10.225   7.400  0.5744  0.0766 -0.5649
  523MOL0     C68958   3.819  10.358   7.655 -0.2032 -0.2259 -0.0527
  523MOL0     C68959   3.866  10.469   7.579  0.1301 -0.0394 -0.5739
  523MOL0     C68960   3.990  10.530   7.614  0.7139 -0.1758  0.1032
  523MOL0     C68961   4.076  10.465   7.703 -0.0067 -0.2545  0.2370
  523MOL0     O68962   4.204  10.510   7.727  0.1008 -0.7738  0.2545
  523MOL0     C68963   4.290  10.456   7.824 -0.9492  1.2375 -0.5018
  523MOL0     C68964   4.436  10.515   7.827 -0.0770  0.1513 -0.2182
  523MOL0     C68965   4.523  10.430   7.922 -0.0100  0.4110  1.0440
  523MOL0     C68966   4.646  10.513   7.962  0.0068  0.2456 -0.4735
  523MOL0     C68967   4.737  10.421   8.036 -0.2216  0.7290  0.3618
  523MOL0     C68968   4.813  10.356   8.100 -0.2855  0.0745  0.4683
  523MOL0     C68969   4.030  10.347   7.753 -0.1650 -0.2368 -0.1937
  523MOL0     C68970   3.908  10.297   7.741 -0.0214 -0.4283 -0.7241
  523MOL0     H68971   3.418  10.394   7.690  0.9151 -2.8589  1.0347
  523MOL0     H68972   3.194  10.338   7.678  1.8425  1.6720  1.0605
  523MOL0     H68973   2.949  10.037   7.440  0.0798 -1.2499 -1.2376
  523MOL0     H68974   3.098  10.048   7.342 -1.1150 -1.1007 -1.8550
  523MOL0     H68975   2.991  10.244   7.226 -1.1969 -1.8217 -2.7576
  523MOL0     H68976   2.885  10.270   7.362  4.3664  1.9946  1.2162
  523MOL0     H68977   2.745  10.089   7.292  1.2939  1.1843  0.4641
  523MOL0     H68978   2.870  10.032   7.163 -0.8514  1.4435 -2.4688
  523MOL0     H68979   2.736  10.295   7.150 -0.1415 -0.2841 -0.3689
  523MOL0     H68980   2.806  10.186   7.026 -0.2851 -0.5109  0.0888
  523MOL0     H68981   2.560  10.210   7.016 -1.3607 -2.4672 -2.0170
  523MOL0     H68982   2.552  10.143   7.183  1.6991 -1.0574  0.0982
  523MOL0     H68983   2.665   9.933   7.119 -0.7179 -2.1868 -1.2074
  523MOL0     H68984   2.657   9.991   6.947 -1.4239  1.9765 -1.0994
  523MOL0     H68985   2.434   9.926   7.142  1.3482 -0.7496 -0.2980
  523MOL0     H68986   2.388   9.998   6.985 -2.8683 -3.0358 -0.2255
  523MOL0     H68987   2.541   9.744   7.017 -1.5264 -1.5820  1.1254
  523MOL0     H68988   2.508   9.806   6.861  1.0380 -1.4140  0.9291
  523MOL0     H68989   2.319   9.660   6.771 -0.7442  2.3716 -0.4088
  523MOL0     H68990   2.072   9.560   6.761 -2.5827  0.5240  0.8882
  523MOL0     H68991   2.002   9.539   6.915 -0.4621  1.6684 -1.0838
  523MOL0     H68992   2.184   9.334   6.929 -0.2464  0.5153  1.0914
  523MOL0     H68993   2.177   9.352   6.754 -0.8100 -0.1228  0.8520
  523MOL0     H68994   1.979   9.278   6.956 -1.2653  2.3494  0.7919
  523MOL0     H68995   1.916   9.370   6.807  1.7458  1.8559  0.1360
  523MOL0     H68996   2.090   9.123   6.817 -1.9342  1.2596  4.2376
  523MOL0     H68997   2.033   9.194   6.672  0.9671 -4.2575 -0.5701
  523MOL0     H68998   1.847   9.243   6.593  1.8264 -2.9965  1.2373
  523MOL0     H68999   1.630   9.285   6.481 -2.2086 -1.9126 -2.2469
  523MOL0     H69000   1.262   9.427   6.389  1.0862 -0.2724 -0.9847
  523MOL0     H69001   1.023   9.455   6.278 -2.3222  0.3879 -2.5713
  523MOL0     H69002   0.840   9.055   6.152  3.1051 -2.9372 -1.6419
  523MOL0     H69003   0.926   9.097   6.008  1.5156  2.4950  0.9479
  523MOL0     H69004   0.724   9.102   5.927 -0.2765 -0.7419  0.5124
  523MOL0     H69005   0.728   9.268   5.965 -0.8948 -1.4149  0.2643
  523MOL0     H69006   0.636   9.224   6.182 -0.9173  0.9265  0.5419
  523MOL0     H69007   0.585   9.059   6.142 -1.4636  1.5780  2.3134
  523MOL0     H69008   0.484   9.331   6.043  0.9734  0.0591 -0.8539
  523MOL0     H69009   0.483   9.199   5.928  0.7698 -1.4747 -0.1663
  523MOL0     H69010   0.332   9.227   6.185  1.2345  1.7858 -1.0735
  523MOL0     H69011   0.360   9.068   6.098  2.2978  0.4119 -0.2843
  523MOL0     H69012   0.232   9.163   5.896  0.6223 -2.7882  1.4745
  523MOL0     H69013   0.234   9.311   5.987 -0.8144  0.1134 -0.2111
  523MOL0     H69014   0.114   9.087   6.143  0.2317  1.3950  0.4315
  523MOL0     H69015   0.070   9.262   6.118 -2.8920  1.1627 -2.6930
  523MOL0     H69016   0.026   9.038   5.924 -2.0178 -1.0727  1.2499
  523MOL0     H69017   0.003   9.217   5.896  0.6690 -1.1382 -1.6096
  523MOL0     H69018   1.075   9.035   6.149  1.9398 -1.9025  1.4665
  523MOL0     H69019   1.289   9.025   6.271  0.5685  0.8847 -0.2791
  523MOL0     H69020   1.444   9.029   6.758 -0.3091  1.0298  0.1073
  523MOL0     H69021   1.674   8.971   6.858  0.8275  1.2795  2.0156
  523MOL0     H69022   3.280  10.131   7.294  0.5247  1.6899 -2.0157
  523MOL0     H69023   3.516  10.197   7.327  0.6146  2.7432 -1.6817
  523MOL0     H69024   3.798  10.515   7.508  2.2715 -0.2087 -2.9039
  523MOL0     H69025   4.020  10.625   7.571  1.1526  0.7049  2.2183
  523MOL0     H69026   4.292  10.348   7.807 -2.2079  1.3409 -1.4486
  523MOL0     H69027   4.245  10.467   7.923 -1.3491  1.1130 -0.6697
  523MOL0     H69028   4.484  10.503   7.730  1.4501 -0.7063  0.5995
  523MOL0     H69029   4.431  10.621   7.852 -1.7561  0.0356  0.1284
  523MOL0     H69030   4.554  10.342   7.865  0.8093  0.5576  1.2555
  523MOL0     H69031   4.464  10.408   8.012 -1.2765 -0.2012  0.1047
  523MOL0     H69032   4.696  10.562   7.878  1.6004 -2.3520 -1.1733
  523MOL0     H69033   4.622  10.595   8.030  2.9492 -2.7165  4.8203
  523MOL0     H69034   4.883  10.289   8.147  1.4113  0.0719 -1.8773
  523MOL0     H69035   4.096  10.296   7.823  0.7189 -2.3773 -2.4706
  523MOL0     H69036   3.885  10.208   7.798 -1.0674  0.8261  0.9218
  524MOL0     O69037   5.749   9.630   6.547  0.2625  0.1757 -0.3849
  524MOL0     C69038   5.808   9.629   6.442  0.1723 -0.2992  0.6323
  524MOL0     O69039   5.753   9.672   6.316  0.5677 -0.1754 -0.6086
  524MOL0     C69040   5.622   9.712   6.330 -0.4656  0.3230  0.5847
  524MOL0     C69041   5.586   9.842   6.286  1.5836  0.0946  0.3600
  524MOL0     C69042   5.444   9.876   6.290  0.3269  0.3126 -0.4928
  524MOL0     C69043   5.350   9.781   6.345 -0.7928 -0.2837  0.7441
  524MOL0     O69044   5.221   9.819   6.381  0.1010 -0.4050 -0.5031
  524MOL0     C69045   5.192   9.958   6.404 -0.5145  0.0909  0.5357
  524MOL0     C69046   5.093   9.987   6.288 -0.0619 -0.5007  0.1144
  524MOL0     C69047   4.990  10.104   6.312  0.7301  0.3908 -1.0915
  524MOL0     C69048   4.885  10.054   6.411 -0.1211  0.2662 -1.1896
  524MOL0     C69049   4.787  10.171   6.441 -0.1039  0.3327  0.5619
  524MOL0     C69050   4.683  10.125   6.547 -0.0288  0.1269 -0.7921
  524MOL0     C69051   4.598  10.249   6.561  1.1404 -0.6664 -0.2352
  524MOL0     C69052   4.542  10.255   6.699 -0.5492 -0.5354 -0.1507
  524MOL0     N69053   4.459  10.381   6.719 -0.5975  0.2873  0.2178
  524MOL0     C69054   4.501  10.503   6.691 -0.4249 -0.7069 -0.1375
  524MOL0     C69055   4.404  10.587   6.745 -0.3337  0.1332 -0.4765
  524MOL0     C69056   4.402  10.734   6.756 -0.3214 -0.2135  0.3495
  524MOL0     C69057   4.375  10.795   6.621  0.1005 -0.7984 -0.9302
  524MOL0     C69058   4.315  10.937   6.632  0.6564 -0.3338 -0.0825
  524MOL0     C69059   4.264  10.996   6.496  0.3687  0.1672  0.4001
  524MOL0     O69060   4.214  11.123   6.515 -0.2787 -0.1484 -0.1281
  524MOL0     C69061   4.090  11.138   6.571  0.7784  0.0757 -0.3390
  524MOL0     C69062   3.977  11.072   6.523  0.3914  0.8549  0.1537
  524MOL0     C69063   3.851  11.097   6.579  0.0339 -0.0886  0.3748
  524MOL0     C69064   3.825  11.194   6.685  0.7421 -0.3576 -1.2247
  524MOL0     C69065   3.690  11.229   6.736 -0.5969 -0.2831  0.0014
  524MOL0     O69066   3.591  11.146   6.692 -0.5395  0.2969  0.0029
  524MOL0     C69067   3.461  11.177   6.726  0.6957  0.0152  0.3556
  524MOL0     C69068   3.368  11.072   6.736 -0.5326  0.6704  0.1522
  524MOL0     C69069   3.229  11.087   6.766 -0.1788  0.1924 -0.6954
  524MOL0     C69070   3.181  11.222   6.778  0.8325  0.3751 -0.5239
  524MOL0     O69071   3.049  11.234   6.816  0.1547  0.5046 -0.5059
  524MOL0     C69072   2.975  11.352   6.770 -0.2554  0.1369  1.0967
  524MOL0     C69073   2.832  11.331   6.802 -0.0021 -0.7876 -0.9468
  524MOL0     C69074   2.818  11.346   6.961 -0.6571  0.2686  0.2407
  524MOL0     C69075   2.673  11.330   6.991 -0.2488  0.2233 -0.3884
  524MOL0     C69076   2.635  11.377   7.128  0.2230  0.1129  0.1989
  524MOL0     C69077   2.601  11.525   7.116 -0.1414  0.4068  0.2253
  524MOL0     C69078   2.578  11.595   7.256  1.1308 -0.4120  0.5445
  524MOL0     C69079   2.508  11.733   7.213  0.3477  1.2568 -0.7373
  524MOL0    Cl69080   2.477  11.829   7.358 -0.3039  0.4530 -0.2592
  524MOL0     C69081   3.275  11.328   6.772  0.0293  0.1189 -1.1507
  524MOL0     C69082   3.404  11.307   6.742 -0.3040 -0.0902  0.2041
  524MOL0     O69083   3.684  11.317   6.821  0.0830 -0.1353  0.5387
  524MOL0     C69084   3.947  11.260   6.735 -0.0698  1.1570 -0.1487
  524MOL0     C69085   4.079  11.229   6.673  0.7859  0.2131  0.3489
  524MOL0     N69086   4.305  10.507   6.802  0.4208 -0.0088  0.2603
  524MOL0     N69087   4.344  10.385   6.781  0.1688 -0.2057  0.5254
  524MOL0     C69088   5.387   9.661   6.379 -0.5186 -0.1061  0.4608
  524MOL0     C69089   5.519   9.619   6.368 -0.9218 -0.5463  0.6133
  524MOL0     C69090   5.944   9.578   6.441 -0.3463  0.7694 -1.1023
  524MOL0     C69091   6.027   9.562   6.558  0.9014 -0.0037  0.7168
  524MOL0     C69092   6.153   9.500   6.545 -0.3686  0.3110  0.1071
  524MOL0     C69093   6.189   9.450   6.418  0.0416  0.0681 -0.0776
  524MOL0     O69094   6.301   9.374   6.438  0.9519  0.2594 -0.4943
  524MOL0     C69095   6.356   9.316   6.322  0.2692  0.1317  1.0196
  524MOL0     C69096   6.457   9.207   6.349 -0.4476  0.0857  0.5867
  524MOL0     C69097   6.574   9.279   6.412 -0.1795  0.7243 -0.4172
  524MOL0     C69098   6.674   9.174   6.467  0.8334 -0.1667 -0.1228
  524MOL0     C69099   6.752   9.123   6.350  0.3824 -0.0190  0.0170
  524MOL0     C69100   6.816   9.047   6.275 -0.3428 -0.0661 -0.1598
  524MOL0     C69101   6.113   9.471   6.300  0.2738 -0.3988 -0.2865
  524MOL0     C69102   5.988   9.529   6.314  0.0395 -0.1793 -0.0490
  524MOL0     H69103   5.665   9.907   6.251  1.3997 -0.9030 -2.1311
  524MOL0     H69104   5.414   9.972   6.252 -0.0689  0.5271  0.3374
  524MOL0     H69105   5.277  10.027   6.403 -1.6813  1.6398  1.9812
  524MOL0     H69106   5.156   9.973   6.506  2.1949  2.8878  1.2342
  524MOL0     H69107   5.044   9.894   6.261  2.8974 -2.0127 -0.4083
  524MOL0     H69108   5.151  10.023   6.202 -0.5336 -1.3301 -0.5555
  524MOL0     H69109   4.924  10.123   6.227 -2.3530 -0.6957  0.8739
  524MOL0     H69110   5.050  10.189   6.347  1.3382 -1.6560  3.6612
  524MOL0     H69111   4.824   9.971   6.373 -1.5509 -1.8634  4.7148
  524MOL0     H69112   4.943  10.028   6.500  2.5744 -0.8215 -3.1358
  524MOL0     H69113   4.733  10.188   6.347 -0.3688  1.8402  0.9668
  524MOL0     H69114   4.855  10.253   6.465  2.9082 -1.1856 -1.9916
  524MOL0     H69115   4.736  10.090   6.636  0.1753  3.4233  0.5221
  524MOL0     H69116   4.626  10.039   6.510  1.3360 -1.3873  0.5028
  524MOL0     H69117   4.655  10.342   6.548 -1.2232  0.9715  0.4639
  524MOL0     H69118   4.521  10.240   6.483  1.4805 -0.8670 -0.5516
  524MOL0     H69119   4.631  10.261   6.762  2.4903 -0.4279 -4.0733
  524MOL0     H69120   4.472  10.172   6.712 -1.2284  0.2325  1.2952
  524MOL0     H69121   4.590  10.534   6.637  0.3322 -3.3580 -0.5753
  524MOL0     H69122   4.502  10.765   6.786 -1.1126 -0.0870  3.1089
  524MOL0     H69123   4.322  10.765   6.824 -1.8408 -0.6089 -1.1686
  524MOL0     H69124   4.313  10.725   6.564 -1.1225 -0.3714 -0.1521
  524MOL0     H69125   4.474  10.796   6.575  1.6291 -0.2878  2.0871
  524MOL0     H69126   4.226  10.926   6.695 -0.2089 -2.1319 -1.5205
  524MOL0     H69127   4.390  11.005   6.673  0.5805  0.7473 -1.6410
  524MOL0     H69128   4.188  10.939   6.442 -0.5964  2.0514 -0.3367
  524MOL0     H69129   4.353  10.997   6.432  1.5575 -1.3656  1.9409
  524MOL0     H69130   3.986  10.993   6.450 -2.3967  0.8699 -0.3397
  524MOL0     H69131   3.761  11.053   6.538 -1.0306  2.4389 -0.1841
  524MOL0     H69132   3.405  10.970   6.724 -4.3102 -0.8635 -0.0428
  524MOL0     H69133   3.163  11.004   6.790 -0.7186  1.1330  1.2684
  524MOL0     H69134   2.987  11.353   6.661 -2.2133 -1.5525  0.8087
  524MOL0     H69135   3.018  11.447   6.803  1.3166 -0.3125  0.4819
  524MOL0     H69136   2.805  11.233   6.763 -1.8783 -1.3803  1.5796
  524MOL0     H69137   2.783  11.408   6.742  1.5160  0.1230 -1.0738
  524MOL0     H69138   2.848  11.444   7.002  0.4515 -0.1542  0.4599
  524MOL0     H69139   2.885  11.277   7.013 -1.1027 -1.4604 -1.4106
  524MOL0     H69140   2.616  11.380   6.911 -1.9978 -1.8405 -0.5381
  524MOL0     H69141   2.650  11.224   6.977 -0.9315 -0.0431  2.2331
  524MOL0     H69142   2.726  11.364   7.187  1.0923 -1.9083 -1.4476
  524MOL0     H69143   2.553  11.310   7.157  0.1869 -0.0577 -0.2826
  524MOL0     H69144   2.508  11.526   7.060 -0.7441 -2.1207  1.0365
  524MOL0     H69145   2.679  11.582   7.065  1.2856 -0.6043  1.1927
  524MOL0     H69146   2.507  11.540   7.318 -1.4773 -0.6346 -2.3527
  524MOL0     H69147   2.678  11.600   7.300  1.3163 -1.5766  0.2718
  524MOL0     H69148   2.419  11.722   7.151 -1.5502  1.9030  1.7243
  524MOL0     H69149   2.578  11.787   7.150 -0.7448  1.5365 -1.7424
  524MOL0     H69150   3.242  11.429   6.794  1.9914  0.5256  0.1432
  524MOL0     H69151   3.473  11.388   6.717 -1.5335  1.6170  2.0201
  524MOL0     H69152   3.947  11.337   6.812 -2.1815  1.6544 -0.5672
  524MOL0     H69153   4.165  11.293   6.693  1.7530 -0.3808 -1.6464
  524MOL0     H69154   5.304   9.606   6.421 -0.8019 -1.9930 -2.2884
  524MOL0     H69155   5.542   9.517   6.395  1.9477 -0.3706 -0.6979
  524MOL0     H69156   5.982   9.604   6.648  2.7290  2.4082  0.6041
  524MOL0     H69157   6.227   9.501   6.625 -2.7288  0.9624  2.4050
  524MOL0     H69158   6.394   9.396   6.257  0.1456  0.2635  1.1090
  524MOL0     H69159   6.286   9.266   6.255 -0.0694 -3.0325  3.4794
  524MOL0     H69160   6.421   9.129   6.416 -0.1965 -0.4155  0.1505
  524MOL0     H69161   6.479   9.160   6.252 -0.9220  1.0119  0.0186
  524MOL0     H69162   6.544   9.324   6.507  0.5372  0.0704  0.1295
  524MOL0     H69163   6.618   9.356   6.348 -0.7323  0.5067 -1.0693
  524MOL0     H69164   6.741   9.220   6.540  0.1157  0.9095 -0.1338
  524MOL0     H69165   6.630   9.088   6.517 -0.6124  1.3069  1.2398
  524MOL0     H69166   6.858   8.984   6.199 -2.3035 -0.3777 -1.0565
  524MOL0     H69167   6.151   9.439   6.203 -3.4564 -1.3895 -1.6091
  524MOL0     H69168   5.921   9.527   6.228  2.5612  0.0258 -2.1369
  525MOL0     O69169   1.786   7.959   8.843  0.0778 -0.1023  0.1611
  525MOL0     C69170   1.701   7.918   8.920 -0.3387  0.2808 -0.6866
  525MOL0     O69171   1.603   7.830   8.886  0.1151  0.2232  0.2671
  525MOL0     C69172   1.578   7.799   8.751 -0.0118 -0.1213 -0.4409
  525MOL0     C69173   1.568   7.887   8.641 -0.2268 -0.0165  0.4699
  525MOL0     C69174   1.546   7.846   8.508 -0.6698 -0.5680  0.6788
  525MOL0     C69175   1.538   7.706   8.487  0.5192 -0.3592  0.0435
  525MOL0     O69176   1.530   7.663   8.353 -0.1532  0.9676  0.5403
  525MOL0     C69177   1.607   7.539   8.320 -0.1866 -0.9463 -0.1639
  525MOL0     C69178   1.507   7.424   8.306 -0.0736  0.9690  0.9831
  525MOL0     C69179   1.587   7.294   8.257  0.1182 -0.2382 -0.3349
  525MOL0     C69180   1.634   7.210   8.375 -0.7985  0.2124  0.7808
  525MOL0     C69181   1.622   7.059   8.340  0.5063  0.2569 -0.1667
  525MOL0     C69182   1.669   6.973   8.456 -0.0009 -0.3004  0.0386
  525MOL0     C69183   1.708   6.832   8.409 -0.0674 -0.8246 -0.9167
  525MOL0     C69184   1.583   6.762   8.368  0.6076 -0.9079  0.0213
  525MOL0     N69185   1.605   6.618   8.355 -0.5668 -0.2732  0.6348
  525MOL0     C69186   1.710   6.578   8.277 -0.7038 -0.2486 -0.0462
  525MOL0     C69187   1.736   6.452   8.327  0.5759  0.7124  0.4447
  525MOL0     C69188   1.850   6.364   8.281  0.0865 -0.2115 -0.1106
  525MOL0     C69189   1.807   6.242   8.187  0.3766 -0.6085 -0.4981
  525MOL0     C69190   1.924   6.155   8.143  0.4020 -0.2745  0.5012
  525MOL0     C69191   1.983   6.076   8.260 -0.6751  0.2098 -0.2011
  525MOL0     O69192   2.050   5.964   8.206 -0.3356 -0.1313 -0.3451
  525MOL0     C69193   2.130   5.887   8.295  0.0138 -0.0409 -0.0532
  525MOL0     C69194   2.130   5.908   8.430 -0.1856  1.0481 -0.4277
  525MOL0     C69195   2.233   5.841   8.512 -0.0525  0.4082  0.1324
  525MOL0     C69196   2.316   5.739   8.463 -1.2868 -0.1513  1.0980
  525MOL0     C69197   2.407   5.663   8.546 -0.1004 -0.1461  0.5522
  525MOL0     O69198   2.367   5.631   8.674 -0.4900  0.5321 -0.8555
  525MOL0     C69199   2.454   5.568   8.761 -0.4118  0.6724 -0.8101
  525MOL0     C69200   2.413   5.438   8.809  0.3262  0.0258  0.2591
  525MOL0     C69201   2.484   5.376   8.912  0.0490 -0.1128  0.6359
  525MOL0     C69202   2.603   5.425   8.958 -0.0052  0.0504  0.0581
  525MOL0     O69203   2.666   5.345   9.046  0.8037  0.0927 -0.3447
  525MOL0     C69204   2.812   5.353   9.049  0.8275 -0.5671  0.3717
  525MOL0     C69205   2.865   5.254   9.147 -0.1897  0.9311 -0.5087
  525MOL0     C69206   3.019   5.257   9.131  1.1367 -0.5515 -0.5366
  525MOL0     C69207   3.094   5.161   9.221  0.8151 -0.0408  0.4597
  525MOL0     C69208   3.242   5.159   9.176  0.4836 -0.5874  0.5643
  525MOL0     C69209   3.320   5.292   9.208 -0.0370 -0.5576  0.0814
  525MOL0     C69210   3.304   5.348   9.349 -0.0718 -0.1411  0.5792
  525MOL0     C69211   3.347   5.243   9.453 -0.4451 -0.9835 -1.0891
  525MOL0    Cl69212   3.508   5.184   9.416 -0.0984 -0.5155  0.0413
  525MOL0     C69213   2.650   5.555   8.902  0.6227  0.1662 -0.2988
  525MOL0     C69214   2.568   5.624   8.810 -0.4185 -1.1754  0.1912
  525MOL0     O69215   2.516   5.628   8.488  0.2738  0.7286 -0.5018
  525MOL0     C69216   2.313   5.730   8.321 -0.7867  0.1445  0.0094
  525MOL0     C69217   2.224   5.804   8.241  0.3672 -1.5864 -0.2844
  525MOL0     N69218   1.656   6.425   8.442 -0.2668  0.4720  0.3297
  525MOL0     N69219   1.584   6.523   8.456 -0.1666  0.0243 -0.0849
  525MOL0     C69220   1.545   7.616   8.593 -0.1278  0.1333 -0.5110
  525MOL0     C69221   1.571   7.661   8.728 -0.7168  1.0282 -0.0792
  525MOL0     C69222   1.701   7.966   9.064  0.1446  0.3330  0.4569
  525MOL0     C69223   1.614   7.909   9.162  0.0465  0.6804  0.0017
  525MOL0     C69224   1.597   7.959   9.290  0.2121  0.1163 -0.0829
  525MOL0     C69225   1.675   8.068   9.322  0.7966 -0.7835  0.3246
  525MOL0     O69226   1.669   8.118   9.447  0.3502 -0.2270 -0.4482
  525MOL0     C69227   1.561   8.077   9.551  0.3300  0.4506 -0.2782
  525MOL0     C69228   1.564   8.147   9.689 -0.3330  1.1471 -0.6991
  525MOL0     C69229   1.576   8.295   9.657  0.2443 -0.5723 -0.1608
  525MOL0     C69230   1.449   8.364   9.603  0.2380  0.0243  0.2103
  525MOL0     C69231   1.330   8.342   9.687  0.1158 -1.7266  0.6500
  525MOL0     C69232   1.240   8.332   9.758 -0.2768  0.1747  0.4694
  525MOL0     C69233   1.767   8.126   9.239 -0.4186  0.9304  0.0135
  525MOL0     C69234   1.778   8.068   9.104 -0.2597 -0.5337 -0.5496
  525MOL0     H69235   1.578   7.994   8.659  0.2236 -0.1528  1.0777
  525MOL0     H69236   1.551   7.911   8.422 -0.7809 -2.1358 -0.5483
  525MOL0     H69237   1.685   7.519   8.394  1.0707 -0.9068 -1.4348
  525MOL0     H69238   1.659   7.547   8.224 -1.2825 -1.8916 -0.8692
  525MOL0     H69239   1.429   7.442   8.231  0.3558 -2.4811 -0.4918
  525MOL0     H69240   1.451   7.394   8.395  3.4290 -5.4243  1.6225
  525MOL0     H69241   1.675   7.325   8.200  0.4080  1.6037  0.9894
  525MOL0     H69242   1.524   7.227   8.198 -0.1905  0.4754 -0.8270
  525MOL0     H69243   1.738   7.229   8.402 -0.6138 -1.4380  1.3504
  525MOL0     H69244   1.583   7.219   8.472 -0.0507 -0.3416  1.2317
  525MOL0     H69245   1.685   7.052   8.251  0.9307  2.2211 -0.0786
  525MOL0     H69246   1.520   7.031   8.315  0.8544 -0.5250 -0.7618
  525MOL0     H69247   1.592   6.964   8.534  1.2630 -0.7549  1.2654
  525MOL0     H69248   1.754   7.024   8.502 -0.1859 -0.6509  0.7880
  525MOL0     H69249   1.790   6.841   8.337 -1.1984  4.2900 -1.9711
  525MOL0     H69250   1.754   6.780   8.494  1.5588 -2.3484 -2.6377
  525MOL0     H69251   1.557   6.806   8.271 -1.3444  2.8504  2.0244
  525MOL0     H69252   1.507   6.772   8.445  0.4283 -1.6703 -0.0461
  525MOL0     H69253   1.771   6.633   8.207  2.4293  0.4676  2.9828
  525MOL0     H69254   1.900   6.335   8.373 -0.9591 -1.9215 -0.0488
  525MOL0     H69255   1.926   6.420   8.226  0.6510 -1.1722 -0.3364
  525MOL0     H69256   1.770   6.281   8.092 -0.8896 -0.3080  0.1050
  525MOL0     H69257   1.719   6.194   8.229 -0.4019  0.2106 -1.1393
  525MOL0     H69258   1.893   6.074   8.076 -0.8325 -0.8444  1.6952
  525MOL0     H69259   1.996   6.223   8.097  1.0777 -1.4591 -0.2540
  525MOL0     H69260   1.910   6.051   8.338  0.3749  0.3926  0.8815
  525MOL0     H69261   2.056   6.141   8.310 -1.8306  1.3433  0.0416
  525MOL0     H69262   2.062   5.975   8.480  0.5833  2.0370 -0.6908
  525MOL0     H69263   2.240   5.865   8.618 -1.4803 -3.1138  1.1563
  525MOL0     H69264   2.326   5.394   8.761 -2.2341  4.1326  0.6042
  525MOL0     H69265   2.454   5.283   8.961 -1.5932 -1.4239 -2.5519
  525MOL0     H69266   2.832   5.456   9.080  0.5540 -0.0393 -1.1364
  525MOL0     H69267   2.861   5.351   8.952  2.1547  1.3196  0.9501
  525MOL0     H69268   2.827   5.155   9.121 -0.1336  0.5641  0.7138
  525MOL0     H69269   2.843   5.277   9.252 -1.7328  1.7975 -1.0077
  525MOL0     H69270   3.056   5.358   9.151  0.6277 -0.1453 -1.5931
  525MOL0     H69271   3.033   5.220   9.029 -2.6296 -1.6172 -0.8210
  525MOL0     H69272   3.097   5.187   9.327  3.1954  4.3937 -0.4454
  525MOL0     H69273   3.051   5.062   9.204 -0.0598  0.4812 -0.4756
  525MOL0     H69274   3.256   5.142   9.069  1.4636  1.3482  0.3439
  525MOL0     H69275   3.286   5.074   9.230  1.3612 -0.2612  0.3639
  525MOL0     H69276   3.304   5.376   9.141  0.6770  0.0632  0.6698
  525MOL0     H69277   3.427   5.281   9.191  0.0816  2.1228 -1.4151
  525MOL0     H69278   3.374   5.432   9.357 -2.2209  2.0177 -1.4533
  525MOL0     H69279   3.206   5.391   9.374 -0.0849 -0.7646  1.6316
  525MOL0     H69280   3.269   5.166   9.458  0.0065 -1.3999 -0.0834
  525MOL0     H69281   3.339   5.286   9.554 -1.3356 -1.0455 -1.1170
  525MOL0     H69282   2.741   5.606   8.932  0.9950 -0.6579  0.0122
  525MOL0     H69283   2.591   5.723   8.773 -1.2903 -0.9610  0.2077
  525MOL0     H69284   2.374   5.669   8.255  1.5090  1.0783  1.1536
  525MOL0     H69285   2.218   5.800   8.133  1.5090  0.5937 -0.4912
  525MOL0     H69286   1.536   7.510   8.576  2.0540  0.0421 -1.5199
  525MOL0     H69287   1.584   7.583   8.803  1.2682  0.3535 -1.0628
  525MOL0     H69288   1.558   7.821   9.132 -0.5788  0.8383  0.6846
  525MOL0     H69289   1.535   7.904   9.360  1.0312 -0.7136  0.0116
  525MOL0     H69290   1.567   7.969   9.571 -1.1349  0.6205  1.3441
  525MOL0     H69291   1.465   8.113   9.514 -0.1600  1.3793  1.7457
  525MOL0     H69292   1.477   8.113   9.746 -0.0942  0.3602 -0.8011
  525MOL0     H69293   1.659   8.128   9.741 -1.4995  1.3551  1.6669
  525MOL0     H69294   1.657   8.318   9.588  0.3601  1.4543  0.5845
  525MOL0     H69295   1.598   8.347   9.751 -0.6531 -3.5413  1.8398
  525MOL0     H69296   1.453   8.473   9.609 -1.8778  0.2163 -0.7555
  525MOL0     H69297   1.424   8.344   9.498  0.6760 -0.2553  0.1561
  525MOL0     H69298   1.150   8.293   9.802 -1.0633 -1.5184 -2.3288
  525MOL0     H69299   1.810   8.222   9.267 -1.5818  1.2541  0.7315
  525MOL0     H69300   1.843   8.124   9.038  1.0731 -0.7872  0.5167
  526MOL0     O69301   4.559   1.495   4.105 -0.1194  0.4878  0.2162
  526MOL0     C69302   4.590   1.377   4.128 -0.2427 -0.2736  0.4606
  526MOL0     O69303   4.508   1.270   4.154 -0.2559 -0.1347 -0.2384
  526MOL0     C69304   4.366   1.286   4.131 -0.3705 -0.5069  0.2127
  526MOL0     C69305   4.273   1.234   4.215  0.7875 -0.6934  0.4966
  526MOL0     C69306   4.135   1.236   4.174 -0.4353  0.4160  0.1010
  526MOL0     C69307   4.090   1.297   4.062 -0.1015  0.2253  0.1541
  526MOL0     O69308   3.959   1.289   4.033 -0.1625 -0.0459 -0.0553
  526MOL0     C69309   3.882   1.356   4.140  1.0509  0.7542  0.2548
  526MOL0     C69310   3.738   1.397   4.091 -0.8246  0.0799 -0.5824
  526MOL0     C69311   3.739   1.535   4.013 -1.4762 -0.5321  0.7360
  526MOL0     C69312   3.611   1.593   3.953  0.9905  0.2351 -0.4435
  526MOL0     C69313   3.619   1.707   3.856 -0.2773  0.2530  0.5810
  526MOL0     C69314   3.495   1.718   3.763 -0.3217 -0.5661 -0.0653
  526MOL0     C69315   3.507   1.844   3.679 -0.4678 -0.4213 -0.8799
  526MOL0     C69316   3.408   1.838   3.561 -0.6744 -0.6670  0.9821
  526MOL0     N69317   3.406   1.974   3.503 -0.6502  0.1551  0.5404
  526MOL0     C69318   3.311   2.023   3.416  0.0934  0.7323 -0.0284
  526MOL0     C69319   3.365   2.131   3.349 -0.3144 -0.5724 -0.3785
  526MOL0     C69320   3.315   2.193   3.222  0.0091 -0.0913 -0.5060
  526MOL0     C69321   3.170   2.242   3.243 -0.0519  0.4185 -0.6856
  526MOL0     C69322   3.080   2.227   3.126  0.3314  0.2209  0.1258
  526MOL0     C69323   2.932   2.263   3.172  0.9343 -0.4073  0.4346
  526MOL0     O69324   2.914   2.393   3.232  0.1848  0.6931 -0.0020
  526MOL0     C69325   2.796   2.427   3.290 -0.1555  0.0805 -0.2063
  526MOL0     C69326   2.786   2.563   3.325 -0.9665  0.0030  0.4149
  526MOL0     C69327   2.668   2.614   3.380 -0.0900 -0.9961 -0.7045
  526MOL0     C69328   2.551   2.538   3.392  0.4168  0.6998 -0.5950
  526MOL0     C69329   2.413   2.600   3.432  0.2903  0.5198 -0.2719
  526MOL0     O69330   2.404   2.731   3.458  0.5150 -0.2391  0.0426
  526MOL0     C69331   2.277   2.774   3.468 -0.1968 -0.1165 -1.0702
  526MOL0     C69332   2.222   2.841   3.364  0.2141  0.0239  0.2638
  526MOL0     C69333   2.098   2.902   3.380  0.5470 -1.1582 -0.5063
  526MOL0     C69334   2.021   2.894   3.493 -0.2029  0.1449 -0.5480
  526MOL0     O69335   1.904   2.963   3.505 -0.3706  0.5959 -0.0003
  526MOL0     C69336   1.845   3.011   3.386 -0.7725 -0.0382 -0.6041
  526MOL0     C69337   1.700   3.045   3.438  0.0268 -0.3656  0.0420
  526MOL0     C69338   1.689   3.146   3.548 -0.6089  0.3955 -0.3977
  526MOL0     C69339   1.554   3.143   3.623  0.8258  0.3839  0.0636
  526MOL0     C69340   1.531   3.269   3.710 -0.0507  0.1875 -0.1097
  526MOL0     C69341   1.644   3.295   3.798  0.0136  0.0456 -0.5565
  526MOL0     C69342   1.613   3.423   3.871 -0.3510  0.5990  0.1130
  526MOL0     C69343   1.744   3.468   3.943 -0.4274 -0.3938 -0.0003
  526MOL0    Cl69344   1.843   3.558   3.823 -0.1530  0.4174 -0.0703
  526MOL0     C69345   2.079   2.818   3.599  1.4355  1.3308 -0.3306
  526MOL0     C69346   2.209   2.765   3.589 -0.2345  0.0598  0.2930
  526MOL0     O69347   2.316   2.521   3.423  0.1612  0.1453 -0.9171
  526MOL0     C69348   2.557   2.403   3.356 -0.3560 -0.6553  0.0480
  526MOL0     C69349   2.679   2.345   3.302  0.0762 -0.6091  0.5929
  526MOL0     N69350   3.494   2.161   3.404  0.5654  0.1177 -0.4347
  526MOL0     N69351   3.515   2.061   3.485 -0.3734  0.4111  0.5893
  526MOL0     C69352   4.182   1.358   3.982 -0.2180  0.0728  0.5209
  526MOL0     C69353   4.321   1.355   4.012  0.2203 -0.5287 -1.3082
  526MOL0     C69354   4.739   1.355   4.117  0.2314  0.4336 -0.0321
  526MOL0     C69355   4.784   1.214   4.121 -0.1993  0.5835  0.0929
  526MOL0     C69356   4.918   1.190   4.113  0.0406 -0.3314 -0.8171
  526MOL0     C69357   5.014   1.288   4.128  0.2793 -0.0971 -0.9642
  526MOL0     O69358   5.150   1.256   4.114 -0.3200  0.0274 -0.2744
  526MOL0     C69359   5.182   1.131   4.054 -0.2439 -0.6005 -0.8854
  526MOL0     C69360   5.315   1.137   3.982 -0.9369 -0.4658 -0.0141
  526MOL0     C69361   5.325   1.020   3.874 -0.6968 -0.7489 -0.5198
  526MOL0     C69362   5.371   0.893   3.958 -0.5885 -0.6509 -0.0222
  526MOL0     C69363   5.513   0.903   4.004  0.2605  0.7382 -0.1165
  526MOL0     C69364   5.622   0.926   4.057 -0.1793  0.7731  0.1367
  526MOL0     C69365   4.978   1.421   4.142 -0.2027 -0.0020 -0.7054
  526MOL0     C69366   4.839   1.449   4.130  0.3489 -0.6037 -0.4600
  526MOL0     H69367   4.301   1.188   4.309  0.0401 -1.4562  0.3516
  526MOL0     H69368   4.082   1.184   4.253  2.0180 -3.9163 -0.7700
  526MOL0     H69369   3.939   1.442   4.174  2.9163  0.9390 -2.9034
  526MOL0     H69370   3.870   1.287   4.224 -0.3615  0.9936  0.2704
  526MOL0     H69371   3.688   1.402   4.189 -0.5412  0.0778 -0.4359
  526MOL0     H69372   3.696   1.309   4.041  0.5212 -2.1175  1.8489
  526MOL0     H69373   3.817   1.540   3.938  0.0834  3.1536  2.3669
  526MOL0     H69374   3.775   1.617   4.076  0.0211  0.2194 -0.9932
  526MOL0     H69375   3.554   1.514   3.903 -0.8661 -0.0379  1.9642
  526MOL0     H69376   3.541   1.622   4.032 -0.9164  0.4943 -2.1262
  526MOL0     H69377   3.700   1.676   3.790 -1.3472 -0.6655 -0.3390
  526MOL0     H69378   3.641   1.800   3.909 -1.5650 -0.1859  1.9670
  526MOL0     H69379   3.409   1.727   3.829  0.7626  1.7853  1.1326
  526MOL0     H69380   3.462   1.632   3.704 -0.9002  1.0373 -2.2075
  526MOL0     H69381   3.481   1.933   3.735 -1.8647  1.3568 -4.0745
  526MOL0     H69382   3.612   1.855   3.649 -0.5697  2.3421 -0.4586
  526MOL0     H69383   3.304   1.812   3.583 -1.3836  1.2332  0.0988
  526MOL0     H69384   3.441   1.768   3.485  0.3927  2.1596 -1.3377
  526MOL0     H69385   3.219   1.968   3.395 -0.0152  1.1815 -0.8059
  526MOL0     H69386   3.314   2.118   3.142 -2.8046 -0.9532  0.2427
  526MOL0     H69387   3.392   2.266   3.194  1.5818 -2.7956 -4.2011
  526MOL0     H69388   3.174   2.350   3.262  1.1095  1.6711 -6.2721
  526MOL0     H69389   3.116   2.193   3.325 -0.4124  1.9795  0.0470
  526MOL0     H69390   3.120   2.288   3.045 -0.3907  0.5469  0.0084
  526MOL0     H69391   3.072   2.126   3.084  0.5371 -1.2625  3.3346
  526MOL0     H69392   2.901   2.182   3.239  2.9736 -1.8321 -0.2499
  526MOL0     H69393   2.868   2.252   3.084  2.0552  0.5826 -0.5341
  526MOL0     H69394   2.879   2.619   3.319  0.1808 -2.0073 -2.8435
  526MOL0     H69395   2.673   2.721   3.402  0.2933 -0.4788 -2.9852
  526MOL0     H69396   2.257   2.853   3.262 -2.2944  2.8339 -0.4313
  526MOL0     H69397   2.075   2.955   3.288  1.1980  1.2495  0.6462
  526MOL0     H69398   1.825   2.933   3.312 -2.0576  0.0644 -0.3899
  526MOL0     H69399   1.902   3.085   3.328  1.7916 -1.6661 -0.3499
  526MOL0     H69400   1.647   2.953   3.466  1.2863 -0.6259  1.6989
  526MOL0     H69401   1.638   3.079   3.354 -1.1884  0.2637  1.1613
  526MOL0     H69402   1.708   3.251   3.523 -2.8895  1.1047  0.5738
  526MOL0     H69403   1.762   3.124   3.627 -2.1561 -1.2579  0.6480
  526MOL0     H69404   1.483   3.151   3.540  2.0922 -1.0710 -1.2162
  526MOL0     H69405   1.541   3.056   3.688  0.1529 -1.3284 -2.2344
  526MOL0     H69406   1.436   3.254   3.763 -0.1601 -0.5966 -0.5072
  526MOL0     H69407   1.529   3.365   3.658  0.6566 -0.4053 -1.2536
  526MOL0     H69408   1.736   3.312   3.742 -0.7415  4.3540 -0.8772
  526MOL0     H69409   1.644   3.218   3.875  1.7618  0.9144  0.3642
  526MOL0     H69410   1.579   3.498   3.799 -1.8935 -0.9251 -0.8389
  526MOL0     H69411   1.534   3.406   3.944 -0.6665 -1.3651 -0.6036
  526MOL0     H69412   1.797   3.382   3.985  0.5956  0.1536 -0.1468
  526MOL0     H69413   1.728   3.541   4.023 -0.8244  1.1519 -1.4245
  526MOL0     H69414   2.007   2.795   3.677  0.0291 -1.4722 -2.2804
  526MOL0     H69415   2.232   2.702   3.674  0.1886  2.4490  2.0548
  526MOL0     H69416   2.480   2.328   3.370  0.3802 -1.9096 -2.0939
  526MOL0     H69417   2.682   2.241   3.272 -0.1151  0.0990 -2.1916
  526MOL0     H69418   4.133   1.405   3.897 -0.5161 -0.5095  0.3663
  526MOL0     H69419   4.393   1.401   3.945  2.0784  0.5513  1.2508
  526MOL0     H69420   4.710   1.135   4.113 -1.3305  1.5675  0.6376
  526MOL0     H69421   4.928   1.082   4.107 -2.1229 -0.5822 -1.0216
  526MOL0     H69422   5.102   1.090   3.992 -1.4841  1.9616 -1.0822
  526MOL0     H69423   5.185   1.055   4.133 -2.2374  0.7790  0.6293
  526MOL0     H69424   5.323   1.230   3.924  0.2618 -1.3991 -1.4432
  526MOL0     H69425   5.402   1.129   4.048 -1.0520 -4.5070 -0.1304
  526MOL0     H69426   5.393   1.033   3.790  0.6649 -4.1527 -0.1035
  526MOL0     H69427   5.228   1.015   3.824 -1.0166 -1.7809  0.1698
  526MOL0     H69428   5.306   0.873   4.043 -0.9105  1.6162  0.3277
  526MOL0     H69429   5.360   0.807   3.891 -2.3537 -0.7778  0.3802
  526MOL0     H69430   5.708   0.953   4.115  0.3101 -1.3221  0.4770
  526MOL0     H69431   5.052   1.500   4.142  0.8307 -0.9072 -2.1946
  526MOL0     H69432   4.804   1.552   4.128  0.1323 -0.4056  4.0052
  527MOL0     O69433   8.653   1.962  11.069  0.1372 -0.7184 -0.7741
  527MOL0     C69434   8.574   1.917  10.992  0.4936 -0.3513  0.5684
  527MOL0     O69435   8.598   1.874  10.865 -0.3345 -0.4492  0.0603
  527MOL0     C69436   8.731   1.887  10.822 -0.7081  0.5051  0.0074
  527MOL0     C69437   8.818   2.004  10.842 -0.1381  0.2299 -0.1383
  527MOL0     C69438   8.947   2.013  10.782  0.6340 -0.3833 -0.7532
  527MOL0     C69439   9.001   1.897  10.723  0.0591 -0.5753  0.0842
  527MOL0     O69440   9.120   1.897  10.647 -0.0830 -0.3992 -0.2904
  527MOL0     C69441   9.185   2.019  10.625 -0.9655  0.2376  0.2636
  527MOL0     C69442   9.316   1.995  10.549 -0.8438 -0.3711 -0.6754
  527MOL0     C69443   9.291   1.940  10.411 -0.3019  0.2249  0.3711
  527MOL0     C69444   9.426   1.948  10.331  0.4234  0.2717 -0.9346
  527MOL0     C69445   9.410   1.899  10.185  0.9301  0.3026 -0.4727
  527MOL0     C69446   9.545   1.858  10.123 -0.3843  0.0265  0.7104
  527MOL0     C69447   9.633   1.981  10.108 -0.4545 -0.5461 -0.5585
  527MOL0     C69448   9.769   1.957  10.048  0.1981  1.1650  1.0114
  527MOL0     N69449   9.745   1.953   9.906 -0.0524  0.1047 -0.0365
  527MOL0     C69450   9.721   2.056   9.826 -0.2769 -0.5553  0.5467
  527MOL0     C69451   9.738   2.007   9.697 -0.1894  0.4102 -1.3007
  527MOL0     C69452   9.725   2.075   9.566  1.2899  0.3213 -0.4322
  527MOL0     C69453   9.574   2.097   9.535  0.4058  0.3049 -1.1952
  527MOL0     C69454   9.486   1.972   9.550  0.3954  0.2749  0.3425
  527MOL0     C69455   9.530   1.858   9.449  0.7261 -0.9522 -0.2964
  527MOL0     O69456   9.424   1.758   9.443  0.0915 -0.1888  0.7488
  527MOL0     C69457   9.404   1.667   9.536  0.3856 -0.5868  0.3567
  527MOL0     C69458   9.269   1.611   9.531 -0.5497 -0.0629 -0.2318
  527MOL0     C69459   9.228   1.509   9.615  0.5227  0.2089 -0.1912
  527MOL0     C69460   9.313   1.478   9.722 -0.7676  0.5234  0.1912
  527MOL0     C69461   9.277   1.375   9.816  0.1472  0.1599 -1.1593
  527MOL0     O69462   9.374   1.321   9.886 -0.6119  0.3006 -0.3473
  527MOL0     C69463   9.357   1.222   9.987  0.0084 -0.6496 -0.1249
  527MOL0     C69464   9.474   1.148  10.021  0.3582  0.0131  0.9417
  527MOL0     C69465   9.473   1.046  10.121 -0.7910  0.5345  1.1037
  527MOL0     C69466   9.350   1.022  10.189 -0.6162  1.0415  0.1342
  527MOL0     O69467   9.323   0.925  10.284  0.0742  0.2230  0.5864
  527MOL0     C69468   9.390   0.800  10.270 -0.1189  0.2103  0.7419
  527MOL0     C69469   9.324   0.707  10.369  0.8762  0.8407  0.0504
  527MOL0     C69470   9.430   0.639  10.455 -0.3744 -0.1208 -0.8897
  527MOL0     C69471   9.377   0.563  10.573  1.2302 -0.0380  0.5854
  527MOL0     C69472   9.467   0.523  10.689 -0.2780 -0.1777 -0.7876
  527MOL0     C69473   9.392   0.465  10.815  0.2382 -0.2002  0.7560
  527MOL0     C69474   9.481   0.414  10.922  0.8005  0.0727  0.3800
  527MOL0     C69475   9.418   0.446  11.059 -0.5479  0.2582  0.4144
  527MOL0    Cl69476   9.417   0.623  11.081  0.3083 -0.4057 -0.0664
  527MOL0     C69477   9.241   1.089  10.151  0.6521 -0.3945  0.8927
  527MOL0     C69478   9.242   1.199  10.060 -0.1065  0.1578 -0.6701
  527MOL0     O69479   9.158   1.345   9.824 -0.1125 -0.2476 -0.6053
  527MOL0     C69480   9.439   1.543   9.735  1.0838  0.1695  0.2344
  527MOL0     C69481   9.489   1.635   9.639  0.4457 -0.5512 -0.6523
  527MOL0     N69482   9.766   1.878   9.704 -0.9664  0.6807 -0.4469
  527MOL0     N69483   9.770   1.841   9.830  0.3006 -0.5054 -0.5805
  527MOL0     C69484   8.926   1.784  10.716 -0.2252 -0.1549  0.6913
  527MOL0     C69485   8.799   1.777  10.770  0.3140 -0.1389  0.0939
  527MOL0     C69486   8.437   1.921  11.040 -0.2727 -1.2148  0.7436
  527MOL0     C69487   8.408   1.932  11.177  0.3726  0.2114 -0.0259
  527MOL0     C69488   8.273   1.932  11.214 -0.1458 -0.3072  0.1406
  527MOL0     C69489   8.170   1.906  11.120  0.4912 -1.0880 -0.9607
  527MOL0     O69490   8.033   1.898  11.161 -0.0306 -0.3283 -0.1015
  527MOL0     C69491   7.991   1.765  11.194 -0.0210 -0.4443 -0.1357
  527MOL0     C69492   8.004   1.743  11.343 -0.1087  0.1550 -0.5295
  527MOL0     C69493   7.890   1.812  11.417  0.1891  0.7985 -0.3673
  527MOL0     C69494   7.905   1.795  11.570 -0.1458  0.1564 -0.7354
  527MOL0     C69495   8.016   1.875  11.614  0.2494 -0.2391  0.1667
  527MOL0     C69496   8.119   1.929  11.642  0.3787 -0.9089  0.6526
  527MOL0     C69497   8.201   1.909  10.988 -0.2197  0.6072 -0.6131
  527MOL0     C69498   8.333   1.910  10.948 -0.3520  0.3443 -0.1108
  527MOL0     H69499   8.778   2.090  10.895 -0.0698  0.0093  0.2651
  527MOL0     H69500   9.002   2.106  10.786 -2.8055  1.8901 -1.5979
  527MOL0     H69501   9.213   2.071  10.716 -0.4563  0.2180  0.1240
  527MOL0     H69502   9.116   2.089  10.577 -2.8676 -0.7746  1.3780
  527MOL0     H69503   9.379   1.928  10.608  0.4860  0.4958 -1.0585
  527MOL0     H69504   9.369   2.091  10.550 -1.8813  0.2382  0.5859
  527MOL0     H69505   9.220   2.000  10.354 -1.4205 -2.9461 -1.8757
  527MOL0     H69506   9.260   1.835  10.413  1.6528 -0.5084 -1.9318
  527MOL0     H69507   9.468   2.049  10.327  1.6326 -0.0184  1.8343
  527MOL0     H69508   9.498   1.890  10.390  1.4436  3.7858  1.5535
  527MOL0     H69509   9.366   1.979  10.125 -1.4043 -0.8791 -0.4327
  527MOL0     H69510   9.343   1.813  10.192  1.0237  0.1336 -1.4812
  527MOL0     H69511   9.519   1.812  10.027 -1.0361  1.4051  0.2039
  527MOL0     H69512   9.605   1.786  10.179  1.5746 -0.3877 -1.7356
  527MOL0     H69513   9.574   2.059  10.059  0.9320 -0.0719 -1.5686
  527MOL0     H69514   9.647   2.029  10.205 -2.9038 -0.4683 -0.1956
  527MOL0     H69515   9.809   1.861  10.083  0.1340  0.6386 -0.2773
  527MOL0     H69516   9.843   2.032  10.076 -1.5756  2.1169  3.5410
  527MOL0     H69517   9.718   2.161   9.855  0.6199 -0.6806  1.1109
  527MOL0     H69518   9.768   2.020   9.483  1.4450  1.5793 -1.2127
  527MOL0     H69519   9.773   2.173   9.576  1.1318  0.3855 -0.3016
  527MOL0     H69520   9.559   2.141   9.435  0.5447  1.1982 -0.8324
  527MOL0     H69521   9.543   2.167   9.613 -1.5026 -1.6442 -0.0880
  527MOL0     H69522   9.478   1.941   9.655 -0.8741  2.1257  0.8546
  527MOL0     H69523   9.383   1.997   9.522  0.5564 -1.8102 -2.5828
  527MOL0     H69524   9.626   1.823   9.488  0.3420 -1.3478  0.3110
  527MOL0     H69525   9.547   1.909   9.354  0.5476 -1.1679 -0.4442
  527MOL0     H69526   9.198   1.654   9.461 -0.7001 -0.3578 -0.2596
  527MOL0     H69527   9.133   1.459   9.601 -0.5104  1.1498  2.6527
  527MOL0     H69528   9.574   1.168   9.982  0.0772 -0.5653 -0.1106
  527MOL0     H69529   9.566   1.001  10.154  0.7591  0.8187 -2.3887
  527MOL0     H69530   9.494   0.817  10.296  0.2318 -0.3980 -0.2129
  527MOL0     H69531   9.373   0.754  10.172 -0.1227  1.5101  0.1232
  527MOL0     H69532   9.270   0.627  10.317  0.6467  1.8683 -1.3333
  527MOL0     H69533   9.250   0.760  10.429  0.3225  0.5207 -0.3489
  527MOL0     H69534   9.508   0.707  10.491 -1.3252 -0.5196  2.2069
  527MOL0     H69535   9.482   0.565  10.393  3.2491  0.2768  1.3620
  527MOL0     H69536   9.294   0.630  10.600  2.1562  4.1042 -5.0295
  527MOL0     H69537   9.323   0.477  10.534  1.2102  1.5073 -3.1648
  527MOL0     H69538   9.531   0.605  10.723 -1.3462  0.9867 -1.4888
  527MOL0     H69539   9.543   0.458  10.644 -0.7428  0.2402 -2.2109
  527MOL0     H69540   9.336   0.382  10.771 -0.0434 -0.1724  1.0514
  527MOL0     H69541   9.324   0.543  10.851  0.4993 -1.4939  4.6084
  527MOL0     H69542   9.507   0.308  10.917 -1.3949 -0.7203  3.0603
  527MOL0     H69543   9.576   0.463  10.900  1.7841 -1.9631 -0.1599
  527MOL0     H69544   9.472   0.410  11.147  0.7359  0.8087 -0.1257
  527MOL0     H69545   9.315   0.411  11.057 -0.8767  1.2152 -0.7154
  527MOL0     H69546   9.144   1.080  10.198  1.1337  1.9901  2.5297
  527MOL0     H69547   9.150   1.251  10.036  0.3639  1.3295  0.0056
  527MOL0     H69548   9.512   1.518   9.811  0.6424 -2.4188 -0.1027
  527MOL0     H69549   9.588   1.679   9.651  1.9589 -3.2590 -2.1604
  527MOL0     H69550   8.959   1.704  10.651 -3.4608 -0.1663 -1.1479
  527MOL0     H69551   8.737   1.688  10.768 -2.1521  1.4379  1.5757
  527MOL0     H69552   8.489   1.940  11.249  1.1958  0.1664 -0.9280
  527MOL0     H69553   8.225   1.933  11.312  2.9830 -3.3987  1.9344
  527MOL0     H69554   8.049   1.689  11.141 -2.3474 -1.5566 -1.2191
  527MOL0     H69555   7.889   1.752  11.157 -0.8874  0.0866  1.8936
  527MOL0     H69556   7.996   1.637  11.368  0.5056  0.1173 -0.4675
  527MOL0     H69557   8.103   1.771  11.381  0.4057 -4.6538  2.5335
  527MOL0     H69558   7.795   1.761  11.400 -0.5776  1.5557  1.3537
  527MOL0     H69559   7.885   1.916  11.383 -2.7535  0.5682 -0.8847
  527MOL0     H69560   7.828   1.845  11.627  1.2733  0.1376  1.2914
  527MOL0     H69561   7.908   1.687  11.590 -1.1334 -0.4676 -3.4841
  527MOL0     H69562   8.198   2.001  11.650 -1.0911  0.8076  0.1439
  527MOL0     H69563   8.119   1.885  10.921 -2.5156  1.5565  1.6456
  527MOL0     H69564   8.347   1.906  10.840 -1.5136 -0.9099 -0.2441
  528MOL0     O69565   9.545   9.035   2.628 -0.1227  0.4501 -0.3618
  528MOL0     C69566   9.627   8.997   2.712 -0.1675 -0.1330 -0.4899
  528MOL0     O69567   9.599   8.960   2.838  0.6357 -0.0322 -0.1176
  528MOL0     C69568   9.472   8.921   2.859  0.0141  0.0363  0.6624
  528MOL0     C69569   9.445   8.793   2.892  0.3032  1.0408  0.4691
  528MOL0     C69570   9.313   8.753   2.931 -1.2399 -0.2060 -0.4076
  528MOL0     C69571   9.209   8.849   2.944  0.3287  1.2836  0.0250
  528MOL0     O69572   9.083   8.811   2.981  0.5949  0.3728 -0.2660
  528MOL0     C69573   9.047   8.682   3.037  0.1288  0.3878 -0.4782
  528MOL0     C69574   8.893   8.685   3.064 -0.9363  0.0015 -0.0786
  528MOL0     C69575   8.835   8.547   3.105  0.6015  0.9758  0.0218
  528MOL0     C69576   8.684   8.551   3.063  0.3436  0.0269 -0.1057
  528MOL0     C69577   8.605   8.438   3.126  0.5879 -0.1124  0.2727
  528MOL0     C69578   8.470   8.438   3.055  0.7695 -0.1188  0.6239
  528MOL0     C69579   8.374   8.535   3.128  0.3124  0.2312 -0.1610
  528MOL0     C69580   8.229   8.529   3.074 -0.5653  0.5071 -0.0873
  528MOL0     N69581   8.151   8.411   3.119  0.1114 -0.1568 -0.2150
  528MOL0     C69582   8.018   8.380   3.101 -0.0617 -0.5573 -0.6028
  528MOL0     C69583   7.991   8.260   3.164 -0.7287  0.2157  0.1299
  528MOL0     C69584   7.858   8.191   3.182  0.0968  0.8714  1.1037
  528MOL0     C69585   7.866   8.052   3.269 -0.1397  0.5815  0.1319
  528MOL0     C69586   7.722   7.991   3.296 -0.0988  0.3287  0.5420
  528MOL0     C69587   7.617   8.089   3.345 -0.3510  0.1966 -0.2298
  528MOL0     O69588   7.515   8.018   3.409  0.3794  0.0686 -0.2246
  528MOL0     C69589   7.382   8.067   3.413  0.9616  0.0107  0.6828
  528MOL0     C69590   7.275   7.979   3.435 -0.2244 -0.4682 -0.7933
  528MOL0     C69591   7.145   8.023   3.420 -1.1234 -0.0175 -1.2791
  528MOL0     C69592   7.121   8.160   3.403  0.6178  0.6962 -0.2573
  528MOL0     C69593   6.982   8.202   3.390  0.5067 -0.0237  0.2362
  528MOL0     O69594   6.960   8.333   3.411  0.1080 -1.0079  0.0510
  528MOL0     C69595   6.836   8.384   3.380 -0.1444 -0.5292 -1.3319
  528MOL0     C69596   6.769   8.373   3.254 -0.4356 -0.1770 -0.9123
  528MOL0     C69597   6.648   8.427   3.234 -0.4165  0.2305 -0.2617
  528MOL0     C69598   6.592   8.517   3.331  1.1072 -0.0613  0.0245
  528MOL0     O69599   6.471   8.575   3.285  0.3712  0.1849  0.5780
  528MOL0     C69600   6.402   8.676   3.356  0.3130 -0.2571 -1.0826
  528MOL0     C69601   6.256   8.688   3.317 -0.2692 -0.2732  0.2219
  528MOL0     C69602   6.194   8.807   3.390 -0.4653 -0.7762  0.4332
  528MOL0     C69603   6.045   8.819   3.368  0.0491  0.1892 -0.1112
  528MOL0     C69604   5.962   8.738   3.476  0.4905  0.0684 -0.0159
  528MOL0     C69605   5.809   8.769   3.478  0.1427  0.0871  0.8045
  528MOL0     C69606   5.739   8.748   3.340  0.2810 -0.1864  0.2662
  528MOL0     C69607   5.588   8.778   3.343 -0.2767 -0.8846  0.6293
  528MOL0    Cl69608   5.516   8.730   3.487  1.0241 -0.3741 -0.8013
  528MOL0     C69609   6.652   8.523   3.460 -0.4127 -0.5090 -0.0309
  528MOL0     C69610   6.782   8.471   3.483  0.4940  1.0402  0.5221
  528MOL0     O69611   6.895   8.118   3.359 -0.6830  0.4974  0.0638
  528MOL0     C69612   7.225   8.251   3.384 -0.9158  0.7477 -0.0963
  528MOL0     C69613   7.358   8.204   3.382  0.5141  0.2747  0.2383
  528MOL0     N69614   8.106   8.227   3.237  0.2510 -0.6238 -1.2633
  528MOL0     N69615   8.197   8.321   3.208  0.2770  0.6790  1.5281
  528MOL0     C69616   9.239   8.980   2.911  0.5049 -0.6728 -1.0732
  528MOL0     C69617   9.374   9.023   2.873  0.3654  0.1274 -1.1676
  528MOL0     C69618   9.767   9.029   2.678 -0.1044 -0.2728 -0.3833
  528MOL0     C69619   9.851   9.027   2.783 -0.3833 -0.1690 -0.9089
  528MOL0     C69620   9.986   9.050   2.758  0.0067 -0.4498  0.6293
  528MOL0     C69621  10.037   9.076   2.620 -1.3378 -0.4147 -1.0787
  528MOL0     O69622  10.186   9.082   2.617  0.1857  0.1192  0.1125
  528MOL0     C69623  10.246   9.091   2.479 -0.2911  0.1223  0.2689
  528MOL0     C69624  10.244   9.233   2.426  0.0749  0.2211 -0.6839
  528MOL0     C69625  10.328   9.331   2.514  0.4194  0.7600  0.4600
  528MOL0     C69626  10.297   9.485   2.481  0.4359 -0.1660  1.0436
  528MOL0     C69627  10.183   9.547   2.560  0.6264 -0.5169  0.1605
  528MOL0     C69628  10.104   9.610   2.632 -0.4080  0.7717 -0.4502
  528MOL0     C69629   9.946   9.085   2.519 -0.2932  0.1484 -0.0495
  528MOL0     C69630   9.809   9.071   2.557  0.5785 -0.0279  0.2767
  528MOL0     H69631   9.520   8.714   2.889 -1.9735 -1.2290 -1.0849
  528MOL0     H69632   9.303   8.653   2.973 -0.3972 -0.2018 -0.1784
  528MOL0     H69633   9.089   8.658   3.135 -1.1282  2.6849  0.6814
  528MOL0     H69634   9.054   8.611   2.954 -1.0744  0.7189 -0.8762
  528MOL0     H69635   8.856   8.725   2.968  2.7542  1.0562 -1.2330
  528MOL0     H69636   8.850   8.752   3.139  0.5630  0.5963  0.2880
  528MOL0     H69637   8.847   8.537   3.214  0.4734  2.0990  0.1578
  528MOL0     H69638   8.889   8.469   3.051 -1.6386 -0.2711 -0.5143
  528MOL0     H69639   8.639   8.631   3.122 -0.8092 -1.5938  1.3317
  528MOL0     H69640   8.661   8.573   2.959 -0.2403  0.3330  0.0830
  528MOL0     H69641   8.579   8.448   3.231 -1.9331  0.9155 -0.3838
  528MOL0     H69642   8.647   8.340   3.102 -1.0278 -1.0385  1.1291
  528MOL0     H69643   8.431   8.336   3.065  0.9983 -0.3259 -0.4683
  528MOL0     H69644   8.485   8.454   2.948  1.4152 -1.2361  0.5212
  528MOL0     H69645   8.375   8.507   3.234 -2.6612  0.7228  0.0593
  528MOL0     H69646   8.410   8.638   3.119  1.0754  0.1008  1.0706
  528MOL0     H69647   8.244   8.522   2.965  1.3642 -0.2342  0.1916
  528MOL0     H69648   8.181   8.624   3.098  0.6792  1.5646 -1.5661
  528MOL0     H69649   7.948   8.447   3.051  1.5765 -0.9329 -3.6327
  528MOL0     H69650   7.841   8.168   3.076  3.1813  3.7281 -0.1664
  528MOL0     H69651   7.776   8.253   3.218  0.5111  0.7097  2.3516
  528MOL0     H69652   7.905   8.065   3.371 -3.0979  1.0387  1.3116
  528MOL0     H69653   7.932   7.977   3.225 -2.4175 -1.0422 -0.7292
  528MOL0     H69654   7.690   7.935   3.208 -1.0436  0.0684  1.0377
  528MOL0     H69655   7.734   7.917   3.375  1.6162  0.0872  0.0870
  528MOL0     H69656   7.573   8.139   3.259 -1.2174 -0.4595 -0.1851
  528MOL0     H69657   7.666   8.160   3.413 -0.7300 -0.3940  0.6865
  528MOL0     H69658   7.309   7.884   3.475  1.3364  2.0287  4.7574
  528MOL0     H69659   7.060   7.960   3.444  0.1330 -1.0540  0.7232
  528MOL0     H69660   6.815   8.311   3.179  2.2755  0.7435 -0.1241
  528MOL0     H69661   6.595   8.417   3.139  0.3813  4.8960 -1.4263
  528MOL0     H69662   6.445   8.772   3.327  0.0010  0.6921  1.3342
  528MOL0     H69663   6.399   8.651   3.462 -1.7581 -2.1956 -1.5213
  528MOL0     H69664   6.198   8.597   3.338 -1.9042  1.0062  1.5648
  528MOL0     H69665   6.251   8.700   3.208 -3.2822 -2.5556 -0.0243
  528MOL0     H69666   6.247   8.896   3.356  1.8652 -1.7517  1.3088
  528MOL0     H69667   6.218   8.796   3.496  1.5983  0.4799  0.1372
  528MOL0     H69668   6.021   8.924   3.382 -1.3857 -0.1480  0.1079
  528MOL0     H69669   6.018   8.789   3.266 -1.2018 -0.4485  0.3937
  528MOL0     H69670   5.995   8.764   3.577 -0.0408 -3.1349  1.1027
  528MOL0     H69671   5.980   8.633   3.455 -2.0041 -0.3070 -0.5725
  528MOL0     H69672   5.796   8.874   3.506  2.3555  0.9452 -1.0097
  528MOL0     H69673   5.773   8.700   3.554  0.6730  0.4655  1.4070
  528MOL0     H69674   5.785   8.806   3.260 -2.0189  1.3655 -0.0040
  528MOL0     H69675   5.748   8.641   3.320 -0.9265 -0.5077  1.2942
  528MOL0     H69676   5.552   8.725   3.254  2.0554  0.5035 -1.2897
  528MOL0     H69677   5.558   8.881   3.320  3.8445  0.3513 -0.1262
  528MOL0     H69678   6.607   8.585   3.537  0.1886  0.7177 -0.6342
  528MOL0     H69679   6.833   8.488   3.577 -1.5198 -0.7243  2.0223
  528MOL0     H69680   7.202   8.356   3.377 -1.0733  0.8914  2.0655
  528MOL0     H69681   7.440   8.269   3.355  0.6064 -0.3407 -1.0291
  528MOL0     H69682   9.161   9.055   2.909 -0.8288 -2.0357 -1.1713
  528MOL0     H69683   9.404   9.126   2.857  2.6419 -0.2107  0.4014
  528MOL0     H69684   9.826   9.007   2.887 -0.2425 -0.0102 -0.8440
  528MOL0     H69685  10.053   9.043   2.844 -0.3517 -1.5966  0.8355
  528MOL0     H69686  10.220   9.015   2.405  0.8380  0.8672 -0.9335
  528MOL0     H69687  10.350   9.069   2.505  0.2834  1.2903 -0.9228
  528MOL0     H69688  10.285   9.237   2.324 -0.3955 -1.3071 -0.9652
  528MOL0     H69689  10.138   9.263   2.427 -0.1526 -0.5611  0.2735
  528MOL0     H69690  10.435   9.309   2.502  0.0840  0.1399 -1.8789
  528MOL0     H69691  10.301   9.313   2.619 -2.5683  0.2316 -0.2942
  528MOL0     H69692  10.385   9.548   2.490 -1.3634  2.6399  0.4224
  528MOL0     H69693  10.275   9.489   2.373  1.3334  2.3268  0.8967
  528MOL0     H69694  10.034   9.671   2.685  0.7637  3.0285 -1.3576
  528MOL0     H69695   9.981   9.107   2.418  1.8713 -1.4597  0.2500
  528MOL0     H69696   9.732   9.100   2.486  0.9743 -0.0905 -0.1870
  529MOL0     O69697   4.877   8.295   5.369 -0.2276 -0.6097 -0.8367
  529MOL0     C69698   4.814   8.224   5.450  0.4961  0.5616  0.2552
  529MOL0     O69699   4.680   8.229   5.470 -0.1335 -0.2847 -0.4977
  529MOL0     C69700   4.612   8.329   5.405 -0.0850 -0.3433 -0.5885
  529MOL0     C69701   4.620   8.470   5.447 -0.7844  0.5772  0.0592
  529MOL0     C69702   4.524   8.558   5.401 -0.5295  0.4051  0.2852
  529MOL0     C69703   4.420   8.515   5.321  0.3676 -0.8412  0.3161
  529MOL0     O69704   4.318   8.589   5.280 -0.4986 -0.1836  0.3757
  529MOL0     C69705   4.245   8.671   5.372 -0.9658 -0.5265  0.1182
  529MOL0     C69706   4.163   8.584   5.468 -0.5206  0.6810  0.0879
  529MOL0     C69707   4.064   8.680   5.545 -0.0017 -0.3818 -0.3640
  529MOL0     C69708   3.938   8.710   5.457  0.1051 -0.1182 -0.7879
  529MOL0     C69709   3.853   8.819   5.521 -0.2530 -0.4916 -0.0574
  529MOL0     C69710   3.718   8.844   5.450  0.1712  0.3816  0.0427
  529MOL0     C69711   3.649   8.962   5.517 -0.7954  0.1105 -0.3917
  529MOL0     C69712   3.614   8.937   5.665  0.2087  0.0284  0.0993
  529MOL0     N69713   3.550   9.055   5.737 -0.9137 -0.1943  0.1477
  529MOL0     C69714   3.414   9.076   5.737 -0.1314 -0.0602 -0.0831
  529MOL0     C69715   3.399   9.163   5.834  1.0071  0.5943 -0.1501
  529MOL0     C69716   3.267   9.183   5.901 -0.1038  0.3544 -0.5125
  529MOL0     C69717   3.269   9.274   6.024 -0.1829  0.6186 -0.3483
  529MOL0     C69718   3.143   9.252   6.107  0.2508  0.8601 -0.0217
  529MOL0     C69719   3.012   9.274   6.026 -0.2434  0.3797 -0.2289
  529MOL0     O69720   2.907   9.257   6.118  0.6368  0.0829  0.0979
  529MOL0     C69721   2.790   9.231   6.064  0.5818  0.4373 -1.0660
  529MOL0     C69722   2.741   9.258   5.934 -0.9119  0.0029  0.0441
  529MOL0     C69723   2.610   9.234   5.902 -0.6951  0.0841  0.4068
  529MOL0     C69724   2.526   9.164   5.985 -0.0632 -0.1545 -0.2392
  529MOL0     C69725   2.379   9.159   5.963  0.6481 -0.5660  0.1068
  529MOL0     O69726   2.319   9.217   5.850 -0.3918 -0.1311 -0.2220
  529MOL0     C69727   2.185   9.225   5.833  0.2227  0.6653 -0.5390
  529MOL0     C69728   2.091   9.132   5.873  0.5193  0.4122  0.8121
  529MOL0     C69729   1.956   9.158   5.868 -0.9502  0.0378 -0.4732
  529MOL0     C69730   1.908   9.277   5.818  0.1559 -0.1489  0.7046
  529MOL0     O69731   1.771   9.285   5.801  0.3312 -0.0276  0.2249
  529MOL0     C69732   1.717   9.403   5.738  0.3535  0.5909 -0.4991
  529MOL0     C69733   1.564   9.416   5.715  0.1796 -0.0122 -0.0193
  529MOL0     C69734   1.472   9.400   5.832 -0.5292 -0.3322  0.4360
  529MOL0     C69735   1.329   9.371   5.790  0.2260 -0.1952 -0.4820
  529MOL0     C69736   1.228   9.359   5.903  0.3046 -0.1399  0.9922
  529MOL0     C69737   1.082   9.328   5.871 -0.5224  0.2692 -0.7108
  529MOL0     C69738   1.048   9.392   5.741 -0.4712  0.6326 -0.1613
  529MOL0     C69739   0.890   9.384   5.725  0.3561  0.2917  0.0410
  529MOL0    Cl69740   0.850   9.227   5.642 -0.0120 -0.5072  0.0361
  529MOL0     C69741   2.009   9.376   5.783 -0.2382  0.0365  0.5217
  529MOL0     C69742   2.146   9.350   5.786  0.0444  0.5757  0.3763
  529MOL0     O69743   2.312   9.110   6.050  0.1047  0.7639 -0.7481
  529MOL0     C69744   2.575   9.111   6.102  0.2295 -0.0647 -0.6622
  529MOL0     C69745   2.708   9.151   6.148  0.3908  0.7149  0.1893
  529MOL0     N69746   3.514   9.202   5.888 -0.1886 -0.4348  0.6757
  529MOL0     N69747   3.610   9.138   5.833  0.0035  0.8539  0.4307
  529MOL0     C69748   4.412   8.381   5.278 -0.7307  0.1672  1.0080
  529MOL0     C69749   4.512   8.290   5.316 -0.3389  0.0675  0.4017
  529MOL0     C69750   4.893   8.135   5.532 -0.0408  0.3605 -0.0222
  529MOL0     C69751   5.037   8.139   5.520  0.9781 -0.1906 -0.0312
  529MOL0     C69752   5.110   8.058   5.604 -1.0293  1.2774 -0.2925
  529MOL0     C69753   5.049   7.975   5.700 -0.2863  0.5002 -0.6724
  529MOL0     O69754   5.126   7.908   5.787  0.7010 -0.1048  0.3927
  529MOL0     C69755   5.204   7.804   5.735 -0.0422 -0.1049  0.3040
  529MOL0     C69756   5.269   7.722   5.844 -0.5452  0.5334 -0.9593
  529MOL0     C69757   5.374   7.628   5.792  0.4025  0.2639 -0.0885
  529MOL0     C69758   5.434   7.536   5.901 -0.1431 -0.5558 -0.1228
  529MOL0     C69759   5.562   7.482   5.850  0.4881  0.4953  0.0725
  529MOL0     C69760   5.662   7.441   5.788 -0.0916  0.3500 -0.7493
  529MOL0     C69761   4.911   7.973   5.709 -0.1617 -0.3943  0.5462
  529MOL0     C69762   4.825   8.049   5.621 -1.2017 -0.8834 -1.0281
  529MOL0     H69763   4.692   8.488   5.527  1.2489 -2.9008 -0.7858
  529MOL0     H69764   4.527   8.657   5.446 -2.6611  1.6660 -2.0365
  529MOL0     H69765   4.187   8.746   5.318 -0.0538 -1.3446 -2.0980
  529MOL0     H69766   4.318   8.719   5.438 -3.1039 -0.7142  2.8092
  529MOL0     H69767   4.233   8.536   5.537  0.4983 -0.4847 -1.6816
  529MOL0     H69768   4.113   8.505   5.411  0.3513  0.4728 -0.3945
  529MOL0     H69769   4.108   8.775   5.576 -2.1393  0.3645  0.5810
  529MOL0     H69770   4.033   8.621   5.632  0.1702  0.2134  0.1021
  529MOL0     H69771   3.977   8.739   5.359 -0.9296 -1.3462 -1.5897
  529MOL0     H69772   3.876   8.621   5.444  0.3102 -0.2862 -0.6239
  529MOL0     H69773   3.918   8.906   5.507 -2.4888  1.4291  0.8220
  529MOL0     H69774   3.842   8.802   5.628 -1.5242 -0.1271 -0.1249
  529MOL0     H69775   3.659   8.752   5.461  1.2116 -0.5512 -1.7441
  529MOL0     H69776   3.741   8.863   5.345 -1.9101  0.9272 -0.3620
  529MOL0     H69777   3.713   9.052   5.522 -1.5356  0.6467 -0.4335
  529MOL0     H69778   3.555   8.987   5.468 -0.0905 -0.0203 -1.8455
  529MOL0     H69779   3.705   8.912   5.720  0.6603 -0.3425 -0.8059
  529MOL0     H69780   3.541   8.856   5.660  3.1978 -2.9074  0.4130
  529MOL0     H69781   3.332   9.025   5.687 -0.1292 -1.2415  1.0708
  529MOL0     H69782   3.232   9.086   5.936 -0.7592  1.4588  2.0838
  529MOL0     H69783   3.196   9.207   5.821 -1.3046  1.3022  0.7967
  529MOL0     H69784   3.265   9.381   6.003 -4.3239  0.7916  0.3900
  529MOL0     H69785   3.356   9.248   6.085 -0.7737 -0.0498  0.2376
  529MOL0     H69786   3.143   9.149   6.143 -1.2130  0.8912  0.1485
  529MOL0     H69787   3.153   9.312   6.198  0.0480  0.7855  0.0521
  529MOL0     H69788   3.007   9.222   5.930  1.5298  2.0672 -1.3163
  529MOL0     H69789   3.019   9.379   5.998  0.8949  0.4154  0.1355
  529MOL0     H69790   2.799   9.313   5.860 -0.8676  0.4444  0.4045
  529MOL0     H69791   2.585   9.253   5.798 -3.1943  1.9212  1.2251
  529MOL0     H69792   2.121   9.031   5.903 -2.9765 -0.6493  1.1821
  529MOL0     H69793   1.890   9.078   5.899  3.1677 -2.6247  2.3132
  529MOL0     H69794   1.752   9.414   5.635 -1.3324 -0.2699 -1.1990
  529MOL0     H69795   1.737   9.486   5.807  2.5676  0.8681 -1.3758
  529MOL0     H69796   1.540   9.343   5.637  6.8157  1.2441 -4.0428
  529MOL0     H69797   1.542   9.517   5.678  0.6434  0.8424  1.9269
  529MOL0     H69798   1.461   9.496   5.884 -3.0698  0.1062 -0.7351
  529MOL0     H69799   1.504   9.326   5.907  0.5164 -1.2844 -0.9077
  529MOL0     H69800   1.302   9.451   5.720  0.5600  0.5713  0.2437
  529MOL0     H69801   1.325   9.280   5.731  4.2819 -1.9884  1.6087
  529MOL0     H69802   1.223   9.445   5.970 -1.6314  0.3683  0.2570
  529MOL0     H69803   1.257   9.265   5.950 -1.9594 -0.9766  0.8037
  529MOL0     H69804   1.018   9.343   5.958 -0.3689 -0.5313 -0.4452
  529MOL0     H69805   1.067   9.220   5.862 -0.3676  0.2960 -1.3417
  529MOL0     H69806   1.061   9.501   5.746 -1.0115  0.6982 -0.0490
  529MOL0     H69807   1.100   9.362   5.649 -2.1590  0.2379 -1.0354
  529MOL0     H69808   0.842   9.461   5.664  2.3548  1.4372 -0.2012
  529MOL0     H69809   0.845   9.383   5.825 -1.0415 -1.5175 -0.5699
  529MOL0     H69810   1.974   9.471   5.744 -0.4176 -0.0085  0.5696
  529MOL0     H69811   2.223   9.427   5.787 -1.4184  2.1037  1.7119
  529MOL0     H69812   2.515   9.047   6.166  0.6275  2.0883  2.0569
  529MOL0     H69813   2.748   9.114   6.242 -1.8583  0.9619  1.3110
  529MOL0     H69814   4.322   8.352   5.224 -0.0957  0.6096 -0.3368
  529MOL0     H69815   4.517   8.186   5.283  0.4735  0.3296 -0.3290
  529MOL0     H69816   5.095   8.189   5.443  2.3891 -0.5957  0.7399
  529MOL0     H69817   5.217   8.052   5.589 -0.8919  4.0396 -1.1212
  529MOL0     H69818   5.284   7.846   5.674 -0.6057 -1.9034 -1.7639
  529MOL0     H69819   5.146   7.730   5.680 -1.0944  0.0628  1.1406
  529MOL0     H69820   5.314   7.797   5.909 -3.3542 -0.3500  2.2894
  529MOL0     H69821   5.206   7.647   5.893  0.6058 -0.1928 -0.5381
  529MOL0     H69822   5.452   7.676   5.733  1.6912 -2.3676 -0.6636
  529MOL0     H69823   5.333   7.563   5.714 -3.7693  3.5373 -1.0253
  529MOL0     H69824   5.455   7.583   5.997 -1.5449  3.1484 -1.4530
  529MOL0     H69825   5.369   7.448   5.908 -0.9564 -0.0023 -0.6156
  529MOL0     H69826   5.744   7.395   5.737 -1.2398  0.6710 -3.0551
  529MOL0     H69827   4.869   7.908   5.785  2.3070 -1.7552  0.8655
  529MOL0     H69828   4.716   8.051   5.628 -1.1319  1.1781  0.7082
  530MOL0     O69829   2.119   7.761   4.053 -0.2326 -0.1393  0.8314
  530MOL0     C69830   2.067   7.871   4.072 -0.1276 -0.6177 -0.1571
  530MOL0     O69831   1.933   7.901   4.089 -0.5917 -0.5293  0.1255
  530MOL0     C69832   1.847   7.799   4.118  0.3716 -0.0565 -0.3007
  530MOL0     C69833   1.760   7.765   4.019  0.0978 -0.6142  0.5222
  530MOL0     C69834   1.658   7.661   4.036 -0.8120 -0.5064 -0.2346
  530MOL0     C69835   1.664   7.580   4.146  0.2691 -0.7333 -0.7309
  530MOL0     O69836   1.566   7.482   4.161 -0.0891  0.0735 -0.3411
  530MOL0     C69837   1.559   7.407   4.281  0.9411 -0.3170  0.5631
  530MOL0     C69838   1.455   7.302   4.263 -0.0688 -0.3226  0.2914
  530MOL0     C69839   1.304   7.353   4.271  0.4237  0.3944 -0.7234
  530MOL0     C69840   1.202   7.245   4.215  0.2258  0.0757 -0.2330
  530MOL0     C69841   1.052   7.275   4.229 -0.7006 -0.5346 -0.1564
  530MOL0     C69842   0.986   7.371   4.122 -0.4369  0.9204  0.6468
  530MOL0     C69843   0.986   7.519   4.152 -0.4637 -0.4124 -0.0558
  530MOL0     C69844   0.891   7.548   4.269 -0.0313  0.4438  0.2220
  530MOL0     N69845   0.750   7.535   4.252  0.1934  0.8810  0.1005
  530MOL0     C69846   0.672   7.419   4.267 -0.1794 -0.6366  0.1354
  530MOL0     C69847   0.552   7.453   4.216 -1.2539 -0.7495  0.5338
  530MOL0     C69848   0.436   7.371   4.180  0.4853  0.8896  0.4483
  530MOL0     C69849   0.436   7.303   4.037 -0.5164  0.0438  0.4404
  530MOL0     C69850   0.348   7.168   4.006 -0.1404  0.0357 -0.6861
  530MOL0     C69851   0.194   7.195   4.016 -1.9265  0.2002  0.4701
  530MOL0     O69852   0.117   7.079   3.984 -0.7247  0.4074 -0.0356
  530MOL0     C69853  -0.011   7.075   4.037  0.2334 -0.2544  0.6948
  530MOL0     C69854  -0.074   7.151   4.142 -0.8610  0.2895  0.9541
  530MOL0     C69855  -0.209   7.150   4.164  0.2141  0.1476 -0.3017
  530MOL0     C69856  -0.297   7.075   4.084  0.4367 -0.0400 -0.1215
  530MOL0     C69857  -0.440   7.057   4.105 -0.0246 -1.1755  0.0484
  530MOL0     O69858  -0.494   6.967   4.020  0.5920  0.2637 -0.6031
  530MOL0     C69859  -0.628   6.965   4.035 -0.4885  0.1137  0.3996
  530MOL0     C69860  -0.684   6.929   4.158 -0.6753  0.5971  0.2548
  530MOL0     C69861  -0.821   6.929   4.172 -0.5901 -0.5754  0.5790
  530MOL0     C69862  -0.901   6.954   4.065  0.8408 -0.2004  0.9168
  530MOL0     O69863  -1.039   6.949   4.092 -0.2733 -0.3208  0.0913
  530MOL0     C69864  -1.140   6.936   3.987 -0.4019  0.4438 -0.2735
  530MOL0     C69865  -1.272   6.890   4.037 -0.2124  0.8849 -0.1790
  530MOL0     C69866  -1.382   6.882   3.933 -0.0771 -0.2924  1.0868
  530MOL0     C69867  -1.523   6.871   3.995 -0.2828  1.1748  0.0763
  530MOL0     C69868  -1.637   6.874   3.889 -0.4413 -1.0383  0.1099
  530MOL0     C69869  -1.779   6.863   3.956 -0.7884  0.3043  0.3329
  530MOL0     C69870  -1.874   6.798   3.867  1.3862 -0.3622 -0.2927
  530MOL0     C69871  -2.007   6.767   3.932  0.0134 -0.2222  0.0896
  530MOL0    Cl69872  -2.127   6.698   3.832 -0.0183  0.3775 -0.3585
  530MOL0     C69873  -0.845   6.991   3.948  0.3609  0.4461  0.3102
  530MOL0     C69874  -0.708   6.987   3.926 -0.3459 -0.2912 -0.0646
  530MOL0     O69875  -0.502   7.137   4.177 -0.2856 -0.1149 -0.3303
  530MOL0     C69876  -0.235   7.006   3.981  0.0086 -0.1142  0.0712
  530MOL0     C69877  -0.103   7.005   3.962 -0.1267  0.5156  0.0991
  530MOL0     N69878   0.561   7.587   4.185 -0.2248 -0.7764 -0.0006
  530MOL0     N69879   0.677   7.634   4.207  0.1162 -0.7732  0.3611
  530MOL0     C69880   1.758   7.609   4.242 -0.1664  0.4777  0.2731
  530MOL0     C69881   1.839   7.724   4.235  1.0634  0.2064 -0.3317
  530MOL0     C69882   2.166   7.977   4.115  0.8654 -0.4356  0.2933
  530MOL0     C69883   2.122   8.107   4.172  0.3086  0.1856  0.0487
  530MOL0     C69884   2.216   8.208   4.192  0.0586 -0.1440  0.2208
  530MOL0     C69885   2.342   8.199   4.147 -0.6183  0.0823 -0.0395
  530MOL0     O69886   2.423   8.309   4.147  0.0385 -0.4612 -0.1973
  530MOL0     C69887   2.555   8.294   4.093 -0.7404 -0.6620 -1.0316
  530MOL0     C69888   2.557   8.305   3.942  0.3284 -0.1931  0.2506
  530MOL0     C69889   2.502   8.448   3.880  0.1172  0.5495 -0.4674
  530MOL0     C69890   2.509   8.432   3.721  0.0054 -0.0088  0.7769
  530MOL0     C69891   2.645   8.452   3.664 -0.3662 -0.0836 -0.3662
  530MOL0     C69892   2.762   8.461   3.628 -0.1296 -0.7065 -0.3671
  530MOL0     C69893   2.379   8.077   4.077 -0.0499  0.4220  0.4088
  530MOL0     C69894   2.296   7.965   4.069 -0.5322 -0.2544 -0.5368
  530MOL0     H69895   1.747   7.817   3.924 -0.9131 -1.2999  0.2559
  530MOL0     H69896   1.577   7.647   3.965 -1.1871  2.5902 -0.5650
  530MOL0     H69897   1.537   7.465   4.371  1.4934 -2.1927  1.9775
  530MOL0     H69898   1.658   7.361   4.293  2.2027  1.9072 -0.6247
  530MOL0     H69899   1.465   7.222   4.337 -1.7321  0.2304  1.1622
  530MOL0     H69900   1.467   7.257   4.164  1.4132 -0.3106  0.4512
  530MOL0     H69901   1.294   7.439   4.204 -2.6362  0.8449  0.1211
  530MOL0     H69902   1.273   7.382   4.372 -1.2199 -1.3967 -0.6356
  530MOL0     H69903   1.234   7.220   4.113  0.1359 -0.4474 -0.1378
  530MOL0     H69904   1.208   7.155   4.277 -2.7231  0.6608  1.0469
  530MOL0     H69905   1.048   7.293   4.336  0.5748  1.1547 -0.3515
  530MOL0     H69906   1.002   7.179   4.211  2.5097 -2.2022 -0.9796
  530MOL0     H69907   0.883   7.341   4.104  1.0864 -2.8941 -3.8975
  530MOL0     H69908   1.028   7.362   4.021 -1.4438 -3.7496  0.4028
  530MOL0     H69909   1.084   7.562   4.173  0.0368 -0.7758 -1.5560
  530MOL0     H69910   0.953   7.578   4.066  2.3966  0.3241 -0.7316
  530MOL0     H69911   0.916   7.651   4.294  2.8454 -0.0792 -0.2304
  530MOL0     H69912   0.935   7.486   4.349  2.5493  0.2780 -1.2235
  530MOL0     H69913   0.712   7.324   4.299  1.6660  0.2846  0.7476
  530MOL0     H69914   0.342   7.427   4.177 -2.3160 -3.3513 -0.6804
  530MOL0     H69915   0.423   7.291   4.254 -0.5773 -1.8745 -2.5037
  530MOL0     H69916   0.541   7.282   4.014 -0.2816  2.5332 -1.1547
  530MOL0     H69917   0.402   7.373   3.960 -0.5338 -0.4026  0.0288
  530MOL0     H69918   0.363   7.143   3.900  1.1965 -1.4122 -0.1947
  530MOL0     H69919   0.377   7.090   4.077 -2.1105 -0.7700 -0.7092
  530MOL0     H69920   0.181   7.281   3.950  1.0549 -1.2086 -2.2556
  530MOL0     H69921   0.178   7.226   4.119  1.1657  3.0183  0.2596
  530MOL0     H69922  -0.023   7.230   4.195 -1.6524  1.2029  0.4035
  530MOL0     H69923  -0.237   7.213   4.247  0.0820  0.5027 -0.6169
  530MOL0     H69924  -0.621   6.908   4.245  0.0695  1.8615  0.0561
  530MOL0     H69925  -0.866   6.902   4.267  1.4662  0.2350  1.8493
  530MOL0     H69926  -1.099   6.868   3.912  4.1270  1.5804  0.8819
  530MOL0     H69927  -1.153   7.039   3.951 -0.9377  0.0400 -1.2494
  530MOL0     H69928  -1.304   6.961   4.114 -1.7573 -0.4570  0.4545
  530MOL0     H69929  -1.262   6.798   4.095 -0.1532 -0.7976 -2.7130
  530MOL0     H69930  -1.361   6.796   3.869 -0.1016  1.2305 -1.0989
  530MOL0     H69931  -1.382   6.967   3.864  2.7643 -0.0209  1.2826
  530MOL0     H69932  -1.525   6.779   4.053 -1.0107  1.5186  0.6064
  530MOL0     H69933  -1.529   6.954   4.067 -1.7381 -1.5765  3.3932
  530MOL0     H69934  -1.622   6.785   3.827  0.6797 -0.8021  0.0192
  530MOL0     H69935  -1.627   6.951   3.812  0.3440 -2.1803 -0.9586
  530MOL0     H69936  -1.802   6.967   3.982 -0.4536  1.5044 -3.5733
  530MOL0     H69937  -1.768   6.800   4.045 -0.5432  0.9176  0.7487
  530MOL0     H69938  -1.881   6.860   3.777  1.6075  0.9053  0.5390
  530MOL0     H69939  -1.838   6.698   3.841  4.7904  0.3998  0.9638
  530MOL0     H69940  -2.051   6.853   3.984  1.3775  1.7876 -1.8914
  530MOL0     H69941  -1.990   6.683   4.000 -0.1417 -1.4272 -1.3296
  530MOL0     H69942  -0.912   7.022   3.868  0.8493  1.5600  0.3079
  530MOL0     H69943  -0.656   7.015   3.835  0.3793  0.7739  0.6455
  530MOL0     H69944  -0.288   6.936   3.917 -2.3843  0.8568  0.8475
  530MOL0     H69945  -0.071   6.945   3.878 -1.0344  3.7503 -2.7768
  530MOL0     H69946   1.776   7.549   4.330  0.5284 -0.3581 -0.4196
  530MOL0     H69947   1.902   7.757   4.317  1.5827  0.1485 -0.7014
  530MOL0     H69948   2.017   8.128   4.190  0.0274 -1.6724  0.7895
  530MOL0     H69949   2.181   8.305   4.225  0.6702  0.8005 -1.7508
  530MOL0     H69950   2.610   8.206   4.126  2.4229  1.5141 -0.0238
  530MOL0     H69951   2.611   8.376   4.140 -1.5175 -0.0254 -1.1831
  530MOL0     H69952   2.663   8.294   3.918  0.0285 -2.5031 -0.3221
  530MOL0     H69953   2.499   8.221   3.902  3.6627 -2.3614 -0.4975
  530MOL0     H69954   2.568   8.528   3.915 -2.0218  0.8941  3.2020
  530MOL0     H69955   2.402   8.457   3.921  0.1412 -2.7737  0.6312
  530MOL0     H69956   2.465   8.337   3.688 -1.2889  0.4575  1.1015
  530MOL0     H69957   2.443   8.510   3.681 -1.7950 -1.7911  0.1055
  530MOL0     H69958   2.867   8.468   3.605  0.4829  0.6698  2.4844
  530MOL0     H69959   2.475   8.042   4.044 -1.0122 -1.1355 -0.8670
  530MOL0     H69960   2.324   7.873   4.018  1.7663 -0.6943  1.3136
  531MOL0     O69961   6.045   7.622   7.383  0.0187  0.6735 -0.7467
  531MOL0     C69962   6.090   7.601   7.271 -1.0388 -0.3010  0.3832
  531MOL0     O69963   6.018   7.599   7.152 -0.5947  0.0893  0.1232
  531MOL0     C69964   5.884   7.570   7.138  0.1610 -0.7301 -0.2956
  531MOL0     C69965   5.797   7.495   7.222  0.3473  0.1601  0.3508
  531MOL0     C69966   5.664   7.465   7.195 -0.4572 -0.1930 -0.4121
  531MOL0     C69967   5.606   7.523   7.079  0.7293  0.6161 -0.0399
  531MOL0     O69968   5.475   7.513   7.043  0.2275 -0.3238 -0.3971
  531MOL0     C69969   5.413   7.386   7.084 -0.9064 -0.3071 -0.7009
  531MOL0     C69970   5.285   7.378   7.013  0.2022  0.2629 -0.4023
  531MOL0     C69971   5.173   7.465   7.079  0.5702  0.6229 -0.3218
  531MOL0     C69972   5.032   7.422   7.035  0.2099  0.0607 -0.4972
  531MOL0     C69973   4.916   7.527   7.078  0.2877 -0.7922  0.2320
  531MOL0     C69974   4.778   7.470   7.071 -1.2093  0.7399  0.2507
  531MOL0     C69975   4.667   7.555   7.142  0.2566  0.1425  0.4392
  531MOL0     C69976   4.679   7.701   7.095  0.8689 -0.9380  0.5954
  531MOL0     N69977   4.573   7.784   7.152 -0.3057  0.5216  0.6591
  531MOL0     C69978   4.434   7.793   7.111 -0.8760  0.6657 -0.2507
  531MOL0     C69979   4.376   7.880   7.193 -0.4020 -0.5339 -0.2060
  531MOL0     C69980   4.243   7.938   7.191 -0.3323 -0.8656 -0.1655
  531MOL0     C69981   4.144   7.853   7.262  0.1488 -0.3146 -0.4991
  531MOL0     C69982   4.183   7.824   7.414 -0.2402 -0.2477  0.2978
  531MOL0     C69983   4.074   7.748   7.496  0.6611  0.0728 -0.5905
  531MOL0     O69984   3.964   7.832   7.520  0.3731 -0.4221  0.3280
  531MOL0     C69985   3.855   7.769   7.572  0.5821  0.1680 -0.3438
  531MOL0     C69986   3.751   7.851   7.600  0.1795 -0.1828 -0.1026
  531MOL0     C69987   3.622   7.803   7.635  0.3743  0.5570  1.0396
  531MOL0     C69988   3.602   7.668   7.660  0.4082 -0.0882  0.4181
  531MOL0     C69989   3.472   7.601   7.707 -0.2726 -0.3330  0.1434
  531MOL0     O69990   3.361   7.676   7.714 -0.5296  0.0964  0.1845
  531MOL0     C69991   3.233   7.649   7.769 -1.0756  0.5678  0.5727
  531MOL0     C69992   3.151   7.752   7.791 -0.3992 -0.5501 -0.7321
  531MOL0     C69993   3.028   7.737   7.859 -0.8328 -0.4857 -0.6459
  531MOL0     C69994   2.984   7.609   7.898 -0.3606  0.0636 -0.3792
  531MOL0     O69995   2.866   7.588   7.971  0.5306  0.0625  0.4609
  531MOL0     C69996   2.754   7.552   7.890 -0.5083 -0.4174 -0.3564
  531MOL0     C69997   2.645   7.511   7.988  0.6524  0.8316 -0.2221
  531MOL0     C69998   2.505   7.503   7.928 -0.8605 -0.6533  0.8728
  531MOL0     C69999   2.404   7.472   8.040 -0.1515  0.7248 -0.3488
  531MOL0     C70000   2.281   7.401   7.988  0.1017  1.0075 -0.9116
  531MOL0     C70001   2.214   7.479   7.882 -0.2041  0.9179 -0.5714
  531MOL0     C70002   2.110   7.383   7.807 -0.6612  1.1500  1.1421
  531MOL0     C70003   2.052   7.440   7.687  0.0403 -0.5868  0.9018
  531MOL0    Cl70004   1.950   7.306   7.609  0.3495 -0.2862  0.0636
  531MOL0     C70005   3.074   7.505   7.870  0.5008 -0.0913  0.7115
  531MOL0     C70006   3.194   7.523   7.799  0.7953 -0.1726  0.1859
  531MOL0     O70007   3.474   7.481   7.753 -0.4659 -0.4718  0.4403
  531MOL0     C70008   3.714   7.584   7.641  0.1186  0.1071  0.3463
  531MOL0     C70009   3.840   7.634   7.602  0.7643  0.4658 -0.0561
  531MOL0     N70010   4.471   7.911   7.291  0.3787 -0.2857  0.4057
  531MOL0     N70011   4.579   7.850   7.261  0.0858  0.4159 -0.4994
  531MOL0     C70012   5.688   7.607   6.994  0.6237 -1.0483 -0.5317
  531MOL0     C70013   5.826   7.625   7.026 -0.0164 -0.7752 -0.2587
  531MOL0     C70014   6.241   7.604   7.248  0.7109 -0.3383  0.5313
  531MOL0     C70015   6.321   7.602   7.362 -0.1658 -0.1372 -0.2629
  531MOL0     C70016   6.459   7.602   7.350 -0.2514 -0.6656  0.3090
  531MOL0     C70017   6.520   7.619   7.227  0.0646  0.3807  0.0819
  531MOL0     O70018   6.659   7.626   7.221  0.6319 -0.6585 -0.0033
  531MOL0     C70019   6.729   7.703   7.125  0.0326  0.7778 -0.0907
  531MOL0     C70020   6.691   7.854   7.135  0.4889  0.2228 -0.1693
  531MOL0     C70021   6.724   7.919   6.996  0.3212 -0.1231 -0.1163
  531MOL0     C70022   6.607   7.921   6.891  0.0634 -0.0704  0.5243
  531MOL0     C70023   6.614   8.013   6.778 -0.5662  0.0203 -0.0237
  531MOL0     C70024   6.614   8.084   6.686 -0.4326  0.1984 -0.0108
  531MOL0     C70025   6.441   7.621   7.107  0.2941  0.1454 -0.4196
  531MOL0     C70026   6.299   7.607   7.119 -0.0780 -0.7433 -0.1485
  531MOL0     H70027   5.835   7.454   7.316 -0.0237  0.6757  0.7349
  531MOL0     H70028   5.601   7.407   7.262  0.0372  0.8524  0.9986
  531MOL0     H70029   5.388   7.378   7.190 -0.5113 -0.7954 -0.6378
  531MOL0     H70030   5.472   7.298   7.055 -0.0364  0.0490 -0.0468
  531MOL0     H70031   5.245   7.276   7.003 -0.0349  0.3915 -0.8145
  531MOL0     H70032   5.296   7.417   6.911  2.9175  1.8187  0.4141
  531MOL0     H70033   5.186   7.571   7.055  0.7126  1.0025  1.3198
  531MOL0     H70034   5.177   7.447   7.187  0.7285 -0.1084 -0.4466
  531MOL0     H70035   5.033   7.405   6.927  0.1884 -0.7275 -0.3745
  531MOL0     H70036   5.006   7.327   7.082  1.1396 -0.8763 -1.8002
  531MOL0     H70037   4.934   7.619   7.020  2.7437 -0.3487  1.5655
  531MOL0     H70038   4.935   7.557   7.181 -0.8325 -1.9569  0.8031
  531MOL0     H70039   4.762   7.369   7.111  0.8011  0.5799  0.7623
  531MOL0     H70040   4.756   7.472   6.963  1.3616  1.9294 -0.3349
  531MOL0     H70041   4.570   7.507   7.123  1.4435 -2.2265  0.0407
  531MOL0     H70042   4.691   7.540   7.248  0.6980 -0.7459  0.2250
  531MOL0     H70043   4.678   7.706   6.986  0.1680  0.4549  0.6347
  531MOL0     H70044   4.779   7.739   7.119  0.8874  0.6973 -1.6662
  531MOL0     H70045   4.378   7.744   7.031 -3.1288 -0.3965  1.8232
  531MOL0     H70046   4.225   7.970   7.088 -0.5907  2.8045  0.8552
  531MOL0     H70047   4.252   8.027   7.255  0.1660 -0.0447 -1.3488
  531MOL0     H70048   4.124   7.762   7.205  0.3468  0.3210 -1.6265
  531MOL0     H70049   4.053   7.914   7.255 -0.7613 -1.5964 -0.1424
  531MOL0     H70050   4.280   7.774   7.408  0.1450  0.4836  0.4265
  531MOL0     H70051   4.216   7.918   7.458  0.2038 -0.2143 -0.1024
  531MOL0     H70052   4.115   7.715   7.592 -1.4845  1.6118  0.9408
  531MOL0     H70053   4.056   7.663   7.429 -0.6947  0.3614 -0.6189
  531MOL0     H70054   3.769   7.957   7.586 -0.0174 -0.0537  0.5744
  531MOL0     H70055   3.529   7.854   7.658 -1.8695 -3.1048  0.8918
  531MOL0     H70056   3.180   7.853   7.765 -1.0519 -0.2677 -0.3846
  531MOL0     H70057   2.960   7.814   7.893  0.9577  0.6293  0.5805
  531MOL0     H70058   2.776   7.474   7.817  0.0976  0.7632 -1.4782
  531MOL0     H70059   2.719   7.637   7.830 -0.2013 -0.3359 -0.4213
  531MOL0     H70060   2.644   7.587   8.067  1.6229 -0.7662  1.3899
  531MOL0     H70061   2.662   7.413   8.032 -2.3250 -0.2105 -1.1815
  531MOL0     H70062   2.502   7.425   7.851  1.2632 -1.4272  1.5059
  531MOL0     H70063   2.490   7.601   7.882  0.4598  0.0207  1.7817
  531MOL0     H70064   2.452   7.411   8.117 -1.8403 -0.1889  0.0324
  531MOL0     H70065   2.384   7.565   8.092  1.9219 -0.4133  2.7182
  531MOL0     H70066   2.212   7.392   8.072 -0.1084 -0.2291 -1.2046
  531MOL0     H70067   2.307   7.301   7.953 -2.2824  1.0923 -3.2324
  531MOL0     H70068   2.277   7.530   7.809 -0.0490  0.8138 -0.5107
  531MOL0     H70069   2.155   7.562   7.921 -0.2711 -0.7163  3.1934
  531MOL0     H70070   2.169   7.298   7.771  1.9743  2.6437  1.6400
  531MOL0     H70071   2.040   7.345   7.882 -0.0080 -5.2007 -0.8695
  531MOL0     H70072   2.130   7.481   7.622 -1.5608  0.1293 -0.6552
  531MOL0     H70073   1.987   7.525   7.710 -0.9267 -0.3329 -2.2264
  531MOL0     H70074   3.056   7.409   7.918 -0.5158 -0.4709 -0.3648
  531MOL0     H70075   3.252   7.435   7.773  2.3140  1.2473 -1.4533
  531MOL0     H70076   3.705   7.479   7.670  1.1250  0.3811  1.7373
  531MOL0     H70077   3.924   7.566   7.599  0.7336  0.4107  0.2929
  531MOL0     H70078   5.642   7.671   6.919 -1.2391 -2.4623 -0.6849
  531MOL0     H70079   5.891   7.698   6.979 -0.4045  0.7500  1.4581
  531MOL0     H70080   6.281   7.580   7.461 -0.5803 -0.3566 -0.4809
  531MOL0     H70081   6.521   7.599   7.439  2.2646 -0.2585 -1.2950
  531MOL0     H70082   6.723   7.660   7.024  4.0987  1.5939 -0.8375
  531MOL0     H70083   6.835   7.683   7.139 -0.5303 -3.6070 -0.5965
  531MOL0     H70084   6.587   7.866   7.165  1.2567  1.7035  2.2118
  531MOL0     H70085   6.747   7.902   7.216 -1.5763  0.8413  0.9488
  531MOL0     H70086   6.809   7.877   6.941 -0.5480 -1.4096 -0.5115
  531MOL0     H70087   6.756   8.021   7.018  1.2116 -0.7127  1.5673
  531MOL0     H70088   6.601   7.816   6.858  1.1945  0.2329 -0.7144
  531MOL0     H70089   6.510   7.956   6.929 -0.3570 -1.6687  1.0054
  531MOL0     H70090   6.621   8.163   6.614  1.9997 -0.4395 -0.5458
  531MOL0     H70091   6.493   7.639   7.013  2.3216 -0.2293  0.5798
  531MOL0     H70092   6.256   7.622   7.021  5.6198 -0.6288 -3.0246
  532MOL0     O70093   7.118   9.168  10.115  0.1556 -0.5221 -0.9105
  532MOL0     C70094   7.030   9.118  10.188  1.1257 -0.0585  0.0785
  532MOL0     O70095   7.042   9.025  10.279 -0.2331  0.6026  0.9283
  532MOL0     C70096   7.164   8.966  10.290  0.3997 -0.1821 -0.3776
  532MOL0     C70097   7.281   9.034  10.316  0.5624 -0.3460 -0.7443
  532MOL0     C70098   7.400   8.960  10.339  0.7294  0.2853 -0.3012
  532MOL0     C70099   7.406   8.824  10.352  0.4650  0.9683  0.3355
  532MOL0     O70100   7.529   8.765  10.394  1.0358  0.0971  0.1118
  532MOL0     C70101   7.524   8.669  10.500  0.3329  0.3237 -0.1101
  532MOL0     C70102   7.660   8.628  10.537 -0.7133 -0.4292 -0.5060
  532MOL0     C70103   7.739   8.552  10.421  0.5233  0.1260 -0.4673
  532MOL0     C70104   7.848   8.462  10.480 -0.7805 -0.3748  0.9269
  532MOL0     C70105   7.929   8.385  10.374  0.1532 -0.6624 -0.4097
  532MOL0     C70106   7.839   8.281  10.307 -0.0921 -0.0640 -0.5590
  532MOL0     C70107   7.907   8.156  10.253  0.1431 -0.1484 -0.5233
  532MOL0     C70108   7.953   8.159  10.102 -0.1243 -0.8712 -0.1410
  532MOL0     N70109   7.851   8.137   9.998 -0.5302 -0.3480  0.2995
  532MOL0     C70110   7.795   8.016   9.966 -0.2353  0.0339 -0.2943
  532MOL0     C70111   7.713   8.047   9.864 -0.1093  0.6280 -0.1729
  532MOL0     C70112   7.623   7.957   9.786 -0.9275 -0.1198  1.1746
  532MOL0     C70113   7.599   7.999   9.646  0.3711 -1.1985  0.0390
  532MOL0     C70114   7.552   7.889   9.552 -0.3997 -0.1271 -0.9601
  532MOL0     C70115   7.412   7.834   9.590 -0.0151 -0.2981  0.7340
  532MOL0     O70116   7.341   7.833   9.471  0.2521 -0.2849 -0.5811
  532MOL0     C70117   7.244   7.732   9.460  0.3400 -0.2697  0.7663
  532MOL0     C70118   7.200   7.732   9.334  0.2454 -0.4659  0.5362
  532MOL0     C70119   7.116   7.631   9.290  0.1562 -0.3822 -0.3191
  532MOL0     C70120   7.064   7.527   9.375 -0.0388  0.9299  0.9047
  532MOL0     C70121   6.964   7.425   9.337  0.5736 -0.2196  0.3571
  532MOL0     O70122   6.862   7.473   9.262 -0.3908 -0.4250  0.8022
  532MOL0     C70123   6.755   7.392   9.218  0.6252 -0.4234 -0.0190
  532MOL0     C70124   6.671   7.444   9.125  0.2788  0.5512  0.9246
  532MOL0     C70125   6.575   7.370   9.063  0.0470  0.1597 -0.3423
  532MOL0     C70126   6.557   7.235   9.082  0.6698  0.4111  0.6682
  532MOL0     O70127   6.463   7.157   9.018  0.4109 -0.0754  0.5431
  532MOL0     C70128   6.334   7.210   9.002 -0.5666 -0.0201  0.8305
  532MOL0     C70129   6.251   7.101   8.941 -0.8300  0.3701  0.0008
  532MOL0     C70130   6.115   7.150   8.891 -1.0473 -0.4445  0.5441
  532MOL0     C70131   6.039   7.226   9.000 -0.1077 -0.7116  0.1626
  532MOL0     C70132   5.892   7.233   8.975  0.2142  0.7050  0.3606
  532MOL0     C70133   5.825   7.104   8.972  0.5911  0.4679 -0.7266
  532MOL0     C70134   5.674   7.125   8.969 -0.1926  0.0096  0.4363
  532MOL0     C70135   5.603   6.986   8.945 -0.0965 -0.5713 -0.7295
  532MOL0    Cl70136   5.435   7.028   8.908  0.4586  0.1113 -0.1243
  532MOL0     C70137   6.644   7.174   9.174  0.0227  0.3365  0.3598
  532MOL0     C70138   6.738   7.248   9.249 -0.0716 -0.8189  0.8015
  532MOL0     O70139   6.976   7.315   9.377 -0.6316 -0.3782 -0.5612
  532MOL0     C70140   7.110   7.540   9.512  1.3935 -0.1338 -0.0139
  532MOL0     C70141   7.203   7.634   9.554  0.3929  0.3175  0.3414
  532MOL0     N70142   7.725   8.183   9.839 -0.3550 -0.2795 -0.3705
  532MOL0     N70143   7.802   8.244   9.927 -0.4477  1.0581  0.5072
  532MOL0     C70144   7.292   8.755  10.325 -0.1955  0.1209  0.7998
  532MOL0     C70145   7.173   8.821  10.291 -0.9767 -0.1890  0.6666
  532MOL0     C70146   6.895   9.168  10.158 -1.0889 -0.5930 -0.1346
  532MOL0     C70147   6.791   9.151  10.247 -1.1841  0.2010  1.0366
  532MOL0     C70148   6.675   9.223  10.233 -0.1553 -0.4296 -0.5634
  532MOL0     C70149   6.644   9.302  10.127  0.4783  0.7335 -0.6162
  532MOL0     O70150   6.531   9.363  10.094  0.0473 -0.1107 -0.1065
  532MOL0     C70151   6.419   9.353  10.190 -0.3325 -0.3235  0.3421
  532MOL0     C70152   6.283   9.398  10.133  0.2279 -0.2858  0.2014
  532MOL0     C70153   6.188   9.442  10.252 -0.1275  0.1856 -0.0447
  532MOL0     C70154   6.055   9.497  10.206 -1.0088 -0.6463  0.3526
  532MOL0     C70155   6.081   9.631  10.148 -0.3038  0.9908 -0.4211
  532MOL0     C70156   6.103   9.726  10.082 -0.5821  1.5961  0.6746
  532MOL0     C70157   6.745   9.318  10.033 -0.3313  0.2922 -0.3262
  532MOL0     C70158   6.869   9.254  10.042 -0.5215  0.5479  0.1621
  532MOL0     H70159   7.281   9.142  10.324 -3.5259 -0.2675  0.6682
  532MOL0     H70160   7.492   9.010  10.365 -0.0573  2.5508 -1.6246
  532MOL0     H70161   7.464   8.586  10.462 -0.0903  1.2712 -1.5914
  532MOL0     H70162   7.482   8.716  10.589  2.7200  1.0455  0.7197
  532MOL0     H70163   7.651   8.575  10.632 -1.8894 -0.0165 -0.3752
  532MOL0     H70164   7.721   8.716  10.558  1.8089 -1.2916 -3.4903
  532MOL0     H70165   7.785   8.616  10.345  0.7357 -1.2184 -1.5105
  532MOL0     H70166   7.675   8.486  10.361  1.3942 -1.8542  0.6930
  532MOL0     H70167   7.921   8.533  10.522 -0.6124  0.1876 -0.2766
  532MOL0     H70168   7.822   8.392  10.559 -0.1024 -0.6082  0.9545
  532MOL0     H70169   8.010   8.334  10.427  0.0634 -0.1506  0.2258
  532MOL0     H70170   7.958   8.451  10.293 -0.9241 -0.2570 -0.4829
  532MOL0     H70171   7.784   8.324  10.222  1.2381  2.2720 -0.3320
  532MOL0     H70172   7.769   8.245  10.382 -0.9664 -0.9581 -1.7627
  532MOL0     H70173   7.987   8.130  10.322 -0.1440 -1.2214 -0.5776
  532MOL0     H70174   7.834   8.075  10.261 -1.6947  1.6235  4.5515
  532MOL0     H70175   8.035   8.087  10.087  0.3821 -0.9741  2.5709
  532MOL0     H70176   7.991   8.258  10.078 -1.5428 -1.0764 -3.7903
  532MOL0     H70177   7.829   7.932  10.025 -1.5488 -0.2852  0.0392
  532MOL0     H70178   7.535   7.953   9.850 -0.4112 -2.0411  1.8503
  532MOL0     H70179   7.672   7.860   9.775 -0.0804  0.5987 -4.8279
  532MOL0     H70180   7.682   8.054   9.599 -1.8677  2.8865  0.4504
  532MOL0     H70181   7.525   8.078   9.655  0.1022 -1.2602 -1.3589
  532MOL0     H70182   7.543   7.935   9.453 -1.8711  1.0157 -0.3407
  532MOL0     H70183   7.637   7.821   9.556 -2.4549 -2.8411  1.3433
  532MOL0     H70184   7.358   7.907   9.652  0.0558  2.6319 -2.3866
  532MOL0     H70185   7.439   7.745   9.648  2.7042 -1.0223 -1.4341
  532MOL0     H70186   7.227   7.810   9.263 -2.3212  1.2113  1.2276
  532MOL0     H70187   7.083   7.632   9.187  1.4397 -3.4988 -0.8938
  532MOL0     H70188   6.688   7.546   9.091 -4.2940  0.7604 -1.4902
  532MOL0     H70189   6.518   7.424   8.988 -0.8670  0.8699  0.8244
  532MOL0     H70190   6.339   7.288   8.926  0.0753 -1.7419 -0.9836
  532MOL0     H70191   6.297   7.252   9.096  2.2846  2.1744  1.1161
  532MOL0     H70192   6.224   7.024   9.014  0.6102  0.0136  0.1876
  532MOL0     H70193   6.302   7.068   8.850  0.0146  0.0899  0.5570
  532MOL0     H70194   6.074   7.057   8.850 -0.8064  0.1959 -1.1928
  532MOL0     H70195   6.133   7.210   8.802  1.8582 -2.4254 -0.3621
  532MOL0     H70196   6.047   7.168   9.093 -1.1517 -0.6758  0.2843
  532MOL0     H70197   6.087   7.323   9.015 -0.7350 -0.4841  0.7383
  532MOL0     H70198   5.883   7.282   8.877  1.4279 -1.3553 -0.8517
  532MOL0     H70199   5.852   7.299   9.053  2.5447  0.9780  1.4220
  532MOL0     H70200   5.852   7.053   9.065  3.4313  2.8399 -0.1052
  532MOL0     H70201   5.856   7.047   8.884 -1.5534 -0.6597 -0.8292
  532MOL0     H70202   5.645   7.168   9.066  3.0798  1.1735  1.0137
  532MOL0     H70203   5.643   7.198   8.893 -0.4987  2.2588  2.5864
  532MOL0     H70204   5.621   6.932   9.039  1.7996  1.4302  0.1379
  532MOL0     H70205   5.649   6.933   8.862  2.7852  0.1436  0.3017
  532MOL0     H70206   6.632   7.067   9.187 -2.1496  0.4387 -0.2929
  532MOL0     H70207   6.802   7.188   9.313  2.3548  1.6517  0.8942
  532MOL0     H70208   7.067   7.479   9.590 -0.2001  0.6281 -0.2525
  532MOL0     H70209   7.248   7.634   9.653  1.1342 -0.4654  0.0153
  532MOL0     H70210   7.307   8.647  10.330  2.1048  0.2352 -1.4896
  532MOL0     H70211   7.086   8.761  10.266 -3.0410  2.4899  0.8953
  532MOL0     H70212   6.790   9.085  10.333 -0.7343  0.1153  0.9765
  532MOL0     H70213   6.597   9.201  10.305  1.7167 -0.8028  1.4629
  532MOL0     H70214   6.452   9.411  10.277  2.2673 -3.7722  1.9117
  532MOL0     H70215   6.418   9.255  10.240  2.0047 -1.3977 -1.5287
  532MOL0     H70216   6.295   9.479  10.061 -0.6651  0.9842  1.4175
  532MOL0     H70217   6.236   9.319  10.075 -1.2251  1.8326 -1.6777
  532MOL0     H70218   6.242   9.518  10.310 -0.3022  1.2540 -1.2343
  532MOL0     H70219   6.171   9.359  10.322 -1.8516 -0.9495 -1.7231
  532MOL0     H70220   5.995   9.425  10.150  0.0637 -1.4500  0.2060
  532MOL0     H70221   5.995   9.512  10.297  0.6626 -0.3269  1.4426
  532MOL0     H70222   6.151   9.803  10.025  1.9405 -1.1977 -1.2870
  532MOL0     H70223   6.741   9.384   9.947  0.4075 -0.7440 -1.1772
  532MOL0     H70224   6.945   9.272   9.967 -0.9612 -1.3546 -0.8000
  533MOL0     O70225   4.538   7.247   2.211  0.8505  0.0382 -0.2493
  533MOL0     C70226   4.638   7.208   2.268 -0.0260  0.3924 -0.7099
  533MOL0     O70227   4.725   7.113   2.208  0.1572  0.3949 -0.7273
  533MOL0     C70228   4.701   7.070   2.081 -0.5367  0.0649  0.1401
  533MOL0     C70229   4.740   7.150   1.969 -0.0661  0.8331 -0.7855
  533MOL0     C70230   4.718   7.115   1.842  0.4039 -0.0916  0.7671
  533MOL0     C70231   4.668   6.988   1.816 -0.3068 -0.9552 -0.0342
  533MOL0     O70232   4.656   6.949   1.691  0.4074  0.3456 -0.2489
  533MOL0     C70233   4.756   6.999   1.592  0.0504  0.5234 -0.1452
  533MOL0     C70234   4.728   6.954   1.452  0.2349 -0.0835  0.5596
  533MOL0     C70235   4.579   6.971   1.417 -0.6801  0.8773 -0.1637
  533MOL0     C70236   4.550   6.912   1.269  0.6494  0.5165  0.3751
  533MOL0     C70237   4.415   6.964   1.215  0.0437  0.9414  0.6445
  533MOL0     C70238   4.338   6.868   1.122  0.0936 -0.0620  0.2910
  533MOL0     C70239   4.211   6.948   1.072  0.3414  0.0632 -0.6730
  533MOL0     C70240   4.107   6.967   1.187 -0.0106  0.0908  0.8644
  533MOL0     N70241   3.976   7.022   1.135 -0.5296  0.2131 -0.1144
  533MOL0     C70242   3.864   6.941   1.112 -0.0673  0.0242  0.2964
  533MOL0     C70243   3.761   7.022   1.119 -1.0317  0.7299 -0.2847
  533MOL0     C70244   3.618   6.976   1.097  0.3848 -0.9983 -0.0154
  533MOL0     C70245   3.574   6.883   1.204 -0.3430 -0.1084  0.0750
  533MOL0     C70246   3.551   6.957   1.338  0.0226  0.4068  0.4335
  533MOL0     C70247   3.505   6.862   1.440  0.4134  0.2459 -0.5451
  533MOL0     O70248   3.404   6.926   1.523  0.1831  1.0575 -0.1126
  533MOL0     C70249   3.269   6.905   1.506 -0.9554  0.1703  0.1093
  533MOL0     C70250   3.218   6.849   1.388  0.4302 -0.2230  0.1307
  533MOL0     C70251   3.083   6.821   1.376  0.6414 -0.4466 -0.4469
  533MOL0     C70252   2.988   6.880   1.466 -0.3727 -0.1134 -0.1922
  533MOL0     C70253   2.839   6.854   1.455  0.1328 -0.4355  0.6432
  533MOL0     O70254   2.758   6.915   1.544 -0.7072 -0.4888 -0.0597
  533MOL0     C70255   2.625   6.877   1.537 -0.1765 -0.5609 -0.2334
  533MOL0     C70256   2.591   6.748   1.564 -0.1423 -0.1129  0.6460
  533MOL0     C70257   2.453   6.694   1.554 -0.4478  0.4684 -0.5191
  533MOL0     C70258   2.354   6.784   1.514 -0.1694  0.0537 -1.2640
  533MOL0     O70259   2.217   6.757   1.524 -0.2961  0.7275  0.1700
  533MOL0     C70260   2.167   6.626   1.547  0.5804  0.0705  0.4611
  533MOL0     C70261   2.021   6.629   1.530  0.3491  0.3891  0.2551
  533MOL0     C70262   1.952   6.726   1.626  0.8918  0.0412 -0.1352
  533MOL0     C70263   1.804   6.755   1.589 -0.1045  0.1180  0.0707
  533MOL0     C70264   1.751   6.877   1.680 -0.9211 -0.3041  0.6556
  533MOL0     C70265   1.624   6.928   1.616  0.1208  0.1704 -0.0133
  533MOL0     C70266   1.575   7.057   1.684  0.3223 -0.0008 -0.1418
  533MOL0     C70267   1.466   7.044   1.792 -0.8657 -1.0018 -0.6149
  533MOL0    Cl70268   1.315   6.979   1.736 -0.1280  0.4411 -0.0968
  533MOL0     C70269   2.391   6.914   1.474 -0.5922  0.4311  0.1992
  533MOL0     C70270   2.524   6.968   1.487  0.0872  0.4375 -0.1978
  533MOL0     O70271   2.807   6.769   1.375  0.6264 -0.8349  0.0845
  533MOL0     C70272   3.039   6.944   1.576  0.5893 -0.7682  0.3601
  533MOL0     C70273   3.176   6.962   1.590  0.0578  0.5461 -0.5851
  533MOL0     N70274   3.807   7.152   1.138 -0.5199 -0.7790 -0.5393
  533MOL0     N70275   3.935   7.151   1.146 -0.6434  0.2719 -0.1747
  533MOL0     C70276   4.639   6.896   1.917 -0.9659  0.0297 -0.1850
  533MOL0     C70277   4.662   6.938   2.049  0.0504  0.3111 -0.1321
  533MOL0     C70278   4.676   7.230   2.407  0.4916 -0.6301  0.7241
  533MOL0     C70279   4.747   7.132   2.481 -0.5953 -0.7431 -0.1215
  533MOL0     C70280   4.786   7.163   2.611  0.0254 -0.4680  0.6466
  533MOL0     C70281   4.761   7.296   2.666  0.0385  0.3238  0.3845
  533MOL0     O70282   4.788   7.326   2.799  0.3928 -0.6125 -0.2257
  533MOL0     C70283   4.855   7.232   2.882 -0.3549 -0.4137  0.3965
  533MOL0     C70284   4.924   7.311   3.002 -0.4508 -0.4864  0.6079
  533MOL0     C70285   5.017   7.209   3.071  0.3687  0.8850 -0.1022
  533MOL0     C70286   4.945   7.099   3.140  0.1795  0.2939  0.0664
  533MOL0     C70287   5.041   6.999   3.184  0.8692  0.2688  0.5706
  533MOL0     C70288   5.120   6.916   3.232 -0.9208 -0.4874 -0.2571
  533MOL0     C70289   4.688   7.390   2.588 -0.3050 -0.2679 -1.3429
  533MOL0     C70290   4.636   7.353   2.460  0.1498  0.3007 -1.2506
  533MOL0     H70291   4.773   7.248   2.001 -0.3839  1.0472 -1.1236
  533MOL0     H70292   4.742   7.198   1.776  1.5268 -2.9264 -2.7209
  533MOL0     H70293   4.859   6.971   1.617 -0.3984  0.2646  1.4780
  533MOL0     H70294   4.746   7.108   1.593 -0.2744  0.5309 -1.5988
  533MOL0     H70295   4.758   6.850   1.434  0.9887  0.4557 -1.7682
  533MOL0     H70296   4.793   7.008   1.382  0.0118 -1.1091 -0.4720
  533MOL0     H70297   4.560   7.078   1.413  1.8447  1.4628  1.6470
  533MOL0     H70298   4.513   6.921   1.488  0.5166 -1.1241 -0.3744
  533MOL0     H70299   4.622   6.941   1.192  2.3415 -2.9115  0.4507
  533MOL0     H70300   4.544   6.804   1.287  1.2387  0.5982  1.1241
  533MOL0     H70301   4.413   7.064   1.172 -0.8971 -0.1418 -2.0390
  533MOL0     H70302   4.357   6.962   1.308 -0.3940  0.3263  0.3686
  533MOL0     H70303   4.322   6.781   1.186 -2.0502 -1.7373 -2.3026
  533MOL0     H70304   4.396   6.844   1.032  3.1886  1.0678  1.8326
  533MOL0     H70305   4.232   7.051   1.042 -1.7340  0.9425  0.6667
  533MOL0     H70306   4.164   6.891   0.991 -2.1124  1.2179 -0.1540
  533MOL0     H70307   4.150   7.026   1.269 -0.0659 -0.5916  1.3937
  533MOL0     H70308   4.095   6.866   1.228 -0.1701 -0.3245 -0.1633
  533MOL0     H70309   3.852   6.833   1.104 -2.6140 -0.1065  3.5395
  533MOL0     H70310   3.598   6.943   0.994 -2.0559 -0.2727  0.1769
  533MOL0     H70311   3.557   7.066   1.106  1.6333 -0.1414  0.2008
  533MOL0     H70312   3.649   6.805   1.222  0.7185  0.7275 -0.5972
  533MOL0     H70313   3.485   6.828   1.172 -0.4638 -1.1384  2.0448
  533MOL0     H70314   3.647   6.990   1.378  0.0484 -1.2817  1.9081
  533MOL0     H70315   3.486   7.044   1.325  1.9504  1.5314 -2.9339
  533MOL0     H70316   3.596   6.825   1.489 -0.8257  0.8016  2.3944
  533MOL0     H70317   3.462   6.774   1.392  0.9622  1.0367 -2.5856
  533MOL0     H70318   3.276   6.818   1.302  0.3155 -0.9656  0.3189
  533MOL0     H70319   3.050   6.775   1.283 -1.6237  0.3882 -0.1216
  533MOL0     H70320   2.667   6.676   1.595 -1.6597 -1.0747  2.3724
  533MOL0     H70321   2.425   6.594   1.584 -0.2375  0.5070 -0.1892
  533MOL0     H70322   2.194   6.578   1.642 -0.0075 -0.2594  0.4722
  533MOL0     H70323   2.203   6.557   1.471 -2.9001 -0.8094 -0.5877
  533MOL0     H70324   1.972   6.532   1.539  0.4929  0.1290 -1.5769
  533MOL0     H70325   2.005   6.657   1.426 -0.0749  1.2790  0.5382
  533MOL0     H70326   2.010   6.818   1.633  0.2406  0.3997  0.6794
  533MOL0     H70327   1.951   6.681   1.726 -0.3172  1.5246  0.5645
  533MOL0     H70328   1.806   6.791   1.486  2.5859 -0.6917 -0.2390
  533MOL0     H70329   1.737   6.669   1.601 -0.2657  0.1019 -0.8613
  533MOL0     H70330   1.814   6.966   1.674  0.3557 -1.1940  0.0884
  533MOL0     H70331   1.739   6.857   1.787  3.2636  2.7327  1.9861
  533MOL0     H70332   1.542   6.858   1.633  0.1826 -0.1127 -0.8105
  533MOL0     H70333   1.645   6.951   1.511 -0.6018  1.7536  0.1728
  533MOL0     H70334   1.656   7.097   1.745 -0.4247 -1.4723  1.9356
  533MOL0     H70335   1.539   7.124   1.605  1.0943  0.7872  0.1618
  533MOL0     H70336   1.455   7.149   1.820  1.2683 -0.3286 -2.0561
  533MOL0     H70337   1.511   6.985   1.873  0.6849 -2.1475 -2.2360
  533MOL0     H70338   2.310   6.982   1.452  0.7469  3.0996  2.8803
  533MOL0     H70339   2.542   7.073   1.468 -4.3867  1.5218  0.4176
  533MOL0     H70340   2.981   6.996   1.652  1.2792  1.6280 -0.6505
  533MOL0     H70341   3.209   7.010   1.681 -1.6206 -0.4440  0.6098
  533MOL0     H70342   4.603   6.795   1.901  2.6727 -2.1560  3.5708
  533MOL0     H70343   4.645   6.874   2.135  0.9704  1.8403  1.2375
  533MOL0     H70344   4.746   7.028   2.449 -0.8762  0.6176 -5.3307
  533MOL0     H70345   4.829   7.083   2.671  0.3488  0.6475  1.9500
  533MOL0     H70346   4.934   7.181   2.825  1.4397  1.6950  0.8517
  533MOL0     H70347   4.783   7.156   2.913  0.0522 -0.6182  0.8432
  533MOL0     H70348   4.967   7.400   2.954  0.3346 -2.2298 -2.1367
  533MOL0     H70349   4.848   7.338   3.076 -0.5457 -2.2202  1.1828
  533MOL0     H70350   5.069   7.261   3.152 -1.5965  0.3745  1.5639
  533MOL0     H70351   5.096   7.167   3.008  2.4009  2.1824  1.4804
  533MOL0     H70352   4.887   7.135   3.225 -0.2000  0.0356 -0.0772
  533MOL0     H70353   4.866   7.056   3.076 -1.9122  0.6466  2.2578
  533MOL0     H70354   5.194   6.849   3.270 -0.4789 -0.4000 -0.9335
  533MOL0     H70355   4.672   7.487   2.634  3.2744 -0.2388  0.1556
  533MOL0     H70356   4.575   7.424   2.405 -0.1954 -0.3168 -1.6793
  534MOL0     O70357   6.220   1.100   0.676 -0.5824  0.9426 -0.4817
  534MOL0     C70358   6.181   1.070   0.565  0.3889  0.5787  0.1485
  534MOL0     O70359   6.257   1.069   0.449  0.1059 -0.3747 -0.3840
  534MOL0     C70360   6.387   1.112   0.449 -0.0523 -0.7848 -0.2890
  534MOL0     C70361   6.436   1.216   0.529  0.3701 -0.3678 -0.7042
  534MOL0     C70362   6.568   1.257   0.531 -0.6221  0.3154  0.1179
  534MOL0     C70363   6.656   1.193   0.441  0.3175  0.2344 -0.3821
  534MOL0     O70364   6.787   1.229   0.434  0.1257 -0.0771 -0.2093
  534MOL0     C70365   6.830   1.349   0.504 -0.3562  0.4936 -1.1812
  534MOL0     C70366   6.981   1.361   0.486 -0.7108 -0.2660 -0.8166
  534MOL0     C70367   7.030   1.369   0.336  0.1965 -0.1189 -0.2267
  534MOL0     C70368   7.176   1.330   0.325 -0.0766 -0.0285  0.0589
  534MOL0     C70369   7.269   1.432   0.369  0.4842 -0.6986 -0.3476
  534MOL0     C70370   7.411   1.381   0.345 -0.4502 -0.2232  0.2306
  534MOL0     C70371   7.522   1.490   0.361 -0.1246  0.0413 -0.4188
  534MOL0     C70372   7.668   1.452   0.321  0.4710  0.0438 -0.0696
  534MOL0     N70373   7.673   1.394   0.189 -0.3000 -0.0117  0.0485
  534MOL0     C70374   7.635   1.263   0.144  0.0278 -0.2534 -1.1723
  534MOL0     C70375   7.631   1.273   0.012 -0.1927  0.1899  0.0948
  534MOL0     C70376   7.598   1.161  -0.085 -1.0491 -0.2996  0.1590
  534MOL0     C70377   7.454   1.118  -0.065  0.9753  0.2863 -0.3309
  534MOL0     C70378   7.399   1.047  -0.193  0.4345 -0.3686 -0.2438
  534MOL0     C70379   7.244   1.026  -0.202 -0.5615 -0.4485  0.3892
  534MOL0     O70380   7.201   1.013  -0.335 -0.3355 -0.1782 -0.0982
  534MOL0     C70381   7.076   0.964  -0.362  0.6900 -0.9125  0.4715
  534MOL0     C70382   7.039   0.940  -0.499  0.6570  0.3894  0.0093
  534MOL0     C70383   6.905   0.900  -0.538 -0.8134 -0.6219 -0.7595
  534MOL0     C70384   6.806   0.884  -0.439  0.4382  0.1434  0.6494
  534MOL0     C70385   6.675   0.829  -0.478 -0.6177  0.2617 -1.1355
  534MOL0     O70386   6.596   0.789  -0.380  0.8950 -0.4947 -1.1948
  534MOL0     C70387   6.476   0.733  -0.401  0.7392  0.2042  0.0513
  534MOL0     C70388   6.385   0.772  -0.501 -0.3904  0.7425  0.4742
  534MOL0     C70389   6.265   0.700  -0.517 -0.5503  0.2267  0.5761
  534MOL0     C70390   6.215   0.610  -0.421 -0.0868 -0.1245  0.0499
  534MOL0     O70391   6.090   0.559  -0.438  0.1853 -0.0203  0.5694
  534MOL0     C70392   6.017   0.522  -0.324  0.6270 -0.0364  0.0789
  534MOL0     C70393   5.872   0.566  -0.360 -0.9892 -0.2252  1.2646
  534MOL0     C70394   5.784   0.572  -0.244 -0.1521 -0.2162 -0.3612
  534MOL0     C70395   5.747   0.432  -0.180 -0.3410 -0.4768 -0.3605
  534MOL0     C70396   5.648   0.429  -0.058  0.3902 -0.8442 -0.4198
  534MOL0     C70397   5.636   0.558   0.030 -0.0611  0.6353  0.2101
  534MOL0     C70398   5.527   0.532   0.148 -0.6157 -0.8968 -0.2256
  534MOL0     C70399   5.503   0.649   0.241  0.0041 -0.4095  0.0894
  534MOL0    Cl70400   5.654   0.714   0.308  0.0177 -0.0549  0.0123
  534MOL0     C70401   6.299   0.573  -0.317  0.7508  0.0536 -0.7318
  534MOL0     C70402   6.425   0.628  -0.315  0.1044  0.7091  0.8396
  534MOL0     O70403   6.646   0.826  -0.596  0.6741  0.4130 -0.4830
  534MOL0     C70404   6.835   0.921  -0.306 -0.1217 -0.9514 -0.4578
  534MOL0     C70405   6.963   0.954  -0.268  0.3064  0.2756  0.3097
  534MOL0     N70406   7.656   1.404  -0.020  0.3564 -0.3395 -0.2825
  534MOL0     N70407   7.672   1.474   0.084  0.6028  0.3213  0.4437
  534MOL0     C70408   6.616   1.093   0.349  0.4461  0.1074 -0.0239
  534MOL0     C70409   6.478   1.056   0.360  0.4145  0.5158 -0.9392
  534MOL0     C70410   6.037   1.026   0.548  0.4534 -0.2866 -1.0716
  534MOL0     C70411   5.982   0.985   0.429  0.5363 -0.4014  0.7265
  534MOL0     C70412   5.842   0.973   0.410  0.8086  0.0873 -0.0801
  534MOL0     C70413   5.750   1.000   0.509 -0.1298  0.8399  0.3963
  534MOL0     O70414   5.622   0.988   0.478  0.1145  0.0790  0.0296
  534MOL0     C70415   5.522   0.970   0.574  0.7608  0.3558 -1.4321
  534MOL0     C70416   5.408   0.894   0.517 -0.0826  0.6578 -0.5107
  534MOL0     C70417   5.355   0.970   0.383 -0.2748  0.7648 -0.9199
  534MOL0     C70418   5.298   1.115   0.408 -0.8641  0.6152  0.3160
  534MOL0     C70419   5.187   1.116   0.503 -0.5273  0.2366  0.2146
  534MOL0     C70420   5.104   1.132   0.591 -0.3093 -0.6909 -0.3679
  534MOL0     C70421   5.802   1.029   0.634 -1.3566 -0.5860 -0.4284
  534MOL0     C70422   5.941   1.042   0.650 -0.4285  0.2435 -0.3226
  534MOL0     H70423   6.355   1.270   0.577 -0.5173  1.6781 -4.2298
  534MOL0     H70424   6.593   1.336   0.601  0.6530 -0.8126  1.0201
  534MOL0     H70425   6.828   1.338   0.613  0.7394 -0.3175 -1.2254
  534MOL0     H70426   6.768   1.433   0.475 -2.1197  0.2047  1.3644
  534MOL0     H70427   7.026   1.265   0.515 -1.8146 -0.7838 -0.7703
  534MOL0     H70428   7.021   1.449   0.536  0.7823 -0.8372 -0.9483
  534MOL0     H70429   7.008   1.467   0.292 -2.0739  0.4235  1.9289
  534MOL0     H70430   6.963   1.296   0.290 -1.5192  0.1392  1.7535
  534MOL0     H70431   7.210   1.236   0.370 -1.2183 -0.7331 -0.5258
  534MOL0     H70432   7.202   1.320   0.219  1.8303  2.4386  0.2068
  534MOL0     H70433   7.266   1.457   0.475  3.0363  1.3545 -0.6648
  534MOL0     H70434   7.238   1.517   0.307  2.8987 -0.7154 -1.7002
  534MOL0     H70435   7.420   1.345   0.242 -0.5897 -2.0876  0.8353
  534MOL0     H70436   7.438   1.297   0.410  0.4491 -0.1803 -0.0737
  534MOL0     H70437   7.491   1.574   0.298  0.3453  0.2126 -0.4270
  534MOL0     H70438   7.531   1.519   0.466 -0.0069  0.7239 -0.6127
  534MOL0     H70439   7.718   1.383   0.389  1.7282 -1.7747 -2.6975
  534MOL0     H70440   7.731   1.542   0.324  1.2324 -0.4712 -0.3353
  534MOL0     H70441   7.604   1.181   0.208  2.5381  0.2864  0.9375
  534MOL0     H70442   7.673   1.082  -0.070 -1.1598 -0.6884 -1.1804
  534MOL0     H70443   7.616   1.187  -0.190  0.3415 -2.6578 -0.2782
  534MOL0     H70444   7.386   1.202  -0.052  0.3068  0.1693 -2.5705
  534MOL0     H70445   7.444   1.050   0.020  2.0964  0.4758 -0.0258
  534MOL0     H70446   7.418   1.097  -0.289 -1.6221  0.0964 -0.4673
  534MOL0     H70447   7.450   0.951  -0.192 -0.3752 -0.8322  2.0136
  534MOL0     H70448   7.194   1.109  -0.151  2.1873  0.6010  1.5762
  534MOL0     H70449   7.217   0.939  -0.141  2.3684 -0.4717  1.8516
  534MOL0     H70450   7.121   0.953  -0.569  2.0514  0.1890  1.5408
  534MOL0     H70451   6.892   0.859  -0.637  3.7881 -2.6595 -0.7837
  534MOL0     H70452   6.407   0.844  -0.578 -0.2141 -0.3584 -0.5318
  534MOL0     H70453   6.209   0.731  -0.605 -0.0219  2.8505  1.0602
  534MOL0     H70454   6.049   0.583  -0.239 -4.9520  1.7315  1.3250
  534MOL0     H70455   6.030   0.415  -0.306 -1.9720 -0.1474  1.7924
  534MOL0     H70456   5.835   0.499  -0.438  4.0332 -0.2563 -1.5197
  534MOL0     H70457   5.883   0.668  -0.397 -0.5602  0.2029  2.5113
  534MOL0     H70458   5.690   0.620  -0.271  0.3701  2.1432  1.6507
  534MOL0     H70459   5.833   0.636  -0.169 -0.3102  0.1043 -0.5342
  534MOL0     H70460   5.716   0.364  -0.260  0.5332 -0.5762 -0.6307
  534MOL0     H70461   5.841   0.389  -0.146 -0.4465 -0.3536  0.0925
  534MOL0     H70462   5.663   0.339   0.002 -1.4996  1.4416  4.0003
  534MOL0     H70463   5.549   0.421  -0.103 -0.3914 -1.5178  1.3137
  534MOL0     H70464   5.605   0.644  -0.030 -0.3040 -1.2612 -2.5278
  534MOL0     H70465   5.735   0.574   0.073 -0.2262  0.1930  0.7708
  534MOL0     H70466   5.431   0.508   0.102 -1.0107 -0.2562  0.2392
  534MOL0     H70467   5.562   0.440   0.196  2.7068  0.8102  1.0129
  534MOL0     H70468   5.433   0.615   0.318  0.5200 -1.0079  0.3021
  534MOL0     H70469   5.445   0.724   0.186 -2.6677 -1.0416  1.8512
  534MOL0     H70470   6.262   0.511  -0.236  0.9465  1.2710  0.3274
  534MOL0     H70471   6.489   0.580  -0.241 -1.2347  0.0490  1.6103
  534MOL0     H70472   6.749   0.907  -0.240 -1.2023 -0.1835 -1.6559
  534MOL0     H70473   6.968   0.974  -0.161 -0.8134  1.5496  0.1563
  534MOL0     H70474   6.672   1.040   0.272 -1.4242  1.1471 -2.2467
  534MOL0     H70475   6.435   0.984   0.292 -1.9873  0.5531  0.4509
  534MOL0     H70476   6.040   0.954   0.342 -0.0320  1.5970 -0.4396
  534MOL0     H70477   5.809   0.953   0.309  2.9136  0.9334 -0.9962
  534MOL0     H70478   5.497   1.065   0.623  1.2551 -1.9242  3.8710
  534MOL0     H70479   5.551   0.910   0.661 -2.5583  1.8976  0.9750
  534MOL0     H70480   5.420   0.787   0.497 -1.6869 -0.2775  2.9312
  534MOL0     H70481   5.330   0.904   0.593  0.7317  1.2426  0.2722
  534MOL0     H70482   5.269   0.914   0.347 -1.1518  1.7349 -0.3757
  534MOL0     H70483   5.438   0.972   0.311  0.0918  0.6669 -0.5037
  534MOL0     H70484   5.388   1.170   0.437  0.7426 -1.0402 -1.2478
  534MOL0     H70485   5.279   1.155   0.307 -0.9022 -1.7535 -0.6820
  534MOL0     H70486   5.033   1.168   0.663  3.0821  0.2057  2.8239
  534MOL0     H70487   5.733   1.045   0.715 -0.7958 -0.1738 -0.0245
  534MOL0     H70488   5.972   1.057   0.753 -0.5103  2.2748 -0.5685
  535MOL0     O70489   8.925   3.436   2.274 -0.3068 -0.0716  0.3944
  535MOL0     C70490   8.863   3.522   2.204  0.6411 -0.8282  0.1552
  535MOL0     O70491   8.912   3.591   2.098 -0.2990  0.1729 -0.2772
  535MOL0     C70492   9.044   3.552   2.051  0.0885  0.3404 -0.0611
  535MOL0     C70493   9.157   3.606   2.115  0.4404 -0.2355  0.2138
  535MOL0     C70494   9.286   3.579   2.067  0.0589 -0.2565 -1.1826
  535MOL0     C70495   9.309   3.487   1.967 -0.4528 -0.2514 -0.4871
  535MOL0     O70496   9.431   3.450   1.925  0.0595 -0.3020 -0.2474
  535MOL0     C70497   9.525   3.556   1.912 -0.0609  0.1583 -0.1458
  535MOL0     C70498   9.613   3.503   1.801  0.2061 -0.0525  0.4305
  535MOL0     C70499   9.753   3.561   1.797 -0.7028  0.6030 -0.6729
  535MOL0     C70500   9.826   3.535   1.663  0.6152  0.0830 -0.5532
  535MOL0     C70501   9.988   3.560   1.664  1.0141  1.2885 -0.5676
  535MOL0     C70502  10.061   3.520   1.539  1.1248  0.9100  0.7044
  535MOL0     C70503  10.199   3.568   1.513 -1.0314  0.2345  0.7696
  535MOL0     C70504  10.313   3.508   1.597 -1.4504  0.1595 -1.0910
  535MOL0     N70505  10.317   3.359   1.615 -0.7723 -0.2110  0.8704
  535MOL0     C70506  10.284   3.277   1.516  0.1372  0.0934  0.4274
  535MOL0     C70507  10.270   3.156   1.587 -0.6281 -0.1839  0.3078
  535MOL0     C70508  10.220   3.037   1.513  0.9869 -0.0017 -0.2744
  535MOL0     C70509  10.065   3.038   1.517 -0.5288  0.7735 -0.1635
  535MOL0     C70510  10.012   3.011   1.662 -0.3488  0.1709  0.2146
  535MOL0     C70511   9.861   2.987   1.668 -0.3846 -0.3063  0.2242
  535MOL0     O70512   9.795   3.097   1.600 -0.4997  0.1678  0.4297
  535MOL0     C70513   9.662   3.119   1.606  0.6128 -0.1693 -0.2907
  535MOL0     C70514   9.608   3.224   1.533  0.5244 -0.0237 -0.6479
  535MOL0     C70515   9.476   3.261   1.538 -0.4669  0.3026 -0.2348
  535MOL0     C70516   9.383   3.186   1.607 -0.0257  0.4575 -0.3212
  535MOL0     C70517   9.241   3.232   1.620  0.5516  0.5804  0.0202
  535MOL0     O70518   9.165   3.142   1.693  0.4590  0.1290 -0.4396
  535MOL0     C70519   9.033   3.163   1.727 -0.3296  1.7707  0.5293
  535MOL0     C70520   8.947   3.254   1.671 -0.0108 -0.1111  0.4723
  535MOL0     C70521   8.818   3.262   1.717  0.2362 -0.1517 -0.1398
  535MOL0     C70522   8.767   3.180   1.823 -0.1944 -0.5748  0.9207
  535MOL0     O70523   8.637   3.180   1.884 -0.3600  0.2872  0.9543
  535MOL0     C70524   8.530   3.265   1.834 -0.4151 -0.2778  0.5082
  535MOL0     C70525   8.408   3.271   1.923  0.2802 -0.0999  0.6913
  535MOL0     C70526   8.417   3.351   2.055  0.2120 -1.3662 -0.2143
  535MOL0     C70527   8.282   3.347   2.131  0.0052 -0.3341  0.0098
  535MOL0     C70528   8.290   3.413   2.274 -0.0946  0.7114  0.1363
  535MOL0     C70529   8.154   3.382   2.345  0.7941  1.1135  0.3599
  535MOL0     C70530   8.172   3.416   2.497 -0.5138  1.1096  0.6708
  535MOL0     C70531   8.251   3.306   2.577  0.4128  0.3707  0.5522
  535MOL0    Cl70532   8.222   3.146   2.517 -0.1383 -0.1122 -0.2198
  535MOL0     C70533   8.858   3.088   1.876  0.6815  0.5547 -0.0955
  535MOL0     C70534   8.991   3.078   1.831  0.3994  0.6971  0.7762
  535MOL0     O70535   9.208   3.343   1.576  0.3522 -0.0438  0.5026
  535MOL0     C70536   9.429   3.062   1.656  0.2849  0.0874  0.5965
  535MOL0     C70537   9.565   3.033   1.659 -0.5790 -0.0859  0.1665
  535MOL0     N70538  10.303   3.172   1.720 -0.2151 -0.1832 -0.0338
  535MOL0     N70539  10.333   3.292   1.729  0.0177 -0.1818 -0.7421
  535MOL0     C70540   9.201   3.415   1.924 -0.0827 -0.8279  0.6892
  535MOL0     C70541   9.065   3.455   1.957  0.4397 -0.1573  0.1304
  535MOL0     C70542   8.739   3.573   2.264 -0.2954 -0.6904  0.0851
  535MOL0     C70543   8.667   3.682   2.208 -0.0867 -0.2740 -0.5598
  535MOL0     C70544   8.547   3.716   2.272 -0.5820 -0.2650 -0.1826
  535MOL0     C70545   8.512   3.659   2.398 -0.6372 -0.9703  1.2130
  535MOL0     O70546   8.405   3.707   2.462  0.6487 -0.1435 -0.0651
  535MOL0     C70547   8.440   3.799   2.562  0.3166  0.1685  0.4859
  535MOL0     C70548   8.336   3.774   2.670 -0.2068 -0.5664  0.2593
  535MOL0     C70549   8.192   3.792   2.627  0.0834  0.5056 -0.4720
  535MOL0     C70550   8.092   3.742   2.731 -0.2061 -1.2922  0.9078
  535MOL0     C70551   8.100   3.820   2.851 -0.0426  0.0800 -0.2556
  535MOL0     C70552   8.117   3.891   2.946  0.9854 -0.2536 -0.4814
  535MOL0     C70553   8.578   3.552   2.455 -0.6838 -0.5952  0.6487
  535MOL0     C70554   8.694   3.508   2.384 -0.4153  0.6273 -0.6804
  535MOL0     H70555   9.135   3.672   2.199  1.5319 -0.1320  0.4366
  535MOL0     H70556   9.372   3.633   2.106 -0.8362  2.0054 -2.1528
  535MOL0     H70557   9.585   3.569   2.002  0.7158 -1.1134 -0.4562
  535MOL0     H70558   9.482   3.655   1.896 -1.5619 -0.3924  0.3231
  535MOL0     H70559   9.570   3.525   1.703  0.5557 -0.3214  0.2144
  535MOL0     H70560   9.629   3.394   1.804 -0.2112 -0.1775 -0.9884
  535MOL0     H70561   9.807   3.531   1.888  0.7946  0.0560 -1.7034
  535MOL0     H70562   9.733   3.668   1.799 -0.0163  0.7778  2.2777
  535MOL0     H70563   9.815   3.428   1.639 -0.9478  0.5172 -2.0069
  535MOL0     H70564   9.761   3.575   1.584  0.4691 -0.6414 -0.8180
  535MOL0     H70565  10.029   3.499   1.745 -0.9594  1.7842  0.8946
  535MOL0     H70566  10.012   3.663   1.691  0.6496  1.2520 -0.0824
  535MOL0     H70567   9.995   3.571   1.468  1.7291  2.7281  1.3879
  535MOL0     H70568  10.065   3.413   1.518 -1.5382  0.9405 -0.2897
  535MOL0     H70569  10.215   3.533   1.411 -1.2573 -0.8735  1.0934
  535MOL0     H70570  10.205   3.677   1.519  0.7887  0.0979  3.2549
  535MOL0     H70571  10.321   3.553   1.697 -1.9548  0.5935 -1.2363
  535MOL0     H70572  10.403   3.532   1.540  0.8603  1.9015  2.8932
  535MOL0     H70573  10.291   3.295   1.409  1.9790  2.7187  0.8928
  535MOL0     H70574  10.250   2.942   1.559 -2.1339 -1.2206 -0.5332
  535MOL0     H70575  10.250   3.044   1.408 -1.5522 -1.2236 -1.1716
  535MOL0     H70576  10.030   2.950   1.462 -1.4906  0.7371  0.4801
  535MOL0     H70577  10.019   3.127   1.472 -3.0542  0.6487  1.9413
  535MOL0     H70578  10.057   2.919   1.700 -1.1320  0.4506  1.8791
  535MOL0     H70579  10.050   3.091   1.725  1.8639 -0.9441  0.4091
  535MOL0     H70580   9.827   2.973   1.771 -0.5030  0.2868  0.2647
  535MOL0     H70581   9.834   2.894   1.616  0.5700 -0.0619 -0.7422
  535MOL0     H70582   9.677   3.271   1.464 -0.6541  0.2249 -1.6993
  535MOL0     H70583   9.434   3.349   1.491 -0.6235  0.8970  0.9711
  535MOL0     H70584   8.969   3.315   1.584  2.2056 -0.8527  0.4313
  535MOL0     H70585   8.738   3.327   1.683 -3.1860 -1.8293  3.8633
  535MOL0     H70586   8.492   3.239   1.735  1.3334 -1.4078  0.0974
  535MOL0     H70587   8.575   3.365   1.825  0.0022 -0.3746  1.3983
  535MOL0     H70588   8.374   3.170   1.950  0.5462 -0.9699 -1.9637
  535MOL0     H70589   8.329   3.309   1.857 -0.5590 -1.9143  0.5771
  535MOL0     H70590   8.448   3.453   2.033  1.4604 -1.5489  0.5775
  535MOL0     H70591   8.503   3.316   2.113 -0.7475 -2.4585  0.6080
  535MOL0     H70592   8.214   3.411   2.073  0.5832 -2.6734 -3.5511
  535MOL0     H70593   8.239   3.246   2.133 -0.4603 -0.1632 -0.9504
  535MOL0     H70594   8.299   3.521   2.264 -2.6141  1.1638  1.8016
  535MOL0     H70595   8.372   3.361   2.324 -0.4651 -3.8513 -3.3865
  535MOL0     H70596   8.099   3.287   2.345 -2.7304  2.9957  0.5728
  535MOL0     H70597   8.077   3.438   2.292  0.2387 -0.3123 -0.3927
  535MOL0     H70598   8.225   3.511   2.514  2.8397 -0.1744 -1.6851
  535MOL0     H70599   8.071   3.419   2.541 -0.8031 -4.4652  0.9952
  535MOL0     H70600   8.232   3.316   2.684  1.2031 -0.5807  0.7981
  535MOL0     H70601   8.359   3.324   2.564  0.9810 -0.5534  3.3111
  535MOL0     H70602   8.821   3.025   1.956  1.7947  0.6333  0.4953
  535MOL0     H70603   9.061   3.004   1.868 -1.3063 -0.7127  1.3692
  535MOL0     H70604   9.361   2.990   1.701 -0.6378 -0.4250 -1.5205
  535MOL0     H70605   9.593   2.938   1.703 -1.0292  0.5563  1.9419
  535MOL0     H70606   9.230   3.342   1.849  1.3265  0.0750  0.3183
  535MOL0     H70607   8.978   3.413   1.909 -0.8874 -0.3211  2.5426
  535MOL0     H70608   8.677   3.741   2.118 -1.5712  1.9310  0.6152
  535MOL0     H70609   8.482   3.785   2.219  0.2827  1.1571  0.5453
  535MOL0     H70610   8.425   3.894   2.509  0.7747  0.0869  0.2031
  535MOL0     H70611   8.542   3.776   2.592  0.4964 -0.1341 -0.3150
  535MOL0     H70612   8.342   3.669   2.699 -1.0303 -0.6402  0.1908
  535MOL0     H70613   8.350   3.835   2.760  0.7403  0.3980 -0.5051
  535MOL0     H70614   8.179   3.724   2.542  1.2023 -2.7008  1.7382
  535MOL0     H70615   8.166   3.896   2.605  1.5423  1.2171  0.9635
  535MOL0     H70616   7.992   3.767   2.696  0.6659  0.3863 -0.5602
  535MOL0     H70617   8.098   3.634   2.743  0.1904 -2.1393 -4.5084
  535MOL0     H70618   8.133   3.955   3.031 -0.4806  0.4664 -0.7083
  535MOL0     H70619   8.544   3.497   2.542 -0.6273 -2.5562 -0.5193
  535MOL0     H70620   8.738   3.420   2.431 -2.9374 -2.5075 -3.7037
  536MOL0     O70621   5.574   5.853   4.184  0.7513 -0.0430 -0.7741
  536MOL0     C70622   5.632   5.747   4.177 -0.4294  0.3444 -0.3143
  536MOL0     O70623   5.643   5.676   4.063  0.2070  0.0374  0.2405
  536MOL0     C70624   5.626   5.739   3.943 -0.3106  0.1443  0.5222
  536MOL0     C70625   5.701   5.845   3.900 -0.1472  0.2944 -0.2267
  536MOL0     C70626   5.678   5.928   3.789  0.7206  0.1279 -0.3808
  536MOL0     C70627   5.571   5.883   3.705  0.1789  0.4673  0.1375
  536MOL0     O70628   5.540   5.942   3.584 -0.9428  0.0487 -0.3012
  536MOL0     C70629   5.416   5.933   3.521  0.9982  0.0052 -0.1723
  536MOL0     C70630   5.443   5.851   3.396 -0.2575 -0.0272 -0.1499
  536MOL0     C70631   5.324   5.835   3.297 -0.2795 -0.4510 -0.8457
  536MOL0     C70632   5.386   5.779   3.170 -0.7166  0.4315 -0.3965
  536MOL0     C70633   5.290   5.786   3.054 -0.3187 -0.2687 -0.4162
  536MOL0     C70634   5.153   5.725   3.082 -0.4989  1.1464  0.3404
  536MOL0     C70635   5.071   5.736   2.957 -0.0381  0.3655  0.4423
  536MOL0     C70636   4.951   5.640   2.970  0.3093 -0.8109  0.7271
  536MOL0     N70637   4.892   5.624   2.836 -0.1879  0.4667  0.3755
  536MOL0     C70638   4.949   5.552   2.734  0.3432 -0.7891 -0.1432
  536MOL0     C70639   4.875   5.563   2.625 -0.6712 -0.5639 -0.3381
  536MOL0     C70640   4.932   5.543   2.490 -0.3516  0.6667 -0.5672
  536MOL0     C70641   5.067   5.608   2.458 -0.0204  0.6289  1.0735
  536MOL0     C70642   5.080   5.761   2.462  0.0473  1.4020  1.2085
  536MOL0     C70643   5.196   5.809   2.370  0.0536  0.9555  0.4998
  536MOL0     O70644   5.315   5.734   2.391  0.3206  0.5053  0.1566
  536MOL0     C70645   5.421   5.800   2.456 -1.2516 -0.1683  0.6807
  536MOL0     C70646   5.553   5.755   2.430  0.2717  0.2137  0.6030
  536MOL0     C70647   5.673   5.815   2.477 -0.0640 -0.5143  0.7583
  536MOL0     C70648   5.657   5.929   2.557  0.8584  0.2699 -0.1665
  536MOL0     C70649   5.774   5.979   2.625  0.6832  0.2518  0.5684
  536MOL0     O70650   5.895   5.928   2.588  0.2601  0.1726 -0.4598
  536MOL0     C70651   5.989   5.932   2.687 -0.6570 -0.8536 -0.1027
  536MOL0     C70652   6.023   5.820   2.760 -0.7345  0.2995  0.0778
  536MOL0     C70653   6.108   5.825   2.859  1.2402  0.3708 -0.3107
  536MOL0     C70654   6.167   5.942   2.891  0.7162  0.9415 -0.5129
  536MOL0     O70655   6.254   5.952   2.998  0.1058 -0.1099 -0.8377
  536MOL0     C70656   6.319   5.842   3.061 -0.1287  0.6534 -0.1685
  536MOL0     C70657   6.301   5.862   3.206  0.3199  0.4148 -0.6088
  536MOL0     C70658   6.366   5.753   3.302  0.9304 -0.2385 -0.1989
  536MOL0     C70659   6.510   5.778   3.346 -0.1922  0.3423 -0.2362
  536MOL0     C70660   6.585   5.657   3.414 -0.0013 -0.9096 -0.0597
  536MOL0     C70661   6.640   5.566   3.300 -0.7179  0.3743  0.2895
  536MOL0     C70662   6.776   5.616   3.240  0.0185 -0.0299  0.1444
  536MOL0     C70663   6.810   5.557   3.103  0.2436  0.1397 -0.0908
  536MOL0    Cl70664   6.689   5.565   2.979  0.1215 -0.1338  0.2003
  536MOL0     C70665   6.141   6.057   2.827  0.3431 -0.2555 -0.5953
  536MOL0     C70666   6.057   6.052   2.728  0.2487  0.1862  0.1694
  536MOL0     O70667   5.764   6.059   2.714 -0.0080  0.0637  0.6099
  536MOL0     C70668   5.531   5.974   2.588  0.5086  0.6646 -0.0969
  536MOL0     C70669   5.409   5.911   2.538 -1.3155 -0.5799 -0.7137
  536MOL0     N70670   4.764   5.638   2.672  0.1092  0.2503 -0.2076
  536MOL0     N70671   4.781   5.688   2.791  0.0189  0.6691  0.2202
  536MOL0     C70672   5.507   5.760   3.738  0.4072 -0.4670 -0.3480
  536MOL0     C70673   5.519   5.697   3.866 -0.6311 -0.9703  0.3830
  536MOL0     C70674   5.680   5.685   4.304  0.3459 -0.0836 -0.5273
  536MOL0     C70675   5.794   5.597   4.297 -0.4372 -0.6498  0.9875
  536MOL0     C70676   5.862   5.560   4.406 -1.1158 -0.8568  0.4832
  536MOL0     C70677   5.823   5.603   4.537 -0.8671  0.5594  0.0122
  536MOL0     O70678   5.896   5.551   4.644 -0.6019  1.2017  0.6723
  536MOL0     C70679   5.829   5.545   4.771 -0.2228 -0.2752 -0.3636
  536MOL0     C70680   5.920   5.482   4.887  0.3863  0.2495 -0.5092
  536MOL0     C70681   6.040   5.564   4.941  0.0254  0.2676 -0.1234
  536MOL0     C70682   6.160   5.571   4.836  0.4310  0.1887  0.0116
  536MOL0     C70683   6.234   5.445   4.808  0.6401  0.3034  0.3660
  536MOL0     C70684   6.283   5.330   4.786  0.4700 -0.4075  0.1216
  536MOL0     C70685   5.712   5.681   4.545  0.9027 -0.1251 -0.3543
  536MOL0     C70686   5.647   5.723   4.431  0.5384 -0.2643  0.7869
  536MOL0     H70687   5.783   5.891   3.955  0.9492 -1.3274 -0.4545
  536MOL0     H70688   5.734   6.016   3.761 -4.7649  2.5973 -5.8521
  536MOL0     H70689   5.383   6.036   3.506  0.4973  0.0240  0.9819
  536MOL0     H70690   5.330   5.891   3.574 -2.1313  3.3351 -2.1732
  536MOL0     H70691   5.466   5.750   3.431  2.4688  1.1506  1.8483
  536MOL0     H70692   5.527   5.891   3.339  0.8216  0.0976  1.4720
  536MOL0     H70693   5.278   5.934   3.290 -1.0163 -0.5710  1.4263
  536MOL0     H70694   5.249   5.768   3.339 -1.0921  2.0071  1.9726
  536MOL0     H70695   5.470   5.839   3.132 -2.3215  0.9239 -3.3895
  536MOL0     H70696   5.418   5.677   3.192  2.2529  1.5817  1.3575
  536MOL0     H70697   5.345   5.733   2.977 -0.6719 -0.8437 -0.2745
  536MOL0     H70698   5.266   5.891   3.033 -1.1962  0.6677  4.2007
  536MOL0     H70699   5.111   5.774   3.170  0.4001  0.6360  1.0727
  536MOL0     H70700   5.170   5.622   3.114  0.8429  1.5220  0.8915
  536MOL0     H70701   5.043   5.840   2.937  1.1864  0.2742 -2.1743
  536MOL0     H70702   5.134   5.711   2.871  1.8644 -0.6980  2.0630
  536MOL0     H70703   4.870   5.679   3.032 -1.6752 -0.8037 -1.7098
  536MOL0     H70704   4.988   5.544   3.008 -0.8732 -1.0766  1.2526
  536MOL0     H70705   5.048   5.508   2.725  0.4484 -0.1521 -3.1496
  536MOL0     H70706   4.856   5.577   2.419 -1.1733 -4.2505 -2.5060
  536MOL0     H70707   4.944   5.437   2.464 -0.8755  1.1507 -3.0789
  536MOL0     H70708   5.078   5.578   2.353  0.8143  1.8409  0.7993
  536MOL0     H70709   5.141   5.558   2.521 -0.0666  0.1281  0.7389
  536MOL0     H70710   4.992   5.808   2.417 -0.1575  0.8194  0.9922
  536MOL0     H70711   5.078   5.800   2.564 -5.0946  1.4555  1.3702
  536MOL0     H70712   5.207   5.914   2.396  0.0213  0.3001  3.5005
  536MOL0     H70713   5.182   5.803   2.262  2.7123 -2.7149  0.1331
  536MOL0     H70714   5.568   5.665   2.371 -0.7705 -1.1393  2.2916
  536MOL0     H70715   5.770   5.767   2.468 -0.5324 -1.4100  0.3202
  536MOL0     H70716   5.980   5.725   2.731  1.0463  0.3727 -3.2344
  536MOL0     H70717   6.124   5.736   2.920 -2.7589 -0.0949  0.3390
  536MOL0     H70718   6.422   5.841   3.026 -0.6030 -0.4596 -1.6708
  536MOL0     H70719   6.286   5.741   3.034 -0.7893  0.7956  0.0724
  536MOL0     H70720   6.194   5.850   3.219 -0.0454  0.4083 -3.1224
  536MOL0     H70721   6.332   5.961   3.240  0.2899 -0.1446  1.1205
  536MOL0     H70722   6.355   5.654   3.257  0.9885 -0.3533  0.0377
  536MOL0     H70723   6.304   5.746   3.392  2.9115  1.1185  1.3465
  536MOL0     H70724   6.567   5.828   3.267  1.3566  0.1004  0.6875
  536MOL0     H70725   6.498   5.851   3.427 -0.8493  1.1839 -1.0799
  536MOL0     H70726   6.511   5.611   3.479 -2.4144  1.8606 -0.6459
  536MOL0     H70727   6.668   5.696   3.473 -0.4041  0.3477 -0.3025
  536MOL0     H70728   6.571   5.548   3.217  1.1609  1.3612 -1.5876
  536MOL0     H70729   6.649   5.471   3.353 -2.0529 -0.1979 -0.4479
  536MOL0     H70730   6.765   5.723   3.218 -2.1708  0.0733  1.4441
  536MOL0     H70731   6.860   5.608   3.310  0.2176  0.3749 -0.0403
  536MOL0     H70732   6.833   5.451   3.121 -4.1781 -1.1982 -0.9624
  536MOL0     H70733   6.901   5.606   3.068 -1.1124  2.3290 -0.7488
  536MOL0     H70734   6.193   6.147   2.858  0.4438  0.7098 -3.3103
  536MOL0     H70735   6.028   6.142   2.675 -0.1104 -0.2274 -0.3466
  536MOL0     H70736   5.504   6.060   2.649 -0.5532 -0.4842  1.1094
  536MOL0     H70737   5.316   5.951   2.578 -1.1127 -2.7063  2.1923
  536MOL0     H70738   5.432   5.724   3.669 -0.5931  1.1818 -0.1677
  536MOL0     H70739   5.448   5.626   3.906 -3.9676  2.7062  1.6275
  536MOL0     H70740   5.836   5.572   4.200  0.5318  0.7407  1.0215
  536MOL0     H70741   5.936   5.480   4.404  0.5245  0.5928  0.3635
  536MOL0     H70742   5.743   5.480   4.755 -1.8765  1.7875 -0.1860
  536MOL0     H70743   5.812   5.643   4.818  3.7459  2.3266 -3.6409
  536MOL0     H70744   5.852   5.464   4.971  2.2747 -2.7389  0.5207
  536MOL0     H70745   5.953   5.387   4.844 -0.1337  0.2394 -0.8985
  536MOL0     H70746   6.075   5.501   5.023  0.2959  1.3267  0.5918
  536MOL0     H70747   6.013   5.662   4.979  0.5439 -0.0421  1.1016
  536MOL0     H70748   6.128   5.619   4.743  0.0085  0.8716  0.5041
  536MOL0     H70749   6.225   5.643   4.886 -1.8024  2.2636  0.0968
  536MOL0     H70750   6.324   5.231   4.792  0.2681 -0.5703 -1.0416
  536MOL0     H70751   5.676   5.705   4.644 -0.2182 -1.0485 -0.5116
  536MOL0     H70752   5.569   5.799   4.438 -1.0192 -1.7170 -0.1044
  537MOL0     O70753   8.239   3.477   4.764 -0.4052  0.0636  0.3349
  537MOL0     C70754   8.270   3.369   4.722  0.4042  0.7486  0.0858
  537MOL0     O70755   8.196   3.307   4.617 -0.8289 -0.5805 -0.3684
  537MOL0     C70756   8.064   3.303   4.616  0.2251 -0.0615  0.3294
  537MOL0     C70757   8.023   3.167   4.615 -0.8567 -0.8789  0.8571
  537MOL0     C70758   7.894   3.135   4.632 -0.3065 -0.9713  0.1519
  537MOL0     C70759   7.790   3.233   4.641 -0.4779 -0.5302  0.1833
  537MOL0     O70760   7.662   3.191   4.671 -0.2788  0.0728  0.4315
  537MOL0     C70761   7.567   3.287   4.629  0.5339 -0.1566  0.3393
  537MOL0     C70762   7.420   3.230   4.647 -1.3743 -0.7949  0.0200
  537MOL0     C70763   7.399   3.118   4.546  0.1897  0.2247  0.6680
  537MOL0     C70764   7.360   3.166   4.395 -0.3926  0.0813 -0.3231
  537MOL0     C70765   7.336   3.037   4.318 -0.2416 -0.1730 -0.6555
  537MOL0     C70766   7.328   3.074   4.177  0.0880  0.7273  0.7312
  537MOL0     C70767   7.244   2.969   4.105 -0.5885  0.3544 -0.4141
  537MOL0     C70768   7.091   2.990   4.134 -0.6878 -0.4048  0.0930
  537MOL0     N70769   7.017   2.914   4.033  0.1888 -0.1200  0.1183
  537MOL0     C70770   6.943   2.802   4.076 -0.3636 -0.5933  0.6018
  537MOL0     C70771   6.879   2.764   3.963  0.1468  0.1303 -0.1888
  537MOL0     C70772   6.793   2.645   3.964  0.2947  0.5478  0.9730
  537MOL0     C70773   6.673   2.685   3.881  0.0775 -0.5019 -0.0714
  537MOL0     C70774   6.575   2.577   3.885  0.8502  0.1046  0.2012
  537MOL0     C70775   6.438   2.640   3.845 -0.7108  0.3242 -0.2057
  537MOL0     O70776   6.340   2.535   3.844  0.1332 -0.1988  0.1714
  537MOL0     C70777   6.205   2.560   3.820  0.3414  0.6156 -0.8445
  537MOL0     C70778   6.156   2.692   3.800  0.0221  0.6669 -0.3753
  537MOL0     C70779   6.015   2.718   3.792  0.0461  0.4598  0.9397
  537MOL0     C70780   5.925   2.615   3.804  0.7118 -0.3673  0.5714
  537MOL0     C70781   5.775   2.637   3.791 -0.3701  0.3337 -0.9135
  537MOL0     O70782   5.702   2.531   3.738 -0.9558  0.1020 -0.1984
  537MOL0     C70783   5.565   2.530   3.748  0.2000 -0.0923  0.3807
  537MOL0     C70784   5.494   2.457   3.646 -1.0477 -0.2715  0.6923
  537MOL0     C70785   5.357   2.428   3.662  0.2445 -0.4356 -0.2153
  537MOL0     C70786   5.290   2.466   3.784 -0.7013 -0.7278 -0.1161
  537MOL0     O70787   5.162   2.436   3.804  0.2760  0.7162  0.6104
  537MOL0     C70788   5.083   2.388   3.688  0.5761  0.7480  0.2779
  537MOL0     C70789   4.929   2.377   3.709  0.1580  0.3627 -0.8866
  537MOL0     C70790   4.878   2.477   3.824 -0.1773 -0.8304 -0.8774
  537MOL0     C70791   4.717   2.483   3.833 -0.0740 -0.1240  0.3359
  537MOL0     C70792   4.661   2.593   3.917  0.4457 -0.7389 -0.0628
  537MOL0     C70793   4.512   2.566   3.919  0.2760 -0.2385 -0.1125
  537MOL0     C70794   4.439   2.660   4.025 -0.9379  0.6018  0.0904
  537MOL0     C70795   4.299   2.618   4.026 -0.1819 -0.1862  0.3843
  537MOL0    Cl70796   4.202   2.678   3.879  0.2035  0.2453 -0.5549
  537MOL0     C70797   5.364   2.537   3.881  0.8671 -0.0474 -0.7419
  537MOL0     C70798   5.498   2.566   3.863  0.0730 -0.6236 -0.9102
  537MOL0     O70799   5.727   2.749   3.816  0.0897 -0.1770 -0.5613
  537MOL0     C70800   5.979   2.485   3.803  1.0169  0.4536  0.1286
  537MOL0     C70801   6.111   2.451   3.820 -0.2704 -0.1090  0.4610
  537MOL0     N70802   6.901   2.858   3.861 -0.1467 -0.4101 -1.1054
  537MOL0     N70803   6.990   2.947   3.902 -0.4667  0.6366  0.5248
  537MOL0     C70804   7.842   3.367   4.637  0.2023 -0.3179  0.6296
  537MOL0     C70805   7.968   3.400   4.624 -0.0543  0.4765 -0.0505
  537MOL0     C70806   8.382   3.296   4.789  0.7856  0.8449  0.2539
  537MOL0     C70807   8.438   3.179   4.738 -0.3008 -0.1527 -0.8435
  537MOL0     C70808   8.546   3.114   4.803 -0.3318  0.5779 -0.6276
  537MOL0     C70809   8.599   3.171   4.912 -0.2564  0.9259  0.3565
  537MOL0     O70810   8.700   3.120   4.984 -0.7752 -0.3434  0.5229
  537MOL0     C70811   8.799   3.028   4.939 -0.4062 -0.9026 -0.3612
  537MOL0     C70812   8.890   2.989   5.055  0.7649  1.0158  1.1038
  537MOL0     C70813   8.999   3.089   5.110 -0.8165 -0.6814  0.2629
  537MOL0     C70814   9.104   3.117   4.995  0.4643  0.2247 -0.2646
  537MOL0     C70815   9.235   3.177   5.041  0.1887 -0.4750 -1.3868
  537MOL0     C70816   9.339   3.223   5.085 -0.0331 -0.1910  0.2768
  537MOL0     C70817   8.534   3.286   4.970 -0.4501 -0.1898  0.2183
  537MOL0     C70818   8.426   3.342   4.912 -0.3360 -1.4302  0.0165
  537MOL0     H70819   8.097   3.088   4.604  3.7990  3.1933 -0.9238
  537MOL0     H70820   7.859   3.033   4.622 -2.1648 -0.4261  0.6590
  537MOL0     H70821   7.576   3.320   4.525  0.8297  0.4680  0.5520
  537MOL0     H70822   7.579   3.378   4.688 -0.5717  1.2597 -1.4971
  537MOL0     H70823   7.348   3.313   4.651 -0.1162  0.5288 -2.2500
  537MOL0     H70824   7.416   3.187   4.748 -0.4872  0.7455  0.7557
  537MOL0     H70825   7.316   3.055   4.578  0.7682 -1.6777 -1.3075
  537MOL0     H70826   7.488   3.055   4.534  1.1141  1.4924  0.6819
  537MOL0     H70827   7.275   3.235   4.396 -1.1610 -0.7859  2.4734
  537MOL0     H70828   7.440   3.222   4.345 -0.9700 -1.2721 -2.9520
  537MOL0     H70829   7.254   2.979   4.361  0.5968 -0.6365  0.3628
  537MOL0     H70830   7.422   2.970   4.327 -0.8401 -1.6696 -4.3261
  537MOL0     H70831   7.428   3.097   4.140  0.6400  1.3378  2.4804
  537MOL0     H70832   7.275   3.169   4.163  0.9168  1.1986  0.7476
  537MOL0     H70833   7.256   2.990   3.998  0.4563 -0.5165 -0.4892
  537MOL0     H70834   7.274   2.867   4.128 -2.2070 -0.1361 -0.3967
  537MOL0     H70835   7.052   3.091   4.119 -2.5051 -1.1869 -0.7171
  537MOL0     H70836   7.062   2.962   4.236 -1.0389 -1.4741 -0.2919
  537MOL0     H70837   6.943   2.765   4.178  1.7165  0.3724  1.0153
  537MOL0     H70838   6.775   2.623   4.069 -0.5755 -2.9720  0.2033
  537MOL0     H70839   6.841   2.552   3.933 -1.4803 -0.1081  0.0293
  537MOL0     H70840   6.708   2.713   3.781  1.6250 -0.7268  0.3733
  537MOL0     H70841   6.628   2.775   3.924  1.3717  0.6958 -1.1436
  537MOL0     H70842   6.598   2.498   3.813  1.5097  0.1935  0.3125
  537MOL0     H70843   6.563   2.536   3.986  0.9209 -0.1885  0.0913
  537MOL0     H70844   6.439   2.686   3.746 -0.4878  2.4384  0.7200
  537MOL0     H70845   6.418   2.727   3.909 -2.9480  1.1630 -1.9385
  537MOL0     H70846   6.224   2.776   3.800  2.2971 -1.0508  1.2469
  537MOL0     H70847   5.984   2.820   3.769 -4.9945 -1.5735 -3.2982
  537MOL0     H70848   5.543   2.420   3.556 -1.3588 -0.6991  0.6966
  537MOL0     H70849   5.314   2.367   3.583 -1.2457 -0.7708  0.7904
  537MOL0     H70850   5.116   2.290   3.653 -0.9303  0.6027 -0.7955
  537MOL0     H70851   5.101   2.467   3.613  0.3322  1.7116  1.2069
  537MOL0     H70852   4.914   2.273   3.741  2.4814  0.5940  1.2110
  537MOL0     H70853   4.875   2.388   3.614  2.2869  1.2895 -2.0541
  537MOL0     H70854   4.903   2.579   3.795 -0.9002 -0.8857 -1.7155
  537MOL0     H70855   4.915   2.454   3.925  0.5088 -0.6360 -1.0781
  537MOL0     H70856   4.684   2.502   3.730  1.4286  1.1658  0.0687
  537MOL0     H70857   4.680   2.386   3.867 -0.5880 -0.1494 -0.2730
  537MOL0     H70858   4.679   2.695   3.881  0.4034 -0.3167  1.0807
  537MOL0     H70859   4.693   2.586   4.021 -0.6968 -1.1213  0.2765
  537MOL0     H70860   4.478   2.464   3.942 -2.6117  0.8445  0.8009
  537MOL0     H70861   4.467   2.581   3.821 -1.6064 -2.5650  0.2913
  537MOL0     H70862   4.487   2.653   4.123 -1.5140 -2.3298  0.2519
  537MOL0     H70863   4.447   2.765   3.995 -0.5998  0.0103 -2.1331
  537MOL0     H70864   4.255   2.649   4.122  1.7924  1.1939  0.9142
  537MOL0     H70865   4.285   2.510   4.024 -4.6427  0.1422  1.7445
  537MOL0     H70866   5.307   2.556   3.971 -0.4777 -4.4418 -0.4311
  537MOL0     H70867   5.557   2.600   3.949 -0.4559 -0.7038 -0.5133
  537MOL0     H70868   5.913   2.399   3.793  0.3365  1.0090 -0.2897
  537MOL0     H70869   6.151   2.350   3.824 -0.8625 -0.3222  2.9782
  537MOL0     H70870   7.762   3.440   4.643 -0.0125 -0.4994  0.0150
  537MOL0     H70871   7.991   3.506   4.620  1.4009  0.1797 -0.0953
  537MOL0     H70872   8.404   3.136   4.644  0.1452 -0.0967 -1.0365
  537MOL0     H70873   8.600   3.029   4.762  1.2760 -0.0442  2.4475
  537MOL0     H70874   8.855   3.077   4.859  0.1994 -0.3493  0.3937
  537MOL0     H70875   8.753   2.936   4.902 -4.0709 -0.0953  1.6363
  537MOL0     H70876   8.823   2.961   5.137  0.4783 -0.6315  0.3446
  537MOL0     H70877   8.939   2.896   5.028  1.0742  1.3335  0.5594
  537MOL0     H70878   9.046   3.043   5.198  1.2720 -0.3300 -0.6047
  537MOL0     H70879   8.952   3.183   5.141  0.4297  0.1332 -0.2435
  537MOL0     H70880   9.137   3.028   4.941  2.7923  1.1265 -0.4548
  537MOL0     H70881   9.047   3.181   4.928 -3.3278 -0.0797  2.3883
  537MOL0     H70882   9.421   3.286   5.112  0.5525  0.2050 -2.1724
  537MOL0     H70883   8.557   3.327   5.068 -1.0546  0.5240  0.0725
  537MOL0     H70884   8.386   3.425   4.968  1.7277  1.7091 -2.8167
  538MOL0     O70885   8.956   1.885   3.918 -0.1077 -0.3812 -0.4349
  538MOL0     C70886   9.058   1.945   3.886 -0.1950  0.4413  0.3085
  538MOL0     O70887   9.068   2.061   3.812  0.5940 -0.2362  0.0950
  538MOL0     C70888   8.949   2.135   3.795  0.3410  0.5678  0.1426
  538MOL0     C70889   8.942   2.266   3.836  0.7354 -0.7024 -0.2813
  538MOL0     C70890   8.830   2.347   3.829 -0.4308 -0.7479  0.9753
  538MOL0     C70891   8.707   2.293   3.773  0.2651  0.7022 -0.4799
  538MOL0     O70892   8.594   2.377   3.762  0.3916  0.6015  0.1293
  538MOL0     C70893   8.469   2.321   3.814 -0.9115  0.3011  0.1393
  538MOL0     C70894   8.396   2.441   3.877  0.8398 -0.6528 -0.7649
  538MOL0     C70895   8.458   2.479   4.018 -0.1404  0.1587 -0.6560
  538MOL0     C70896   8.369   2.578   4.103 -0.1010 -0.0706 -0.8785
  538MOL0     C70897   8.432   2.631   4.245  0.7454 -0.5526 -0.8255
  538MOL0     C70898   8.577   2.687   4.229 -1.2055  0.2066 -0.0813
  538MOL0     C70899   8.613   2.739   4.357  0.1437  0.9296 -0.1920
  538MOL0     C70900   8.754   2.813   4.354  0.2421  0.2925  0.1009
  538MOL0     N70901   8.854   2.713   4.332 -0.2386  0.2466 -0.5030
  538MOL0     C70902   8.917   2.695   4.212 -0.0285 -0.4695  0.6878
  538MOL0     C70903   8.997   2.586   4.237  0.8215  0.1721  0.8066
  538MOL0     C70904   9.081   2.511   4.140 -0.5706 -0.3344 -0.9407
  538MOL0     C70905   9.212   2.454   4.202  0.0232 -0.8470 -0.4685
  538MOL0     C70906   9.323   2.441   4.098 -0.4207  0.1420  0.7497
  538MOL0     C70907   9.457   2.372   4.148  0.9605  0.2581 -0.1410
  538MOL0     O70908   9.517   2.305   4.031  0.3527 -0.6337  0.0585
  538MOL0     C70909   9.638   2.242   4.046 -0.1479 -0.1375 -0.7850
  538MOL0     C70910   9.696   2.226   4.169  0.7797  0.6102 -0.3151
  538MOL0     C70911   9.811   2.154   4.185 -0.2351  0.2859 -0.4864
  538MOL0     C70912   9.880   2.105   4.074  0.6190  0.5305  0.4053
  538MOL0     C70913   9.998   2.018   4.091 -0.0088  0.7114  0.6747
  538MOL0     O70914  10.056   1.970   3.977 -0.0531  0.8833 -0.0006
  538MOL0     C70915  10.163   1.882   3.990 -0.1099 -0.0907 -1.0058
  538MOL0     C70916  10.158   1.772   4.075  0.9461 -1.0895 -0.6712
  538MOL0     C70917  10.258   1.674   4.070 -0.0047 -0.5734  0.3788
  538MOL0     C70918  10.366   1.690   3.982  0.1654 -0.0205 -0.6149
  538MOL0     O70919  10.476   1.608   3.969  0.3405 -0.1091  0.2185
  538MOL0     C70920  10.491   1.483   4.045 -0.6217 -0.5394 -0.0256
  538MOL0     C70921  10.641   1.439   4.038  0.3539 -0.0535 -0.3225
  538MOL0     C70922  10.702   1.440   4.176 -0.5069 -1.3007 -0.0882
  538MOL0     C70923  10.851   1.424   4.170 -0.3976 -0.9559  0.1858
  538MOL0     C70924  10.903   1.384   4.313 -0.3328  0.7683  0.3312
  538MOL0     C70925  11.046   1.323   4.306 -0.7442 -0.0784  0.5924
  538MOL0     C70926  11.150   1.416   4.243  0.0966 -0.1568  0.1195
  538MOL0     C70927  11.256   1.450   4.347 -0.1342 -0.2363 -0.1059
  538MOL0    Cl70928  11.327   1.291   4.390 -0.0627 -0.1015  0.0554
  538MOL0     C70929  10.368   1.800   3.904  0.1029 -0.6727  0.6365
  538MOL0     C70930  10.273   1.899   3.911 -0.0025  0.9778  0.3502
  538MOL0     O70931  10.043   2.010   4.207  0.3450  0.3069  0.2476
  538MOL0     C70932   9.822   2.108   3.949  1.0432 -0.1095  0.4351
  538MOL0     C70933   9.706   2.190   3.937 -0.0926  0.5871 -0.5719
  538MOL0     N70934   8.979   2.547   4.366 -0.1235 -0.5859  0.5865
  538MOL0     N70935   8.894   2.625   4.429  0.2145 -0.3622  0.6369
  538MOL0     C70936   8.714   2.162   3.735  0.3492  0.1329 -1.0426
  538MOL0     C70937   8.826   2.076   3.747 -0.0862 -0.1259 -0.3516
  538MOL0     C70938   9.186   1.890   3.939  0.2561 -0.1988  0.7645
  538MOL0     C70939   9.312   1.961   3.928 -0.2995  0.0211  1.1887
  538MOL0     C70940   9.426   1.904   3.991 -0.1170  0.6342 -0.2091
  538MOL0     C70941   9.418   1.781   4.062  1.0182 -0.2548 -0.0112
  538MOL0     O70942   9.524   1.738   4.136  0.1520 -0.0455  0.0831
  538MOL0     C70943   9.624   1.837   4.188 -0.1606  0.2464  0.5225
  538MOL0     C70944   9.685   1.783   4.316  0.7371 -0.7613 -0.0585
  538MOL0     C70945   9.799   1.678   4.290  0.3797 -0.6242  0.3386
  538MOL0     C70946   9.779   1.585   4.169 -0.0029  0.3714  0.8872
  538MOL0     C70947   9.885   1.493   4.182 -0.1894 -0.0961  0.7099
  538MOL0     C70948   9.964   1.406   4.170 -0.1300  0.1010 -0.4052
  538MOL0     C70949   9.295   1.720   4.073  0.1253  0.9186  0.4719
  538MOL0     C70950   9.186   1.770   4.009 -0.0764 -0.7078 -0.0128
  538MOL0     H70951   9.039   2.298   3.873  0.6754 -0.0764 -0.6410
  538MOL0     H70952   8.835   2.455   3.843  1.7331 -0.6474 -0.2447
  538MOL0     H70953   8.500   2.248   3.889  1.1504 -2.0530 -2.7424
  538MOL0     H70954   8.407   2.268   3.741 -1.2480 -0.3454  0.8812
  538MOL0     H70955   8.291   2.409   3.883  0.7371 -0.0865  1.4536
  538MOL0     H70956   8.394   2.522   3.803  2.4812  2.2837  2.1692
  538MOL0     H70957   8.551   2.529   3.993 -2.3285  2.8194 -4.4931
  538MOL0     H70958   8.469   2.383   4.071  0.1112  0.8056  0.5010
  538MOL0     H70959   8.355   2.667   4.041  0.4011  0.7632  0.1882
  538MOL0     H70960   8.268   2.542   4.127 -0.0919  1.4360  1.8103
  538MOL0     H70961   8.429   2.541   4.307  1.6728 -1.2395 -1.7544
  538MOL0     H70962   8.367   2.715   4.271  2.8208  2.1262 -3.5464
  538MOL0     H70963   8.590   2.775   4.165  1.5309  1.3107  1.8078
  538MOL0     H70964   8.643   2.605   4.202 -1.9312 -1.7253  3.3566
  538MOL0     H70965   8.535   2.805   4.394 -0.0935  0.3753  0.3090
  538MOL0     H70966   8.620   2.654   4.426 -0.3475  0.3099 -0.8888
  538MOL0     H70967   8.762   2.850   4.456  0.7708 -0.3525  0.3013
  538MOL0     H70968   8.752   2.892   4.278  1.8008 -0.2541 -0.5397
  538MOL0     H70969   8.896   2.742   4.116  1.0052 -4.1466 -1.5571
  538MOL0     H70970   9.106   2.577   4.056  2.2200  0.3743  0.3424
  538MOL0     H70971   9.023   2.429   4.096 -1.0845  0.0974 -1.0694
  538MOL0     H70972   9.194   2.361   4.256  0.0529  0.3182  1.6301
  538MOL0     H70973   9.247   2.529   4.274  0.0951 -0.9432 -0.4026
  538MOL0     H70974   9.279   2.389   4.013 -3.7140  3.6861 -0.0007
  538MOL0     H70975   9.361   2.538   4.067  3.5498 -0.5537  2.7770
  538MOL0     H70976   9.440   2.308   4.235  0.2222  3.3038  2.1566
  538MOL0     H70977   9.521   2.454   4.181  1.2555 -0.5800  1.4729
  538MOL0     H70978   9.642   2.258   4.257 -0.6188 -1.0514 -0.5079
  538MOL0     H70979   9.856   2.133   4.282  0.5561 -0.0061 -0.9068
  538MOL0     H70980  10.069   1.755   4.134 -0.4192  3.7433 -0.9681
  538MOL0     H70981  10.253   1.585   4.132 -3.9396 -2.1426 -1.8919
  538MOL0     H70982  10.429   1.405   3.998  1.6749 -1.9140 -0.9368
  538MOL0     H70983  10.466   1.487   4.152 -0.7154 -2.2708  0.0596
  538MOL0     H70984  10.675   1.519   3.971 -3.2028  3.4687  1.6509
  538MOL0     H70985  10.661   1.339   3.997  0.6711  0.8884 -2.6455
  538MOL0     H70986  10.663   1.360   4.241  1.4372 -2.1848  0.0489
  538MOL0     H70987  10.688   1.533   4.233  2.2297 -1.0563  0.2978
  538MOL0     H70988  10.877   1.355   4.089  1.7194  2.0693 -1.8920
  538MOL0     H70989  10.896   1.521   4.150 -0.9655 -0.7030  0.1266
  538MOL0     H70990  10.837   1.308   4.355 -0.3398  0.6383  0.0812
  538MOL0     H70991  10.916   1.467   4.383  2.6153  2.4809 -1.9951
  538MOL0     H70992  11.048   1.226   4.256  0.5006 -0.2367  0.9345
  538MOL0     H70993  11.082   1.310   4.408  3.3723 -0.1028 -0.6721
  538MOL0     H70994  11.203   1.370   4.160  1.3061 -0.4433  1.0255
  538MOL0     H70995  11.116   1.517   4.218 -0.9469  0.4126  3.3642
  538MOL0     H70996  11.211   1.496   4.436  2.4940 -0.2945  1.3420
  538MOL0     H70997  11.327   1.518   4.300 -2.6254  1.8776 -1.0433
  538MOL0     H70998  10.453   1.800   3.837  1.6224  2.1603  2.3983
  538MOL0     H70999  10.277   1.973   3.831 -0.6624 -0.0310 -0.6614
  538MOL0     H71000   9.847   2.060   3.855  1.4304 -1.7530  1.3373
  538MOL0     H71001   9.650   2.198   3.845 -0.7663  0.2586 -0.1951
  538MOL0     H71002   8.631   2.112   3.686  0.3851  0.3418 -1.3189
  538MOL0     H71003   8.828   1.977   3.703  1.0598 -0.4506  0.3632
  538MOL0     H71004   9.315   2.054   3.873 -0.6175 -0.7673 -0.1968
  538MOL0     H71005   9.523   1.953   3.981  0.4728  0.9730  4.4938
  538MOL0     H71006   9.580   1.930   4.224  0.5841 -0.2185  2.7478
  538MOL0     H71007   9.698   1.862   4.112 -0.7212 -0.8250 -0.4177
  538MOL0     H71008   9.723   1.861   4.383 -1.1191  0.0639  0.1136
  538MOL0     H71009   9.607   1.738   4.378  0.7642 -0.7840 -0.0418
  538MOL0     H71010   9.816   1.608   4.372 -0.5775 -2.0853 -0.6594
  538MOL0     H71011   9.890   1.734   4.269  0.7014 -1.7959 -1.6735
  538MOL0     H71012   9.684   1.531   4.162  0.4146 -0.2519 -0.0665
  538MOL0     H71013   9.794   1.633   4.072  1.5641 -0.8965  0.4574
  538MOL0     H71014  10.040   1.331   4.155 -2.8068 -2.2493 -3.6018
  538MOL0     H71015   9.277   1.633   4.134  0.0025  0.3989 -0.2920
  538MOL0     H71016   9.091   1.717   3.999  0.5419 -1.3844 -3.8767
  539MOL0     O71017   2.728   8.275  10.927  0.1933  0.9574  0.2216
  539MOL0     C71018   2.719   8.155  10.913  0.0440 -0.0813 -0.3789
  539MOL0     O71019   2.635   8.073  10.983 -0.3300  0.2737  0.3336
  539MOL0     C71020   2.544   8.134  11.068  0.1365 -0.2524 -0.7742
  539MOL0     C71021   2.584   8.195  11.181 -0.0184  0.7629 -1.5032
  539MOL0     C71022   2.497   8.251  11.272  0.7386 -0.6465 -0.0171
  539MOL0     C71023   2.360   8.236  11.257 -0.1757  0.4454  0.2170
  539MOL0     O71024   2.278   8.275  11.364 -0.2812  0.1449  0.0826
  539MOL0     C71025   2.143   8.275  11.330  0.4808 -0.1856  0.1058
  539MOL0     C71026   2.066   8.329  11.453 -0.3251  0.4843 -0.4199
  539MOL0     C71027   1.917   8.304  11.457  0.3323 -0.4696  0.0283
  539MOL0     C71028   1.859   8.376  11.574 -0.6538 -0.3174 -0.5754
  539MOL0     C71029   1.706   8.377  11.585 -0.5615 -0.8776 -0.1516
  539MOL0     C71030   1.661   8.472  11.701 -1.0985 -0.9200  0.8512
  539MOL0     C71031   1.506   8.483  11.678 -0.4634  0.2375  0.4315
  539MOL0     C71032   1.446   8.582  11.778 -0.2500  0.5851 -0.6362
  539MOL0     N71033   1.307   8.614  11.747  0.2165 -0.5911 -0.4464
  539MOL0     C71034   1.192   8.535  11.763 -2.0617 -0.6093  0.3144
  539MOL0     C71035   1.097   8.590  11.685  0.5782 -0.3513 -0.2897
  539MOL0     C71036   0.963   8.543  11.643  0.0065 -0.0136  0.1796
  539MOL0     C71037   0.876   8.488  11.763 -0.5411 -0.1660  0.1317
  539MOL0     C71038   0.820   8.592  11.863  0.4975 -0.8407  0.3446
  539MOL0     C71039   0.744   8.713  11.801  0.5867 -0.2395  0.8732
  539MOL0     O71040   0.625   8.681  11.727  0.0256  0.1757  0.0116
  539MOL0     C71041   0.495   8.725  11.755  0.7552  0.1590  0.0462
  539MOL0     C71042   0.468   8.857  11.791  0.0415  0.4888  0.2755
  539MOL0     C71043   0.329   8.894  11.813 -0.2339 -0.2786 -0.4275
  539MOL0     C71044   0.228   8.805  11.777 -0.3487 -0.0683 -0.0374
  539MOL0     C71045   0.088   8.854  11.755 -0.3042 -0.0700 -0.7263
  539MOL0     O71046  -0.000   8.757  11.726  0.1641  0.2496 -0.3881
  539MOL0     C71047  -0.133   8.789  11.693  0.3061  0.2035  0.8520
  539MOL0     C71048  -0.208   8.702  11.604  0.0718 -0.1106 -1.2684
  539MOL0     C71049  -0.333   8.723  11.556  0.1224  0.0426 -0.6168
  539MOL0     C71050  -0.408   8.834  11.612 -0.1350  0.3895 -0.0904
  539MOL0     O71051  -0.534   8.864  11.564 -0.1900 -0.1294 -0.5194
  539MOL0     C71052  -0.615   8.951  11.646  0.3222  0.2951  0.1067
  539MOL0     C71053  -0.760   8.944  11.594  0.2617  0.0738 -0.3545
  539MOL0     C71054  -0.864   8.974  11.707  0.4216 -0.9063 -1.2750
  539MOL0     C71055  -1.000   8.914  11.685  0.3489 -0.4487 -0.0747
  539MOL0     C71056  -1.115   8.986  11.756 -0.3123 -0.0705 -1.0749
  539MOL0     C71057  -1.241   8.907  11.714  0.4177 -0.5618 -0.3130
  539MOL0     C71058  -1.357   8.916  11.817 -0.4627 -0.1346  0.4079
  539MOL0     C71059  -1.480   8.843  11.764 -0.7935  0.2422  0.4004
  539MOL0    Cl71060  -1.608   8.799  11.894  0.0201  0.0262  0.1020
  539MOL0     C71061  -0.336   8.922  11.692  0.1304 -1.0617  0.0251
  539MOL0     C71062  -0.206   8.896  11.741 -0.2122 -0.3908  0.1625
  539MOL0     O71063   0.065   8.972  11.763  1.2509 -0.4702  0.3509
  539MOL0     C71064   0.258   8.673  11.745 -0.3758  0.0155  0.6640
  539MOL0     C71065   0.389   8.639  11.734  0.7616 -0.1566 -0.3298
  539MOL0     N71066   1.143   8.717  11.648  0.8997 -0.3113 -0.6029
  539MOL0     N71067   1.261   8.730  11.697  0.3734  0.4748 -0.3363
  539MOL0     C71068   2.311   8.166  11.144 -0.7991 -0.6434 -0.4799
  539MOL0     C71069   2.401   8.113  11.054 -0.7839 -1.2665  0.7971
  539MOL0     C71070   2.813   8.090  10.818  0.1342 -0.4080  0.2550
  539MOL0     C71071   2.811   7.953  10.802 -0.1748 -0.6640 -0.5959
  539MOL0     C71072   2.910   7.896  10.721  0.1591 -0.3913 -0.5854
  539MOL0     C71073   3.005   7.961  10.647  0.2319  0.3597  0.1328
  539MOL0     O71074   3.100   7.890  10.583  0.0366  0.2760  0.5732
  539MOL0     C71075   3.184   7.957  10.485  0.3367  0.3789  0.7097
  539MOL0     C71076   3.249   7.857  10.389  0.6624  0.6901  0.2965
  539MOL0     C71077   3.346   7.928  10.295 -0.2987  0.6101  0.1566
  539MOL0     C71078   3.390   7.820  10.198 -0.4723  1.5704  0.5514
  539MOL0     C71079   3.295   7.797  10.089  0.1363 -1.1956 -0.3460
  539MOL0     C71080   3.222   7.769   9.999  0.5307  0.1388 -0.2419
  539MOL0     C71081   2.990   8.102  10.654 -1.1961  0.4029  0.5281
  539MOL0     C71082   2.904   8.166  10.739 -0.2491 -0.2208  0.4881
  539MOL0     H71083   2.688   8.188  11.211 -0.3255  1.6309 -0.1097
  539MOL0     H71084   2.533   8.313  11.354  0.9345 -1.0386  0.1949
  539MOL0     H71085   2.111   8.173  11.305  2.0017 -0.0259 -2.9725
  539MOL0     H71086   2.136   8.346  11.248  0.0312  0.7398  0.9209
  539MOL0     H71087   2.082   8.436  11.467 -2.6411  0.7341  0.8271
  539MOL0     H71088   2.106   8.288  11.546  0.8048  1.0787 -0.6269
  539MOL0     H71089   1.900   8.196  11.454  0.0486 -0.4060 -2.1878
  539MOL0     H71090   1.874   8.352  11.369  5.7594  3.0689 -1.2401
  539MOL0     H71091   1.901   8.321  11.659  1.1770  1.2926 -0.3874
  539MOL0     H71092   1.892   8.480  11.577  0.5290 -0.6912  0.5118
  539MOL0     H71093   1.673   8.273  11.596  3.6604 -2.4448 -0.3417
  539MOL0     H71094   1.671   8.418  11.490  1.9701 -0.0795 -0.8184
  539MOL0     H71095   1.720   8.563  11.688  1.0997 -2.1143  1.9243
  539MOL0     H71096   1.691   8.423  11.794  0.7495 -2.7229 -0.5960
  539MOL0     H71097   1.489   8.535  11.583  0.5419 -0.9670 -0.4281
  539MOL0     H71098   1.455   8.387  11.666 -0.6849  0.2869  0.9438
  539MOL0     H71099   1.507   8.673  11.783  0.7245  0.0193 -1.5093
  539MOL0     H71100   1.456   8.538  11.878 -2.2506 -1.1269 -1.1098
  539MOL0     H71101   1.192   8.435  11.805  0.2698 -0.5295  0.6317
  539MOL0     H71102   0.987   8.461  11.576  0.4013  0.5904 -0.4295
  539MOL0     H71103   0.911   8.619  11.584  1.6003  0.4212 -0.7138
  539MOL0     H71104   0.943   8.415  11.808 -0.6273 -0.9448 -0.9453
  539MOL0     H71105   0.798   8.430  11.712  0.2181  0.0117 -1.3046
  539MOL0     H71106   0.755   8.537  11.932  2.9070 -1.9406  1.8711
  539MOL0     H71107   0.894   8.640  11.928 -3.0351  0.7298  3.6456
  539MOL0     H71108   0.821   8.756  11.736 -0.8213  1.4399  0.2254
  539MOL0     H71109   0.714   8.780  11.882 -2.1765 -0.6060  0.2550
  539MOL0     H71110   0.543   8.934  11.802  1.1104 -0.3004 -1.2769
  539MOL0     H71111   0.306   8.996  11.843  0.0547 -0.7158  1.3776
  539MOL0     H71112  -0.155   8.607  11.598  2.5390  1.0709  0.1462
  539MOL0     H71113  -0.380   8.650  11.491  2.2349 -2.4183  0.4413
  539MOL0     H71114  -0.586   9.056  11.659  3.6028 -0.3954 -0.6062
  539MOL0     H71115  -0.621   8.915  11.749 -3.4290 -2.6282 -0.9262
  539MOL0     H71116  -0.780   8.846  11.549 -1.6943  0.9132 -1.4655
  539MOL0     H71117  -0.776   9.022  11.519 -3.4805  0.4708  0.6534
  539MOL0     H71118  -0.872   9.080  11.730  1.7298 -0.8714 -0.9104
  539MOL0     H71119  -0.824   8.932  11.800 -0.4830 -0.2288 -0.5552
  539MOL0     H71120  -1.010   8.934  11.578  0.8709  1.0792  0.1367
  539MOL0     H71121  -1.002   8.806  11.702 -0.5076 -0.2755  1.0849
  539MOL0     H71122  -1.116   9.090  11.723  4.2610  0.0011 -1.6728
  539MOL0     H71123  -1.106   8.980  11.865  1.6747 -1.4750 -1.2606
  539MOL0     H71124  -1.213   8.801  11.705  0.0377 -0.8040  1.1316
  539MOL0     H71125  -1.270   8.936  11.612  0.2352 -0.1207 -0.1376
  539MOL0     H71126  -1.318   8.859  11.902 -0.9932 -2.0204 -0.5604
  539MOL0     H71127  -1.378   9.019  11.848 -0.4766 -0.9740  3.4577
  539MOL0     H71128  -1.440   8.749  11.725  0.7087  1.3296 -0.8199
  539MOL0     H71129  -1.511   8.888  11.669  1.9317 -1.8277 -1.6257
  539MOL0     H71130  -0.387   9.011  11.727 -0.7484 -1.6764  0.3106
  539MOL0     H71131  -0.173   8.967  11.816 -2.5940  0.7676  0.1934
  539MOL0     H71132   0.179   8.600  11.730 -0.2908  0.0724 -0.0890
  539MOL0     H71133   0.417   8.538  11.706  1.8836  0.3075 -0.9513
  539MOL0     H71134   2.209   8.132  11.128 -0.5994 -1.1021 -0.8103
  539MOL0     H71135   2.370   8.046  10.975  0.8506 -0.9632 -0.1563
  539MOL0     H71136   2.742   7.885  10.851  0.4733 -0.0844  1.2040
  539MOL0     H71137   2.893   7.789  10.710 -2.7873 -0.2212  1.2200
  539MOL0     H71138   3.254   8.022  10.539  0.3609  2.3138 -1.4998
  539MOL0     H71139   3.117   8.020  10.426 -1.8069  0.2001  2.7989
  539MOL0     H71140   3.289   7.778  10.452 -2.1116 -1.9658 -1.0208
  539MOL0     H71141   3.176   7.804  10.327  1.5321  1.1945 -1.2167
  539MOL0     H71142   3.435   7.967  10.346  1.3430 -1.3510 -1.0206
  539MOL0     H71143   3.306   8.009  10.234  2.3089 -0.2761 -3.0175
  539MOL0     H71144   3.484   7.849  10.152  0.2153  1.6882  1.9739
  539MOL0     H71145   3.414   7.725  10.247 -1.3864  0.9046 -0.2380
  539MOL0     H71146   3.176   7.735   9.909  1.5997 -0.1871 -0.6784
  539MOL0     H71147   3.070   8.148  10.598 -2.4201  0.2417 -1.4409
  539MOL0     H71148   2.899   8.274  10.734 -1.8905 -0.2867  0.2048
  540MOL0     O71149   8.973   7.223   9.212 -0.0031 -0.1079  0.6460
  540MOL0     C71150   8.995   7.306   9.129  0.5253  0.1875 -0.9443
  540MOL0     O71151   8.916   7.409   9.095  0.4847  0.5469  0.1445
  540MOL0     C71152   8.789   7.421   9.161 -0.1836 -0.6957  0.4854
  540MOL0     C71153   8.760   7.520   9.250 -0.3775  0.2368 -0.1844
  540MOL0     C71154   8.637   7.550   9.308  0.3618 -0.2161  0.0694
  540MOL0     C71155   8.531   7.466   9.279 -0.1407  0.6664 -0.2747
  540MOL0     O71156   8.416   7.489   9.336 -0.2526  0.3075  0.0785
  540MOL0     C71157   8.320   7.514   9.232 -0.1869  0.8838  0.2801
  540MOL0     C71158   8.179   7.503   9.285 -0.0946  0.3532  0.3336
  540MOL0     C71159   8.156   7.374   9.360  0.5679  0.5638  0.3037
  540MOL0     C71160   8.004   7.325   9.384 -0.7978 -0.2201 -1.2967
  540MOL0     C71161   7.988   7.171   9.408 -0.3164  0.1915 -0.1762
  540MOL0     C71162   7.850   7.132   9.452  0.6891 -0.2018  0.2256
  540MOL0     C71163   7.837   6.973   9.439  0.2484  1.2924 -0.0747
  540MOL0     C71164   7.744   6.914   9.543  0.5258 -0.3468 -0.1801
  540MOL0     N71165   7.600   6.908   9.502 -0.1147  0.5325  0.0332
  540MOL0     C71166   7.514   7.022   9.503  0.1588 -0.3324  0.1284
  540MOL0     C71167   7.389   6.977   9.478 -0.5048  0.2878  0.3432
  540MOL0     C71168   7.271   7.062   9.445 -0.4956 -0.5518 -0.3835
  540MOL0     C71169   7.291   7.150   9.317 -0.0084  0.0682 -0.6889
  540MOL0     C71170   7.313   7.072   9.187  0.2035 -0.4637 -0.3803
  540MOL0     C71171   7.376   7.156   9.080  0.1568 -0.0647  0.5494
  540MOL0     O71172   7.466   7.257   9.133 -0.1115 -0.4597  1.1000
  540MOL0     C71173   7.595   7.237   9.094  0.3063 -0.4479 -0.5216
  540MOL0     C71174   7.658   7.353   9.053  0.2308  0.6209 -0.4883
  540MOL0     C71175   7.788   7.348   9.012 -0.3083 -0.8858 -0.2552
  540MOL0     C71176   7.864   7.228   9.032  0.0249  0.2852  0.2384
  540MOL0     C71177   8.009   7.224   9.012  0.1505  0.0313 -0.4058
  540MOL0     O71178   8.050   7.323   8.930 -0.8576 -0.2507 -0.3813
  540MOL0     C71179   8.179   7.317   8.886 -0.4941 -0.1494 -0.8415
  540MOL0     C71180   8.242   7.436   8.889  0.7118  0.2684 -0.2564
  540MOL0     C71181   8.368   7.460   8.852 -0.5394 -0.5028  0.4246
  540MOL0     C71182   8.450   7.355   8.801 -0.6540  0.4942  0.4909
  540MOL0     O71183   8.581   7.373   8.759  0.3025 -0.2957  0.3384
  540MOL0     C71184   8.626   7.508   8.727 -0.2692  0.3145  0.9195
  540MOL0     C71185   8.782   7.505   8.709  0.3167  0.3240 -0.0189
  540MOL0     C71186   8.846   7.639   8.658 -0.2254 -0.2719  0.0070
  540MOL0     C71187   8.994   7.619   8.628 -0.9129 -0.2483 -0.8758
  540MOL0     C71188   9.028   7.589   8.479 -0.1417  0.2640 -0.4281
  540MOL0     C71189   9.175   7.570   8.450  0.3422  0.0083 -0.6237
  540MOL0     C71190   9.205   7.490   8.322  0.4413 -0.9794  0.2376
  540MOL0     C71191   9.349   7.524   8.275 -0.7527  0.6394 -1.2699
  540MOL0    Cl71192   9.347   7.452   8.114 -0.2381 -0.2513  0.5064
  540MOL0     C71193   8.388   7.227   8.796  0.8831  0.2159  0.4826
  540MOL0     C71194   8.255   7.203   8.841  0.2740  0.3475  0.0113
  540MOL0     O71195   8.075   7.134   9.064 -0.0306 -0.7066 -0.0567
  540MOL0     C71196   7.798   7.105   9.060  0.0305 -0.6788  0.1096
  540MOL0     C71197   7.667   7.118   9.104 -0.6323  0.1033 -0.5289
  540MOL0     N71198   7.394   6.846   9.466  0.3715  0.9183 -0.1789
  540MOL0     N71199   7.519   6.802   9.471 -0.1519 -0.3020  0.1434
  540MOL0     C71200   8.558   7.356   9.198 -0.7423  0.5894 -0.2823
  540MOL0     C71201   8.682   7.335   9.134 -0.0693 -0.5219 -0.6456
  540MOL0     C71202   9.123   7.292   9.062 -0.2143  0.1059 -0.4887
  540MOL0     C71203   9.171   7.388   8.974 -1.0645 -0.2031  0.3455
  540MOL0     C71204   9.296   7.381   8.913  0.3280  0.7349  0.5193
  540MOL0     C71205   9.377   7.270   8.943  0.2731  0.2685  0.5657
  540MOL0     O71206   9.503   7.255   8.883  0.0212  1.0163 -0.3942
  540MOL0     C71207   9.617   7.205   8.959  0.5009 -0.1101 -0.8419
  540MOL0     C71208   9.692   7.093   8.887  0.7574  0.2805 -0.3941
  540MOL0     C71209   9.619   6.968   8.911  0.5127  0.1865 -0.0790
  540MOL0     C71210   9.695   6.841   8.876  0.3394  0.1400  0.4469
  540MOL0     C71211   9.761   6.796   8.999 -0.1098  1.0694  0.4667
  540MOL0     C71212   9.787   6.758   9.110  0.1687  0.5914  0.3210
  540MOL0     C71213   9.333   7.179   9.038 -0.8258 -0.7361 -0.2011
  540MOL0     C71214   9.211   7.189   9.098  0.1695  0.0122  0.2392
  540MOL0     H71215   8.832   7.598   9.276  0.9244 -0.9280 -0.2065
  540MOL0     H71216   8.621   7.639   9.368 -0.9323 -1.3119  1.4210
  540MOL0     H71217   8.334   7.452   9.143  1.2647  0.1937  0.9486
  540MOL0     H71218   8.328   7.619   9.203 -2.7989  0.8587 -0.7527
  540MOL0     H71219   8.102   7.529   9.211 -0.5273  3.3829  1.7054
  540MOL0     H71220   8.162   7.580   9.360 -1.1197  1.3628 -0.8794
  540MOL0     H71221   8.206   7.380   9.457  0.7151 -3.2315  0.6045
  540MOL0     H71222   8.201   7.289   9.307 -1.8472 -1.1250  0.8098
  540MOL0     H71223   7.977   7.386   9.471 -1.9881 -1.7640 -0.5271
  540MOL0     H71224   7.934   7.359   9.307  0.6865  3.4140 -1.2530
  540MOL0     H71225   8.074   7.140   9.469 -0.3083  0.1025 -0.2337
  540MOL0     H71226   8.003   7.127   9.309  1.0902 -0.1214  0.1536
  540MOL0     H71227   7.786   7.179   9.377  0.6843  1.2141  1.0798
  540MOL0     H71228   7.823   7.181   9.546 -0.6900 -1.1029  0.3320
  540MOL0     H71229   7.817   6.949   9.334 -0.8286 -1.5122  0.7030
  540MOL0     H71230   7.932   6.929   9.472 -0.2673 -0.3663 -0.7277
  540MOL0     H71231   7.742   6.972   9.636 -2.1458 -2.8571  1.4929
  540MOL0     H71232   7.777   6.814   9.571 -1.0366 -0.1759  2.6947
  540MOL0     H71233   7.551   7.123   9.516  1.6603 -0.7978 -0.2574
  540MOL0     H71234   7.254   7.123   9.534  0.4259 -1.0915  0.1893
  540MOL0     H71235   7.186   6.994   9.444 -0.8661 -0.1600  1.2622
  540MOL0     H71236   7.375   7.213   9.349 -1.0425  0.0599  2.3643
  540MOL0     H71237   7.205   7.217   9.311  0.7087  0.9422 -1.4642
  540MOL0     H71238   7.372   6.985   9.213  1.8944  0.0810 -2.1689
  540MOL0     H71239   7.219   7.030   9.149  0.5171  0.4563 -2.2844
  540MOL0     H71240   7.298   7.208   9.023 -1.9992 -1.6825  1.8778
  540MOL0     H71241   7.431   7.086   9.016 -1.8736 -1.2548  0.0219
  540MOL0     H71242   7.603   7.446   9.062 -0.2976  0.3094 -0.4167
  540MOL0     H71243   7.838   7.429   8.960  0.2230 -0.6356  0.6356
  540MOL0     H71244   8.175   7.510   8.931 -0.5782 -0.0897 -1.5940
  540MOL0     H71245   8.399   7.564   8.849  0.1693 -0.7313 -0.7859
  540MOL0     H71246   8.603   7.580   8.806  0.5433  2.1264 -0.4273
  540MOL0     H71247   8.586   7.552   8.635 -0.2368  1.7676  1.5714
  540MOL0     H71248   8.810   7.433   8.632  0.0335  0.1658  0.0260
  540MOL0     H71249   8.828   7.472   8.802  3.8056 -0.9949 -2.0563
  540MOL0     H71250   8.839   7.720   8.731 -0.4541 -0.0412 -0.2728
  540MOL0     H71251   8.794   7.672   8.568  0.0232  1.4253  0.4625
  540MOL0     H71252   9.042   7.716   8.646 -0.9297 -0.2036 -1.0653
  540MOL0     H71253   9.032   7.541   8.693 -1.7012  0.9007  1.0417
  540MOL0     H71254   8.987   7.667   8.413  0.1516  0.3906 -0.4654
  540MOL0     H71255   8.980   7.495   8.449 -1.0583  1.1884 -2.0192
  540MOL0     H71256   9.218   7.512   8.533  0.1057  2.0291  0.9742
  540MOL0     H71257   9.219   7.670   8.446  0.7880 -0.0532  1.4787
  540MOL0     H71258   9.184   7.385   8.346 -0.6482 -0.4848  1.4944
  540MOL0     H71259   9.138   7.522   8.242  3.0557  0.7233 -1.4150
  540MOL0     H71260   9.425   7.484   8.343 -0.6638  0.6655 -1.3518
  540MOL0     H71261   9.372   7.631   8.274  3.2013  0.0052  1.0055
  540MOL0     H71262   8.447   7.137   8.785 -1.7171 -1.4083 -1.5486
  540MOL0     H71263   8.212   7.103   8.831  1.3433  0.0503 -2.2767
  540MOL0     H71264   7.845   7.008   9.070  2.1686  0.0419 -1.8944
  540MOL0     H71265   7.611   7.038   9.151  1.6759 -0.4019  1.5829
  540MOL0     H71266   8.476   7.288   9.175  0.2821 -0.8830  0.2323
  540MOL0     H71267   8.697   7.251   9.067  2.4671  0.4231 -1.3971
  540MOL0     H71268   9.096   7.459   8.939  2.3635  2.6148 -2.0108
  540MOL0     H71269   9.322   7.442   8.827 -2.2969 -0.4439 -1.2348
  540MOL0     H71270   9.587   7.176   9.060  0.3138  1.9304 -0.2820
  540MOL0     H71271   9.687   7.287   8.976 -0.4452  0.5084  0.1439
  540MOL0     H71272   9.683   7.128   8.784 -0.0748 -0.5597 -0.6203
  540MOL0     H71273   9.796   7.083   8.920  1.0652  0.1523 -1.3509
  540MOL0     H71274   9.535   6.967   8.841  0.1019 -0.8795  0.3966
  540MOL0     H71275   9.580   6.958   9.013 -0.5686  0.9376 -0.4007
  540MOL0     H71276   9.628   6.757   8.853  0.3364 -0.0253  1.0431
  540MOL0     H71277   9.772   6.862   8.801  2.0910 -0.4675  1.9893
  540MOL0     H71278   9.796   6.723   9.211 -1.6864  0.7247  0.5637
  540MOL0     H71279   9.400   7.098   9.065  1.5629  0.6993 -1.5023
  540MOL0     H71280   9.175   7.119   9.173 -3.0580  0.1136 -1.0544
  541MOL0     O71281   2.946   4.607   3.850 -0.2269 -0.3788  0.2377
  541MOL0     C71282   3.041   4.597   3.922  0.2838 -0.0203 -0.6214
  541MOL0     O71283   3.039   4.545   4.046  0.6171  0.4347 -0.2854
  541MOL0     C71284   2.915   4.527   4.096  0.6494 -0.2920 -0.2148
  541MOL0     C71285   2.845   4.633   4.157  0.5693  0.4259 -0.2699
  541MOL0     C71286   2.711   4.614   4.204  0.1292 -0.9745 -0.6432
  541MOL0     C71287   2.646   4.491   4.186 -0.4139  0.8221  0.9261
  541MOL0     O71288   2.520   4.459   4.241 -0.1243  0.0322 -0.4478
  541MOL0     C71289   2.404   4.540   4.190 -0.1873  0.1121  0.3958
  541MOL0     C71290   2.271   4.541   4.261  0.1756  0.8867  0.0086
  541MOL0     C71291   2.173   4.426   4.233  0.5945 -0.2931 -0.2899
  541MOL0     C71292   2.053   4.424   4.323 -0.3843 -1.1916 -0.3249
  541MOL0     C71293   1.961   4.306   4.286  0.1083  0.9810 -0.5997
  541MOL0     C71294   1.826   4.310   4.364  0.6842 -0.3675 -0.6404
  541MOL0     C71295   1.862   4.250   4.508  0.1893  0.3832 -0.5209
  541MOL0     C71296   1.759   4.255   4.606  0.0157 -0.2571 -0.5935
  541MOL0     N71297   1.674   4.371   4.605  0.6548 -0.3572 -0.6270
  541MOL0     C71298   1.712   4.495   4.646 -0.1726 -0.4607  0.8713
  541MOL0     C71299   1.598   4.568   4.649  0.7112  0.2461  0.1019
  541MOL0     C71300   1.595   4.709   4.698 -0.2535 -0.1678 -0.1832
  541MOL0     C71301   1.455   4.772   4.733 -0.0701 -0.0685  0.3598
  541MOL0     C71302   1.461   4.904   4.830  1.0291 -0.5970 -0.7127
  541MOL0     C71303   1.317   4.932   4.887  0.6006  0.3209  0.2702
  541MOL0     O71304   1.236   4.974   4.774 -0.1867 -0.8307 -0.5660
  541MOL0     C71305   1.102   4.960   4.784  0.6568 -0.3521 -0.2706
  541MOL0     C71306   1.026   4.980   4.668 -0.6505 -0.3249 -0.5183
  541MOL0     C71307   0.892   4.988   4.672  0.0593  0.2528  0.5294
  541MOL0     C71308   0.821   4.985   4.789  0.6115 -0.2653  0.5740
  541MOL0     C71309   0.670   4.989   4.790  0.1501  0.3161 -0.2572
  541MOL0     O71310   0.598   5.053   4.692 -0.3198  0.1106 -0.3652
  541MOL0     C71311   0.459   5.065   4.705  1.0275  0.7795  1.1053
  541MOL0     C71312   0.374   4.954   4.733  0.1193  0.0300  0.8838
  541MOL0     C71313   0.239   4.973   4.732 -0.4570 -0.2341 -0.3056
  541MOL0     C71314   0.180   5.095   4.692 -0.3298  0.1742 -0.0136
  541MOL0     O71315   0.044   5.109   4.690 -0.5796 -0.4015  0.3812
  541MOL0     C71316  -0.015   5.240   4.729  0.3941  0.6307  0.7283
  541MOL0     C71317   0.000   5.252   4.879  0.1364  0.6322 -0.9406
  541MOL0     C71318  -0.087   5.137   4.954 -0.3151 -0.8013 -0.0760
  541MOL0     C71319  -0.188   5.206   5.047  0.4524  0.7276 -0.3540
  541MOL0     C71320  -0.250   5.111   5.135 -1.0083  0.5110  0.1738
  541MOL0     C71321  -0.345   5.169   5.237 -0.0270 -0.0789  0.1651
  541MOL0     C71322  -0.456   5.264   5.187  0.2504  0.5891 -0.0366
  541MOL0     C71323  -0.532   5.325   5.301  0.5431 -0.3767 -0.2339
  541MOL0    Cl71324  -0.633   5.467   5.226 -0.1341 -0.7195  0.1328
  541MOL0     C71325   0.267   5.197   4.644  0.1285  0.8543 -0.1824
  541MOL0     C71326   0.402   5.180   4.653  0.5522  0.0679  0.4308
  541MOL0     O71327   0.621   4.946   4.896  0.2959  0.1114  0.7056
  541MOL0     C71328   0.889   4.975   4.908 -0.4438  0.6309 -0.3094
  541MOL0     C71329   1.024   4.962   4.908  0.3061 -0.3119  0.0809
  541MOL0     N71330   1.484   4.493   4.613 -0.4576 -0.0521 -0.2710
  541MOL0     N71331   1.531   4.372   4.583  0.2749  0.5275 -0.0122
  541MOL0     C71332   2.717   4.387   4.122  0.2937  0.3826  0.5570
  541MOL0     C71333   2.848   4.407   4.073  0.0090 -0.0071  0.0665
  541MOL0     C71334   3.173   4.652   3.860  0.0493  0.4217  0.2295
  541MOL0     C71335   3.199   4.651   3.725  0.3724  0.3447  0.3172
  541MOL0     C71336   3.309   4.714   3.661  0.0605  0.5331 -0.6097
  541MOL0     C71337   3.399   4.779   3.745  0.3390  0.3421  0.1894
  541MOL0     O71338   3.506   4.858   3.708  0.4475  0.0199 -0.0960
  541MOL0     C71339   3.545   4.870   3.567  1.0866 -0.5761  0.2210
  541MOL0     C71340   3.678   4.784   3.528  0.4370 -0.6762  0.2355
  541MOL0     C71341   3.792   4.823   3.615 -0.2920 -0.4307 -0.9913
  541MOL0     C71342   3.928   4.841   3.537 -0.1162 -0.1340  0.2641
  541MOL0     C71343   3.977   4.705   3.502 -0.8929  0.0057  0.3640
  541MOL0     C71344   4.007   4.590   3.489 -1.3518  0.3892  1.1010
  541MOL0     C71345   3.376   4.776   3.881  0.3530  0.1875 -0.1722
  541MOL0     C71346   3.270   4.703   3.941  0.0410 -0.9324  0.5239
  541MOL0     H71347   2.892   4.729   4.176  1.2780 -0.1367  0.8996
  541MOL0     H71348   2.674   4.693   4.268  2.6068  0.3790 -0.7301
  541MOL0     H71349   2.378   4.507   4.089  0.2028 -0.4324  0.4726
  541MOL0     H71350   2.440   4.642   4.173  1.0239 -0.7372 -2.9276
  541MOL0     H71351   2.224   4.637   4.238 -0.0269  1.3961  2.2497
  541MOL0     H71352   2.295   4.535   4.368 -3.6033  3.0863  1.1971
  541MOL0     H71353   2.223   4.331   4.249  0.1508 -0.9000 -2.1973
  541MOL0     H71354   2.140   4.428   4.128 -0.6953 -0.8411  0.0897
  541MOL0     H71355   2.086   4.435   4.427 -5.5613  3.3297  1.3586
  541MOL0     H71356   1.998   4.512   4.286 -2.2692 -2.3042 -0.3186
  541MOL0     H71357   2.019   4.217   4.312  0.4829  1.0452 -1.1912
  541MOL0     H71358   1.933   4.285   4.182 -2.9563  4.0742 -0.5858
  541MOL0     H71359   1.752   4.239   4.327  0.4334 -0.8403  0.7005
  541MOL0     H71360   1.773   4.405   4.369 -0.0234 -0.7875  0.0057
  541MOL0     H71361   1.887   4.143   4.505  0.9526  0.5735 -1.4576
  541MOL0     H71362   1.943   4.306   4.555 -1.2809  0.7225  1.7915
  541MOL0     H71363   1.795   4.251   4.710 -1.0576  0.6123 -0.1563
  541MOL0     H71364   1.696   4.168   4.590 -0.9063  0.2981 -0.1061
  541MOL0     H71365   1.806   4.525   4.692 -0.0643  0.7135 -0.0695
  541MOL0     H71366   1.658   4.771   4.633  3.1881  0.0828  3.0326
  541MOL0     H71367   1.643   4.709   4.796  2.1868 -1.3801 -1.2915
  541MOL0     H71368   1.395   4.696   4.784  1.1922 -1.0862  0.3704
  541MOL0     H71369   1.409   4.803   4.639 -0.1933  1.0034  0.7566
  541MOL0     H71370   1.525   4.891   4.918 -0.2301  0.9846  0.4841
  541MOL0     H71371   1.492   5.000   4.788 -1.7936 -0.0064 -1.6344
  541MOL0     H71372   1.322   5.003   4.971 -2.3563  0.1479  0.7012
  541MOL0     H71373   1.269   4.842   4.926 -0.3655  0.5944 -0.2630
  541MOL0     H71374   1.080   4.981   4.574  1.8822 -1.0895  0.8655
  541MOL0     H71375   0.852   4.991   4.571  1.4765  0.0051 -0.0504
  541MOL0     H71376   0.424   4.860   4.754 -0.0826 -0.6137 -1.2482
  541MOL0     H71377   0.169   4.904   4.778 -1.4990  2.0438  1.8012
  541MOL0     H71378  -0.116   5.248   4.688  0.2629 -1.6287  0.5020
  541MOL0     H71379   0.034   5.329   4.687  1.6899 -0.2568  0.2926
  541MOL0     H71380  -0.045   5.346   4.912 -1.8197 -1.3755  2.8058
  541MOL0     H71381   0.105   5.240   4.909 -0.9871 -1.2390  2.8517
  541MOL0     H71382  -0.027   5.065   5.012  2.2702  1.2870  0.0223
  541MOL0     H71383  -0.128   5.072   4.877  3.2730 -1.8737 -1.2993
  541MOL0     H71384  -0.129   5.277   5.106  0.5693  0.9589 -0.7398
  541MOL0     H71385  -0.266   5.251   4.984  0.9171  1.3251 -0.5128
  541MOL0     H71386  -0.166   5.080   5.196  2.4946  4.6282 -1.9887
  541MOL0     H71387  -0.306   5.031   5.086 -1.3271 -0.6992  2.3806
  541MOL0     H71388  -0.289   5.230   5.309  0.6668 -0.6005  0.0729
  541MOL0     H71389  -0.382   5.091   5.305 -1.1802  0.9815  0.7933
  541MOL0     H71390  -0.409   5.345   5.131 -2.3512  1.2814 -1.3261
  541MOL0     H71391  -0.524   5.210   5.121 -3.0274  2.2285  1.7437
  541MOL0     H71392  -0.462   5.389   5.354 -0.9025  1.5004 -0.5058
  541MOL0     H71393  -0.587   5.255   5.365  1.7860  0.4075  1.7738
  541MOL0     H71394   0.226   5.280   4.587 -0.1099  0.3740 -0.7116
  541MOL0     H71395   0.451   5.274   4.628 -0.8842  1.2635  1.8595
  541MOL0     H71396   0.843   4.968   5.005  0.2367 -1.9784 -0.1129
  541MOL0     H71397   1.081   4.962   5.001  1.0367 -0.9348 -0.3546
  541MOL0     H71398   2.665   4.293   4.107 -2.0177  1.7029 -0.2434
  541MOL0     H71399   2.895   4.330   4.012  5.2464  3.6239 -1.1431
  541MOL0     H71400   3.121   4.611   3.660  0.6120  1.6391 -0.7982
  541MOL0     H71401   3.312   4.700   3.553  0.2493 -0.5445 -0.4674
  541MOL0     H71402   3.557   4.976   3.544 -0.4879 -0.6693 -1.1938
  541MOL0     H71403   3.468   4.835   3.497  0.6823  0.9235 -0.1152
  541MOL0     H71404   3.677   4.675   3.541  1.2785 -0.6974  0.2028
  541MOL0     H71405   3.709   4.805   3.425  1.1049 -2.3805  0.0447
  541MOL0     H71406   3.800   4.749   3.695  0.7685 -0.1430 -0.8149
  541MOL0     H71407   3.782   4.913   3.677 -0.4136 -1.6578  0.8395
  541MOL0     H71408   3.920   4.915   3.456 -1.4544  2.0062  2.2358
  541MOL0     H71409   3.991   4.894   3.609  0.3069  1.5170 -1.2433
  541MOL0     H71410   4.049   4.492   3.482 -1.0911  0.6389 -2.3405
  541MOL0     H71411   3.450   4.809   3.953 -1.8892 -0.7208  2.7036
  541MOL0     H71412   3.278   4.682   4.048  2.4413 -0.6303  0.4601
  542MOL0     O71413   0.984   7.217   7.661  0.0410  0.7369  0.8273
  542MOL0     C71414   0.932   7.305   7.727  0.1922 -0.3184 -0.6114
  542MOL0     O71415   0.797   7.314   7.762  0.1681 -0.3290 -0.2527
  542MOL0     C71416   0.709   7.234   7.702  0.1820 -0.5852  0.5095
  542MOL0     C71417   0.630   7.152   7.785  0.2380  0.4176  0.0292
  542MOL0     C71418   0.519   7.100   7.716  0.6108 -0.6043 -1.0972
  542MOL0     C71419   0.488   7.110   7.577 -0.1867 -0.0984 -0.5744
  542MOL0     O71420   0.386   7.039   7.517 -0.7387 -0.4450  0.4015
  542MOL0     C71421   0.344   7.073   7.390 -0.8006  0.5386  0.3014
  542MOL0     C71422   0.403   6.979   7.281 -0.0443  0.6228 -0.3869
  542MOL0     C71423   0.305   6.966   7.166  0.2099 -0.8005  0.3173
  542MOL0     C71424   0.370   6.869   7.066  0.9730  0.6643  0.3403
  542MOL0     C71425   0.263   6.821   6.960 -0.6930 -0.7327 -0.1874
  542MOL0     C71426   0.143   6.748   7.017  0.2795  0.6362  0.4641
  542MOL0     C71427   0.035   6.733   6.917  1.0182  0.6031  0.1445
  542MOL0     C71428  -0.092   6.835   6.927 -0.4083  0.4316 -0.1118
  542MOL0     N71429  -0.055   6.980   6.929  0.1285  0.4387 -0.3591
  542MOL0     C71430  -0.040   7.052   7.050 -0.4644 -0.5850  0.4398
  542MOL0     C71431  -0.033   7.183   7.000  1.1596  0.1253  0.2543
  542MOL0     C71432  -0.011   7.312   7.080  0.0194 -0.3142 -0.7453
  542MOL0     C71433   0.114   7.298   7.171 -0.3206  0.1949  1.2159
  542MOL0     C71434   0.122   7.413   7.277  0.1282  0.1401 -0.9195
  542MOL0     C71435   0.223   7.524   7.242  0.8551  0.0751 -0.0690
  542MOL0     O71436   0.352   7.455   7.252 -0.3243  0.4832 -0.2115
  542MOL0     C71437   0.465   7.530   7.274  0.0519  0.3880  0.6816
  542MOL0     C71438   0.469   7.673   7.295 -0.4942  1.4918  0.0851
  542MOL0     C71439   0.595   7.719   7.333 -1.4292 -0.5859 -0.4339
  542MOL0     C71440   0.716   7.646   7.350 -0.6787 -1.2214 -0.3053
  542MOL0     C71441   0.848   7.710   7.399  0.8246  0.1139  0.2698
  542MOL0     O71442   0.822   7.836   7.444 -0.0265 -0.0950 -0.2145
  542MOL0     C71443   0.924   7.916   7.493  1.1602 -0.2280 -1.8462
  542MOL0     C71444   0.961   8.039   7.445 -0.0474  0.8896  0.5034
  542MOL0     C71445   1.071   8.110   7.493 -0.1977  0.1253  0.1326
  542MOL0     C71446   1.145   8.066   7.600  1.2381 -0.5064  0.0393
  542MOL0     O71447   1.268   8.122   7.624 -0.2480  0.0607  0.1362
  542MOL0     C71448   1.379   8.038   7.648 -0.2441  0.6035 -0.0120
  542MOL0     C71449   1.502   8.122   7.654  0.0133  0.0458  0.6554
  542MOL0     C71450   1.641   8.051   7.680 -0.6230  0.1918 -0.3070
  542MOL0     C71451   1.751   8.152   7.719 -0.2685 -0.0278 -0.1748
  542MOL0     C71452   1.791   8.242   7.603  0.3908  0.5602 -1.1497
  542MOL0     C71453   1.921   8.320   7.628 -0.3970 -0.1730 -0.1144
  542MOL0     C71454   1.884   8.447   7.713  0.0565 -0.1984  0.6348
  542MOL0     C71455   2.012   8.526   7.740 -0.2677 -0.7084  0.5361
  542MOL0    Cl71456   2.071   8.592   7.577 -0.0973 -0.2194  0.1446
  542MOL0     C71457   1.095   7.946   7.663 -0.6158  0.6448  0.2382
  542MOL0     C71458   0.991   7.872   7.607 -0.7618 -0.7949 -1.0302
  542MOL0     O71459   0.951   7.647   7.399  0.4603  0.1460 -0.3849
  542MOL0     C71460   0.711   7.516   7.310  0.3738  0.3654 -0.1084
  542MOL0     C71461   0.583   7.462   7.281 -0.3069  0.1311 -0.2524
  542MOL0     N71462  -0.052   7.181   6.861  0.0033  0.0323 -0.0888
  542MOL0     N71463  -0.054   7.060   6.819 -0.4341 -0.2618  0.5616
  542MOL0     C71464   0.584   7.175   7.503  0.0569  0.8048 -0.1356
  542MOL0     C71465   0.690   7.235   7.564 -0.7651 -0.0967  0.4144
  542MOL0     C71466   1.022   7.398   7.797 -0.5346  0.3648  0.2060
  542MOL0     C71467   1.165   7.394   7.783 -0.0004 -0.4968 -0.0151
  542MOL0     C71468   1.250   7.477   7.848  0.3810 -0.4710  0.3501
  542MOL0     C71469   1.196   7.580   7.935  0.0399  0.2093 -0.0701
  542MOL0     O71470   1.287   7.654   8.005  0.2665 -0.3883  0.2401
  542MOL0     C71471   1.251   7.755   8.096 -0.5911  0.3034  0.5004
  542MOL0     C71472   1.283   7.886   8.039  0.0572  0.3004 -0.3539
  542MOL0     C71473   1.440   7.899   8.046  0.0697  0.0838  0.6699
  542MOL0     C71474   1.482   8.048   8.038  0.4502 -0.6455 -0.7238
  542MOL0     C71475   1.624   8.059   8.050  0.1393  1.0473 -0.7977
  542MOL0     C71476   1.744   8.053   8.071  0.2787  0.0291  0.3065
  542MOL0     C71477   1.053   7.590   7.942 -0.6893  0.2146  0.0233
  542MOL0     C71478   0.973   7.501   7.872 -0.0565  0.2447 -0.1351
  542MOL0     H71479   0.643   7.136   7.891  1.0737  0.2296 -0.0967
  542MOL0     H71480   0.448   7.044   7.776 -1.7393  0.1323 -3.0240
  542MOL0     H71481   0.360   7.172   7.346 -0.1806  0.8838  1.2607
  542MOL0     H71482   0.236   7.062   7.394 -0.5761 -1.8004  1.8496
  542MOL0     H71483   0.423   6.883   7.328  0.7739  1.7582  1.7219
  542MOL0     H71484   0.502   7.014   7.250  0.3301 -0.3739 -0.3270
  542MOL0     H71485   0.287   7.065   7.123 -1.1107 -0.0041  2.5350
  542MOL0     H71486   0.213   6.931   7.214  1.3099 -2.6183  1.1962
  542MOL0     H71487   0.463   6.906   7.021 -0.3372  2.9808 -0.6026
  542MOL0     H71488   0.401   6.776   7.115 -0.1839 -0.9426 -1.8312
  542MOL0     H71489   0.300   6.750   6.885 -2.5336 -1.3188 -0.6118
  542MOL0     H71490   0.225   6.912   6.913 -3.7606 -1.5237  0.5239
  542MOL0     H71491   0.103   6.814   7.095 -0.3743  2.0018 -0.9713
  542MOL0     H71492   0.173   6.649   7.051 -0.7297 -0.2617 -1.1768
  542MOL0     H71493   0.073   6.719   6.815  0.9239  1.4673 -0.0221
  542MOL0     H71494  -0.009   6.635   6.935 -0.5187  0.7017 -2.4740
  542MOL0     H71495  -0.152   6.811   7.016  0.3459 -2.8938 -0.3589
  542MOL0     H71496  -0.147   6.805   6.837 -1.5428 -0.1483  0.7422
  542MOL0     H71497  -0.029   7.019   7.153  2.6052  0.7827  0.6641
  542MOL0     H71498  -0.097   7.326   7.146 -0.9878  1.1495 -2.2917
  542MOL0     H71499   0.013   7.397   7.015  1.2997  0.8744  1.1850
  542MOL0     H71500   0.207   7.293   7.113  0.3096  3.6831  1.7035
  542MOL0     H71501   0.114   7.201   7.222 -0.5816  0.1435  1.1178
  542MOL0     H71502   0.032   7.474   7.284 -0.0643 -0.1311 -1.0042
  542MOL0     H71503   0.144   7.375   7.377  2.5738  1.1793 -0.9800
  542MOL0     H71504   0.198   7.606   7.309 -2.4867 -1.4611  0.7658
  542MOL0     H71505   0.207   7.555   7.139 -0.5415 -0.6583 -0.0928
  542MOL0     H71506   0.382   7.737   7.287 -0.7256  1.0116 -1.6361
  542MOL0     H71507   0.594   7.821   7.370  2.8895  0.2182 -1.9828
  542MOL0     H71508   0.909   8.078   7.358  0.3805 -2.5613 -1.4788
  542MOL0     H71509   1.115   8.195   7.441  1.0419 -1.0191 -0.7762
  542MOL0     H71510   1.397   7.961   7.572  2.2231 -0.6849  1.7276
  542MOL0     H71511   1.358   7.984   7.741 -0.8106  2.2958  0.8666
  542MOL0     H71512   1.485   8.199   7.729 -1.7273  0.9202 -0.5598
  542MOL0     H71513   1.514   8.179   7.561  1.2776 -1.8895 -0.4504
  542MOL0     H71514   1.683   8.005   7.590  0.1969 -0.5657  0.4491
  542MOL0     H71515   1.631   7.985   7.766  0.3387  0.4701  0.0309
  542MOL0     H71516   1.711   8.209   7.803  0.2177  2.0342 -1.2656
  542MOL0     H71517   1.834   8.096   7.763 -0.9528 -1.7924 -1.0363
  542MOL0     H71518   1.713   8.316   7.588  1.9197  1.7718 -3.7658
  542MOL0     H71519   1.801   8.183   7.512 -1.2212 -0.9430 -0.4142
  542MOL0     H71520   1.966   8.349   7.533 -1.2668  2.2278  0.1507
  542MOL0     H71521   1.992   8.255   7.680  0.1708 -1.9262 -2.8888
  542MOL0     H71522   1.811   8.512   7.664 -3.4244 -0.8122  4.5331
  542MOL0     H71523   1.835   8.411   7.804  1.0043 -0.9247  0.8778
  542MOL0     H71524   2.085   8.460   7.788  1.1649  1.0270  0.8441
  542MOL0     H71525   1.997   8.611   7.807  2.5731 -0.2885  0.7713
  542MOL0     H71526   1.135   7.903   7.754 -2.6845  0.1095  0.9581
  542MOL0     H71527   0.961   7.777   7.651 -0.0279 -1.5060 -2.0096
  542MOL0     H71528   0.795   7.448   7.306 -0.4708 -0.7997  1.0851
  542MOL0     H71529   0.583   7.357   7.252  2.9473 -0.2446  0.7551
  542MOL0     H71530   0.590   7.196   7.397  2.5357  2.8539  0.3307
  542MOL0     H71531   0.779   7.289   7.530  1.4666 -1.1103  4.1067
  542MOL0     H71532   1.206   7.307   7.734  0.4786 -0.9875  1.2259
  542MOL0     H71533   1.358   7.471   7.838  0.3492 -0.7643  0.1400
  542MOL0     H71534   1.322   7.748   8.178  0.9616  0.7542 -0.7520
  542MOL0     H71535   1.147   7.747   8.127 -1.6704  2.5509 -2.1311
  542MOL0     H71536   1.235   7.897   7.941 -1.1435 -1.8097 -0.0555
  542MOL0     H71537   1.237   7.961   8.104 -0.6696 -0.0397 -0.4672
  542MOL0     H71538   1.488   7.855   7.959  3.5692  1.4517  1.7440
  542MOL0     H71539   1.496   7.870   8.136  2.9689  2.3949 -0.2380
  542MOL0     H71540   1.460   8.094   7.942 -2.2052 -0.7014 -0.2275
  542MOL0     H71541   1.426   8.103   8.114 -0.0746 -0.5968 -1.1471
  542MOL0     H71542   1.846   8.019   8.082 -0.3695 -2.0717  0.2482
  542MOL0     H71543   1.004   7.665   8.005 -0.2365 -0.3854  1.1106
  542MOL0     H71544   0.869   7.533   7.868  0.5188  2.0740 -1.3820
  543MOL0     O71545   0.346   2.481   5.911  0.4448  0.3229 -0.0797
  543MOL0     C71546   0.282   2.383   5.940  0.6614  0.0374 -0.3390
  543MOL0     O71547   0.317   2.261   5.908 -1.0723  0.9033 -1.3932
  543MOL0     C71548   0.450   2.251   5.872 -0.8641 -0.2504  0.5940
  543MOL0     C71549   0.526   2.167   5.951 -0.2687  0.2488  0.1663
  543MOL0     C71550   0.658   2.135   5.923 -0.0292  0.8546  0.0680
  543MOL0     C71551   0.724   2.199   5.820  0.3633 -0.1806 -0.3809
  543MOL0     O71552   0.860   2.184   5.805  0.3387  0.1947  0.2235
  543MOL0     C71553   0.935   2.301   5.843 -0.5015  0.1351  0.3995
  543MOL0     C71554   1.078   2.257   5.873 -0.7019  0.4136 -0.7971
  543MOL0     C71555   1.147   2.190   5.757  0.5584  0.2535  0.1585
  543MOL0     C71556   1.291   2.165   5.795  0.2541  0.6294  0.0270
  543MOL0     C71557   1.358   2.131   5.656 -0.4838 -0.1542 -0.3345
  543MOL0     C71558   1.500   2.087   5.693  0.0429 -1.1965 -1.1413
  543MOL0     C71559   1.598   2.063   5.580  0.0102  0.0932 -0.3459
  543MOL0     C71560   1.727   2.000   5.611  0.3430 -0.2449  0.4981
  543MOL0     N71561   1.806   1.970   5.484  0.0260 -0.2701 -0.1731
  543MOL0     C71562   1.794   1.856   5.407  0.4881 -0.6876 -0.3185
  543MOL0     C71563   1.887   1.873   5.308 -0.0945 -0.4445  0.1738
  543MOL0     C71564   1.897   1.767   5.198  0.9493  0.5136 -0.3022
  543MOL0     C71565   1.888   1.622   5.252 -0.1034 -1.0305  0.2860
  543MOL0     C71566   1.880   1.516   5.137 -0.1312  0.5251  0.8107
  543MOL0     C71567   1.827   1.375   5.181  0.6895 -0.4183  0.4100
  543MOL0     O71568   1.687   1.390   5.200 -0.5545 -0.1240 -0.0886
  543MOL0     C71569   1.602   1.284   5.174  0.1031 -0.0416 -0.5992
  543MOL0     C71570   1.466   1.308   5.146  0.0231 -0.2275 -0.1754
  543MOL0     C71571   1.371   1.201   5.128 -0.7188 -0.4808 -0.0450
  543MOL0     C71572   1.423   1.067   5.137 -0.2063  0.2133 -0.6381
  543MOL0     C71573   1.339   0.956   5.098  0.4282  0.3051 -0.6826
  543MOL0     O71574   1.204   0.977   5.106 -0.8236  0.2060 -0.3290
  543MOL0     C71575   1.128   0.866   5.067  0.1348  0.1381 -1.2610
  543MOL0     C71576   1.024   0.829   5.161 -0.2796 -0.3330 -0.5792
  543MOL0     C71577   0.930   0.717   5.140 -0.8074 -0.3707 -0.3533
  543MOL0     C71578   0.936   0.648   5.015  1.1008  0.1169  0.2132
  543MOL0     O71579   0.853   0.542   4.987  1.4582 -0.6529  0.2937
  543MOL0     C71580   0.799   0.530   4.849  0.0683 -0.5752 -0.7977
  543MOL0     C71581   0.662   0.458   4.852  0.3360  0.3779  0.0746
  543MOL0     C71582   0.549   0.541   4.925  0.8403  0.6490 -0.4376
  543MOL0     C71583   0.424   0.440   4.948 -0.5980 -0.1076 -0.4187
  543MOL0     C71584   0.306   0.515   5.006 -0.1484 -1.0508  0.1625
  543MOL0     C71585   0.182   0.427   5.047 -0.5931 -0.7151  0.0664
  543MOL0     C71586   0.060   0.504   5.080 -0.2762  0.0889 -0.1406
  543MOL0     C71587  -0.051   0.419   5.131 -0.1401 -0.1689  0.0112
  543MOL0    Cl71588  -0.157   0.342   5.011  0.0253 -0.4204  0.7055
  543MOL0     C71589   1.042   0.676   4.928 -0.9649 -1.0884  1.4015
  543MOL0     C71590   1.123   0.790   4.946  0.3539  0.3685 -1.3723
  543MOL0     O71591   1.394   0.841   5.098 -0.2577 -0.6575  0.9910
  543MOL0     C71592   1.560   1.043   5.161  0.2864 -0.2204  0.0821
  543MOL0     C71593   1.645   1.151   5.185  1.1064  0.0728  0.5705
  543MOL0     N71594   1.969   1.982   5.343 -0.0454 -0.1737 -0.2996
  543MOL0     N71595   1.914   2.042   5.444 -0.1124  0.0904  0.1968
  543MOL0     C71596   0.654   2.295   5.741  0.1438 -0.4053  0.1254
  543MOL0     C71597   0.512   2.317   5.756 -0.3915  0.9649 -0.8338
  543MOL0     C71598   0.147   2.404   5.995 -0.4583  0.3225 -0.5933
  543MOL0     C71599   0.095   2.524   6.039  0.1851 -0.2892 -0.2631
  543MOL0     C71600  -0.039   2.537   6.095  0.3453 -0.6240  0.4882
  543MOL0     C71601  -0.115   2.425   6.107  0.1745 -0.1329  0.4865
  543MOL0     O71602  -0.235   2.438   6.172  0.1890  0.0544 -0.2973
  543MOL0     C71603  -0.290   2.327   6.242  0.1170  0.5310  0.2202
  543MOL0     C71604  -0.401   2.281   6.142  0.2871  1.2541  0.2007
  543MOL0     C71605  -0.487   2.173   6.208 -0.2790 -0.1688 -0.3226
  543MOL0     C71606  -0.602   2.102   6.129 -0.2063 -0.6877  1.0653
  543MOL0     C71607  -0.721   2.186   6.089  0.8777 -0.1212  0.6431
  543MOL0     C71608  -0.825   2.225   6.047 -0.0541  0.1013  0.8529
  543MOL0     C71609  -0.069   2.305   6.051 -0.2278  0.1963 -0.0257
  543MOL0     C71610   0.061   2.294   6.003  0.0695 -0.4059 -0.3668
  543MOL0     H71611   0.487   2.110   6.035  0.3885  0.9436  0.9605
  543MOL0     H71612   0.715   2.072   5.991 -2.6780 -0.6503  1.0807
  543MOL0     H71613   0.891   2.349   5.931 -0.4703  0.9700 -0.0336
  543MOL0     H71614   0.935   2.364   5.754 -0.1999 -1.4712 -0.7940
  543MOL0     H71615   1.077   2.180   5.951 -3.3172 -0.3597 -1.4968
  543MOL0     H71616   1.141   2.342   5.902  1.1664 -1.6487  1.7312
  543MOL0     H71617   1.137   2.255   5.670  0.4403 -0.8966 -0.7096
  543MOL0     H71618   1.086   2.104   5.729 -2.2806  3.0412 -3.1512
  543MOL0     H71619   1.326   2.258   5.842 -0.6443  1.4429 -0.8550
  543MOL0     H71620   1.293   2.077   5.860 -0.7053 -0.0086 -0.7800
  543MOL0     H71621   1.364   2.227   5.604 -3.5008  0.2468 -0.1169
  543MOL0     H71622   1.299   2.055   5.605 -2.2672  0.2714  0.9882
  543MOL0     H71623   1.491   1.997   5.754  1.4352 -1.7879 -1.7628
  543MOL0     H71624   1.553   2.161   5.754  0.6676 -2.3535 -0.2381
  543MOL0     H71625   1.543   1.991   5.518 -0.5996 -1.0203  1.3960
  543MOL0     H71626   1.618   2.156   5.526  3.4372 -0.6423 -0.5833
  543MOL0     H71627   1.714   1.906   5.667  0.5262 -0.8405 -0.4375
  543MOL0     H71628   1.786   2.065   5.677  0.6694 -0.5495  0.5096
  543MOL0     H71629   1.724   1.775   5.426 -1.9725  1.8965  2.9168
  543MOL0     H71630   1.988   1.787   5.140  0.8827 -1.6858 -1.2453
  543MOL0     H71631   1.815   1.792   5.130  0.6840  2.2840  0.5946
  543MOL0     H71632   1.793   1.632   5.305 -0.9036  1.5655 -1.4688
  543MOL0     H71633   1.972   1.611   5.322  1.6403  2.3291 -1.0212
  543MOL0     H71634   1.825   1.548   5.048  0.3307 -0.7850  0.0404
  543MOL0     H71635   1.979   1.500   5.095 -0.1443  0.6933  0.7107
  543MOL0     H71636   1.882   1.361   5.275 -0.3075  2.4583  1.5541
  543MOL0     H71637   1.848   1.296   5.109  0.4343 -1.9766  1.9684
  543MOL0     H71638   1.426   1.408   5.146  2.1067  0.6979 -1.8583
  543MOL0     H71639   1.268   1.209   5.097 -0.1737  0.0542 -1.8509
  543MOL0     H71640   1.034   0.886   5.253 -0.1083  0.7592 -1.2508
  543MOL0     H71641   0.854   0.693   5.213 -0.9752  0.3554 -0.2790
  543MOL0     H71642   0.877   0.474   4.797  1.5471 -0.1120  0.7968
  543MOL0     H71643   0.786   0.628   4.803  0.6926  0.5635  1.3163
  543MOL0     H71644   0.669   0.362   4.905 -1.4506  0.1190 -0.0821
  543MOL0     H71645   0.621   0.441   4.752  0.8297 -1.5230  0.1509
  543MOL0     H71646   0.508   0.619   4.860  0.0334  1.3594  0.8657
  543MOL0     H71647   0.584   0.583   5.020  1.0378 -2.8094  1.1714
  543MOL0     H71648   0.396   0.388   4.856 -3.1089 -0.6069  0.5519
  543MOL0     H71649   0.441   0.355   5.015 -0.0182  1.9389  2.1829
  543MOL0     H71650   0.271   0.573   4.920  0.1767 -0.4063  0.4576
  543MOL0     H71651   0.330   0.571   5.097 -1.5735 -0.8870  0.4673
  543MOL0     H71652   0.206   0.358   5.128  2.7633 -0.2896 -0.4580
  543MOL0     H71653   0.152   0.362   4.963 -2.0257 -2.1725  1.6217
  543MOL0     H71654   0.090   0.582   5.150  0.4374  0.2343 -0.5967
  543MOL0     H71655   0.012   0.565   5.003 -0.2967  1.1581  0.7007
  543MOL0     H71656  -0.114   0.483   5.193 -0.9294 -1.2591  0.3649
  543MOL0     H71657  -0.003   0.344   5.195  1.8582  0.5258 -0.6082
  543MOL0     H71658   1.063   0.618   4.839  1.5136 -2.9113  3.0366
  543MOL0     H71659   1.197   0.819   4.873  2.6682  0.4345  0.8531
  543MOL0     H71660   1.601   0.942   5.157  1.6150  0.3375 -1.4250
  543MOL0     H71661   1.750   1.128   5.203  1.6300  0.3009 -1.8912
  543MOL0     H71662   0.721   2.323   5.660  0.2284 -2.1540 -0.4518
  543MOL0     H71663   0.458   2.387   5.693 -3.6736 -1.4954 -0.9563
  543MOL0     H71664   0.161   2.610   6.034 -0.1650  0.4992  4.0663
  543MOL0     H71665  -0.079   2.625   6.143 -0.2281  0.1405 -1.3302
  543MOL0     H71666  -0.344   2.357   6.332 -0.1062 -0.7205  0.5162
  543MOL0     H71667  -0.215   2.248   6.256  2.5395  2.0631 -2.7964
  543MOL0     H71668  -0.465   2.365   6.112 -0.4417  0.3883 -0.7395
  543MOL0     H71669  -0.352   2.240   6.054 -1.9892 -1.0028 -0.1167
  543MOL0     H71670  -0.540   2.219   6.292 -1.3539 -1.2299 -0.3995
  543MOL0     H71671  -0.415   2.096   6.238  0.0520 -0.0503 -0.7910
  543MOL0     H71672  -0.567   2.078   6.028 -2.2719  2.8335 -0.6546
  543MOL0     H71673  -0.645   2.015   6.181 -2.0873 -1.9559 -2.3043
  543MOL0     H71674  -0.916   2.256   6.000  1.2627  0.8147 -1.3672
  543MOL0     H71675  -0.118   2.209   6.061  0.8387 -0.2306  1.2894
  543MOL0     H71676   0.088   2.197   5.963  0.5982 -0.1779 -0.5705
  544MOL0     O71677   4.614   3.408   8.169 -1.0145  0.1658 -0.2661
  544MOL0     C71678   4.687   3.315   8.203 -0.1042 -0.0367 -0.0502
  544MOL0     O71679   4.637   3.202   8.255  0.4274  0.7410 -0.0414
  544MOL0     C71680   4.498   3.185   8.290 -0.2826  1.2324  0.5224
  544MOL0     C71681   4.393   3.276   8.314  0.2528  0.3939  0.2415
  544MOL0     C71682   4.262   3.230   8.339  0.7297  0.3772 -1.1970
  544MOL0     C71683   4.229   3.096   8.364 -0.0416 -0.5279  0.4461
  544MOL0     O71684   4.106   3.060   8.414 -0.0581  0.5688  0.3412
  544MOL0     C71685   3.993   3.152   8.405 -0.1315 -0.3324  0.3278
  544MOL0     C71686   3.884   3.073   8.481  0.0578 -0.7400  0.4870
  544MOL0     C71687   3.824   2.966   8.394  0.3842 -0.3210 -0.2740
  544MOL0     C71688   3.685   2.899   8.449 -0.5301  0.6696 -0.5236
  544MOL0     C71689   3.585   2.856   8.339  0.5299 -0.9901  0.0245
  544MOL0     C71690   3.614   2.708   8.296 -0.1367  0.1618  0.3543
  544MOL0     C71691   3.568   2.681   8.153  0.0314  0.6937 -0.6740
  544MOL0     C71692   3.428   2.722   8.126  0.6046  0.2531 -0.5945
  544MOL0     N71693   3.333   2.639   8.200  0.1029  0.7261 -0.1754
  544MOL0     C71694   3.326   2.503   8.176  0.5801  0.2593 -0.7135
  544MOL0     C71695   3.212   2.465   8.243 -0.2886 -0.5258 -0.7465
  544MOL0     C71696   3.178   2.323   8.281 -0.0748  0.4314  0.3934
  544MOL0     C71697   3.024   2.300   8.259 -0.3716 -0.1831 -0.0421
  544MOL0     C71698   2.978   2.177   8.334 -0.1863 -0.5811 -1.3487
  544MOL0     C71699   2.836   2.136   8.299 -0.5932 -0.0125 -0.3397
  544MOL0     O71700   2.748   2.245   8.335  0.3255 -0.4403 -0.5832
  544MOL0     C71701   2.618   2.214   8.340  0.0720 -1.2097 -0.0729
  544MOL0     C71702   2.548   2.308   8.404  0.9423  0.5247 -0.0333
  544MOL0     C71703   2.408   2.296   8.422  0.6381 -0.1129  0.2003
  544MOL0     C71704   2.344   2.178   8.374  0.1110 -0.8312  0.2765
  544MOL0     C71705   2.207   2.153   8.411  0.6483 -0.1419 -0.4274
  544MOL0     O71706   2.164   2.020   8.410 -0.0396 -0.3343 -0.2812
  544MOL0     C71707   2.029   1.994   8.427  0.3310  0.1657 -0.2148
  544MOL0     C71708   1.948   1.981   8.317 -0.1909 -0.2604 -0.3382
  544MOL0     C71709   1.807   1.960   8.340 -0.4519 -0.2213 -0.3077
  544MOL0     C71710   1.751   1.933   8.470 -0.0399 -0.7609  0.3879
  544MOL0     O71711   1.632   1.879   8.484 -0.1633 -0.1194 -0.1178
  544MOL0     C71712   1.551   1.973   8.552 -0.2763  0.7586  0.7753
  544MOL0     C71713   1.412   1.896   8.566  0.1889  0.1103  0.3857
  544MOL0     C71714   1.362   1.837   8.431 -0.5245 -0.7671 -0.3140
  544MOL0     C71715   1.221   1.786   8.429 -0.1665  0.0242  1.0252
  544MOL0     C71716   1.187   1.662   8.513  1.1946  0.1123 -0.9342
  544MOL0     C71717   1.044   1.602   8.494  0.2496  0.1788  0.2440
  544MOL0     C71718   0.942   1.698   8.558 -1.3290  0.1961  0.3689
  544MOL0     C71719   0.806   1.638   8.577 -0.5144  0.2051 -0.0378
  544MOL0    Cl71720   0.730   1.611   8.426 -0.0990 -0.3748 -0.0285
  544MOL0     C71721   1.842   1.954   8.576 -0.1223  0.0961 -0.3644
  544MOL0     C71722   1.981   1.981   8.557 -0.6709  0.1916 -0.5146
  544MOL0     O71723   2.129   2.247   8.436 -0.6277 -0.0884  0.1446
  544MOL0     C71724   2.422   2.083   8.315 -0.8779  0.1160  0.6035
  544MOL0     C71725   2.561   2.094   8.301 -0.0460  1.4246  0.3365
  544MOL0     N71726   3.157   2.576   8.303 -0.4330  0.3659  0.0272
  544MOL0     N71727   3.230   2.679   8.278  0.1932 -0.6436  0.1201
  544MOL0     C71728   4.341   3.002   8.345 -0.0109 -0.0864 -0.2477
  544MOL0     C71729   4.461   3.048   8.301 -0.5792 -0.9916 -0.2226
  544MOL0     C71730   4.834   3.323   8.195  0.3642  0.3691 -1.3831
  544MOL0     C71731   4.896   3.442   8.148 -0.6036  0.3216 -0.4434
  544MOL0     C71732   5.033   3.459   8.169  1.0107 -0.2679 -0.5263
  544MOL0     C71733   5.120   3.364   8.217 -0.6436  0.1612 -0.6614
  544MOL0     O71734   5.254   3.391   8.221 -0.5278  0.0243 -0.1073
  544MOL0     C71735   5.348   3.323   8.304  0.8751  0.3362  0.9817
  544MOL0     C71736   5.342   3.375   8.450  0.1578 -0.3924 -0.9057
  544MOL0     C71737   5.445   3.293   8.534 -0.3691  0.3018  0.3051
  544MOL0     C71738   5.425   3.289   8.688  0.3535  0.8388 -0.2870
  544MOL0     C71739   5.338   3.183   8.728  1.4545 -0.2842 -1.1110
  544MOL0     C71740   5.265   3.088   8.763 -1.0246 -0.2967  0.1203
  544MOL0     C71741   5.056   3.244   8.262 -0.6032 -0.2884  0.2401
  544MOL0     C71742   4.916   3.225   8.255  0.3852  0.3765 -0.0013
  544MOL0     H71743   4.403   3.384   8.310 -2.2716  0.6613 -0.7832
  544MOL0     H71744   4.183   3.299   8.368 -0.1594 -1.9430  2.6537
  544MOL0     H71745   3.959   3.167   8.302 -3.8095 -0.6872  1.3537
  544MOL0     H71746   4.012   3.250   8.449 -3.3908  0.6539 -0.2055
  544MOL0     H71747   3.800   3.142   8.493 -2.5138 -2.4177 -4.8287
  544MOL0     H71748   3.919   3.036   8.578  3.2601  0.5146 -0.0628
  544MOL0     H71749   3.906   2.898   8.370  0.0070 -0.4998 -1.0911
  544MOL0     H71750   3.805   3.012   8.297  2.2212  0.1529 -0.4446
  544MOL0     H71751   3.712   2.823   8.522  3.7397  3.3843  1.0947
  544MOL0     H71752   3.637   2.983   8.499 -5.1571 -2.1768  0.4273
  544MOL0     H71753   3.596   2.917   8.248 -0.4309 -0.9306 -0.0653
  544MOL0     H71754   3.483   2.867   8.376  0.1119 -2.8940 -0.4880
  544MOL0     H71755   3.549   2.644   8.356 -1.8510  1.0524 -0.4540
  544MOL0     H71756   3.718   2.682   8.316  0.4684  0.6106 -1.9395
  544MOL0     H71757   3.628   2.735   8.079 -1.5388 -1.2150 -3.5485
  544MOL0     H71758   3.588   2.575   8.130  2.0632 -0.1958  3.8892
  544MOL0     H71759   3.394   2.724   8.022 -2.3135  1.6111  0.2878
  544MOL0     H71760   3.415   2.826   8.155  0.5719  0.3076 -0.8066
  544MOL0     H71761   3.398   2.449   8.116  2.3303  2.0062 -0.2884
  544MOL0     H71762   3.204   2.302   8.385 -0.0205  1.1438  0.5299
  544MOL0     H71763   3.228   2.250   8.217  0.5403  2.0984 -1.1259
  544MOL0     H71764   3.004   2.282   8.153 -1.1614 -1.0529  0.2365
  544MOL0     H71765   2.970   2.386   8.301 -0.8233 -1.5881  2.4628
  544MOL0     H71766   3.054   2.099   8.327 -1.1672 -1.6850 -0.2569
  544MOL0     H71767   2.974   2.203   8.440  0.7490 -2.9383 -0.6674
  544MOL0     H71768   2.820   2.038   8.344  0.3815 -1.0973 -2.2404
  544MOL0     H71769   2.829   2.125   8.190 -0.9230  1.4239 -0.4867
  544MOL0     H71770   2.576   2.412   8.416  0.2158  1.1144 -2.6994
  544MOL0     H71771   2.338   2.365   8.469 -1.0894  0.2471 -2.6601
  544MOL0     H71772   1.991   1.985   8.217 -2.1391 -0.2520 -1.2164
  544MOL0     H71773   1.733   1.944   8.262 -0.4482 -0.3875 -0.2757
  544MOL0     H71774   1.552   2.068   8.497  0.2361  0.2309 -0.1447
  544MOL0     H71775   1.574   1.983   8.659  2.5726 -0.6127  0.3774
  544MOL0     H71776   1.344   1.975   8.598 -1.2465 -1.6953  2.0178
  544MOL0     H71777   1.420   1.816   8.640  1.4195 -1.7866 -1.6380
  544MOL0     H71778   1.420   1.753   8.392  0.7484  0.5814 -1.4223
  544MOL0     H71779   1.369   1.916   8.356 -0.7453  0.5673  1.0246
  544MOL0     H71780   1.163   1.877   8.450 -0.5702  0.5112 -1.7898
  544MOL0     H71781   1.198   1.768   8.323 -0.5395  0.0507  1.1007
  544MOL0     H71782   1.189   1.694   8.618  3.8218  0.3581 -0.9885
  544MOL0     H71783   1.260   1.583   8.496  0.5696 -0.7142  0.1044
  544MOL0     H71784   1.051   1.504   8.542 -1.3514 -0.3977 -0.6356
  544MOL0     H71785   1.022   1.579   8.389  1.9838 -1.1229  0.1155
  544MOL0     H71786   0.974   1.728   8.658  0.6951  1.0817 -0.4853
  544MOL0     H71787   0.928   1.784   8.492 -1.9787 -0.5638 -0.5257
  544MOL0     H71788   0.739   1.712   8.622 -0.8373 -0.0474 -0.0994
  544MOL0     H71789   0.799   1.542   8.629  0.7646 -0.2109 -0.6096
  544MOL0     H71790   1.809   1.934   8.677 -0.3619 -2.6112 -0.9144
  544MOL0     H71791   2.052   1.996   8.637  1.1137 -0.9197 -1.7937
  544MOL0     H71792   2.381   1.991   8.274 -0.9511  0.4061  0.0162
  544MOL0     H71793   2.612   2.008   8.258 -0.7478  1.5540 -0.8036
  544MOL0     H71794   4.331   2.894   8.357  1.2071 -0.1836 -0.0357
  544MOL0     H71795   4.540   2.984   8.263  1.3499  0.3472  1.3405
  544MOL0     H71796   4.837   3.519   8.099  1.4878  1.2867 -1.5593
  544MOL0     H71797   5.076   3.557   8.152  1.9641 -0.2558  1.6774
  544MOL0     H71798   5.443   3.327   8.250 -0.7011 -1.0934 -2.1644
  544MOL0     H71799   5.324   3.217   8.298 -2.3863  1.0240 -0.2638
  544MOL0     H71800   5.367   3.481   8.461 -1.2040 -0.2894  2.0000
  544MOL0     H71801   5.242   3.351   8.488 -0.5064 -0.9579 -2.8990
  544MOL0     H71802   5.547   3.330   8.519  0.0532 -1.7056 -2.5895
  544MOL0     H71803   5.433   3.190   8.498  0.3407  0.1997  0.3513
  544MOL0     H71804   5.519   3.266   8.739  0.2543 -0.7364 -0.7574
  544MOL0     H71805   5.385   3.384   8.727 -3.2135 -0.9525  0.9501
  544MOL0     H71806   5.212   3.000   8.793 -0.5146  0.5766  4.1006
  544MOL0     H71807   5.123   3.166   8.295  1.2413  0.4439 -1.5856
  544MOL0     H71808   4.883   3.128   8.292  0.3596  0.5165  0.3474
  545MOL0     O71809   0.665   0.358   5.537 -0.0877  0.0503  0.1987
  545MOL0     C71810   0.693   0.389   5.422  0.8764 -0.3848 -0.3246
  545MOL0     O71811   0.628   0.483   5.353  0.0446 -0.5263 -0.1124
  545MOL0     C71812   0.497   0.508   5.386  0.0686  0.1723  0.9701
  545MOL0     C71813   0.397   0.407   5.380 -1.0731  0.2408 -0.7498
  545MOL0     C71814   0.263   0.432   5.392  0.2413 -0.6065  0.0346
  545MOL0     C71815   0.224   0.563   5.414  0.7059 -0.5299 -0.2416
  545MOL0     O71816   0.087   0.583   5.430 -0.2585  0.6150 -0.2643
  545MOL0     C71817   0.037   0.716   5.406 -0.2296  0.0564 -0.0365
  545MOL0     C71818  -0.112   0.723   5.417 -0.5374 -0.3543  0.0298
  545MOL0     C71819  -0.171   0.860   5.391 -0.8731  0.4028 -0.5569
  545MOL0     C71820  -0.317   0.860   5.432 -0.8431  0.0873  0.9394
  545MOL0     C71821  -0.398   0.939   5.330 -0.2186  0.3523  0.0174
  545MOL0     C71822  -0.544   0.913   5.372 -0.3957  0.1415  0.4271
  545MOL0     C71823  -0.647   0.978   5.281  0.4437  0.4916  0.7102
  545MOL0     C71824  -0.660   0.900   5.148 -0.0203 -0.1728 -0.0573
  545MOL0     N71825  -0.751   0.958   5.042  0.7320  0.1652 -0.3043
  545MOL0     C71826  -0.823   0.885   4.946 -0.1084  0.0809  0.3741
  545MOL0     C71827  -0.880   0.974   4.859  1.1868  1.0056 -0.8563
  545MOL0     C71828  -0.963   0.938   4.735  0.1965  0.1174 -1.4923
  545MOL0     C71829  -1.030   0.804   4.760  0.1222 -0.0131 -0.1103
  545MOL0     C71830  -1.117   0.755   4.643  0.6759 -0.0050  0.4375
  545MOL0     C71831  -1.258   0.818   4.622  0.9438  0.5879 -0.2557
  545MOL0     O71832  -1.333   0.759   4.728  0.6895 -0.3020  0.4464
  545MOL0     C71833  -1.469   0.784   4.736 -0.4246 -0.7746 -1.2126
  545MOL0     C71834  -1.522   0.726   4.849 -0.0340  0.3975 -0.3158
  545MOL0     C71835  -1.650   0.751   4.894 -0.7011  0.0793  0.8938
  545MOL0     C71836  -1.736   0.837   4.814 -0.0101  0.0790  0.6349
  545MOL0     C71837  -1.866   0.866   4.863  0.0928 -0.1955 -1.6619
  545MOL0     O71838  -1.914   0.780   4.962  0.5022 -0.0459 -0.2657
  545MOL0     C71839  -2.041   0.791   5.022  0.5042 -0.5057  0.4635
  545MOL0     C71840  -2.065   0.697   5.121  1.0773  0.5071 -0.4818
  545MOL0     C71841  -2.181   0.703   5.198  0.7180  0.1672 -0.7795
  545MOL0     C71842  -2.274   0.801   5.170  0.1782 -0.8667  0.2640
  545MOL0     O71843  -2.392   0.789   5.237 -0.4191 -0.2245  0.2339
  545MOL0     C71844  -2.503   0.762   5.148  0.5344 -0.5153 -0.0032
  545MOL0     C71845  -2.621   0.732   5.246  0.7155  0.4852 -0.7455
  545MOL0     C71846  -2.749   0.691   5.174  0.6440  0.1976  1.6587
  545MOL0     C71847  -2.857   0.622   5.268  0.4873 -0.4280  0.1856
  545MOL0     C71848  -2.984   0.588   5.187  0.5915  1.3341 -0.5761
  545MOL0     C71849  -3.078   0.495   5.270  0.9713  0.7640  0.3393
  545MOL0     C71850  -3.228   0.467   5.224 -0.2877  0.4812 -0.1548
  545MOL0     C71851  -3.302   0.403   5.340  0.1464  1.2745  0.0377
  545MOL0    Cl71852  -3.252   0.231   5.343  0.1434 -0.2714  0.0147
  545MOL0     C71853  -2.249   0.894   5.072  0.9616 -0.2108  0.0548
  545MOL0     C71854  -2.134   0.894   4.999  0.6224  1.0546  0.4120
  545MOL0     O71855  -1.931   0.958   4.812 -0.4583 -0.1586  0.4374
  545MOL0     C71856  -1.683   0.896   4.701 -0.4424  1.2128  0.8607
  545MOL0     C71857  -1.551   0.866   4.652 -0.1639 -0.3808  0.3220
  545MOL0     N71858  -0.862   1.099   4.911 -0.2569 -0.2210 -0.1647
  545MOL0     N71859  -0.792   1.090   5.024  0.5006  0.1583  0.2393
  545MOL0     C71860   0.316   0.666   5.417 -0.2615 -0.4154  0.3602
  545MOL0     C71861   0.448   0.636   5.404 -1.1326 -0.0996  0.0755
  545MOL0     C71862   0.818   0.323   5.372  0.0552 -0.8042  0.1656
  545MOL0     C71863   0.850   0.359   5.240 -0.5688  0.2104  0.2439
  545MOL0     C71864   0.964   0.306   5.179 -0.1120  0.3591 -1.2305
  545MOL0     C71865   1.049   0.222   5.258  0.5019  0.4272 -0.1845
  545MOL0     O71866   1.154   0.152   5.210  0.2412 -0.4460 -0.0647
  545MOL0     C71867   1.165   0.117   5.072 -0.3045  0.2509  0.0286
  545MOL0     C71868   1.085  -0.007   5.033  0.4156 -0.4742  1.2644
  545MOL0     C71869   1.139  -0.135   5.089  0.6855  0.3412 -0.1627
  545MOL0     C71870   1.035  -0.250   5.099  0.6436  0.6531  0.0697
  545MOL0     C71871   1.010  -0.310   4.964 -0.0375  0.2175  0.3537
  545MOL0     C71872   0.972  -0.358   4.855  0.0869 -0.4108  0.5782
  545MOL0     C71873   1.016   0.183   5.388  1.0162  0.5826 -1.0500
  545MOL0     C71874   0.901   0.238   5.449  0.5991  1.1112  0.5669
  545MOL0     H71875   0.443   0.309   5.366  0.1691  0.8497 -1.0810
  545MOL0     H71876   0.186   0.355   5.391 -3.0119  2.3664  1.0050
  545MOL0     H71877   0.061   0.750   5.305 -2.1051 -1.3845 -1.0455
  545MOL0     H71878   0.087   0.793   5.466  1.4464 -1.2170  0.2805
  545MOL0     H71879  -0.130   0.706   5.524  5.3651 -0.2402  1.3759
  545MOL0     H71880  -0.155   0.642   5.358  2.1633 -0.0901 -2.5371
  545MOL0     H71881  -0.162   0.874   5.283  0.0354 -1.0010 -0.6846
  545MOL0     H71882  -0.116   0.938   5.444 -1.1562 -0.6066  1.2931
  545MOL0     H71883  -0.355   0.757   5.437 -0.8026  0.0835  1.2023
  545MOL0     H71884  -0.324   0.893   5.536  1.2050  1.2180  0.7585
  545MOL0     H71885  -0.380   0.911   5.226  2.1496  2.0001 -0.0950
  545MOL0     H71886  -0.385   1.047   5.343 -2.0153  0.4313  1.5949
  545MOL0     H71887  -0.556   0.939   5.477  1.3696 -2.0615  1.2320
  545MOL0     H71888  -0.570   0.808   5.364  2.0568 -0.6317  1.6341
  545MOL0     H71889  -0.747   0.977   5.324  0.3653 -0.2723  0.5388
  545MOL0     H71890  -0.616   1.079   5.253  3.5915 -1.3208 -3.5003
  545MOL0     H71891  -0.697   0.799   5.168 -1.3810  0.5165  1.1590
  545MOL0     H71892  -0.564   0.876   5.102 -1.1135 -4.2634 -0.6062
  545MOL0     H71893  -0.816   0.777   4.948 -2.3996 -0.1212  1.2698
  545MOL0     H71894  -0.896   0.932   4.649  0.2960 -1.4971 -1.3302
  545MOL0     H71895  -1.023   1.027   4.715  2.2184  1.9627  0.1991
  545MOL0     H71896  -1.096   0.800   4.848 -1.2212 -0.4259 -1.0930
  545MOL0     H71897  -0.950   0.730   4.768  0.8579  0.9126  1.5543
  545MOL0     H71898  -1.070   0.764   4.544 -2.2686 -1.9865 -1.2793
  545MOL0     H71899  -1.124   0.648   4.666  0.2975 -1.2210 -4.2118
  545MOL0     H71900  -1.299   0.800   4.523  1.8046  1.8469 -0.8679
  545MOL0     H71901  -1.237   0.925   4.635  1.9427  0.3984 -0.1616
  545MOL0     H71902  -1.454   0.656   4.896  0.2644  0.5849 -0.4687
  545MOL0     H71903  -1.690   0.704   4.984  0.4246 -3.0359 -0.1024
  545MOL0     H71904  -1.992   0.619   5.143 -1.2677 -1.6341  0.2276
  545MOL0     H71905  -2.194   0.629   5.278  2.3892 -0.8907 -1.4390
  545MOL0     H71906  -2.483   0.677   5.082  2.0924 -0.2172  0.0412
  545MOL0     H71907  -2.529   0.846   5.083 -0.0435 -0.3617  0.4177
  545MOL0     H71908  -2.640   0.825   5.302 -4.5366  0.7812 -2.4436
  545MOL0     H71909  -2.589   0.649   5.310 -0.8494  0.7645  0.4709
  545MOL0     H71910  -2.731   0.635   5.082  0.1139  0.9381  1.0959
  545MOL0     H71911  -2.796   0.783   5.136 -0.7162 -1.1998 -0.2162
  545MOL0     H71912  -2.818   0.534   5.318 -0.5390 -0.4482  0.9737
  545MOL0     H71913  -2.879   0.694   5.347 -0.9163 -2.1121  1.4026
  545MOL0     H71914  -2.956   0.525   5.102  1.4246 -1.0373  1.3333
  545MOL0     H71915  -3.040   0.666   5.135 -0.1462  0.9045 -0.4487
  545MOL0     H71916  -3.086   0.533   5.373 -0.3160  1.1444  0.1154
  545MOL0     H71917  -3.026   0.398   5.270 -1.5324 -0.7344 -2.1147
  545MOL0     H71918  -3.277   0.557   5.186 -0.1125 -0.3178 -2.4354
  545MOL0     H71919  -3.222   0.399   5.139  0.0980 -1.3415  1.2584
  545MOL0     H71920  -3.410   0.403   5.327  0.4457  3.3253 -3.7786
  545MOL0     H71921  -3.279   0.445   5.439 -2.6846  2.5415  0.2516
  545MOL0     H71922  -2.319   0.976   5.067 -0.5209 -1.1133  3.2658
  545MOL0     H71923  -2.123   0.984   4.939  1.3424  1.1635  0.6972
  545MOL0     H71924  -1.761   0.947   4.644  0.0756  2.0773  0.9030
  545MOL0     H71925  -1.523   0.915   4.560  1.8543 -0.9997  0.5411
  545MOL0     H71926   0.295   0.768   5.446  0.3666 -0.1804  0.0094
  545MOL0     H71927   0.527   0.708   5.424 -0.1891 -1.6804  2.5474
  545MOL0     H71928   0.783   0.415   5.175  0.7316  0.4306 -0.9676
  545MOL0     H71929   0.987   0.334   5.077 -0.6953  0.8528 -1.2330
  545MOL0     H71930   1.269   0.085   5.061  0.8931  2.7904  2.7626
  545MOL0     H71931   1.161   0.207   5.009 -0.3051 -0.2861 -0.7559
  545MOL0     H71932   0.980   0.015   5.054  0.7331  0.5276  1.8580
  545MOL0     H71933   1.090  -0.006   4.923  0.1164  1.3421  1.2300
  545MOL0     H71934   1.163  -0.113   5.194  2.0012  0.0030 -0.3789
  545MOL0     H71935   1.231  -0.174   5.044  0.6430 -1.2527  1.0423
  545MOL0     H71936   1.073  -0.332   5.160  1.9921  0.5548 -0.8668
  545MOL0     H71937   0.934  -0.223   5.131  0.0403  0.8710 -1.8850
  545MOL0     H71938   0.941  -0.394   4.759  2.2221  1.2796 -0.8566
  545MOL0     H71939   1.082   0.124   5.451 -1.7975 -2.3650 -0.6085
  545MOL0     H71940   0.883   0.212   5.553  1.4499 -1.7338  0.1043
  546MOL0     O71941   4.648   6.837  11.226 -0.6586  0.0738  1.1846
  546MOL0     C71942   4.661   6.849  11.105  0.4499 -0.2644  1.0340
  546MOL0     O71943   4.732   6.764  11.015 -0.0342 -0.5681  0.0062
  546MOL0     C71944   4.782   6.648  11.059 -0.0533  0.0940 -0.0841
  546MOL0     C71945   4.895   6.634  11.149  0.8091 -0.2340 -0.4241
  546MOL0     C71946   4.957   6.514  11.176  0.6249 -0.1169 -0.0325
  546MOL0     C71947   4.895   6.396  11.124 -0.2203  0.0369 -0.8835
  546MOL0     O71948   4.957   6.271  11.134  0.6025 -0.4008  0.3198
  546MOL0     C71949   5.074   6.241  11.214 -0.4892 -0.0626 -0.5645
  546MOL0     C71950   5.080   6.087  11.244  0.1053  0.7349  0.2064
  546MOL0     C71951   5.054   6.003  11.112 -0.1124 -0.0975  0.1503
  546MOL0     C71952   5.054   5.855  11.141  0.3924  0.4374  0.3793
  546MOL0     C71953   4.998   5.774  11.029 -0.0397 -0.2801  0.8722
  546MOL0     C71954   5.010   5.628  11.062 -0.2168  0.2658 -0.1245
  546MOL0     C71955   5.149   5.564  11.026  0.7002 -0.0224 -0.0400
  546MOL0     C71956   5.201   5.567  10.880  0.1572  0.9109 -0.0273
  546MOL0     N71957   5.098   5.496  10.801  0.3749 -0.1219 -0.4827
  546MOL0     C71958   5.128   5.383  10.723 -0.1112 -0.4272  0.0116
  546MOL0     C71959   5.012   5.360  10.651 -0.6333  0.6265  0.3731
  546MOL0     C71960   4.997   5.250  10.554  0.4793  0.2050 -0.0385
  546MOL0     C71961   4.985   5.114  10.604  0.0962  0.7401 -0.9555
  546MOL0     C71962   4.880   5.084  10.727  0.4574 -0.6273 -0.6037
  546MOL0     C71963   4.739   5.101  10.686 -0.1134 -0.9367 -0.3679
  546MOL0     O71964   4.689   4.978  10.622  0.2859 -0.2755 -0.0909
  546MOL0     C71965   4.552   4.955  10.613  0.8442  0.7586  0.7678
  546MOL0     C71966   4.511   4.821  10.614  0.2960 -0.1289 -0.1753
  546MOL0     C71967   4.382   4.779  10.619  0.1626 -0.0555  0.7757
  546MOL0     C71968   4.275   4.870  10.616 -0.4885  0.2528  0.7530
  546MOL0     C71969   4.140   4.827  10.605  0.1193 -0.1354 -0.3975
  546MOL0     O71970   4.109   4.723  10.515  0.1513  0.1389 -0.3854
  546MOL0     C71971   3.978   4.685  10.487  0.2109 -0.1346  0.5679
  546MOL0     C71972   3.966   4.545  10.448 -1.0678 -0.5621  0.1863
  546MOL0     C71973   3.843   4.483  10.419 -0.2170 -0.3070  0.2926
  546MOL0     C71974   3.726   4.566  10.423  0.1942 -0.1466 -0.2002
  546MOL0     O71975   3.604   4.513  10.400  0.3932  0.0857 -0.5264
  546MOL0     C71976   3.543   4.489  10.528  0.5227  0.7782  0.1746
  546MOL0     C71977   3.405   4.434  10.504 -2.0290 -0.8874  0.7391
  546MOL0     C71978   3.327   4.439  10.633 -0.7424 -0.5710 -0.2622
  546MOL0     C71979   3.179   4.419  10.596  0.5503  0.3655 -0.5500
  546MOL0     C71980   3.079   4.469  10.701 -0.8320 -1.0296 -0.2425
  546MOL0     C71981   2.934   4.439  10.667  0.0655  0.5652  0.2025
  546MOL0     C71982   2.889   4.295  10.678  0.8324 -0.5417 -0.0030
  546MOL0     C71983   2.739   4.297  10.647  0.5444  1.1640 -0.1358
  546MOL0    Cl71984   2.642   4.376  10.784  0.2246  0.1222  0.2183
  546MOL0     C71985   3.736   4.706  10.449  0.0526  0.3603  0.7010
  546MOL0     C71986   3.863   4.765  10.476  0.3039 -0.1660 -0.7966
  546MOL0     O71987   4.061   4.889  10.672  0.3209  0.9684  0.1932
  546MOL0     C71988   4.314   4.998  10.602 -0.4039 -0.1664  0.7539
  546MOL0     C71989   4.447   5.047  10.613  0.4177 -0.1010  0.4483
  546MOL0     N71990   4.921   5.468  10.672  0.2367  0.2807 -0.5513
  546MOL0     N71991   4.978   5.550  10.752 -0.6414  0.1021  0.5374
  546MOL0     C71992   4.776   6.407  11.046 -0.7129  0.4851  0.7076
  546MOL0     C71993   4.720   6.524  11.008 -0.2428 -0.1308  0.1093
  546MOL0     C71994   4.572   6.956  11.040  0.6459  0.0130  0.4091
  546MOL0     C71995   4.480   7.033  11.116  0.2789 -0.0634 -0.4805
  546MOL0     C71996   4.415   7.141  11.066 -0.4665  0.1905 -0.4223
  546MOL0     C71997   4.444   7.182  10.937  0.4355 -0.0436  0.0186
  546MOL0     O71998   4.373   7.287  10.875  0.1676 -0.4710  0.3585
  546MOL0     C71999   4.275   7.362  10.951  0.8802  1.0486  0.7245
  546MOL0     C72000   4.138   7.294  10.938 -0.2638  0.5534 -0.1387
  546MOL0     C72001   4.022   7.400  10.948 -1.0939 -0.2015  0.5182
  546MOL0     C72002   4.014   7.480  10.818 -0.6019  0.0450 -0.0914
  546MOL0     C72003   3.971   7.400  10.699  0.2620 -0.6203 -0.3979
  546MOL0     C72004   3.944   7.350  10.593 -0.5118  0.4664  0.3094
  546MOL0     C72005   4.535   7.111  10.851 -0.1807 -0.3543 -0.2685
  546MOL0     C72006   4.591   6.996  10.901 -1.1247  0.0513 -0.1439
  546MOL0     H72007   4.944   6.720  11.196  2.5477 -2.0027  1.1977
  546MOL0     H72008   5.049   6.511  11.233  0.1789 -2.5456  0.6905
  546MOL0     H72009   5.057   6.292  11.310 -1.1467 -0.1776 -0.6166
  546MOL0     H72010   5.167   6.275  11.167  0.3114 -2.6079 -1.0060
  546MOL0     H72011   5.004   6.069  11.319  1.9115  1.1067  2.2280
  546MOL0     H72012   5.172   6.060  11.296  0.8792  0.3296 -1.2940
  546MOL0     H72013   5.135   6.020  11.041  0.6134  0.5276  1.1009
  546MOL0     H72014   4.960   6.030  11.062  1.1114  0.5156 -1.9293
  546MOL0     H72015   5.156   5.833  11.173 -0.4377 -4.1295  0.5839
  546MOL0     H72016   4.988   5.821  11.222 -1.1609 -2.6196 -1.9461
  546MOL0     H72017   5.065   5.789  10.944  0.0672 -0.0675  0.9964
  546MOL0     H72018   4.894   5.793  10.999 -0.1834 -2.1879  0.0092
  546MOL0     H72019   4.933   5.571  11.008 -1.6509  0.0257  2.0696
  546MOL0     H72020   4.976   5.614  11.165  1.6674  2.3055  0.8482
  546MOL0     H72021   5.225   5.608  11.091 -0.4963 -0.5416  1.7858
  546MOL0     H72022   5.130   5.461  11.058 -1.3785 -0.4217 -2.3086
  546MOL0     H72023   5.301   5.522  10.869  1.2666  3.4553 -1.2386
  546MOL0     H72024   5.221   5.669  10.846  2.9790  0.3792 -0.2778
  546MOL0     H72025   5.216   5.319  10.725  0.2844  0.0581 -1.2346
  546MOL0     H72026   5.075   5.251  10.477  1.7637  0.1534  1.2149
  546MOL0     H72027   4.904   5.270  10.501 -0.0250 -2.0044 -0.0911
  546MOL0     H72028   5.083   5.076  10.633  0.6233  1.4818 -1.6944
  546MOL0     H72029   4.945   5.045  10.529  0.9655 -2.5283  1.3698
  546MOL0     H72030   4.900   4.988  10.775  0.4968  0.7387  2.3320
  546MOL0     H72031   4.889   5.167  10.797 -1.0603 -1.2162  0.3218
  546MOL0     H72032   4.723   5.192  10.628 -2.0555 -0.8321  0.2583
  546MOL0     H72033   4.678   5.121  10.775 -0.5797  2.5658 -1.3336
  546MOL0     H72034   4.592   4.748  10.619  3.0617  2.3102 -3.7977
  546MOL0     H72035   4.364   4.672  10.624 -1.6894 -0.1220 -3.0835
  546MOL0     H72036   4.058   4.489  10.437 -0.9250 -0.0339 -1.7080
  546MOL0     H72037   3.852   4.379  10.390  5.3053  0.0672 -0.3811
  546MOL0     H72038   3.548   4.580  10.589  0.3703  1.2013 -0.4365
  546MOL0     H72039   3.602   4.418  10.586  0.4394  1.3240  0.9351
  546MOL0     H72040   3.402   4.340  10.449 -0.3908 -0.4075 -0.2469
  546MOL0     H72041   3.357   4.496  10.427  0.3630 -1.4674 -1.3583
  546MOL0     H72042   3.330   4.540  10.676  2.7107 -1.1374  1.1654
  546MOL0     H72043   3.368   4.364  10.702  1.5713  1.0394  0.2726
  546MOL0     H72044   3.153   4.474  10.505 -0.9768  0.1381 -0.2844
  546MOL0     H72045   3.160   4.312  10.581 -4.0749  0.6700  1.3630
  546MOL0     H72046   3.088   4.577  10.715  0.1863 -0.8515 -1.9626
  546MOL0     H72047   3.111   4.427  10.797  0.9717 -1.1321 -0.8484
  546MOL0     H72048   2.912   4.475  10.566 -2.1519  0.4262  0.5702
  546MOL0     H72049   2.888   4.494  10.750 -2.1928 -1.8185  0.6650
  546MOL0     H72050   2.934   4.230  10.603 -1.7377 -0.6972 -1.5212
  546MOL0     H72051   2.915   4.256  10.777 -1.4801 -0.7535  0.5904
  546MOL0     H72052   2.709   4.193  10.639 -2.3295  1.9359 -0.4404
  546MOL0     H72053   2.714   4.352  10.556 -1.3716  2.6990  1.2194
  546MOL0     H72054   3.646   4.767  10.449 -0.2847 -0.1216  0.2081
  546MOL0     H72055   3.866   4.871  10.501 -1.5313 -0.4968  1.1364
  546MOL0     H72056   4.237   5.074  10.590  1.3456  1.3174 -2.1231
  546MOL0     H72057   4.466   5.153  10.599  1.1549 -0.4754 -1.8559
  546MOL0     H72058   4.723   6.320  11.009 -1.1976  1.5514 -1.2727
  546MOL0     H72059   4.632   6.526  10.945 -0.8995 -2.0029  0.8897
  546MOL0     H72060   4.447   7.002  11.215 -1.4357 -2.2388 -1.6205
  546MOL0     H72061   4.337   7.180  11.130 -0.2662 -1.7828  1.1221
  546MOL0     H72062   4.282   7.459  10.901 -2.1981  1.4000  0.7288
  546MOL0     H72063   4.294   7.370  11.059 -0.3510  2.6612  0.8598
  546MOL0     H72064   4.130   7.242  10.842 -3.6195  0.1393  0.2232
  546MOL0     H72065   4.112   7.218  11.013  0.2594  1.2117  0.7352
  546MOL0     H72066   4.049   7.468  11.029  1.4756  2.2534 -2.1735
  546MOL0     H72067   3.928   7.346  10.960 -0.7841 -1.2564 -1.4807
  546MOL0     H72068   3.937   7.558  10.819 -1.7373 -0.9732 -2.0098
  546MOL0     H72069   4.110   7.531  10.803 -0.8991  0.8559  0.6311
  546MOL0     H72070   3.928   7.296  10.502 -1.8196 -1.0572  1.3930
  546MOL0     H72071   4.563   7.136  10.750  1.4096  0.7391  0.4007
  546MOL0     H72072   4.664   6.942  10.842 -0.9249  2.2418 -2.0173
  547MOL0     O72073   0.852  10.189   8.246 -1.6890 -0.3009 -0.5035
  547MOL0     C72074   0.870  10.099   8.328 -0.2436  0.1152 -1.0171
  547MOL0     O72075   0.990  10.039   8.380 -0.1138  0.7834  0.9682
  547MOL0     C72076   1.122  10.060   8.344  1.0271 -0.2433  0.2776
  547MOL0     C72077   1.209   9.977   8.408 -0.0570  0.3604 -0.1296
  547MOL0     C72078   1.341   9.993   8.382 -1.3449 -0.7478 -0.5369
  547MOL0     C72079   1.394  10.087   8.289  0.3244 -0.0507  0.3727
  547MOL0     O72080   1.526  10.103   8.287  0.1680  0.1303 -0.2136
  547MOL0     C72081   1.570  10.219   8.221 -1.0184  0.3746 -0.2802
  547MOL0     C72082   1.720  10.238   8.241  0.2441  0.5141  0.1657
  547MOL0     C72083   1.745  10.303   8.370  0.5247  0.6714 -0.3627
  547MOL0     C72084   1.900  10.308   8.407  0.4700 -0.2720  0.0432
  547MOL0     C72085   1.928  10.424   8.515  0.0406  1.0026 -0.4065
  547MOL0     C72086   1.838  10.413   8.644 -0.4103  0.7305 -0.0966
  547MOL0     C72087   1.821  10.273   8.708  0.2238  0.5291 -0.7311
  547MOL0     C72088   1.738  10.283   8.838 -0.5956  0.0314 -0.5829
  547MOL0     N72089   1.601  10.317   8.807 -0.5828  0.2204  0.1910
  547MOL0     C72090   1.530  10.288   8.694 -0.2037 -0.8336 -0.3048
  547MOL0     C72091   1.403  10.319   8.732 -0.1692  0.2130 -0.2496
  547MOL0     C72092   1.281  10.299   8.662  0.6847 -0.5630 -0.7253
  547MOL0     C72093   1.191  10.206   8.744 -0.8589 -0.1379 -0.2597
  547MOL0     C72094   1.046  10.178   8.691 -0.1910  0.2813  0.0787
  547MOL0     C72095   0.945  10.295   8.684  0.7492  0.4730 -0.4617
  547MOL0     O72096   0.881  10.323   8.794 -0.3691  0.1125  0.3321
  547MOL0     C72097   0.772  10.259   8.834 -0.2880  0.1988  0.6949
  547MOL0     C72098   0.722  10.139   8.773 -0.1351  0.0546  0.4516
  547MOL0     C72099   0.619  10.070   8.826  0.1618 -0.4234  0.6211
  547MOL0     C72100   0.544  10.127   8.926 -0.3316  0.0194  0.4704
  547MOL0     C72101   0.425  10.049   8.969  0.4637 -0.0547  0.3837
  547MOL0     O72102   0.380  10.100   9.095 -0.0624  0.7488  0.2817
  547MOL0     C72103   0.265  10.055   9.147 -0.6214  0.9324  0.4537
  547MOL0     C72104   0.241   9.918   9.182 -0.0895  0.7140  0.1517
  547MOL0     C72105   0.109   9.878   9.217  0.3168  0.1628  0.6750
  547MOL0     C72106   0.006   9.975   9.233  0.2100 -0.3578  0.7220
  547MOL0     O72107  -0.122   9.947   9.263 -0.8844 -0.0474 -0.2538
  547MOL0     C72108  -0.217   9.977   9.151  0.2499  0.2083  0.4668
  547MOL0     C72109  -0.356   9.924   9.175  0.1807  0.2267  0.0588
  547MOL0     C72110  -0.386   9.783   9.110  0.5747 -0.9859 -0.0283
  547MOL0     C72111  -0.383   9.793   8.957  0.3710 -0.6367 -0.4140
  547MOL0     C72112  -0.443   9.676   8.889 -0.2262  0.5270 -0.0810
  547MOL0     C72113  -0.580   9.654   8.923  0.3826 -0.0054  0.0346
  547MOL0     C72114  -0.673   9.778   8.930 -0.1852  0.7850 -0.7022
  547MOL0     C72115  -0.826   9.735   8.935 -0.0913 -0.6951 -0.0809
  547MOL0    Cl72116  -0.877   9.662   8.777  0.1267 -0.1025  0.3169
  547MOL0     C72117   0.038  10.110   9.202  0.0350  0.1635  0.5675
  547MOL0     C72118   0.169  10.148   9.160  0.2951  1.7684 -0.4368
  547MOL0     O72119   0.376   9.957   8.902  0.5417 -0.0066 -0.0838
  547MOL0     C72120   0.584  10.246   8.989 -0.3858 -0.6439 -0.3876
  547MOL0     C72121   0.701  10.310   8.945 -0.0149  0.4440 -0.0319
  547MOL0     N72122   1.406  10.382   8.852  0.2754 -0.2196 -0.7887
  547MOL0     N72123   1.522  10.375   8.892 -0.2175  0.8220 -0.3475
  547MOL0     C72124   1.299  10.172   8.223 -0.5162  0.3783  0.5979
  547MOL0     C72125   1.165  10.156   8.245 -0.0406 -0.5291  0.1242
  547MOL0     C72126   0.751  10.037   8.374 -0.4886 -0.0875  0.0931
  547MOL0     C72127   0.756   9.897   8.410  0.0420 -0.1950  0.5097
  547MOL0     C72128   0.641   9.834   8.470 -0.2473 -0.4590  0.1981
  547MOL0     C72129   0.523   9.907   8.493 -0.0587 -0.2452 -0.3191
  547MOL0     O72130   0.417   9.828   8.542  0.2452  0.8115  0.1255
  547MOL0     C72131   0.297   9.898   8.569  0.3244  0.5725 -0.3286
  547MOL0     C72132   0.196   9.804   8.639  0.0646  0.1894 -0.4864
  547MOL0     C72133   0.145   9.703   8.542  0.8356 -0.0162  0.3236
  547MOL0     C72134   0.010   9.738   8.478  0.3772  0.3264  0.0766
  547MOL0     C72135  -0.044   9.637   8.391  0.4113  0.1278  0.4518
  547MOL0     C72136  -0.076   9.562   8.309  0.5141  0.1400 -0.1378
  547MOL0     C72137   0.525  10.045   8.469 -0.8548  0.0793  0.4893
  547MOL0     C72138   0.637  10.111   8.412  0.4179  0.6193  0.0901
  547MOL0     H72139   1.168   9.911   8.484 -0.2380 -1.8628 -2.0621
  547MOL0     H72140   1.417   9.943   8.440  3.0249  4.6636 -0.7823
  547MOL0     H72141   1.521  10.304   8.268 -3.2847 -0.8442 -0.3233
  547MOL0     H72142   1.561  10.218   8.112 -0.6872  4.5611 -0.4911
  547MOL0     H72143   1.765  10.291   8.156  0.9889 -1.6358 -0.8643
  547MOL0     H72144   1.771  10.141   8.241  2.4004  1.5490 -1.3226
  547MOL0     H72145   1.695  10.248   8.450 -0.4159  0.9845 -0.7142
  547MOL0     H72146   1.711  10.407   8.374  0.2641  0.5825 -0.2729
  547MOL0     H72147   1.941  10.214   8.444  0.9360  0.1384  0.5930
  547MOL0     H72148   1.949  10.333   8.312  1.9118 -1.7794  0.3477
  547MOL0     H72149   1.910  10.524   8.474  0.1474  0.5821 -1.4825
  547MOL0     H72150   2.031  10.419   8.552 -0.6919  1.3182  1.8481
  547MOL0     H72151   1.742  10.461   8.620 -1.1113 -0.3632  0.4607
  547MOL0     H72152   1.882  10.482   8.716 -0.1944 -0.0137  0.4950
  547MOL0     H72153   1.784  10.189   8.649 -3.7001 -0.2781  2.4094
  547MOL0     H72154   1.916  10.226   8.734 -2.1293 -2.5072  4.0125
  547MOL0     H72155   1.773  10.358   8.910 -2.5807  0.5093 -0.0525
  547MOL0     H72156   1.754  10.189   8.892  3.6563  1.2143  0.6030
  547MOL0     H72157   1.572  10.246   8.603  0.7730  0.8805 -0.6979
  547MOL0     H72158   1.311  10.256   8.566 -1.4780 -2.9205 -0.4360
  547MOL0     H72159   1.222  10.391   8.653  1.5351 -0.1528 -2.7063
  547MOL0     H72160   1.192  10.245   8.846  1.2489  1.1384 -0.7233
  547MOL0     H72161   1.231  10.104   8.748 -2.3326 -0.8404 -1.8986
  547MOL0     H72162   1.066  10.151   8.587 -0.1165 -1.0390  0.4199
  547MOL0     H72163   0.996  10.094   8.739  0.7905 -0.2366  0.2216
  547MOL0     H72164   0.871  10.261   8.611 -0.0530 -1.9089  1.3551
  547MOL0     H72165   0.990  10.390   8.653 -0.5856  2.0760  2.1174
  547MOL0     H72166   0.769  10.089   8.689  1.7929 -0.5335  1.8328
  547MOL0     H72167   0.584   9.976   8.783  1.8593  0.7208 -3.8508
  547MOL0     H72168   0.320   9.844   9.172 -0.9516 -0.5371  2.1087
  547MOL0     H72169   0.086   9.780   9.257  1.1512  0.7808  2.7445
  547MOL0     H72170  -0.175   9.947   9.054 -0.3362  2.4575 -0.5381
  547MOL0     H72171  -0.241  10.083   9.140 -1.8212 -0.4276 -2.8438
  547MOL0     H72172  -0.424   9.990   9.120 -1.2984 -0.3534  1.1069
  547MOL0     H72173  -0.388   9.930   9.279 -0.0639  0.1773 -0.0113
  547MOL0     H72174  -0.483   9.749   9.146  1.9381 -0.8472  4.4097
  547MOL0     H72175  -0.305   9.719   9.148  1.7720  0.5057  0.0145
  547MOL0     H72176  -0.426   9.882   8.911 -1.6446 -0.7814  1.0583
  547MOL0     H72177  -0.279   9.804   8.927 -0.1104 -1.6660 -2.6285
  547MOL0     H72178  -0.383   9.598   8.938 -0.3438  2.1136  2.8030
  547MOL0     H72179  -0.410   9.677   8.785 -1.5798 -1.6618 -0.6018
  547MOL0     H72180  -0.581   9.596   9.016 -0.1544 -1.6317 -0.9587
  547MOL0     H72181  -0.626   9.583   8.853 -0.4850  1.4563 -0.9489
  547MOL0     H72182  -0.642   9.830   9.021  0.3370 -1.9869  0.8249
  547MOL0     H72183  -0.660   9.841   8.842  0.3567 -1.7042 -2.5138
  547MOL0     H72184  -0.889   9.821   8.959 -4.0003 -3.1336 -0.6760
  547MOL0     H72185  -0.851   9.664   9.014 -2.8784 -0.5060 -0.6945
  547MOL0     H72186  -0.034  10.190   9.188  0.8187  0.7331 -0.3242
  547MOL0     H72187   0.188  10.248   9.121 -0.8624  1.7715 -1.0014
  547MOL0     H72188   0.527  10.278   9.076 -0.1938  0.1874 -0.5507
  547MOL0     H72189   0.749  10.394   8.994  0.7688  1.4242 -2.3456
  547MOL0     H72190   1.321  10.237   8.139  0.2093 -1.7220 -0.9019
  547MOL0     H72191   1.091  10.219   8.196 -0.8689  0.0585  2.0197
  547MOL0     H72192   0.849   9.850   8.381  1.5428  2.2798  1.0355
  547MOL0     H72193   0.637   9.725   8.473  0.0521 -0.5223 -1.0979
  547MOL0     H72194   0.254   9.929   8.473 -0.5602 -2.3363 -0.9785
  547MOL0     H72195   0.315   9.988   8.628  0.4542  0.5336 -0.3077
  547MOL0     H72196   0.235   9.745   8.723  0.6610 -1.4961 -1.8851
  547MOL0     H72197   0.119   9.869   8.681  0.3609  2.6903 -3.4962
  547MOL0     H72198   0.125   9.606   8.589 -0.1304 -0.5295 -1.0385
  547MOL0     H72199   0.213   9.682   8.459  1.9153  2.5135  0.5057
  547MOL0     H72200  -0.066   9.774   8.548 -0.5344  0.1480 -0.7891
  547MOL0     H72201   0.039   9.821   8.413  0.2988  1.0584  0.9675
  547MOL0     H72202  -0.111   9.495   8.233 -0.2127  0.1915  0.1523
  547MOL0     H72203   0.433  10.102   8.482  0.2194  2.6273 -2.1265
  547MOL0     H72204   0.637  10.217   8.391  0.1940  0.5195 -0.4279
  548MOL0     O72205   1.046   0.297  10.462 -0.0281  0.0790  0.5111
  548MOL0     C72206   1.026   0.413  10.428  0.1346 -0.1547  0.1118
  548MOL0     O72207   0.898   0.464  10.414 -0.1552 -0.0035 -0.7970
  548MOL0     C72208   0.779   0.423  10.462  0.0297  0.4123 -0.6837
  548MOL0     C72209   0.761   0.332  10.566 -0.8283  0.1015 -0.1719
  548MOL0     C72210   0.639   0.303  10.620 -0.2118 -0.0451  0.1835
  548MOL0     C72211   0.526   0.371  10.572 -1.0101 -0.8539  0.5147
  548MOL0     O72212   0.393   0.344  10.607  0.3737  0.6469 -0.1413
  548MOL0     C72213   0.369   0.239  10.702 -0.6197  0.3040  0.2985
  548MOL0     C72214   0.237   0.242  10.773 -0.4150 -0.4728  0.3582
  548MOL0     C72215   0.122   0.252  10.667 -0.0564 -0.3332 -0.6165
  548MOL0     C72216   0.006   0.173  10.722 -0.4321  0.1622  0.2733
  548MOL0     C72217  -0.131   0.218  10.663 -0.1012 -0.8093 -0.1695
  548MOL0     C72218  -0.128   0.219  10.513  1.2883  0.5137 -0.0839
  548MOL0     C72219  -0.265   0.257  10.465 -0.3780  0.5471  1.0434
  548MOL0     C72220  -0.263   0.281  10.315  0.2993  0.2953 -0.2742
  548MOL0     N72221  -0.397   0.284  10.268  0.0017  0.3523 -0.7444
  548MOL0     C72222  -0.487   0.393  10.263 -0.1427 -0.4402  0.0172
  548MOL0     C72223  -0.609   0.342  10.252 -0.1665  0.5064  0.4345
  548MOL0     C72224  -0.724   0.433  10.226 -0.4046 -0.1054 -0.2377
  548MOL0     C72225  -0.833   0.385  10.128 -0.8186  0.1107 -0.7699
  548MOL0     C72226  -0.799   0.406   9.986 -0.3080 -0.9614  0.5452
  548MOL0     C72227  -0.885   0.311   9.899 -0.1481  0.4760 -0.5056
  548MOL0     O72228  -1.020   0.318   9.937 -0.4091  0.6441  0.2028
  548MOL0     C72229  -1.117   0.256   9.860  0.7777  0.5607 -0.0480
  548MOL0     C72230  -1.112   0.136   9.795 -0.4007  0.3676  0.3814
  548MOL0     C72231  -1.219   0.085   9.725 -0.0570 -0.5467  0.0140
  548MOL0     C72232  -1.334   0.165   9.702 -0.5731 -0.1809 -0.1317
  548MOL0     C72233  -1.430   0.124   9.600  0.7152 -1.3403  0.5081
  548MOL0     O72234  -1.525   0.212   9.568  0.1648 -0.4140  0.1539
  548MOL0     C72235  -1.617   0.189   9.476 -0.7671 -0.4695  0.1879
  548MOL0     C72236  -1.654   0.304   9.405  0.7206 -0.0494  0.4178
  548MOL0     C72237  -1.764   0.298   9.320 -0.3680  0.4910  0.0296
  548MOL0     C72238  -1.833   0.175   9.295  0.0893 -0.6715 -0.0359
  548MOL0     O72239  -1.942   0.159   9.223 -0.3208 -0.4184  0.0829
  548MOL0     C72240  -1.998   0.268   9.141  0.0871  0.1426  0.5585
  548MOL0     C72241  -2.107   0.211   9.055 -0.4802  0.3785  0.7593
  548MOL0     C72242  -2.174   0.326   8.973 -0.5880 -0.0747 -0.0862
  548MOL0     C72243  -2.306   0.288   8.905  0.0993 -0.3652  0.3593
  548MOL0     C72244  -2.277   0.198   8.775 -0.2674  0.6444 -1.0615
  548MOL0     C72245  -2.411   0.157   8.712  0.0321  0.4202  0.1217
  548MOL0     C72246  -2.400   0.050   8.593 -0.3928  0.8706  0.7698
  548MOL0     C72247  -2.525  -0.031   8.551 -0.4909  0.2669  0.1183
  548MOL0    Cl72248  -2.467  -0.113   8.413  0.4487 -0.1343 -0.4574
  548MOL0     C72249  -1.788   0.054   9.354 -0.0502  0.1090 -0.9668
  548MOL0     C72250  -1.684   0.064   9.448  0.3176 -0.1818  0.2226
  548MOL0     O72251  -1.410   0.017   9.546 -0.2602 -0.0296  0.0678
  548MOL0     C72252  -1.347   0.279   9.771 -0.2924 -0.4873  0.4883
  548MOL0     C72253  -1.235   0.333   9.843  0.3613  0.4520 -0.3283
  548MOL0     N72254  -0.606   0.201  10.247  0.6251 -0.6544  0.4888
  548MOL0     N72255  -0.481   0.173  10.260 -0.6889  0.5239 -0.1035
  548MOL0     C72256   0.545   0.464  10.466 -0.0332 -0.2040  0.6289
  548MOL0     C72257   0.670   0.486  10.409  0.1374 -0.9069 -0.5545
  548MOL0     C72258   1.138   0.497  10.377  0.5438  0.6317  0.6015
  548MOL0     C72259   1.123   0.580  10.266 -0.5402  0.8898  0.2271
  548MOL0     C72260   1.232   0.661  10.226  0.6674  0.1353  0.1456
  548MOL0     C72261   1.351   0.653  10.289  0.4613  0.2195  0.0280
  548MOL0     O72262   1.447   0.742  10.249 -0.2092 -0.0799  0.0050
  548MOL0     C72263   1.579   0.711  10.290 -0.7563 -0.1731 -1.1271
  548MOL0     C72264   1.677   0.815  10.239  0.1937 -0.3914  0.3816
  548MOL0     C72265   1.818   0.778  10.288  0.2046 -0.1073  0.6864
  548MOL0     C72266   1.925   0.880  10.251  0.3751  0.7243  0.2560
  548MOL0     C72267   1.890   1.004  10.317 -0.3405  0.6274 -0.5977
  548MOL0     C72268   1.878   1.113  10.376 -0.4680 -0.4974 -0.4829
  548MOL0     C72269   1.368   0.559  10.394 -0.5308 -0.2934  0.1648
  548MOL0     C72270   1.267   0.483  10.433  0.8547  0.1533 -0.1154
  548MOL0     H72271   0.848   0.271  10.592 -1.2473 -0.2607  0.4087
  548MOL0     H72272   0.638   0.241  10.708 -3.4541  3.4893  3.0336
  548MOL0     H72273   0.436   0.252  10.787 -1.0447 -2.3904  1.1413
  548MOL0     H72274   0.377   0.138  10.663  0.5301 -0.1465  1.6372
  548MOL0     H72275   0.248   0.323  10.845  1.9468  0.7848 -1.3045
  548MOL0     H72276   0.233   0.146  10.825  1.0119  0.1752  1.7415
  548MOL0     H72277   0.144   0.204  10.571  0.0561  1.7593 -1.7057
  548MOL0     H72278   0.099   0.359  10.658 -3.1383 -0.8977 -0.4724
  548MOL0     H72279   0.032   0.068  10.708 -0.0848  0.0359  1.7576
  548MOL0     H72280   0.007   0.194  10.829 -0.5763  2.1320 -0.0686
  548MOL0     H72281  -0.146   0.320  10.701 -0.5927 -0.3429 -1.5691
  548MOL0     H72282  -0.212   0.166  10.716 -1.6611  2.4491  0.9224
  548MOL0     H72283  -0.093   0.124  10.473 -4.2537 -0.5460 -3.5428
  548MOL0     H72284  -0.070   0.301  10.468  0.9369  0.5716 -0.4411
  548MOL0     H72285  -0.329   0.169  10.479  1.6287 -1.1980 -0.2234
  548MOL0     H72286  -0.317   0.334  10.522  0.5163  0.7707  1.5835
  548MOL0     H72287  -0.207   0.198  10.272 -1.6036 -1.7232  0.9675
  548MOL0     H72288  -0.220   0.381  10.302 -3.7492  2.6615  2.5226
  548MOL0     H72289  -0.456   0.497  10.259 -0.9258 -0.2356 -1.0060
  548MOL0     H72290  -0.683   0.527  10.188 -2.0454  0.1830 -1.3974
  548MOL0     H72291  -0.778   0.448  10.321 -0.0475  1.3111 -0.2315
  548MOL0     H72292  -0.928   0.432  10.153  0.0066  1.9583 -0.9556
  548MOL0     H72293  -0.848   0.277  10.141 -1.4222 -0.1768 -3.3692
  548MOL0     H72294  -0.825   0.509   9.962  0.4826 -1.1454 -1.3188
  548MOL0     H72295  -0.694   0.390   9.959 -0.1507  0.4254  0.2796
  548MOL0     H72296  -0.859   0.206   9.918  2.4963  1.2166  0.4215
  548MOL0     H72297  -0.882   0.337   9.793 -2.6673 -0.8559 -0.9969
  548MOL0     H72298  -1.017   0.084   9.794  0.6429  2.1835 -0.9416
  548MOL0     H72299  -1.201  -0.012   9.681 -2.3993 -1.6166  1.2101
  548MOL0     H72300  -1.598   0.394   9.425  1.1486  0.3927 -2.3734
  548MOL0     H72301  -1.805   0.388   9.276 -0.4040 -0.6735 -2.5275
  548MOL0     H72302  -1.913   0.299   9.079  1.2755 -1.4969  1.3220
  548MOL0     H72303  -2.042   0.346   9.205  0.0908  1.5767 -1.0952
  548MOL0     H72304  -2.169   0.149   9.120  0.2315 -2.3954 -1.0407
  548MOL0     H72305  -2.065   0.147   8.977 -1.7928 -0.5936  0.8231
  548MOL0     H72306  -2.111   0.370   8.895 -1.0407 -0.8044 -0.8730
  548MOL0     H72307  -2.203   0.408   9.040  1.2841  2.0526 -1.6989
  548MOL0     H72308  -2.370   0.228   8.971  2.5900 -0.1701  3.2274
  548MOL0     H72309  -2.368   0.375   8.883  1.5321  0.4989 -0.3705
  548MOL0     H72310  -2.224   0.106   8.800 -1.0602  0.9460  2.0872
  548MOL0     H72311  -2.212   0.250   8.703  1.0812 -0.7647 -0.9149
  548MOL0     H72312  -2.465   0.244   8.673 -1.3894  0.7592  2.6225
  548MOL0     H72313  -2.468   0.110   8.793  1.0074  0.2374  0.7212
  548MOL0     H72314  -2.383   0.108   8.502 -2.9776 -1.5795 -1.4884
  548MOL0     H72315  -2.316  -0.015   8.618 -1.4897 -1.3891 -1.0115
  548MOL0     H72316  -2.617   0.025   8.532 -0.5060  1.0198  2.2040
  548MOL0     H72317  -2.559  -0.095   8.633 -2.4907 -2.7474 -2.7598
  548MOL0     H72318  -1.838  -0.042   9.346  0.1640 -0.1406  0.4510
  548MOL0     H72319  -1.638  -0.022   9.496  0.4012 -1.0797 -1.4261
  548MOL0     H72320  -1.426   0.351   9.749  4.6574  5.2616 -1.2980
  548MOL0     H72321  -1.242   0.432   9.886  2.0269 -0.0950  1.3941
  548MOL0     H72322   0.469   0.535  10.435  1.4519  0.9478 -0.5351
  548MOL0     H72323   0.673   0.567  10.338  0.8366  1.9409  2.4931
  548MOL0     H72324   1.026   0.577  10.217  0.5107  0.3724 -1.9822
  548MOL0     H72325   1.222   0.730  10.143  0.0847  1.7579  1.5112
  548MOL0     H72326   1.591   0.608  10.255 -0.2309 -0.7121  0.5457
  548MOL0     H72327   1.578   0.714  10.399 -1.1925  0.6839 -1.1441
  548MOL0     H72328   1.673   0.816  10.130 -1.4935 -1.4787  0.3963
  548MOL0     H72329   1.658   0.918  10.272  2.5084  0.3335 -0.3865
  548MOL0     H72330   1.844   0.685  10.238 -3.9526  0.4602 -3.1407
  548MOL0     H72331   1.818   0.760  10.396  1.3474 -2.0576  0.4165
  548MOL0     H72332   2.023   0.839  10.276 -0.0965 -3.0330 -3.1140
  548MOL0     H72333   1.933   0.900  10.144  2.7010  0.8765  0.4005
  548MOL0     H72334   1.873   1.210  10.420 -0.7880 -0.6779 -0.1172
  548MOL0     H72335   1.457   0.549  10.454  0.2754 -0.0445 -0.9542
  548MOL0     H72336   1.279   0.412  10.514  0.1385  1.5027  1.2084
  549MOL0     O72337   6.459   2.911   7.082  1.2455  0.3439 -0.1993
  549MOL0     C72338   6.467   2.887   7.200 -0.6517  0.3548  0.4812
  549MOL0     O72339   6.578   2.848   7.267 -0.8064 -0.7155  0.3684
  549MOL0     C72340   6.688   2.829   7.188 -0.0317  0.1448  0.2383
  549MOL0     C72341   6.710   2.725   7.104 -0.0075  1.1276 -0.0562
  549MOL0     C72342   6.831   2.700   7.036  0.1331 -0.3103  0.3595
  549MOL0     C72343   6.935   2.786   7.062  0.3897  0.4619  0.1965
  549MOL0     O72344   7.048   2.742   6.991  0.0549 -0.3864 -0.3084
  549MOL0     C72345   7.164   2.826   7.001  1.5543  0.0615  0.0009
  549MOL0     C72346   7.259   2.790   6.890 -0.3272 -1.0926 -0.8107
  549MOL0     C72347   7.391   2.859   6.897 -1.0011  0.0925  0.8229
  549MOL0     C72348   7.504   2.786   6.814 -0.9606 -0.0757 -0.2245
  549MOL0     C72349   7.640   2.870   6.801  0.2316  0.2218 -0.2926
  549MOL0     C72350   7.725   2.787   6.696 -0.0945  0.3020  0.9772
  549MOL0     C72351   7.859   2.863   6.671 -0.2833  0.2602 -0.9000
  549MOL0     C72352   7.928   2.819   6.543  0.2427  0.1859 -0.0257
  549MOL0     N72353   7.975   2.681   6.549  0.2017  0.2412  0.0034
  549MOL0     C72354   8.085   2.629   6.616  0.4903  0.7767 -0.1829
  549MOL0     C72355   8.092   2.500   6.571 -0.1096 -0.1606  0.5304
  549MOL0     C72356   8.176   2.388   6.618  0.6018  0.8133  0.1296
  549MOL0     C72357   8.323   2.428   6.630 -0.7599  0.0934  0.2628
  549MOL0     C72358   8.367   2.485   6.493 -0.1528  0.4865  0.0379
  549MOL0     C72359   8.517   2.504   6.482 -0.2140  0.1389  0.4874
  549MOL0     O72360   8.588   2.373   6.497 -0.7491  0.1373 -0.2211
  549MOL0     C72361   8.730   2.380   6.480  0.1073 -0.4492 -0.4867
  549MOL0     C72362   8.801   2.260   6.510  0.3330 -0.2335  0.3831
  549MOL0     C72363   8.935   2.253   6.473  0.3477  0.8993  0.3417
  549MOL0     C72364   9.005   2.358   6.412  0.2330  0.1495 -0.4990
  549MOL0     C72365   9.151   2.343   6.371 -0.1810  0.3792 -0.5241
  549MOL0     O72366   9.204   2.461   6.327  0.4697 -0.0617  0.4065
  549MOL0     C72367   9.334   2.463   6.283  0.1204 -0.1530  0.3675
  549MOL0     C72368   9.426   2.562   6.323 -0.2966  0.2977 -0.4285
  549MOL0     C72369   9.565   2.559   6.282 -0.2567 -0.5052  0.1345
  549MOL0     C72370   9.613   2.452   6.202 -0.5817 -0.3005 -1.0561
  549MOL0     O72371   9.750   2.442   6.182 -0.8282  0.0179 -0.5301
  549MOL0     C72372   9.793   2.316   6.132 -1.0516 -1.1504 -0.8021
  549MOL0     C72373   9.954   2.310   6.141 -0.2733  0.8748  0.0238
  549MOL0     C72374   9.993   2.245   6.281  0.1476  0.0924  0.7390
  549MOL0     C72375  10.142   2.271   6.299 -0.0201 -0.5380 -0.3855
  549MOL0     C72376  10.186   2.219   6.442  0.5472  0.2205  1.2300
  549MOL0     C72377  10.331   2.269   6.476  0.8476 -0.2623  0.2024
  549MOL0     C72378  10.352   2.279   6.632 -0.0831  0.4886  0.9444
  549MOL0     C72379  10.469   2.374   6.670 -0.1782 -0.0244 -0.2615
  549MOL0    Cl72380  10.460   2.401   6.848 -0.0389 -0.0350 -0.1602
  549MOL0     C72381   9.513   2.371   6.146 -0.1109  0.0008  0.2144
  549MOL0     C72382   9.376   2.381   6.183 -0.1153  0.0751 -0.3378
  549MOL0     O72383   9.208   2.243   6.397  0.2301  0.7390 -0.0381
  549MOL0     C72384   8.935   2.471   6.385 -0.3707  0.2811  0.3382
  549MOL0     C72385   8.797   2.485   6.416 -0.3800  0.4816 -0.8036
  549MOL0     N72386   7.979   2.476   6.493 -1.0129  0.0362  0.0073
  549MOL0     N72387   7.909   2.583   6.491  1.1808 -0.0383  0.5260
  549MOL0     C72388   6.926   2.883   7.156  0.5654  0.1298 -0.4550
  549MOL0     C72389   6.801   2.904   7.217 -0.6520 -0.7594  0.2590
  549MOL0     C72390   6.344   2.896   7.278  0.9301 -0.3650 -0.6074
  549MOL0     C72391   6.213   2.897   7.219  0.3649  1.0986 -0.0535
  549MOL0     C72392   6.101   2.919   7.300  0.8630 -0.7871  0.4019
  549MOL0     C72393   6.117   2.945   7.436 -0.0774  0.6184  0.6404
  549MOL0     O72394   6.012   2.964   7.524  0.2209 -0.1804  0.4005
  549MOL0     C72395   5.896   3.037   7.477 -0.2354  0.7897 -0.4416
  549MOL0     C72396   5.779   2.944   7.466  0.4627 -0.2668  0.5982
  549MOL0     C72397   5.682   3.005   7.362  0.3920  1.1948  0.0853
  549MOL0     C72398   5.566   2.919   7.331  0.9003 -0.4525  0.0637
  549MOL0     C72399   5.469   2.940   7.438  0.4471 -0.2202 -0.4142
  549MOL0     C72400   5.389   2.947   7.535 -0.4265  0.1816 -0.3218
  549MOL0     C72401   6.245   2.941   7.497  0.3886 -0.3328 -0.0148
  549MOL0     C72402   6.351   2.924   7.418  0.3159  0.2207 -0.1281
  549MOL0     H72403   6.631   2.657   7.075  0.2069  0.9983 -0.3434
  549MOL0     H72404   6.850   2.614   6.972  2.4051 -0.0606  0.6420
  549MOL0     H72405   7.204   2.830   7.102 -0.1586  2.3545  0.6527
  549MOL0     H72406   7.132   2.929   6.988  1.4304  0.9905  5.3926
  549MOL0     H72407   7.213   2.811   6.793 -0.6397 -1.6461 -0.7862
  549MOL0     H72408   7.276   2.682   6.902  1.2455 -0.6528  1.6100
  549MOL0     H72409   7.430   2.868   6.999  3.2741  0.4904 -0.6487
  549MOL0     H72410   7.380   2.961   6.860 -2.3281 -1.1070 -2.5473
  549MOL0     H72411   7.539   2.701   6.873  2.2652  2.8993  2.6798
  549MOL0     H72412   7.463   2.754   6.717 -1.1057 -1.1594  0.1861
  549MOL0     H72413   7.685   2.884   6.899  1.3107 -1.9920 -0.4148
  549MOL0     H72414   7.618   2.972   6.768  0.1929  0.5629  0.7764
  549MOL0     H72415   7.671   2.764   6.603  0.4392 -0.9854  0.9704
  549MOL0     H72416   7.748   2.686   6.731  3.0752 -0.1419 -1.9246
  549MOL0     H72417   7.835   2.969   6.661  2.6995  1.1393  0.3295
  549MOL0     H72418   7.923   2.834   6.755 -2.1823 -2.9561 -0.3573
  549MOL0     H72419   8.016   2.883   6.530  2.2710 -2.7533 -1.6482
  549MOL0     H72420   7.860   2.851   6.463 -2.4207 -0.8214  1.6965
  549MOL0     H72421   8.153   2.682   6.681  1.7867 -0.2714 -0.6506
  549MOL0     H72422   8.171   2.300   6.552  1.7480  0.8441 -0.0246
  549MOL0     H72423   8.133   2.347   6.709  1.2106 -2.3223 -0.8584
  549MOL0     H72424   8.391   2.348   6.661 -0.2895  1.3310  2.6842
  549MOL0     H72425   8.328   2.506   6.706  1.8554 -0.4132  0.7053
  549MOL0     H72426   8.341   2.405   6.423 -1.5850  0.0925  0.9828
  549MOL0     H72427   8.320   2.581   6.469 -0.3667  0.0826 -1.2387
  549MOL0     H72428   8.556   2.569   6.561  1.2787 -2.1663  1.7843
  549MOL0     H72429   8.542   2.551   6.387  1.0912  0.2502  0.8677
  549MOL0     H72430   8.746   2.178   6.555  2.5302 -3.1124 -1.8328
  549MOL0     H72431   8.996   2.168   6.499 -2.0984 -0.3406  2.4247
  549MOL0     H72432   9.395   2.625   6.405  0.0570  0.0537 -0.1036
  549MOL0     H72433   9.637   2.635   6.310 -0.5194  0.4054 -1.5423
  549MOL0     H72434   9.757   2.304   6.030  1.4579 -3.2647 -1.5487
  549MOL0     H72435   9.743   2.238   6.191 -0.9968 -0.6874 -0.1242
  549MOL0     H72436  10.008   2.405   6.146  2.4367 -0.6300  1.2576
  549MOL0     H72437   9.994   2.266   6.050 -1.0888  0.6193 -0.2194
  549MOL0     H72438   9.977   2.137   6.285 -1.5510  0.3609  3.0007
  549MOL0     H72439   9.934   2.284   6.364 -1.3719 -0.7848  0.1139
  549MOL0     H72440  10.204   2.211   6.232  1.9196 -0.4846  1.2836
  549MOL0     H72441  10.162   2.378   6.291  1.7875 -0.7227  1.0187
  549MOL0     H72442  10.194   2.110   6.439 -0.2247 -0.0489 -5.1114
  549MOL0     H72443  10.113   2.250   6.518  0.0739  1.3740  0.3431
  549MOL0     H72444  10.331   2.364   6.421  2.6540  0.4578  1.3572
  549MOL0     H72445  10.409   2.201   6.439  0.2957  0.2670 -2.1277
  549MOL0     H72446  10.260   2.318   6.677 -0.3438  0.8035  0.1477
  549MOL0     H72447  10.374   2.185   6.683  0.2336 -0.4719 -0.9041
  549MOL0     H72448  10.465   2.467   6.612 -1.1693 -0.2721 -0.6024
  549MOL0     H72449  10.560   2.320   6.643 -0.0556  0.8418 -1.6443
  549MOL0     H72450   9.544   2.285   6.086  2.5844  0.6863  0.4963
  549MOL0     H72451   9.291   2.324   6.144  0.2136 -1.7256  1.3941
  549MOL0     H72452   8.977   2.556   6.332 -0.5414  1.2586  1.7052
  549MOL0     H72453   8.747   2.576   6.384  0.6982  0.4713 -2.6716
  549MOL0     H72454   7.014   2.944   7.173  0.8225  1.0536 -4.2435
  549MOL0     H72455   6.780   2.981   7.291 -4.6392 -1.3508 -0.0449
  549MOL0     H72456   6.206   2.876   7.112  0.1015  0.0544  0.1576
  549MOL0     H72457   6.004   2.907   7.254  1.7568 -0.2568 -1.7891
  549MOL0     H72458   5.919   3.090   7.384  1.5045  0.0333 -0.4841
  549MOL0     H72459   5.875   3.121   7.545  0.1312  1.4988 -1.1836
  549MOL0     H72460   5.801   2.845   7.426  2.6982  0.9446 -1.3960
  549MOL0     H72461   5.731   2.936   7.564 -0.8430 -0.9193 -0.0600
  549MOL0     H72462   5.741   3.025   7.273 -0.7628  2.6482 -0.4098
  549MOL0     H72463   5.643   3.102   7.397  2.6358  1.2733  2.7405
  549MOL0     H72464   5.523   2.957   7.238 -1.1427 -0.7918  0.8203
  549MOL0     H72465   5.598   2.815   7.315 -1.4527 -1.1262 -0.7570
  549MOL0     H72466   5.307   2.944   7.604 -0.0418  2.4592  0.2924
  549MOL0     H72467   6.253   2.967   7.602 -0.9400 -2.2344  0.6052
  549MOL0     H72468   6.444   2.944   7.471  1.5284 -2.7652 -0.8943
  550MOL0     O72469   5.587   1.906   1.087  0.6128  0.7247 -1.0577
  550MOL0     C72470   5.552   1.855   0.982 -0.3643 -0.4134  0.2228
  550MOL0     O72471   5.441   1.782   0.956  0.1448  0.1837  0.2672
  550MOL0     C72472   5.353   1.771   1.058 -0.3497 -0.3390  0.8199
  550MOL0     C72473   5.364   1.665   1.147  0.1742 -0.4445 -0.0300
  550MOL0     C72474   5.269   1.648   1.251 -0.0587  0.1175 -0.3481
  550MOL0     C72475   5.170   1.737   1.273 -0.3171  0.1306 -1.7417
  550MOL0     O72476   5.095   1.724   1.381  0.1864  0.2230  1.3162
  550MOL0     C72477   4.968   1.788   1.379 -0.0642 -0.4907  0.4505
  550MOL0     C72478   4.888   1.713   1.475 -0.2015 -0.5220  0.4486
  550MOL0     C72479   4.750   1.764   1.502 -0.5451  0.5210  0.1164
  550MOL0     C72480   4.653   1.708   1.393 -0.4727 -0.4623  0.0599
  550MOL0     C72481   4.503   1.753   1.421  0.9017 -0.2641  0.0687
  550MOL0     C72482   4.415   1.716   1.298  0.6445  0.1409  0.8730
  550MOL0     C72483   4.264   1.750   1.318 -0.3519 -0.1068  0.3524
  550MOL0     C72484   4.172   1.634   1.260  0.5670  0.0976  0.0185
  550MOL0     N72485   4.026   1.657   1.289  0.9128 -0.5416 -0.3935
  550MOL0     C72486   3.973   1.654   1.415 -0.5142  0.3944  0.2660
  550MOL0     C72487   3.850   1.699   1.399  1.0354  0.2718 -0.6156
  550MOL0     C72488   3.746   1.718   1.508  0.3327 -0.1505  1.4137
  550MOL0     C72489   3.609   1.669   1.459 -0.2246 -0.3143 -1.0695
  550MOL0     C72490   3.524   1.643   1.588 -0.0935  0.1383  0.6317
  550MOL0     C72491   3.381   1.615   1.545 -0.1930  0.2571  0.5310
  550MOL0     O72492   3.332   1.732   1.469 -0.4608  0.2734  0.2631
  550MOL0     C72493   3.200   1.752   1.485  0.1124  0.4588 -0.7323
  550MOL0     C72494   3.148   1.886   1.502  0.1170  0.1998 -0.5045
  550MOL0     C72495   3.010   1.905   1.527 -0.2928 -0.7730 -0.2185
  550MOL0     C72496   2.921   1.799   1.509  0.3026 -0.8633 -0.3382
  550MOL0     C72497   2.775   1.829   1.524 -0.0338  0.2167 -0.0192
  550MOL0     O72498   2.692   1.714   1.515 -0.3532 -0.5834  0.3457
  550MOL0     C72499   2.553   1.728   1.536  0.0836 -0.1662  0.0399
  550MOL0     C72500   2.478   1.613   1.510 -0.2517  0.3773 -0.7324
  550MOL0     C72501   2.341   1.605   1.517 -0.3513 -0.7037 -0.4305
  550MOL0     C72502   2.265   1.720   1.557  0.0705 -0.0755  0.7236
  550MOL0     O72503   2.130   1.721   1.570  0.2781 -0.7852  0.0209
  550MOL0     C72504   2.054   1.651   1.480 -0.1388  0.1432  0.5001
  550MOL0     C72505   1.914   1.628   1.538 -0.9607  1.0330 -0.1803
  550MOL0     C72506   1.818   1.547   1.440 -0.1375 -0.9570 -0.1912
  550MOL0     C72507   1.725   1.455   1.517  0.2138 -0.3513 -0.2362
  550MOL0     C72508   1.582   1.443   1.455  0.0982  0.5500 -0.2914
  550MOL0     C72509   1.502   1.572   1.474 -0.8986 -0.1045 -0.2179
  550MOL0     C72510   1.347   1.572   1.442 -0.3271  0.4585 -0.0350
  550MOL0     C72511   1.308   1.579   1.300 -0.0724  0.1015  1.1894
  550MOL0    Cl72512   1.401   1.722   1.218 -0.0539  0.0621 -0.2055
  550MOL0     C72513   2.335   1.836   1.586  0.4979  0.3484  0.2827
  550MOL0     C72514   2.474   1.848   1.577  1.0139  1.0840  0.5924
  550MOL0     O72515   2.737   1.943   1.540 -0.1721 -0.6957  0.1761
  550MOL0     C72516   2.971   1.676   1.495  0.2544  0.0810  0.0952
  550MOL0     C72517   3.105   1.655   1.478  0.4238 -0.6939 -0.2721
  550MOL0     N72518   3.837   1.745   1.270  0.2391 -0.1398 -0.4241
  550MOL0     N72519   3.939   1.716   1.210  0.5574  0.3728  0.5690
  550MOL0     C72520   5.167   1.858   1.194  0.5765  0.3875 -1.0358
  550MOL0     C72521   5.248   1.867   1.080  0.4154  0.6027  0.4195
  550MOL0     C72522   5.655   1.849   0.878  0.6139 -0.3399 -0.0631
  550MOL0     C72523   5.644   1.760   0.773  0.5011  0.8877 -0.0666
  550MOL0     C72524   5.741   1.751   0.672  0.0470 -0.6154  0.4649
  550MOL0     C72525   5.845   1.845   0.671 -0.2986  0.5050  0.3168
  550MOL0     O72526   5.933   1.858   0.572 -0.3174  0.0531 -0.2806
  550MOL0     C72527   5.944   1.755   0.468  0.3714 -0.1709  0.2190
  550MOL0     C72528   6.080   1.765   0.415 -0.2448  0.4455  0.3429
  550MOL0     C72529   6.192   1.719   0.507  0.2857  1.0529  0.4624
  550MOL0     C72530   6.257   1.834   0.587 -0.3342 -0.1098  0.9901
  550MOL0     C72531   6.350   1.914   0.515 -0.6619 -0.3327 -0.3454
  550MOL0     C72532   6.412   2.002   0.457 -0.9033  0.4519 -0.2903
  550MOL0     C72533   5.854   1.940   0.769 -0.2009 -0.2912  0.5404
  550MOL0     C72534   5.760   1.941   0.877  0.0074 -0.2865 -0.3567
  550MOL0     H72535   5.442   1.591   1.128  2.7639  2.3674 -1.3095
  550MOL0     H72536   5.278   1.565   1.320  0.8236  2.2745  2.2969
  550MOL0     H72537   4.921   1.780   1.280  2.5674  0.7425 -1.0230
  550MOL0     H72538   4.970   1.888   1.424  0.8017 -1.0097  1.6093
  550MOL0     H72539   4.940   1.688   1.568  2.3446  1.2420 -0.3727
  550MOL0     H72540   4.875   1.613   1.431  2.3158 -1.4675  1.6436
  550MOL0     H72541   4.758   1.872   1.486  2.3110  0.5054  0.8819
  550MOL0     H72542   4.705   1.748   1.601  1.1851 -1.2578  0.6829
  550MOL0     H72543   4.684   1.742   1.294  0.3746  1.7306  1.0132
  550MOL0     H72544   4.662   1.599   1.399 -0.0706 -0.3820  1.2980
  550MOL0     H72545   4.501   1.862   1.433  1.4906 -0.2824  0.3452
  550MOL0     H72546   4.453   1.703   1.504  0.1325 -0.9105 -0.7600
  550MOL0     H72547   4.427   1.609   1.275  1.3113  0.7246 -1.8260
  550MOL0     H72548   4.457   1.763   1.209  3.5693 -0.1575  1.9857
  550MOL0     H72549   4.241   1.749   1.425 -0.5973  2.6207  0.3947
  550MOL0     H72550   4.253   1.841   1.259  1.9621 -2.5030 -4.3582
  550MOL0     H72551   4.196   1.535   1.299 -3.4928 -0.6033  1.1895
  550MOL0     H72552   4.181   1.628   1.151  0.9946 -1.6913  0.1285
  550MOL0     H72553   4.018   1.611   1.504  0.9229 -1.6545 -1.3862
  550MOL0     H72554   3.750   1.823   1.536 -0.8774  0.6793 -1.1782
  550MOL0     H72555   3.785   1.650   1.584  2.2081 -3.0246 -1.7767
  550MOL0     H72556   3.620   1.570   1.413  2.3508 -1.9871  2.6209
  550MOL0     H72557   3.562   1.736   1.386 -1.5358 -3.5159 -3.3933
  550MOL0     H72558   3.582   1.567   1.643  2.6788  0.8830 -1.0640
  550MOL0     H72559   3.537   1.726   1.659  4.0964  1.5248 -1.3814
  550MOL0     H72560   3.318   1.597   1.633  0.3929  0.0368  0.9139
  550MOL0     H72561   3.371   1.525   1.484  0.9889  1.6141 -1.7945
  550MOL0     H72562   3.222   1.965   1.504  0.9150 -0.5503  1.4569
  550MOL0     H72563   2.971   2.006   1.542 -3.6139 -1.7833 -1.3042
  550MOL0     H72564   2.519   1.520   1.473 -0.1237  0.4853 -0.8625
  550MOL0     H72565   2.285   1.516   1.489  0.8708 -0.8564 -2.5779
  550MOL0     H72566   2.095   1.550   1.471  0.1051  0.1774  1.1479
  550MOL0     H72567   2.052   1.699   1.382  1.2758 -0.2098  0.2777
  550MOL0     H72568   1.867   1.726   1.552  1.9917  2.2975  1.6674
  550MOL0     H72569   1.917   1.582   1.637 -3.5234  0.6094 -0.2218
  550MOL0     H72570   1.867   1.485   1.365 -2.4804 -1.6360 -1.2427
  550MOL0     H72571   1.765   1.622   1.380  0.5287 -1.0651 -0.9267
  550MOL0     H72572   1.762   1.353   1.509 -1.1662 -1.0681  1.7087
  550MOL0     H72573   1.720   1.476   1.624  0.0080 -2.7254  0.2789
  550MOL0     H72574   1.533   1.354   1.496  3.0536 -1.1890 -0.2981
  550MOL0     H72575   1.592   1.429   1.348 -1.0216  1.9596 -0.6174
  550MOL0     H72576   1.544   1.641   1.400 -2.2932 -0.0612 -1.0137
  550MOL0     H72577   1.506   1.611   1.576  1.5498  0.5028 -0.4949
  550MOL0     H72578   1.309   1.482   1.491  1.8217 -0.2025  0.5256
  550MOL0     H72579   1.283   1.644   1.492 -1.6946 -0.1522 -0.8453
  550MOL0     H72580   1.199   1.579   1.294 -0.1698 -1.5161  2.1529
  550MOL0     H72581   1.322   1.479   1.257  0.8404  0.0586  1.5568
  550MOL0     H72582   2.269   1.913   1.623 -2.3619 -1.0414 -1.6225
  550MOL0     H72583   2.514   1.937   1.626  2.2953 -0.8794  3.3654
  550MOL0     H72584   2.910   1.587   1.511  1.2475 -0.8062 -0.9282
  550MOL0     H72585   3.140   1.555   1.454  2.0542 -0.4812  1.0357
  550MOL0     H72586   5.103   1.940   1.227 -0.6931 -0.3849 -1.4962
  550MOL0     H72587   5.248   1.956   1.018  3.9276  0.4549 -0.0021
  550MOL0     H72588   5.570   1.680   0.771  1.4260  0.0051  0.3662
  550MOL0     H72589   5.731   1.681   0.590  2.1151 -0.7572  0.2813
  550MOL0     H72590   5.866   1.773   0.394  1.1994  1.8837 -0.2441
  550MOL0     H72591   5.926   1.656   0.511 -0.6068 -0.8625 -1.6604
  550MOL0     H72592   6.077   1.712   0.319 -1.1690  1.7579 -0.3803
  550MOL0     H72593   6.095   1.871   0.393  2.0871  0.3025  0.9731
  550MOL0     H72594   6.275   1.685   0.443 -1.5914 -1.3794 -0.8687
  550MOL0     H72595   6.154   1.638   0.570 -3.0927  0.9630 -1.4596
  550MOL0     H72596   6.172   1.890   0.627 -0.6420  0.3580 -0.2600
  550MOL0     H72597   6.320   1.793   0.666  1.2079 -0.3861 -0.3322
  550MOL0     H72598   6.476   2.076   0.414  1.8146 -1.0511  0.9119
  550MOL0     H72599   5.931   2.016   0.759 -0.4898 -0.3279 -3.0899
  550MOL0     H72600   5.764   2.019   0.952 -0.9654  0.0279 -0.6198
  551MOL0     O72601   8.600   4.381  10.974 -0.7331 -0.2334  0.8027
  551MOL0     C72602   8.559   4.361  10.859 -0.6977  0.4346 -0.8896
  551MOL0     O72603   8.640   4.340  10.755  0.0515  0.5289  0.3906
  551MOL0     C72604   8.780   4.350  10.772 -0.0652 -0.4755 -0.1458
  551MOL0     C72605   8.862   4.465  10.778  0.7492  0.0257 -0.4717
  551MOL0     C72606   8.997   4.458  10.815  0.2667  0.9336 -0.6000
  551MOL0     C72607   9.063   4.329  10.842 -0.1268 -0.2061 -0.3506
  551MOL0     O72608   9.199   4.340  10.872  0.6922  0.1026 -0.0081
  551MOL0     C72609   9.263   4.222  10.910 -0.1764  0.7708  0.3723
  551MOL0     C72610   9.399   4.257  10.953 -0.1408  0.4704 -0.4378
  551MOL0     C72611   9.480   4.130  10.943 -0.2165 -0.3120 -0.1589
  551MOL0     C72612   9.628   4.151  10.981 -0.6619  0.6912 -0.1786
  551MOL0     C72613   9.701   4.017  10.983  0.8733 -0.4891  0.3238
  551MOL0     C72614   9.839   4.028  11.039  0.5062  0.4613  0.2337
  551MOL0     C72615   9.930   4.107  10.941 -0.4100 -0.4820 -0.4902
  551MOL0     C72616  10.076   4.135  11.004  1.2644  0.6091  0.4398
  551MOL0     N72617  10.178   4.169  10.908  0.8951  0.0084 -0.4295
  551MOL0     C72618  10.294   4.224  10.948  0.4557 -0.4151 -0.8628
  551MOL0     C72619  10.332   4.307  10.852 -0.0281  0.0061  0.7436
  551MOL0     C72620  10.456   4.391  10.889  0.1725 -0.0978  0.0991
  551MOL0     C72621  10.432   4.540  10.907  0.7419  0.3186 -0.9894
  551MOL0     C72622  10.332   4.560  11.024 -0.9324  0.5191 -0.5851
  551MOL0     C72623  10.182   4.553  10.981 -0.0551  0.2529 -0.3505
  551MOL0     O72624  10.101   4.611  11.093  0.2443  0.3752  0.1843
  551MOL0     C72625   9.965   4.602  11.082  0.1581 -0.2794  0.0611
  551MOL0     C72626   9.891   4.628  11.198 -0.1259  0.7151  0.4276
  551MOL0     C72627   9.758   4.642  11.201 -0.2720  0.0431  0.6347
  551MOL0     C72628   9.675   4.618  11.093  0.4963 -0.2681  0.0855
  551MOL0     C72629   9.526   4.621  11.105 -0.0939  0.2696  0.8921
  551MOL0     O72630   9.480   4.658  11.229 -0.2902 -0.0653 -0.5193
  551MOL0     C72631   9.344   4.624  11.255 -0.5688 -0.1566  0.0431
  551MOL0     C72632   9.297   4.496  11.255  0.5061  0.0387  0.1861
  551MOL0     C72633   9.163   4.467  11.274 -1.1728 -0.7358  0.1999
  551MOL0     C72634   9.068   4.576  11.290  0.5590  0.0084  1.2561
  551MOL0     O72635   8.934   4.564  11.321  0.4350 -0.0672  0.2685
  551MOL0     C72636   8.870   4.467  11.239  0.2573 -0.4096  0.5402
  551MOL0     C72637   8.733   4.441  11.301  0.3364 -0.3841 -0.3842
  551MOL0     C72638   8.623   4.539  11.291  0.6811  0.0956  0.4186
  551MOL0     C72639   8.506   4.491  11.377 -0.2405 -0.3098 -0.0071
  551MOL0     C72640   8.374   4.571  11.336 -0.8800  0.2642  0.3290
  551MOL0     C72641   8.264   4.524  11.425 -0.1028  0.9547  0.1268
  551MOL0     C72642   8.116   4.574  11.386 -0.2043  0.7704 -0.5327
  551MOL0     C72643   8.010   4.553  11.492 -0.2115  0.0610 -0.5493
  551MOL0    Cl72644   7.879   4.680  11.460  0.0841 -0.1733  0.0259
  551MOL0     C72645   9.123   4.705  11.286 -0.1976 -1.0998 -0.6775
  551MOL0     C72646   9.260   4.726  11.271 -0.4244 -0.4631  0.0005
  551MOL0     O72647   9.457   4.590  11.009 -0.4964 -1.1368  0.5009
  551MOL0     C72648   9.747   4.576  10.975  0.4467 -0.4689 -0.6667
  551MOL0     C72649   9.887   4.574  10.969 -0.5978 -0.8921 -0.2384
  551MOL0     N72650  10.249   4.285  10.737  0.1493  0.4442  0.8339
  551MOL0     N72651  10.166   4.195  10.770  1.3418 -0.4217  0.4173
  551MOL0     C72652   8.976   4.216  10.834 -0.0120 -0.2167  0.3729
  551MOL0     C72653   8.844   4.228  10.792  0.3321  0.2135 -0.3872
  551MOL0     C72654   8.413   4.350  10.834  0.0293  0.0807  0.6960
  551MOL0     C72655   8.323   4.335  10.934  0.1616 -0.3339 -0.8582
  551MOL0     C72656   8.187   4.330  10.915 -0.6567  0.5058  0.2252
  551MOL0     C72657   8.142   4.338  10.780 -0.4924  0.5802 -0.0070
  551MOL0     O72658   8.007   4.338  10.762  0.2646  0.4939 -0.2518
  551MOL0     C72659   7.947   4.473  10.768 -0.3883  0.4736  0.0758
  551MOL0     C72660   7.805   4.450  10.703  0.3834  0.9842  0.5192
  551MOL0     C72661   7.707   4.396  10.810  0.6113  0.9346 -0.4998
  551MOL0     C72662   7.571   4.375  10.741  0.5423 -1.1135 -0.4596
  551MOL0     C72663   7.512   4.510  10.719  0.4165  1.3449  0.4120
  551MOL0     C72664   7.453   4.610  10.702  1.5434  0.3568  0.6610
  551MOL0     C72665   8.226   4.353  10.677 -0.1394  1.1915  0.7195
  551MOL0     C72666   8.359   4.362  10.703 -0.4119  0.3259  0.0785
  551MOL0     H72667   8.813   4.560  10.758  0.8732 -0.2150 -2.0510
  551MOL0     H72668   9.062   4.544  10.826 -0.7358  1.8741 -1.8152
  551MOL0     H72669   9.267   4.150  10.827  0.3774  2.4074 -1.0821
  551MOL0     H72670   9.216   4.181  10.999 -1.1062  1.2146  0.0975
  551MOL0     H72671   9.402   4.291  11.057  0.6388 -0.2185 -0.2269
  551MOL0     H72672   9.436   4.340  10.892  0.4960  1.0553  0.7245
  551MOL0     H72673   9.485   4.093  10.840  2.2156  3.3957 -1.6020
  551MOL0     H72674   9.437   4.063  11.017 -1.3702 -0.5419 -1.0135
  551MOL0     H72675   9.685   4.216  10.913 -0.3664 -0.9508 -1.5448
  551MOL0     H72676   9.632   4.185  11.085 -1.7480  0.3201 -0.0124
  551MOL0     H72677   9.704   3.970  10.884  0.1231  0.4735 -0.1784
  551MOL0     H72678   9.640   3.952  11.046  0.0922 -0.2122 -0.1261
  551MOL0     H72679   9.886   3.930  11.046 -0.0660  0.0773 -1.0306
  551MOL0     H72680   9.841   4.082  11.135  0.5396 -0.3090  0.6748
  551MOL0     H72681   9.949   4.042  10.855  0.5354  2.1238 -2.3598
  551MOL0     H72682   9.884   4.203  10.915  1.8181  0.9505  0.5594
  551MOL0     H72683  10.098   4.047  11.066 -0.5865 -1.5822 -1.8109
  551MOL0     H72684  10.057   4.226  11.063 -1.6916  0.0003  0.5724
  551MOL0     H72685  10.335   4.210  11.047 -0.8241  0.4523 -0.1921
  551MOL0     H72686  10.531   4.367  10.813 -1.7727 -0.2386 -1.8788
  551MOL0     H72687  10.502   4.368  10.985  2.2388  3.1737  0.0795
  551MOL0     H72688  10.398   4.584  10.812 -1.2042  0.1265 -0.4254
  551MOL0     H72689  10.528   4.588  10.928  1.7322 -0.8906 -2.4737
  551MOL0     H72690  10.331   4.482  11.101 -0.2015  2.1169  1.1489
  551MOL0     H72691  10.367   4.647  11.080  0.7174  1.1825 -2.5448
  551MOL0     H72692  10.152   4.449  10.961  1.7574 -0.1380 -1.2145
  551MOL0     H72693  10.172   4.599  10.883  0.9336 -0.7720 -0.9596
  551MOL0     H72694   9.941   4.655  11.291  1.2197  0.1627 -0.1247
  551MOL0     H72695   9.699   4.656  11.291 -3.0984  0.6528 -1.1803
  551MOL0     H72696   9.368   4.415  11.238  1.2291  0.8625 -0.8155
  551MOL0     H72697   9.140   4.364  11.300  0.2002 -1.1421 -0.1095
  551MOL0     H72698   8.925   4.375  11.257 -0.0326 -0.0666  3.8572
  551MOL0     H72699   8.863   4.482  11.131 -3.0747 -0.5085  0.6157
  551MOL0     H72700   8.749   4.415  11.406  0.3475 -3.3807 -1.0416
  551MOL0     H72701   8.695   4.348  11.257  2.3994 -1.1978 -0.5614
  551MOL0     H72702   8.587   4.548  11.188  0.4019  0.3502  0.5353
  551MOL0     H72703   8.654   4.637  11.328 -0.2682  0.9037 -0.8398
  551MOL0     H72704   8.488   4.384  11.384 -3.1405  0.1711  1.8425
  551MOL0     H72705   8.539   4.520  11.478 -0.1902  0.4293 -0.2243
  551MOL0     H72706   8.359   4.547  11.230  1.0126 -1.4673  0.3858
  551MOL0     H72707   8.397   4.678  11.344  0.5621 -0.1337  2.0876
  551MOL0     H72708   8.290   4.549  11.529 -1.2189 -0.1405  0.6934
  551MOL0     H72709   8.256   4.415  11.423 -4.7631  1.0666 -2.4372
  551MOL0     H72710   8.113   4.680  11.357  0.5313  0.2741 -2.6143
  551MOL0     H72711   8.086   4.522  11.294 -0.2304  0.3120 -0.2641
  551MOL0     H72712   8.048   4.561  11.594 -0.1770  1.2498 -0.6403
  551MOL0     H72713   7.970   4.452  11.475  1.1921 -1.2119  2.7897
  551MOL0     H72714   9.056   4.788  11.306  0.2233 -0.6785 -1.0065
  551MOL0     H72715   9.291   4.830  11.276  0.3497 -0.6659 -0.3559
  551MOL0     H72716   9.693   4.543  10.887 -1.3008 -1.9454  0.8822
  551MOL0     H72717   9.932   4.559  10.871  0.8860  3.3196 -0.4063
  551MOL0     H72718   9.018   4.120  10.862  2.3641  0.0230 -1.9650
  551MOL0     H72719   8.784   4.137  10.793  0.1142  0.3489 -0.9601
  551MOL0     H72720   8.364   4.330  11.034 -4.4558 -1.0344  1.2604
  551MOL0     H72721   8.130   4.312  11.006  0.3436 -2.0551  0.4208
  551MOL0     H72722   8.003   4.544  10.706 -0.2217  0.3657  0.1046
  551MOL0     H72723   7.952   4.505  10.872  1.5941 -1.0039  0.4961
  551MOL0     H72724   7.762   4.537  10.653 -0.3265 -1.0242 -2.6238
  551MOL0     H72725   7.816   4.375  10.624 -1.1636  0.4750  0.7564
  551MOL0     H72726   7.709   4.478  10.883  1.5766 -0.0998  0.6689
  551MOL0     H72727   7.732   4.304  10.862 -1.5238  0.2757 -0.5363
  551MOL0     H72728   7.584   4.312  10.652  0.6805  2.0262 -2.8088
  551MOL0     H72729   7.500   4.332  10.812  1.1580  0.9514  1.5279
  551MOL0     H72730   7.409   4.706  10.682  1.7707  0.2623 -0.3121
  551MOL0     H72731   8.190   4.378  10.578  2.2207  0.3181 -0.4265
  551MOL0     H72732   8.436   4.366  10.626  2.6585 -0.7049  2.8100
  552MOL0     O72733   5.374  10.408   4.609 -0.7886 -0.4301  1.4620
  552MOL0     C72734   5.478  10.461   4.640 -0.1922 -0.1373  0.5570
  552MOL0     O72735   5.494  10.564   4.721  0.5908  0.0086 -0.2936
  552MOL0     C72736   5.383  10.641   4.762 -0.4425  0.7299 -0.4949
  552MOL0     C72737   5.269  10.666   4.693  1.2307  0.2342  0.5649
  552MOL0     C72738   5.176  10.758   4.748 -1.0409  0.5062  0.8534
  552MOL0     C72739   5.196  10.827   4.873  0.0683  0.1667 -0.2817
  552MOL0     O72740   5.111  10.918   4.926 -0.0051  0.1803  0.6785
  552MOL0     C72741   4.991  10.928   4.859 -0.4516  0.2164  0.4104
  552MOL0     C72742   4.916  11.039   4.936  0.0816  0.3357 -0.1211
  552MOL0     C72743   4.812  11.096   4.834  0.3775 -0.1306  0.5903
  552MOL0     C72744   4.710  11.188   4.903  0.3979 -0.6721 -0.2778
  552MOL0     C72745   4.597  11.238   4.810 -0.7445 -0.0697 -0.8039
  552MOL0     C72746   4.496  11.339   4.861 -0.6749  0.0847 -1.2883
  552MOL0     C72747   4.393  11.284   4.956 -0.7764  0.0618  0.1951
  552MOL0     C72748   4.276  11.390   4.956  0.6014 -0.2125  0.0352
  552MOL0     N72749   4.156  11.339   5.022  0.4117  0.3282  0.2866
  552MOL0     C72750   4.125  11.343   5.159  0.7914  0.4001  0.2526
  552MOL0     C72751   4.007  11.271   5.167 -0.1081  0.5866  0.1808
  552MOL0     C72752   3.929  11.248   5.294 -0.6926  0.7220  0.3866
  552MOL0     C72753   3.862  11.383   5.319 -0.0526 -0.6778 -0.3395
  552MOL0     C72754   3.777  11.452   5.209  0.5906 -0.1810  0.1003
  552MOL0     C72755   3.691  11.344   5.129  0.5991  0.4021 -0.3165
  552MOL0     O72756   3.627  11.391   5.015  0.1000 -0.2086 -1.1981
  552MOL0     C72757   3.492  11.386   5.008  0.0583 -0.2085 -0.3825
  552MOL0     C72758   3.428  11.265   4.986  0.5699  0.2080  0.3949
  552MOL0     C72759   3.292  11.257   4.963 -0.0321 -0.1544  0.2202
  552MOL0     C72760   3.210  11.361   4.975  0.6764  0.9354  0.3538
  552MOL0     C72761   3.059  11.350   4.970 -0.1318 -0.0865  0.4064
  552MOL0     O72762   3.014  11.227   4.967 -0.5806  0.5576 -0.4278
  552MOL0     C72763   2.878  11.194   4.987 -0.7279  0.2868  0.0674
  552MOL0     C72764   2.832  11.065   4.942 -0.2895  0.0414 -0.0005
  552MOL0     C72765   2.711  11.020   4.982  0.1230  0.2780 -0.9824
  552MOL0     C72766   2.626  11.097   5.070  0.8615 -0.2911  0.8674
  552MOL0     O72767   2.507  11.039   5.103 -0.3861  0.0875  0.4635
  552MOL0     C72768   2.391  11.086   5.038  0.2642  0.0261 -0.1516
  552MOL0     C72769   2.284  11.044   5.138  0.4788  0.2146  0.4875
  552MOL0     C72770   2.144  11.085   5.088  0.0460  0.0239  0.3575
  552MOL0     C72771   2.036  11.065   5.190 -0.4139 -0.0740  0.4408
  552MOL0     C72772   1.917  11.152   5.148  0.1221 -0.5558 -0.3487
  552MOL0     C72773   1.790  11.122   5.238  0.3444  0.2516  0.7750
  552MOL0     C72774   1.682  11.231   5.220 -0.7808 -0.1058 -0.2492
  552MOL0     C72775   1.551  11.189   5.295  0.2260 -0.5351  0.4324
  552MOL0    Cl72776   1.457  11.347   5.310 -0.8467 -0.1088  0.0785
  552MOL0     C72777   2.669  11.218   5.112  0.0535  0.8179  0.4918
  552MOL0     C72778   2.789  11.264   5.071  0.1885 -0.1892 -0.5073
  552MOL0     O72779   2.988  11.452   4.975 -0.6259 -0.7158  0.4350
  552MOL0     C72780   3.271  11.482   5.004 -0.3918 -0.1729  0.6686
  552MOL0     C72781   3.414  11.498   5.016  0.4849  1.7383  0.7145
  552MOL0     N72782   3.978  11.227   5.040  0.0577  0.0202 -0.3861
  552MOL0     N72783   4.059  11.269   4.955 -0.4216  0.1875 -0.1630
  552MOL0     C72784   5.314  10.793   4.942  0.8761  0.4414 -0.6209
  552MOL0     C72785   5.402  10.704   4.886  0.0197  0.2185 -0.1204
  552MOL0     C72786   5.606  10.407   4.583  0.6252  0.1378 -0.3117
  552MOL0     C72787   5.608  10.295   4.500  0.7811 -0.2322  0.2139
  552MOL0     C72788   5.726  10.258   4.440 -0.7175 -0.9532  0.8318
  552MOL0     C72789   5.846  10.315   4.477 -0.5072 -0.2457  0.5696
  552MOL0     O72790   5.969  10.285   4.412 -0.7394 -0.0388 -0.8508
  552MOL0     C72791   5.970  10.204   4.296 -0.3636  0.2438  0.2441
  552MOL0     C72792   6.113  10.199   4.227  0.8514 -0.2742 -0.2912
  552MOL0     C72793   6.165  10.332   4.168 -0.9446 -0.3920 -0.0439
  552MOL0     C72794   6.262  10.397   4.266  0.2956  0.7722 -0.1662
  552MOL0     C72795   6.379  10.305   4.275 -0.7114 -0.5261 -1.1547
  552MOL0     C72796   6.478  10.233   4.256 -0.3429  0.0752 -1.0103
  552MOL0     C72797   5.848  10.419   4.561 -0.2234  0.6691 -0.1933
  552MOL0     C72798   5.729  10.464   4.620  0.1273  1.0231 -0.4754
  552MOL0     H72799   5.248  10.618   4.598 -0.0212 -0.5070  1.1941
  552MOL0     H72800   5.096  10.787   4.681 -0.8801  0.8374  0.8014
  552MOL0     H72801   4.927  10.840   4.847 -3.4250  2.0464  1.6268
  552MOL0     H72802   5.017  10.967   4.760 -2.3677 -1.6189 -0.9182
  552MOL0     H72803   4.989  11.115   4.968  2.1348 -2.3852  2.1052
  552MOL0     H72804   4.863  11.001   5.023 -1.3952 -1.7251 -1.8222
  552MOL0     H72805   4.753  11.013   4.795  0.8005 -0.0726 -0.1913
  552MOL0     H72806   4.862  11.157   4.757 -0.1622 -0.2341  0.1538
  552MOL0     H72807   4.664  11.141   4.991  3.7391  3.6787  4.3933
  552MOL0     H72808   4.754  11.277   4.950 -2.8087 -0.5439  2.9554
  552MOL0     H72809   4.543  11.154   4.765 -2.1312  0.1425  0.3751
  552MOL0     H72810   4.647  11.290   4.728 -2.1611 -0.0878 -1.7254
  552MOL0     H72811   4.440  11.361   4.769 -2.2445  1.9525  0.0386
  552MOL0     H72812   4.556  11.416   4.909  0.9314 -0.6637 -2.0121
  552MOL0     H72813   4.357  11.188   4.919 -1.3191 -0.1968  1.3562
  552MOL0     H72814   4.436  11.268   5.055  5.0887  0.6186 -1.8752
  552MOL0     H72815   4.255  11.425   4.855  0.3777  0.2705  0.2464
  552MOL0     H72816   4.310  11.479   5.008  1.1897 -2.1505  3.2635
  552MOL0     H72817   4.185  11.389   5.237 -1.8665  1.6449  1.6970
  552MOL0     H72818   3.995  11.223   5.377  0.9391  0.3113 -0.9919
  552MOL0     H72819   3.854  11.168   5.289  1.1790 -1.2932  2.3961
  552MOL0     H72820   3.933  11.460   5.352 -1.9992  1.2397 -0.3581
  552MOL0     H72821   3.807  11.362   5.411 -0.9169 -1.9268 -1.1225
  552MOL0     H72822   3.709  11.522   5.257  0.8146  0.6392 -0.7556
  552MOL0     H72823   3.848  11.507   5.148  1.0394 -0.1859  0.6149
  552MOL0     H72824   3.616  11.301   5.195 -0.1859  1.4136 -0.5161
  552MOL0     H72825   3.749  11.257   5.097 -1.2461 -0.4218 -1.5768
  552MOL0     H72826   3.480  11.170   4.986  0.0808 -0.1568 -2.3534
  552MOL0     H72827   3.261  11.154   4.943 -0.4903  0.0464 -0.1349
  552MOL0     H72828   2.893  10.996   4.886 -1.1736 -0.0528 -0.8811
  552MOL0     H72829   2.678  10.921   4.952  0.8759  0.3090 -1.9311
  552MOL0     H72830   2.367  11.033   4.946 -1.3092  1.2049 -0.4730
  552MOL0     H72831   2.392  11.195   5.021 -0.2864  0.1415  0.5181
  552MOL0     H72832   2.306  11.086   5.237  0.0653 -0.2819  0.7931
  552MOL0     H72833   2.287  10.935   5.150  1.5599  0.3243  1.4542
  552MOL0     H72834   2.115  11.026   5.001 -3.5840  0.3417  1.2127
  552MOL0     H72835   2.149  11.191   5.064 -0.4452  0.4300  1.9155
  552MOL0     H72836   1.999  10.963   5.184 -3.3961  0.8481  1.3363
  552MOL0     H72837   2.059  11.097   5.292  1.8605 -0.7326  0.1864
  552MOL0     H72838   1.901  11.128   5.042  3.2853  0.8720 -1.2616
  552MOL0     H72839   1.946  11.257   5.150  0.3359 -0.6225  0.1083
  552MOL0     H72840   1.814  11.117   5.344 -0.7234  4.1089  1.3560
  552MOL0     H72841   1.748  11.027   5.204 -0.1685  0.6914  0.1487
  552MOL0     H72842   1.720  11.324   5.265 -0.5421  0.5058 -1.6548
  552MOL0     H72843   1.653  11.253   5.117 -1.3567 -1.3472 -0.3705
  552MOL0     H72844   1.572  11.144   5.392  1.4240 -0.5325  0.1855
  552MOL0     H72845   1.493  11.121   5.232  3.1832 -1.7165 -1.2231
  552MOL0     H72846   2.597  11.288   5.153 -0.6623  1.3223 -1.4780
  552MOL0     H72847   2.811  11.364   5.106 -0.3716 -0.3052  0.1836
  552MOL0     H72848   3.211  11.573   5.009  0.1793  0.3466 -1.3390
  552MOL0     H72849   3.471  11.590   5.027  1.0940  1.7742 -1.9920
  552MOL0     H72850   5.331  10.827   5.044 -0.9436 -0.4420  0.0338
  552MOL0     H72851   5.489  10.690   4.949  1.4191 -0.0257 -2.0180
  552MOL0     H72852   5.513  10.243   4.491 -0.0955  0.2104  4.7144
  552MOL0     H72853   5.727  10.185   4.360 -0.9763  0.6557 -0.6911
  552MOL0     H72854   5.888  10.242   4.234 -0.0808  1.4801  0.6078
  552MOL0     H72855   5.949  10.099   4.319  0.7629 -1.0963 -3.9779
  552MOL0     H72856   6.183  10.138   4.285  1.0802 -1.5627 -1.8575
  552MOL0     H72857   6.102  10.139   4.136 -3.6835  0.9153 -0.7567
  552MOL0     H72858   6.082  10.400   4.146 -0.8978 -0.5780 -0.8579
  552MOL0     H72859   6.217  10.306   4.075  0.2004  2.9542 -0.4852
  552MOL0     H72860   6.293  10.489   4.214 -1.6632  0.2199 -2.4768
  552MOL0     H72861   6.221  10.424   4.363 -1.0739  1.0291 -0.7902
  552MOL0     H72862   6.563  10.170   4.242 -0.9025 -1.9992  3.1948
  552MOL0     H72863   5.945  10.468   4.563  0.8537 -1.0277 -3.6586
  552MOL0     H72864   5.729  10.553   4.683  0.0843  0.6874  0.0011
  553MOL0     O72865   3.063   3.329   6.107 -0.1649 -0.2194  0.3312
  553MOL0     C72866   3.105   3.230   6.167 -0.2640 -0.7910 -0.6183
  553MOL0     O72867   3.036   3.159   6.264 -0.0042  0.6093  0.2339
  553MOL0     C72868   2.929   3.215   6.313  0.3842 -0.4826  0.0086
  553MOL0     C72869   2.803   3.189   6.245  0.1235  0.7228 -1.0833
  553MOL0     C72870   2.681   3.230   6.303  0.3479 -0.6185  0.4881
  553MOL0     C72871   2.687   3.287   6.436 -0.3684  0.2911  0.2240
  553MOL0     O72872   2.585   3.345   6.505  0.0484 -0.2476  0.0149
  553MOL0     C72873   2.462   3.324   6.440 -0.3100  0.6544 -0.5813
  553MOL0     C72874   2.338   3.410   6.501 -0.2727  0.0400 -1.0000
  553MOL0     C72875   2.274   3.311   6.598  0.4869 -0.4134  0.1383
  553MOL0     C72876   2.151   3.372   6.669 -0.3455  0.3584 -0.0958
  553MOL0     C72877   2.193   3.457   6.792 -0.4978 -0.1083  0.0059
  553MOL0     C72878   2.075   3.538   6.847  0.0809  1.2002 -0.1207
  553MOL0     C72879   2.036   3.656   6.758  0.1675 -0.1302  0.5841
  553MOL0     C72880   1.890   3.690   6.769 -0.1141 -0.5578 -0.3157
  553MOL0     N72881   1.848   3.821   6.716 -0.2041 -0.1830 -0.9950
  553MOL0     C72882   1.904   3.876   6.598  0.2006 -0.6376  0.3599
  553MOL0     C72883   1.858   4.004   6.606 -0.1249  0.0455 -0.1322
  553MOL0     C72884   1.895   4.108   6.507  0.4271  0.1632 -0.2618
  553MOL0     C72885   2.037   4.125   6.505 -0.5639  0.3165  0.0709
  553MOL0     C72886   2.100   4.169   6.642  0.0085 -0.1633  0.3419
  553MOL0     C72887   2.227   4.256   6.600  0.1858  0.3777  0.3636
  553MOL0     O72888   2.264   4.333   6.713 -0.0071  0.4597  1.0632
  553MOL0     C72889   2.393   4.319   6.763 -0.8517 -0.8890  0.0254
  553MOL0     C72890   2.410   4.292   6.894  0.3027  0.0343  0.1372
  553MOL0     C72891   2.544   4.274   6.941  0.5486  0.8386 -0.8568
  553MOL0     C72892   2.654   4.285   6.853  0.3617  0.3399 -0.2152
  553MOL0     C72893   2.790   4.261   6.892  0.4969  0.3808 -0.7194
  553MOL0     O72894   2.817   4.247   7.027  0.2241  0.5300  0.1167
  553MOL0     C72895   2.945   4.215   7.070  0.6456  0.3476  1.0062
  553MOL0     C72896   2.953   4.097   7.149 -0.4710  0.4339  0.2508
  553MOL0     C72897   3.079   4.048   7.198  0.5709  0.5882 -0.0990
  553MOL0     C72898   3.195   4.121   7.176  0.4792 -0.6291 -0.5240
  553MOL0     O72899   3.312   4.092   7.238 -0.5994 -0.3235 -0.0292
  553MOL0     C72900   3.432   4.153   7.188 -0.0438  1.1165 -0.8278
  553MOL0     C72901   3.540   4.078   7.270 -0.0608 -0.4617 -0.0065
  553MOL0     C72902   3.677   4.139   7.247 -0.2092 -0.4242 -0.4507
  553MOL0     C72903   3.773   4.085   7.353 -0.2924 -0.4226  0.0446
  553MOL0     C72904   3.910   4.154   7.339 -0.3999  0.2216  0.2686
  553MOL0     C72905   4.033   4.104   7.416  0.1057  0.7338 -0.1707
  553MOL0     C72906   4.155   4.187   7.384 -0.1367 -0.4618  0.0557
  553MOL0     C72907   4.277   4.110   7.441  0.8383 -0.1461 -0.2421
  553MOL0    Cl72908   4.241   4.062   7.617  0.3568 -0.0233  0.2216
  553MOL0     C72909   3.185   4.239   7.089 -0.1909  0.1714 -0.1479
  553MOL0     C72910   3.065   4.278   7.028  0.0884 -0.2086  0.8364
  553MOL0     O72911   2.865   4.236   6.799 -0.1967 -0.3813 -0.5454
  553MOL0     C72912   2.631   4.321   6.715 -0.2950 -0.2918 -0.3582
  553MOL0     C72913   2.500   4.338   6.673 -0.0830  0.7589  0.6124
  553MOL0     N72914   1.788   4.025   6.724 -0.3140 -0.9786 -0.4124
  553MOL0     N72915   1.772   3.908   6.784 -0.6178 -0.9514  0.1771
  553MOL0     C72916   2.808   3.312   6.503  0.1964 -0.0118 -0.2554
  553MOL0     C72917   2.931   3.271   6.442 -0.4922 -0.0681 -0.1061
  553MOL0     C72918   3.234   3.183   6.129  0.1662  1.1941  0.1006
  553MOL0     C72919   3.312   3.093   6.213 -0.3727 -0.6709  0.0950
  553MOL0     C72920   3.441   3.063   6.172  0.4915 -0.2842  0.1060
  553MOL0     C72921   3.497   3.113   6.053 -0.1564 -0.0557 -0.2195
  553MOL0     O72922   3.621   3.066   6.031  0.6731 -0.2391 -0.1890
  553MOL0     C72923   3.678   3.106   5.911 -1.2772  0.1632 -0.0702
  553MOL0     C72924   3.812   3.027   5.893 -0.1804  0.1094  0.3689
  553MOL0     C72925   3.804   2.905   5.800  0.4367 -0.9342  0.6277
  553MOL0     C72926   3.691   2.806   5.839  0.7575  0.4049 -0.5555
  553MOL0     C72927   3.684   2.691   5.755 -0.4756 -0.8153  0.4005
  553MOL0     C72928   3.695   2.590   5.686  0.2667  0.1481 -0.4900
  553MOL0     C72929   3.420   3.188   5.962  0.0983  0.0885  0.1174
  553MOL0     C72930   3.291   3.214   6.004 -0.0782 -0.1000 -0.1842
  553MOL0     H72931   2.808   3.150   6.144 -0.9407  1.3839 -1.4150
  553MOL0     H72932   2.594   3.212   6.241  0.6385 -0.0539 -0.0921
  553MOL0     H72933   2.435   3.219   6.440  0.1166  0.5239  0.6963
  553MOL0     H72934   2.478   3.357   6.337 -1.8682 -0.3557 -1.1756
  553MOL0     H72935   2.268   3.442   6.424  0.3647  1.2005 -1.1132
  553MOL0     H72936   2.381   3.499   6.549  2.6573 -1.0233 -1.4273
  553MOL0     H72937   2.345   3.311   6.681 -0.7680  0.6225  1.2419
  553MOL0     H72938   2.246   3.214   6.555 -3.3518  1.2999 -1.6129
  553MOL0     H72939   2.085   3.427   6.600 -2.7285 -2.5616 -0.3453
  553MOL0     H72940   2.089   3.284   6.687 -2.6473  2.1289  1.2110
  553MOL0     H72941   2.269   3.528   6.758 -1.0630 -0.8545 -3.1154
  553MOL0     H72942   2.235   3.392   6.870 -0.2616 -2.0325 -1.6578
  553MOL0     H72943   2.095   3.575   6.948 -0.5531 -2.5325  1.5330
  553MOL0     H72944   1.991   3.468   6.856  0.1850  0.7452 -2.2364
  553MOL0     H72945   2.098   3.740   6.790 -0.3536 -0.0587  1.4277
  553MOL0     H72946   2.056   3.645   6.651 -2.5701 -2.0735  0.1710
  553MOL0     H72947   1.877   3.706   6.876  1.4338 -0.1684 -0.1618
  553MOL0     H72948   1.826   3.607   6.736  1.5397 -1.4946 -1.3364
  553MOL0     H72949   1.971   3.841   6.519 -0.6647 -1.0729 -0.1944
  553MOL0     H72950   1.854   4.205   6.534  0.1230 -0.0505  0.0500
  553MOL0     H72951   1.857   4.082   6.407 -1.8166 -1.3421  0.9020
  553MOL0     H72952   2.061   4.207   6.436  0.6783  1.8487  2.2081
  553MOL0     H72953   2.092   4.039   6.466  1.2759  1.1477  0.7032
  553MOL0     H72954   2.033   4.230   6.704  0.4687  0.2920  0.3992
  553MOL0     H72955   2.137   4.093   6.711  0.3421  0.7037  1.1405
  553MOL0     H72956   2.211   4.329   6.520  0.1125 -0.5244 -0.4661
  553MOL0     H72957   2.300   4.188   6.555 -1.5025  0.3720 -2.6548
  553MOL0     H72958   2.318   4.292   6.951 -0.9849 -0.1596 -1.8392
  553MOL0     H72959   2.553   4.226   7.038 -0.7219 -2.6161 -2.2940
  553MOL0     H72960   2.866   4.037   7.172 -0.9248  1.3854  1.0492
  553MOL0     H72961   3.078   3.959   7.259 -1.6511  1.8251  1.8252
  553MOL0     H72962   3.432   4.258   7.219  0.6858  1.1420 -0.8999
  553MOL0     H72963   3.441   4.145   7.080 -1.6624  1.1942 -0.9911
  553MOL0     H72964   3.534   3.978   7.226  2.7076 -0.8697  0.3608
  553MOL0     H72965   3.526   4.071   7.378  3.3728  2.1018  0.8045
  553MOL0     H72966   3.662   4.246   7.264 -1.0325 -0.5200 -0.5363
  553MOL0     H72967   3.714   4.126   7.145 -1.3380  1.3276 -1.1338
  553MOL0     H72968   3.744   4.107   7.457  3.6660 -1.6497  1.6255
  553MOL0     H72969   3.783   3.977   7.343  2.3235 -0.2880  0.3979
  553MOL0     H72970   3.886   4.260   7.352 -3.1860 -0.3023 -0.1158
  553MOL0     H72971   3.935   4.152   7.232 -2.1155  3.1301 -0.2908
  553MOL0     H72972   4.058   3.999   7.397  0.3480  0.5391  1.1618
  553MOL0     H72973   4.007   4.114   7.521  0.8382  1.1959 -0.0259
  553MOL0     H72974   4.167   4.192   7.275  0.4846  1.9126  0.1741
  553MOL0     H72975   4.146   4.283   7.435  0.8146 -0.6191  0.5368
  553MOL0     H72976   4.368   4.170   7.445  0.9702 -0.4060  2.1475
  553MOL0     H72977   4.290   4.021   7.379 -2.3187 -0.2046 -0.9867
  553MOL0     H72978   3.272   4.300   7.064 -0.4633  1.4440  1.7381
  553MOL0     H72979   3.074   4.362   6.961  1.7321 -1.1842 -0.2477
  553MOL0     H72980   2.717   4.346   6.653  1.3600 -0.7604  1.6691
  553MOL0     H72981   2.486   4.356   6.566 -0.2927  0.8937  0.6603
  553MOL0     H72982   2.804   3.366   6.597 -0.9721 -2.1868  0.9963
  553MOL0     H72983   3.021   3.282   6.502 -0.3605 -1.9334  0.0844
  553MOL0     H72984   3.279   3.058   6.310 -0.5683 -0.8040 -0.0193
  553MOL0     H72985   3.506   3.003   6.234 -0.5173 -0.7987  0.6928
  553MOL0     H72986   3.705   3.211   5.925  0.5001 -0.3826  0.9579
  553MOL0     H72987   3.617   3.086   5.822  2.4941 -1.6688 -2.5519
  553MOL0     H72988   3.881   3.106   5.862 -0.8986  2.5233  4.2590
  553MOL0     H72989   3.850   2.997   5.991 -1.6091 -0.0334  0.9139
  553MOL0     H72990   3.902   2.855   5.796  0.2821 -1.2688  0.9848
  553MOL0     H72991   3.777   2.940   5.700  0.6195 -1.0541  0.5340
  553MOL0     H72992   3.714   2.770   5.940  2.4307 -1.0605 -1.3955
  553MOL0     H72993   3.591   2.850   5.835 -1.5396 -4.2167  0.1094
  553MOL0     H72994   3.701   2.498   5.631 -0.5421 -0.3794  0.2824
  553MOL0     H72995   3.468   3.226   5.872  1.8571 -0.0251  0.9482
  553MOL0     H72996   3.236   3.275   5.934 -1.0514  1.2024  1.6228
  554MOL0     O72997   4.558   7.966  10.857 -0.2962 -0.9169  0.6478
  554MOL0     C72998   4.602   7.890  10.939  0.5456 -0.3928 -0.8579
  554MOL0     O72999   4.544   7.867  11.066  0.3246 -0.2153  0.0826
  554MOL0     C73000   4.435   7.936  11.100 -0.2716  0.9270  0.5642
  554MOL0     C73001   4.320   7.952  11.012  0.4926 -0.0126 -0.0658
  554MOL0     C73002   4.228   8.044  11.031 -0.5701  0.3742 -0.1792
  554MOL0     C73003   4.247   8.124  11.145  0.4647 -0.0872  0.3158
  554MOL0     O73004   4.151   8.224  11.159 -0.4320  1.6634 -0.1540
  554MOL0     C73005   4.108   8.248  11.294 -0.1987 -0.2273  0.2054
  554MOL0     C73006   4.005   8.355  11.312  0.3530  0.1835  0.3358
  554MOL0     C73007   3.894   8.329  11.204  0.9686 -0.2728  0.2675
  554MOL0     C73008   3.774   8.418  11.225 -0.8304  0.0806 -1.3587
  554MOL0     C73009   3.642   8.366  11.177  0.4383 -0.8595  0.1545
  554MOL0     C73010   3.523   8.440  11.244  0.3627 -0.0957  0.6185
  554MOL0     C73011   3.394   8.405  11.167 -0.4218 -0.3013 -0.8203
  554MOL0     C73012   3.267   8.484  11.208  0.0547 -0.2869 -0.5057
  554MOL0     N73013   3.291   8.633  11.196  0.0487  0.5299  0.7146
  554MOL0     C73014   3.276   8.703  11.085 -0.6653 -1.3449 -0.6095
  554MOL0     C73015   3.278   8.833  11.127 -0.3573  0.1886  0.6619
  554MOL0     C73016   3.273   8.954  11.037  0.4602 -0.5635  0.5561
  554MOL0     C73017   3.216   8.923  10.899 -0.0575 -0.1269 -0.8244
  554MOL0     C73018   3.169   9.053  10.821 -0.7626 -0.2243 -0.2313
  554MOL0     C73019   3.079   9.002  10.693 -0.2210  0.4974 -0.6426
  554MOL0     O73020   2.967   8.928  10.743 -1.0737  0.5248 -0.5141
  554MOL0     C73021   2.861   8.930  10.662 -0.8853  0.1776  0.3101
  554MOL0     C73022   2.746   8.984  10.705  0.6730  0.0453  1.3313
  554MOL0     C73023   2.643   8.999  10.611  0.8320 -0.1829  0.4002
  554MOL0     C73024   2.653   8.964  10.479 -0.3877  0.3947 -0.0211
  554MOL0     C73025   2.538   8.992  10.388  0.6488 -0.4383 -0.2429
  554MOL0     O73026   2.428   9.059  10.431  0.8491  0.9873 -0.5494
  554MOL0     C73027   2.311   9.056  10.365  0.7541 -0.5833  0.4303
  554MOL0     C73028   2.253   8.958  10.279 -0.1979  1.0405  0.3968
  554MOL0     C73029   2.135   8.969  10.210  0.1321  0.1975 -0.1435
  554MOL0     C73030   2.050   9.076  10.247  0.0334 -0.2484 -0.4961
  554MOL0     O73031   1.925   9.095  10.201  0.4923 -0.4862  0.6212
  554MOL0     C73032   1.856   8.977  10.142  0.3745  0.4459 -0.1023
  554MOL0     C73033   1.713   9.023  10.126 -0.2723  0.4204  0.8218
  554MOL0     C73034   1.642   9.054  10.257  0.4691  0.0219  0.4304
  554MOL0     C73035   1.494   9.094  10.236  0.0345  0.2923  0.2203
  554MOL0     C73036   1.426   9.119  10.372 -0.0371 -0.4407  0.1961
  554MOL0     C73037   1.279   9.166  10.344 -0.8083  0.6842 -1.0676
  554MOL0     C73038   1.213   9.195  10.481  0.2996 -0.0229  0.0087
  554MOL0     C73039   1.067   9.218  10.449  0.3612  0.6458  0.2488
  554MOL0    Cl73040   0.997   9.054  10.402 -0.1624 -0.2123  0.3929
  554MOL0     C73041   2.099   9.175  10.329  0.2222 -0.1546 -0.3582
  554MOL0     C73042   2.230   9.169  10.380 -0.3065  0.1591  0.1921
  554MOL0     O73043   2.560   8.954  10.274 -0.0233  0.0292  0.7391
  554MOL0     C73044   2.775   8.902  10.433  0.5921 -0.7635 -0.9368
  554MOL0     C73045   2.875   8.878  10.530 -0.3692 -0.1477  0.0152
  554MOL0     N73046   3.298   8.836  11.260 -0.0976 -0.1180 -0.2525
  554MOL0     N73047   3.314   8.717  11.301 -0.5733 -0.0459  0.3705
  554MOL0     C73048   4.345   8.104  11.245  0.1060  0.1315  1.0202
  554MOL0     C73049   4.438   8.005  11.221 -0.2336  0.5616  0.7342
  554MOL0     C73050   4.739   7.828  10.922  0.6291 -0.4685  0.3229
  554MOL0     C73051   4.799   7.773  11.027 -0.3020  0.2831 -0.0594
  554MOL0     C73052   4.930   7.712  11.012  0.8638 -0.3059  0.2753
  554MOL0     C73053   5.008   7.714  10.889  0.1898  0.5568 -0.6003
  554MOL0     O73054   5.130   7.651  10.896  0.5332 -0.2157  0.1172
  554MOL0     C73055   5.218   7.650  10.787 -0.1735 -0.4353  0.5633
  554MOL0     C73056   5.359   7.605  10.826  0.2522  0.0826 -0.0753
  554MOL0     C73057   5.378   7.455  10.812 -0.3051  0.0491 -1.1246
  554MOL0     C73058   5.511   7.409  10.891 -0.2393 -0.6499  0.0854
  554MOL0     C73059   5.574   7.287  10.837 -0.1436  0.1148  0.4963
  554MOL0     C73060   5.637   7.190  10.796  0.5821 -0.2896 -0.2656
  554MOL0     C73061   4.940   7.785  10.782 -0.2810 -0.7622 -0.4377
  554MOL0     C73062   4.807   7.836  10.794  0.5837 -0.7857 -0.0128
  554MOL0     H73063   4.317   7.902  10.915  0.7069  2.9714 -1.7512
  554MOL0     H73064   4.142   8.073  10.971 -0.3648  2.0463  0.2741
  554MOL0     H73065   4.196   8.280  11.350  0.2406  1.6174 -1.4083
  554MOL0     H73066   4.070   8.151  11.328  0.1225 -1.3307 -2.3303
  554MOL0     H73067   4.047   8.452  11.287  2.1731 -0.2692  1.4455
  554MOL0     H73068   3.978   8.340  11.417  0.8773 -2.6869  0.1424
  554MOL0     H73069   3.866   8.223  11.202 -1.9011  0.3786  1.5722
  554MOL0     H73070   3.939   8.355  11.107 -1.7592  1.1635 -0.7370
  554MOL0     H73071   3.758   8.428  11.332  0.2220  2.7971 -1.3653
  554MOL0     H73072   3.809   8.511  11.178 -0.8578  2.6483  3.1546
  554MOL0     H73073   3.631   8.258  11.191 -3.7857 -0.6735 -0.5693
  554MOL0     H73074   3.647   8.387  11.070 -1.9152 -0.0128  0.1527
  554MOL0     H73075   3.537   8.549  11.238 -1.1365  0.0429 -1.0744
  554MOL0     H73076   3.520   8.393  11.343  1.9391 -1.3282  0.1224
  554MOL0     H73077   3.402   8.434  11.062 -0.2608  0.0221 -0.7184
  554MOL0     H73078   3.366   8.299  11.167  1.5195 -0.8559 -0.1773
  554MOL0     H73079   3.229   8.448  11.304  1.0044 -0.7343 -0.2767
  554MOL0     H73080   3.182   8.447  11.149  0.5287 -1.6865 -0.3699
  554MOL0     H73081   3.266   8.671  10.981 -2.5703 -0.6362 -0.6762
  554MOL0     H73082   3.374   8.995  11.026  0.4891 -0.5889  0.7146
  554MOL0     H73083   3.213   9.029  11.089 -0.0505 -1.2307  0.9585
  554MOL0     H73084   3.133   8.853  10.917  1.1580 -1.6956 -1.0454
  554MOL0     H73085   3.289   8.871  10.836  1.8920  1.5668 -0.0523
  554MOL0     H73086   3.108   9.115  10.887 -0.8398  2.0773 -2.2923
  554MOL0     H73087   3.250   9.121  10.792 -1.9237  1.2441 -0.1425
  554MOL0     H73088   3.136   8.933  10.629 -0.6346 -3.0974  2.4782
  554MOL0     H73089   3.037   9.085  10.636 -0.9797 -0.9115 -2.2065
  554MOL0     H73090   2.748   9.000  10.812 -1.8759 -0.9258  1.5894
  554MOL0     H73091   2.556   9.043  10.659  1.6924  0.9382  0.9718
  554MOL0     H73092   2.318   8.873  10.262 -0.4604  1.0535 -0.8039
  554MOL0     H73093   2.088   8.890  10.153  0.3369  0.3516 -0.5296
  554MOL0     H73094   1.850   8.894  10.213  1.4308  2.9459  3.2146
  554MOL0     H73095   1.905   8.935  10.054 -0.6599 -0.9372 -0.0397
  554MOL0     H73096   1.660   8.945  10.070  0.6262  1.7859 -2.1643
  554MOL0     H73097   1.710   9.096  10.044 -0.2560 -1.7016 -1.1825
  554MOL0     H73098   1.688   9.146  10.293 -2.3521  2.2123 -1.0795
  554MOL0     H73099   1.638   8.972  10.329 -2.1343 -0.1530  0.2062
  554MOL0     H73100   1.496   9.193  10.190  1.3297  1.3547  2.4179
  554MOL0     H73101   1.427   9.024  10.185 -1.0459 -0.3309  2.3792
  554MOL0     H73102   1.484   9.191  10.430  0.4678 -0.1207 -0.6850
  554MOL0     H73103   1.423   9.027  10.431 -0.2085 -1.4699 -1.3520
  554MOL0     H73104   1.239   9.086  10.280 -0.4768 -0.8306  0.5333
  554MOL0     H73105   1.294   9.256  10.285 -0.0391  0.3978 -1.3169
  554MOL0     H73106   1.207   9.104  10.540  1.3908  0.4774  0.9310
  554MOL0     H73107   1.260   9.280  10.530  0.0708 -0.7980  1.6146
  554MOL0     H73108   1.062   9.283  10.361  1.6076 -1.7992 -1.7425
  554MOL0     H73109   1.008   9.260  10.530 -2.9794 -0.3403 -1.4666
  554MOL0     H73110   2.039   9.263  10.351 -1.1121 -0.0173 -3.9587
  554MOL0     H73111   2.272   9.250  10.439  0.8975 -1.2055  1.2599
  554MOL0     H73112   2.781   8.881  10.327  0.9118  1.8650 -1.4957
  554MOL0     H73113   2.960   8.830  10.483 -1.3752 -1.2615 -0.7451
  554MOL0     H73114   4.366   8.173  11.326 -1.0917 -0.5043  1.9109
  554MOL0     H73115   4.521   7.998  11.291  1.0869 -1.4917 -0.9237
  554MOL0     H73116   4.743   7.752  11.118  2.9118  1.3504  2.3933
  554MOL0     H73117   4.975   7.663  11.098 -0.4399 -0.4937  0.8673
  554MOL0     H73118   5.227   7.752  10.749 -1.0323  0.1884  1.9396
  554MOL0     H73119   5.180   7.594  10.702 -1.5031  1.1783  0.0371
  554MOL0     H73120   5.436   7.660  10.771  0.7405  0.9265  1.3881
  554MOL0     H73121   5.380   7.633  10.930  0.1596  1.2503 -0.3657
  554MOL0     H73122   5.391   7.419  10.709  0.6074  0.3204 -1.1068
  554MOL0     H73123   5.284   7.412  10.849 -1.4218  0.8969 -2.8066
  554MOL0     H73124   5.582   7.491  10.879  0.4679 -0.9902  1.7675
  554MOL0     H73125   5.481   7.390  10.994 -1.2226 -0.3530 -0.1294
  554MOL0     H73126   5.688   7.101  10.767 -1.2019 -1.8928  1.2309
  554MOL0     H73127   4.993   7.789  10.687  2.6392 -0.6854  1.0832
  554MOL0     H73128   4.766   7.899  10.716  0.0148 -0.9773  0.1198
  555MOL0     O73129   4.311   3.777   7.370 -0.0372 -0.8093 -0.0257
  555MOL0     C73130   4.336   3.681   7.307 -0.5841  0.2500  0.7713
  555MOL0     O73131   4.244   3.595   7.253  0.3006  0.5915  0.0428
  555MOL0     C73132   4.112   3.627   7.258  0.4137 -0.3965  0.2948
  555MOL0     C73133   4.061   3.754   7.222 -0.4425  0.6404 -0.5624
  555MOL0     C73134   3.927   3.780   7.210 -0.4951  0.0837 -0.3550
  555MOL0     C73135   3.833   3.689   7.254  0.8875  0.4306 -0.1829
  555MOL0     O73136   3.701   3.720   7.249  0.8157  0.3638 -0.1002
  555MOL0     C73137   3.610   3.627   7.304 -0.1597 -0.2648  0.1656
  555MOL0     C73138   3.475   3.680   7.284 -0.4283  0.0819  0.2707
  555MOL0     C73139   3.349   3.588   7.323 -0.3318 -0.7719 -0.4081
  555MOL0     C73140   3.209   3.642   7.282  0.7708  0.5069 -0.8562
  555MOL0     C73141   3.094   3.539   7.309 -0.9373 -0.0508 -0.4399
  555MOL0     C73142   2.957   3.611   7.295  0.4065  0.2703 -0.3919
  555MOL0     C73143   2.828   3.524   7.301  0.3376  0.3346  0.2004
  555MOL0     C73144   2.711   3.610   7.347 -0.7489 -0.0994  0.0348
  555MOL0     N73145   2.675   3.721   7.252 -0.3259 -0.1202  0.3358
  555MOL0     C73146   2.588   3.710   7.155 -0.5475 -0.0472  0.4223
  555MOL0     C73147   2.559   3.830   7.113 -0.4378  0.2042  0.7042
  555MOL0     C73148   2.469   3.885   7.005 -0.5180  0.5075  0.7545
  555MOL0     C73149   2.341   3.951   7.045 -0.0352 -0.3238  0.6683
  555MOL0     C73150   2.246   3.961   6.928 -0.2237  1.1074 -1.5598
  555MOL0     C73151   2.107   4.010   6.970  0.0012  0.4685 -0.0523
  555MOL0     O73152   2.134   4.144   7.012  0.6725  0.1744 -1.4483
  555MOL0     C73153   2.060   4.181   7.121  0.6056 -0.2825 -1.1734
  555MOL0     C73154   2.047   4.099   7.243 -0.1474  0.0621  0.5712
  555MOL0     C73155   1.948   4.123   7.335  0.2603  0.1021 -0.1594
  555MOL0     C73156   1.844   4.212   7.310  0.4152 -0.6537 -1.1087
  555MOL0     C73157   1.727   4.229   7.397 -0.3148  0.2663 -0.7151
  555MOL0     O73158   1.611   4.247   7.324 -0.3931  1.2540 -0.4295
  555MOL0     C73159   1.490   4.269   7.396 -0.4779 -0.3439 -0.1898
  555MOL0     C73160   1.404   4.169   7.438 -0.5664  0.8864 -0.6896
  555MOL0     C73161   1.287   4.192   7.518  0.2477  0.0550  1.0621
  555MOL0     C73162   1.251   4.331   7.540 -0.0242 -0.5725 -0.9000
  555MOL0     O73163   1.130   4.366   7.601  0.7618  0.4880  0.2613
  555MOL0     C73164   1.060   4.486   7.557 -0.4659  0.6255 -0.4693
  555MOL0     C73165   0.907   4.465   7.578 -0.3918 -0.4938  0.4265
  555MOL0     C73166   0.853   4.334   7.522 -0.8184 -0.8912 -0.1542
  555MOL0     C73167   0.842   4.225   7.628  0.9468  0.7165  0.6031
  555MOL0     C73168   0.829   4.080   7.572 -0.9706 -0.3638  0.4452
  555MOL0     C73169   0.713   4.043   7.497  1.1769  0.3071  0.4914
  555MOL0     C73170   0.580   4.078   7.568  0.2821 -0.4594 -0.1779
  555MOL0     C73171   0.467   4.024   7.483 -0.4390 -0.8816 -0.3073
  555MOL0    Cl73172   0.318   4.109   7.506 -0.5260  0.0330 -0.0432
  555MOL0     C73173   1.337   4.440   7.490 -0.4706  0.3687  0.6717
  555MOL0     C73174   1.456   4.401   7.425  0.1917  0.4790 -0.6812
  555MOL0     O73175   1.743   4.233   7.523 -0.3036  0.1206 -0.0087
  555MOL0     C73176   1.851   4.295   7.194  0.2509  0.1670 -0.5282
  555MOL0     C73177   1.959   4.283   7.106  0.7472 -0.3717  0.8639
  555MOL0     N73178   2.647   3.918   7.179  0.8189  0.2462  0.9022
  555MOL0     N73179   2.704   3.852   7.270  0.3102  0.4317 -0.0386
  555MOL0     C73180   3.880   3.562   7.294 -0.6070 -0.3673  1.0117
  555MOL0     C73181   4.016   3.537   7.306  0.2602  0.7770  0.4798
  555MOL0     C73182   4.468   3.646   7.266  0.4472 -0.1211 -0.1329
  555MOL0     C73183   4.573   3.738   7.278 -0.6328  0.6626 -0.5480
  555MOL0     C73184   4.707   3.702   7.254  0.5516  0.1524 -1.0073
  555MOL0     C73185   4.737   3.567   7.229  0.5109  0.1853 -0.1912
  555MOL0     O73186   4.863   3.521   7.206 -0.4489 -0.7420  0.8286
  555MOL0     C73187   4.972   3.610   7.246 -0.8048 -0.2482  0.1613
  555MOL0     C73188   4.988   3.636   7.396  0.4846  0.6768 -0.2691
  555MOL0     C73189   5.033   3.781   7.408  0.1482  0.2440  0.5420
  555MOL0     C73190   5.005   3.841   7.541  0.8011 -0.0164 -0.8654
  555MOL0     C73191   4.869   3.896   7.539 -0.3177 -0.1696 -0.5015
  555MOL0     C73192   4.763   3.942   7.537 -0.2954 -0.6758 -0.0623
  555MOL0     C73193   4.640   3.472   7.224 -0.5129  0.2137  0.4946
  555MOL0     C73194   4.505   3.511   7.247  0.5463 -0.2466 -0.1601
  555MOL0     H73195   4.137   3.824   7.188  2.2826 -0.3172  2.9905
  555MOL0     H73196   3.899   3.881   7.181 -1.9310 -0.4875 -1.0882
  555MOL0     H73197   3.619   3.606   7.411 -1.5722  1.1042  0.5838
  555MOL0     H73198   3.615   3.531   7.252 -3.8611  0.1191 -1.2122
  555MOL0     H73199   3.458   3.710   7.180  0.9706 -3.6823 -1.1867
  555MOL0     H73200   3.472   3.767   7.351  0.5947  0.8181 -0.6112
  555MOL0     H73201   3.356   3.579   7.432  1.0536 -3.0813 -0.6370
  555MOL0     H73202   3.374   3.490   7.282  0.9230 -1.0503  0.9281
  555MOL0     H73203   3.180   3.727   7.344  1.3214  0.0338  0.0667
  555MOL0     H73204   3.216   3.669   7.176 -0.6360  1.2994 -0.7729
  555MOL0     H73205   3.104   3.481   7.401  0.5957  1.6617  0.5437
  555MOL0     H73206   3.091   3.458   7.235 -0.6268  0.7256 -1.3268
  555MOL0     H73207   2.958   3.641   7.190  1.7642 -1.5694 -0.9758
  555MOL0     H73208   2.954   3.699   7.359  0.5407 -0.6799  0.9695
  555MOL0     H73209   2.817   3.497   7.196  1.4735  2.7351 -0.6006
  555MOL0     H73210   2.842   3.428   7.352  0.2695 -0.5324 -1.3688
  555MOL0     H73211   2.743   3.644   7.446  1.7174  0.4120 -0.8780
  555MOL0     H73212   2.622   3.547   7.355 -0.3423 -0.7979 -0.8124
  555MOL0     H73213   2.551   3.619   7.108  0.8028 -0.5471  0.3023
  555MOL0     H73214   2.431   3.799   6.949 -1.6601  0.0600  2.1398
  555MOL0     H73215   2.534   3.958   6.957 -1.7363  0.7480 -0.5820
  555MOL0     H73216   2.367   4.056   7.064 -0.9147 -0.4844  2.9688
  555MOL0     H73217   2.300   3.912   7.138 -1.3827  0.0346  0.2431
  555MOL0     H73218   2.287   4.033   6.857 -0.4139  3.3549  0.4963
  555MOL0     H73219   2.231   3.867   6.874 -3.6503 -0.2205  1.2789
  555MOL0     H73220   2.078   3.947   7.055  0.7068  0.4628  0.1863
  555MOL0     H73221   2.036   3.996   6.888  1.1603 -4.9523 -0.5067
  555MOL0     H73222   2.120   4.023   7.270 -2.0738 -1.8008  0.8417
  555MOL0     H73223   1.957   4.069   7.429  1.1728 -0.4259 -0.5386
  555MOL0     H73224   1.432   4.066   7.415 -1.9300  0.5719 -1.0281
  555MOL0     H73225   1.234   4.100   7.542  0.4894  0.0222  1.4846
  555MOL0     H73226   1.076   4.504   7.450 -1.3491  1.2062 -0.5115
  555MOL0     H73227   1.092   4.577   7.609  1.0824  0.2946 -0.7913
  555MOL0     H73228   0.848   4.541   7.525 -1.8843 -0.3265  2.1948
  555MOL0     H73229   0.886   4.461   7.685  1.9737 -1.9282  0.8993
  555MOL0     H73230   0.913   4.307   7.435 -2.8776  2.8197 -3.0466
  555MOL0     H73231   0.752   4.346   7.482 -1.4723 -1.8002  1.1612
  555MOL0     H73232   0.930   4.220   7.693  2.0215  0.1391 -0.8278
  555MOL0     H73233   0.755   4.249   7.690  1.0001  1.0606  0.5465
  555MOL0     H73234   0.846   4.014   7.657  0.0364 -0.6342  0.0498
  555MOL0     H73235   0.916   4.073   7.506 -0.3849  2.8590  0.6757
  555MOL0     H73236   0.724   3.936   7.474  1.2552  0.3144  0.4921
  555MOL0     H73237   0.719   4.090   7.399 -5.4284  3.0233  0.9025
  555MOL0     H73238   0.560   4.027   7.662 -3.0512  1.9519  0.5972
  555MOL0     H73239   0.564   4.185   7.582 -0.4023 -0.3351 -1.6554
  555MOL0     H73240   0.451   3.918   7.503  0.0670 -0.9828 -0.4241
  555MOL0     H73241   0.490   4.016   7.376 -0.3140 -2.3321 -0.1998
  555MOL0     H73242   1.307   4.541   7.517  0.5153  0.6643  0.6935
  555MOL0     H73243   1.529   4.477   7.398 -0.6978  0.6945 -2.7304
  555MOL0     H73244   1.785   4.380   7.180 -1.1691 -0.8485 -0.2236
  555MOL0     H73245   1.971   4.341   7.015 -2.1340 -1.0623 -0.0824
  555MOL0     H73246   3.813   3.487   7.334 -0.4298 -1.1241 -0.0695
  555MOL0     H73247   4.050   3.442   7.345  0.8787  1.0186  0.5535
  555MOL0     H73248   4.554   3.844   7.293  0.6552  1.0022 -1.1269
  555MOL0     H73249   4.783   3.779   7.268  0.7531  0.0066 -1.2909
  555MOL0     H73250   4.956   3.698   7.183  0.1261 -1.7546 -2.3023
  555MOL0     H73251   5.070   3.577   7.212  0.9213  0.1235  4.2371
  555MOL0     H73252   4.885   3.630   7.433 -0.1096 -1.9426 -2.0724
  555MOL0     H73253   5.042   3.553   7.441 -2.0105 -1.6878 -1.3109
  555MOL0     H73254   4.990   3.841   7.327 -0.4055 -3.2110 -1.9485
  555MOL0     H73255   5.140   3.794   7.390 -0.3444  2.8322 -1.1485
  555MOL0     H73256   5.016   3.762   7.616  0.7283  0.6400 -0.1426
  555MOL0     H73257   5.056   3.933   7.572 -2.5376  1.2311  1.6424
  555MOL0     H73258   4.671   3.986   7.567 -0.5242 -2.9023  2.9196
  555MOL0     H73259   4.657   3.366   7.209  1.0154  0.4227  0.6391
  555MOL0     H73260   4.430   3.433   7.256 -0.3385  0.7739  1.8417
  556MOL0     O73261   4.956   3.323  11.152 -0.0978  0.2038 -0.1739
  556MOL0     C73262   5.024   3.222  11.186  0.5250 -0.1244  0.1236
  556MOL0     O73263   4.976   3.107  11.256 -0.2175 -0.3853 -0.1162
  556MOL0     C73264   4.841   3.096  11.261  0.1320 -0.4352  0.9930
  556MOL0     C73265   4.792   2.995  11.177 -0.0305 -0.1798  0.1309
  556MOL0     C73266   4.658   2.963  11.186  0.0774  0.5305 -0.7462
  556MOL0     C73267   4.571   3.014  11.279 -0.4249  0.4901 -0.8033
  556MOL0     O73268   4.435   2.976  11.264 -0.6357  0.0391  0.1724
  556MOL0     C73269   4.337   3.029  11.352 -0.3106 -0.3230 -0.1917
  556MOL0     C73270   4.202   2.981  11.315  0.0887  0.4078 -0.0530
  556MOL0     C73271   4.077   3.008  11.408 -1.1539 -0.0009 -0.8100
  556MOL0     C73272   3.950   2.958  11.349  1.0995 -0.2566  0.1593
  556MOL0     C73273   3.833   3.011  11.422 -0.3975  0.5689 -1.0314
  556MOL0     C73274   3.705   2.955  11.371 -0.5667 -0.2611  0.4538
  556MOL0     C73275   3.598   2.984  11.471  0.8293 -0.2537 -0.6320
  556MOL0     C73276   3.484   2.882  11.456 -0.0980 -0.1629  0.1290
  556MOL0     N73277   3.352   2.917  11.498  0.3395  0.2593  0.5058
  556MOL0     C73278   3.262   2.838  11.563 -0.6678  0.0258 -0.8348
  556MOL0     C73279   3.167   2.916  11.611 -0.2420 -0.3503  0.4840
  556MOL0     C73280   3.059   2.861  11.702 -0.3900 -0.8937  0.2406
  556MOL0     C73281   2.950   2.782  11.629  0.0883 -0.1787  0.3266
  556MOL0     C73282   2.816   2.784  11.700  0.4075  0.7010  0.1535
  556MOL0     C73283   2.793   2.730  11.843  0.7650  0.5785 -0.6826
  556MOL0     O73284   2.837   2.832  11.935  0.8968  0.4766 -0.7549
  556MOL0     C73285   2.855   2.789  12.068  0.3588 -0.0442 -0.3521
  556MOL0     C73286   2.974   2.839  12.127  1.1046 -1.1355  0.5035
  556MOL0     C73287   3.005   2.813  12.258  0.0335 -0.4741 -0.1093
  556MOL0     C73288   2.913   2.734  12.335 -0.2928  0.4058 -0.7756
  556MOL0     C73289   2.961   2.702  12.467 -0.1612 -0.0291  0.1656
  556MOL0     O73290   2.913   2.583  12.510  0.4645  0.0788 -0.6222
  556MOL0     C73291   2.971   2.505  12.607 -0.2470  0.0329  0.1726
  556MOL0     C73292   2.971   2.368  12.581 -0.0256  0.5121 -0.4746
  556MOL0     C73293   3.023   2.282  12.686 -0.0129  1.1748 -0.2063
  556MOL0     C73294   3.081   2.333  12.803  0.6203 -0.7297 -0.7844
  556MOL0     O73295   3.117   2.245  12.901  0.4469 -0.5522  0.1749
  556MOL0     C73296   3.252   2.270  12.961 -0.1367 -0.1304 -0.0398
  556MOL0     C73297   3.365   2.240  12.856 -0.4948 -0.2458 -0.0583
  556MOL0     C73298   3.492   2.286  12.921 -0.5857 -0.6616  0.4419
  556MOL0     C73299   3.608   2.221  12.846  0.3933 -0.3255  0.1753
  556MOL0     C73300   3.736   2.237  12.918  0.0122 -0.0365  0.3375
  556MOL0     C73301   3.858   2.180  12.846  0.0604 -0.2059 -0.1116
  556MOL0     C73302   3.879   2.238  12.704 -0.1657 -0.2032 -0.0861
  556MOL0     C73303   4.021   2.281  12.676  0.9106 -0.0494  0.2334
  556MOL0    Cl73304   4.134   2.143  12.686 -0.3796 -0.3291  0.4139
  556MOL0     C73305   3.080   2.473  12.828  0.5753  0.6117  0.7979
  556MOL0     C73306   3.023   2.558  12.730 -0.4249  0.4311  0.2279
  556MOL0     O73307   3.055   2.766  12.526 -0.6180 -0.3422  0.2828
  556MOL0     C73308   2.793   2.679  12.284  0.5909 -0.7579  0.2698
  556MOL0     C73309   2.759   2.713  12.148  0.5935  1.3413 -0.1099
  556MOL0     N73310   3.190   3.044  11.569 -0.1825 -0.1064 -0.7289
  556MOL0     N73311   3.302   3.045  11.497  0.0089  0.0368 -0.3038
  556MOL0     C73312   4.626   3.110  11.368  0.1290 -0.5959  0.1218
  556MOL0     C73313   4.758   3.148  11.364 -1.1041 -0.5767  0.2979
  556MOL0     C73314   5.169   3.221  11.146  0.5302 -0.0888  0.5170
  556MOL0     C73315   5.225   3.321  11.060 -0.1766  0.5608 -0.1271
  556MOL0     C73316   5.361   3.316  11.015 -0.6060  0.4382  0.0222
  556MOL0     C73317   5.445   3.220  11.071 -0.3719 -0.3081  0.4257
  556MOL0     O73318   5.575   3.248  11.031 -0.7921 -0.2232  0.2120
  556MOL0     C73319   5.683   3.198  11.117  0.6877  0.7505  0.1647
  556MOL0     C73320   5.813   3.224  11.039  0.1763  0.2189 -0.1203
  556MOL0     C73321   5.840   3.375  11.042 -0.1348 -0.5797 -0.2194
  556MOL0     C73322   5.976   3.423  10.997  0.8022 -0.2150  0.3017
  556MOL0     C73323   6.012   3.561  11.046  0.0146 -0.7915 -0.1329
  556MOL0     C73324   6.028   3.665  11.103 -0.1593 -0.0627 -0.5792
  556MOL0     C73325   5.397   3.132  11.170  0.0689  0.7978  0.1252
  556MOL0     C73326   5.260   3.129  11.200  0.7432 -0.2550  0.3315
  556MOL0     H73327   4.856   2.955  11.099 -0.8278  1.2251 -1.2874
  556MOL0     H73328   4.621   2.886  11.119 -0.4944  0.9160 -0.8723
  556MOL0     H73329   4.339   3.138  11.352 -2.7959 -0.2057  0.9915
  556MOL0     H73330   4.350   2.990  11.453  1.4263 -0.1375 -0.3136
  556MOL0     H73331   4.204   2.873  11.298  2.8717  0.3969 -0.0899
  556MOL0     H73332   4.174   3.022  11.218 -0.3327 -2.9904 -1.5086
  556MOL0     H73333   4.073   3.116  11.426 -3.7497 -0.2379  0.4929
  556MOL0     H73334   4.094   2.961  11.506  3.3346 -2.2150 -2.3601
  556MOL0     H73335   3.946   3.004  11.250 -0.5638  0.8338  0.6837
  556MOL0     H73336   3.951   2.852  11.324  1.7766 -0.4490  0.9432
  556MOL0     H73337   3.835   3.119  11.409  5.2075  0.9607  0.6436
  556MOL0     H73338   3.844   2.991  11.529 -0.8772 -0.3406 -1.1379
  556MOL0     H73339   3.721   2.850  11.342 -1.9643 -0.3982  0.1240
  556MOL0     H73340   3.669   3.007  11.282 -0.0219  1.6882  1.3355
  556MOL0     H73341   3.631   2.973  11.575  0.8164 -2.4094 -0.8005
  556MOL0     H73342   3.567   3.087  11.457 -0.7153 -0.4297  1.0843
  556MOL0     H73343   3.509   2.789  11.506 -0.9572 -1.3808 -1.6194
  556MOL0     H73344   3.483   2.847  11.353  0.4083  2.2439 -0.7791
  556MOL0     H73345   3.271   2.732  11.589 -0.9371  0.0991 -0.4273
  556MOL0     H73346   3.007   2.942  11.753  1.1164 -0.0807  0.5327
  556MOL0     H73347   3.114   2.803  11.777 -1.1765 -1.4072  0.4332
  556MOL0     H73348   2.978   2.677  11.622 -1.3896 -0.6245  0.8336
  556MOL0     H73349   2.929   2.829  11.532 -2.7248 -2.6020 -0.3741
  556MOL0     H73350   2.771   2.882  11.683  0.3101  0.1678 -3.2249
  556MOL0     H73351   2.772   2.701  11.644  3.1055 -1.6528  1.2316
  556MOL0     H73352   2.855   2.644  11.869  0.4063  1.3936  3.7394
  556MOL0     H73353   2.687   2.717  11.865  1.3467  1.9485  3.9379
  556MOL0     H73354   3.046   2.896  12.069  0.4156 -3.2487 -2.6492
  556MOL0     H73355   3.099   2.852  12.296  0.3854 -1.8478  0.4998
  556MOL0     H73356   2.917   2.337  12.493  0.4028 -0.8139 -0.2893
  556MOL0     H73357   3.029   2.174  12.680  0.0320  1.2275 -1.3764
  556MOL0     H73358   3.269   2.215  13.055  2.3397  1.7006  0.6829
  556MOL0     H73359   3.267   2.376  12.980  0.9913  0.1984 -2.4681
  556MOL0     H73360   3.361   2.301  12.765  0.5789  3.2547  2.0726
  556MOL0     H73361   3.368   2.132  12.834  0.1064 -0.3564  0.5342
  556MOL0     H73362   3.485   2.255  13.026 -2.7462  0.5518  0.7313
  556MOL0     H73363   3.491   2.395  12.917  2.9034 -0.5123  0.9708
  556MOL0     H73364   3.597   2.114  12.822  1.7113 -0.1342 -1.4724
  556MOL0     H73365   3.618   2.277  12.753 -0.3372 -1.3407 -0.5398
  556MOL0     H73366   3.738   2.201  13.021  1.4713  1.4148  0.8691
  556MOL0     H73367   3.752   2.345  12.928 -0.0064 -0.1054  1.1874
  556MOL0     H73368   3.848   2.071  12.848  1.4102 -0.4268 -2.3552
  556MOL0     H73369   3.948   2.204  12.904  0.9298  1.0292 -1.9016
  556MOL0     H73370   3.844   2.163  12.632  0.2015  0.3661 -0.8704
  556MOL0     H73371   3.817   2.326  12.687 -1.5708 -1.1034  0.1881
  556MOL0     H73372   4.046   2.346  12.761  0.6663  0.5192 -0.1222
  556MOL0     H73373   4.031   2.339  12.584  0.4610  0.9787  0.8010
  556MOL0     H73374   3.115   2.516  12.922 -0.7500  1.8755  0.7572
  556MOL0     H73375   3.017   2.665  12.749 -1.4533  0.7854 -1.7817
  556MOL0     H73376   2.722   2.611  12.330 -0.8955 -0.3283 -1.2776
  556MOL0     H73377   2.676   2.671  12.092  0.2337  1.6212  0.2017
  556MOL0     H73378   4.546   3.159  11.422 -1.5192 -1.3312 -1.5570
  556MOL0     H73379   4.799   3.214  11.440 -2.4262 -0.5185  0.9799
  556MOL0     H73380   5.170   3.411  11.036 -1.0072  0.1595  0.2092
  556MOL0     H73381   5.407   3.383  10.943 -1.1664 -0.6531 -1.3924
  556MOL0     H73382   5.680   3.090  11.136  1.5086  0.7622  0.4184
  556MOL0     H73383   5.672   3.257  11.209  0.9977  1.2309 -0.1011
  556MOL0     H73384   5.896   3.168  11.083 -0.0998 -0.1299 -0.0424
  556MOL0     H73385   5.804   3.196  10.933  0.4714 -1.1348  0.2008
  556MOL0     H73386   5.841   3.409  11.147 -0.0981  0.6224 -0.5900
  556MOL0     H73387   5.763   3.427  10.984 -0.2161  1.5302  1.6204
  556MOL0     H73388   6.049   3.347  11.028  0.4923 -0.9468 -0.7093
  556MOL0     H73389   5.992   3.426  10.888  0.8584 -0.6109  0.2945
  556MOL0     H73390   6.043   3.761  11.149  2.2829 -0.9281  0.5805
  556MOL0     H73391   5.473   3.069  11.214  2.8031  1.7871 -2.7900
  556MOL0     H73392   5.229   3.061  11.279  1.8210  1.2904  2.1374
  557MOL0     O73393   9.022   7.308   4.020 -0.2426 -0.0929  0.2055
  557MOL0     C73394   9.029   7.209   4.087  0.9357  0.4986 -0.1139
  557MOL0     O73395   8.925   7.112   4.087 -0.9328 -0.0445  0.4589
  557MOL0     C73396   8.824   7.115   4.002 -0.1492 -0.4001  0.0664
  557MOL0     C73397   8.738   7.222   4.007  0.1372 -0.1135  0.0201
  557MOL0     C73398   8.615   7.217   3.939 -1.3585 -0.0956  0.2837
  557MOL0     C73399   8.574   7.105   3.860 -1.3246  0.7633  0.3254
  557MOL0     O73400   8.452   7.107   3.801  0.0605 -0.1019 -0.5102
  557MOL0     C73401   8.420   7.018   3.691 -0.7565  0.0484 -0.4070
  557MOL0     C73402   8.315   7.067   3.597  1.1317 -0.4082  0.0181
  557MOL0     C73403   8.180   7.079   3.667  0.6958  0.6877 -0.3736
  557MOL0     C73404   8.090   7.169   3.574  0.4065  0.1582 -0.1733
  557MOL0     C73405   7.956   7.202   3.635  0.0648  0.6684  0.4819
  557MOL0     C73406   7.965   7.300   3.747  0.4770 -0.2442 -0.3695
  557MOL0     C73407   7.839   7.284   3.830 -0.5681 -0.3649 -1.1588
  557MOL0     C73408   7.706   7.348   3.785  0.5555  0.3353  0.4147
  557MOL0     N73409   7.594   7.331   3.869  0.1150  0.2918 -0.5116
  557MOL0     C73410   7.463   7.348   3.833 -0.1025 -0.7048  0.0746
  557MOL0     C73411   7.392   7.331   3.950  0.4136 -0.3718  0.9729
  557MOL0     C73412   7.244   7.348   3.966 -0.3116  0.2376  0.4785
  557MOL0     C73413   7.217   7.489   4.024 -0.6016 -0.5079 -0.0793
  557MOL0     C73414   7.078   7.546   4.045  0.2693 -0.1428  0.2760
  557MOL0     C73415   7.008   7.492   4.168  0.3676  0.1749 -0.5864
  557MOL0     O73416   7.070   7.549   4.285 -0.8815 -0.3879 -0.3732
  557MOL0     C73417   7.000   7.545   4.408  0.4389  0.4528  0.7806
  557MOL0     C73418   6.897   7.451   4.441 -0.3762  0.0895  0.6851
  557MOL0     C73419   6.816   7.469   4.555 -0.6062  0.3689  0.2534
  557MOL0     C73420   6.839   7.576   4.640 -0.0499  0.1853 -0.1885
  557MOL0     C73421   6.748   7.600   4.756 -0.3769 -0.0213  0.3339
  557MOL0     O73422   6.794   7.685   4.852  0.8808  0.5945 -0.3917
  557MOL0     C73423   6.705   7.735   4.944  1.0436  0.1404  0.8320
  557MOL0     C73424   6.730   7.688   5.074  0.6778 -0.7289  0.5240
  557MOL0     C73425   6.641   7.720   5.176  0.9639 -0.0703 -0.0812
  557MOL0     C73426   6.533   7.803   5.149  0.1489  0.8499 -0.1566
  557MOL0     O73427   6.467   7.865   5.248  0.2030 -0.3349  0.0694
  557MOL0     C73428   6.539   7.966   5.324 -0.3598 -0.4400 -0.0316
  557MOL0     C73429   6.443   8.030   5.424  0.0744  0.4731  0.0807
  557MOL0     C73430   6.353   8.135   5.360 -0.2146 -0.3047  0.1926
  557MOL0     C73431   6.215   8.155   5.425 -0.2789 -0.4091 -0.5883
  557MOL0     C73432   6.159   8.287   5.370 -0.4299 -0.6738  0.2996
  557MOL0     C73433   6.038   8.330   5.451 -0.4608 -0.2728 -0.9699
  557MOL0     C73434   5.943   8.428   5.365  0.1539  0.0448 -0.3206
  557MOL0     C73435   5.819   8.460   5.448  1.2194  0.1926 -0.5709
  557MOL0    Cl73436   5.693   8.532   5.343  0.6261  0.5308  0.3353
  557MOL0     C73437   6.514   7.857   5.024 -0.3847 -0.9419 -0.2607
  557MOL0     C73438   6.599   7.821   4.913  0.1604  0.3697  0.2849
  557MOL0     O73439   6.641   7.552   4.748 -0.1121  0.4099  0.5866
  557MOL0     C73440   6.950   7.655   4.611  0.0412  0.3580 -0.2037
  557MOL0     C73441   7.027   7.646   4.494  0.0843 -0.2205  0.7403
  557MOL0     N73442   7.474   7.299   4.053 -0.3264  0.6543 -0.0065
  557MOL0     N73443   7.598   7.292   4.007  0.4691 -0.0124  0.5760
  557MOL0     C73444   8.665   6.998   3.856 -0.5567 -0.4855 -0.1268
  557MOL0     C73445   8.789   7.002   3.919 -0.0512 -0.2131 -0.1771
  557MOL0     C73446   9.154   7.190   4.156  0.8288  0.9785  0.5450
  557MOL0     C73447   9.252   7.293   4.156 -0.1164 -1.1981  0.2776
  557MOL0     C73448   9.369   7.267   4.223 -0.7450  0.6797 -0.1938
  557MOL0     C73449   9.400   7.147   4.290 -0.0127  0.2194  0.6049
  557MOL0     O73450   9.524   7.123   4.349 -0.3360 -0.3798  0.2109
  557MOL0     C73451   9.628   7.213   4.336  0.4290 -0.0629  0.6682
  557MOL0     C73452   9.640   7.294   4.463 -0.4441 -0.3709  0.0116
  557MOL0     C73453   9.723   7.422   4.425  0.9287 -0.0663  0.4997
  557MOL0     C73454   9.754   7.502   4.549 -0.0810  0.0395 -0.3717
  557MOL0     C73455   9.859   7.438   4.630 -0.7483 -0.2340  0.4789
  557MOL0     C73456   9.947   7.379   4.685 -0.8703 -0.2741  0.4530
  557MOL0     C73457   9.296   7.045   4.295 -0.7812  0.2326 -0.4707
  557MOL0     C73458   9.181   7.062   4.218 -0.0377 -0.2027 -0.8102
  557MOL0     H73459   8.748   7.302   4.080 -0.6926  0.7954 -0.8342
  557MOL0     H73460   8.547   7.302   3.945 -0.5589  0.5326  0.6381
  557MOL0     H73461   8.402   6.918   3.731  1.8916 -2.0181 -3.7409
  557MOL0     H73462   8.504   7.003   3.622 -1.0489 -1.4486 -0.4708
  557MOL0     H73463   8.302   7.019   3.500  2.0530  1.1404 -0.9273
  557MOL0     H73464   8.342   7.169   3.566  1.4917 -1.2238 -2.6024
  557MOL0     H73465   8.193   7.124   3.766  0.5705 -2.1488  1.0284
  557MOL0     H73466   8.130   6.983   3.685  0.5705  0.2299 -2.8294
  557MOL0     H73467   8.145   7.261   3.553  0.3673 -0.0728 -1.3565
  557MOL0     H73468   8.078   7.127   3.474  1.1561  1.3517 -0.7929
  557MOL0     H73469   7.904   7.108   3.656 -3.6243  1.8252 -2.4072
  557MOL0     H73470   7.893   7.244   3.556  0.7341 -0.5776 -0.7478
  557MOL0     H73471   7.970   7.402   3.708 -1.2846  0.0096  0.0103
  557MOL0     H73472   8.058   7.285   3.804  2.0908  0.6383 -2.5988
  557MOL0     H73473   7.820   7.178   3.852  1.8112 -0.1435  2.8882
  557MOL0     H73474   7.862   7.326   3.928 -1.2010  2.0084 -1.9679
  557MOL0     H73475   7.684   7.296   3.692  1.3696 -1.3565  1.1373
  557MOL0     H73476   7.738   7.445   3.745 -0.8810 -0.7102 -3.7902
  557MOL0     H73477   7.429   7.380   3.734  1.9999  1.7419  0.0450
  557MOL0     H73478   7.201   7.268   4.026 -2.5020  1.2387  0.3426
  557MOL0     H73479   7.193   7.350   3.870  1.9873 -0.5639 -0.8492
  557MOL0     H73480   7.257   7.549   3.941 -1.3664 -0.7745 -0.6471
  557MOL0     H73481   7.277   7.516   4.112 -0.6247  1.7200 -0.6791
  557MOL0     H73482   7.070   7.655   4.044  1.8771  0.0096  0.5461
  557MOL0     H73483   7.022   7.505   3.960 -2.5027 -0.5545  2.1736
  557MOL0     H73484   7.006   7.383   4.177 -1.9285  0.2723  1.1869
  557MOL0     H73485   6.902   7.514   4.156  0.3413 -0.4198 -1.5658
  557MOL0     H73486   6.870   7.361   4.387 -1.5228 -0.3566  1.9625
  557MOL0     H73487   6.735   7.400   4.576 -0.7267  0.9868  1.9936
  557MOL0     H73488   6.805   7.613   5.093  3.1178  0.8308 -2.1272
  557MOL0     H73489   6.633   7.657   5.264  0.5258 -1.5617 -1.1488
  557MOL0     H73490   6.564   8.054   5.264 -3.5899 -0.0039 -0.9136
  557MOL0     H73491   6.627   7.924   5.373  2.2695  3.1252 -1.2812
  557MOL0     H73492   6.489   8.077   5.511  0.1532 -1.1058  0.9278
  557MOL0     H73493   6.382   7.945   5.455 -1.1692  0.0800 -3.0375
  557MOL0     H73494   6.328   8.091   5.262 -1.2158 -1.1847  0.8186
  557MOL0     H73495   6.407   8.230   5.356  1.3919 -1.1430  1.1144
  557MOL0     H73496   6.161   8.062   5.407  0.1095 -1.5985  3.4059
  557MOL0     H73497   6.235   8.167   5.532  3.6086 -2.1591 -0.9663
  557MOL0     H73498   6.135   8.287   5.263  2.8807  1.1153 -0.5819
  557MOL0     H73499   6.236   8.364   5.380 -1.1563  0.3926 -1.7313
  557MOL0     H73500   6.079   8.375   5.542 -1.9891  1.5407 -1.1155
  557MOL0     H73501   5.985   8.242   5.489  0.5332 -0.8330 -0.8294
  557MOL0     H73502   5.993   8.520   5.332 -1.5436  0.2923 -2.3953
  557MOL0     H73503   5.902   8.376   5.278 -0.9728  2.0800 -1.0685
  557MOL0     H73504   5.847   8.525   5.531  0.9832  0.2316 -0.5201
  557MOL0     H73505   5.773   8.367   5.482 -0.7940  1.0726 -0.7496
  557MOL0     H73506   6.441   7.934   5.000  0.4225 -0.9376 -3.0019
  557MOL0     H73507   6.591   7.861   4.813  0.4219 -1.4553 -0.5119
  557MOL0     H73508   6.968   7.736   4.681 -1.9119 -1.4839  2.6471
  557MOL0     H73509   7.097   7.720   4.457 -0.9841  1.1328  1.3292
  557MOL0     H73510   8.625   6.907   3.812  0.8743 -1.7771  1.1385
  557MOL0     H73511   8.858   6.920   3.902 -0.5233 -0.3590 -1.5926
  557MOL0     H73512   9.247   7.388   4.104  1.0138 -1.1998  0.1442
  557MOL0     H73513   9.441   7.346   4.203 -2.7725  1.9463 -3.4733
  557MOL0     H73514   9.626   7.281   4.251  2.2165  0.5029  1.0472
  557MOL0     H73515   9.718   7.153   4.319  0.9356  1.2132 -1.4725
  557MOL0     H73516   9.541   7.326   4.498 -0.1876  3.0248 -1.9165
  557MOL0     H73517   9.692   7.229   4.534 -0.2080 -1.9800 -1.5646
  557MOL0     H73518   9.669   7.484   4.353  0.1159 -0.8032  0.4562
  557MOL0     H73519   9.812   7.389   4.370  0.0266 -3.0544  0.6284
  557MOL0     H73520   9.784   7.599   4.509 -2.3008 -0.1483 -2.7382
  557MOL0     H73521   9.669   7.527   4.614  0.8389 -0.4350  1.0566
  557MOL0     H73522  10.021   7.324   4.740 -0.3562  0.7711  0.8331
  557MOL0     H73523   9.297   6.949   4.345 -3.7193  0.0632 -0.5817
  557MOL0     H73524   9.097   6.992   4.212 -1.5025  1.0601  2.3892
  558MOL0     O73525  10.598  10.016   1.876 -0.1055 -0.4232 -0.2247
  558MOL0     C73526  10.642   9.907   1.918  0.4423  1.1972 -0.2003
  558MOL0     O73527  10.571   9.790   1.959 -1.0017  0.2381  0.1362
  558MOL0     C73528  10.437   9.799   1.951  0.5824 -0.5388 -0.7416
  558MOL0     C73529  10.366   9.783   1.833  0.2097 -0.4852  0.4376
  558MOL0     C73530  10.227   9.778   1.846  0.1714  0.2648 -1.0281
  558MOL0     C73531  10.166   9.798   1.976 -0.8103 -0.4629  0.3383
  558MOL0     O73532  10.030   9.791   1.992  0.4104  0.0830 -0.3654
  558MOL0     C73533   9.976   9.799   2.125 -0.1205 -0.6363 -0.5199
  558MOL0     C73534   9.827   9.823   2.112 -0.4491 -0.1960  0.0205
  558MOL0     C73535   9.749   9.709   2.050 -0.4159  0.6809 -0.7233
  558MOL0     C73536   9.598   9.733   2.074 -0.3617  0.0167  0.6383
  558MOL0     C73537   9.510   9.644   1.991 -0.3107  1.0753  0.2239
  558MOL0     C73538   9.540   9.498   2.034  0.0468  0.9863 -0.7864
  558MOL0     C73539   9.417   9.406   2.025 -0.9297 -0.4494 -0.6121
  558MOL0     C73540   9.357   9.398   1.887  0.8950  0.4165  0.9789
  558MOL0     N73541   9.235   9.313   1.891  0.6734 -0.2038 -0.5492
  558MOL0     C73542   9.246   9.175   1.887  0.5880  0.2440  0.0465
  558MOL0     C73543   9.123   9.134   1.907 -0.7464 -0.0671 -0.7760
  558MOL0     C73544   9.079   8.988   1.904 -0.0889 -0.3995  0.1262
  558MOL0     C73545   8.931   8.975   1.945 -0.3872 -0.6164  0.4001
  558MOL0     C73546   8.890   8.833   1.960 -0.4484  0.3351  0.6859
  558MOL0     C73547   8.755   8.803   2.011  0.3301  0.0354 -0.0719
  558MOL0     O73548   8.739   8.655   2.016 -0.4723  0.4159 -0.0140
  558MOL0     C73549   8.619   8.604   1.974 -0.4063  0.0378  0.9607
  558MOL0     C73550   8.615   8.483   1.914  0.4303 -0.5694  0.1909
  558MOL0     C73551   8.492   8.427   1.872  0.3308  0.1815 -0.0305
  558MOL0     C73552   8.370   8.495   1.891  0.3058  0.0694 -0.1751
  558MOL0     C73553   8.242   8.437   1.850 -0.3212 -1.1313  0.9547
  558MOL0     O73554   8.124   8.502   1.895  0.8548 -0.3477  0.7687
  558MOL0     C73555   8.000   8.455   1.862 -0.2027  0.1930 -0.1523
  558MOL0     C73556   7.966   8.415   1.739  0.1391  1.7074  0.0928
  558MOL0     C73557   7.835   8.363   1.712 -0.6108  1.3806 -0.1165
  558MOL0     C73558   7.748   8.324   1.817  0.0497 -0.1978 -0.0742
  558MOL0     O73559   7.629   8.259   1.813 -0.1819  0.3116 -0.4736
  558MOL0     C73560   7.575   8.277   1.681  0.7936  0.0793  0.4848
  558MOL0     C73561   7.416   8.251   1.695  0.4037  0.8190  0.1441
  558MOL0     C73562   7.357   8.334   1.807 -0.5706  0.7072 -0.0476
  558MOL0     C73563   7.207   8.319   1.802  1.1239 -0.4925  1.1466
  558MOL0     C73564   7.134   8.386   1.925 -0.3348  0.2582  0.6920
  558MOL0     C73565   6.989   8.356   1.930  0.1209  0.5259 -0.3295
  558MOL0     C73566   6.927   8.452   2.021 -0.3830 -0.0458 -0.3502
  558MOL0     C73567   6.909   8.584   1.958 -0.6774  0.2431 -0.0755
  558MOL0    Cl73568   6.793   8.689   2.062 -0.0062  0.0198  0.3042
  558MOL0     C73569   7.789   8.357   1.949  0.6819  0.2327  0.8973
  558MOL0     C73570   7.909   8.427   1.968  0.5880 -0.3135 -0.4840
  558MOL0     O73571   8.247   8.336   1.778  0.0036  0.7410  0.2063
  558MOL0     C73572   8.380   8.615   1.955 -0.0089 -0.0916 -0.3010
  558MOL0     C73573   8.503   8.673   1.995  0.6704  0.0982  0.0979
  558MOL0     N73574   9.037   9.232   1.939  0.7874  0.3507 -0.5559
  558MOL0     N73575   9.105   9.345   1.919 -0.2451  0.3939 -0.5430
  558MOL0     C73576  10.247   9.817   2.092 -0.2933 -1.4686  0.5012
  558MOL0     C73577  10.385   9.822   2.077  0.3871  0.1065  1.2520
  558MOL0     C73578  10.792   9.899   1.922 -0.9124 -0.0670 -0.1815
  558MOL0     C73579  10.880  10.004   1.899 -0.2912  0.5670 -0.6903
  558MOL0     C73580  11.021   9.989   1.907  0.1298  0.2680  0.1833
  558MOL0     C73581  11.080   9.861   1.909  0.7751 -0.8112  0.0218
  558MOL0     O73582  11.218   9.851   1.903 -0.2125 -0.1445 -0.6451
  558MOL0     C73583  11.270   9.843   1.770 -0.3434 -1.1289  0.7406
  558MOL0     C73584  11.352   9.975   1.735 -0.1812 -0.7347  0.0901
  558MOL0     C73585  11.469  10.001   1.827  0.6132 -0.2269 -0.0862
  558MOL0     C73586  11.549  10.117   1.768  0.2624  0.4010  0.5570
  558MOL0     C73587  11.658  10.146   1.859  0.4085 -0.3539 -0.2577
  558MOL0     C73588  11.728  10.159   1.954 -0.1985  0.3764  1.2135
  558MOL0     C73589  11.000   9.752   1.926  0.4751 -0.3781  0.9337
  558MOL0     C73590  10.853   9.767   1.928 -0.0028  0.3299  0.0328
  558MOL0     H73591  10.413   9.769   1.736  1.7839  5.0200  0.0660
  558MOL0     H73592  10.172   9.746   1.758  0.5132  1.6117 -1.7623
  558MOL0     H73593  10.008   9.894   2.169  3.3573 -1.4160 -1.0551
  558MOL0     H73594  10.005   9.708   2.179  2.3303 -0.0067 -0.6407
  558MOL0     H73595   9.815   9.913   2.051  0.2070  1.0171  1.6285
  558MOL0     H73596   9.785   9.845   2.210 -4.0328 -3.5155 -0.5126
  558MOL0     H73597   9.776   9.620   2.109 -1.8998  1.0040  0.5105
  558MOL0     H73598   9.782   9.679   1.950 -0.9350 -2.2336 -0.1223
  558MOL0     H73599   9.586   9.723   2.182  1.5589 -3.2166  0.6902
  558MOL0     H73600   9.581   9.835   2.039  0.7535 -0.9983 -3.4320
  558MOL0     H73601   9.542   9.654   1.886  1.3063  0.3744  0.6216
  558MOL0     H73602   9.404   9.667   2.007 -0.0160  1.3232  1.9656
  558MOL0     H73603   9.565   9.504   2.140  4.7550  1.4859 -1.6859
  558MOL0     H73604   9.618   9.451   1.972  0.5902 -3.3484  2.7371
  558MOL0     H73605   9.435   9.305   2.061 -0.7182  0.7137  3.0025
  558MOL0     H73606   9.335   9.444   2.087 -0.4983 -1.9454  0.9365
  558MOL0     H73607   9.426   9.372   1.806 -1.5257 -0.7285 -0.8383
  558MOL0     H73608   9.327   9.500   1.864 -0.2297 -0.2229 -0.5477
  558MOL0     H73609   9.338   9.126   1.856  0.7661  0.2773  0.5018
  558MOL0     H73610   9.142   8.925   1.967 -2.5954 -2.8369  0.3956
  558MOL0     H73611   9.098   8.953   1.802  1.9145 -1.8435  0.9344
  558MOL0     H73612   8.868   9.032   1.876  0.0272  3.1900  2.9118
  558MOL0     H73613   8.920   9.023   2.042  2.0608 -0.1792  0.5325
  558MOL0     H73614   8.901   8.771   1.870  2.7738  0.9516  0.5373
  558MOL0     H73615   8.953   8.779   2.032 -0.6231 -3.5729 -1.7748
  558MOL0     H73616   8.690   8.842   1.932  0.5121  0.1258 -0.1763
  558MOL0     H73617   8.741   8.844   2.112 -0.6590 -0.0331 -0.1693
  558MOL0     H73618   8.706   8.426   1.903 -1.5561 -3.6686 -1.9860
  558MOL0     H73619   8.486   8.336   1.812  0.5234 -0.9618  1.6248
  558MOL0     H73620   8.036   8.428   1.656  0.6765 -1.1324  0.0241
  558MOL0     H73621   7.817   8.337   1.609  1.7082 -2.6516  0.2469
  558MOL0     H73622   7.616   8.204   1.611 -0.6603 -0.0273 -0.3036
  558MOL0     H73623   7.582   8.379   1.643  1.2695 -1.2758 -3.4934
  558MOL0     H73624   7.409   8.151   1.738  0.8241  1.0505  0.7628
  558MOL0     H73625   7.376   8.273   1.595 -0.4780 -0.0540  0.2955
  558MOL0     H73626   7.383   8.439   1.792  1.8441  0.4581  1.7471
  558MOL0     H73627   7.387   8.292   1.904 -1.6862 -2.3182 -0.8944
  558MOL0     H73628   7.163   8.350   1.706  0.3707 -3.0487  0.6010
  558MOL0     H73629   7.194   8.211   1.804 -0.4085 -0.3165  2.2238
  558MOL0     H73630   7.153   8.494   1.920  3.7654 -0.2993  1.1113
  558MOL0     H73631   7.179   8.348   2.017 -2.0405 -3.3518  0.1984
  558MOL0     H73632   6.986   8.256   1.974 -0.6453  1.8814  3.0212
  558MOL0     H73633   6.951   8.347   1.828  1.3007  2.0666 -0.9517
  558MOL0     H73634   6.832   8.412   2.056 -2.0038  2.8430 -1.0886
  558MOL0     H73635   6.992   8.459   2.109 -0.1048  5.0960 -0.6555
  558MOL0     H73636   6.860   8.567   1.862  2.5139 -2.7845 -1.3951
  558MOL0     H73637   7.002   8.637   1.935 -0.2744 -0.9435 -1.2922
  558MOL0     H73638   7.727   8.346   2.038 -1.1637  0.7191 -0.2596
  558MOL0     H73639   7.921   8.472   2.066 -0.9553 -1.8069  0.4323
  558MOL0     H73640   8.289   8.670   1.976 -0.4294 -0.4722 -1.0808
  558MOL0     H73641   8.492   8.762   2.056  1.2708 -0.1233  0.5341
  558MOL0     H73642  10.205   9.833   2.191 -0.3552 -0.3558  0.3030
  558MOL0     H73643  10.456   9.850   2.155  1.1148  0.3121  0.5238
  558MOL0     H73644  10.845  10.105   1.884  2.6176  1.3077 -3.8793
  558MOL0     H73645  11.077  10.078   1.879 -0.2204  0.1171 -1.0634
  558MOL0     H73646  11.189   9.835   1.697 -0.7726  4.5681  0.1709
  558MOL0     H73647  11.332   9.755   1.753  1.5023  0.5316 -1.7608
  558MOL0     H73648  11.386   9.991   1.632  1.3982  3.0522  1.0146
  558MOL0     H73649  11.272  10.047   1.752 -2.7427 -2.8901 -2.0040
  558MOL0     H73650  11.529   9.910   1.830 -1.4903 -1.7715 -1.8561
  558MOL0     H73651  11.432  10.038   1.923 -1.4164 -0.3571 -0.7757
  558MOL0     H73652  11.594  10.097   1.671  0.8481 -3.0229  1.3914
  558MOL0     H73653  11.478  10.199   1.755 -0.4593 -0.4242 -0.9918
  558MOL0     H73654  11.783  10.174   2.045 -1.8515  1.7725  2.0389
  558MOL0     H73655  11.034   9.650   1.932  1.0326 -0.2514  0.0623
  558MOL0     H73656  10.800   9.676   1.953  0.8837 -0.4111 -0.7018
  559MOL0     O73657   1.158   4.104  10.612  0.0971 -0.0925  0.3580
  559MOL0     C73658   1.249   4.021  10.573 -0.3373  0.7891  0.2082
  559MOL0     O73659   1.229   3.886  10.563 -0.7523  0.2952  0.6991
  559MOL0     C73660   1.107   3.833  10.586  0.4483 -1.1065 -0.7189
  559MOL0     C73661   0.992   3.860  10.498 -0.5800 -0.2935 -0.0878
  559MOL0     C73662   0.872   3.797  10.525 -0.0630 -0.3967 -1.3442
  559MOL0     C73663   0.837   3.723  10.641 -1.0481  0.2729  0.4046
  559MOL0     O73664   0.723   3.658  10.660 -0.3346  0.2817 -0.9437
  559MOL0     C73665   0.611   3.679  10.582  0.2172 -0.1448  0.4085
  559MOL0     C73666   0.472   3.652  10.645 -0.4239 -0.1195  0.1230
  559MOL0     C73667   0.455   3.745  10.763  0.1080  0.5504 -0.6734
  559MOL0     C73668   0.333   3.731  10.850 -0.0979  0.1572  0.2149
  559MOL0     C73669   0.337   3.826  10.969  0.1510 -0.1786  0.1873
  559MOL0     C73670   0.198   3.858  11.023  0.3568 -0.7613 -0.0744
  559MOL0     C73671   0.144   3.748  11.112 -0.3020  0.8218 -0.7403
  559MOL0     C73672   0.011   3.780  11.188 -0.7922  0.1055 -0.5763
  559MOL0     N73673  -0.101   3.797  11.103  0.8184  0.4382  0.2356
  559MOL0     C73674  -0.169   3.709  11.022 -0.3529 -1.1206  0.3639
  559MOL0     C73675  -0.258   3.781  10.957  0.3153 -0.5425  1.5906
  559MOL0     C73676  -0.356   3.721  10.862  0.0538 -0.1435  0.3763
  559MOL0     C73677  -0.302   3.606  10.776  0.2703 -0.5944  0.9532
  559MOL0     C73678  -0.373   3.583  10.647 -0.2858 -0.0277 -0.1606
  559MOL0     C73679  -0.513   3.530  10.668  0.1456 -0.2748 -0.2540
  559MOL0     O73680  -0.521   3.410  10.743  0.3400  0.3504  0.0728
  559MOL0     C73681  -0.647   3.355  10.774 -0.5657  0.6249  0.0523
  559MOL0     C73682  -0.769   3.399  10.724  0.7101  0.9144  0.3961
  559MOL0     C73683  -0.888   3.332  10.752  0.9016  0.5049  0.8632
  559MOL0     C73684  -0.879   3.213  10.833  0.8562 -0.1340  0.4476
  559MOL0     C73685  -1.011   3.149  10.848  0.3350 -0.4263  0.2893
  559MOL0     O73686  -1.099   3.134  10.751 -0.0591  0.4782 -0.2737
  559MOL0     C73687  -1.213   3.067  10.770 -0.4948 -0.5224  0.3029
  559MOL0     C73688  -1.322   3.137  10.806  1.1486 -0.5109 -0.3236
  559MOL0     C73689  -1.445   3.064  10.817 -0.3245 -0.5195 -0.4887
  559MOL0     C73690  -1.455   2.922  10.791  0.7246  0.0657  0.3695
  559MOL0     O73691  -1.573   2.851  10.796  0.4115 -0.8995 -0.8533
  559MOL0     C73692  -1.699   2.905  10.845 -0.2510  0.5333  0.0825
  559MOL0     C73693  -1.813   2.812  10.885 -0.3308  0.2228  0.2563
  559MOL0     C73694  -1.955   2.866  10.885  0.0045  1.0111  0.4485
  559MOL0     C73695  -2.063   2.761  10.931  0.0538  0.5765  0.1191
  559MOL0     C73696  -2.190   2.817  10.869 -0.1000  0.5582 -0.5494
  559MOL0     C73697  -2.308   2.732  10.908  0.1460  0.4207  0.0082
  559MOL0     C73698  -2.438   2.814  10.886  0.7931 -0.3910  0.8024
  559MOL0     C73699  -2.569   2.733  10.883 -0.1821  1.2565  0.5938
  559MOL0    Cl73700  -2.560   2.612  10.755  0.1684 -0.2731 -0.4381
  559MOL0     C73701  -1.346   2.856  10.742 -0.4142 -0.0918 -0.2741
  559MOL0     C73702  -1.224   2.930  10.738 -0.0406 -0.1401 -0.9011
  559MOL0     O73703  -1.026   3.117  10.965  0.2766  1.0340  0.1089
  559MOL0     C73704  -0.756   3.161  10.875  0.4341 -0.6479  1.0749
  559MOL0     C73705  -0.642   3.241  10.866  0.2270 -0.2091 -0.9311
  559MOL0     N73706  -0.251   3.909  10.997 -0.6614 -0.4885  0.1075
  559MOL0     N73707  -0.153   3.913  11.083 -0.7239 -0.6485  0.3498
  559MOL0     C73708   0.949   3.710  10.728 -0.2054  0.2280 -0.6531
  559MOL0     C73709   1.077   3.757  10.704 -0.4044  0.0634 -0.4054
  559MOL0     C73710   1.385   4.072  10.539  0.3098  0.4657 -0.6365
  559MOL0     C73711   1.489   3.984  10.503  1.0182  0.2877 -0.3008
  559MOL0     C73712   1.619   4.026  10.495  0.8756 -0.8923  0.0485
  559MOL0     C73713   1.652   4.162  10.508 -0.2173  0.2214  0.0833
  559MOL0     O73714   1.782   4.185  10.473 -0.0238 -0.3715  0.1087
  559MOL0     C73715   1.839   4.292  10.539 -0.8153  0.2610 -0.0100
  559MOL0     C73716   1.988   4.266  10.542 -0.0518  0.5747 -0.2461
  559MOL0     C73717   2.077   4.386  10.561 -0.8374 -0.2266  0.1023
  559MOL0     C73718   2.172   4.376  10.684 -0.3131  0.9065 -0.2798
  559MOL0     C73719   2.286   4.287  10.659  0.1616  0.0467  0.4791
  559MOL0     C73720   2.371   4.206  10.634  0.4525  0.1850  0.2336
  559MOL0     C73721   1.554   4.259  10.543 -0.4915  0.6287 -0.4847
  559MOL0     C73722   1.424   4.210  10.564  0.0109 -0.9548 -0.4623
  559MOL0     H73723   1.002   3.921  10.409 -0.6607 -2.0964 -1.3810
  559MOL0     H73724   0.794   3.828  10.457 -1.7613  0.2130  0.7495
  559MOL0     H73725   0.620   3.605  10.502 -0.7000  0.8030 -0.5909
  559MOL0     H73726   0.601   3.778  10.537 -3.0089  0.1904  1.6127
  559MOL0     H73727   0.477   3.544  10.663  0.4740 -0.4674 -1.9740
  559MOL0     H73728   0.389   3.671  10.578  0.1677 -1.4854 -1.0539
  559MOL0     H73729   0.460   3.848  10.727  1.4974  2.2260  3.6453
  559MOL0     H73730   0.543   3.732  10.828  1.4518 -1.5610 -2.7570
  559MOL0     H73731   0.245   3.769  10.797 -1.5096 -1.1187  1.5308
  559MOL0     H73732   0.316   3.626  10.876 -1.8982  0.4313  0.2917
  559MOL0     H73733   0.366   3.923  10.926 -0.0578  0.0293  0.5135
  559MOL0     H73734   0.400   3.797  11.054 -0.1125  0.5481  0.6353
  559MOL0     H73735   0.126   3.878  10.943  0.3129  0.6571  0.3004
  559MOL0     H73736   0.203   3.947  11.086 -0.2441  0.2165 -1.3849
  559MOL0     H73737   0.138   3.662  11.045  1.4444  2.0391 -2.5643
  559MOL0     H73738   0.219   3.724  11.188 -1.2971 -1.1685 -0.2995
  559MOL0     H73739   0.025   3.873  11.244  0.0682 -0.7143  0.6241
  559MOL0     H73740  -0.016   3.706  11.263 -1.3368  0.5310 -0.3540
  559MOL0     H73741  -0.145   3.604  11.007  2.8236 -0.4561  0.0963
  559MOL0     H73742  -0.381   3.804  10.796  2.8654 -0.4080 -1.2028
  559MOL0     H73743  -0.454   3.691  10.899  0.2363 -2.0181 -0.5449
  559MOL0     H73744  -0.310   3.509  10.824 -1.0821 -2.4603 -2.6651
  559MOL0     H73745  -0.201   3.629  10.741 -0.5404  0.2008 -1.0283
  559MOL0     H73746  -0.394   3.670  10.584 -0.8534 -0.8923 -1.2144
  559MOL0     H73747  -0.316   3.516  10.582  2.0108  3.1843 -1.7092
  559MOL0     H73748  -0.552   3.518  10.567  0.3950  2.0691 -0.6778
  559MOL0     H73749  -0.579   3.603  10.716 -2.5503 -2.4863 -0.3280
  559MOL0     H73750  -0.767   3.476  10.648 -1.3223  0.0425 -0.6187
  559MOL0     H73751  -0.982   3.350  10.702  0.2557 -0.4160  1.7061
  559MOL0     H73752  -1.320   3.243  10.826  1.1138 -0.4498 -0.6411
  559MOL0     H73753  -1.535   3.120  10.838 -0.2769 -0.5600 -0.1707
  559MOL0     H73754  -1.728   2.988  10.780  0.4764  1.1921  0.5671
  559MOL0     H73755  -1.670   2.967  10.930  2.4997  0.8197 -0.9407
  559MOL0     H73756  -1.805   2.779  10.989 -0.1226  1.6474  0.7199
  559MOL0     H73757  -1.805   2.731  10.812 -0.4140  1.1412 -0.7994
  559MOL0     H73758  -1.965   2.904  10.783  3.7474  0.2443 -0.3668
  559MOL0     H73759  -1.954   2.952  10.952 -1.9617  1.1397  0.3779
  559MOL0     H73760  -2.051   2.661  10.888 -1.2763  2.1295 -4.5344
  559MOL0     H73761  -2.071   2.756  11.040 -1.1879  1.4492  0.0927
  559MOL0     H73762  -2.183   2.816  10.760 -1.2775 -0.2601 -0.6434
  559MOL0     H73763  -2.214   2.917  10.907 -0.0207  0.0980  0.7599
  559MOL0     H73764  -2.300   2.713  11.015 -0.8517 -0.9154 -0.1281
  559MOL0     H73765  -2.305   2.635  10.858 -2.0709  0.6977 -0.7852
  559MOL0     H73766  -2.436   2.908  10.941  1.5322  0.8229 -1.1998
  559MOL0     H73767  -2.431   2.846  10.781 -0.7226 -4.6989 -0.8406
  559MOL0     H73768  -2.644   2.810  10.862  1.6270  2.7060 -1.0226
  559MOL0     H73769  -2.594   2.680  10.975 -0.3559 -3.7367 -2.0236
  559MOL0     H73770  -1.348   2.748  10.728 -1.4649 -0.1126 -0.0654
  559MOL0     H73771  -1.132   2.876  10.722  2.7808  4.1702 -0.7503
  559MOL0     H73772  -0.752   3.060  10.915  0.1345 -1.4169 -0.7339
  559MOL0     H73773  -0.545   3.207  10.901 -1.5882 -2.5068  2.5413
  559MOL0     H73774   0.914   3.662  10.818  0.9793 -1.6754 -1.1416
  559MOL0     H73775   1.160   3.748  10.773 -1.6170 -0.7047  1.0195
  559MOL0     H73776   1.457   3.881  10.486  0.7053 -0.1433  2.4450
  559MOL0     H73777   1.705   3.960  10.499  1.4637 -0.0596  2.5762
  559MOL0     H73778   1.805   4.297  10.643  0.0299 -0.7805  0.3398
  559MOL0     H73779   1.821   4.395  10.507  1.2402  1.1336  1.4473
  559MOL0     H73780   1.998   4.199  10.628 -2.4539  2.1703  1.3977
  559MOL0     H73781   2.021   4.204  10.458 -1.3290 -0.7759  0.2087
  559MOL0     H73782   2.014   4.474  10.576 -0.1098  0.5069 -1.0431
  559MOL0     H73783   2.122   4.401  10.463 -0.0603 -1.3031  0.2808
  559MOL0     H73784   2.207   4.465  10.737 -1.3723 -0.6173  3.2789
  559MOL0     H73785   2.112   4.329  10.763 -1.4327  1.6542 -0.6537
  559MOL0     H73786   2.451   4.141  10.605 -1.4013 -1.5967 -1.1656
  559MOL0     H73787   1.571   4.366  10.548  0.0296  0.4965  1.0112
  559MOL0     H73788   1.345   4.284  10.576  0.4772  0.0063 -2.6236
  560MOL0     O73789   3.279   9.303   8.575 -0.3541 -0.1213  0.4049
  560MOL0     C73790   3.330   9.214   8.504  0.2665  0.1956  0.5943
  560MOL0     O73791   3.270   9.138   8.406  0.2058  0.3744 -0.1209
  560MOL0     C73792   3.138   9.140   8.366  0.8298 -0.0776  0.1764
  560MOL0     C73793   3.031   9.198   8.438 -0.5582  0.6229 -0.7426
  560MOL0     C73794   2.903   9.192   8.387 -0.4494  0.2541 -0.4938
  560MOL0     C73795   2.869   9.124   8.266  0.4640 -0.8051  0.0868
  560MOL0     O73796   2.740   9.109   8.219  0.3229  0.3026  0.2950
  560MOL0     C73797   2.639   9.159   8.313  0.6421  0.5913 -0.4598
  560MOL0     C73798   2.496   9.125   8.264 -0.7709 -0.0212 -0.6790
  560MOL0     C73799   2.465   8.974   8.260  0.0449  0.1474  0.0879
  560MOL0     C73800   2.329   8.959   8.200 -0.3489 -0.0081  0.0433
  560MOL0     C73801   2.280   8.809   8.178 -0.5042  0.6504 -0.1250
  560MOL0     C73802   2.173   8.809   8.079  0.8818  0.2996  0.7416
  560MOL0     C73803   2.050   8.888   8.119 -0.2051 -0.0331  0.5478
  560MOL0     C73804   1.992   8.862   8.251  0.5213 -0.1504  0.1051
  560MOL0     N73805   1.847   8.834   8.255  0.6572 -0.4820 -0.0685
  560MOL0     C73806   1.746   8.892   8.176 -0.7560  0.1733 -0.0980
  560MOL0     C73807   1.632   8.837   8.217 -0.0198 -0.1038  1.1488
  560MOL0     C73808   1.508   8.869   8.135  0.5300 -0.5365  0.0967
  560MOL0     C73809   1.399   8.762   8.163 -0.4302  0.5120 -0.9256
  560MOL0     C73810   1.263   8.795   8.101  0.2919  0.9252  0.0838
  560MOL0     C73811   1.145   8.682   8.125  0.5441 -0.5721  0.6805
  560MOL0     O73812   1.154   8.639   8.265 -0.2088  0.1705  0.1390
  560MOL0     C73813   1.063   8.546   8.301  0.5764  0.3494  0.7152
  560MOL0     C73814   1.070   8.506   8.437 -0.1631 -0.1651 -0.1437
  560MOL0     C73815   0.965   8.436   8.497 -0.9308 -0.0249 -0.3698
  560MOL0     C73816   0.857   8.390   8.424  0.1382  0.1565 -0.7223
  560MOL0     C73817   0.760   8.293   8.480  1.0250  0.5827  0.3977
  560MOL0     O73818   0.769   8.274   8.614  0.0693 -0.4913 -0.3646
  560MOL0     C73819   0.676   8.196   8.680 -0.2390 -0.1298  0.3730
  560MOL0     C73820   0.718   8.085   8.746 -0.2942  0.3365  0.2612
  560MOL0     C73821   0.641   8.006   8.826 -0.5556  0.1132  0.6075
  560MOL0     C73822   0.505   8.026   8.824  0.3626 -0.4835 -1.1946
  560MOL0     O73823   0.416   7.957   8.898  0.6790 -0.6401 -0.2257
  560MOL0     C73824   0.440   7.895   9.021 -0.1562  0.3980 -0.5666
  560MOL0     C73825   0.316   7.822   9.072  0.1140 -0.1971 -0.2450
  560MOL0     C73826   0.206   7.927   9.100  0.5842 -0.1041 -0.4385
  560MOL0     C73827   0.079   7.861   9.165 -0.2943  0.1498 -0.3954
  560MOL0     C73828  -0.009   7.978   9.225  0.9054  0.2123 -0.6796
  560MOL0     C73829  -0.139   7.930   9.298 -0.1112  0.6774  1.0034
  560MOL0     C73830  -0.226   7.846   9.198  0.2968 -0.3286 -0.4929
  560MOL0     C73831  -0.366   7.814   9.266 -0.9276  0.7462 -0.3044
  560MOL0    Cl73832  -0.478   7.963   9.263  0.1311  0.4456 -0.3884
  560MOL0     C73833   0.449   8.127   8.745 -0.0979 -0.9200  0.2337
  560MOL0     C73834   0.538   8.217   8.673  1.1803 -0.2208 -0.2087
  560MOL0     O73835   0.672   8.244   8.410  0.5820  0.0247 -0.7293
  560MOL0     C73836   0.857   8.413   8.284  0.6394  0.3848 -0.5609
  560MOL0     C73837   0.953   8.493   8.220 -0.6165 -0.1054 -1.0272
  560MOL0     N73838   1.659   8.732   8.306  0.3845 -0.8902 -0.2599
  560MOL0     N73839   1.786   8.743   8.335  0.0756 -0.3928 -0.1780
  560MOL0     C73840   2.972   9.057   8.201  0.5322  0.3321  0.3497
  560MOL0     C73841   3.102   9.058   8.251  0.1490  0.2264 -0.7518
  560MOL0     C73842   3.474   9.194   8.508 -0.3723  0.3512 -0.1943
  560MOL0     C73843   3.545   9.094   8.433 -0.0365 -0.5674 -0.6230
  560MOL0     C73844   3.679   9.066   8.444  0.4373  0.2222 -0.4410
  560MOL0     C73845   3.754   9.144   8.536  1.4286 -0.1778 -0.3393
  560MOL0     O73846   3.893   9.139   8.544  0.1887 -0.5967  0.3455
  560MOL0     C73847   3.943   9.254   8.471 -0.7639 -0.5809  0.7642
  560MOL0     C73848   4.093   9.254   8.500  0.0205  0.2042  0.2835
  560MOL0     C73849   4.167   9.122   8.468 -0.5594 -0.4747 -0.3771
  560MOL0     C73850   4.168   9.092   8.318 -0.9542 -0.4937 -0.2260
  560MOL0     C73851   4.245   9.190   8.244  0.5284 -0.2718  0.2237
  560MOL0     C73852   4.294   9.285   8.179  0.3312  0.1862  0.0140
  560MOL0     C73853   3.690   9.240   8.612  0.0805  0.0798  0.3818
  560MOL0     C73854   3.551   9.262   8.605 -0.3411  0.5286  0.0611
  560MOL0     H73855   3.053   9.248   8.532  2.3312  1.7432 -1.9009
  560MOL0     H73856   2.827   9.253   8.435  0.6409  1.7489 -0.6017
  560MOL0     H73857   2.659   9.267   8.319 -1.0430  0.9023  0.1330
  560MOL0     H73858   2.642   9.119   8.415 -1.8553  2.4713  0.4683
  560MOL0     H73859   2.477   9.174   8.169 -1.0352 -0.1696 -0.7025
  560MOL0     H73860   2.432   9.166   8.343 -1.1270 -0.8729 -0.5038
  560MOL0     H73861   2.468   8.951   8.367  2.4328 -0.2992 -0.0312
  560MOL0     H73862   2.546   8.920   8.211  0.4484  1.6479 -0.9673
  560MOL0     H73863   2.249   9.001   8.262 -1.3584 -1.2845 -0.3747
  560MOL0     H73864   2.346   9.005   8.102  1.1712 -0.6787 -0.0307
  560MOL0     H73865   2.251   8.749   8.265  0.2403 -0.0700 -0.3611
  560MOL0     H73866   2.362   8.750   8.136 -1.1794 -2.0298  2.0075
  560MOL0     H73867   2.137   8.707   8.063 -0.8705  0.9233  0.5237
  560MOL0     H73868   2.199   8.854   7.983 -4.4665  0.3691 -0.9993
  560MOL0     H73869   2.071   8.995   8.106  0.4625 -0.4764 -2.7856
  560MOL0     H73870   1.976   8.868   8.041 -0.4282 -1.1063  1.0192
  560MOL0     H73871   2.006   8.953   8.311 -0.3541  0.5772 -0.7542
  560MOL0     H73872   2.050   8.788   8.307  0.7412 -0.4342 -0.4869
  560MOL0     H73873   1.749   8.968   8.099 -4.0316  2.1716  1.4877
  560MOL0     H73874   1.536   8.873   8.030  0.3991 -0.1607  0.0769
  560MOL0     H73875   1.467   8.969   8.154  2.2661  0.7756 -2.5599
  560MOL0     H73876   1.384   8.762   8.271 -2.0029  1.7615 -1.1083
  560MOL0     H73877   1.430   8.663   8.129  0.6312  1.0045 -1.4399
  560MOL0     H73878   1.228   8.891   8.141 -1.2941 -0.2351  1.5917
  560MOL0     H73879   1.285   8.794   7.993 -0.7619 -0.0531 -0.1392
  560MOL0     H73880   1.164   8.596   8.061 -1.4030  0.8768 -2.0469
  560MOL0     H73881   1.046   8.721   8.099  0.2711  0.9033  3.4980
  560MOL0     H73882   1.151   8.546   8.499  0.2972 -1.4339  0.0949
  560MOL0     H73883   0.980   8.422   8.604  1.1064 -1.3498 -0.7805
  560MOL0     H73884   0.824   8.061   8.750 -0.1692  1.0579  2.2984
  560MOL0     H73885   0.686   7.918   8.872  1.2595 -0.4133 -1.9845
  560MOL0     H73886   0.473   7.973   9.091  1.1242 -0.9947  0.4390
  560MOL0     H73887   0.520   7.821   9.014  2.0744  2.4460  1.3112
  560MOL0     H73888   0.352   7.771   9.162  0.0154 -1.4636 -0.9108
  560MOL0     H73889   0.282   7.746   9.001 -0.3682  2.2585 -2.8503
  560MOL0     H73890   0.187   7.989   9.012  0.6153  2.2174  1.0916
  560MOL0     H73891   0.241   8.008   9.165 -3.3355  3.1715 -1.9488
  560MOL0     H73892   0.023   7.812   9.085  1.5751 -2.8689 -0.0172
  560MOL0     H73893   0.114   7.791   9.241 -0.6240 -1.6050 -1.7939
  560MOL0     H73894  -0.041   8.042   9.142 -0.6242 -0.6736 -0.8203
  560MOL0     H73895   0.049   8.023   9.306  0.3331 -1.3740  0.6628
  560MOL0     H73896  -0.196   8.018   9.331  1.2304  0.7667  3.2691
  560MOL0     H73897  -0.123   7.866   9.386  0.5081  2.0924  1.9573
  560MOL0     H73898  -0.228   7.898   9.102  1.7534  0.0572 -0.3399
  560MOL0     H73899  -0.172   7.752   9.185  0.3239 -0.7580  2.0420
  560MOL0     H73900  -0.352   7.786   9.370 -0.3853  2.3062  0.0699
  560MOL0     H73901  -0.414   7.737   9.204 -0.6352 -0.4828  0.9625
  560MOL0     H73902   0.344   8.153   8.734  0.4028  1.6492  0.7983
  560MOL0     H73903   0.500   8.287   8.599 -1.8738 -2.4920 -0.9663
  560MOL0     H73904   0.773   8.385   8.221  0.7477  0.6662 -0.8325
  560MOL0     H73905   0.954   8.518   8.115  2.0604  0.5925 -0.9067
  560MOL0     H73906   2.956   8.997   8.112  1.1726  0.2994  0.2541
  560MOL0     H73907   3.169   8.992   8.196 -1.3963 -1.0994 -1.1299
  560MOL0     H73908   3.484   9.024   8.376 -3.1572  0.7429  0.8479
  560MOL0     H73909   3.705   8.991   8.370 -2.9722  0.6776 -2.3290
  560MOL0     H73910   3.912   9.354   8.503  2.2079  1.0483 -0.9777
  560MOL0     H73911   3.922   9.243   8.365  1.3514 -0.3690  0.2842
  560MOL0     H73912   4.129   9.329   8.429 -0.0512 -0.5967 -0.6379
  560MOL0     H73913   4.109   9.283   8.604  1.5456  0.7902 -0.0940
  560MOL0     H73914   4.118   9.034   8.511  0.7074 -0.5598  0.9831
  560MOL0     H73915   4.272   9.128   8.501 -0.3460 -3.5136 -0.2531
  560MOL0     H73916   4.214   8.994   8.298  4.3995  1.0407  2.6924
  560MOL0     H73917   4.070   9.087   8.269 -0.9311  1.2993 -0.5214
  560MOL0     H73918   4.344   9.367   8.131  2.1118 -0.9045 -0.0772
  560MOL0     H73919   3.753   9.294   8.682  0.7767 -0.0991 -0.1022
  560MOL0     H73920   3.500   9.337   8.664  0.2972  0.4437  0.7305
  561MOL0     O73921   9.018   6.582   5.570 -0.1119  0.4325  0.2169
  561MOL0     C73922   9.106   6.649   5.518  0.2506 -0.2093 -0.0015
  561MOL0     O73923   9.084   6.742   5.419 -0.2336 -0.0025  0.2838
  561MOL0     C73924   8.958   6.733   5.364 -0.0944 -0.2297 -0.3308
  561MOL0     C73925   8.878   6.842   5.380 -0.0324 -0.4556  1.0855
  561MOL0     C73926   8.760   6.855   5.317  0.3429  1.0465  0.2838
  561MOL0     C73927   8.706   6.749   5.237 -0.6080  0.1589  0.3130
  561MOL0     O73928   8.594   6.761   5.152  0.6780  0.4978  0.2664
  561MOL0     C73929   8.557   6.891   5.110 -0.1267  0.8776 -0.3313
  561MOL0     C73930   8.509   6.876   4.966 -1.0355  0.2119  0.3707
  561MOL0     C73931   8.625   6.861   4.861  0.1517 -0.0093 -0.0552
  561MOL0     C73932   8.571   6.826   4.717 -0.3521 -0.2299 -0.4570
  561MOL0     C73933   8.510   6.688   4.693 -0.0002  0.2111 -0.3379
  561MOL0     C73934   8.439   6.682   4.559 -0.2105 -0.0991  0.9720
  561MOL0     C73935   8.368   6.542   4.556 -0.7353  0.4509 -0.3903
  561MOL0     C73936   8.288   6.534   4.425 -0.6161 -0.0440  0.4096
  561MOL0     N73937   8.172   6.612   4.422  0.3627 -0.3249 -0.2079
  561MOL0     C73938   8.068   6.592   4.516  0.2209  0.0332  0.3343
  561MOL0     C73939   7.995   6.709   4.524 -0.6171 -0.2831  0.4260
  561MOL0     C73940   7.873   6.726   4.605  0.2185 -0.1390 -0.4846
  561MOL0     C73941   7.885   6.854   4.684 -1.0764  0.1305  0.0958
  561MOL0     C73942   7.804   6.853   4.814  0.2638  1.7484  0.6649
  561MOL0     C73943   7.652   6.841   4.784 -0.0770  0.2721 -0.6086
  561MOL0     O73944   7.582   6.800   4.902  0.0324  0.9109  0.1318
  561MOL0     C73945   7.449   6.798   4.896  0.3232  0.5800 -0.0681
  561MOL0     C73946   7.377   6.820   4.776  0.5001  0.1205 -0.0733
  561MOL0     C73947   7.231   6.824   4.774 -0.6159  1.2342 -0.2591
  561MOL0     C73948   7.161   6.801   4.888  0.5271 -0.9447 -0.2766
  561MOL0     C73949   7.012   6.797   4.896  1.6890  0.4476 -0.4435
  561MOL0     O73950   6.952   6.782   5.025  0.2773 -0.8164  0.2604
  561MOL0     C73951   6.822   6.824   5.034  0.0933  0.7655 -1.2301
  561MOL0     C73952   6.777   6.955   5.029 -0.6468 -0.7334  0.3473
  561MOL0     C73953   6.638   6.984   5.020 -0.7831  0.9612 -0.6786
  561MOL0     C73954   6.545   6.875   5.025  0.2690 -0.4890 -0.5035
  561MOL0     O73955   6.411   6.885   5.025  0.2075  0.5771 -0.0739
  561MOL0     C73956   6.358   7.017   5.009 -0.1383  0.2389 -0.4286
  561MOL0     C73957   6.201   7.012   5.015  0.1843  0.5834 -0.1376
  561MOL0     C73958   6.151   6.933   5.137  0.4888 -0.3396  0.5741
  561MOL0     C73959   5.993   6.927   5.134  0.1166  0.1050 -0.0668
  561MOL0     C73960   5.943   6.820   5.234  0.2789 -0.3301  0.0695
  561MOL0     C73961   5.791   6.794   5.234 -0.0512 -0.1380  0.2860
  561MOL0     C73962   5.716   6.917   5.281  0.1058 -0.6174 -0.2389
  561MOL0     C73963   5.581   6.881   5.336 -1.0585  0.0156  0.7752
  561MOL0    Cl73964   5.501   7.001   5.430 -0.5508  0.1240  0.0896
  561MOL0     C73965   6.594   6.742   5.032  0.1431 -0.7784  0.0398
  561MOL0     C73966   6.727   6.726   5.050 -0.4652  0.4186 -0.1543
  561MOL0     O73967   6.943   6.815   4.795 -0.1582 -0.1585  1.0980
  561MOL0     C73968   7.238   6.783   5.003  0.1588 -0.5357 -0.3502
  561MOL0     C73969   7.378   6.775   5.011  0.1933  0.7948  0.0774
  561MOL0     N73970   8.052   6.794   4.431 -0.3753  0.4309 -0.4066
  561MOL0     N73971   8.160   6.745   4.381  0.4962  0.3180  0.6343
  561MOL0     C73972   8.782   6.637   5.212  0.5320  0.9537  0.5668
  561MOL0     C73973   8.908   6.627   5.275  0.1677 -0.1210  0.0839
  561MOL0     C73974   9.239   6.645   5.584  0.2079  0.3611  0.1828
  561MOL0     C73975   9.350   6.706   5.515  0.8572  0.0265 -0.2546
  561MOL0     C73976   9.475   6.710   5.584  0.3112 -0.1736  0.0813
  561MOL0     C73977   9.493   6.648   5.710 -0.3019  0.0916 -0.6022
  561MOL0     O73978   9.615   6.630   5.768 -0.1847  0.2836  0.1670
  561MOL0     C73979   9.746   6.658   5.710 -0.4695  0.2148  0.1807
  561MOL0     C73980   9.866   6.647   5.816 -0.1865  0.3380 -0.0089
  561MOL0     C73981  10.008   6.660   5.739 -0.3113  0.3351  0.6249
  561MOL0     C73982  10.124   6.630   5.831  0.9016 -1.1808 -0.6177
  561MOL0     C73983  10.139   6.755   5.905  0.5506  0.3111 -1.4382
  561MOL0     C73984  10.147   6.862   5.963  0.1113 -0.0074  0.0414
  561MOL0     C73985   9.380   6.601   5.772 -0.7203  0.3548  0.2467
  561MOL0     C73986   9.260   6.594   5.711 -0.0235 -0.0829 -0.8014
  561MOL0     H73987   8.915   6.936   5.419  2.2978  0.9007 -3.5973
  561MOL0     H73988   8.702   6.943   5.344  0.5675  0.9106  1.2375
  561MOL0     H73989   8.641   6.961   5.105  0.6301 -0.1137 -4.2918
  561MOL0     H73990   8.479   6.926   5.178  2.8017  2.0669  2.7453
  561MOL0     H73991   8.450   6.965   4.941  2.6879  2.3493 -1.7198
  561MOL0     H73992   8.449   6.786   4.946 -1.1100  0.9618 -3.6487
  561MOL0     H73993   8.687   6.775   4.890  0.2903 -0.8895 -2.6543
  561MOL0     H73994   8.680   6.955   4.864  0.1595 -0.0501  1.4050
  561MOL0     H73995   8.500   6.904   4.689 -3.1777 -2.2894  0.4751
  561MOL0     H73996   8.667   6.827   4.663 -0.6740 -0.1247 -1.0284
  561MOL0     H73997   8.440   6.667   4.774  0.0610 -0.6157 -0.4831
  561MOL0     H73998   8.595   6.619   4.682 -1.2808 -1.7995  1.6317
  561MOL0     H73999   8.514   6.681   4.479 -0.4811 -1.1918  0.7208
  561MOL0     H74000   8.363   6.760   4.551  2.1443  2.2954  0.5119
  561MOL0     H74001   8.441   6.461   4.550 -1.7628 -0.6306  1.0714
  561MOL0     H74002   8.306   6.532   4.646 -0.0648  2.6138  0.3646
  561MOL0     H74003   8.262   6.430   4.407  3.1259 -0.9931 -0.3606
  561MOL0     H74004   8.350   6.591   4.355 -0.3606  0.7416  1.2533
  561MOL0     H74005   8.055   6.504   4.578  0.7575  0.3821  0.9510
  561MOL0     H74006   7.856   6.636   4.665  0.3105  0.4747  0.4850
  561MOL0     H74007   7.794   6.751   4.533  1.3928  1.7029 -1.2120
  561MOL0     H74008   7.857   6.932   4.613 -3.0323 -0.5974  0.0129
  561MOL0     H74009   7.991   6.869   4.707 -1.0492 -0.4005  0.3320
  561MOL0     H74010   7.840   6.774   4.881  0.3876  0.5919 -0.7281
  561MOL0     H74011   7.828   6.950   4.858  0.7142  3.1348 -2.4262
  561MOL0     H74012   7.644   6.770   4.702  0.3613  0.1386 -0.5400
  561MOL0     H74013   7.610   6.936   4.749  1.0691  0.1394 -2.4619
  561MOL0     H74014   7.423   6.833   4.679 -0.6463 -0.6337 -0.7506
  561MOL0     H74015   7.195   6.853   4.676  0.5692  0.1042 -1.0715
  561MOL0     H74016   6.852   7.031   5.009  0.9406 -1.7915  1.9096
  561MOL0     H74017   6.602   7.086   5.016 -1.7063  0.6349 -0.8162
  561MOL0     H74018   6.399   7.064   4.919  0.5679 -0.5041 -0.5094
  561MOL0     H74019   6.389   7.067   5.102  1.0147 -0.7264 -0.2709
  561MOL0     H74020   6.171   6.952   4.928 -1.8396  1.1849  0.0827
  561MOL0     H74021   6.156   7.110   5.000 -2.1017 -0.6530 -2.1630
  561MOL0     H74022   6.191   6.978   5.228  0.4682  1.6863 -0.3598
  561MOL0     H74023   6.184   6.829   5.126 -0.8943 -0.6344 -1.2777
  561MOL0     H74024   5.949   7.026   5.149 -0.6535 -0.3325  0.7257
  561MOL0     H74025   5.947   6.909   5.036  0.8075  2.2122 -0.8315
  561MOL0     H74026   5.965   6.870   5.329 -2.7035  1.5008 -0.0738
  561MOL0     H74027   5.998   6.727   5.223  0.4542 -0.6186  2.7069
  561MOL0     H74028   5.766   6.712   5.303  0.7673  0.4271  1.2758
  561MOL0     H74029   5.756   6.762   5.136  1.6377 -4.1522  0.8089
  561MOL0     H74030   5.767   6.968   5.363  0.3463  1.3382 -1.5155
  561MOL0     H74031   5.712   6.984   5.195  2.6625 -1.6871 -1.2916
  561MOL0     H74032   5.596   6.805   5.413 -4.2736  0.1609  1.6840
  561MOL0     H74033   5.517   6.838   5.258  1.6661  0.6586 -2.0145
  561MOL0     H74034   6.524   6.659   5.038 -1.0093  0.2713  2.3259
  561MOL0     H74035   6.764   6.625   5.063  0.3717  0.9104  1.6117
  561MOL0     H74036   7.184   6.748   5.091  0.9993 -0.5542  0.1758
  561MOL0     H74037   7.422   6.750   5.108  0.2764 -2.1203 -0.6109
  561MOL0     H74038   8.751   6.572   5.131 -0.5501  0.6009  1.2401
  561MOL0     H74039   8.970   6.545   5.240  2.2035  2.4943 -3.0094
  561MOL0     H74040   9.328   6.749   5.418 -1.2308  2.7088  1.2265
  561MOL0     H74041   9.558   6.742   5.522 -1.7268  2.5873 -1.4741
  561MOL0     H74042   9.752   6.761   5.674 -1.7823  0.3730  0.3649
  561MOL0     H74043   9.755   6.585   5.629  0.8787 -0.1350  0.6101
  561MOL0     H74044   9.858   6.709   5.905  0.5689 -3.0635  2.6286
  561MOL0     H74045   9.863   6.546   5.858  0.1187  0.7316  0.9747
  561MOL0     H74046  10.004   6.764   5.706  0.0004  0.7459  1.8136
  561MOL0     H74047  10.014   6.592   5.654  0.3704  0.5190  0.5204
  561MOL0     H74048  10.105   6.538   5.888 -0.2130 -2.2453 -2.5896
  561MOL0     H74049  10.215   6.621   5.772  0.6231 -1.6929 -0.9791
  561MOL0     H74050  10.171   6.953   6.015  0.5712 -0.0029 -0.1710
  561MOL0     H74051   9.380   6.541   5.863 -0.5650  1.7371  1.2004
  561MOL0     H74052   9.172   6.553   5.761 -1.8371 -1.7618 -4.9422
  562MOL0     O74053   5.716   2.722  10.518 -0.6093 -0.1370  0.2296
  562MOL0     C74054   5.800   2.799  10.573  0.9466  0.0743  0.7613
  562MOL0     O74055   5.766   2.887  10.678 -0.9774  0.1247 -0.0442
  562MOL0     C74056   5.637   2.892  10.716 -0.0154 -0.3817  0.4413
  562MOL0     C74057   5.615   2.894  10.852 -0.2041 -0.1509  0.4928
  562MOL0     C74058   5.480   2.892  10.896 -0.8156  0.0267  0.3802
  562MOL0     C74059   5.372   2.903  10.810  0.2571  0.6561  0.8228
  562MOL0     O74060   5.244   2.923  10.842  0.2030  0.1183  0.8887
  562MOL0     C74061   5.186   2.847  10.948 -0.4503  0.1535 -0.6574
  562MOL0     C74062   5.089   2.746  10.895  0.9625 -0.7508 -0.5801
  562MOL0     C74063   4.961   2.802  10.829 -1.3244  0.6354  0.5141
  562MOL0     C74064   4.882   2.684  10.768 -0.4446 -0.4429  0.0641
  562MOL0     C74065   4.746   2.747  10.744 -0.0658 -0.5796  0.3498
  562MOL0     C74066   4.658   2.659  10.647 -0.6097  0.2233  1.0935
  562MOL0     C74067   4.524   2.742  10.602 -1.1480  0.5365  0.6546
  562MOL0     C74068   4.457   2.651  10.497  0.1297  0.1954  0.2818
  562MOL0     N74069   4.318   2.704  10.490 -0.7313 -0.2836  0.5586
  562MOL0     C74070   4.235   2.700  10.600 -0.7975 -0.0081 -0.0036
  562MOL0     C74071   4.119   2.761  10.552 -0.2549  0.0916  0.0654
  562MOL0     C74072   4.006   2.788  10.642  0.2435  0.3371  0.2072
  562MOL0     C74073   3.865   2.773  10.573  0.0474  0.2089 -0.5146
  562MOL0     C74074   3.815   2.626  10.551 -0.1076 -0.1518  0.0598
  562MOL0     C74075   3.670   2.621  10.482  0.6516 -0.0330  0.2988
  562MOL0     O74076   3.569   2.680  10.561  0.5746 -0.4535 -0.6255
  562MOL0     C74077   3.441   2.681  10.512 -0.1097 -1.3257 -1.2394
  562MOL0     C74078   3.401   2.633  10.393  0.5753  0.2750 -0.0939
  562MOL0     C74079   3.262   2.635  10.349 -1.1062  0.2836 -0.0835
  562MOL0     C74080   3.160   2.676  10.437  1.2960 -0.1267 -0.0381
  562MOL0     C74081   3.019   2.678  10.395  0.0527 -0.9339 -0.3492
  562MOL0     O74082   2.927   2.733  10.480 -0.1468 -0.6963 -0.4380
  562MOL0     C74083   2.801   2.746  10.437 -0.8706 -0.5028 -0.4493
  562MOL0     C74084   2.766   2.857  10.361 -0.4571  0.1799  0.4348
  562MOL0     C74085   2.639   2.864  10.312 -0.1939  0.3424 -0.2977
  562MOL0     C74086   2.545   2.771  10.341  0.6397  0.0434 -0.0242
  562MOL0     O74087   2.415   2.805  10.294 -0.0710 -0.4900  0.0585
  562MOL0     C74088   2.311   2.709  10.332  0.1587  0.7501 -0.1608
  562MOL0     C74089   2.184   2.789  10.304 -1.0978  0.3607  0.1642
  562MOL0     C74090   2.074   2.690  10.335 -0.1832 -0.3746  0.5318
  562MOL0     C74091   1.931   2.744  10.330 -0.4315 -0.3356  0.3905
  562MOL0     C74092   1.832   2.636  10.328  0.0961  0.3063 -1.3967
  562MOL0     C74093   1.684   2.672  10.374 -0.7615 -0.0484  0.2057
  562MOL0     C74094   1.609   2.544  10.407  0.9192 -0.6222  0.3421
  562MOL0     C74095   1.587   2.459  10.285  0.3367  0.5167  0.0385
  562MOL0    Cl74096   1.434   2.381  10.301 -0.5868  0.3541  0.6252
  562MOL0     C74097   2.584   2.660  10.408 -0.1178  0.5890  0.2735
  562MOL0     C74098   2.716   2.649  10.453 -0.1086  0.7808 -0.4078
  562MOL0     O74099   3.000   2.631  10.285  0.2548 -0.1595 -0.0302
  562MOL0     C74100   3.201   2.706  10.567  0.1297 -0.1236  0.7984
  562MOL0     C74101   3.331   2.712  10.598  0.3975 -0.0759 -0.8584
  562MOL0     N74102   4.145   2.795  10.423 -0.7587 -0.3971  0.1599
  562MOL0     N74103   4.261   2.768  10.386 -0.6271 -0.3425 -0.4052
  562MOL0     C74104   5.390   2.906  10.670 -0.6889  0.3270 -0.1855
  562MOL0     C74105   5.524   2.901  10.620 -0.3848 -0.7143 -0.2262
  562MOL0     C74106   5.940   2.782  10.530 -0.6482 -0.8656 -0.1259
  562MOL0     C74107   5.978   2.671  10.453 -0.1410 -0.2350 -0.0695
  562MOL0     C74108   6.106   2.636  10.428 -0.1978  0.5072 -0.3278
  562MOL0     C74109   6.206   2.711  10.486 -0.3643  0.0743  0.0373
  562MOL0     O74110   6.333   2.671  10.454  0.0675  0.0016 -0.5995
  562MOL0     C74111   6.460   2.746  10.476 -0.1859 -0.1459 -0.0554
  562MOL0     C74112   6.491   2.801  10.339  0.3582  0.3568 -0.2534
  562MOL0     C74113   6.562   2.704  10.237  0.3480 -0.1534 -1.2446
  562MOL0     C74114   6.457   2.653  10.139  0.5440 -0.0239 -0.6598
  562MOL0     C74115   6.431   2.733  10.015  1.4386 -0.2068 -0.3654
  562MOL0     C74116   6.410   2.784   9.913  0.1623  0.5073  0.3305
  562MOL0     C74117   6.173   2.828  10.556  0.8507  0.7291  0.4352
  562MOL0     C74118   6.042   2.855  10.590  0.3099  0.3155  1.1638
  562MOL0     H74119   5.698   2.887  10.922  0.3856 -1.7690 -0.3206
  562MOL0     H74120   5.466   2.886  11.004  1.5404  1.2550  0.8178
  562MOL0     H74121   5.139   2.919  11.016 -1.5808  2.9202 -4.0362
  562MOL0     H74122   5.258   2.796  11.012  1.0097  0.5653 -1.9139
  562MOL0     H74123   5.052   2.693  10.983 -2.0714  1.3564 -0.4220
  562MOL0     H74124   5.141   2.682  10.823  3.8496  1.8750 -1.0370
  562MOL0     H74125   4.985   2.876  10.753  1.3528  0.2145  0.8392
  562MOL0     H74126   4.908   2.851  10.912 -0.2272  1.7656  0.5754
  562MOL0     H74127   4.936   2.659  10.677  1.1262 -0.3545  0.9420
  562MOL0     H74128   4.857   2.606  10.840 -3.4561  1.4166  1.2500
  562MOL0     H74129   4.769   2.848  10.707 -0.7419 -0.0761  1.2600
  562MOL0     H74130   4.701   2.765  10.842 -0.1463 -0.1873  0.2441
  562MOL0     H74131   4.627   2.565  10.694 -3.1535  0.2784 -0.2521
  562MOL0     H74132   4.720   2.633  10.560 -1.7404  0.2598  0.2498
  562MOL0     H74133   4.459   2.760  10.688  1.4828 -0.0127  2.9223
  562MOL0     H74134   4.562   2.835  10.559  0.6673  0.1671  1.3663
  562MOL0     H74135   4.451   2.549  10.537  0.4615  0.7103  1.7080
  562MOL0     H74136   4.518   2.655  10.406 -0.5387  1.9671 -0.1250
  562MOL0     H74137   4.258   2.665  10.700  1.6274 -1.1279 -0.8824
  562MOL0     H74138   4.004   2.896  10.663 -2.4340  1.3029 -3.7954
  562MOL0     H74139   4.010   2.713  10.722  1.7069  0.5340  0.3355
  562MOL0     H74140   3.873   2.809  10.470  2.9414 -0.0770 -0.4895
  562MOL0     H74141   3.791   2.816  10.642  1.0893 -0.1762  0.8991
  562MOL0     H74142   3.889   2.589  10.480  0.7479  3.9661 -1.4608
  562MOL0     H74143   3.826   2.568  10.643 -0.5453  1.0191  0.8812
  562MOL0     H74144   3.659   2.515  10.456  0.5489 -0.4217  1.8421
  562MOL0     H74145   3.686   2.678  10.390  1.7811 -1.0578 -0.1705
  562MOL0     H74146   3.476   2.614  10.317 -1.3604  3.1275 -2.9779
  562MOL0     H74147   3.249   2.607  10.245 -0.9698  2.2160 -0.6539
  562MOL0     H74148   2.832   2.941  10.338  2.0480 -1.5002  1.0429
  562MOL0     H74149   2.603   2.940  10.243 -0.9066 -1.1902 -1.6762
  562MOL0     H74150   2.297   2.658  10.428 -0.8883  1.7867  0.2623
  562MOL0     H74151   2.330   2.630  10.258  0.7980 -0.2229  0.9949
  562MOL0     H74152   2.175   2.817  10.198  0.8756  1.7879  0.3177
  562MOL0     H74153   2.154   2.876  10.364 -4.8275 -1.0039  0.5793
  562MOL0     H74154   2.088   2.657  10.438 -1.5414 -0.0860  0.8264
  562MOL0     H74155   2.088   2.609  10.263  0.7053  0.9310 -0.8429
  562MOL0     H74156   1.919   2.811  10.416 -0.6716  0.6678 -0.4114
  562MOL0     H74157   1.921   2.811  10.244 -3.4933  0.3549  1.1424
  562MOL0     H74158   1.862   2.563  10.404 -2.1833  1.0712  0.3607
  562MOL0     H74159   1.822   2.586  10.232  0.5458 -1.7094 -0.4459
  562MOL0     H74160   1.633   2.741  10.307  1.7408  3.1067  1.3280
  562MOL0     H74161   1.708   2.737  10.458 -0.3930 -0.6941  0.6137
  562MOL0     H74162   1.661   2.492  10.488  0.1052 -0.8797  0.7070
  562MOL0     H74163   1.518   2.578  10.456  2.6399 -0.9672  4.1491
  562MOL0     H74164   1.659   2.376  10.282 -0.2846 -0.1000  1.4814
  562MOL0     H74165   1.592   2.520  10.194  0.9286  0.2720 -0.1005
  562MOL0     H74166   2.509   2.584  10.428 -1.9420  1.9368 -1.2023
  562MOL0     H74167   2.739   2.560  10.511 -0.9392  0.2370 -0.8882
  562MOL0     H74168   3.123   2.734  10.638 -0.4117  1.6137 -0.4100
  562MOL0     H74169   3.360   2.732  10.701 -0.7622 -2.4428 -0.0225
  562MOL0     H74170   5.300   2.918  10.610 -1.6102  1.7872  1.4045
  562MOL0     H74171   5.527   2.896  10.512  2.9372  0.2459 -0.2901
  562MOL0     H74172   5.903   2.612  10.401 -1.2714 -0.4091  1.6800
  562MOL0     H74173   6.123   2.566  10.346 -1.2707  0.5986 -0.6364
  562MOL0     H74174   6.534   2.680  10.523  0.3215  0.6201  0.2428
  562MOL0     H74175   6.441   2.828  10.546  1.7789 -1.5352  2.2703
  562MOL0     H74176   6.396   2.841  10.302  1.3151 -0.2442 -3.6494
  562MOL0     H74177   6.567   2.873  10.370 -0.2190  0.5716  0.7186
  562MOL0     H74178   6.601   2.615  10.286 -2.3542  0.2579  1.9464
  562MOL0     H74179   6.643   2.759  10.188  0.0706  1.0606 -0.3569
  562MOL0     H74180   6.469   2.548  10.110 -2.0995 -0.0208 -2.0820
  562MOL0     H74181   6.363   2.656  10.195  0.4593 -3.1558 -0.4442
  562MOL0     H74182   6.373   2.841   9.831  0.9904 -0.4661 -0.7479
  562MOL0     H74183   6.247   2.903  10.580  3.4365 -1.5850  0.2744
  562MOL0     H74184   6.007   2.944  10.641  0.8408  3.1479 -2.9027
  563MOL0     O74185   6.032   6.800  10.106 -0.5951 -0.3322 -0.6540
  563MOL0     C74186   6.067   6.724  10.021 -0.0100 -0.4667 -0.0031
  563MOL0     O74187   6.002   6.689   9.919 -0.0980  0.2607 -0.2388
  563MOL0     C74188   5.864   6.719   9.900 -0.3576 -0.3123  0.0758
  563MOL0     C74189   5.787   6.818   9.957 -0.6135 -0.0870  0.5070
  563MOL0     C74190   5.649   6.817   9.938 -0.0144  0.1454 -1.0225
  563MOL0     C74191   5.588   6.703   9.883 -0.0829  0.2754  0.5602
  563MOL0     O74192   5.453   6.704   9.854 -0.3865  0.1162  0.3617
  563MOL0     C74193   5.390   6.830   9.842 -0.7405  0.6526  0.2002
  563MOL0     C74194   5.249   6.811   9.787  0.2246  0.0625  0.3259
  563MOL0     C74195   5.167   6.725   9.887 -0.1316 -0.2820  0.9509
  563MOL0     C74196   5.117   6.801  10.013  0.3953  0.4343  0.3937
  563MOL0     C74197   4.965   6.796  10.038  0.1429 -0.3171  0.2897
  563MOL0     C74198   4.919   6.889  10.139  0.5415  0.2820  0.0542
  563MOL0     C74199   4.764   6.893  10.148  0.3119 -0.0106 -0.8837
  563MOL0     C74200   4.696   6.787  10.232 -0.1911 -0.4723 -0.1037
  563MOL0     N74201   4.754   6.769  10.363  0.1303  0.6058 -0.1976
  563MOL0     C74202   4.846   6.672  10.399 -0.5684  0.6699 -0.0906
  563MOL0     C74203   4.877   6.701  10.532  0.3193 -0.5159 -0.4425
  563MOL0     C74204   4.980   6.635  10.622  0.6073 -0.2390 -0.4057
  563MOL0     C74205   4.963   6.678  10.766 -0.1492  0.6698 -0.0955
  563MOL0     C74206   5.043   6.804  10.814 -0.7463  0.3874  0.3025
  563MOL0     C74207   5.200   6.785  10.798  0.4776 -1.3161 -0.3028
  563MOL0     O74208   5.246   6.686  10.892 -0.5031 -0.0414  0.2980
  563MOL0     C74209   5.379   6.669  10.908 -0.4798  0.2269 -0.2665
  563MOL0     C74210   5.485   6.705  10.825 -0.0648 -0.4764 -0.0241
  563MOL0     C74211   5.616   6.679  10.856 -0.6877 -0.1122  0.0390
  563MOL0     C74212   5.652   6.599  10.965 -0.3999  0.0354 -0.2640
  563MOL0     C74213   5.792   6.594  11.001  0.4355  0.3781 -0.3163
  563MOL0     O74214   5.880   6.679  10.935 -1.0873 -0.3545  0.4528
  563MOL0     C74215   6.012   6.649  10.945  0.1012  0.4077  0.5827
  563MOL0     C74216   6.087   6.717  11.032 -0.6435 -1.1617 -0.5431
  563MOL0     C74217   6.228   6.708  11.032  1.0149 -0.7584 -0.1171
  563MOL0     C74218   6.298   6.633  10.938 -0.6970  0.2788  0.0595
  563MOL0     O74219   6.435   6.618  10.928 -0.4032  0.2888  0.1157
  563MOL0     C74220   6.505   6.684  11.030 -0.4408 -0.2285  0.8759
  563MOL0     C74221   6.656   6.669  11.011 -0.1420  0.1520 -0.5685
  563MOL0     C74222   6.692   6.523  10.982  0.4368 -0.5536 -0.8081
  563MOL0     C74223   6.840   6.492  11.004  0.7783 -0.6697 -0.5279
  563MOL0     C74224   6.923   6.567  10.897  0.1454 -0.3773  0.2600
  563MOL0     C74225   7.069   6.562  10.927  0.6651  0.9116  0.1618
  563MOL0     C74226   7.146   6.676  10.857  0.4670  0.5179 -0.0361
  563MOL0     C74227   7.298   6.661  10.869  0.3605  0.2498 -0.2978
  563MOL0    Cl74228   7.336   6.629  11.038 -0.1548  0.1846 -0.3292
  563MOL0     C74229   6.214   6.556  10.853 -0.4508  0.0230  0.0457
  563MOL0     C74230   6.073   6.556  10.857  0.7409 -0.9204 -0.2572
  563MOL0     O74231   5.826   6.499  11.073  0.3683  0.4536  0.0534
  563MOL0     C74232   5.550   6.561  11.053 -0.8526  0.3967 -0.0613
  563MOL0     C74233   5.417   6.597  11.024 -0.4969  0.8776 -1.1086
  563MOL0     N74234   4.799   6.816  10.569  0.1130  0.3577 -0.0932
  563MOL0     N74235   4.729   6.853  10.471  0.0354 -0.3426 -0.8918
  563MOL0     C74236   5.663   6.609   9.822  0.9561  0.2509 -0.4532
  563MOL0     C74237   5.799   6.621   9.833  0.5078 -0.8368 -0.3595
  563MOL0     C74238   6.200   6.670  10.028  0.3531  0.4319  0.2507
  563MOL0     C74239   6.244   6.576   9.923 -0.6050  0.1700 -0.7114
  563MOL0     C74240   6.375   6.527   9.927  0.1294 -0.1586 -0.5556
  563MOL0     C74241   6.460   6.554  10.034 -0.7865 -1.0320  0.6124
  563MOL0     O74242   6.585   6.515  10.042 -0.6266 -0.3464 -0.3526
  563MOL0     C74243   6.627   6.404   9.962  0.0590  0.8752 -0.1359
  563MOL0     C74244   6.778   6.399   9.975 -0.0311  0.1432 -0.5859
  563MOL0     C74245   6.815   6.406  10.132  0.1428 -0.3311 -0.0076
  563MOL0     C74246   6.961   6.371  10.175  0.7927  1.4008  0.3947
  563MOL0     C74247   7.069   6.438  10.098 -0.2263  1.0032  0.4926
  563MOL0     C74248   7.160   6.497  10.052 -0.0053 -0.1596 -0.1571
  563MOL0     C74249   6.417   6.645  10.127 -0.0511  0.3482 -0.8577
  563MOL0     C74250   6.293   6.707  10.133 -0.3637 -0.1113 -0.2834
  563MOL0     H74251   5.819   6.899  10.022 -3.0711 -1.4572  3.7100
  563MOL0     H74252   5.598   6.903   9.980  1.9979  0.0725  1.8929
  563MOL0     H74253   5.437   6.908   9.781  0.6273  0.8905  1.4974
  563MOL0     H74254   5.384   6.869   9.944 -1.2996 -0.3687  0.5718
  563MOL0     H74255   5.261   6.764   9.689 -0.4881 -0.2734  0.3959
  563MOL0     H74256   5.199   6.904   9.759  0.7297  0.2538  0.0409
  563MOL0     H74257   5.215   6.630   9.909  0.9937 -0.1354 -0.7074
  563MOL0     H74258   5.078   6.691   9.832  0.3137  1.6231 -1.1135
  563MOL0     H74259   5.170   6.768  10.103 -1.1043  1.0740  1.5654
  563MOL0     H74260   5.145   6.907  10.007  1.0812  0.4078  2.4108
  563MOL0     H74261   4.924   6.696  10.050 -3.3256  0.3366 -3.7559
  563MOL0     H74262   4.927   6.822   9.939  0.4533  1.7474  0.6592
  563MOL0     H74263   4.965   6.986  10.118 -0.4818  0.8887  0.5291
  563MOL0     H74264   4.945   6.850  10.238 -4.9431 -2.8292  0.7057
  563MOL0     H74265   4.735   6.988  10.194 -1.0587 -1.2482  0.9249
  563MOL0     H74266   4.721   6.887  10.048 -1.5427  1.7030 -0.2420
  563MOL0     H74267   4.694   6.693  10.175 -0.9761  1.3504 -3.3581
  563MOL0     H74268   4.593   6.821  10.250 -0.3989 -1.4693  0.6293
  563MOL0     H74269   4.889   6.585  10.350 -3.7977 -0.7356 -0.6754
  563MOL0     H74270   5.079   6.656  10.579  1.1392  1.1837  1.3872
  563MOL0     H74271   4.968   6.528  10.607  0.6325 -0.5110  1.3666
  563MOL0     H74272   4.990   6.601  10.839 -4.3037  1.0778  2.2155
  563MOL0     H74273   4.858   6.695  10.795  0.2873  3.5199  0.1017
  563MOL0     H74274   5.008   6.891  10.758  1.9231 -0.0879 -2.3830
  563MOL0     H74275   5.019   6.831  10.917 -0.3613 -0.9444  0.7602
  563MOL0     H74276   5.264   6.873  10.812  3.8628 -3.6640  0.2398
  563MOL0     H74277   5.215   6.767  10.691  1.5835 -0.9397 -0.2231
  563MOL0     H74278   5.472   6.769  10.739  1.3328 -0.5422 -0.3013
  563MOL0     H74279   5.694   6.714  10.789 -2.3079  0.7140 -1.5156
  563MOL0     H74280   6.054   6.795  11.100  0.5069  0.0749 -1.3426
  563MOL0     H74281   6.282   6.765  11.107  1.4044  0.4506 -1.2901
  563MOL0     H74282   6.472   6.646  11.128  1.4340 -1.1802  1.1862
  563MOL0     H74283   6.489   6.792  11.022 -1.0992 -0.4524 -1.5511
  563MOL0     H74284   6.718   6.698  11.097  1.4797 -1.2903 -1.1836
  563MOL0     H74285   6.683   6.729  10.924  0.1626  0.3390 -0.3470
  563MOL0     H74286   6.659   6.481  10.887 -2.2677 -2.1009  0.7150
  563MOL0     H74287   6.629   6.469  11.053 -2.9774  3.6434 -0.2325
  563MOL0     H74288   6.863   6.519  11.107 -0.8405  1.3325 -0.6288
  563MOL0     H74289   6.855   6.384  10.996  1.8325 -0.4622 -1.7003
  563MOL0     H74290   6.896   6.672  10.912  0.1362 -0.5428  1.4704
  563MOL0     H74291   6.914   6.537  10.792 -0.4900  1.2975 -0.2095
  563MOL0     H74292   7.116   6.465  10.905 -0.4795  0.5551 -0.8345
  563MOL0     H74293   7.078   6.568  11.036  0.4540 -3.7448  0.6337
  563MOL0     H74294   7.134   6.674  10.748 -1.5670  1.3039  0.1358
  563MOL0     H74295   7.125   6.772  10.903  4.1161  1.4432  0.0529
  563MOL0     H74296   7.366   6.733  10.822  2.5157 -1.7650 -0.4315
  563MOL0     H74297   7.315   6.561  10.828  3.1776  0.8931 -0.8964
  563MOL0     H74298   6.276   6.494  10.789 -2.5753  0.1273 -2.3041
  563MOL0     H74299   6.011   6.515  10.778 -2.0488  1.2967  0.6207
  563MOL0     H74300   5.573   6.511  11.147 -3.2234  1.4920  1.2109
  563MOL0     H74301   5.348   6.579  11.106  0.6875 -0.3654 -0.3479
  563MOL0     H74302   5.605   6.526   9.783 -0.9923 -0.0925  2.8052
  563MOL0     H74303   5.864   6.545   9.790  0.4513 -0.4262 -1.1851
  563MOL0     H74304   6.178   6.538   9.847 -0.4525  0.5500 -1.0383
  563MOL0     H74305   6.400   6.451   9.855 -1.2091 -1.4178  0.2551
  563MOL0     H74306   6.598   6.398   9.857 -0.6491 -0.6916  0.1139
  563MOL0     H74307   6.583   6.312  10.003 -2.3809  0.6429 -2.9606
  563MOL0     H74308   6.814   6.310   9.923  2.2098  0.6240  0.0360
  563MOL0     H74309   6.827   6.486   9.930  1.4263 -0.5655 -0.4434
  563MOL0     H74310   6.741   6.347  10.187 -0.4931 -0.1636 -0.6739
  563MOL0     H74311   6.807   6.509  10.169  1.4520 -0.8824  1.9650
  563MOL0     H74312   6.965   6.388  10.284  0.4177  0.9877  0.4772
  563MOL0     H74313   6.962   6.263  10.162 -0.7059  1.6802 -2.9688
  563MOL0     H74314   7.248   6.551  10.025  0.5867 -1.9119 -2.0587
  563MOL0     H74315   6.490   6.681  10.199  1.1134 -1.0793 -1.2563
  563MOL0     H74316   6.253   6.770  10.212 -0.6244  1.1629 -1.3932
  564MOL0     O74317   1.398   5.232   2.871  0.6123  0.1666  0.2066
  564MOL0     C74318   1.359   5.261   2.763 -0.2031 -0.0606  0.8336
  564MOL0     O74319   1.435   5.280   2.643 -0.2456 -0.0677 -0.7298
  564MOL0     C74320   1.569   5.268   2.660 -0.9340  1.0445  0.0909
  564MOL0     C74321   1.646   5.327   2.763 -0.2330 -0.2668 -1.0780
  564MOL0     C74322   1.779   5.300   2.770 -0.4086  0.6146 -0.4758
  564MOL0     C74323   1.840   5.209   2.687 -0.4660  0.0319 -0.3699
  564MOL0     O74324   1.980   5.198   2.707  0.3680 -0.6384 -0.6268
  564MOL0     C74325   2.059   5.109   2.615  0.0574 -1.1031 -0.6545
  564MOL0     C74326   2.204   5.126   2.621  0.1625  0.3696  0.5030
  564MOL0     C74327   2.258   5.025   2.523 -0.4625  0.0082  0.2233
  564MOL0     C74328   2.411   5.028   2.547  0.3106 -0.4384  0.5738
  564MOL0     C74329   2.493   4.941   2.461  0.3370  0.5136 -1.0633
  564MOL0     C74330   2.515   4.802   2.524  0.3065 -0.3884  0.5739
  564MOL0     C74331   2.613   4.712   2.448  0.7258  0.0294 -0.0563
  564MOL0     C74332   2.567   4.695   2.302  0.6768 -0.4958 -0.3947
  564MOL0     N74333   2.434   4.639   2.296  0.1505  0.5195  0.5169
  564MOL0     C74334   2.391   4.517   2.325  0.4397  1.5658 -0.9277
  564MOL0     C74335   2.259   4.509   2.279 -0.5812 -0.6611 -0.6168
  564MOL0     C74336   2.192   4.378   2.275  0.3680 -0.6245 -0.4805
  564MOL0     C74337   2.077   4.386   2.171 -0.5200 -0.3412  0.5719
  564MOL0     C74338   1.945   4.436   2.229 -0.0797  0.7506 -0.5615
  564MOL0     C74339   1.830   4.449   2.122 -0.2806  0.7843 -0.4301
  564MOL0     O74340   1.718   4.510   2.182  0.5355  0.4890  0.2929
  564MOL0     C74341   1.610   4.553   2.116  0.9538  0.1279  0.2262
  564MOL0     C74342   1.593   4.568   1.978 -0.2158  0.4646  1.1373
  564MOL0     C74343   1.474   4.610   1.921  0.7153  0.6380 -0.3424
  564MOL0     C74344   1.376   4.676   1.999 -0.4262  0.0119 -0.1921
  564MOL0     C74345   1.256   4.747   1.944  0.2399  1.2227  0.1733
  564MOL0     O74346   1.262   4.759   1.808  0.3351  0.3110  0.3738
  564MOL0     C74347   1.160   4.823   1.746 -0.2287 -0.3624 -0.9316
  564MOL0     C74348   1.043   4.755   1.717  0.4343 -0.3247  0.3126
  564MOL0     C74349   0.921   4.816   1.655  0.3932  0.2054 -0.9455
  564MOL0     C74350   0.926   4.949   1.631  0.1297 -0.4924 -0.4582
  564MOL0     O74351   0.821   5.022   1.578 -0.0783  0.5922  0.1057
  564MOL0     C74352   0.695   4.956   1.573  0.7200  0.0767  0.2936
  564MOL0     C74353   0.583   5.056   1.544 -0.4675  0.1574  0.2641
  564MOL0     C74354   0.448   4.990   1.545 -0.0914  0.3619  0.2702
  564MOL0     C74355   0.419   4.889   1.431 -0.2373 -0.5763  0.1355
  564MOL0     C74356   0.271   4.852   1.403 -0.2983  0.7213  0.1574
  564MOL0     C74357   0.196   4.965   1.336  0.5490 -0.3054  0.0395
  564MOL0     C74358   0.064   4.920   1.280 -0.7749 -0.2327  0.1492
  564MOL0     C74359  -0.035   4.878   1.380 -0.2752 -0.6764 -0.4246
  564MOL0    Cl74360  -0.204   4.896   1.328 -0.1454  0.2703  0.1467
  564MOL0     C74361   1.036   5.021   1.669  0.5441 -0.6413 -0.3130
  564MOL0     C74362   1.155   4.964   1.727  0.2897  0.9473  0.3006
  564MOL0     O74363   1.161   4.785   2.015  0.3181  0.1524  0.0943
  564MOL0     C74364   1.399   4.677   2.137 -1.2191 -0.1606 -0.2767
  564MOL0     C74365   1.517   4.624   2.190  0.4147  0.1593 -0.0014
  564MOL0     N74366   2.224   4.638   2.228  0.7166  0.2342 -0.6519
  564MOL0     N74367   2.333   4.713   2.243  0.9765  0.4079  0.7268
  564MOL0     C74368   1.772   5.147   2.592 -0.4735  1.7024  0.1719
  564MOL0     C74369   1.635   5.173   2.582  0.6488  0.9473  0.8168
  564MOL0     C74370   1.218   5.281   2.756 -0.7719 -0.4132 -0.4140
  564MOL0     C74371   1.166   5.316   2.630  0.0909 -0.0212 -0.6293
  564MOL0     C74372   1.034   5.334   2.614 -0.1058  0.0771  0.1184
  564MOL0     C74373   0.946   5.322   2.726  0.7999 -0.1228  0.3767
  564MOL0     O74374   0.808   5.351   2.717 -0.3850 -0.7827  0.0799
  564MOL0     C74375   0.732   5.257   2.641 -0.6962  0.1283 -0.3520
  564MOL0     C74376   0.614   5.200   2.725 -0.6998  0.4523 -0.6043
  564MOL0     C74377   0.513   5.310   2.782 -0.5741 -0.4163  1.0035
  564MOL0     C74378   0.415   5.268   2.894 -0.9205 -0.1549 -0.1029
  564MOL0     C74379   0.324   5.382   2.907  0.7519  0.2248  0.0557
  564MOL0     C74380   0.257   5.485   2.915  0.7035  0.1200  0.3487
  564MOL0     C74381   0.997   5.286   2.850  0.9825 -0.3091 -0.2151
  564MOL0     C74382   1.131   5.277   2.869  0.7722 -0.1671  0.2097
  564MOL0     H74383   1.597   5.396   2.832  3.1437  1.5740 -0.2962
  564MOL0     H74384   1.829   5.353   2.850  0.0040  0.5244 -0.6713
  564MOL0     H74385   2.036   5.130   2.510  0.8886 -0.9275 -0.8016
  564MOL0     H74386   2.031   5.004   2.631  0.7447 -1.4732 -1.7912
  564MOL0     H74387   2.241   5.113   2.723  1.3617  0.1240  0.0483
  564MOL0     H74388   2.229   5.226   2.584  1.2900 -0.0009  0.2073
  564MOL0     H74389   2.234   5.049   2.419  1.1706 -0.4559 -0.2978
  564MOL0     H74390   2.226   4.922   2.538 -0.9102  0.0987 -0.0943
  564MOL0     H74391   2.438   5.133   2.533  1.3637 -0.0756  4.1359
  564MOL0     H74392   2.438   5.002   2.650 -0.7180 -2.0616  0.4639
  564MOL0     H74393   2.590   4.993   2.464  0.7906 -0.0883  4.4521
  564MOL0     H74394   2.452   4.938   2.359  3.1487  0.4836 -2.2911
  564MOL0     H74395   2.427   4.738   2.531  1.6543 -2.7243 -2.0998
  564MOL0     H74396   2.560   4.807   2.624 -0.4465 -3.6900  1.1966
  564MOL0     H74397   2.713   4.754   2.446  0.7270  0.2275  2.0378
  564MOL0     H74398   2.605   4.616   2.501 -0.1753  0.5530  0.7705
  564MOL0     H74399   2.631   4.629   2.243  0.9559 -0.6834  0.1153
  564MOL0     H74400   2.584   4.796   2.263  0.6091  0.1405  1.1554
  564MOL0     H74401   2.451   4.439   2.372  1.7583  2.5739 -0.8863
  564MOL0     H74402   2.156   4.348   2.374 -1.5037  0.8970 -0.6309
  564MOL0     H74403   2.261   4.300   2.242  1.4942  1.0687 -2.3403
  564MOL0     H74404   2.068   4.285   2.131 -4.0970  0.8401 -2.0811
  564MOL0     H74405   2.105   4.453   2.088 -1.8441  0.5670  0.8214
  564MOL0     H74406   1.908   4.376   2.313 -0.1218  0.2699 -0.9184
  564MOL0     H74407   1.961   4.536   2.270 -1.1310  1.1821 -1.1574
  564MOL0     H74408   1.813   4.348   2.084 -0.2396  0.0297  1.4481
  564MOL0     H74409   1.864   4.513   2.040  0.7108  0.8998  0.0539
  564MOL0     H74410   1.675   4.537   1.914  1.2750  3.2617  1.5409
  564MOL0     H74411   1.471   4.611   1.813  0.6909 -0.0297 -0.3542
  564MOL0     H74412   1.035   4.648   1.730 -2.9689 -0.3349 -0.7568
  564MOL0     H74413   0.841   4.748   1.626  2.8458 -3.4213  0.1045
  564MOL0     H74414   0.663   4.907   1.665 -0.2670  0.4509  0.1657
  564MOL0     H74415   0.699   4.880   1.495 -1.8910  0.3402 -0.1931
  564MOL0     H74416   0.598   5.094   1.443 -2.6483  0.7296  0.1226
  564MOL0     H74417   0.591   5.136   1.619  3.5607 -1.6591  2.1161
  564MOL0     H74418   0.366   5.062   1.537  0.3434  0.6615 -2.2840
  564MOL0     H74419   0.440   4.938   1.640  0.4091  0.7805  0.5460
  564MOL0     H74420   0.462   4.936   1.342 -3.5804  1.5021 -0.5682
  564MOL0     H74421   0.468   4.796   1.461 -1.3402 -0.9881  0.7207
  564MOL0     H74422   0.218   4.825   1.495 -2.6016  2.0540 -0.6917
  564MOL0     H74423   0.271   4.771   1.330 -1.4891 -0.2026  1.1311
  564MOL0     H74424   0.254   5.009   1.255  1.3364  1.3644  1.4722
  564MOL0     H74425   0.180   5.051   1.401 -0.0925  2.2306 -3.1807
  564MOL0     H74426   0.027   5.005   1.221  1.5398  0.6348 -0.1759
  564MOL0     H74427   0.075   4.840   1.206 -2.7606 -0.5393  0.1303
  564MOL0     H74428  -0.025   4.929   1.476 -0.4226 -2.1391  0.4031
  564MOL0     H74429  -0.019   4.774   1.410 -0.7486 -0.2821  1.3468
  564MOL0     H74430   1.029   5.129   1.663 -5.0409 -0.6644  0.5509
  564MOL0     H74431   1.237   5.028   1.757 -1.3203  2.9975  0.6203
  564MOL0     H74432   1.335   4.728   2.208  0.5974 -0.4017  1.6340
  564MOL0     H74433   1.536   4.624   2.297  0.7738 -0.4853 -0.0590
  564MOL0     H74434   1.816   5.070   2.529 -1.0309  1.6632 -0.1742
  564MOL0     H74435   1.581   5.126   2.500  3.7020 -1.2527 -0.1161
  564MOL0     H74436   1.218   5.326   2.536  1.7271 -0.6093  0.1771
  564MOL0     H74437   0.998   5.367   2.517 -2.0603  1.4092  1.2385
  564MOL0     H74438   0.798   5.184   2.593  1.3403 -0.9767  3.6740
  564MOL0     H74439   0.686   5.312   2.559 -1.8164 -0.0814  0.1201
  564MOL0     H74440   0.562   5.125   2.666  1.9721 -1.4852 -0.6974
  564MOL0     H74441   0.656   5.152   2.815  1.3325 -2.0079 -2.6941
  564MOL0     H74442   0.459   5.331   2.690  1.3148 -1.9260 -0.5280
  564MOL0     H74443   0.565   5.402   2.810  0.0426 -0.1117 -1.0011
  564MOL0     H74444   0.364   5.174   2.874 -1.1568 -0.0826  0.1504
  564MOL0     H74445   0.471   5.251   2.986  1.3592  0.6803 -1.2654
  564MOL0     H74446   0.227   5.586   2.934  0.5616  0.7447 -2.6685
  564MOL0     H74447   0.933   5.276   2.937  0.1580 -0.7897 -0.8618
  564MOL0     H74448   1.176   5.267   2.968  1.0381  0.5589  0.1685
  565MOL0     O74449  10.943   2.706   7.471 -0.9825  0.3267  0.1961
  565MOL0     C74450  10.989   2.632   7.382  0.1846  0.4808 -0.7806
  565MOL0     O74451  10.914   2.551   7.292 -0.9226 -0.5647 -1.0174
  565MOL0     C74452  10.788   2.527   7.331 -0.5430 -0.0729  0.7787
  565MOL0     C74453  10.753   2.478   7.458  0.1089  1.0570  0.1699
  565MOL0     C74454  10.618   2.458   7.500 -0.9364 -0.3194  0.3973
  565MOL0     C74455  10.522   2.471   7.401 -0.3637  1.3278 -0.2573
  565MOL0     O74456  10.400   2.422   7.447  0.0511 -0.4986  0.2939
  565MOL0     C74457  10.305   2.413   7.339 -0.1857  0.1653  0.0306
  565MOL0     C74458  10.163   2.376   7.387  0.3130 -0.1138 -0.3832
  565MOL0     C74459  10.143   2.237   7.448 -0.3187  0.7498  0.5920
  565MOL0     C74460  10.005   2.199   7.488  0.4695 -0.4469  0.2972
  565MOL0     C74461   9.941   2.281   7.603 -0.2975 -1.0470  0.5178
  565MOL0     C74462   9.797   2.230   7.654 -0.0757 -0.4834 -0.6163
  565MOL0     C74463   9.749   2.308   7.781 -0.1756 -0.1705 -0.4257
  565MOL0     C74464   9.799   2.240   7.912  0.0906  0.1464  0.6914
  565MOL0     N74465   9.715   2.276   8.025  0.3906  0.0558 -0.2858
  565MOL0     C74466   9.706   2.396   8.086 -0.3954 -0.1914  0.0973
  565MOL0     C74467   9.631   2.380   8.192 -0.1805  1.0162 -0.9380
  565MOL0     C74468   9.595   2.495   8.298 -0.0324  0.4694  0.8241
  565MOL0     C74469   9.462   2.568   8.253 -0.6194 -0.5935 -0.0281
  565MOL0     C74470   9.400   2.626   8.376 -0.1059  0.1102  0.0057
  565MOL0     C74471   9.279   2.712   8.336 -1.0035 -0.5535  0.0634
  565MOL0     O74472   9.179   2.710   8.441  0.7360  0.1193 -0.3221
  565MOL0     C74473   9.061   2.782   8.429 -0.2713 -0.4464  0.4469
  565MOL0     C74474   8.963   2.730   8.521  0.2385 -0.5639 -0.2841
  565MOL0     C74475   8.832   2.781   8.507 -0.6131  0.1862  0.7197
  565MOL0     C74476   8.798   2.857   8.391 -0.1729  0.1539 -0.6990
  565MOL0     C74477   8.658   2.892   8.375 -0.6296  0.2681 -0.2834
  565MOL0     O74478   8.588   2.911   8.493 -0.3825  0.1177 -0.2365
  565MOL0     C74479   8.456   2.936   8.490  1.1048 -0.2966 -0.6548
  565MOL0     C74480   8.407   3.065   8.499  0.1693  0.6144  1.2497
  565MOL0     C74481   8.269   3.097   8.527  0.0478 -0.2074  1.0654
  565MOL0     C74482   8.177   2.991   8.528  0.9184 -0.3230  0.1717
  565MOL0     O74483   8.041   3.005   8.539  0.9468  0.7556 -0.3682
  565MOL0     C74484   7.985   3.116   8.621  1.4218  0.6986  0.5411
  565MOL0     C74485   7.829   3.089   8.617  0.7865  0.1165  0.1023
  565MOL0     C74486   7.740   3.215   8.596  0.6738  0.0153  0.4174
  565MOL0     C74487   7.595   3.181   8.585  0.5339 -0.6227 -0.1873
  565MOL0     C74488   7.502   3.307   8.568  0.9220  0.6227 -0.2943
  565MOL0     C74489   7.358   3.256   8.590  0.0302 -0.4949  0.6495
  565MOL0     C74490   7.264   3.376   8.585  0.6151  0.3292  0.0738
  565MOL0     C74491   7.121   3.325   8.637  0.1038  0.6756  0.5163
  565MOL0    Cl74492   7.069   3.173   8.551  0.3654 -0.1257  0.3239
  565MOL0     C74493   8.227   2.860   8.509 -0.2866 -0.2645 -0.2292
  565MOL0     C74494   8.359   2.832   8.489  1.1155  0.0257  0.4799
  565MOL0     O74495   8.610   2.902   8.262 -0.3875 -0.4432 -0.5900
  565MOL0     C74496   8.890   2.899   8.301  0.4781  0.3524  0.4414
  565MOL0     C74497   9.028   2.866   8.316  0.3255 -0.1324  0.4956
  565MOL0     N74498   9.581   2.254   8.192 -0.5559  0.2438  0.1870
  565MOL0     N74499   9.629   2.187   8.095 -0.2586 -0.0660  0.0847
  565MOL0     C74500  10.551   2.523   7.270  0.3322  0.1975  0.0920
  565MOL0     C74501  10.686   2.554   7.237 -0.5582  0.1402 -0.9479
  565MOL0     C74502  11.135   2.640   7.352 -0.3199  0.1389  0.7587
  565MOL0     C74503  11.188   2.579   7.242  0.4633  0.2753 -0.5513
  565MOL0     C74504  11.325   2.580   7.221 -0.9039 -0.0041 -0.2614
  565MOL0     C74505  11.412   2.659   7.285  0.3999 -0.0266 -0.2550
  565MOL0     O74506  11.540   2.651   7.238  0.3982  0.8186 -0.5979
  565MOL0     C74507  11.633   2.754   7.269 -0.9206 -1.7041 -1.0292
  565MOL0     C74508  11.765   2.696   7.231 -0.2978 -0.2802  0.1443
  565MOL0     C74509  11.875   2.804   7.204  0.4483 -0.4973 -0.3850
  565MOL0     C74510  12.013   2.756   7.191  0.9622  0.5316  0.0690
  565MOL0     C74511  12.103   2.869   7.175  0.7458  0.4755  0.1212
  565MOL0     C74512  12.181   2.962   7.171 -0.6624  0.5813  0.8575
  565MOL0     C74513  11.364   2.734   7.398  0.4466 -0.0062 -0.9012
  565MOL0     C74514  11.226   2.714   7.431 -0.1189  0.3773 -0.1739
  565MOL0     H74515  10.825   2.449   7.533  0.5511 -0.0793 -0.6607
  565MOL0     H74516  10.586   2.435   7.601 -0.1792 -1.6381  0.3518
  565MOL0     H74517  10.339   2.341   7.264  0.1622  0.3024  0.0546
  565MOL0     H74518  10.292   2.510   7.291  0.8498  1.0660  1.4742
  565MOL0     H74519  10.086   2.389   7.310  1.0943  0.7259 -1.0343
  565MOL0     H74520  10.129   2.444   7.466 -0.3085  0.8204 -1.4101
  565MOL0     H74521  10.208   2.243   7.536 -0.0296 -1.0629  0.5500
  565MOL0     H74522  10.192   2.156   7.392  0.6914  0.6265  1.6149
  565MOL0     H74523   9.937   2.225   7.406 -0.0603 -1.4192  0.4149
  565MOL0     H74524   9.998   2.091   7.503  0.2097 -0.3027  1.3170
  565MOL0     H74525   9.931   2.384   7.567 -2.1777 -1.5137 -0.3977
  565MOL0     H74526  10.005   2.271   7.692 -1.4372 -0.5029  1.4281
  565MOL0     H74527   9.810   2.123   7.672  0.9856 -0.6845 -2.3012
  565MOL0     H74528   9.730   2.243   7.568  0.7711  0.5750 -1.1529
  565MOL0     H74529   9.783   2.412   7.770 -0.1458 -0.1350  0.0081
  565MOL0     H74530   9.640   2.318   7.789 -0.2975 -1.8225  0.2017
  565MOL0     H74531   9.903   2.272   7.925  0.3428 -1.0121  1.7777
  565MOL0     H74532   9.794   2.131   7.908 -0.2389  0.1479 -3.6810
  565MOL0     H74533   9.764   2.483   8.058 -0.7317  0.0110  0.0294
  565MOL0     H74534   9.675   2.570   8.301  0.9739 -0.4370 -1.3132
  565MOL0     H74535   9.587   2.442   8.393 -1.0571  0.5864  0.8172
  565MOL0     H74536   9.393   2.497   8.205 -0.5165  0.9440 -2.6554
  565MOL0     H74537   9.491   2.651   8.189  1.2406 -1.2427 -0.1085
  565MOL0     H74538   9.381   2.541   8.441  0.8922  0.4774  0.7953
  565MOL0     H74539   9.474   2.696   8.417  1.1949  1.8719 -4.6202
  565MOL0     H74540   9.237   2.662   8.248 -4.1519 -1.0044  1.6631
  565MOL0     H74541   9.303   2.816   8.312 -0.6194 -0.4988  0.6617
  565MOL0     H74542   8.988   2.668   8.607 -0.4139 -0.4746 -0.0232
  565MOL0     H74543   8.758   2.743   8.577 -1.2212  1.6406  0.9105
  565MOL0     H74544   8.478   3.146   8.483 -0.9480  1.3229 -0.4455
  565MOL0     H74545   8.237   3.201   8.525  1.3761  0.2214 -1.2130
  565MOL0     H74546   8.005   3.213   8.575 -1.1411  1.4332  0.8087
  565MOL0     H74547   8.018   3.108   8.724 -1.5584 -1.1372  1.5014
  565MOL0     H74548   7.809   3.042   8.714  1.7730  2.0160  1.2777
  565MOL0     H74549   7.804   3.012   8.544  2.7143 -0.9943  0.5294
  565MOL0     H74550   7.765   3.266   8.502 -1.2017  0.0879 -0.0982
  565MOL0     H74551   7.750   3.290   8.674 -1.3114  2.0609 -1.1550
  565MOL0     H74552   7.581   3.114   8.500 -0.5896  0.4716 -0.8965
  565MOL0     H74553   7.567   3.124   8.674 -0.3452 -1.0636 -0.7331
  565MOL0     H74554   7.497   3.341   8.464 -1.3895  3.5261  0.6329
  565MOL0     H74555   7.514   3.390   8.638  1.1738 -0.3251  0.8044
  565MOL0     H74556   7.351   3.205   8.686 -0.6209 -3.3037 -0.7955
  565MOL0     H74557   7.331   3.180   8.517  0.4944 -1.5579  1.5683
  565MOL0     H74558   7.301   3.457   8.649  1.7603 -0.6919  0.7693
  565MOL0     H74559   7.261   3.408   8.481 -2.2660 -0.6166 -0.2107
  565MOL0     H74560   7.037   3.395   8.636 -0.6676 -0.2021  1.5750
  565MOL0     H74561   7.115   3.294   8.741 -2.7908 -0.9321 -0.0194
  565MOL0     H74562   8.148   2.787   8.492  1.5792 -1.6778 -3.9229
  565MOL0     H74563   8.392   2.733   8.461  1.0050  0.2806 -0.6145
  565MOL0     H74564   8.850   2.964   8.224  1.6832  2.3369  1.3956
  565MOL0     H74565   9.107   2.911   8.257 -0.7842 -2.3824 -2.9954
  565MOL0     H74566  10.473   2.520   7.195  0.8313 -2.7790 -0.4144
  565MOL0     H74567  10.718   2.585   7.138 -0.6878 -0.2896 -1.1254
  565MOL0     H74568  11.123   2.513   7.186  0.5104 -0.0854 -0.1823
  565MOL0     H74569  11.354   2.519   7.136 -0.5180 -1.0872  0.6255
  565MOL0     H74570  11.644   2.772   7.377  1.5834 -1.3641 -1.2612
  565MOL0     H74571  11.616   2.843   7.208  0.9116 -1.3927 -1.1581
  565MOL0     H74572  11.791   2.621   7.306  2.2256 -0.4010 -0.7381
  565MOL0     H74573  11.748   2.643   7.136 -0.9293  0.5817 -0.2379
  565MOL0     H74574  11.859   2.878   7.283 -1.9198  1.8754 -2.8571
  565MOL0     H74575  11.839   2.866   7.121 -0.8724 -0.0532  0.4820
  565MOL0     H74576  12.036   2.683   7.269 -0.5435  0.0206  0.0771
  565MOL0     H74577  12.011   2.695   7.100  1.0836  0.0159  0.4089
  565MOL0     H74578  12.242   3.049   7.158 -1.5425  0.8957 -1.9715
  565MOL0     H74579  11.419   2.805   7.458 -1.9829  0.5792  0.8140
  565MOL0     H74580  11.182   2.766   7.515 -1.3584 -2.9322  1.4111
  566MOL0     O74581   0.298   7.498  10.092 -0.0482 -0.1660 -0.7969
  566MOL0     C74582   0.238   7.532   9.992  1.4670 -0.9548  0.4284
  566MOL0     O74583   0.105   7.520   9.977 -0.8816  0.4071  0.9724
  566MOL0     C74584   0.026   7.474  10.082  0.1438 -0.6068 -0.5344
  566MOL0     C74585  -0.086   7.555  10.129  0.5743  0.6495  1.1749
  566MOL0     C74586  -0.175   7.500  10.225 -0.3972 -0.2805 -0.6119
  566MOL0     C74587  -0.144   7.370  10.279  0.7437 -0.3908 -0.4081
  566MOL0     O74588  -0.220   7.310  10.378  0.7313  0.1137  0.3116
  566MOL0     C74589  -0.316   7.390  10.445  0.3869 -0.4035  0.2750
  566MOL0     C74590  -0.383   7.298  10.548  0.1300  0.6132  0.3482
  566MOL0     C74591  -0.511   7.354  10.618  0.6537 -0.4182  1.1297
  566MOL0     C74592  -0.492   7.499  10.661  0.2077  0.1676 -0.0106
  566MOL0     C74593  -0.624   7.553  10.724  0.0147 -1.0724 -0.5606
  566MOL0     C74594  -0.593   7.705  10.762 -0.2979  1.2904 -0.1104
  566MOL0     C74595  -0.718   7.768  10.830 -0.0502 -0.5566 -1.0279
  566MOL0     C74596  -0.689   7.914  10.844  0.2894  0.3800  0.0718
  566MOL0     N74597  -0.725   7.991  10.718  0.2044 -1.2350 -0.1347
  566MOL0     C74598  -0.641   8.016  10.606 -0.7416  0.9133 -0.9353
  566MOL0     C74599  -0.701   8.114  10.534 -0.2581  0.6951 -0.2938
  566MOL0     C74600  -0.649   8.162  10.409  0.4495  1.2455  1.2349
  566MOL0     C74601  -0.545   8.273  10.409  0.1017  0.4617  0.3147
  566MOL0     C74602  -0.584   8.398  10.484 -0.0092  0.8862 -0.2943
  566MOL0     C74603  -0.474   8.507  10.458  0.8133  0.9121  0.2721
  566MOL0     O74604  -0.522   8.616  10.539  0.8949  0.2225 -0.2455
  566MOL0     C74605  -0.628   8.691  10.512 -0.4565  0.0834  0.5837
  566MOL0     C74606  -0.679   8.699  10.387  0.0155 -0.4541  0.5872
  566MOL0     C74607  -0.797   8.770  10.369  0.1362 -0.0053 -0.4730
  566MOL0     C74608  -0.874   8.841  10.470 -0.5689  0.4598  0.6776
  566MOL0     C74609  -0.995   8.905  10.429 -0.4006  0.7001  0.1923
  566MOL0     O74610  -1.009   9.033  10.472  0.2540 -0.9934  0.2525
  566MOL0     C74611  -1.125   9.097  10.437 -0.1070  0.5294 -0.3956
  566MOL0     C74612  -1.245   9.051  10.494  0.5256  0.1756  0.2193
  566MOL0     C74613  -1.368   9.102  10.464  0.9018 -0.2126  0.8139
  566MOL0     C74614  -1.381   9.215  10.382 -0.8015  0.0396 -0.2821
  566MOL0     O74615  -1.499   9.283  10.374 -0.3577 -0.4426 -0.3749
  566MOL0     C74616  -1.539   9.330  10.242  0.2384  0.5396 -0.6318
  566MOL0     C74617  -1.678   9.287  10.202 -0.2286  0.6081  0.2622
  566MOL0     C74618  -1.782   9.316  10.319 -0.3082 -0.5783  0.5449
  566MOL0     C74619  -1.927   9.311  10.260 -0.2412 -0.6980 -0.1843
  566MOL0     C74620  -2.020   9.270  10.368  0.0448 -0.8328  0.4585
  566MOL0     C74621  -2.159   9.241  10.318 -0.6427 -0.8075 -0.6522
  566MOL0     C74622  -2.258   9.204  10.427  0.1513  0.0479 -0.1040
  566MOL0     C74623  -2.244   9.052  10.434  0.4685 -0.5896 -0.3793
  566MOL0    Cl74624  -2.330   8.991  10.574 -0.2950  0.2086 -0.0789
  566MOL0     C74625  -1.264   9.254  10.314  0.3411  0.4895  0.6687
  566MOL0     C74626  -1.136   9.193  10.344  0.0308  0.1824  0.5379
  566MOL0     O74627  -1.075   8.843  10.361  0.4340  1.1565 -0.4880
  566MOL0     C74628  -0.811   8.837  10.593  0.1494  0.0833  0.3476
  566MOL0     C74629  -0.689   8.767  10.613 -0.5221  0.5030 -0.5196
  566MOL0     N74630  -0.809   8.158  10.602  0.5591 -0.2587 -0.5442
  566MOL0     N74631  -0.816   8.096  10.718  0.4314  0.1138  0.7702
  566MOL0     C74632  -0.034   7.299  10.238 -0.1916  0.2268  0.4109
  566MOL0     C74633   0.051   7.348  10.144  0.8225  0.6503 -0.4837
  566MOL0     C74634   0.300   7.605   9.881 -0.3213  0.0288  0.2824
  566MOL0     C74635   0.262   7.591   9.750 -0.0557 -0.7543 -0.6259
  566MOL0     C74636   0.326   7.663   9.648 -1.3012 -0.1070 -0.6372
  566MOL0     C74637   0.436   7.744   9.676 -1.4585 -0.5744  0.3997
  566MOL0     O74638   0.499   7.809   9.567 -0.4206 -0.1358  0.1405
  566MOL0     C74639   0.578   7.932   9.589  0.2376  0.5973 -0.2482
  566MOL0     C74640   0.674   7.954   9.476  0.0545 -0.1664  0.2201
  566MOL0     C74641   0.624   8.042   9.361 -0.7087  0.4973  0.7576
  566MOL0     C74642   0.734   8.083   9.264 -0.7890 -0.3682 -0.2314
  566MOL0     C74643   0.687   8.162   9.146 -0.1639 -0.0028 -0.2025
  566MOL0     C74644   0.636   8.236   9.061 -0.0592  1.2263 -0.7723
  566MOL0     C74645   0.486   7.739   9.805 -0.6117 -0.4210  0.8355
  566MOL0     C74646   0.414   7.679   9.905  0.3596 -0.6522  0.1102
  566MOL0     H74647  -0.107   7.651  10.085 -3.2272 -1.1881 -1.5592
  566MOL0     H74648  -0.261   7.552  10.266  0.5836  0.7321  0.1807
  566MOL0     H74649  -0.385   7.424  10.368  0.9255  1.3615  0.5397
  566MOL0     H74650  -0.275   7.483  10.485 -0.0881  0.1819 -0.5964
  566MOL0     H74651  -0.306   7.269  10.619  2.1303 -1.5761 -2.4811
  566MOL0     H74652  -0.411   7.201  10.507  1.4489  0.7154 -0.8556
  566MOL0     H74653  -0.524   7.298  10.711 -0.6045  0.6848  1.6526
  566MOL0     H74654  -0.602   7.347  10.557  0.9274 -1.9869  0.8591
  566MOL0     H74655  -0.423   7.503  10.745  1.5253 -1.2199 -0.9642
  566MOL0     H74656  -0.463   7.558  10.573 -0.9684 -1.3939 -1.5120
  566MOL0     H74657  -0.638   7.489  10.812 -2.7110 -1.2158 -1.0371
  566MOL0     H74658  -0.709   7.547  10.657 -2.1517  1.3304  1.7527
  566MOL0     H74659  -0.564   7.768  10.677 -1.5195  0.6880 -1.0192
  566MOL0     H74660  -0.506   7.701  10.827  0.8948 -2.6760 -1.6190
  566MOL0     H74661  -0.815   7.765  10.778  0.1040  0.8636 -1.4356
  566MOL0     H74662  -0.716   7.725  10.931 -2.5067 -1.7274 -1.3985
  566MOL0     H74663  -0.583   7.939  10.852  0.1669  1.4186 -1.1310
  566MOL0     H74664  -0.738   7.953  10.934  1.2308 -1.2563  1.3484
  566MOL0     H74665  -0.552   7.958  10.588 -0.9381 -1.6177  4.2167
  566MOL0     H74666  -0.731   8.207  10.353  0.4751 -0.4966 -0.3230
  566MOL0     H74667  -0.606   8.076  10.356 -1.4886  0.8168  0.2332
  566MOL0     H74668  -0.534   8.293  10.302 -0.4349 -1.7327 -0.1889
  566MOL0     H74669  -0.454   8.238  10.457  0.1060  0.5778  0.3919
  566MOL0     H74670  -0.677   8.439  10.443 -1.4400 -2.8876 -1.2800
  566MOL0     H74671  -0.605   8.373  10.589  1.9902  1.3113  0.2422
  566MOL0     H74672  -0.467   8.524  10.350  1.7186 -3.2131 -0.4739
  566MOL0     H74673  -0.376   8.472  10.491 -0.0468 -1.3927  0.5710
  566MOL0     H74674  -0.632   8.648  10.303  0.0384 -2.0266  1.5050
  566MOL0     H74675  -0.845   8.773  10.272 -2.4716 -0.7644  0.7190
  566MOL0     H74676  -1.236   8.981  10.576 -0.0611  1.3409  1.3029
  566MOL0     H74677  -1.455   9.050  10.502  1.1620 -1.4868 -0.2292
  566MOL0     H74678  -1.464   9.308  10.166  0.3083  1.6843 -0.9226
  566MOL0     H74679  -1.532   9.439  10.250  1.9952  0.4042  0.0723
  566MOL0     H74680  -1.702   9.183  10.180 -2.8203  0.8779  1.4835
  566MOL0     H74681  -1.712   9.337  10.112  1.2160 -1.0336 -1.2709
  566MOL0     H74682  -1.762   9.416  10.357  0.2875 -0.5290  0.1114
  566MOL0     H74683  -1.767   9.250  10.404  1.7044 -1.0531 -0.1322
  566MOL0     H74684  -1.969   9.405  10.224 -0.1522 -0.2167  0.9169
  566MOL0     H74685  -1.925   9.241  10.176 -2.2904 -2.3478  1.0454
  566MOL0     H74686  -2.025   9.342  10.451  0.2472 -0.9597  0.5822
  566MOL0     H74687  -1.979   9.173  10.400 -0.4461 -0.8150  1.1642
  566MOL0     H74688  -2.164   9.165  10.239  0.7420 -0.1991 -1.3530
  566MOL0     H74689  -2.187   9.336  10.272 -2.2795  1.4712  4.3596
  566MOL0     H74690  -2.231   9.252  10.522 -1.9436  1.7870 -0.2991
  566MOL0     H74691  -2.362   9.233  10.405  0.1325  0.9792  1.0845
  566MOL0     H74692  -2.142   9.016  10.446 -0.2352 -1.8682  2.5605
  566MOL0     H74693  -2.283   9.017  10.338 -0.2314  0.0590 -0.3410
  566MOL0     H74694  -1.263   9.337  10.244 -0.5043 -0.0323  0.0167
  566MOL0     H74695  -1.043   9.210  10.290 -0.8450  0.1390 -1.0311
  566MOL0     H74696  -0.869   8.894  10.664  0.3579  1.5896 -0.6579
  566MOL0     H74697  -0.634   8.766  10.707  1.2940 -3.3402 -1.4288
  566MOL0     H74698  -0.016   7.204  10.288 -0.8657  2.3376  5.2201
  566MOL0     H74699   0.132   7.287  10.105  1.7984  1.8792 -0.4396
  566MOL0     H74700   0.179   7.525   9.726 -1.4569  0.9684 -0.6665
  566MOL0     H74701   0.295   7.651   9.545 -1.8383  1.6526 -0.7082
  566MOL0     H74702   0.646   7.924   9.674  2.0026  0.7064 -1.5856
  566MOL0     H74703   0.503   8.008   9.609 -1.6542 -0.8024 -1.6048
  566MOL0     H74704   0.761   8.007   9.515 -0.2244 -0.2265  0.9394
  566MOL0     H74705   0.715   7.859   9.442  2.0801  0.5395  0.5594
  566MOL0     H74706   0.587   8.132   9.411 -1.7905 -0.5904  1.9915
  566MOL0     H74707   0.548   7.992   9.301  1.2569  0.0391 -1.4987
  566MOL0     H74708   0.801   8.149   9.320 -2.5064  1.0363  0.2492
  566MOL0     H74709   0.790   7.996   9.229 -0.7594 -0.7265  0.6838
  566MOL0     H74710   0.580   8.295   8.992 -1.6050  1.7025  0.8033
  566MOL0     H74711   0.583   7.778   9.832 -1.6218  1.2125  2.3582
  566MOL0     H74712   0.459   7.663  10.002 -1.4041 -2.6849  0.6456
  567MOL0     O74713   6.198   4.868   6.975  0.5589 -1.0717  0.7383
  567MOL0     C74714   6.259   4.798   7.048 -0.4514  0.2861 -0.0127
  567MOL0     O74715   6.272   4.668   7.031 -0.0900  0.5261  0.1889
  567MOL0     C74716   6.207   4.610   6.927  0.4083  0.7140 -0.1387
  567MOL0     C74717   6.240   4.635   6.796 -0.1842  0.1199  0.6442
  567MOL0     C74718   6.179   4.570   6.689 -0.5118 -0.3835  0.5069
  567MOL0     C74719   6.092   4.465   6.712  0.0564  0.2253 -0.4442
  567MOL0     O74720   6.035   4.384   6.614  0.1357  0.2325  0.6073
  567MOL0     C74721   6.089   4.400   6.482 -0.4506 -0.5562  0.1953
  567MOL0     C74722   6.047   4.271   6.412 -0.2990 -0.2814  0.5964
  567MOL0     C74723   5.912   4.257   6.338  0.6464 -0.1050  0.1935
  567MOL0     C74724   5.864   4.384   6.277 -0.7210 -0.2982  0.6001
  567MOL0     C74725   5.720   4.354   6.230 -1.3725 -0.1003 -0.3008
  567MOL0     C74726   5.668   4.480   6.157 -0.0013 -0.4620  0.4237
  567MOL0     C74727   5.545   4.447   6.067 -0.1319  0.0474  0.9622
  567MOL0     C74728   5.433   4.373   6.136 -0.4476  0.7494 -0.6691
  567MOL0     N74729   5.305   4.395   6.085  0.3452  0.8913  0.2510
  567MOL0     C74730   5.250   4.366   5.962  0.3359  0.4108 -0.1309
  567MOL0     C74731   5.124   4.421   5.969  0.3951  0.0504  0.1383
  567MOL0     C74732   5.030   4.412   5.849  0.7290  0.2908 -0.4065
  567MOL0     C74733   4.878   4.405   5.897 -0.2407 -0.3825  0.3851
  567MOL0     C74734   4.823   4.547   5.899 -0.0723 -0.4368  0.5371
  567MOL0     C74735   4.675   4.554   5.880 -0.3267  0.5735 -0.5782
  567MOL0     O74736   4.633   4.503   5.757  0.0377  0.2310  0.6317
  567MOL0     C74737   4.503   4.473   5.734  1.1701 -0.2619  0.1418
  567MOL0     C74738   4.399   4.486   5.833 -0.8515 -0.5669  0.5060
  567MOL0     C74739   4.262   4.464   5.804 -0.0154  0.5400  0.9191
  567MOL0     C74740   4.219   4.424   5.673 -0.1307 -0.3828 -0.7666
  567MOL0     C74741   4.075   4.408   5.645 -0.2955 -0.6167  0.6667
  567MOL0     O74742   4.048   4.419   5.509 -0.3041  0.3080  0.0870
  567MOL0     C74743   3.930   4.402   5.446  0.0018 -0.3052 -0.4848
  567MOL0     C74744   3.844   4.293   5.484 -0.8218 -0.8127 -0.0331
  567MOL0     C74745   3.726   4.276   5.428  0.1332 -0.6347  0.4272
  567MOL0     C74746   3.682   4.361   5.318 -0.1458  0.2264  0.2620
  567MOL0     O74747   3.561   4.352   5.250  0.5611 -0.1297  0.1513
  567MOL0     C74748   3.460   4.267   5.305  0.1241  0.2355 -0.7433
  567MOL0     C74749   3.321   4.274   5.235  0.1468  0.3490 -0.1571
  567MOL0     C74750   3.196   4.252   5.324  0.7520 -0.2744  0.0678
  567MOL0     C74751   3.076   4.330   5.271 -0.3152  0.6736 -0.7857
  567MOL0     C74752   2.948   4.308   5.350  0.2356  0.0189 -0.1020
  567MOL0     C74753   2.886   4.165   5.331  0.1866 -0.8738 -0.1846
  567MOL0     C74754   2.772   4.145   5.423  0.7931 -0.0231 -0.6121
  567MOL0     C74755   2.633   4.185   5.353 -1.1689  0.1916  0.9215
  567MOL0    Cl74756   2.608   4.105   5.194  0.1208  0.1680  0.5723
  567MOL0     C74757   3.777   4.458   5.275 -0.0739  0.6377  0.4425
  567MOL0     C74758   3.894   4.481   5.339  0.4300 -0.2878  0.4409
  567MOL0     O74759   3.999   4.371   5.734 -0.0171  0.1459 -0.2574
  567MOL0     C74760   4.321   4.396   5.577  0.8910 -0.4494 -0.6768
  567MOL0     C74761   4.462   4.431   5.605  1.6574  0.0027  0.5274
  567MOL0     N74762   5.104   4.472   6.099 -1.0008  0.3250  0.0099
  567MOL0     N74763   5.216   4.455   6.165  0.7795  0.3158 -0.1526
  567MOL0     C74764   6.066   4.422   6.844  0.5358  0.1736  0.0136
  567MOL0     C74765   6.125   4.498   6.950 -1.0764 -0.2948 -0.3166
  567MOL0     C74766   6.323   4.849   7.168  0.5834  0.6026 -0.3672
  567MOL0     C74767   6.330   4.989   7.196 -1.4094  0.3043  0.1343
  567MOL0     C74768   6.381   5.023   7.324  0.2252  0.2007 -0.9735
  567MOL0     C74769   6.427   4.936   7.420  0.6559 -0.3043 -0.2334
  567MOL0     O74770   6.452   4.975   7.549  0.0773  0.3080 -0.0088
  567MOL0     C74771   6.514   4.890   7.643  0.4754 -0.7994  0.0677
  567MOL0     C74772   6.550   4.990   7.754  0.2974 -0.0727 -0.2324
  567MOL0     C74773   6.683   4.975   7.811 -0.0741  0.5269 -0.1733
  567MOL0     C74774   6.691   4.859   7.916  0.0495 -0.1004  0.2341
  567MOL0     C74775   6.827   4.800   7.944  0.1017  0.2578 -0.1316
  567MOL0     C74776   6.935   4.760   7.966 -0.8764  0.1352  0.6860
  567MOL0     C74777   6.408   4.803   7.397 -0.2509  0.3611 -0.3442
  567MOL0     C74778   6.357   4.755   7.272  0.1978  0.2797  0.6221
  567MOL0     H74779   6.317   4.708   6.777 -2.8649  3.0726  0.3316
  567MOL0     H74780   6.200   4.612   6.591  0.7738 -0.9640  0.5114
  567MOL0     H74781   6.198   4.408   6.480 -0.3961  0.4626  3.0169
  567MOL0     H74782   6.054   4.494   6.438  0.4301 -0.5211 -0.4568
  567MOL0     H74783   6.055   4.190   6.486 -0.5021  1.0411  2.1356
  567MOL0     H74784   6.129   4.261   6.341 -0.4064  0.2425  0.3922
  567MOL0     H74785   5.824   4.233   6.397 -0.1066  0.7692 -0.5355
  567MOL0     H74786   5.917   4.172   6.268 -1.7464 -1.3990  1.4762
  567MOL0     H74787   5.855   4.462   6.353 -3.0818  0.9983 -0.8937
  567MOL0     H74788   5.936   4.424   6.204 -1.9160 -0.2715 -0.5903
  567MOL0     H74789   5.652   4.328   6.312 -1.0927 -1.0644 -0.3652
  567MOL0     H74790   5.721   4.268   6.162 -2.9269  1.6449 -2.7433
  567MOL0     H74791   5.740   4.533   6.094 -0.7011 -0.4058 -0.3480
  567MOL0     H74792   5.626   4.552   6.228  0.1631 -0.2398  0.2962
  567MOL0     H74793   5.496   4.542   6.046 -1.1587 -0.7206 -0.2636
  567MOL0     H74794   5.578   4.391   5.979  0.2697  0.1925  1.0207
  567MOL0     H74795   5.426   4.400   6.242  1.5622  3.5102 -1.1254
  567MOL0     H74796   5.459   4.268   6.118 -0.8927  0.7153 -1.1503
  567MOL0     H74797   5.298   4.310   5.883  0.0289 -0.9708  0.6154
  567MOL0     H74798   5.062   4.323   5.793  2.9191  0.8333 -0.1119
  567MOL0     H74799   5.039   4.502   5.788  3.2872 -1.2013 -2.4356
  567MOL0     H74800   4.864   4.344   5.987  3.3102  0.4411  1.6395
  567MOL0     H74801   4.835   4.346   5.816  1.1083  0.6495 -1.1580
  567MOL0     H74802   4.840   4.574   6.003 -0.3174  0.5687  0.3236
  567MOL0     H74803   4.879   4.613   5.833 -1.1149 -1.3720 -1.3803
  567MOL0     H74804   4.629   4.653   5.891 -1.5250 -0.2268  3.1410
  567MOL0     H74805   4.632   4.495   5.962 -1.1693  1.4561 -0.3634
  567MOL0     H74806   4.428   4.531   5.927 -2.5883 -0.5360  1.0577
  567MOL0     H74807   4.182   4.489   5.873 -3.4752 -0.0868 -2.5349
  567MOL0     H74808   3.881   4.232   5.566  0.7457  0.6206  0.3763
  567MOL0     H74809   3.671   4.183   5.443 -1.0515 -0.6721 -3.0969
  567MOL0     H74810   3.442   4.306   5.406 -0.8319 -0.5061 -0.6066
  567MOL0     H74811   3.501   4.166   5.311 -2.1095 -0.6535  2.2791
  567MOL0     H74812   3.321   4.206   5.150 -0.7325  0.0339  0.0855
  567MOL0     H74813   3.309   4.366   5.178  0.0472  0.8694  0.6866
  567MOL0     H74814   3.211   4.285   5.427 -1.8866 -1.9704  1.0873
  567MOL0     H74815   3.179   4.145   5.331  0.8617 -0.3161 -0.2755
  567MOL0     H74816   3.107   4.435   5.278 -0.7383  0.7949 -0.6946
  567MOL0     H74817   3.055   4.295   5.170 -3.6372 -0.9248  0.2846
  567MOL0     H74818   2.878   4.387   5.321  0.2314 -0.0274 -0.2180
  567MOL0     H74819   2.970   4.314   5.457  2.3192 -1.3030 -0.3845
  567MOL0     H74820   2.964   4.094   5.359 -1.0388 -1.2318  2.6189
  567MOL0     H74821   2.856   4.150   5.226  1.1162 -0.8505 -0.4602
  567MOL0     H74822   2.762   4.038   5.442 -1.6906  0.3988  0.8885
  567MOL0     H74823   2.780   4.189   5.522  1.5020 -1.7156  0.1181
  567MOL0     H74824   2.628   4.292   5.330 -1.8264  0.2286  1.2241
  567MOL0     H74825   2.549   4.160   5.418 -0.6834 -4.6500  0.0258
  567MOL0     H74826   3.761   4.540   5.205 -0.6996 -1.0082 -1.4125
  567MOL0     H74827   3.964   4.553   5.297 -3.1102  3.4975  0.4826
  567MOL0     H74828   4.296   4.357   5.478  3.3794 -0.3195 -1.4082
  567MOL0     H74829   4.536   4.415   5.528 -0.9069 -3.5200 -1.4472
  567MOL0     H74830   6.002   4.335   6.857  1.7766 -1.0099 -1.4734
  567MOL0     H74831   6.100   4.484   7.054 -0.7314  1.4141  0.0332
  567MOL0     H74832   6.291   5.067   7.131  1.9098  2.0676  0.0633
  567MOL0     H74833   6.380   5.131   7.336  0.3363  0.0978  0.0087
  567MOL0     H74834   6.606   4.848   7.600 -0.3032 -1.1627 -1.3300
  567MOL0     H74835   6.448   4.811   7.679 -1.8988  0.8376 -0.4369
  567MOL0     H74836   6.550   5.092   7.715 -1.6667  0.0983  0.1303
  567MOL0     H74837   6.473   4.986   7.831 -0.4096  0.2250 -0.9090
  567MOL0     H74838   6.714   5.071   7.854  1.0959 -0.9404  2.5500
  567MOL0     H74839   6.757   4.951   7.735 -0.2730  0.1754 -0.2606
  567MOL0     H74840   6.637   4.871   8.010 -0.1775 -0.7410  0.1871
  567MOL0     H74841   6.634   4.779   7.868 -0.9928  0.4569  0.4997
  567MOL0     H74842   7.033   4.719   7.978 -1.4468 -1.7721 -0.7129
  567MOL0     H74843   6.443   4.728   7.467  0.4774 -0.2451 -1.3345
  567MOL0     H74844   6.348   4.647   7.269 -1.7013  0.4183 -2.0813
  568MOL0     O74845   9.673   4.018   5.697  0.1320 -0.3117 -0.8646
  568MOL0     C74846   9.652   4.116   5.626  0.3811  0.0488  0.0385
  568MOL0     O74847   9.525   4.148   5.566 -0.5156  0.2295 -0.1621
  568MOL0     C74848   9.415   4.064   5.593 -0.9556 -1.1782  0.8075
  568MOL0     C74849   9.292   4.129   5.619  0.0090 -0.7974 -0.4010
  568MOL0     C74850   9.173   4.055   5.640 -0.1917  0.9184  0.0646
  568MOL0     C74851   9.174   3.917   5.639  0.0226 -0.6769 -0.4262
  568MOL0     O74852   9.054   3.854   5.657  0.9882 -0.1880 -0.3719
  568MOL0     C74853   9.038   3.717   5.696  0.0181  0.2576  0.1061
  568MOL0     C74854   8.923   3.701   5.803 -0.4645  0.6100 -0.4577
  568MOL0     C74855   8.784   3.746   5.743  0.4661 -1.0015  0.8510
  568MOL0     C74856   8.665   3.705   5.834  0.3627  0.0413 -0.1642
  568MOL0     C74857   8.535   3.700   5.750  0.2251 -0.4768 -0.1531
  568MOL0     C74858   8.414   3.702   5.836 -0.1683 -0.9767 -0.3930
  568MOL0     C74859   8.277   3.710   5.754  0.3701 -0.7336 -0.2644
  568MOL0     C74860   8.280   3.729   5.601 -0.2579  0.5399  0.3156
  568MOL0     N74861   8.147   3.721   5.541 -0.4552  0.0010 -1.0706
  568MOL0     C74862   8.076   3.812   5.464  1.5392  0.1270 -0.0784
  568MOL0     C74863   7.962   3.741   5.428  0.4347  0.0479  0.3422
  568MOL0     C74864   7.883   3.807   5.319 -0.6658 -0.6336  0.1881
  568MOL0     C74865   7.768   3.883   5.380  0.2314 -0.0586  0.4542
  568MOL0     C74866   7.700   3.969   5.272  0.3052 -0.6588  0.2814
  568MOL0     C74867   7.592   4.069   5.321 -0.3843 -0.5528 -0.6701
  568MOL0     O74868   7.607   4.178   5.232  0.1519 -0.9579  0.4287
  568MOL0     C74869   7.498   4.255   5.236 -0.1106 -0.0406 -0.3049
  568MOL0     C74870   7.387   4.230   5.157  0.1420  0.1657  1.1527
  568MOL0     C74871   7.261   4.298   5.174 -0.3477 -0.2589  0.6241
  568MOL0     C74872   7.255   4.404   5.268  0.3997 -0.1969 -0.4673
  568MOL0     C74873   7.132   4.479   5.282  1.2205  0.3221 -0.4460
  568MOL0     O74874   7.025   4.453   5.199 -0.4362 -0.2330  0.2401
  568MOL0     C74875   6.907   4.522   5.227 -0.8341 -1.0296  0.8201
  568MOL0     C74876   6.896   4.664   5.229 -0.5027 -0.2618  0.6740
  568MOL0     C74877   6.768   4.729   5.233 -0.4504 -0.2148  0.1875
  568MOL0     C74878   6.658   4.648   5.264 -1.0166 -0.0389  0.2231
  568MOL0     O74879   6.527   4.694   5.282  0.9111  0.3421 -0.1983
  568MOL0     C74880   6.516   4.834   5.314  0.3128 -0.2441 -0.5585
  568MOL0     C74881   6.390   4.863   5.390 -0.2569 -1.1791 -0.2102
  568MOL0     C74882   6.267   4.826   5.319  0.5226  0.8053  0.9372
  568MOL0     C74883   6.230   4.935   5.218 -0.4688  0.5430 -0.1863
  568MOL0     C74884   6.084   4.908   5.159 -0.9028 -0.4412  0.0669
  568MOL0     C74885   6.040   5.020   5.080  0.5719 -0.6262  0.2033
  568MOL0     C74886   6.062   5.010   4.927  0.5653 -0.3693 -0.2029
  568MOL0     C74887   5.994   5.126   4.855 -0.1850 -0.0721 -0.4450
  568MOL0    Cl74888   5.818   5.098   4.837 -0.4164  0.2681 -0.5444
  568MOL0     C74889   6.668   4.509   5.266  0.6159  0.6766  0.0763
  568MOL0     C74890   6.794   4.448   5.251 -0.0857 -0.5179  0.6813
  568MOL0     O74891   7.133   4.558   5.377  0.0025  0.5490  1.1150
  568MOL0     C74892   7.370   4.437   5.339 -0.5309  0.0309  0.1847
  568MOL0     C74893   7.493   4.365   5.323 -0.4359 -0.4501 -0.4064
  568MOL0     N74894   7.960   3.621   5.480  0.1209  0.5212 -0.0901
  568MOL0     N74895   8.069   3.609   5.555 -0.3203  1.1768 -0.5823
  568MOL0     C74896   9.298   3.856   5.603  0.1867  0.7023 -0.2177
  568MOL0     C74897   9.416   3.928   5.580 -0.5340 -1.1871  0.1012
  568MOL0     C74898   9.772   4.194   5.575 -0.3529  0.2426 -0.5896
  568MOL0     C74899   9.903   4.148   5.581  0.7172 -0.2268  0.0641
  568MOL0     C74900  10.012   4.231   5.540 -0.2146  1.5454 -0.6044
  568MOL0     C74901   9.987   4.361   5.487 -0.0608  0.4370 -0.4746
  568MOL0     O74902  10.100   4.434   5.462 -0.0180 -0.3425 -0.8323
  568MOL0     C74903  10.082   4.571   5.413 -0.7613  0.3324 -0.2644
  568MOL0     C74904  10.006   4.674   5.497  0.4128  0.8058  0.0136
  568MOL0     C74905  10.043   4.812   5.452  0.6394 -0.0585 -0.1215
  568MOL0     C74906   9.963   4.870   5.326 -0.5111 -0.6561 -0.0096
  568MOL0     C74907  10.008   4.807   5.199  0.1155  0.2286 -0.7206
  568MOL0     C74908  10.028   4.748   5.093 -0.9346 -0.8841  0.5959
  568MOL0     C74909   9.856   4.393   5.460  0.2362  0.1069  0.4819
  568MOL0     C74910   9.751   4.319   5.514  0.2070  0.4911  0.1474
  568MOL0     H74911   9.294   4.237   5.631  0.6798 -0.6146 -1.9189
  568MOL0     H74912   9.080   4.108   5.655  0.5640  1.9458  1.4066
  568MOL0     H74913   9.132   3.682   5.739 -0.6930 -0.3272  1.2375
  568MOL0     H74914   9.013   3.658   5.607 -0.0116  1.4862 -0.7183
  568MOL0     H74915   8.934   3.733   5.906 -4.1728 -0.2418  0.3576
  568MOL0     H74916   8.902   3.593   5.807 -1.2931  0.8125  1.3361
  568MOL0     H74917   8.764   3.697   5.647 -0.0288  1.6137 -0.4655
  568MOL0     H74918   8.789   3.853   5.726  2.5634 -1.5462 -3.0443
  568MOL0     H74919   8.679   3.606   5.879 -0.0296  0.3144  0.5821
  568MOL0     H74920   8.659   3.781   5.912 -2.1704  1.4925 -1.6433
  568MOL0     H74921   8.540   3.612   5.686 -1.1330 -0.7389  0.0765
  568MOL0     H74922   8.545   3.788   5.686  2.1395  0.5974  1.4870
  568MOL0     H74923   8.421   3.793   5.897  0.0703 -1.3440  0.1350
  568MOL0     H74924   8.405   3.617   5.904  1.3492 -1.3551 -0.6142
  568MOL0     H74925   8.219   3.618   5.766  1.8900 -1.4767  2.0763
  568MOL0     H74926   8.225   3.786   5.812  2.3510 -1.1762  2.2412
  568MOL0     H74927   8.344   3.649   5.562 -2.2300 -1.2216  0.5626
  568MOL0     H74928   8.322   3.827   5.578  0.1152  0.8692  2.2222
  568MOL0     H74929   8.106   3.911   5.431  0.8322  1.4863  3.0071
  568MOL0     H74930   7.847   3.745   5.236  0.9049 -0.6526 -0.5165
  568MOL0     H74931   7.946   3.873   5.259 -0.2945 -1.7125 -0.6511
  568MOL0     H74932   7.800   3.952   5.459  0.7120  0.8695 -0.5153
  568MOL0     H74933   7.704   3.802   5.417 -2.4517  0.3143 -2.7741
  568MOL0     H74934   7.781   4.018   5.216  0.6787  0.2486  1.5672
  568MOL0     H74935   7.650   3.905   5.199 -0.2770 -1.5783  1.4483
  568MOL0     H74936   7.617   4.109   5.420 -0.5653 -0.4067 -0.6844
  568MOL0     H74937   7.494   4.020   5.322 -1.2419  1.1039 -0.9127
  568MOL0     H74938   7.385   4.144   5.091 -0.7933 -1.2242  2.9111
  568MOL0     H74939   7.173   4.286   5.112  0.2642  3.0494 -1.0947
  568MOL0     H74940   6.981   4.722   5.192 -1.6464  1.7521  1.0661
  568MOL0     H74941   6.771   4.837   5.225  0.7953 -0.2029  0.6000
  568MOL0     H74942   6.522   4.897   5.226  0.8375  0.9712  0.3197
  568MOL0     H74943   6.600   4.865   5.377  0.3978 -1.9313  0.2169
  568MOL0     H74944   6.380   4.967   5.421  2.5752 -0.3069 -1.9004
  568MOL0     H74945   6.386   4.805   5.483 -3.5300  2.4702  2.2494
  568MOL0     H74946   6.182   4.812   5.386  0.1835 -0.3191  0.3046
  568MOL0     H74947   6.280   4.733   5.262 -0.4794  2.0853 -1.5619
  568MOL0     H74948   6.240   5.032   5.267 -1.3582  0.5973 -0.0985
  568MOL0     H74949   6.299   4.937   5.134  1.8282 -0.2827  1.5558
  568MOL0     H74950   6.004   4.894   5.232 -1.2130 -1.6421 -0.4736
  568MOL0     H74951   6.075   4.812   5.107 -1.8793 -0.1525 -0.3047
  568MOL0     H74952   6.067   5.113   5.132 -1.7998 -0.6517  1.6039
  568MOL0     H74953   5.932   5.030   5.091  0.8461  1.7524  1.4788
  568MOL0     H74954   6.168   5.019   4.906  0.2111 -0.2783 -2.0893
  568MOL0     H74955   6.018   4.918   4.888 -1.5312  0.3632  0.2752
  568MOL0     H74956   6.040   5.158   4.760 -1.6784 -0.8320 -1.4638
  568MOL0     H74957   6.006   5.209   4.925 -0.7721 -0.6236  0.3176
  568MOL0     H74958   6.576   4.457   5.292  0.6124  0.1479 -0.9330
  568MOL0     H74959   6.791   4.340   5.257  2.9124 -0.6982  0.5197
  568MOL0     H74960   7.374   4.510   5.419 -2.1161 -0.1891  0.5044
  568MOL0     H74961   7.581   4.405   5.373 -0.9263  0.8236 -0.5200
  568MOL0     H74962   9.309   3.750   5.584 -2.0908  0.2154  0.8300
  568MOL0     H74963   9.510   3.877   5.558 -1.1463 -1.7613 -1.2574
  568MOL0     H74964   9.922   4.047   5.617 -1.2554 -0.7933 -0.3624
  568MOL0     H74965  10.113   4.191   5.544 -0.7609 -0.0633 -1.7303
  568MOL0     H74966  10.026   4.561   5.320 -1.3966 -0.5325  0.2000
  568MOL0     H74967  10.178   4.619   5.392  0.3415 -1.1454  1.0654
  568MOL0     H74968   9.898   4.659   5.500  0.4806 -0.9384 -2.9414
  568MOL0     H74969  10.047   4.654   5.597  1.1908 -0.3889 -0.5294
  568MOL0     H74970  10.151   4.820   5.440  0.7923 -0.3656  0.9215
  568MOL0     H74971  10.017   4.885   5.530 -0.1358  0.2965 -0.7002
  568MOL0     H74972   9.857   4.865   5.351 -0.5934 -0.4687 -0.3137
  568MOL0     H74973   9.984   4.976   5.312 -1.6549 -0.2879  0.9651
  568MOL0     H74974  10.050   4.691   5.005  0.2589  1.9565 -1.0776
  568MOL0     H74975   9.835   4.483   5.403  1.1002  1.8542  2.7803
  568MOL0     H74976   9.648   4.353   5.504  0.7594  1.8060 -1.6143
  569MOL0     O74977   7.162   0.512   9.589  0.4937  0.6536 -0.2558
  569MOL0     C74978   7.209   0.412   9.542 -0.8783 -1.0136  0.6161
  569MOL0     O74979   7.138   0.309   9.496  0.2892 -0.3190 -0.6204
  569MOL0     C74980   7.006   0.314   9.488  0.5679 -0.1201 -0.3185
  569MOL0     C74981   6.933   0.194   9.501 -0.2317  0.4389  0.2608
  569MOL0     C74982   6.790   0.200   9.499 -1.3281 -0.0921 -0.1347
  569MOL0     C74983   6.713   0.316   9.460 -0.3847 -0.5497  0.1375
  569MOL0     O74984   6.584   0.331   9.456 -0.0599 -0.2776 -0.0842
  569MOL0     C74985   6.510   0.249   9.548 -0.0256  0.4902 -0.0221
  569MOL0     C74986   6.370   0.312   9.570 -0.8939 -0.0285  0.1604
  569MOL0     C74987   6.275   0.227   9.643  0.2994  0.4733  0.2316
  569MOL0     C74988   6.151   0.312   9.679  0.3003  0.3835  0.2367
  569MOL0     C74989   6.044   0.228   9.747  0.3686 -0.3117  0.0937
  569MOL0     C74990   5.987   0.110   9.658 -1.1801 -0.6211  0.1313
  569MOL0     C74991   5.860   0.057   9.725  0.9274  0.2464  0.2565
  569MOL0     C74992   5.789  -0.058   9.657 -0.1174 -0.5638  0.3540
  569MOL0     N74993   5.862  -0.181   9.645  0.8570  0.4158 -0.9866
  569MOL0     C74994   5.947  -0.221   9.552 -0.7423  0.1442  0.2622
  569MOL0     C74995   5.998  -0.343   9.581 -0.3953 -0.6789 -0.1260
  569MOL0     C74996   6.094  -0.420   9.501 -1.0316  0.0415 -0.8865
  569MOL0     C74997   6.236  -0.394   9.551 -0.3905  0.4113  0.3840
  569MOL0     C74998   6.279  -0.255   9.499 -0.5999 -0.3101 -0.8669
  569MOL0     C74999   6.433  -0.228   9.509  0.7257  0.2770  1.1405
  569MOL0     O75000   6.469  -0.176   9.637  0.3684 -0.6949 -0.6066
  569MOL0     C75001   6.598  -0.158   9.670  0.5483 -0.9288  0.1853
  569MOL0     C75002   6.705  -0.220   9.610 -0.5253 -0.2630 -0.0713
  569MOL0     C75003   6.837  -0.188   9.651 -0.1030  0.0146 -0.5511
  569MOL0     C75004   6.853  -0.076   9.744 -0.2243 -0.5128  0.9690
  569MOL0     C75005   6.988  -0.043   9.789  0.1924 -0.2775  0.1434
  569MOL0     O75006   7.082  -0.131   9.755  0.0669  0.2305 -0.2263
  569MOL0     C75007   7.220  -0.107   9.779  0.3483 -0.2612  0.2646
  569MOL0     C75008   7.290   0.015   9.761 -0.1950  0.0029 -0.6177
  569MOL0     C75009   7.426   0.029   9.754  0.3385  0.4987  1.0031
  569MOL0     C75010   7.502  -0.078   9.762  0.7884  0.2229 -0.2511
  569MOL0     O75011   7.638  -0.055   9.768 -0.6049  0.2725  0.5698
  569MOL0     C75012   7.731  -0.162   9.746  0.1232  0.4668  0.6670
  569MOL0     C75013   7.873  -0.112   9.712  0.5534  0.3549  0.8132
  569MOL0     C75014   7.879  -0.033   9.573 -1.1058 -0.2111 -0.8467
  569MOL0     C75015   8.008  -0.056   9.499 -0.5325  0.5466  0.2192
  569MOL0     C75016   8.026   0.036   9.386 -0.0164  0.0543  0.4607
  569MOL0     C75017   8.145  -0.006   9.310 -1.1853  0.3912  0.1441
  569MOL0     C75018   8.178   0.078   9.185  0.2745 -0.3923 -0.4492
  569MOL0     C75019   8.055   0.122   9.088 -0.1133 -0.6763 -0.7076
  569MOL0    Cl75020   8.007  -0.029   9.007  0.1253  0.2203 -0.3913
  569MOL0     C75021   7.445  -0.199   9.802  0.5659  0.5919  0.3432
  569MOL0     C75022   7.300  -0.220   9.785 -0.6432  0.2667 -0.4339
  569MOL0     O75023   7.011   0.062   9.858 -0.1313  0.2577  0.5382
  569MOL0     C75024   6.743  -0.011   9.804 -0.1219 -0.2221  0.4096
  569MOL0     C75025   6.617  -0.047   9.752  0.0909 -0.4778  0.1887
  569MOL0     N75026   5.920  -0.388   9.682  0.1807  0.1900  0.4992
  569MOL0     N75027   5.846  -0.288   9.729 -0.3480  0.3103 -0.3980
  569MOL0     C75028   6.782   0.433   9.434 -0.2270  1.2445  0.1925
  569MOL0     C75029   6.924   0.421   9.447 -0.0429  0.1723  0.2016
  569MOL0     C75030   7.352   0.411   9.522 -0.1107 -0.0046 -0.5483
  569MOL0     C75031   7.429   0.533   9.554 -0.8685  0.1159  0.4105
  569MOL0     C75032   7.572   0.518   9.565 -0.3511  0.1291 -0.7735
  569MOL0     C75033   7.637   0.396   9.531 -0.9215  0.1594 -1.1814
  569MOL0     O75034   7.775   0.376   9.518 -0.1986 -0.4367 -0.0356
  569MOL0     C75035   7.856   0.489   9.516 -0.9223 -0.5133 -0.1000
  569MOL0     C75036   7.997   0.451   9.483 -0.5313 -0.1726 -1.0304
  569MOL0     C75037   8.097   0.573   9.520  0.4782  0.0672 -0.1223
  569MOL0     C75038   8.236   0.519   9.544 -0.1451  0.1102 -0.6008
  569MOL0     C75039   8.325   0.631   9.582  0.6132 -0.2002  0.2857
  569MOL0     C75040   8.386   0.727   9.608  0.1337  0.7747  0.5073
  569MOL0     C75041   7.565   0.287   9.506  0.4559 -0.4855  1.0180
  569MOL0     C75042   7.423   0.290   9.497 -0.3328 -0.2024  0.0877
  569MOL0     H75043   6.996   0.107   9.518  0.7646  1.0309 -0.3202
  569MOL0     H75044   6.730   0.112   9.520 -1.8318  0.3329  0.2509
  569MOL0     H75045   6.568   0.224   9.637  0.9741 -3.5224 -1.5916
  569MOL0     H75046   6.499   0.152   9.499 -2.1334  0.3811  0.5851
  569MOL0     H75047   6.328   0.339   9.472  1.1951  3.1328  0.0077
  569MOL0     H75048   6.386   0.404   9.626  0.3258 -0.7140  0.9718
  569MOL0     H75049   6.322   0.185   9.732 -0.5791 -0.4053  0.3045
  569MOL0     H75050   6.239   0.150   9.575  1.7346  0.4223 -0.5052
  569MOL0     H75051   6.182   0.389   9.750  2.4780 -1.7163  1.7453
  569MOL0     H75052   6.115   0.353   9.584 -0.5959 -0.3526  0.2450
  569MOL0     H75053   5.950   0.282   9.765 -1.4645 -3.2714  0.0570
  569MOL0     H75054   6.086   0.200   9.844  3.6610 -1.0325 -1.3967
  569MOL0     H75055   6.061   0.030   9.647 -0.7849 -0.0294 -2.3150
  569MOL0     H75056   5.959   0.147   9.559  1.3769 -0.9653 -0.7933
  569MOL0     H75057   5.879   0.017   9.825 -0.1469 -0.0802  0.3477
  569MOL0     H75058   5.792   0.141   9.742  2.9922  1.5666  2.6489
  569MOL0     H75059   5.756  -0.026   9.558  1.5860 -1.3847 -0.5219
  569MOL0     H75060   5.697  -0.084   9.710 -0.8446  1.3829  0.1309
  569MOL0     H75061   5.989  -0.166   9.469  0.4101  0.3601  0.9652
  569MOL0     H75062   6.086  -0.384   9.398 -1.6090  0.7979 -0.5902
  569MOL0     H75063   6.069  -0.526   9.512  0.6461 -0.2209  0.7562
  569MOL0     H75064   6.310  -0.469   9.521 -1.1316  0.4294 -1.6566
  569MOL0     H75065   6.229  -0.413   9.659  1.7488 -0.2836  0.4327
  569MOL0     H75066   6.246  -0.239   9.396  0.2396 -0.5684 -1.1828
  569MOL0     H75067   6.236  -0.179   9.565  1.8198  0.2620  0.1654
  569MOL0     H75068   6.466  -0.154   9.436  0.5206  0.0466  0.8095
  569MOL0     H75069   6.483  -0.324   9.491  2.1568  1.1308  0.3751
  569MOL0     H75070   6.694  -0.300   9.538 -1.8712 -0.5146  0.3759
  569MOL0     H75071   6.920  -0.239   9.604  2.4211  1.1090  2.4218
  569MOL0     H75072   7.230   0.103   9.738 -4.2869 -1.6345  2.5144
  569MOL0     H75073   7.465   0.130   9.740 -1.9131  1.1567 -1.6079
  569MOL0     H75074   7.703  -0.216   9.655 -0.1008  0.8019  0.5354
  569MOL0     H75075   7.728  -0.234   9.829  2.4244  1.6517  1.8660
  569MOL0     H75076   7.953  -0.186   9.702  0.3426  0.3446 -1.0385
  569MOL0     H75077   7.902  -0.044   9.793 -1.3239  0.5448  1.3896
  569MOL0     H75078   7.863   0.071   9.600  0.1623 -0.6595  2.0707
  569MOL0     H75079   7.795  -0.044   9.505 -1.4996  4.6959 -1.5059
  569MOL0     H75080   8.097  -0.048   9.562 -0.3722 -1.0004  0.2494
  569MOL0     H75081   8.003  -0.160   9.463 -0.9203  0.8394 -0.6067
  569MOL0     H75082   8.039   0.138   9.424  1.6248  0.1899 -0.3570
  569MOL0     H75083   7.938   0.039   9.322  2.0696  2.8102 -2.6346
  569MOL0     H75084   8.136  -0.109   9.274  1.0556  0.7833 -1.7660
  569MOL0     H75085   8.230  -0.011   9.379  0.9693 -0.7125 -2.4107
  569MOL0     H75086   8.213   0.172   9.230 -2.2909  0.1388  0.6464
  569MOL0     H75087   8.255   0.049   9.114 -0.5237  0.1583 -1.5789
  569MOL0     H75088   8.084   0.195   9.013 -2.1760 -0.6706 -1.5704
  569MOL0     H75089   7.966   0.166   9.134 -0.0337 -0.7911 -0.4402
  569MOL0     H75090   7.506  -0.285   9.828 -2.3527 -2.5270 -2.1638
  569MOL0     H75091   7.267  -0.323   9.796 -2.7171  1.0493  1.5200
  569MOL0     H75092   6.755   0.076   9.868  0.0611  1.0184 -1.2203
  569MOL0     H75093   6.529   0.007   9.786 -0.6720 -1.1654 -0.6368
  569MOL0     H75094   6.726   0.523   9.410  1.0516  1.2403 -3.4116
  569MOL0     H75095   6.977   0.512   9.419 -1.3614  0.1373 -2.7683
  569MOL0     H75096   7.401   0.637   9.568  3.0358  1.1702  1.4763
  569MOL0     H75097   7.631   0.608   9.580 -0.5436 -0.0487  1.4827
  569MOL0     H75098   7.857   0.538   9.614  1.8122 -1.1164  0.2664
  569MOL0     H75099   7.817   0.564   9.446  2.3539  1.1280 -0.3853
  569MOL0     H75100   8.022   0.371   9.553 -1.6544  0.4433  0.1188
  569MOL0     H75101   7.999   0.416   9.379  0.3584 -1.8906 -0.4563
  569MOL0     H75102   8.052   0.631   9.602 -1.4536 -0.6214 -0.6212
  569MOL0     H75103   8.107   0.637   9.432  0.8076 -1.1147 -0.9665
  569MOL0     H75104   8.230   0.451   9.630 -4.7394  0.7404 -0.1619
  569MOL0     H75105   8.276   0.459   9.461 -0.3805 -1.8623  0.6295
  569MOL0     H75106   8.450   0.807   9.638 -0.2039  0.5409  1.9660
  569MOL0     H75107   7.606   0.189   9.483  1.1424  0.0991 -0.3174
  569MOL0     H75108   7.370   0.196   9.488 -0.3038 -0.2689  0.5955
  570MOL0     O75109   0.197   9.316   9.809  0.2991 -0.2420  0.5428
  570MOL0     C75110   0.231   9.203   9.835 -0.7774  0.8404  0.9563
  570MOL0     O75111   0.150   9.090   9.849  0.6178  0.0796  0.2730
  570MOL0     C75112   0.023   9.081   9.807 -0.1339 -0.1685 -0.0193
  570MOL0     C75113  -0.018   9.135   9.688 -0.3161  0.4395 -0.0604
  570MOL0     C75114  -0.153   9.128   9.652  0.2398 -0.0858  0.2101
  570MOL0     C75115  -0.248   9.059   9.729 -0.0386  0.4488 -0.8303
  570MOL0     O75116  -0.385   9.043   9.706 -0.0003  0.3231  0.1545
  570MOL0     C75117  -0.443   9.173   9.658  0.8485 -0.5394  0.0302
  570MOL0     C75118  -0.595   9.168   9.642 -0.4017 -0.3788 -0.5447
  570MOL0     C75119  -0.647   9.067   9.532 -0.2095 -0.2816  0.3372
  570MOL0     C75120  -0.799   9.086   9.526  0.3625  0.3776 -0.1197
  570MOL0     C75121  -0.848   9.188   9.422 -0.4791  0.2692 -0.1469
  570MOL0     C75122  -0.860   9.143   9.272  0.9218 -0.8169 -0.0109
  570MOL0     C75123  -1.000   9.147   9.206  0.9136 -0.1627 -0.2496
  570MOL0     C75124  -1.091   9.045   9.274 -0.5166 -0.3217 -0.5236
  570MOL0     N75125  -1.198   9.014   9.180  0.0617  0.4512 -0.1711
  570MOL0     C75126  -1.322   9.076   9.180 -0.4334 -0.1386  0.2237
  570MOL0     C75127  -1.389   9.008   9.087 -0.0736 -0.0187  0.5366
  570MOL0     C75128  -1.539   9.030   9.071 -0.0577 -0.2925  0.8068
  570MOL0     C75129  -1.613   8.955   9.180 -0.7113  0.3296  0.4332
  570MOL0     C75130  -1.616   8.802   9.158 -0.1968  0.4032 -0.0598
  570MOL0     C75131  -1.733   8.753   9.240  0.4367 -0.4883  0.1846
  570MOL0     O75132  -1.864   8.813   9.210 -0.7812 -0.5800 -0.3197
  570MOL0     C75133  -1.983   8.765   9.268  1.1621 -0.0224 -0.4209
  570MOL0     C75134  -1.998   8.633   9.300  0.5010 -0.7509  0.4066
  570MOL0     C75135  -2.108   8.593   9.377  0.2285  0.1251  0.1963
  570MOL0     C75136  -2.206   8.679   9.431  0.7037  1.0079  0.6499
  570MOL0     C75137  -2.314   8.625   9.510  0.6220  0.0668 -0.0702
  570MOL0     O75138  -2.395   8.715   9.569  0.0372 -0.3952 -0.2759
  570MOL0     C75139  -2.497   8.678   9.659 -0.1018  0.0359  0.4398
  570MOL0     C75140  -2.558   8.556   9.676 -0.1336  0.3978 -0.0866
  570MOL0     C75141  -2.664   8.540   9.761  0.7995  0.0903 -1.0306
  570MOL0     C75142  -2.700   8.648   9.845  0.3433 -0.0594 -0.3641
  570MOL0     O75143  -2.797   8.614   9.934  0.5116  0.2794 -0.1644
  570MOL0     C75144  -2.815   8.690  10.056  0.2415 -0.2177  0.3219
  570MOL0     C75145  -2.682   8.678  10.129  0.5912 -1.1159 -0.0886
  570MOL0     C75146  -2.679   8.732  10.273 -0.4222  0.2129  0.3567
  570MOL0     C75147  -2.670   8.881  10.267 -0.4991 -0.7110  0.1685
  570MOL0     C75148  -2.668   8.954  10.408  0.2641 -0.0495  0.1443
  570MOL0     C75149  -2.806   8.943  10.481 -0.2509 -0.5186  0.7816
  570MOL0     C75150  -2.810   9.028  10.606  0.8155 -0.0036 -0.7227
  570MOL0     C75151  -2.715   8.986  10.720  1.0423  0.7241 -0.3846
  570MOL0    Cl75152  -2.776   8.830  10.792 -0.1380  0.7930  0.0034
  570MOL0     C75153  -2.643   8.773   9.825 -0.0664  0.4348 -1.0968
  570MOL0     C75154  -2.545   8.787   9.734  0.3365  0.1895  0.9232
  570MOL0     O75155  -2.312   8.503   9.527  0.0596 -0.3989 -0.4815
  570MOL0     C75156  -2.183   8.817   9.396  0.3167 -0.4039  0.0310
  570MOL0     C75157  -2.081   8.859   9.312 -1.0446 -0.2737 -0.0141
  570MOL0     N75158  -1.313   8.908   9.031  0.2461  0.0148  0.2184
  570MOL0     N75159  -1.203   8.919   9.080 -0.3093  0.6155 -1.1669
  570MOL0     C75160  -0.196   8.985   9.830 -0.0586 -0.3000  0.9315
  570MOL0     C75161  -0.068   8.992   9.874 -0.1390 -0.2226 -0.3688
  570MOL0     C75162   0.377   9.172   9.856 -0.3597 -0.0766 -0.2826
  570MOL0     C75163   0.478   9.274   9.849  0.1739 -0.3829 -0.3866
  570MOL0     C75164   0.617   9.239   9.871  0.4103 -0.4125 -0.8253
  570MOL0     C75165   0.654   9.111   9.914  0.2543  0.5860 -0.0352
  570MOL0     O75166   0.773   9.064   9.959  0.3797  0.3294 -0.6051
  570MOL0     C75167   0.889   9.149   9.980  0.5015  0.3333 -0.0918
  570MOL0     C75168   1.015   9.080   9.949 -0.7209 -0.6104 -0.2739
  570MOL0     C75169   1.128   9.178   9.977  1.0246 -0.8493 -0.1527
  570MOL0     C75170   1.263   9.129   9.965 -0.0346 -0.2305  0.1074
  570MOL0     C75171   1.303   9.134   9.821  0.2304  0.2425  0.1037
  570MOL0     C75172   1.325   9.161   9.702  0.6246  0.3598 -0.3722
  570MOL0     C75173   0.554   9.020   9.920 -0.0914  0.2366  0.7471
  570MOL0     C75174   0.425   9.042   9.887  0.4777  0.0315 -0.0923
  570MOL0     H75175   0.057   9.162   9.614 -0.1277 -1.1641 -0.4883
  570MOL0     H75176  -0.184   9.194   9.572  0.1477  1.5341  1.5203
  570MOL0     H75177  -0.402   9.200   9.560 -1.6219 -1.6737 -1.4158
  570MOL0     H75178  -0.438   9.258   9.727 -3.4122  1.9039 -2.2195
  570MOL0     H75179  -0.625   9.268   9.609 -0.5020 -0.7312 -1.5418
  570MOL0     H75180  -0.645   9.152   9.738 -0.3565 -2.3876 -0.8038
  570MOL0     H75181  -0.615   8.966   9.557 -1.2813 -0.5872  0.5092
  570MOL0     H75182  -0.608   9.098   9.435  0.7096  0.6875  0.9924
  570MOL0     H75183  -0.842   8.987   9.507  1.4247 -0.3415  0.9883
  570MOL0     H75184  -0.830   9.123   9.624 -3.8641 -0.1755 -1.0666
  570MOL0     H75185  -0.778   9.272   9.426  0.7945 -0.7608  0.0221
  570MOL0     H75186  -0.943   9.225   9.460  0.3150  1.4793  0.7410
  570MOL0     H75187  -0.827   9.039   9.260 -0.2918 -1.3253  0.8416
  570MOL0     H75188  -0.794   9.201   9.207 -0.8743  0.2940 -0.9089
  570MOL0     H75189  -1.042   9.247   9.199  1.1193 -0.1934 -2.5209
  570MOL0     H75190  -0.989   9.114   9.103  0.5835  1.0367 -0.6806
  570MOL0     H75191  -1.127   9.088   9.368  1.9879  3.5918 -1.1471
  570MOL0     H75192  -1.039   8.950   9.292  0.1860 -0.2506 -1.9994
  570MOL0     H75193  -1.348   9.155   9.250  0.0617  0.7413 -0.5767
  570MOL0     H75194  -1.563   8.997   8.969  3.5398  0.2669 -0.3664
  570MOL0     H75195  -1.554   9.138   9.079  2.7340  0.0925  2.0206
  570MOL0     H75196  -1.718   8.984   9.184 -1.0975 -1.1391  2.8121
  570MOL0     H75197  -1.567   8.973   9.278  0.2492  0.1848  0.0179
  570MOL0     H75198  -1.647   8.787   9.055 -0.4893 -0.9299  0.1971
  570MOL0     H75199  -1.527   8.747   9.191  1.9441  3.1985 -0.8968
  570MOL0     H75200  -1.709   8.775   9.345 -2.1554 -3.0234  1.4714
  570MOL0     H75201  -1.736   8.644   9.232  3.7834 -0.6755  0.2716
  570MOL0     H75202  -1.934   8.554   9.264 -0.0067 -0.9738 -0.0170
  570MOL0     H75203  -2.114   8.487   9.403  1.7364  0.2350  1.1709
  570MOL0     H75204  -2.538   8.476   9.606 -0.9629  1.7211 -1.9297
  570MOL0     H75205  -2.718   8.446   9.763 -0.8771  1.0198  0.0034
  570MOL0     H75206  -2.901   8.654  10.114 -0.1452  0.7124  0.3318
  570MOL0     H75207  -2.822   8.796  10.034  0.3354 -0.1485  0.6227
  570MOL0     H75208  -2.601   8.717  10.067  0.3595 -1.3553 -0.5511
  570MOL0     H75209  -2.661   8.572  10.148 -0.4039 -0.9906  1.9860
  570MOL0     H75210  -2.595   8.686  10.326  1.1594  1.1651 -1.2457
  570MOL0     H75211  -2.773   8.701  10.321 -0.3939  1.5844  1.3659
  570MOL0     H75212  -2.580   8.914  10.212 -0.4081 -0.4003  0.5018
  570MOL0     H75213  -2.756   8.926  10.217  0.9632  1.1288 -0.8810
  570MOL0     H75214  -2.631   9.056  10.394 -1.3663  0.6795  0.8257
  570MOL0     H75215  -2.596   8.906  10.474 -0.4276 -0.6802  0.4554
  570MOL0     H75216  -2.829   8.839  10.505 -1.2636 -0.2396  1.0905
  570MOL0     H75217  -2.894   8.970  10.421 -1.1992 -2.5458  1.1766
  570MOL0     H75218  -2.785   9.133  10.588  0.2387  0.6209  1.7095
  570MOL0     H75219  -2.911   9.031  10.648 -0.5481  0.9056 -3.7419
  570MOL0     H75220  -2.715   9.061  10.800 -0.4527 -1.2626  1.6041
  570MOL0     H75221  -2.608   8.988  10.696  0.5153  1.4879 -3.0218
  570MOL0     H75222  -2.664   8.862   9.885  0.6007  1.6444 -2.6020
  570MOL0     H75223  -2.486   8.877   9.724  0.6275 -0.2603 -3.9453
  570MOL0     H75224  -2.250   8.898   9.422 -1.8139 -1.3977 -2.0589
  570MOL0     H75225  -2.068   8.956   9.267 -1.4180 -0.9516 -1.6554
  570MOL0     H75226  -0.266   8.916   9.876 -2.4345  2.1623  1.2681
  570MOL0     H75227  -0.027   8.936   9.957  2.2007  1.3521 -0.3613
  570MOL0     H75228   0.449   9.376   9.826 -1.3901 -0.0088  2.7198
  570MOL0     H75229   0.698   9.312   9.874  1.1375 -1.2504  0.9702
  570MOL0     H75230   0.896   9.175  10.086  3.0396  0.8467 -0.3173
  570MOL0     H75231   0.886   9.247   9.929 -3.2042  1.3410  1.7150
  570MOL0     H75232   1.030   8.994  10.014 -0.3297  1.8460  3.1441
  570MOL0     H75233   1.014   9.048   9.844 -0.9805 -3.0726  0.4003
  570MOL0     H75234   1.113   9.215  10.079  0.5771 -0.2821 -0.4176
  570MOL0     H75235   1.108   9.265   9.914 -1.1918 -0.0607  1.4786
  570MOL0     H75236   1.331   9.190  10.025 -0.0813 -0.2385  0.1682
  570MOL0     H75237   1.273   9.026  10.003  0.8063 -0.3036 -0.3047
  570MOL0     H75238   1.341   9.202   9.604 -1.8709  0.4721 -0.7860
  570MOL0     H75239   0.600   8.933   9.967  1.3491  0.2395 -0.5473
  570MOL0     H75240   0.362   8.956   9.906  0.4004  0.3021  0.9736
  571MOL0     O75241   9.085   8.859   7.240  0.2640  0.6609 -0.4352
  571MOL0     C75242   9.159   8.918   7.314 -0.0152 -0.5337 -0.0703
  571MOL0     O75243   9.119   8.997   7.423 -0.3875  0.2073 -0.4759
  571MOL0     C75244   8.989   9.023   7.436 -0.4965  0.2278  0.1141
  571MOL0     C75245   8.956   9.158   7.456 -0.0316  0.6872 -0.5989
  571MOL0     C75246   8.823   9.200   7.476  0.2099 -0.4121  0.1660
  571MOL0     C75247   8.719   9.097   7.481 -0.0228  0.8010 -0.1277
  571MOL0     O75248   8.592   9.141   7.506  0.2786 -0.2444  0.2799
  571MOL0     C75249   8.485   9.059   7.458  1.3234  0.5213  0.2856
  571MOL0     C75250   8.351   9.124   7.513  0.4145 -0.1368  0.6504
  571MOL0     C75251   8.343   9.278   7.476 -0.7968  0.5666 -1.1385
  571MOL0     C75252   8.198   9.321   7.509  0.5996 -0.9307  0.3060
  571MOL0     C75253   8.173   9.473   7.485  0.0520  0.5168 -0.1668
  571MOL0     C75254   8.024   9.490   7.471  0.6946 -0.7848  0.3212
  571MOL0     C75255   7.982   9.624   7.419 -0.7291 -0.2099  0.2605
  571MOL0     C75256   7.828   9.637   7.431 -0.3954  0.0721  0.1415
  571MOL0     N75257   7.778   9.747   7.340 -0.2603  0.5731 -0.4941
  571MOL0     C75258   7.783   9.880   7.375  0.0600 -0.0360  0.6095
  571MOL0     C75259   7.746   9.947   7.258  0.3433  0.0416  0.2991
  571MOL0     C75260   7.734  10.096   7.244 -0.4742 -0.3874 -0.1959
  571MOL0     C75261   7.592  10.153   7.250  0.2185 -0.4456 -0.4191
  571MOL0     C75262   7.507  10.108   7.125  0.0985  0.4082 -0.1363
  571MOL0     C75263   7.367  10.159   7.117  0.0650 -0.0586  0.5953
  571MOL0     O75264   7.363  10.291   7.068  0.0645 -0.4451 -0.2506
  571MOL0     C75265   7.253  10.372   7.088  0.0164  0.2794  0.4839
  571MOL0     C75266   7.141  10.330   7.161 -0.2646 -0.6011 -0.3877
  571MOL0     C75267   7.033  10.419   7.153  0.2090 -0.4262 -0.8636
  571MOL0     C75268   7.030  10.540   7.077 -1.0227  0.1152 -0.3986
  571MOL0     C75269   6.912  10.632   7.070  0.0193 -0.0646  0.2838
  571MOL0     O75270   6.798  10.591   7.126  0.8884 -0.4036  0.3630
  571MOL0     C75271   6.683  10.663   7.125  0.1226  0.4430  0.7880
  571MOL0     C75272   6.636  10.765   7.042 -0.4763 -0.1297 -0.1713
  571MOL0     C75273   6.505  10.817   7.041 -0.1385  0.7329  0.1699
  571MOL0     C75274   6.427  10.777   7.140  1.4135  0.5524 -0.3698
  571MOL0     O75275   6.294  10.817   7.142 -0.0208 -0.6734  0.1876
  571MOL0     C75276   6.216  10.792   7.024 -0.9221  0.0895 -0.2953
  571MOL0     C75277   6.077  10.852   7.044 -0.2729  0.0713 -0.3152
  571MOL0     C75278   5.993  10.828   6.915  0.4110  1.0241  1.1347
  571MOL0     C75279   5.886  10.935   6.908  0.4853  0.0607 -0.0487
  571MOL0     C75280   5.791  10.897   6.795  0.1894 -0.6081  0.0946
  571MOL0     C75281   5.678  11.012   6.789  0.2411 -0.2099 -0.1952
  571MOL0     C75282   5.729  11.166   6.778  0.3374  0.1143  0.2688
  571MOL0     C75283   5.616  11.270   6.782 -0.5628  0.7854 -0.2538
  571MOL0    Cl75284   5.670  11.437   6.811  0.5281  0.4523 -0.0680
  571MOL0     C75285   6.466  10.679   7.229  0.0106  0.1577 -1.1748
  571MOL0     C75286   6.594  10.622   7.220  0.5875  0.0225 -1.0289
  571MOL0     O75287   6.922  10.726   6.996 -0.0517 -0.2903 -0.5789
  571MOL0     C75288   7.149  10.566   7.005 -0.2490  0.4206 -0.0599
  571MOL0     C75289   7.258  10.491   7.024 -0.5861  0.5287 -0.3750
  571MOL0     N75290   7.715   9.855   7.165  0.0352 -0.4545 -0.0521
  571MOL0     N75291   7.741   9.738   7.210 -0.4681  0.2747  0.3022
  571MOL0     C75292   8.753   8.966   7.451  0.4337 -0.0729 -1.4235
  571MOL0     C75293   8.883   8.928   7.439 -0.4597  0.4565  0.0214
  571MOL0     C75294   9.311   8.900   7.304  0.0703  0.6091  0.3354
  571MOL0     C75295   9.366   8.912   7.177  0.4423  0.1236  0.4018
  571MOL0     C75296   9.503   8.909   7.160  0.2239 -0.1880  0.7942
  571MOL0     C75297   9.586   8.891   7.265  0.7639 -0.9544 -0.8586
  571MOL0     O75298   9.721   8.877   7.237  0.6406 -0.8566 -0.4364
  571MOL0     C75299   9.803   8.987   7.279  0.9217  0.5008  0.2226
  571MOL0     C75300   9.942   8.955   7.312 -0.0812  0.4094  0.0086
  571MOL0     C75301   9.949   8.854   7.418 -0.2951  0.5107 -0.9193
  571MOL0     C75302  10.044   8.735   7.374 -0.2108 -0.0500  0.0079
  571MOL0     C75303  10.048   8.622   7.467 -0.3128  0.8640 -0.6019
  571MOL0     C75304  10.045   8.518   7.534 -0.4369  0.2203  0.3228
  571MOL0     C75305   9.536   8.901   7.396  0.2209  0.5780 -0.2411
  571MOL0     C75306   9.397   8.903   7.414  0.6175  0.1661 -0.5230
  571MOL0     H75307   9.033   9.233   7.442  1.5217 -0.6392  0.5796
  571MOL0     H75308   8.805   9.306   7.490  1.5381 -0.3471  1.6370
  571MOL0     H75309   8.486   8.956   7.494 -0.9885  0.9225  1.6887
  571MOL0     H75310   8.484   9.048   7.349 -2.2635 -0.9348  0.3111
  571MOL0     H75311   8.344   9.109   7.621 -0.0710  0.1851  0.6688
  571MOL0     H75312   8.269   9.069   7.467 -0.0846  1.4252 -0.4327
  571MOL0     H75313   8.364   9.298   7.371 -0.8531  3.4422 -0.6928
  571MOL0     H75314   8.427   9.326   7.527  0.1436 -0.4382 -1.6917
  571MOL0     H75315   8.133   9.267   7.440  0.3027  1.9079 -1.8092
  571MOL0     H75316   8.176   9.293   7.613  1.4155  0.9999  1.0386
  571MOL0     H75317   8.224   9.497   7.391 -0.9422 -0.8434 -1.0903
  571MOL0     H75318   8.224   9.524   7.568 -1.5270  0.2119  1.0277
  571MOL0     H75319   7.980   9.468   7.569 -4.5738 -2.5429 -2.0507
  571MOL0     H75320   7.987   9.409   7.408 -0.7239 -0.6387  0.9154
  571MOL0     H75321   8.016   9.701   7.488 -1.6029  0.0133  0.4615
  571MOL0     H75322   8.019   9.633   7.316  0.5600  0.5706  0.7665
  571MOL0     H75323   7.792   9.657   7.532 -2.0477 -2.5342  0.1487
  571MOL0     H75324   7.793   9.541   7.392  1.4622 -2.0170  3.1893
  571MOL0     H75325   7.820   9.917   7.469 -0.2216  0.4889  0.5161
  571MOL0     H75326   7.765  10.125   7.143 -2.3022 -0.2570 -0.7547
  571MOL0     H75327   7.805  10.147   7.310  0.5826  0.5016 -1.9460
  571MOL0     H75328   7.598  10.261   7.260  1.4281 -0.4757 -0.6604
  571MOL0     H75329   7.546  10.124   7.345  1.7927  2.8964  1.5451
  571MOL0     H75330   7.555  10.140   7.031 -0.9023  1.1881 -0.3988
  571MOL0     H75331   7.498  10.001   7.142  3.4784  0.0825  0.3796
  571MOL0     H75332   7.318  10.147   7.214 -0.6643 -2.2277  0.0091
  571MOL0     H75333   7.300  10.101   7.053 -1.1457 -0.1675  1.9064
  571MOL0     H75334   7.136  10.239   7.219  2.7190  0.4671  1.8059
  571MOL0     H75335   6.944  10.395   7.210  0.0981 -0.9544 -1.2533
  571MOL0     H75336   6.696  10.801   6.959 -0.7117  1.6324  0.3786
  571MOL0     H75337   6.464  10.897   6.979 -1.5618  1.4345  1.9043
  571MOL0     H75338   6.207  10.683   7.012 -1.0092  0.2938 -2.6456
  571MOL0     H75339   6.257  10.831   6.930 -2.1889 -1.7527 -1.7136
  571MOL0     H75340   6.092  10.961   7.044 -0.5073  0.2089 -3.5450
  571MOL0     H75341   6.040  10.827   7.144  1.3074 -0.2468  0.2178
  571MOL0     H75342   5.950  10.729   6.900 -2.5313  2.1774  1.1644
  571MOL0     H75343   6.056  10.834   6.825 -2.9391 -1.1248 -1.6280
  571MOL0     H75344   5.833  10.934   7.003 -1.0960 -2.3403 -0.8465
  571MOL0     H75345   5.939  11.029   6.888 -1.0949  1.3940  1.7375
  571MOL0     H75346   5.753  10.795   6.805 -0.5303 -0.3969 -0.4036
  571MOL0     H75347   5.849  10.898   6.702 -1.2067 -1.2464 -0.8195
  571MOL0     H75348   5.629  10.993   6.885  2.3502  1.0212  1.2236
  571MOL0     H75349   5.609  10.994   6.706  0.4749 -4.2930  0.2934
  571MOL0     H75350   5.798  11.186   6.861 -1.3216  0.6394  1.5753
  571MOL0     H75351   5.782  11.176   6.683 -0.7056  2.1427 -0.1595
  571MOL0     H75352   5.553  11.235   6.864  1.3976  4.4028  3.1449
  571MOL0     H75353   5.556  11.256   6.691  0.4988 -2.9962 -0.5130
  571MOL0     H75354   6.397  10.672   7.313 -1.1355  1.4897 -1.9541
  571MOL0     H75355   6.614  10.548   7.297  0.0733 -1.3229 -2.1506
  571MOL0     H75356   7.161  10.659   6.950  0.3150  1.6966  2.1017
  571MOL0     H75357   7.350  10.524   6.975 -1.6640  2.1170 -1.4181
  571MOL0     H75358   8.671   8.895   7.446 -0.3941  0.5873  1.2734
  571MOL0     H75359   8.907   8.823   7.436 -0.3406  0.4994 -1.7625
  571MOL0     H75360   9.305   8.923   7.088 -0.9798  2.3874  1.5695
  571MOL0     H75361   9.533   8.922   7.056 -2.1806 -1.5017 -0.1468
  571MOL0     H75362   9.754   9.040   7.361  1.3535  1.1652  0.0610
  571MOL0     H75363   9.792   9.056   7.194  2.9775  1.3332  0.5835
  571MOL0     H75364   9.980   8.914   7.217  1.4310 -0.2609  0.8706
  571MOL0     H75365  10.003   9.045   7.329 -0.2780  0.5265  0.0900
  571MOL0     H75366   9.848   8.813   7.433 -0.4063  1.1652  0.1612
  571MOL0     H75367   9.977   8.910   7.507  0.0455  2.0548 -1.9642
  571MOL0     H75368  10.003   8.697   7.280  1.3572 -0.7513 -0.4259
  571MOL0     H75369  10.147   8.773   7.371 -0.6147  1.7654  3.4781
  571MOL0     H75370  10.037   8.427   7.589 -0.2496 -0.4810 -0.7717
  571MOL0     H75371   9.609   8.881   7.474 -2.2766  0.8701  2.3281
  571MOL0     H75372   9.354   8.898   7.514 -1.4363  2.0255 -1.2292
  572MOL0     O75373  10.595   9.375   5.927 -0.3290  0.3855 -0.1287
  572MOL0     C75374  10.671   9.463   5.954  0.0971 -0.0721 -0.0491
  572MOL0     O75375  10.639   9.574   6.031  0.5674 -0.1661  0.4756
  572MOL0     C75376  10.514   9.587   6.082 -1.1627  0.6521 -1.0208
  572MOL0     C75377  10.477   9.522   6.209 -0.2387 -0.9345 -0.1089
  572MOL0     C75378  10.344   9.527   6.246  0.5676 -1.1647 -0.7587
  572MOL0     C75379  10.239   9.582   6.163 -0.5139  1.0098 -0.2897
  572MOL0     O75380  10.109   9.587   6.209 -0.1225  0.6844 -0.2978
  572MOL0     C75381  10.005   9.555   6.103  0.3064 -0.3575  0.2021
  572MOL0     C75382   9.880   9.499   6.180 -0.4122 -0.1649 -0.4125
  572MOL0     C75383   9.758   9.487   6.091 -0.2544  0.4846 -1.0991
  572MOL0     C75384   9.789   9.439   5.946 -0.3578  0.5401  0.5962
  572MOL0     C75385   9.656   9.411   5.875  0.1738 -0.1765  0.3345
  572MOL0     C75386   9.672   9.327   5.750  0.6881 -0.3566  0.1424
  572MOL0     C75387   9.541   9.292   5.673 -0.4521 -0.3286 -0.3882
  572MOL0     C75388   9.452   9.404   5.626  0.1175  0.1321  0.6961
  572MOL0     N75389   9.363   9.340   5.527  0.6071 -0.0863  0.4780
  572MOL0     C75390   9.275   9.239   5.555 -0.1497  1.5027  0.2690
  572MOL0     C75391   9.209   9.221   5.438  1.2151  0.8212  1.1461
  572MOL0     C75392   9.120   9.098   5.417  0.0511  0.3223  0.1010
  572MOL0     C75393   8.973   9.127   5.452  0.8258  1.0667  0.0982
  572MOL0     C75394   8.911   9.249   5.374  0.1682 -0.0814 -0.8262
  572MOL0     C75395   8.777   9.273   5.440  0.7721  0.0146 -0.1147
  572MOL0     O75396   8.690   9.174   5.386  0.3377 -0.1509  0.1384
  572MOL0     C75397   8.562   9.224   5.349 -0.7198  0.2226  0.0484
  572MOL0     C75398   8.475   9.308   5.428  0.3903  0.2112 -0.0216
  572MOL0     C75399   8.348   9.340   5.382  0.8185 -0.7705  0.2763
  572MOL0     C75400   8.305   9.298   5.256 -0.9873  0.1653  0.6202
  572MOL0     C75401   8.169   9.329   5.191 -0.1706  0.5024  0.3799
  572MOL0     O75402   8.103   9.434   5.252 -0.3758 -0.0915  0.0026
  572MOL0     C75403   7.998   9.508   5.190 -0.0504 -0.4298  0.6804
  572MOL0     C75404   7.933   9.602   5.277  0.5296  0.1707 -0.0830
  572MOL0     C75405   7.842   9.693   5.227 -0.1183 -0.3336 -1.5829
  572MOL0     C75406   7.808   9.694   5.094 -0.8546 -0.1115  0.6652
  572MOL0     O75407   7.736   9.807   5.055  0.0850  0.1140 -0.8789
  572MOL0     C75408   7.729   9.833   4.914 -0.0863 -0.3913  0.7259
  572MOL0     C75409   7.670   9.978   4.901  1.1359 -0.1836  0.0227
  572MOL0     C75410   7.526   9.988   4.957 -0.6414 -0.1394 -0.2066
  572MOL0     C75411   7.473  10.127   4.926  0.7754 -0.7148  0.1409
  572MOL0     C75412   7.319  10.118   4.907  0.3358 -0.0271 -0.6250
  572MOL0     C75413   7.265  10.260   4.874 -0.5782  0.0389 -0.4069
  572MOL0     C75414   7.120  10.240   4.834 -0.3542 -0.3269 -0.0627
  572MOL0     C75415   7.056  10.372   4.786  0.3447  0.3963 -0.8614
  572MOL0    Cl75416   7.128  10.407   4.616  0.2058 -0.2445 -0.0726
  572MOL0     C75417   7.862   9.599   5.008 -0.5301  0.3542  0.2315
  572MOL0     C75418   7.952   9.505   5.054 -0.4185  0.6461  0.5162
  572MOL0     O75419   8.121   9.262   5.095 -0.2795 -0.0193  0.0972
  572MOL0     C75420   8.397   9.229   5.169  1.2546 -0.2822 -0.2977
  572MOL0     C75421   8.517   9.180   5.228  0.7319 -0.0077  0.4787
  572MOL0     N75422   9.248   9.319   5.352 -0.1973  0.0084  0.3162
  572MOL0     N75423   9.350   9.383   5.400  0.7380 -0.2077  0.1640
  572MOL0     C75424  10.277   9.637   6.042  0.2031 -0.0197  0.1065
  572MOL0     C75425  10.413   9.642   6.003  0.0400 -0.0392  0.6806
  572MOL0     C75426  10.802   9.447   5.892  0.0046 -0.6065 -0.2438
  572MOL0     C75427  10.830   9.348   5.799 -0.0073 -0.6128 -0.1031
  572MOL0     C75428  10.959   9.342   5.748 -0.1986 -0.2396 -0.1927
  572MOL0     C75429  11.056   9.445   5.765 -1.1395  0.8796 -0.2395
  572MOL0     O75430  11.179   9.446   5.716 -0.0326  0.6706  0.7155
  572MOL0     C75431  11.211   9.348   5.605 -0.6437 -0.2766 -0.1237
  572MOL0     C75432  11.342   9.403   5.532  0.7133  0.1767 -0.2135
  572MOL0     C75433  11.463   9.371   5.630 -0.4352  1.4811 -0.4225
  572MOL0     C75434  11.591   9.443   5.605  0.5398 -0.1824  0.2273
  572MOL0     C75435  11.697   9.362   5.670  0.5602 -0.0071  0.2991
  572MOL0     C75436  11.773   9.276   5.702  0.1648  0.0694 -0.1398
  572MOL0     C75437  11.025   9.552   5.852  0.5158  0.4976 -0.1464
  572MOL0     C75438  10.901   9.554   5.912  0.2656  0.4250  0.2339
  572MOL0     H75439  10.544   9.471   6.278  2.0697  1.6266 -0.2867
  572MOL0     H75440  10.313   9.478   6.338  0.6916  0.3660  0.1347
  572MOL0     H75441  10.039   9.485   6.026  2.0119  0.6109  0.0333
  572MOL0     H75442   9.989   9.648   6.048  0.9698 -1.6080 -2.2698
  572MOL0     H75443   9.860   9.562   6.267  2.2423 -2.8324  2.3464
  572MOL0     H75444   9.900   9.400   6.222 -1.4000 -0.7619 -1.3003
  572MOL0     H75445   9.714   9.586   6.074  0.7751  1.1633 -0.0063
  572MOL0     H75446   9.680   9.432   6.144 -2.2999  2.3309 -2.0032
  572MOL0     H75447   9.842   9.504   5.876 -2.4527  1.1079 -0.5699
  572MOL0     H75448   9.844   9.345   5.951 -0.2161  0.6727  2.1091
  572MOL0     H75449   9.614   9.507   5.843  1.5838 -0.4324 -2.6011
  572MOL0     H75450   9.580   9.365   5.939  0.8751  0.7155  1.8548
  572MOL0     H75451   9.708   9.230   5.784 -1.6219 -1.1101  0.6243
  572MOL0     H75452   9.747   9.375   5.687  0.8188 -1.4963 -0.5971
  572MOL0     H75453   9.576   9.238   5.585  0.7632 -0.8403  0.3712
  572MOL0     H75454   9.480   9.225   5.736  1.4217 -0.9484  0.8549
  572MOL0     H75455   9.514   9.475   5.571  0.8100 -2.6405 -2.3836
  572MOL0     H75456   9.402   9.452   5.711  0.1857  0.4393  0.5640
  572MOL0     H75457   9.271   9.170   5.638  0.5630  1.9396  0.6724
  572MOL0     H75458   9.158   9.013   5.475  1.6668 -1.4629 -3.2502
  572MOL0     H75459   9.124   9.066   5.312 -2.9918  1.8439 -0.5822
  572MOL0     H75460   8.983   9.132   5.560 -1.0030 -3.6347  0.7461
  572MOL0     H75461   8.915   9.037   5.428 -1.4936  1.9137  2.1702
  572MOL0     H75462   8.971   9.340   5.383 -0.4918  0.1733  1.6563
  572MOL0     H75463   8.893   9.230   5.267  0.7870 -0.0781 -0.9377
  572MOL0     H75464   8.732   9.368   5.411 -1.0075 -0.4588  0.8896
  572MOL0     H75465   8.783   9.267   5.549  2.0797  0.7579 -0.1293
  572MOL0     H75466   8.501   9.347   5.526  1.8542  1.1568 -0.7443
  572MOL0     H75467   8.280   9.398   5.443  2.3082  0.6917  0.6137
  572MOL0     H75468   7.972   9.597   5.378  1.6896 -0.2554 -0.5360
  572MOL0     H75469   7.795   9.773   5.284 -0.0875 -1.8333  0.6459
  572MOL0     H75470   7.657   9.765   4.869 -2.4924  0.4598  2.9917
  572MOL0     H75471   7.826   9.838   4.864 -1.1271 -1.7293 -1.5945
  572MOL0     H75472   7.664   9.994   4.793 -2.6005  0.7249  0.2470
  572MOL0     H75473   7.738  10.039   4.961 -0.4694 -0.5429  2.3717
  572MOL0     H75474   7.522   9.969   5.065 -0.1020 -0.3156 -0.2142
  572MOL0     H75475   7.472   9.904   4.912 -2.2733  0.4700  0.5326
  572MOL0     H75476   7.480  10.197   5.010 -0.5453  2.0951 -1.9046
  572MOL0     H75477   7.514  10.170   4.833 -1.2960  1.3937  0.0959
  572MOL0     H75478   7.267  10.088   4.998 -0.3677  2.4690 -0.1477
  572MOL0     H75479   7.304  10.043   4.828 -1.4065 -0.3266 -0.0410
  572MOL0     H75480   7.326  10.302   4.794  0.5872  1.2691  1.0864
  572MOL0     H75481   7.276  10.333   4.955 -0.4258  0.3598 -0.7185
  572MOL0     H75482   7.099  10.162   4.760 -1.5631  0.0356 -0.1272
  572MOL0     H75483   7.075  10.202   4.926  1.6653  0.6013  1.3599
  572MOL0     H75484   7.071  10.452   4.859 -1.2953  0.4130 -0.5006
  572MOL0     H75485   6.949  10.358   4.768  0.9771 -0.6065 -4.6681
  572MOL0     H75486   7.836   9.592   4.903 -0.9628  1.4418  0.2519
  572MOL0     H75487   8.002   9.434   4.988  2.5839  1.5689  1.6086
  572MOL0     H75488   8.362   9.198   5.071  0.5541  2.7410 -1.0966
  572MOL0     H75489   8.583   9.122   5.165  0.3596 -0.8103  0.8100
  572MOL0     H75490  10.204   9.669   5.968  1.3512  0.6024 -0.7908
  572MOL0     H75491  10.425   9.692   5.908 -0.4114  0.4311  0.8625
  572MOL0     H75492  10.753   9.274   5.787  0.4997 -1.0187 -0.9085
  572MOL0     H75493  10.984   9.262   5.679 -1.7309  0.0313 -1.1056
  572MOL0     H75494  11.128   9.348   5.533 -0.3374 -0.2406 -0.4791
  572MOL0     H75495  11.227   9.250   5.651  1.0026  0.0516  0.0692
  572MOL0     H75496  11.354   9.358   5.432  0.6490  1.3564 -0.7706
  572MOL0     H75497  11.336   9.512   5.521  1.1153  0.4075  1.6791
  572MOL0     H75498  11.488   9.266   5.612  0.0913  1.7214 -1.1205
  572MOL0     H75499  11.428   9.383   5.733 -1.1799 -0.9026 -0.3216
  572MOL0     H75500  11.611   9.458   5.499 -4.3037  1.2785 -0.7140
  572MOL0     H75501  11.585   9.534   5.665  2.1692  1.4719 -1.9676
  572MOL0     H75502  11.856   9.223   5.744 -0.3689  0.7278  1.8678
  572MOL0     H75503  11.088   9.637   5.874 -1.8111  2.5300 -0.8611
  572MOL0     H75504  10.882   9.648   5.964  0.2281  1.6841 -1.9157
  573MOL0     O75505   9.063   1.471  11.085  0.2021 -0.3839 -0.5983
  573MOL0     C75506   9.087   1.579  11.029  0.3038  0.9063  0.3209
  573MOL0     O75507   9.012   1.685  11.025  0.0666  0.1743 -0.3664
  573MOL0     C75508   8.890   1.676  11.092 -0.0801 -0.5089 -0.2652
  573MOL0     C75509   8.788   1.585  11.047 -0.0379  0.1239 -0.5207
  573MOL0     C75510   8.673   1.571  11.111  0.9431  0.7065 -0.4656
  573MOL0     C75511   8.641   1.645  11.227 -0.3425  0.0906  1.1313
  573MOL0     O75512   8.531   1.622  11.301 -0.3568 -0.4710 -0.4240
  573MOL0     C75513   8.411   1.597  11.226 -0.2122 -0.4131  0.5742
  573MOL0     C75514   8.368   1.452  11.231  0.3808  0.4566 -0.6289
  573MOL0     C75515   8.243   1.410  11.165  1.2303 -0.0443 -0.0677
  573MOL0     C75516   8.236   1.253  11.159  0.1665 -0.1608 -0.2799
  573MOL0     C75517   8.100   1.179  11.160 -0.3353  0.3901  0.1391
  573MOL0     C75518   7.993   1.234  11.253 -0.2011 -0.2770  0.2577
  573MOL0     C75519   8.013   1.195  11.399 -0.6377 -0.0337  0.7064
  573MOL0     C75520   8.026   1.306  11.507  0.0112  0.1305 -0.1551
  573MOL0     N75521   8.006   1.248  11.636  0.4003 -0.7919  0.0178
  573MOL0     C75522   8.084   1.262  11.745 -0.0885 -0.2872  0.1158
  573MOL0     C75523   8.013   1.231  11.854 -0.1093  0.1087  0.1056
  573MOL0     C75524   8.065   1.237  11.996 -0.1091  0.2384 -0.9256
  573MOL0     C75525   7.974   1.317  12.094  0.4163  0.3136 -0.8381
  573MOL0     C75526   7.879   1.230  12.170  1.1247  0.5689 -0.4588
  573MOL0     C75527   7.785   1.312  12.262  0.5311  0.5009  0.5761
  573MOL0     O75528   7.698   1.389  12.176  0.0393  0.1940  0.1136
  573MOL0     C75529   7.584   1.320  12.131 -0.3157 -0.3625 -0.4451
  573MOL0     C75530   7.579   1.287  11.994 -0.0323  0.2093  0.6409
  573MOL0     C75531   7.471   1.209  11.941 -0.3026 -0.7141  0.6105
  573MOL0     C75532   7.355   1.188  12.023  0.6722 -0.1756 -0.0764
  573MOL0     C75533   7.236   1.115  11.966 -0.2810 -0.2508  0.6969
  573MOL0     O75534   7.127   1.116  12.048  0.8603 -0.3761 -0.4772
  573MOL0     C75535   7.018   1.023  12.033 -0.1284 -0.8658  0.2355
  573MOL0     C75536   7.044   0.899  11.974 -0.0751 -0.5862  0.2264
  573MOL0     C75537   6.938   0.814  11.951  0.8913  0.2367 -0.3294
  573MOL0     C75538   6.804   0.861  11.959 -1.4832  0.3210  0.0816
  573MOL0     O75539   6.708   0.770  11.939 -0.0066 -0.2954  0.6321
  573MOL0     C75540   6.568   0.797  11.966 -1.0299 -0.7748 -0.8440
  573MOL0     C75541   6.492   0.676  11.910 -1.1837  0.4525 -0.2588
  573MOL0     C75542   6.342   0.719  11.895 -0.4142 -0.4431 -0.4409
  573MOL0     C75543   6.279   0.724  12.033  0.4790 -0.0735  0.5881
  573MOL0     C75544   6.133   0.704  12.038  0.5400 -0.1121  0.1128
  573MOL0     C75545   6.090   0.561  11.998  0.1671  0.2716  1.1205
  573MOL0     C75546   5.932   0.531  12.001 -0.8474  0.2559  0.7654
  573MOL0     C75547   5.868   0.655  11.947  0.1860 -0.3489  0.0686
  573MOL0    Cl75548   5.680   0.644  11.958 -0.3832  0.0695  0.0242
  573MOL0     C75549   6.776   0.986  12.008 -1.5230  0.2435 -0.1634
  573MOL0     C75550   6.890   1.070  12.043 -0.1818  0.0945  0.3596
  573MOL0     O75551   7.229   1.078  11.846  0.2338  0.4680 -0.1616
  573MOL0     C75552   7.354   1.232  12.158  0.5474 -0.6930  0.9062
  573MOL0     C75553   7.468   1.301  12.210 -0.0145  0.1495 -1.0556
  573MOL0     N75554   7.892   1.182  11.809  0.0670 -0.4507  1.2904
  573MOL0     N75555   7.883   1.189  11.682 -0.3189  0.9313  0.3693
  573MOL0     C75556   8.739   1.744  11.272  0.3875  0.4256 -0.5085
  573MOL0     C75557   8.854   1.763  11.193 -0.5309  0.4193  0.0255
  573MOL0     C75558   9.206   1.576  10.944 -0.4275 -0.4354  0.6915
  573MOL0     C75559   9.266   1.453  10.902 -0.8486  0.2261 -0.4780
  573MOL0     C75560   9.383   1.456  10.826  0.2670 -0.2302  0.0256
  573MOL0     C75561   9.447   1.578  10.790 -0.3695 -0.2015  0.4894
  573MOL0     O75562   9.550   1.570  10.698  0.4992  0.4827 -0.0491
  573MOL0     C75563   9.607   1.692  10.657 -0.1133  0.2738 -0.3802
  573MOL0     C75564   9.705   1.659  10.537  0.7775  0.2246  0.2931
  573MOL0     C75565   9.777   1.787  10.489 -0.1287 -0.2292 -0.3489
  573MOL0     C75566   9.879   1.760  10.384 -0.1390  0.8838  0.1179
  573MOL0     C75567   9.995   1.687  10.435 -0.7720 -0.8991 -0.5105
  573MOL0     C75568  10.102   1.632  10.466  1.4576  0.4609 -0.4455
  573MOL0     C75569   9.383   1.696  10.832 -0.2612 -1.0505  0.0636
  573MOL0     C75570   9.268   1.694  10.905 -0.0075 -0.4292 -0.3503
  573MOL0     H75571   8.808   1.522  10.961  0.2551 -2.1432  1.1198
  573MOL0     H75572   8.606   1.494  11.073  0.9091  1.1322 -1.2867
  573MOL0     H75573   8.416   1.633  11.123 -2.9115  1.2156  0.9142
  573MOL0     H75574   8.330   1.660  11.265  0.5481  1.2715 -0.4700
  573MOL0     H75575   8.351   1.431  11.337 -1.1580 -1.8241 -1.2604
  573MOL0     H75576   8.457   1.394  11.203  0.3815 -0.3163  0.9153
  573MOL0     H75577   8.229   1.437  11.060 -5.1775 -1.9458 -0.1293
  573MOL0     H75578   8.160   1.448  11.226  0.4163 -3.4254  1.1721
  573MOL0     H75579   8.292   1.222  11.070  3.4198 -0.5417  1.7380
  573MOL0     H75580   8.301   1.218  11.240 -0.9329  0.2066  0.7914
  573MOL0     H75581   8.120   1.073  11.181  2.8876  0.7425 -0.6332
  573MOL0     H75582   8.067   1.192  11.056  3.1925 -0.2917 -1.2169
  573MOL0     H75583   7.900   1.195  11.211  1.0522 -3.1694 -0.0610
  573MOL0     H75584   7.975   1.342  11.241 -2.2689 -0.7832 -2.1899
  573MOL0     H75585   7.921   1.139  11.420 -2.7571  2.9179 -0.0763
  573MOL0     H75586   8.094   1.123  11.409 -1.3196 -0.7360  1.3426
  573MOL0     H75587   7.955   1.386  11.481 -1.8880 -1.5620 -0.4760
  573MOL0     H75588   8.127   1.347  11.498  0.7640 -1.6164 -0.0419
  573MOL0     H75589   8.186   1.300  11.738 -0.8226  1.4471 -2.5760
  573MOL0     H75590   8.157   1.297  11.992 -0.4415  0.6925 -2.8439
  573MOL0     H75591   8.075   1.138  12.040 -2.4847 -0.4865 -1.9014
  573MOL0     H75592   7.905   1.387  12.046 -1.7435  0.5140  2.2140
  573MOL0     H75593   8.030   1.372  12.171 -2.6309  3.1714 -0.4099
  573MOL0     H75594   7.823   1.170  12.098  2.0192  1.0988 -1.6155
  573MOL0     H75595   7.932   1.164  12.240  3.1777  1.5220 -1.0465
  573MOL0     H75596   7.844   1.367  12.335 -1.1656  3.7643 -0.3098
  573MOL0     H75597   7.726   1.234  12.312 -3.1473  1.3933 -1.8828
  573MOL0     H75598   7.673   1.302  11.943  0.5505 -1.1567  1.2570
  573MOL0     H75599   7.472   1.174  11.839 -2.5922  1.5137 -0.3007
  573MOL0     H75600   7.139   0.863  11.934  0.4002  1.6271 -0.8442
  573MOL0     H75601   6.942   0.715  11.905 -1.8529  0.5836 -1.5545
  573MOL0     H75602   6.537   0.890  11.918  1.9624 -0.2750 -2.0603
  573MOL0     H75603   6.550   0.796  12.074  1.0830 -0.3968 -0.4564
  573MOL0     H75604   6.496   0.587  11.974 -3.6199  0.7914  0.4617
  573MOL0     H75605   6.545   0.655  11.817  3.9542  0.9693  2.2038
  573MOL0     H75606   6.302   0.633  11.841  1.4367 -1.0662 -0.9092
  573MOL0     H75607   6.324   0.805  11.830 -2.5073 -1.5171 -1.3937
  573MOL0     H75608   6.322   0.642  12.090  0.3627 -0.4203  0.1792
  573MOL0     H75609   6.304   0.822  12.075 -2.4918  2.1841 -2.3436
  573MOL0     H75610   6.084   0.787  11.986 -2.9731 -2.3045 -0.4228
  573MOL0     H75611   6.094   0.724  12.138  0.0424 -1.8292  0.2852
  573MOL0     H75612   6.128   0.481  12.062 -0.4782 -2.0013 -1.1623
  573MOL0     H75613   6.123   0.531  11.898  3.0067 -0.4637  2.1769
  573MOL0     H75614   5.914   0.438  11.948  4.7011 -1.3526  0.9891
  573MOL0     H75615   5.904   0.518  12.106  2.0049 -1.1763  1.4615
  573MOL0     H75616   5.907   0.690  11.851 -0.9661  1.6225  0.2505
  573MOL0     H75617   5.893   0.737  12.015  4.6793 -0.0876 -1.5494
  573MOL0     H75618   6.675   1.023  12.017 -2.2017 -1.7532  1.1061
  573MOL0     H75619   6.873   1.173  12.073  1.4760  0.6563 -0.5273
  573MOL0     H75620   7.276   1.223  12.233  3.5343  2.5364  4.8584
  573MOL0     H75621   7.471   1.326  12.316 -0.8304  0.9647 -1.2140
  573MOL0     H75622   8.725   1.802  11.363  2.1535 -0.9547  0.7014
  573MOL0     H75623   8.937   1.823  11.231 -0.1643 -0.3282  0.4251
  573MOL0     H75624   9.222   1.357  10.928  2.1327 -1.3876 -0.9019
  573MOL0     H75625   9.430   1.363  10.798 -2.5165 -1.4803 -0.9039
  573MOL0     H75626   9.663   1.728  10.744 -0.3252  0.9114 -0.5071
  573MOL0     H75627   9.532   1.767  10.631  1.0157  1.1216 -1.3088
  573MOL0     H75628   9.778   1.583  10.565 -0.3119  0.0550  2.9889
  573MOL0     H75629   9.655   1.621  10.448  0.6822  0.6970  0.1434
  573MOL0     H75630   9.827   1.826  10.578  0.4160  4.0056 -2.2692
  573MOL0     H75631   9.708   1.860  10.445 -0.6737 -0.9873 -0.7667
  573MOL0     H75632   9.826   1.697  10.312 -2.4067  2.7725  0.0106
  573MOL0     H75633   9.913   1.850  10.332 -0.2607 -0.5839 -2.6808
  573MOL0     H75634  10.178   1.563  10.496  0.6293 -0.1608  0.2758
  573MOL0     H75635   9.432   1.791  10.821 -1.2829 -0.3979  0.9113
  573MOL0     H75636   9.230   1.789  10.941 -1.0690 -0.8245 -0.3724
  574MOL0     O75637  10.927   2.525  10.418 -0.3979  0.8991  0.1315
  574MOL0     C75638  10.977   2.586  10.511 -0.2663  0.1332 -0.4844
  574MOL0     O75639  10.918   2.667  10.611  0.0653  0.2387  0.1049
  574MOL0     C75640  10.779   2.691  10.618 -0.5328  0.4149 -1.4362
  574MOL0     C75641  10.753   2.745  10.746  0.5019  0.1850  0.4700
  574MOL0     C75642  10.620   2.787  10.779 -0.8128 -0.4841 -0.6219
  574MOL0     C75643  10.513   2.744  10.701 -0.3896  0.0549  0.1885
  574MOL0     O75644  10.391   2.758  10.756 -0.4850  0.3838  0.7125
  574MOL0     C75645  10.297   2.656  10.730 -0.0551  0.0687  0.1367
  574MOL0     C75646  10.240   2.612  10.865  0.4271 -0.8446  0.3686
  574MOL0     C75647  10.125   2.507  10.853 -0.2669 -0.4506 -0.1894
  574MOL0     C75648  10.066   2.490  10.990 -0.2058  0.7491  0.0682
  574MOL0     C75649   9.920   2.527  11.012 -0.6452  0.0004 -0.1639
  574MOL0     C75650   9.829   2.422  10.941  0.1933  0.0590  0.5004
  574MOL0     C75651   9.676   2.461  10.933 -0.9875 -0.7531  0.8149
  574MOL0     C75652   9.623   2.507  11.071  0.1253  0.0774  0.0815
  574MOL0     N75653   9.616   2.396  11.172 -0.6120  0.5723 -0.4806
  574MOL0     C75654   9.494   2.339  11.202 -0.4211  0.6743  1.1627
  574MOL0     C75655   9.526   2.237  11.281  0.1642  0.0686  0.0722
  574MOL0     C75656   9.434   2.145  11.356 -0.3781  0.8011 -0.5961
  574MOL0     C75657   9.305   2.219  11.405  0.0695  1.2163  0.5810
  574MOL0     C75658   9.197   2.130  11.470  0.0722 -0.7397  0.9492
  574MOL0     C75659   9.076   2.209  11.508  0.1957  0.6103 -0.1337
  574MOL0     O75660   8.957   2.128  11.509  0.2149  0.3510  0.6039
  574MOL0     C75661   8.839   2.191  11.537 -0.8510 -0.1572 -0.0570
  574MOL0     C75662   8.726   2.133  11.485 -1.0537 -0.5439  0.5365
  574MOL0     C75663   8.602   2.182  11.522  0.3185  0.9293 -0.0479
  574MOL0     C75664   8.582   2.284  11.606  0.2553 -0.2586  0.0089
  574MOL0     C75665   8.454   2.342  11.619  0.8724  0.4856  0.0114
  574MOL0     O75666   8.451   2.449  11.704 -0.1647  0.1890 -0.4801
  574MOL0     C75667   8.330   2.494  11.749 -0.1815 -1.0817  1.5831
  574MOL0     C75668   8.327   2.633  11.779 -0.3164 -0.3662  0.1602
  574MOL0     C75669   8.199   2.695  11.823  0.4343  0.2739  0.6380
  574MOL0     C75670   8.082   2.612  11.844 -0.7525 -0.0011  0.4247
  574MOL0     O75671   7.965   2.659  11.899 -0.2530 -0.2507 -1.0478
  574MOL0     C75672   7.909   2.777  11.829 -0.8001  0.7236  0.5476
  574MOL0     C75673   7.763   2.777  11.869 -0.4309  0.2071  0.0166
  574MOL0     C75674   7.680   2.669  11.797  0.1014  0.2700 -0.0879
  574MOL0     C75675   7.533   2.678  11.841 -0.2133  0.6151  0.1209
  574MOL0     C75676   7.460   2.565  11.780  0.2693 -0.8734 -0.8953
  574MOL0     C75677   7.309   2.574  11.802 -0.2466  0.2741  0.5999
  574MOL0     C75678   7.281   2.562  11.953 -0.0027  0.4913 -0.2852
  574MOL0     C75679   7.139   2.529  11.977 -0.4951  0.7370  0.0230
  574MOL0    Cl75680   7.053   2.685  11.962 -0.1757 -0.1472  0.3834
  574MOL0     C75681   8.094   2.474  11.822 -0.5628  0.1953 -0.2664
  574MOL0     C75682   8.216   2.422  11.773  0.0306  0.5428 -0.3895
  574MOL0     O75683   8.366   2.312  11.532 -1.1172  0.4018 -0.9635
  574MOL0     C75684   8.695   2.334  11.665 -0.7448  0.0957 -1.3725
  574MOL0     C75685   8.825   2.296  11.631  0.4887 -0.1755 -0.1471
  574MOL0     N75686   9.667   2.222  11.275  0.0214  0.8210 -0.0586
  574MOL0     N75687   9.721   2.328  11.223  0.0809 -0.0180 -0.2730
  574MOL0     C75688  10.535   2.696  10.568 -0.7455 -0.3349 -0.1541
  574MOL0     C75689  10.672   2.669  10.532 -0.1948 -0.6410  1.0032
  574MOL0     C75690  11.127   2.556  10.534 -0.5690  0.3010 -0.6278
  574MOL0     C75691  11.186   2.439  10.488  0.5225  0.2380  0.1978
  574MOL0     C75692  11.323   2.420  10.500  0.9788  0.3658 -0.0633
  574MOL0     C75693  11.407   2.525  10.549  0.2393  0.1326  0.2399
  574MOL0     O75694  11.541   2.524  10.534  0.3658  0.3402 -0.1046
  574MOL0     C75695  11.619   2.398  10.545  0.4391 -0.2259 -0.4697
  574MOL0     C75696  11.770   2.441  10.536  0.8696  0.5861 -1.6128
  574MOL0     C75697  11.821   2.489  10.406 -0.9970 -0.7355  0.4262
  574MOL0     C75698  11.973   2.529  10.406  0.3289  0.2903  0.4489
  574MOL0     C75699  11.994   2.627  10.298  0.0199  0.2804  1.0340
  574MOL0     C75700  12.000   2.720  10.210  1.1221 -0.4599 -0.2820
  574MOL0     C75701  11.341   2.635  10.599 -1.0875  0.0070  0.6426
  574MOL0     C75702  11.204   2.658  10.597 -0.2285  0.2489  1.2995
  574MOL0     H75703  10.833   2.766  10.817  1.0162  0.1392 -0.0843
  574MOL0     H75704  10.604   2.818  10.882  0.6031  0.0140 -0.5422
  574MOL0     H75705  10.345   2.566  10.690  0.7515  0.4652  0.1896
  574MOL0     H75706  10.211   2.692  10.672  2.3704  3.3164 -1.7590
  574MOL0     H75707  10.205   2.706  10.907  4.3474  1.5203 -1.1079
  574MOL0     H75708  10.320   2.567  10.925  1.7388  0.6709 -0.1604
  574MOL0     H75709  10.150   2.412  10.805  0.8538 -0.7693  0.9850
  574MOL0     H75710  10.045   2.552  10.793  2.0449 -0.4564 -3.5160
  574MOL0     H75711  10.075   2.385  11.020 -2.4026  0.3537 -0.4783
  574MOL0     H75712  10.135   2.544  11.055  2.2529  1.6774 -3.0379
  574MOL0     H75713   9.891   2.630  10.987 -1.6624  0.0703  1.1704
  574MOL0     H75714   9.907   2.521  11.121 -1.5102  1.1153 -0.1847
  574MOL0     H75715   9.837   2.327  10.995 -1.8554 -0.7113 -0.4525
  574MOL0     H75716   9.858   2.425  10.836 -0.9236  2.2668  0.1830
  574MOL0     H75717   9.668   2.548  10.868  2.5038 -1.1155 -0.3274
  574MOL0     H75718   9.607   2.381  10.903 -1.0479 -0.3302 -0.2201
  574MOL0     H75719   9.521   2.546  11.058  1.5091  3.3535 -2.2138
  574MOL0     H75720   9.678   2.589  11.117 -0.3673  0.3884  0.1294
  574MOL0     H75721   9.402   2.392  11.181  1.2357  2.7479 -1.4765
  574MOL0     H75722   9.470   2.103  11.451 -2.0289  1.5573  0.4090
  574MOL0     H75723   9.413   2.054  11.299 -1.7668  0.4194  0.4638
  574MOL0     H75724   9.257   2.258  11.315  1.9512  0.2429 -0.9208
  574MOL0     H75725   9.322   2.301  11.475  0.3107  1.2167  0.5226
  574MOL0     H75726   9.170   2.056  11.394  3.2114  0.2042 -1.3202
  574MOL0     H75727   9.237   2.082  11.559  2.5604  0.0764  0.3545
  574MOL0     H75728   9.068   2.305  11.455  1.6832 -0.4863 -2.5478
  574MOL0     H75729   9.094   2.246  11.609 -1.5493 -1.3889  0.9892
  574MOL0     H75730   8.745   2.051  11.416 -1.2148 -0.4701  0.4025
  574MOL0     H75731   8.519   2.122  11.483  0.0729  0.8717  0.5560
  574MOL0     H75732   8.417   2.689  11.759  1.3081 -2.0073  2.3112
  574MOL0     H75733   8.195   2.802  11.839  1.3258  0.8523 -2.4384
  574MOL0     H75734   7.928   2.763  11.722  3.2609  3.3363  0.7074
  574MOL0     H75735   7.957   2.867  11.868 -0.2761 -0.6340  3.2711
  574MOL0     H75736   7.729   2.878  11.842 -0.8081 -0.8453 -4.1543
  574MOL0     H75737   7.746   2.773  11.977 -0.2506 -0.1031  0.0335
  574MOL0     H75738   7.720   2.569  11.818  1.4605  0.4887 -1.4601
  574MOL0     H75739   7.682   2.680  11.689 -1.0670  0.2537 -0.1217
  574MOL0     H75740   7.527   2.678  11.950  2.6089  0.6360  0.3523
  574MOL0     H75741   7.488   2.773  11.811 -0.9358  0.2214 -0.0646
  574MOL0     H75742   7.509   2.474  11.815  1.8904 -1.0688 -3.4568
  574MOL0     H75743   7.470   2.572  11.671 -1.5776 -1.5842 -1.1556
  574MOL0     H75744   7.271   2.497  11.734  2.7873 -0.2577 -0.6433
  574MOL0     H75745   7.256   2.667  11.780  2.1448  1.7263  0.7329
  574MOL0     H75746   7.339   2.478  11.991 -1.8404 -0.9620 -0.5191
  574MOL0     H75747   7.300   2.659  11.999 -2.3006  1.8562 -2.0128
  574MOL0     H75748   7.141   2.493  12.081  1.5683 -0.3606 -0.3525
  574MOL0     H75749   7.112   2.453  11.904  2.2244  0.1923 -0.5188
  574MOL0     H75750   8.016   2.400  11.842  0.4662 -1.3015 -1.5644
  574MOL0     H75751   8.213   2.315  11.755 -0.5448  0.2242  1.4582
  574MOL0     H75752   8.686   2.421  11.728 -2.3004 -0.2531 -1.0640
  574MOL0     H75753   8.897   2.346  11.696 -2.3876  1.1539  2.2781
  574MOL0     H75754  10.460   2.697  10.489 -0.5079  0.4642 -0.3843
  574MOL0     H75755  10.695   2.647  10.429  0.4431  0.7381  0.8210
  574MOL0     H75756  11.129   2.360  10.441 -1.1468  0.3658  1.9140
  574MOL0     H75757  11.362   2.336  10.443 -1.6746 -0.6650 -0.4982
  574MOL0     H75758  11.595   2.330  10.463  2.1865 -1.0995 -0.2934
  574MOL0     H75759  11.601   2.348  10.641  0.0288 -0.3000 -0.5817
  574MOL0     H75760  11.794   2.519  10.609  0.6085 -0.0284 -0.8653
  574MOL0     H75761  11.827   2.352  10.562  0.9535  0.3192 -2.6672
  574MOL0     H75762  11.755   2.573  10.383 -3.5094 -2.8335 -0.5932
  574MOL0     H75763  11.807   2.411  10.331  1.4625  0.8662 -1.8625
  574MOL0     H75764  12.011   2.570  10.499  1.1003  2.5697 -0.7941
  574MOL0     H75765  12.024   2.435  10.382 -0.8329 -1.6612  4.7210
  574MOL0     H75766  11.992   2.806  10.147 -1.6478  1.8415  2.8291
  574MOL0     H75767  11.409   2.705  10.648  2.2007 -1.9593 -0.7266
  574MOL0     H75768  11.169   2.752  10.638 -0.8100 -0.3773  2.2575
  575MOL0     O75769   9.359   3.350   9.432 -0.1737 -0.3627 -0.2146
  575MOL0     C75770   9.328   3.441   9.508 -0.5393  0.5177  0.9838
  575MOL0     O75771   9.406   3.525   9.571  0.4775 -0.0153  0.0520
  575MOL0     C75772   9.539   3.542   9.538  0.5357 -1.0153  0.6168
  575MOL0     C75773   9.584   3.605   9.420 -0.4530 -0.9059  0.2585
  575MOL0     C75774   9.718   3.610   9.379 -0.3983  0.1458 -0.1195
  575MOL0     C75775   9.817   3.556   9.464 -0.4936  0.4430 -0.4889
  575MOL0     O75776   9.956   3.563   9.436  0.5653  0.1879 -0.1406
  575MOL0     C75777  10.000   3.673   9.366  0.1856  0.5775 -1.4174
  575MOL0     C75778  10.148   3.660   9.338  0.6885 -0.0985  0.0796
  575MOL0     C75779  10.204   3.798   9.280 -0.7759  0.5044  0.2882
  575MOL0     C75780  10.343   3.778   9.212 -0.0109  0.2110  0.5057
  575MOL0     C75781  10.399   3.923   9.183 -0.1691  0.2550 -0.5805
  575MOL0     C75782  10.518   3.919   9.090 -0.9646 -0.4613 -0.2594
  575MOL0     C75783  10.642   3.872   9.162  0.0485  0.0851 -0.0553
  575MOL0     C75784  10.761   3.883   9.070 -0.0881  0.5892  0.9034
  575MOL0     N75785  10.893   3.853   9.129  0.0438  0.1712 -0.3188
  575MOL0     C75786  10.957   3.732   9.115 -0.4677 -0.0669 -0.8130
  575MOL0     C75787  11.078   3.748   9.169 -0.1398  0.0303 -0.1097
  575MOL0     C75788  11.179   3.636   9.186 -0.8689  0.5844  0.2826
  575MOL0     C75789  11.302   3.646   9.086  0.1424 -0.3696 -1.0240
  575MOL0     C75790  11.429   3.700   9.161  0.6086  1.1842 -0.2539
  575MOL0     C75791  11.540   3.723   9.062  0.0620  0.2587  0.5905
  575MOL0     O75792  11.648   3.778   9.138 -0.8120 -0.0076  0.0307
  575MOL0     C75793  11.769   3.804   9.079 -0.0155 -1.0287 -0.0066
  575MOL0     C75794  11.782   3.805   8.940 -0.0668  0.4586  0.4697
  575MOL0     C75795  11.907   3.850   8.890  0.2364  0.3793  0.9317
  575MOL0     C75796  12.029   3.852   8.959  0.2200  0.4084  0.1438
  575MOL0     C75797  12.156   3.859   8.893  0.0922 -0.0190  0.2966
  575MOL0     O75798  12.265   3.857   8.963 -0.1066 -0.0285  1.0194
  575MOL0     C75799  12.382   3.856   8.895 -0.3589 -0.6616 -0.2733
  575MOL0     C75800  12.413   3.752   8.810  0.3234  0.1415 -0.0844
  575MOL0     C75801  12.530   3.752   8.752 -0.5980  0.7381 -0.1767
  575MOL0     C75802  12.630   3.839   8.771 -0.1438  0.3211 -0.7969
  575MOL0     O75803  12.760   3.815   8.735 -0.0059  0.9813 -0.5782
  575MOL0     C75804  12.819   3.918   8.648  1.0570 -0.0996 -0.1231
  575MOL0     C75805  12.958   3.878   8.607 -0.3079  1.0997 -0.1996
  575MOL0     C75806  13.041   3.844   8.731 -0.0091 -0.0915 -1.4983
  575MOL0     C75807  13.192   3.812   8.704  0.0844 -0.7063 -0.8679
  575MOL0     C75808  13.255   3.901   8.590 -0.2507 -0.0082  0.1260
  575MOL0     C75809  13.402   3.877   8.563  0.8840  0.1052 -0.1142
  575MOL0     C75810  13.437   3.724   8.520 -0.1326  0.8119  0.4512
  575MOL0     C75811  13.587   3.698   8.516  0.3558 -0.4624 -0.0826
  575MOL0    Cl75812  13.667   3.818   8.390 -0.3962  0.2706 -0.1743
  575MOL0     C75813  12.608   3.935   8.871 -0.7668  0.1046  0.1099
  575MOL0     C75814  12.484   3.943   8.932 -0.1970  0.5390  0.1315
  575MOL0     O75815  12.150   3.857   8.768  1.1296  0.6767 -0.1214
  575MOL0     C75816  12.015   3.838   9.096  1.2145  0.0702 -0.0192
  575MOL0     C75817  11.882   3.822   9.158 -0.6875 -0.6330  0.6255
  575MOL0     N75818  11.092   3.883   9.208  0.3313 -0.4602  0.3270
  575MOL0     N75819  10.977   3.942   9.183  0.3417 -0.2551 -0.4689
  575MOL0     C75820   9.773   3.492   9.584 -0.4354  0.0293 -0.9060
  575MOL0     C75821   9.638   3.488   9.615  0.1842  0.3102 -0.2688
  575MOL0     C75822   9.186   3.435   9.542 -0.4233 -0.3546  0.3885
  575MOL0     C75823   9.131   3.521   9.638  0.0661 -0.5635  0.5626
  575MOL0     C75824   8.994   3.502   9.671 -0.5893 -0.4586 -1.3443
  575MOL0     C75825   8.911   3.412   9.614 -1.0596  0.4262  0.0255
  575MOL0     O75826   8.793   3.413   9.669  0.2982 -0.1794  0.3873
  575MOL0     C75827   8.698   3.325   9.614  0.8035  0.3424 -0.2820
  575MOL0     C75828   8.551   3.355   9.664 -0.0695 -0.7046  0.6228
  575MOL0     C75829   8.507   3.504   9.655 -0.0916 -0.0422 -0.0653
  575MOL0     C75830   8.360   3.506   9.702 -0.0304  0.3910  0.2483
  575MOL0     C75831   8.311   3.635   9.694  0.2603  0.0854  0.2960
  575MOL0     C75832   8.264   3.747   9.693  0.8509  0.2469 -0.4265
  575MOL0     C75833   8.963   3.332   9.516  0.0568 -0.0532  0.1742
  575MOL0     C75834   9.098   3.346   9.479  0.9336  0.1777 -0.4410
  575MOL0     H75835   9.506   3.644   9.356 -0.7151 -1.3890  0.2776
  575MOL0     H75836   9.748   3.657   9.286 -1.2809  4.3049  1.5033
  575MOL0     H75837   9.977   3.763   9.425  0.3324 -0.1812 -0.1700
  575MOL0     H75838   9.960   3.687   9.265  0.6810  1.2786 -1.5321
  575MOL0     H75839  10.171   3.575   9.273  0.2290 -3.4764  3.9261
  575MOL0     H75840  10.196   3.631   9.432  0.0816 -2.3816 -0.2495
  575MOL0     H75841  10.197   3.879   9.354 -1.1564  0.3519  0.4198
  575MOL0     H75842  10.140   3.830   9.197 -1.6327 -2.9027 -0.5233
  575MOL0     H75843  10.404   3.739   9.294 -1.9467 -0.7779  1.5566
  575MOL0     H75844  10.339   3.719   9.120 -1.3245  0.7368  0.1977
  575MOL0     H75845  10.433   3.969   9.277  1.9496 -1.1848 -0.5568
  575MOL0     H75846  10.319   3.984   9.140  0.9420  1.9334 -0.4004
  575MOL0     H75847  10.539   4.017   9.048 -0.9902 -0.9957 -1.5848
  575MOL0     H75848  10.508   3.858   9.000  2.6361 -0.9925 -0.4405
  575MOL0     H75849  10.660   3.938   9.247 -0.6160  0.3874 -0.1419
  575MOL0     H75850  10.633   3.766   9.186  1.5729  0.1289  0.8515
  575MOL0     H75851  10.760   3.990   9.045 -3.2374  0.2647 -0.8588
  575MOL0     H75852  10.742   3.826   8.979  0.7482  0.8410  0.5572
  575MOL0     H75853  10.922   3.633   9.085 -1.3204 -0.3795  1.0741
  575MOL0     H75854  11.141   3.537   9.160  0.4487  0.0469  0.3251
  575MOL0     H75855  11.214   3.625   9.289  0.5296 -2.2807 -0.4130
  575MOL0     H75856  11.285   3.728   9.017  1.7059  1.8518  1.0518
  575MOL0     H75857  11.319   3.548   9.040  0.2624  0.0393 -1.8627
  575MOL0     H75858  11.415   3.800   9.204 -3.9328  0.7416 -0.2071
  575MOL0     H75859  11.461   3.621   9.230  1.6018  0.3921 -1.5793
  575MOL0     H75860  11.527   3.802   8.987  2.0990 -0.7876 -0.9654
  575MOL0     H75861  11.563   3.633   9.005 -1.1027  0.1654  0.2266
  575MOL0     H75862  11.702   3.793   8.867  2.9988 -0.4016 -3.0333
  575MOL0     H75863  11.906   3.859   8.782  1.0745 -3.7217  0.3916
  575MOL0     H75864  12.337   3.678   8.786  0.3920 -0.5571  1.7224
  575MOL0     H75865  12.558   3.675   8.681 -3.7945 -1.9582  1.2169
  575MOL0     H75866  12.818   4.018   8.692 -1.5408  0.2672 -0.8243
  575MOL0     H75867  12.751   3.926   8.562 -2.2623  1.4699  2.4285
  575MOL0     H75868  13.004   3.962   8.553 -1.6898  3.5307  2.1400
  575MOL0     H75869  12.955   3.801   8.529  0.4756  0.6641  0.1948
  575MOL0     H75870  12.995   3.750   8.762 -2.8683  0.5025 -3.5016
  575MOL0     H75871  13.021   3.920   8.807 -3.2006 -1.6402 -0.6455
  575MOL0     H75872  13.246   3.836   8.796 -0.9033 -4.4538  0.8543
  575MOL0     H75873  13.206   3.707   8.677  4.5377 -0.9525  1.5013
  575MOL0     H75874  13.238   4.007   8.612  0.5533  0.8478 -2.8337
  575MOL0     H75875  13.209   3.877   8.494  1.1042 -4.0992  0.3152
  575MOL0     H75876  13.452   3.900   8.658 -0.1752 -1.3446  0.8444
  575MOL0     H75877  13.449   3.935   8.484  0.1347 -2.2989 -2.4698
  575MOL0     H75878  13.389   3.653   8.587  0.7252 -1.8337 -1.5782
  575MOL0     H75879  13.396   3.697   8.422 -0.4050  0.5516  0.6371
  575MOL0     H75880  13.620   3.600   8.481  2.1576  0.7172 -1.9026
  575MOL0     H75881  13.629   3.722   8.614 -1.4478  0.2239  0.5616
  575MOL0     H75882  12.692   3.987   8.917 -2.6330  0.7182  3.0905
  575MOL0     H75883  12.467   4.010   9.015 -1.9669 -0.1964  0.4236
  575MOL0     H75884  12.100   3.825   9.162 -0.6664 -0.1926  2.4996
  575MOL0     H75885  11.868   3.833   9.265  0.2674 -0.9249  0.7887
  575MOL0     H75886   9.843   3.447   9.653  1.5250  3.3941 -0.4665
  575MOL0     H75887   9.605   3.428   9.699  0.3342  0.1789 -0.3044
  575MOL0     H75888   9.183   3.596   9.697 -0.7156  0.5199 -0.0992
  575MOL0     H75889   8.955   3.562   9.752  1.5805  0.9658 -1.2572
  575MOL0     H75890   8.732   3.226   9.646  2.5027  1.2185  0.7176
  575MOL0     H75891   8.702   3.316   9.505 -0.5903 -4.5261 -0.1837
  575MOL0     H75892   8.481   3.308   9.595 -1.2572 -1.9327  2.5607
  575MOL0     H75893   8.534   3.318   9.765 -1.1444 -2.8419 -0.2954
  575MOL0     H75894   8.513   3.540   9.552  1.6649  1.1719  0.4180
  575MOL0     H75895   8.569   3.566   9.720 -3.3693  0.9491  2.3878
  575MOL0     H75896   8.302   3.428   9.652  1.1274 -0.2497 -0.1363
  575MOL0     H75897   8.351   3.492   9.811 -2.7724  4.5220  0.7698
  575MOL0     H75898   8.201   3.832   9.680 -0.7532 -0.5733  1.4147
  575MOL0     H75899   8.906   3.252   9.468  2.4459 -0.9953 -1.2753
  575MOL0     H75900   9.130   3.275   9.403 -1.2125  0.7715 -1.9695
  576MOL0     O75901   7.730   7.900  10.680 -0.7797  0.8012  0.0547
  576MOL0     C75902   7.820   7.982  10.678  0.0225  1.2877 -0.0088
  576MOL0     O75903   7.808   8.116  10.677 -0.1416  0.7249 -0.0205
  576MOL0     C75904   7.684   8.184  10.686 -1.4114  0.4318 -0.2269
  576MOL0     C75905   7.576   8.148  10.610 -0.3992 -0.4545  0.9004
  576MOL0     C75906   7.455   8.228  10.611 -0.4873 -0.2923 -0.6263
  576MOL0     C75907   7.447   8.334  10.699 -0.8509  0.2740 -0.7226
  576MOL0     O75908   7.338   8.427  10.699  0.0813  0.8505 -0.2839
  576MOL0     C75909   7.207   8.371  10.672  0.4489  0.5203  0.5610
  576MOL0     C75910   7.094   8.471  10.710  0.3308  0.6559  0.2091
  576MOL0     C75911   6.956   8.426  10.678  0.3024 -0.3409  0.7329
  576MOL0     C75912   6.877   8.511  10.574  0.9302  0.7054 -0.0579
  576MOL0     C75913   6.732   8.451  10.557 -0.0703 -0.0635  0.6407
  576MOL0     C75914   6.627   8.461  10.673 -0.3006  0.4854  0.1254
  576MOL0     C75915   6.539   8.335  10.662 -0.7402  0.4413  0.1026
  576MOL0     C75916   6.423   8.337  10.771  0.0657  1.0238  0.4543
  576MOL0     N75917   6.487   8.328  10.904 -0.4158  0.9135 -0.7134
  576MOL0     C75918   6.572   8.223  10.930  0.5982  0.3521 -0.3069
  576MOL0     C75919   6.656   8.263  11.028  0.2061 -0.0768 -0.3187
  576MOL0     C75920   6.770   8.186  11.091 -0.2891 -0.1718  0.0230
  576MOL0     C75921   6.889   8.228  11.005  0.3804 -0.4453 -0.0754
  576MOL0     C75922   7.013   8.198  11.103  0.5463  0.6431  0.6467
  576MOL0     C75923   7.147   8.226  11.043  0.4348 -0.3058  0.3720
  576MOL0     O75924   7.190   8.117  10.952 -0.2843  0.3619 -0.2212
  576MOL0     C75925   7.274   8.020  10.995  0.0944 -0.1686 -0.6704
  576MOL0     C75926   7.371   7.971  10.907 -0.5118 -0.4754  0.7583
  576MOL0     C75927   7.462   7.872  10.946  0.2375 -0.8954  0.2437
  576MOL0     C75928   7.443   7.795  11.056  0.2053  1.5042 -1.5667
  576MOL0     C75929   7.537   7.687  11.093  0.6884 -0.4779  1.0253
  576MOL0     O75930   7.646   7.670  10.998  0.1282 -0.1955 -0.3247
  576MOL0     C75931   7.726   7.561  11.024 -0.4906  0.1129 -0.9294
  576MOL0     C75932   7.858   7.590  11.062  0.3025  0.7140  0.3894
  576MOL0     C75933   7.939   7.476  11.088  0.6427  0.3976  0.8037
  576MOL0     C75934   7.904   7.349  11.050 -0.4412 -1.0490 -0.3357
  576MOL0     O75935   7.994   7.258  11.063 -0.2072  0.9031 -0.4402
  576MOL0     C75936   8.005   7.172  10.953 -0.6275  0.1853  0.0696
  576MOL0     C75937   8.108   7.067  10.997  0.0235  0.2639  0.1189
  576MOL0     C75938   8.250   7.114  11.017  0.2842 -0.0214 -0.9736
  576MOL0     C75939   8.315   7.140  10.876  0.1721  0.2487 -0.2917
  576MOL0     C75940   8.376   7.275  10.868  0.3246  0.1705 -0.3657
  576MOL0     C75941   8.483   7.292  10.754  0.1145 -0.0058 -0.1248
  576MOL0     C75942   8.570   7.418  10.754 -0.4790 -0.1284 -0.4174
  576MOL0     C75943   8.653   7.443  10.628  0.1540 -0.2465 -0.2454
  576MOL0    Cl75944   8.782   7.324  10.579 -0.0444 -0.0767  0.0316
  576MOL0     C75945   7.781   7.327  11.006 -0.3527 -0.4725 -0.4327
  576MOL0     C75946   7.686   7.432  10.999 -0.6431  0.0071  0.1682
  576MOL0     O75947   7.502   7.626  11.192  0.0899 -0.5419 -0.3396
  576MOL0     C75948   7.339   7.838  11.148 -0.2323  0.4721  0.5246
  576MOL0     C75949   7.260   7.955  11.119 -0.2027 -0.3665  0.3474
  576MOL0     N75950   6.624   8.391  11.063  0.2821 -0.0945  0.7391
  576MOL0     N75951   6.529   8.428  10.987 -0.5088  0.1231  0.6716
  576MOL0     C75952   7.557   8.371  10.778 -0.2550 -0.3427  0.2977
  576MOL0     C75953   7.675   8.297  10.775  0.1258  0.3580  0.6260
  576MOL0     C75954   7.959   7.915  10.667  0.6523  0.0099 -0.1289
  576MOL0     C75955   7.983   7.787  10.709  0.0112  0.6425  0.3627
  576MOL0     C75956   8.115   7.732  10.691 -0.0852  0.0307 -0.2505
  576MOL0     C75957   8.215   7.804  10.624  0.2147 -0.5508 -0.5965
  576MOL0     O75958   8.327   7.736  10.602 -0.1908  0.2515  0.0688
  576MOL0     C75959   8.437   7.804  10.534  0.1753  0.3930  0.0246
  576MOL0     C75960   8.515   7.894  10.623 -0.7162  1.1557 -0.8352
  576MOL0     C75961   8.620   7.835  10.718  0.1045  1.2997  0.0180
  576MOL0     C75962   8.754   7.839  10.653 -0.4399  1.5066  0.0576
  576MOL0     C75963   8.857   7.753  10.724  0.1096 -0.1111 -0.0005
  576MOL0     C75964   8.936   7.696  10.792 -0.6133  0.7567 -0.2356
  576MOL0     C75965   8.187   7.936  10.595  0.2879  0.8306 -0.3382
  576MOL0     C75966   8.060   7.983  10.609  0.0394 -0.2108  0.3469
  576MOL0     H75967   7.584   8.066  10.540 -1.3757  0.0172  0.1961
  576MOL0     H75968   7.372   8.196  10.548 -0.7389 -0.3244 -0.2804
  576MOL0     H75969   7.179   8.276  10.719  2.2057 -0.4948 -0.3249
  576MOL0     H75970   7.196   8.353  10.564 -0.8980 -0.3917  0.8344
  576MOL0     H75971   7.112   8.563  10.654  5.8385 -0.3286 -0.2328
  576MOL0     H75972   7.105   8.496  10.816 -2.3115  0.7097  0.5398
  576MOL0     H75973   6.895   8.427  10.769 -0.0107 -0.2791  0.5253
  576MOL0     H75974   6.963   8.322  10.643  0.6257  0.4692 -1.8067
  576MOL0     H75975   6.859   8.614  10.607 -0.4947  0.3443  0.3398
  576MOL0     H75976   6.927   8.505  10.477  1.3914  1.6554  0.1101
  576MOL0     H75977   6.749   8.345  10.537  0.9540  0.4940 -1.7374
  576MOL0     H75978   6.695   8.492  10.463  1.3940 -1.1376 -0.4552
  576MOL0     H75979   6.566   8.552  10.671 -0.4771  0.4154  1.4913
  576MOL0     H75980   6.683   8.455  10.766  0.6958 -0.6122 -0.5255
  576MOL0     H75981   6.483   8.334  10.568 -0.5471 -2.9043 -0.1013
  576MOL0     H75982   6.613   8.255  10.667  2.5464  3.2194 -0.7785
  576MOL0     H75983   6.363   8.247  10.754  2.4602 -0.7835  0.9920
  576MOL0     H75984   6.365   8.429  10.779 -1.5495  0.0146  0.6762
  576MOL0     H75985   6.584   8.123  10.891  0.8675  0.0661  0.4853
  576MOL0     H75986   6.757   8.078  11.085 -2.8177  0.0193  0.5391
  576MOL0     H75987   6.771   8.209  11.198 -2.4989  0.6870 -0.0833
  576MOL0     H75988   6.896   8.334  10.978 -0.7707 -0.6560 -1.3245
  576MOL0     H75989   6.895   8.179  10.907 -1.5306 -0.1286 -0.3951
  576MOL0     H75990   7.008   8.246  11.201  1.8900 -1.4386  1.8093
  576MOL0     H75991   7.008   8.089  11.115 -0.5990  0.6220  0.1616
  576MOL0     H75992   7.220   8.246  11.122  0.8906 -0.4960  0.0090
  576MOL0     H75993   7.137   8.318  10.985  1.0006 -0.0222  0.7104
  576MOL0     H75994   7.380   8.016  10.808 -2.0372 -5.1801 -1.8665
  576MOL0     H75995   7.545   7.844  10.881  0.5189 -2.1312  1.1164
  576MOL0     H75996   7.890   7.693  11.071 -0.4381  0.9254  0.7303
  576MOL0     H75997   8.040   7.479  11.128  0.1849 -0.4287  2.0756
  576MOL0     H75998   8.041   7.217  10.861  3.4853  0.6808  1.6795
  576MOL0     H75999   7.911   7.120  10.934 -2.5786  2.6825  2.1933
  576MOL0     H76000   8.099   6.991  10.919 -3.3072 -0.8010  1.3574
  576MOL0     H76001   8.065   7.021  11.087 -2.0785 -0.4972 -1.2175
  576MOL0     H76002   8.288   7.039  11.087 -2.8953 -1.5724 -0.7645
  576MOL0     H76003   8.251   7.205  11.079 -1.3222 -1.9218  2.1367
  576MOL0     H76004   8.385   7.060  10.851 -2.0966 -1.4870 -1.4469
  576MOL0     H76005   8.235   7.145  10.802 -0.2807  1.3291  0.2475
  576MOL0     H76006   8.443   7.304  10.949 -1.4151 -0.3016  1.3055
  576MOL0     H76007   8.293   7.345  10.872 -1.4988 -1.8839 -0.3599
  576MOL0     H76008   8.434   7.276  10.657  1.0231 -2.4828 -0.2528
  576MOL0     H76009   8.560   7.217  10.771  1.3563  1.1892 -0.2489
  576MOL0     H76010   8.507   7.508  10.760 -0.8279 -0.3391 -0.8746
  576MOL0     H76011   8.641   7.416  10.837 -0.4406 -1.5729 -0.4739
  576MOL0     H76012   8.709   7.531  10.657 -0.7474 -0.2093  1.5261
  576MOL0     H76013   8.585   7.447  10.542  1.1129 -2.0247 -1.1578
  576MOL0     H76014   7.743   7.229  10.976  1.5500 -1.0707 -1.0504
  576MOL0     H76015   7.581   7.414  10.980 -1.2603 -0.6182  3.5069
  576MOL0     H76016   7.327   7.801  11.249 -0.6665  1.0505  0.6919
  576MOL0     H76017   7.199   8.006  11.193  1.0997 -0.0621  1.2434
  576MOL0     H76018   7.549   8.457  10.843 -0.2637 -1.4126  1.7593
  576MOL0     H76019   7.760   8.329  10.834  1.1686  1.8676 -1.5457
  576MOL0     H76020   7.903   7.721  10.740  0.8610 -1.7991 -2.2431
  576MOL0     H76021   8.114   7.625  10.714  2.6380  0.3464  1.9061
  576MOL0     H76022   8.414   7.871  10.451  2.3555 -0.8011 -1.6503
  576MOL0     H76023   8.503   7.729  10.488 -0.6438  1.0271 -2.3725
  576MOL0     H76024   8.562   7.976  10.568  0.2835  0.0096 -1.7529
  576MOL0     H76025   8.452   7.954  10.690  0.8486  1.9517 -0.0164
  576MOL0     H76026   8.590   7.733  10.745  2.1528  1.3169  2.7842
  576MOL0     H76027   8.618   7.886  10.815  1.4780  0.9800  0.2232
  576MOL0     H76028   8.739   7.784  10.559  0.0742  0.6146  0.4775
  576MOL0     H76029   8.776   7.943  10.627  0.0499  1.3345 -0.2381
  576MOL0     H76030   9.002   7.645  10.859 -1.3011  0.5071  0.2600
  576MOL0     H76031   8.253   7.997  10.535 -1.6416  3.4250 -0.0039
  576MOL0     H76032   8.042   8.083  10.570 -0.3534 -0.6573 -0.6540
  577MOL0     O76033   8.481   0.972   5.875  0.7825 -0.5472  0.7093
  577MOL0     C76034   8.493   1.075   5.943  0.4048 -0.1599  0.3180
  577MOL0     O76035   8.392   1.145   6.006 -0.3274 -0.6689 -0.1574
  577MOL0     C76036   8.253   1.126   5.985  0.1599  0.1867 -0.5286
  577MOL0     C76037   8.191   1.024   6.061 -0.9703  0.2670  1.1534
  577MOL0     C76038   8.057   0.994   6.029 -0.1855  0.9035  0.1549
  577MOL0     C76039   7.985   1.062   5.927  0.3933 -0.3144  0.1715
  577MOL0     O76040   7.871   0.995   5.896  0.1280 -1.0504  0.9306
  577MOL0     C76041   7.759   1.079   5.879  0.3560 -0.2876 -0.0302
  577MOL0     C76042   7.646   0.988   5.849  0.1802  0.4153 -0.0713
  577MOL0     C76043   7.524   1.074   5.826 -0.3709  0.2269  0.9918
  577MOL0     C76044   7.401   0.998   5.781  0.2533 -0.2142  0.0033
  577MOL0     C76045   7.275   1.081   5.819  0.7582  0.4252  0.8863
  577MOL0     C76046   7.270   1.205   5.723 -0.0338 -0.3571  0.3558
  577MOL0     C76047   7.126   1.268   5.727  0.9507 -0.2593  0.2070
  577MOL0     C76048   7.103   1.399   5.652 -0.0396  0.4345  0.9112
  577MOL0     N76049   6.963   1.439   5.635  0.3992  0.2726 -0.3699
  577MOL0     C76050   6.914   1.554   5.676 -0.0743 -0.2709  0.4422
  577MOL0     C76051   6.778   1.551   5.643 -0.8262  0.3661  0.1180
  577MOL0     C76052   6.667   1.637   5.678  0.3186 -0.8064  0.3869
  577MOL0     C76053   6.526   1.569   5.692  0.5126  0.9493  0.5217
  577MOL0     C76054   6.408   1.663   5.737 -0.0034  0.0402  0.4959
  577MOL0     C76055   6.409   1.685   5.889  0.9282 -0.7387  0.3742
  577MOL0     O76056   6.339   1.809   5.922  0.1296  0.0077  0.1985
  577MOL0     C76057   6.206   1.813   5.940  0.0850  0.2801 -0.0660
  577MOL0     C76058   6.110   1.724   5.885  0.2061  0.4909  0.2364
  577MOL0     C76059   5.971   1.748   5.908  0.0965 -0.6968 -0.0509
  577MOL0     C76060   5.930   1.862   5.974  0.1713 -0.1862 -0.3822
  577MOL0     C76061   5.785   1.876   6.004 -1.4457  0.2140  0.1736
  577MOL0     O76062   5.745   1.998   6.049  0.6894 -0.3986  0.3195
  577MOL0     C76063   5.608   2.023   6.077  0.1633 -0.5592  1.1027
  577MOL0     C76064   5.496   1.933   6.096 -1.0345 -0.1920  0.5136
  577MOL0     C76065   5.362   1.982   6.096  0.5900 -1.2711 -0.2850
  577MOL0     C76066   5.345   2.126   6.075 -0.2378  0.0081 -0.6089
  577MOL0     O76067   5.216   2.164   6.063 -0.5051  0.3626 -0.3155
  577MOL0     C76068   5.175   2.301   6.042  0.0103  0.8797 -0.1814
  577MOL0     C76069   5.023   2.299   6.064 -0.2608 -0.2557 -0.0823
  577MOL0     C76070   4.978   2.256   6.202 -0.7715  0.3526  0.6970
  577MOL0     C76071   4.823   2.249   6.212  0.3650 -0.7405  0.2297
  577MOL0     C76072   4.777   2.127   6.128 -1.4771  0.6447 -1.4718
  577MOL0     C76073   4.695   2.166   6.010 -0.2643 -0.1978  0.7994
  577MOL0     C76074   4.557   2.204   6.048 -0.0727 -0.1880  0.1442
  577MOL0     C76075   4.489   2.299   5.947 -0.5745  0.8171  0.3238
  577MOL0    Cl76076   4.318   2.308   5.989  0.0778 -0.6689 -0.4742
  577MOL0     C76077   5.455   2.211   6.067 -0.3638 -0.5614  0.6708
  577MOL0     C76078   5.585   2.168   6.058  0.4217  1.0397 -1.3468
  577MOL0     O76079   5.718   1.780   5.993 -0.7007 -0.0991 -0.2567
  577MOL0     C76080   6.023   1.954   6.021 -0.7892 -0.7823  0.7301
  577MOL0     C76081   6.162   1.931   6.005 -0.4552  0.8202  0.5339
  577MOL0     N76082   6.762   1.437   5.572  0.4238 -0.5689 -0.0868
  577MOL0     N76083   6.871   1.374   5.565 -0.5165  0.3365  0.0162
  577MOL0     C76084   8.050   1.163   5.860  0.0774  0.1205 -0.1594
  577MOL0     C76085   8.189   1.197   5.891  0.2633 -0.4951  1.3060
  577MOL0     C76086   8.632   1.127   5.949 -0.1288 -0.0579  0.7119
  577MOL0     C76087   8.734   1.067   5.865 -0.4885  0.1207 -0.1660
  577MOL0     C76088   8.864   1.091   5.879  0.3521  0.9518 -1.4860
  577MOL0     C76089   8.908   1.182   5.973  0.0703 -0.0847 -0.4765
  577MOL0     O76090   9.040   1.216   5.998  0.0589  0.1985  0.1153
  577MOL0     C76091   9.110   1.112   6.074  1.4394 -0.1281  0.5670
  577MOL0     C76092   9.042   1.055   6.199  0.0922  0.2876 -0.8197
  577MOL0     C76093   9.026   1.165   6.303  0.5667 -0.0371 -0.2961
  577MOL0     C76094   8.907   1.139   6.390  0.3975 -0.4414 -0.2474
  577MOL0     C76095   8.907   1.214   6.513 -0.0026  0.0218 -0.2781
  577MOL0     C76096   8.910   1.260   6.622 -0.3648 -0.1923 -0.7328
  577MOL0     C76097   8.811   1.257   6.048 -0.2336 -0.0610  0.0167
  577MOL0     C76098   8.677   1.224   6.040 -0.5748 -0.7615  0.1050
  577MOL0     H76099   8.256   0.967   6.126  0.5142  1.5763  0.8817
  577MOL0     H76100   8.022   0.899   6.068  2.1277  1.3891  4.0138
  577MOL0     H76101   7.785   1.140   5.792  0.9782 -2.6608 -1.6285
  577MOL0     H76102   7.744   1.150   5.961 -1.7857  0.2470 -0.8251
  577MOL0     H76103   7.622   0.933   5.941  0.6165  2.2583  1.2059
  577MOL0     H76104   7.663   0.921   5.764  3.0292 -1.9558  2.1430
  577MOL0     H76105   7.553   1.148   5.751  1.0403  0.5680  1.8300
  577MOL0     H76106   7.499   1.136   5.913  0.4589  1.2379  0.5353
  577MOL0     H76107   7.397   0.968   5.676  1.0165 -1.6010  0.3436
  577MOL0     H76108   7.396   0.903   5.835  2.3733 -0.3905 -0.0290
  577MOL0     H76109   7.289   1.109   5.923  2.6516  1.6586  0.3640
  577MOL0     H76110   7.194   1.012   5.796  2.2570 -0.6482 -1.5935
  577MOL0     H76111   7.303   1.166   5.626  0.8118  0.0429  0.4718
  577MOL0     H76112   7.344   1.273   5.766 -0.3430 -1.3927  2.6371
  577MOL0     H76113   7.057   1.192   5.688  3.2259 -1.7478 -1.1740
  577MOL0     H76114   7.097   1.268   5.832 -0.0861 -3.0674  0.0217
  577MOL0     H76115   7.156   1.384   5.558 -0.1949  2.0900  0.5339
  577MOL0     H76116   7.156   1.478   5.706  1.3490 -0.7274  1.3129
  577MOL0     H76117   6.966   1.627   5.737  1.1962 -1.3055  0.6401
  577MOL0     H76118   6.671   1.707   5.594  0.8828 -1.4584 -0.1454
  577MOL0     H76119   6.679   1.698   5.768 -1.5880  1.9763 -1.0952
  577MOL0     H76120   6.535   1.479   5.754 -1.5094 -0.4851 -1.1156
  577MOL0     H76121   6.496   1.522   5.598 -0.6845 -0.9752  1.7980
  577MOL0     H76122   6.419   1.758   5.684 -0.6918 -1.4869 -2.6013
  577MOL0     H76123   6.319   1.609   5.705 -0.5869  0.8731  0.6890
  577MOL0     H76124   6.506   1.690   5.938  0.6962 -0.3285  0.7975
  577MOL0     H76125   6.358   1.598   5.930  0.3607 -0.7298 -0.2889
  577MOL0     H76126   6.143   1.626   5.851 -1.2802 -0.9416  2.6371
  577MOL0     H76127   5.886   1.689   5.877 -0.8264 -0.7187  2.2877
  577MOL0     H76128   5.522   1.828   6.104  0.4120 -0.0889 -1.8907
  577MOL0     H76129   5.282   1.910   6.114 -1.8207  1.7108  2.1232
  577MOL0     H76130   5.205   2.332   5.941  2.1018 -2.0999 -0.6152
  577MOL0     H76131   5.222   2.359   6.122  0.3093  0.1007  0.2238
  577MOL0     H76132   4.978   2.236   5.987  1.4111 -1.8839  0.2063
  577MOL0     H76133   4.983   2.400   6.052 -2.8398 -1.5049 -4.8167
  577MOL0     H76134   5.005   2.335   6.272  0.5781  0.7634 -0.2557
  577MOL0     H76135   5.015   2.157   6.231 -0.0107 -0.9901 -4.0113
  577MOL0     H76136   4.797   2.241   6.318  3.0131  0.0397  1.0190
  577MOL0     H76137   4.781   2.339   6.165  1.7078 -1.9089 -3.6373
  577MOL0     H76138   4.716   2.061   6.191 -0.6389  0.2485 -1.0535
  577MOL0     H76139   4.862   2.062   6.106 -0.9313  0.3038  1.2462
  577MOL0     H76140   4.684   2.081   5.942  0.6170 -0.1903  0.6244
  577MOL0     H76141   4.740   2.252   5.959 -0.6541 -0.6352 -0.3202
  577MOL0     H76142   4.502   2.110   6.065  1.1538 -0.6543  1.7402
  577MOL0     H76143   4.561   2.254   6.145 -3.5953 -0.7380  0.7009
  577MOL0     H76144   4.487   2.252   5.848 -2.4118 -0.9800  1.1477
  577MOL0     H76145   4.550   2.389   5.942  0.2038  0.3391  0.9347
  577MOL0     H76146   5.444   2.316   6.041 -0.1131 -0.6932  0.0184
  577MOL0     H76147   5.664   2.236   6.031  1.4642  0.2136 -0.4547
  577MOL0     H76148   5.991   2.031   6.091 -2.5614  2.1655 -2.9652
  577MOL0     H76149   6.238   1.989   6.057  1.0245 -0.5323 -0.0429
  577MOL0     H76150   8.010   1.217   5.775 -1.8351 -2.4770 -1.0369
  577MOL0     H76151   8.234   1.280   5.838  2.4027 -1.1917  1.9624
  577MOL0     H76152   8.698   0.993   5.793 -0.1554  1.4008 -1.6981
  577MOL0     H76153   8.930   1.028   5.820  0.3781 -1.2181  0.6803
  577MOL0     H76154   9.212   1.136   6.107  2.0056 -2.3960  0.6016
  577MOL0     H76155   9.118   1.029   6.004  2.9762  1.2529 -0.9849
  577MOL0     H76156   8.945   1.007   6.184 -1.1336  1.3822  2.7796
  577MOL0     H76157   9.109   0.979   6.242 -0.2961  1.0055  1.1416
  577MOL0     H76158   9.007   1.258   6.250 -1.4644  0.4874  1.2457
  577MOL0     H76159   9.116   1.186   6.362  0.6347 -2.5931  0.6348
  577MOL0     H76160   8.814   1.163   6.338  0.2355 -1.4730 -0.4459
  577MOL0     H76161   8.897   1.031   6.405  3.2298 -0.8719 -0.7684
  577MOL0     H76162   8.939   1.278   6.723  0.7462  0.7150 -1.2012
  577MOL0     H76163   8.839   1.341   6.111  1.8035  0.6179 -1.6679
  577MOL0     H76164   8.606   1.274   6.105 -0.4093  0.1819 -0.4274
  578MOL0     O76165   4.658   8.652   1.567 -0.4693 -0.4616 -0.5921
  578MOL0     C76166   4.754   8.724   1.536  0.9106  0.2048  0.4752
  578MOL0     O76167   4.772   8.848   1.575 -0.2104  0.3692 -0.0887
  578MOL0     C76168   4.691   8.913   1.668  0.6981 -0.0475  1.0052
  578MOL0     C76169   4.646   8.850   1.790  0.1744  0.0799  1.0815
  578MOL0     C76170   4.571   8.919   1.885  0.3227 -0.0504 -0.2358
  578MOL0     C76171   4.511   9.037   1.853  0.0315  0.3759 -0.5466
  578MOL0     O76172   4.414   9.080   1.945 -0.5748 -0.1173 -0.0931
  578MOL0     C76173   4.316   9.182   1.900 -0.3994  0.2524  0.5378
  578MOL0     C76174   4.225   9.206   2.014 -0.0209 -0.1850 -1.0008
  578MOL0     C76175   4.133   9.316   1.977  0.5729  0.0168  0.6046
  578MOL0     C76176   4.086   9.384   2.102  0.7150 -0.1826  0.4778
  578MOL0     C76177   3.989   9.494   2.069  0.3615 -0.8697  0.0228
  578MOL0     C76178   3.967   9.606   2.173 -0.3710 -0.4365 -0.6540
  578MOL0     C76179   3.832   9.681   2.151  0.7111 -1.2449 -0.5272
  578MOL0     C76180   3.827   9.798   2.246  0.3620 -0.6171 -0.4333
  578MOL0     N76181   3.761   9.767   2.380 -0.8673  0.5440 -0.0445
  578MOL0     C76182   3.624   9.788   2.407 -0.1223 -0.4442 -0.1058
  578MOL0     C76183   3.603   9.706   2.515  0.1312 -0.1760  0.6945
  578MOL0     C76184   3.473   9.666   2.574  0.3142 -0.6352 -0.6732
  578MOL0     C76185   3.357   9.748   2.530 -0.0106  0.4894  0.2510
  578MOL0     C76186   3.232   9.705   2.589  0.1172 -1.1169  0.7418
  578MOL0     C76187   3.116   9.808   2.571  0.2946  0.3827  0.3425
  578MOL0     O76188   3.097   9.826   2.432 -0.3373 -0.3301 -0.4173
  578MOL0     C76189   2.969   9.850   2.395  0.1985  0.9144  0.2620
  578MOL0     C76190   2.940   9.824   2.258 -0.8823 -0.6560  0.0519
  578MOL0     C76191   2.817   9.852   2.193 -0.9403 -0.3550  0.2551
  578MOL0     C76192   2.716   9.912   2.262  0.1924  0.2866 -0.1614
  578MOL0     C76193   2.581   9.938   2.211 -0.2730 -0.0081  0.6513
  578MOL0     O76194   2.571   9.933   2.075  0.0455  0.1058 -0.1829
  578MOL0     C76195   2.442   9.948   2.024  0.4539 -0.1534  0.3811
  578MOL0     C76196   2.392   9.835   1.949  0.1845  0.4221 -0.2648
  578MOL0     C76197   2.263   9.842   1.889  0.3164  0.3543 -0.5054
  578MOL0     C76198   2.181   9.953   1.897  0.2852  0.3819 -0.7295
  578MOL0     O76199   2.059   9.940   1.849  0.4526 -0.1124 -0.3605
  578MOL0     C76200   1.983  10.059   1.825  0.6889  0.2967  0.2266
  578MOL0     C76201   2.023  10.136   1.706 -1.3948 -0.2320 -0.9094
  578MOL0     C76202   1.912  10.241   1.682 -0.6878 -0.0008  0.1025
  578MOL0     C76203   1.979  10.346   1.593  0.7161 -0.5893  1.0746
  578MOL0     C76204   1.871  10.441   1.547  0.1274  0.2874  0.2027
  578MOL0     C76205   1.806  10.551   1.641  0.2493  0.8295 -0.2935
  578MOL0     C76206   1.700  10.626   1.560  0.2811  0.0961 -0.2129
  578MOL0     C76207   1.665  10.759   1.632  0.5924 -0.5737  0.3757
  578MOL0    Cl76208   1.492  10.786   1.603 -0.3197  0.2014  0.4898
  578MOL0     C76209   2.240  10.064   1.966  0.4874 -0.0340  0.3594
  578MOL0     C76210   2.364  10.065   2.026 -0.2112 -0.0467  0.0797
  578MOL0     O76211   2.492   9.954   2.290  0.0595 -0.5487  0.3930
  578MOL0     C76212   2.742   9.941   2.390  0.9313 -0.2511 -0.4700
  578MOL0     C76213   2.862   9.923   2.462  0.7464 -0.1403  0.0329
  578MOL0     N76214   3.719   9.648   2.553  0.1261  0.2193 -1.0385
  578MOL0     N76215   3.811   9.688   2.478  0.2663 -0.4583  0.3587
  578MOL0     C76216   4.560   9.110   1.739  0.7044  0.2655 -0.6378
  578MOL0     C76217   4.649   9.048   1.646 -0.7015  0.2823  0.6423
  578MOL0     C76218   4.845   8.676   1.429  0.3902  0.1238 -0.1870
  578MOL0     C76219   4.937   8.765   1.368 -0.2177 -0.1566 -1.1099
  578MOL0     C76220   5.033   8.722   1.289 -0.6805  0.1535  0.2072
  578MOL0     C76221   5.021   8.598   1.224 -0.2892 -0.1129  1.4999
  578MOL0     O76222   5.108   8.542   1.132 -0.1697  0.2182 -0.3178
  578MOL0     C76223   5.203   8.628   1.066  0.0798  0.5225  0.1187
  578MOL0     C76224   5.206   8.600   0.921 -0.3321  0.1634  1.1106
  578MOL0     C76225   5.318   8.681   0.849 -0.3200 -0.2031  0.4174
  578MOL0     C76226   5.468   8.641   0.883 -0.3012 -0.4084  0.0955
  578MOL0     C76227   5.506   8.709   1.010  0.1893 -1.2297 -0.1698
  578MOL0     C76228   5.531   8.763   1.112  0.4689 -0.4818 -0.3183
  578MOL0     C76229   4.924   8.512   1.264 -0.1898  1.0281 -0.2787
  578MOL0     C76230   4.844   8.544   1.375  0.2377  0.3876 -0.4168
  578MOL0     H76231   4.682   8.750   1.813  1.5689  0.9104  2.8249
  578MOL0     H76232   4.550   8.868   1.978  2.0431 -1.1706 -0.4144
  578MOL0     H76233   4.274   9.140   1.808  1.1497 -0.6590  0.2132
  578MOL0     H76234   4.372   9.270   1.869  2.8635 -1.2996  1.6136
  578MOL0     H76235   4.282   9.230   2.105 -0.0021 -1.7897 -0.5676
  578MOL0     H76236   4.176   9.110   2.031  1.8650 -1.1466 -0.7596
  578MOL0     H76237   4.047   9.278   1.921  2.1361 -1.3146 -1.0046
  578MOL0     H76238   4.190   9.390   1.919  0.2994 -0.1941  0.0528
  578MOL0     H76239   4.046   9.309   2.171  0.2603  0.6917  1.1786
  578MOL0     H76240   4.169   9.440   2.148 -1.3951  2.4531  1.3018
  578MOL0     H76241   3.894   9.446   2.042 -0.4563  1.9297 -2.6549
  578MOL0     H76242   4.007   9.550   1.977 -0.4205 -2.1735 -0.9840
  578MOL0     H76243   4.041   9.686   2.175 -1.7720  0.9165 -0.0394
  578MOL0     H76244   3.966   9.565   2.274 -2.4493 -1.3192 -0.9635
  578MOL0     H76245   3.816   9.732   2.056 -1.8557  2.5974  1.7083
  578MOL0     H76246   3.756   9.603   2.166  1.5167 -1.5941  2.4075
  578MOL0     H76247   3.766   9.877   2.200 -0.5733 -1.3054 -0.4107
  578MOL0     H76248   3.922   9.850   2.259 -0.9167  1.4743  1.1972
  578MOL0     H76249   3.542   9.833   2.353 -1.1910 -0.6650  1.2608
  578MOL0     H76250   3.486   9.675   2.683  1.9667 -0.8825 -0.8205
  578MOL0     H76251   3.454   9.563   2.542 -1.0502 -1.2687  1.9109
  578MOL0     H76252   3.339   9.751   2.422  0.2767  1.3014  0.2189
  578MOL0     H76253   3.382   9.853   2.546  1.0154  0.7308 -2.3617
  578MOL0     H76254   3.201   9.614   2.536 -1.8678 -0.9210  1.5070
  578MOL0     H76255   3.243   9.696   2.697 -0.7781 -2.9446  0.7146
  578MOL0     H76256   3.147   9.906   2.610 -3.3750  1.2398  1.5903
  578MOL0     H76257   3.023   9.774   2.619 -0.0769 -0.0118 -0.6350
  578MOL0     H76258   3.010   9.756   2.210 -0.4379  1.3474 -2.3436
  578MOL0     H76259   2.808   9.827   2.088 -2.0670  1.5235 -0.1336
  578MOL0     H76260   2.452   9.746   1.933 -1.8465 -1.0748 -0.0475
  578MOL0     H76261   2.237   9.742   1.856 -0.1124 -0.1334  1.1801
  578MOL0     H76262   1.976  10.121   1.914  1.1645  0.1641  0.3570
  578MOL0     H76263   1.880  10.024   1.808  0.8235  0.0767 -0.1677
  578MOL0     H76264   2.042  10.077   1.616 -0.4961 -2.5176  0.6952
  578MOL0     H76265   2.127  10.170   1.712 -0.3486 -2.7844 -2.6897
  578MOL0     H76266   1.882  10.276   1.782  0.4515  1.1505  0.0705
  578MOL0     H76267   1.833  10.194   1.624 -0.0853  0.3330 -1.0095
  578MOL0     H76268   2.053  10.404   1.647  1.6067 -0.2753 -0.4141
  578MOL0     H76269   2.026  10.304   1.503 -1.6615  0.6994 -0.9132
  578MOL0     H76270   1.788  10.377   1.514  0.1951  0.7636 -0.9180
  578MOL0     H76271   1.913  10.499   1.465  0.5736 -0.3551 -0.0280
  578MOL0     H76272   1.885  10.611   1.687  1.0601 -0.6570  0.3121
  578MOL0     H76273   1.748  10.506   1.722  0.4094 -0.1121 -0.6985
  578MOL0     H76274   1.740  10.649   1.461  0.3633 -0.6364 -0.3578
  578MOL0     H76275   1.607  10.571   1.543  0.3208  0.0851 -0.3945
  578MOL0     H76276   1.722  10.841   1.588 -1.2830  0.3821 -0.4088
  578MOL0     H76277   1.674  10.753   1.741 -1.1661  0.5488  0.6284
  578MOL0     H76278   2.184  10.158   1.964  0.3752 -0.0937  0.7206
  578MOL0     H76279   2.403  10.155   2.072 -1.6872  1.0496 -0.7301
  578MOL0     H76280   2.658   9.987   2.442  1.0069  0.1129 -0.6703
  578MOL0     H76281   2.864   9.960   2.564 -1.2698 -1.1150  0.4746
  578MOL0     H76282   4.506   9.201   1.713 -2.9490 -1.1008  1.4758
  578MOL0     H76283   4.691   9.099   1.559 -0.1697 -3.8752 -1.8006
  578MOL0     H76284   4.926   8.867   1.404 -2.4287 -1.1034  1.1608
  578MOL0     H76285   5.106   8.799   1.266  1.0260 -0.8317  2.0113
  578MOL0     H76286   5.302   8.600   1.102  0.1554 -0.1782 -0.5937
  578MOL0     H76287   5.180   8.734   1.073 -1.0326  0.3676 -0.7593
  578MOL0     H76288   5.231   8.496   0.902 -0.3933  0.1872  0.9059
  578MOL0     H76289   5.111   8.606   0.868  1.1304  0.8115 -1.5813
  578MOL0     H76290   5.313   8.789   0.861 -3.0833 -0.0449 -1.2401
  578MOL0     H76291   5.311   8.663   0.741 -0.5793  2.8142 -0.1319
  578MOL0     H76292   5.483   8.533   0.893  1.7042 -0.0741  1.2468
  578MOL0     H76293   5.537   8.678   0.806 -2.5610 -0.2163 -1.9380
  578MOL0     H76294   5.548   8.817   1.203 -0.3805  1.6674 -1.3532
  578MOL0     H76295   4.911   8.412   1.225 -3.9470  0.1262  2.6924
  578MOL0     H76296   4.758   8.483   1.401  0.2398  1.1887  1.7085
  579MOL0     O76297  10.126   5.441   2.600 -0.0104  0.0536 -0.1243
  579MOL0     C76298  10.230   5.501   2.589  0.9396 -0.0184  0.4367
  579MOL0     O76299  10.246   5.626   2.546  0.4284  1.2626  0.2384
  579MOL0     C76300  10.154   5.720   2.532  0.2866 -0.0633 -0.2853
  579MOL0     C76301  10.041   5.732   2.623 -0.3254 -0.2832  0.5846
  579MOL0     C76302   9.973   5.854   2.624  0.1151 -0.2546  0.3011
  579MOL0     C76303  10.004   5.958   2.533  1.0019 -0.0517 -0.3551
  579MOL0     O76304   9.927   6.069   2.524 -0.2049 -0.0439 -1.2267
  579MOL0     C76305   9.785   6.044   2.539 -0.6104 -0.1106 -0.5653
  579MOL0     C76306   9.717   6.168   2.470 -0.4521  0.3171  0.1762
  579MOL0     C76307   9.566   6.145   2.472 -0.1640  0.5171 -0.2707
  579MOL0     C76308   9.486   6.248   2.395 -0.0214 -0.1477  0.2012
  579MOL0     C76309   9.346   6.192   2.343 -0.2582 -0.1356 -0.2270
  579MOL0     C76310   9.237   6.211   2.446 -0.1443 -0.0913 -1.0584
  579MOL0     C76311   9.106   6.188   2.399  0.0202  0.1354  0.2545
  579MOL0     C76312   9.001   6.146   2.501  0.1234  0.1885  0.3588
  579MOL0     N76313   8.873   6.153   2.432 -0.2374  0.1866 -0.6575
  579MOL0     C76314   8.799   6.041   2.392 -1.1216 -0.9376  0.0820
  579MOL0     C76315   8.678   6.093   2.379  0.4821  0.5579  0.2989
  579MOL0     C76316   8.559   6.020   2.343  0.4335 -0.2349 -0.2166
  579MOL0     C76317   8.466   5.997   2.468 -0.9976 -0.1580  0.0986
  579MOL0     C76318   8.338   5.923   2.427 -0.7369 -0.2224 -0.2858
  579MOL0     C76319   8.232   5.896   2.541  1.2019  0.0420 -0.5224
  579MOL0     O76320   8.153   6.002   2.597 -0.4158  0.0677  0.8187
  579MOL0     C76321   8.025   6.023   2.544 -0.2427  0.6791  0.5750
  579MOL0     C76322   8.016   6.055   2.413  0.3823 -0.1524 -0.6239
  579MOL0     C76323   7.882   6.074   2.367 -0.1031  0.1241 -0.1260
  579MOL0     C76324   7.766   6.051   2.450  0.0396 -0.7404  0.5856
  579MOL0     C76325   7.630   6.068   2.399  1.0842  0.3659 -0.4204
  579MOL0     O76326   7.540   6.038   2.499 -0.0253 -0.2470  0.3776
  579MOL0     C76327   7.414   6.075   2.483  0.0362  0.4645  0.6385
  579MOL0     C76328   7.322   6.005   2.403 -0.6755  0.3820 -0.0072
  579MOL0     C76329   7.194   6.041   2.387  0.7389  0.2753 -0.3194
  579MOL0     C76330   7.144   6.157   2.455 -0.5226 -0.1228 -0.1453
  579MOL0     O76331   7.017   6.197   2.431 -0.3111 -0.3548 -0.1229
  579MOL0     C76332   6.957   6.292   2.526  0.5073  0.4074 -0.0786
  579MOL0     C76333   6.804   6.290   2.512 -0.3107 -0.2201  0.5401
  579MOL0     C76334   6.748   6.166   2.581 -0.0696  0.3660 -0.3292
  579MOL0     C76335   6.784   6.034   2.515 -0.6808 -0.5485  0.2611
  579MOL0     C76336   6.694   5.917   2.562 -0.4874 -0.0879 -0.4399
  579MOL0     C76337   6.738   5.790   2.498 -0.6875  0.2674 -0.5870
  579MOL0     C76338   6.668   5.665   2.532  0.2355 -0.0422  0.2249
  579MOL0     C76339   6.722   5.545   2.442  0.0232 -1.0436 -0.6111
  579MOL0    Cl76340   6.902   5.540   2.456 -0.5862  0.0014  0.3175
  579MOL0     C76341   7.233   6.240   2.530 -0.7435 -0.4397 -0.5212
  579MOL0     C76342   7.369   6.196   2.538  0.1312 -0.6541  0.6260
  579MOL0     O76343   7.597   6.108   2.290  0.3162  0.0467 -0.6749
  579MOL0     C76344   7.788   6.009   2.582 -0.9438 -0.0528  0.3759
  579MOL0     C76345   7.922   5.990   2.628 -0.2783  0.1967  0.2880
  579MOL0     N76346   8.678   6.227   2.403  0.4655  0.0034  0.2484
  579MOL0     N76347   8.796   6.265   2.429  0.0219 -0.1654  1.7654
  579MOL0     C76348  10.115   5.947   2.459  0.3974  0.2569 -0.8999
  579MOL0     C76349  10.192   5.826   2.457 -0.5550  0.4725  0.2705
  579MOL0     C76350  10.356   5.424   2.625  0.6851  0.3307  0.2076
  579MOL0     C76351  10.354   5.299   2.688 -0.6833  1.2441 -0.8589
  579MOL0     C76352  10.476   5.223   2.698 -0.2194 -0.9777  0.1585
  579MOL0     C76353  10.599   5.265   2.650 -0.5337 -0.5873  0.6142
  579MOL0     O76354  10.719   5.198   2.661  0.0342  0.4647  0.5653
  579MOL0     C76355  10.725   5.105   2.771  0.5015 -0.1812 -0.1268
  579MOL0     C76356  10.866   5.030   2.780 -0.1834  0.6542  0.0627
  579MOL0     C76357  10.921   4.964   2.656  0.3314 -1.1726  0.0985
  579MOL0     C76358  11.074   4.974   2.637 -0.2801  0.6540 -0.6847
  579MOL0     C76359  11.108   5.105   2.589  0.2004  0.5334  0.4117
  579MOL0     C76360  11.116   5.225   2.579 -0.5773  0.8220  0.3084
  579MOL0     C76361  10.596   5.391   2.589 -0.6758  0.4568 -0.1666
  579MOL0     C76362  10.482   5.468   2.585 -1.1930  0.2891 -0.3488
  579MOL0     H76363  10.017   5.646   2.685  0.0030 -1.6741 -1.1139
  579MOL0     H76364   9.887   5.866   2.689  1.0452  1.7480  1.2593
  579MOL0     H76365   9.759   6.042   2.645 -2.9959 -0.6536 -1.0958
  579MOL0     H76366   9.769   5.945   2.494 -3.2419 -0.0329  0.0179
  579MOL0     H76367   9.756   6.175   2.368 -0.9606  0.9149  0.0150
  579MOL0     H76368   9.748   6.255   2.529  0.7371 -1.5679  2.5294
  579MOL0     H76369   9.528   6.143   2.574 -0.0503  2.8740 -0.1367
  579MOL0     H76370   9.550   6.049   2.421 -1.3531  1.2670 -1.3466
  579MOL0     H76371   9.475   6.336   2.459 -0.1562 -0.6630  0.8938
  579MOL0     H76372   9.541   6.294   2.313 -0.8866  0.2312 -0.1810
  579MOL0     H76373   9.347   6.092   2.299 -2.0592 -0.1961 -0.1737
  579MOL0     H76374   9.324   6.254   2.255 -2.5683  0.9038  1.0077
  579MOL0     H76375   9.242   6.309   2.494  2.5430 -0.3147 -0.7698
  579MOL0     H76376   9.259   6.138   2.525 -1.9531 -1.3118 -1.6151
  579MOL0     H76377   9.067   6.282   2.360 -0.8446  0.4792  1.8608
  579MOL0     H76378   9.114   6.114   2.318 -2.5296 -1.5937  1.4716
  579MOL0     H76379   9.003   6.221   2.581  0.6852 -0.1988  0.7110
  579MOL0     H76380   9.026   6.046   2.536  0.4364 -1.0984 -3.2034
  579MOL0     H76381   8.843   5.943   2.375  0.9827  0.1544 -1.1584
  579MOL0     H76382   8.583   5.922   2.301  3.5074  0.4070 -0.1549
  579MOL0     H76383   8.500   6.089   2.282 -1.2337 -0.3131  1.2216
  579MOL0     H76384   8.448   6.100   2.499 -0.7014  0.0079 -0.2782
  579MOL0     H76385   8.516   5.940   2.547  3.2849  0.5021 -1.8205
  579MOL0     H76386   8.298   5.973   2.338 -1.9663  1.8835  1.3306
  579MOL0     H76387   8.358   5.821   2.394  1.7969  0.2170 -0.3005
  579MOL0     H76388   8.280   5.838   2.620 -3.7036 -0.1997  2.7571
  579MOL0     H76389   8.155   5.822   2.516  1.5108 -1.3236  2.2065
  579MOL0     H76390   8.106   6.067   2.354 -0.8015  0.2366 -2.4144
  579MOL0     H76391   7.864   6.110   2.266 -0.4934  0.6976  0.1444
  579MOL0     H76392   7.352   5.916   2.348 -5.9116 -2.3960  0.9503
  579MOL0     H76393   7.117   5.983   2.338  1.7570 -0.3721 -1.2206
  579MOL0     H76394   6.991   6.393   2.502  0.4110  0.0598 -1.7936
  579MOL0     H76395   6.979   6.265   2.630 -0.1829 -1.3281 -0.3428
  579MOL0     H76396   6.758   6.296   2.412 -0.3930 -2.3688  0.4021
  579MOL0     H76397   6.772   6.380   2.566  0.6655 -0.2164  1.1393
  579MOL0     H76398   6.639   6.170   2.582 -0.1870  1.8844  4.0078
  579MOL0     H76399   6.781   6.164   2.686 -1.2774 -2.0344  0.0674
  579MOL0     H76400   6.761   6.049   2.410 -1.7131  3.8309  0.9272
  579MOL0     H76401   6.887   6.004   2.538 -1.4296 -0.9186  3.8467
  579MOL0     H76402   6.590   5.928   2.532 -0.7470  1.7478  0.9048
  579MOL0     H76403   6.690   5.913   2.672  0.3768 -3.0651 -0.4414
  579MOL0     H76404   6.837   5.769   2.539 -2.3168 -0.7338  3.3105
  579MOL0     H76405   6.738   5.808   2.390 -0.8212  2.2451 -0.3087
  579MOL0     H76406   6.689   5.628   2.633  0.9484  1.0309  0.4768
  579MOL0     H76407   6.560   5.682   2.533  0.2344  0.0529 -0.7696
  579MOL0     H76408   6.688   5.550   2.338 -1.4398  1.1996 -0.1030
  579MOL0     H76409   6.688   5.447   2.477  1.7904 -2.0701 -1.6285
  579MOL0     H76410   7.208   6.330   2.586  2.3029 -1.1954  2.4388
  579MOL0     H76411   7.440   6.263   2.586 -0.4921  1.6882 -1.4714
  579MOL0     H76412   7.711   5.957   2.638 -1.0099 -1.2522 -0.7649
  579MOL0     H76413   7.935   5.943   2.725 -1.3819  1.1361  0.9192
  579MOL0     H76414  10.142   6.032   2.397  1.1084  0.7011 -0.0044
  579MOL0     H76415  10.280   5.820   2.393  0.2000  0.6731  1.2743
  579MOL0     H76416  10.269   5.257   2.741  1.1193  0.3796  1.5198
  579MOL0     H76417  10.470   5.135   2.761  0.7079 -0.7340  0.6075
  579MOL0     H76418  10.652   5.030   2.739  0.4564 -0.2059  0.0369
  579MOL0     H76419  10.691   5.149   2.865 -2.2111 -0.6700 -0.7860
  579MOL0     H76420  10.938   5.107   2.809  0.2833  1.0573 -2.0141
  579MOL0     H76421  10.873   4.960   2.864 -1.6885  1.7613  1.1501
  579MOL0     H76422  10.874   5.018   2.573  2.2695 -1.3716 -1.1928
  579MOL0     H76423  10.875   4.865   2.659 -0.0374 -1.0190 -0.3695
  579MOL0     H76424  11.124   4.973   2.735 -0.7337 -1.1335 -0.4412
  579MOL0     H76425  11.109   4.895   2.570  0.4487  1.7201 -1.6087
  579MOL0     H76426  11.122   5.332   2.574 -0.0659  0.7636 -0.4216
  579MOL0     H76427  10.681   5.419   2.528  0.4786 -1.4034  0.5138
  579MOL0     H76428  10.485   5.566   2.539  0.2221  0.0388 -0.8438
  580MOL0     O76429   0.780   2.431  10.859  0.0523 -0.3458 -0.0273
  580MOL0     C76430   0.773   2.537  10.922  0.1502 -0.4288  0.9157
  580MOL0     O76431   0.659   2.590  10.973  0.0182 -0.6677  0.0051
  580MOL0     C76432   0.542   2.520  10.983 -0.4709  0.0887  0.0853
  580MOL0     C76433   0.447   2.553  10.882 -0.2885  1.2451  0.3838
  580MOL0     C76434   0.317   2.492  10.882  0.2119  1.0575  0.1850
  580MOL0     C76435   0.294   2.383  10.977  0.9201 -0.3842  1.2041
  580MOL0     O76436   0.173   2.319  10.978  0.2671  0.5402  0.4860
  580MOL0     C76437   0.058   2.372  10.912 -0.8655 -0.7357 -0.0839
  580MOL0     C76438  -0.077   2.320  10.947  0.1088  0.3262 -0.9736
  580MOL0     C76439  -0.179   2.402  10.882 -0.3861 -0.2033  0.0953
  580MOL0     C76440  -0.307   2.380  10.950  0.7202 -0.1560 -0.6593
  580MOL0     C76441  -0.433   2.445  10.887  0.7210 -0.0495  1.1648
  580MOL0     C76442  -0.555   2.377  10.957  0.3163 -0.5360 -0.3600
  580MOL0     C76443  -0.682   2.434  10.915 -0.6610 -0.1432 -0.3947
  580MOL0     C76444  -0.789   2.334  10.931  0.1249  0.5780  0.4236
  580MOL0     N76445  -0.822   2.300  11.072 -0.3599 -0.3492 -0.4635
  580MOL0     C76446  -0.882   2.393  11.161  0.5679  0.5878 -0.5610
  580MOL0     C76447  -0.905   2.322  11.280 -0.4089 -0.4568 -0.1605
  580MOL0     C76448  -0.968   2.378  11.411 -0.3733  0.3501  0.6343
  580MOL0     C76449  -1.108   2.433  11.377 -0.6486 -0.4591  0.5197
  580MOL0     C76450  -1.173   2.465  11.517 -0.7621  1.1054  0.1400
  580MOL0     C76451  -1.325   2.486  11.486 -0.5358  0.3377 -0.5499
  580MOL0     O76452  -1.374   2.529  11.613  0.0937 -0.3007  0.2958
  580MOL0     C76453  -1.509   2.548  11.631 -0.1520 -0.2394 -0.2072
  580MOL0     C76454  -1.605   2.517  11.539  0.0635 -0.2576  0.1065
  580MOL0     C76455  -1.739   2.524  11.570  0.2187  0.4964  0.5457
  580MOL0     C76456  -1.781   2.568  11.698 -0.2912  0.2119  0.4102
  580MOL0     C76457  -1.918   2.557  11.743 -0.0226  0.0690 -0.1903
  580MOL0     O76458  -1.932   2.605  11.873  0.6185  0.3868  0.0976
  580MOL0     C76459  -2.064   2.622  11.903 -0.0755  0.0417  0.6461
  580MOL0     C76460  -2.128   2.743  11.868  0.7600 -0.8925  0.1299
  580MOL0     C76461  -2.266   2.766  11.897  0.2566 -0.5061  0.6102
  580MOL0     C76462  -2.333   2.662  11.966 -1.1290  0.2983  0.8250
  580MOL0     O76463  -2.459   2.684  11.991  0.2973  0.6381 -0.5337
  580MOL0     C76464  -2.531   2.580  12.059  0.3497 -0.7759  1.0861
  580MOL0     C76465  -2.679   2.619  12.063  0.3065  0.0198 -0.2121
  580MOL0     C76466  -2.707   2.753  12.139  0.0749  0.3276  0.7896
  580MOL0     C76467  -2.855   2.799  12.118 -0.5497 -0.6771  0.4815
  580MOL0     C76468  -2.890   2.904  12.222  0.3627 -0.6231  0.1441
  580MOL0     C76469  -3.015   2.987  12.177 -0.5393 -0.0075  0.5086
  580MOL0     C76470  -3.125   2.941  12.268  0.0943  0.6367 -0.5705
  580MOL0     C76471  -3.254   2.954  12.190  0.9472  1.2619 -1.1370
  580MOL0    Cl76472  -3.300   3.122  12.129  0.1748  0.2966  0.2287
  580MOL0     C76473  -2.255   2.561  12.025 -0.0341 -2.0658 -0.4786
  580MOL0     C76474  -2.127   2.535  11.991 -0.1032 -0.4110  0.3196
  580MOL0     O76475  -2.005   2.518  11.664  0.0667  0.0818 -0.0936
  580MOL0     C76476  -1.682   2.594  11.795 -1.2074 -0.8886  0.2998
  580MOL0     C76477  -1.544   2.591  11.759 -0.6173 -0.1893  0.0768
  580MOL0     N76478  -0.852   2.198  11.261  0.3900  0.5821  0.9327
  580MOL0     N76479  -0.793   2.186  11.144  0.0478 -0.1935  0.3116
  580MOL0     C76480   0.391   2.347  11.066 -0.3970  0.3559 -0.1803
  580MOL0     C76481   0.513   2.418  11.070 -0.3123  1.0855  0.4311
  580MOL0     C76482   0.889   2.628  10.914  0.1922  0.2536 -0.1338
  580MOL0     C76483   1.011   2.591  10.859 -0.1926  0.2026 -0.7817
  580MOL0     C76484   1.124   2.671  10.878  0.3486  0.0859  0.6437
  580MOL0     C76485   1.114   2.785  10.951 -0.2841 -1.1739  0.6475
  580MOL0     O76486   1.233   2.847  10.955  0.4593 -0.2520 -0.0438
  580MOL0     C76487   1.249   2.964  11.042 -0.3403  0.3260  0.9532
  580MOL0     C76488   1.270   2.910  11.187  0.1228 -0.1877  0.0866
  580MOL0     C76489   1.410   2.885  11.222  0.6283 -0.6236  0.0669
  580MOL0     C76490   1.421   2.827  11.367  0.5236  0.2356 -0.0046
  580MOL0     C76491   1.561   2.794  11.390  0.1202  0.1849 -0.0726
  580MOL0     C76492   1.677   2.787  11.403  0.6276  0.8188 -0.4098
  580MOL0     C76493   0.997   2.819  11.015 -0.5826 -0.4998 -0.6618
  580MOL0     C76494   0.878   2.747  10.986 -0.4687  0.2299 -0.3824
  580MOL0     H76495   0.464   2.635  10.813 -0.9415  1.0796  0.0174
  580MOL0     H76496   0.247   2.523  10.804 -0.4635  0.7476  0.6639
  580MOL0     H76497   0.085   2.367  10.806 -2.1214  1.8953 -0.6179
  580MOL0     H76498   0.050   2.480  10.931  2.8982 -0.1413 -1.0723
  580MOL0     H76499  -0.088   2.322  11.056  0.1061  1.5366 -0.9820
  580MOL0     H76500  -0.087   2.216  10.913 -3.0351  0.2322 -0.0640
  580MOL0     H76501  -0.190   2.379  10.776  2.7816 -0.9155 -0.1862
  580MOL0     H76502  -0.159   2.510  10.885 -2.0755  0.1379  2.7650
  580MOL0     H76503  -0.330   2.274  10.955  0.8466 -0.1481  0.4856
  580MOL0     H76504  -0.300   2.423  11.051 -2.2995 -0.0117 -0.4370
  580MOL0     H76505  -0.440   2.427  10.780  0.6573  3.7586  0.3899
  580MOL0     H76506  -0.432   2.553  10.902 -0.5102  0.6227 -2.6392
  580MOL0     H76507  -0.536   2.414  11.059 -0.3698  2.6967 -1.2744
  580MOL0     H76508  -0.551   2.269  10.940 -1.6715 -0.5152 -1.1672
  580MOL0     H76509  -0.711   2.520  10.976  1.0152  0.2151 -0.0501
  580MOL0     H76510  -0.681   2.466  10.810 -0.3349 -0.2059 -0.4096
  580MOL0     H76511  -0.753   2.247  10.875  3.3644  1.9454  0.1576
  580MOL0     H76512  -0.879   2.374  10.883 -1.4536 -0.9544  1.9171
  580MOL0     H76513  -0.901   2.500  11.151 -3.5226  0.0560 -0.4781
  580MOL0     H76514  -0.899   2.456  11.446  1.1900  0.3050 -2.0578
  580MOL0     H76515  -0.975   2.299  11.486  1.0756 -1.0181 -0.5960
  580MOL0     H76516  -1.170   2.359  11.327  2.8271 -2.5701 -1.0714
  580MOL0     H76517  -1.090   2.521  11.315 -3.2158 -1.0415 -1.2019
  580MOL0     H76518  -1.150   2.389  11.592 -3.9872  0.5592  0.7444
  580MOL0     H76519  -1.125   2.561  11.540  0.1716  0.7094 -0.1355
  580MOL0     H76520  -1.378   2.402  11.440 -0.0357 -0.9682  1.1781
  580MOL0     H76521  -1.327   2.573  11.419 -4.4753  0.1129 -0.9869
  580MOL0     H76522  -1.585   2.488  11.436 -0.4014 -0.7071  0.1401
  580MOL0     H76523  -1.806   2.487  11.493  1.8551  0.3591 -0.8464
  580MOL0     H76524  -2.066   2.810  11.809  2.1570 -2.0638  0.1950
  580MOL0     H76525  -2.319   2.850  11.854 -1.2187 -0.8593  1.6603
  580MOL0     H76526  -2.498   2.569  12.162 -2.8034 -0.9024  2.1895
  580MOL0     H76527  -2.516   2.491  11.997  0.1044  0.9860 -1.7004
  580MOL0     H76528  -2.727   2.541  12.122 -2.4236  1.3717 -0.5179
  580MOL0     H76529  -2.712   2.617  11.959  3.0008 -0.1482 -1.1561
  580MOL0     H76530  -2.646   2.834  12.097  0.0042 -0.4472 -0.8788
  580MOL0     H76531  -2.673   2.743  12.243 -1.5001 -0.0400  1.3010
  580MOL0     H76532  -2.868   2.842  12.019 -0.0350 -3.8852 -1.1358
  580MOL0     H76533  -2.917   2.709  12.122 -1.0146 -0.3460  0.8314
  580MOL0     H76534  -2.803   2.968  12.237 -0.5769  0.8251 -0.2964
  580MOL0     H76535  -2.911   2.854  12.317 -1.0808 -1.8698 -0.7810
  580MOL0     H76536  -3.047   2.959  12.077 -1.7497  2.7069  0.0237
  580MOL0     H76537  -3.004   3.096  12.175 -1.3122  0.0685 -1.0171
  580MOL0     H76538  -3.124   2.836  12.299 -0.7110  0.9733  0.6763
  580MOL0     H76539  -3.121   2.994  12.363 -0.3681 -1.5420  0.7403
  580MOL0     H76540  -3.331   2.909  12.253  0.7478 -0.5733 -2.5774
  580MOL0     H76541  -3.245   2.882  12.108  1.5463 -0.1631  0.1468
  580MOL0     H76542  -2.310   2.499  12.095 -0.5699 -1.5448 -0.4336
  580MOL0     H76543  -2.067   2.458  12.038  0.6971 -0.9556 -1.4857
  580MOL0     H76544  -1.693   2.626  11.898 -0.1780  1.5691 -0.2811
  580MOL0     H76545  -1.475   2.610  11.841 -1.9152 -3.5086  2.1945
  580MOL0     H76546   0.379   2.255  11.122  0.3793 -0.5626 -1.4652
  580MOL0     H76547   0.586   2.394  11.145  0.4119 -0.6024 -0.7428
  580MOL0     H76548   1.021   2.496  10.808 -4.7189 -1.0100  0.1752
  580MOL0     H76549   1.226   2.644  10.852  0.8677  1.8265  0.7709
  580MOL0     H76550   1.162   3.029  11.031  2.0583  3.7279  0.6482
  580MOL0     H76551   1.329   3.033  11.014 -2.2150  2.1726 -0.1160
  580MOL0     H76552   1.245   2.987  11.261  1.1721  0.3874 -0.1348
  580MOL0     H76553   1.203   2.824  11.198  0.3171 -0.2083  1.2301
  580MOL0     H76554   1.463   2.979  11.203 -0.5728 -0.5032 -3.6787
  580MOL0     H76555   1.453   2.811  11.154  1.1072 -0.3129  0.0344
  580MOL0     H76556   1.407   2.913  11.434  0.5268 -1.0145  1.6711
  580MOL0     H76557   1.351   2.748  11.394  0.3561  0.7395  1.0846
  580MOL0     H76558   1.781   2.767  11.417  0.6076  0.4319 -0.8076
  580MOL0     H76559   0.971   2.909  11.071 -2.9312 -1.2236 -0.4999
  580MOL0     H76560   0.784   2.775  11.032 -1.6898 -4.4865  0.4674
  581MOL0     O76561   1.638   6.902  11.139  0.0179  0.3029 -0.1704
  581MOL0     C76562   1.665   6.816  11.054 -0.2155  0.3494  0.8306
  581MOL0     O76563   1.583   6.715  11.018 -0.1375 -0.0327  0.5034
  581MOL0     C76564   1.468   6.701  11.091  1.1924  0.8024 -0.5180
  581MOL0     C76565   1.472   6.671  11.229  0.2597 -0.6510  0.7310
  581MOL0     C76566   1.358   6.684  11.309  0.3155 -0.2876  0.3212
  581MOL0     C76567   1.233   6.685  11.238 -0.8611 -0.6968 -0.4750
  581MOL0     O76568   1.131   6.675  11.328 -0.2241  0.1161  0.3740
  581MOL0     C76569   1.059   6.793  11.349 -0.4918  0.6047  0.2003
  581MOL0     C76570   0.972   6.777  11.469  0.0777 -0.5096  0.2707
  581MOL0     C76571   0.856   6.689  11.442 -0.7719  0.4217  0.2679
  581MOL0     C76572   0.756   6.688  11.555  0.5886 -0.7872 -0.0342
  581MOL0     C76573   0.657   6.570  11.522 -0.6874  0.4383  0.7122
  581MOL0     C76574   0.561   6.546  11.637 -0.0909  0.0534 -0.6348
  581MOL0     C76575   0.509   6.410  11.632  0.1243  0.2627 -0.2912
  581MOL0     C76576   0.402   6.408  11.741  0.2129  0.4272 -0.2304
  581MOL0     N76577   0.328   6.284  11.749  0.0811 -0.2499 -0.0470
  581MOL0     C76578   0.368   6.163  11.808  0.2966  0.4127  0.7812
  581MOL0     C76579   0.260   6.080  11.805  0.1510  0.2148 -0.0041
  581MOL0     C76580   0.235   5.950  11.861 -0.3160  0.1664 -1.0124
  581MOL0     C76581   0.098   5.916  11.922  0.5695 -1.5413 -0.7163
  581MOL0     C76582   0.060   5.982  12.057 -0.1333 -0.0685 -0.2687
  581MOL0     C76583  -0.095   5.987  12.080  0.2310  0.0456 -0.2612
  581MOL0     O76584  -0.155   5.852  12.064 -0.4255 -0.2729  1.0540
  581MOL0     C76585  -0.272   5.813  12.130  0.4345 -0.4461 -0.3482
  581MOL0     C76586  -0.308   5.681  12.116  0.5252 -0.2380  0.1483
  581MOL0     C76587  -0.434   5.632  12.170  0.4192  0.0636 -0.8106
  581MOL0     C76588  -0.517   5.722  12.246  0.0568 -0.7774  0.3701
  581MOL0     C76589  -0.650   5.678  12.307 -0.4804 -0.7018  0.6076
  581MOL0     O76590  -0.733   5.784  12.335  0.0268 -0.0429 -0.2888
  581MOL0     C76591  -0.865   5.765  12.379 -0.7054 -0.1959  0.0610
  581MOL0     C76592  -0.968   5.840  12.326  0.6958 -0.5457  0.8195
  581MOL0     C76593  -1.102   5.822  12.366 -0.3062  1.2567 -0.0205
  581MOL0     C76594  -1.127   5.734  12.461  0.5501  1.1468 -0.2854
  581MOL0     O76595  -1.262   5.713  12.493  0.2248  0.4129 -0.4638
  581MOL0     C76596  -1.331   5.625  12.405  0.4912  0.8724  0.5512
  581MOL0     C76597  -1.440   5.535  12.464 -0.3966  0.4216 -0.2797
  581MOL0     C76598  -1.364   5.414  12.526 -0.8402 -1.4825 -0.2383
  581MOL0     C76599  -1.463   5.334  12.608  0.6678 -0.0226  0.1623
  581MOL0     C76600  -1.458   5.369  12.758 -0.0117 -0.0083 -1.3061
  581MOL0     C76601  -1.597   5.370  12.817 -0.2044  0.2712  0.8667
  581MOL0     C76602  -1.652   5.222  12.836  0.3864 -0.8247  0.2084
  581MOL0     C76603  -1.794   5.223  12.892  0.3321  0.7494  0.3210
  581MOL0    Cl76604  -1.909   5.307  12.788  0.4831 -0.2894  0.3094
  581MOL0     C76605  -1.030   5.653  12.513 -1.0434 -0.1723  0.3640
  581MOL0     C76606  -0.896   5.669  12.477 -0.1053  0.1345  0.6490
  581MOL0     O76607  -0.687   5.565  12.291 -0.0368 -0.1984  0.1755
  581MOL0     C76608  -0.471   5.858  12.266  0.0764 -0.2057  0.4369
  581MOL0     C76609  -0.356   5.900  12.207 -0.4182  0.1471  0.5734
  581MOL0     N76610   0.156   6.155  11.756  0.6429 -0.6441 -0.0883
  581MOL0     N76611   0.193   6.277  11.728  0.2971  0.5773 -0.1981
  581MOL0     C76612   1.223   6.700  11.098  0.2616 -0.3219 -0.0572
  581MOL0     C76613   1.342   6.717  11.033 -0.0329  0.3324  0.0184
  581MOL0     C76614   1.780   6.828  10.965 -0.9270 -0.4876 -0.3881
  581MOL0     C76615   1.817   6.722  10.880 -0.3506 -0.0978 -0.5112
  581MOL0     C76616   1.935   6.731  10.807 -0.2124  0.2911  0.2915
  581MOL0     C76617   2.022   6.841  10.808  0.1744 -0.6846  0.6773
  581MOL0     O76618   2.133   6.836  10.731 -0.4592 -0.1172  0.3321
  581MOL0     C76619   2.249   6.903  10.777 -0.6646 -0.3853 -0.4228
  581MOL0     C76620   2.379   6.822  10.760 -0.3155  0.4568  0.0059
  581MOL0     C76621   2.383   6.691  10.839  0.0021  0.4618  0.1924
  581MOL0     C76622   2.532   6.632  10.841 -0.5279  0.8960 -0.4514
  581MOL0     C76623   2.638   6.722  10.890  0.1375  0.2327  0.7845
  581MOL0     C76624   2.734   6.794  10.912 -0.1463 -0.5521 -0.1617
  581MOL0     C76625   1.977   6.951  10.890 -0.0660  0.0983  0.1759
  581MOL0     C76626   1.855   6.949  10.964  0.0262  0.3448  0.8489
  581MOL0     H76627   1.568   6.641  11.270  0.9521  1.0597  0.4422
  581MOL0     H76628   1.371   6.680  11.416 -2.1840  2.8950  0.8656
  581MOL0     H76629   1.008   6.816  11.255 -1.3192  0.7389  0.6708
  581MOL0     H76630   1.132   6.870  11.378 -0.1148 -0.1664  1.3557
  581MOL0     H76631   0.951   6.877  11.509  1.5543 -0.8238  1.9536
  581MOL0     H76632   1.034   6.728  11.545 -1.0651  0.4957  1.9394
  581MOL0     H76633   0.901   6.590  11.424  0.4436  1.0735 -0.4093
  581MOL0     H76634   0.810   6.722  11.349  1.8016 -1.8176 -1.9813
  581MOL0     H76635   0.803   6.677  11.653 -1.4374 -4.1086  0.7343
  581MOL0     H76636   0.696   6.779  11.546 -1.2431 -1.6616  2.5227
  581MOL0     H76637   0.723   6.487  11.495  1.3206  3.0032 -3.1326
  581MOL0     H76638   0.613   6.595  11.425  1.3194 -3.1106 -1.3162
  581MOL0     H76639   0.483   6.623  11.631 -2.1034 -1.8958 -1.1150
  581MOL0     H76640   0.609   6.567  11.733 -0.3716  2.4877 -0.9511
  581MOL0     H76641   0.461   6.398  11.534  0.5668 -0.7282 -0.3939
  581MOL0     H76642   0.581   6.330  11.649 -0.9718 -0.6180  0.3573
  581MOL0     H76643   0.331   6.489  11.729 -0.1400  0.9141  3.7281
  581MOL0     H76644   0.454   6.427  11.836 -0.0278  0.7460 -0.1638
  581MOL0     H76645   0.460   6.148  11.864  1.7322  1.1314 -1.2667
  581MOL0     H76646   0.309   5.923  11.937 -0.5585 -1.5317 -1.3369
  581MOL0     H76647   0.246   5.877  11.780 -0.1680 -1.6571  0.5756
  581MOL0     H76648   0.090   5.807  11.930 -0.4836 -1.4324 -0.1041
  581MOL0     H76649   0.029   5.956  11.847  0.6399  0.2317  0.1244
  581MOL0     H76650   0.108   5.924  12.136  0.8209 -0.8976 -1.4248
  581MOL0     H76651   0.098   6.085  12.057  1.2644 -0.5522 -1.0446
  581MOL0     H76652  -0.150   6.062  12.022 -1.0561 -0.8425 -0.2376
  581MOL0     H76653  -0.115   6.011  12.185  2.1084 -0.4372  0.2371
  581MOL0     H76654  -0.233   5.623  12.063  1.3210  3.1977 -2.9122
  581MOL0     H76655  -0.457   5.527  12.162 -0.6315  0.4057 -2.8993
  581MOL0     H76656  -0.962   5.914  12.248 -0.9183 -0.5993  0.6084
  581MOL0     H76657  -1.182   5.879  12.320 -0.5094  2.5882  1.8496
  581MOL0     H76658  -1.254   5.565  12.355 -1.1123 -2.0844  1.3341
  581MOL0     H76659  -1.392   5.686  12.338 -2.1647 -1.8429  0.2423
  581MOL0     H76660  -1.507   5.498  12.386  0.4237 -2.4327  0.2698
  581MOL0     H76661  -1.491   5.601  12.535 -0.8420  2.8022 -2.6561
  581MOL0     H76662  -1.287   5.452  12.594 -2.2319  1.7348 -0.2609
  581MOL0     H76663  -1.307   5.361  12.450  1.5554 -1.2291  1.2825
  581MOL0     H76664  -1.567   5.336  12.573  0.7069 -1.2945 -0.0667
  581MOL0     H76665  -1.432   5.230  12.597  0.7390 -0.1312  1.2642
  581MOL0     H76666  -1.411   5.467  12.773 -0.8277  0.6964 -3.0888
  581MOL0     H76667  -1.397   5.294  12.810 -2.3256 -0.4096  1.0913
  581MOL0     H76668  -1.666   5.427  12.754  1.1915  1.6435  0.5330
  581MOL0     H76669  -1.591   5.410  12.919  0.3557 -0.0655  0.9684
  581MOL0     H76670  -1.650   5.157  12.748 -0.3220 -0.1015 -0.3569
  581MOL0     H76671  -1.601   5.177  12.922  1.7391 -0.5688 -0.4216
  581MOL0     H76672  -1.788   5.267  12.992 -0.3794 -1.7976  1.5389
  581MOL0     H76673  -1.815   5.117  12.903  3.9696 -0.0870  0.4679
  581MOL0     H76674  -1.056   5.579  12.588  0.1621  1.5794  2.6339
  581MOL0     H76675  -0.815   5.608  12.516 -1.0069  0.5340  3.3474
  581MOL0     H76676  -0.536   5.925  12.320 -1.4884 -1.4650  0.2007
  581MOL0     H76677  -0.338   6.007  12.216  0.7442  0.0684 -0.5022
  581MOL0     H76678   1.127   6.693  11.047  0.6586 -5.3019 -0.6677
  581MOL0     H76679   1.329   6.729  10.926 -1.4025 -2.1625 -0.1840
  581MOL0     H76680   1.762   6.631  10.858 -1.3335  0.6460 -1.2311
  581MOL0     H76681   1.969   6.641  10.756  0.6668 -2.3343  4.9404
  581MOL0     H76682   2.240   6.941  10.879 -1.7364  2.6391 -1.5286
  581MOL0     H76683   2.258   6.994  10.715  1.2404  0.4790  1.0213
  581MOL0     H76684   2.405   6.811  10.655  0.3781  0.0146  0.2217
  581MOL0     H76685   2.451   6.896  10.798 -0.8718  0.7534  0.5076
  581MOL0     H76686   2.308   6.627  10.790 -0.4051  2.0697 -1.3746
  581MOL0     H76687   2.347   6.718  10.939 -1.7344  3.2306 -1.0480
  581MOL0     H76688   2.539   6.544  10.905 -0.8834  2.7746  2.3453
  581MOL0     H76689   2.557   6.611  10.737 -0.5229 -0.7920 -0.1469
  581MOL0     H76690   2.824   6.849  10.931  1.0318 -2.2386 -0.6229
  581MOL0     H76691   2.028   7.047  10.884  1.4770 -0.6965 -0.0388
  581MOL0     H76692   1.816   7.039  11.011 -0.3005 -0.1571  1.5502
  582MOL0     O76693   4.116   3.974   0.062 -0.4115 -0.3703 -0.0474
  582MOL0     C76694   4.128   3.958  -0.061 -0.5347  0.1443 -1.0974
  582MOL0     O76695   4.042   3.903  -0.154  0.0519  0.5804 -0.6798
  582MOL0     C76696   3.909   3.899  -0.136  0.1485 -0.6404 -1.5697
  582MOL0     C76697   3.829   4.002  -0.080 -0.0386  0.5389  0.0847
  582MOL0     C76698   3.697   3.987  -0.038 -0.2724  0.4160 -0.1881
  582MOL0     C76699   3.633   3.868  -0.075  0.0427  0.1926  0.4527
  582MOL0     O76700   3.502   3.841  -0.049 -0.0330  0.0032  0.8638
  582MOL0     C76701   3.422   3.913   0.045  0.0953  0.2234  0.8318
  582MOL0     C76702   3.279   3.841   0.038 -0.3907  0.8893 -0.2664
  582MOL0     C76703   3.183   3.911   0.142 -1.2336  0.0762  1.0857
  582MOL0     C76704   3.040   3.875   0.102 -0.3070 -0.6780  1.0644
  582MOL0     C76705   3.004   3.727   0.091  0.5519  0.3172 -0.2007
  582MOL0     C76706   2.844   3.709   0.113 -0.0879  0.4967 -0.9380
  582MOL0     C76707   2.747   3.774   0.016 -0.4155 -0.4847 -0.0264
  582MOL0     C76708   2.604   3.735   0.035 -0.1656  0.6033  0.6291
  582MOL0     N76709   2.557   3.746   0.167  0.4191  0.4220 -0.5289
  582MOL0     C76710   2.534   3.653   0.265  0.8007 -0.3555 -0.5982
  582MOL0     C76711   2.525   3.726   0.381 -0.2230  0.7541  0.0403
  582MOL0     C76712   2.481   3.663   0.510  0.5724 -0.6403 -0.4308
  582MOL0     C76713   2.569   3.704   0.631 -0.3887 -0.1954  0.6735
  582MOL0     C76714   2.489   3.812   0.699 -0.1649 -0.4650 -0.9893
  582MOL0     C76715   2.385   3.744   0.794 -0.4497 -0.4706  0.2678
  582MOL0     O76716   2.291   3.840   0.845 -0.2478 -0.9761 -0.4022
  582MOL0     C76717   2.163   3.836   0.794 -0.0067  0.1753  0.6447
  582MOL0     C76718   2.053   3.832   0.881  0.3618 -0.9052  0.2452
  582MOL0     C76719   1.923   3.820   0.828  0.4773  0.3700 -0.2786
  582MOL0     C76720   1.897   3.790   0.694 -0.3872 -0.7494 -0.5235
  582MOL0     C76721   1.758   3.751   0.648 -0.5058  0.8352 -0.0485
  582MOL0     O76722   1.688   3.674   0.741  0.5864 -0.5149 -0.6698
  582MOL0     C76723   1.553   3.650   0.723  0.0041 -0.2357 -0.2791
  582MOL0     C76724   1.507   3.515   0.716  0.2725  1.3967  0.7951
  582MOL0     C76725   1.370   3.489   0.701 -0.2642  0.4475  0.0087
  582MOL0     C76726   1.268   3.593   0.701 -0.3138  0.1056 -0.8708
  582MOL0     O76727   1.130   3.574   0.713  0.3042 -0.3587 -0.3423
  582MOL0     C76728   1.071   3.451   0.771  0.1155 -0.1112 -0.4044
  582MOL0     C76729   1.001   3.359   0.678 -1.0294 -0.5449  1.1321
  582MOL0     C76730   0.858   3.347   0.729  0.2250  0.0552  0.3243
  582MOL0     C76731   0.775   3.243   0.651 -0.9995  0.5697 -0.0549
  582MOL0     C76732   0.651   3.185   0.730 -1.3008 -0.0883  0.2487
  582MOL0     C76733   0.605   3.053   0.654  0.2412 -0.0434 -0.3541
  582MOL0     C76734   0.602   3.064   0.507  0.0034 -0.7530 -0.6400
  582MOL0     C76735   0.499   2.971   0.443 -0.4851 -0.2731  0.7534
  582MOL0    Cl76736   0.338   3.001   0.509 -0.1066 -0.4523 -0.5790
  582MOL0     C76737   1.316   3.726   0.704 -0.4241 -0.3774  0.1892
  582MOL0     C76738   1.455   3.753   0.734 -0.6120  0.0796 -0.4349
  582MOL0     O76739   1.707   3.780   0.540 -0.3397 -0.3308 -0.2748
  582MOL0     C76740   2.002   3.801   0.608 -0.2748  0.0676  0.1104
  582MOL0     C76741   2.133   3.825   0.657  0.7682 -0.1541  0.3396
  582MOL0     N76742   2.540   3.857   0.347  0.0143 -1.0529 -0.6473
  582MOL0     N76743   2.556   3.867   0.221  0.5236  0.4019  0.5169
  582MOL0     C76744   3.706   3.759  -0.139  1.4675 -0.3661 -0.0022
  582MOL0     C76745   3.841   3.776  -0.167  0.4033  0.5793  0.7011
  582MOL0     C76746   4.247   4.014  -0.129 -0.4589  1.0038 -0.3903
  582MOL0     C76747   4.341   4.090  -0.050  0.2819 -1.1768  0.4534
  582MOL0     C76748   4.458   4.124  -0.103 -1.0015  0.5438  0.3966
  582MOL0     C76749   4.496   4.106  -0.234 -0.1715 -0.6521 -0.8126
  582MOL0     O76750   4.614   4.159  -0.280 -0.1879  0.0320 -0.5853
  582MOL0     C76751   4.673   4.118  -0.396 -0.3680  0.7436  0.2895
  582MOL0     C76752   4.825   4.111  -0.378 -0.0678  0.7631 -0.4798
  582MOL0     C76753   4.878   4.047  -0.242  0.3949  0.3361 -0.2115
  582MOL0     C76754   5.028   4.008  -0.261 -0.1405 -0.1122 -0.0691
  582MOL0     C76755   5.110   4.127  -0.237  0.7170 -0.8322 -0.3822
  582MOL0     C76756   5.178   4.226  -0.232 -0.4014 -0.0867  0.0450
  582MOL0     C76757   4.402   4.043  -0.316  0.2430 -0.3440 -0.0631
  582MOL0     C76758   4.284   3.987  -0.264  0.9510  0.5153 -0.1854
  582MOL0     H76759   3.876   4.097  -0.054  0.0394  0.9224 -1.3866
  582MOL0     H76760   3.651   4.066   0.020 -0.2997  1.8481 -2.0633
  582MOL0     H76761   3.407   4.013   0.005 -0.5755 -0.1489  0.1227
  582MOL0     H76762   3.458   3.911   0.148 -1.5032  2.2763  1.4691
  582MOL0     H76763   3.301   3.737   0.066  2.0725  1.4821  0.2450
  582MOL0     H76764   3.241   3.847  -0.064  0.4287  1.8344 -0.5333
  582MOL0     H76765   3.207   4.018   0.132  0.2201 -0.4438 -2.4407
  582MOL0     H76766   3.214   3.862   0.234  0.4920 -1.7723 -0.3802
  582MOL0     H76767   2.981   3.920   0.182  0.0505  0.5906  0.6373
  582MOL0     H76768   3.015   3.922   0.006 -2.2952 -1.3423  1.2082
  582MOL0     H76769   3.056   3.664   0.163 -0.8305 -2.3005 -1.3633
  582MOL0     H76770   3.044   3.688  -0.003  0.7339  0.7705 -0.3166
  582MOL0     H76771   2.813   3.730   0.216  0.6376 -0.4505 -0.5147
  582MOL0     H76772   2.822   3.603   0.101  0.3366 -0.0009  1.8974
  582MOL0     H76773   2.747   3.883   0.024  2.5261 -0.1236 -2.8812
  582MOL0     H76774   2.778   3.760  -0.088 -0.4723  0.0442 -0.1193
  582MOL0     H76775   2.581   3.631   0.011 -3.3306  1.8269 -2.2926
  582MOL0     H76776   2.540   3.789  -0.035  0.1622  0.2517  0.0511
  582MOL0     H76777   2.534   3.546   0.251  2.8757 -0.6255  0.9310
  582MOL0     H76778   2.486   3.554   0.498  1.3216 -0.6609  0.0312
  582MOL0     H76779   2.374   3.686   0.519  0.1891 -2.2594 -0.5588
  582MOL0     H76780   2.671   3.732   0.601 -1.8410  2.7363 -2.0698
  582MOL0     H76781   2.586   3.618   0.697  1.6579 -0.0986  0.3462
  582MOL0     H76782   2.556   3.882   0.749 -1.4974 -1.7268  2.9381
  582MOL0     H76783   2.430   3.876   0.633 -0.3340  0.6594  0.2316
  582MOL0     H76784   2.431   3.695   0.880 -1.8833 -0.6012  1.0063
  582MOL0     H76785   2.335   3.661   0.744 -1.2800 -0.4763  1.0834
  582MOL0     H76786   2.078   3.855   0.984 -0.7798 -4.6419  1.5076
  582MOL0     H76787   1.843   3.812   0.902  2.0071  1.0140  1.5267
  582MOL0     H76788   1.579   3.434   0.725  1.2523  2.0771 -0.5919
  582MOL0     H76789   1.336   3.386   0.704  3.1590 -0.8664 -1.4999
  582MOL0     H76790   1.008   3.489   0.852 -0.5718  0.3813 -1.1511
  582MOL0     H76791   1.144   3.388   0.823  1.8472 -0.1825 -2.7798
  582MOL0     H76792   1.046   3.260   0.693  3.2906  0.4864 -2.5033
  582MOL0     H76793   1.005   3.389   0.573  5.5995 -5.1981 -0.6171
  582MOL0     H76794   0.799   3.439   0.724  0.1366 -0.0427 -0.9187
  582MOL0     H76795   0.856   3.313   0.833 -0.9508 -2.1604 -0.3377
  582MOL0     H76796   0.744   3.279   0.552  0.6664 -0.2705 -0.9175
  582MOL0     H76797   0.840   3.164   0.614 -1.5199  1.7009 -3.9199
  582MOL0     H76798   0.576   3.261   0.750 -0.5952  1.4580 -2.5167
  582MOL0     H76799   0.696   3.139   0.819  0.8953  0.5896 -0.4405
  582MOL0     H76800   0.517   3.014   0.707  1.4329 -0.8329  1.1640
  582MOL0     H76801   0.664   2.966   0.686 -0.7516 -1.0764 -1.2116
  582MOL0     H76802   0.570   3.165   0.480  0.0542 -0.8585 -1.1107
  582MOL0     H76803   0.703   3.054   0.467  0.7939  1.8506  0.4809
  582MOL0     H76804   0.541   2.873   0.468  2.2399  0.8587  1.0375
  582MOL0     H76805   0.495   2.970   0.333 -0.9783 -1.9446  0.7571
  582MOL0     H76806   1.242   3.804   0.691  1.1085  0.9666 -0.7799
  582MOL0     H76807   1.488   3.855   0.750  2.7522 -1.0342  0.6406
  582MOL0     H76808   1.982   3.798   0.502 -7.5106  0.1963  1.0199
  582MOL0     H76809   2.205   3.843   0.578 -0.3614  0.8835 -0.4896
  582MOL0     H76810   3.666   3.659  -0.140  2.1621 -0.6809  1.2904
  582MOL0     H76811   3.904   3.694  -0.200  1.4364  0.9948  1.6145
  582MOL0     H76812   4.315   4.117   0.052 -0.0013  0.5685 -0.0400
  582MOL0     H76813   4.532   4.162  -0.033 -0.4610 -1.9408  1.2956
  582MOL0     H76814   4.638   4.189  -0.471 -1.5969  0.0890  0.2215
  582MOL0     H76815   4.643   4.016  -0.420  1.0928  0.7842 -2.0384
  582MOL0     H76816   4.870   4.057  -0.462  1.2937 -1.2006  1.3967
  582MOL0     H76817   4.847   4.218  -0.376  1.3158  0.5382 -1.7630
  582MOL0     H76818   4.816   3.959  -0.222  0.6117 -0.4892 -2.7208
  582MOL0     H76819   4.875   4.119  -0.160  1.6884  0.0461  0.1058
  582MOL0     H76820   5.053   3.929  -0.189 -0.3940 -2.0498 -2.0061
  582MOL0     H76821   5.044   3.972  -0.363  0.8399  0.3532 -0.0877
  582MOL0     H76822   5.230   4.320  -0.238 -1.4583  0.5459  0.6419
  582MOL0     H76823   4.418   4.042  -0.423  1.7331 -0.7485  0.1476
  582MOL0     H76824   4.225   3.922  -0.328  0.1143 -1.4234  2.3795
  583MOL0     O76825  10.987   4.310   9.927 -0.9549 -0.3355  0.0723
  583MOL0     C76826  10.904   4.232   9.884 -0.1125  1.7316 -0.3719
  583MOL0     O76827  10.913   4.178   9.752 -0.0007  0.0094  0.1039
  583MOL0     C76828  11.008   4.213   9.657 -1.0993  0.2282  0.6475
  583MOL0     C76829  11.145   4.247   9.680  0.4525 -0.1252 -0.4301
  583MOL0     C76830  11.239   4.262   9.577 -0.0536 -0.8573  0.9080
  583MOL0     C76831  11.192   4.239   9.441  0.2831 -0.1720  0.1538
  583MOL0     O76832  11.289   4.268   9.340 -0.1947 -0.3410 -0.9133
  583MOL0     C76833  11.286   4.207   9.213 -0.0193 -0.9341  0.0755
  583MOL0     C76834  11.411   4.254   9.138 -0.0117  0.3171  0.6447
  583MOL0     C76835  11.534   4.221   9.220 -1.5191  0.2393 -0.4998
  583MOL0     C76836  11.664   4.224   9.132 -0.2257 -0.5595  0.0131
  583MOL0     C76837  11.783   4.183   9.217 -0.4249  0.0715  0.4649
  583MOL0     C76838  11.913   4.213   9.142 -0.0095  0.8217  0.0306
  583MOL0     C76839  12.027   4.229   9.240  0.5012 -0.6832  0.4417
  583MOL0     C76840  12.170   4.257   9.168 -0.9590 -0.1219 -0.0538
  583MOL0     N76841  12.165   4.382   9.086  0.0973 -0.0185 -0.1022
  583MOL0     C76842  12.164   4.386   8.946  0.0422  0.5051 -0.1476
  583MOL0     C76843  12.157   4.521   8.920  1.0109 -0.2628  0.2607
  583MOL0     C76844  12.128   4.594   8.789  0.2632 -0.6154 -0.5798
  583MOL0     C76845  11.975   4.634   8.783 -0.1088  0.4802 -0.5201
  583MOL0     C76846  11.948   4.690   8.638  0.6543  0.1757 -0.3690
  583MOL0     C76847  11.814   4.768   8.649  0.3598  0.7328 -0.5120
  583MOL0     O76848  11.762   4.806   8.523  0.2516  0.4291  0.8261
  583MOL0     C76849  11.620   4.796   8.508  0.0270 -0.4355  0.2344
  583MOL0     C76850  11.570   4.709   8.414  0.3951 -0.1481  0.0933
  583MOL0     C76851  11.435   4.704   8.392 -0.4981 -0.0631  0.9989
  583MOL0     C76852  11.347   4.783   8.458  0.4775 -0.3081 -0.3527
  583MOL0     C76853  11.198   4.771   8.450 -0.7740  0.0665  0.1353
  583MOL0     O76854  11.145   4.722   8.334 -0.6625 -0.5552  0.7970
  583MOL0     C76855  11.036   4.650   8.356 -0.2332 -1.1879 -0.3960
  583MOL0     C76856  10.936   4.691   8.279 -0.0777  0.3306 -0.8724
  583MOL0     C76857  10.808   4.628   8.303  0.4787  0.2953  0.1896
  583MOL0     C76858  10.790   4.513   8.378  0.6242  0.6702 -0.1122
  583MOL0     O76859  10.674   4.440   8.356 -0.9316 -0.7622 -0.2450
  583MOL0     C76860  10.558   4.497   8.408  0.3928  0.0032  0.1480
  583MOL0     C76861  10.442   4.415   8.352 -0.5406 -1.3691 -0.0115
  583MOL0     C76862  10.298   4.461   8.386  1.0466  0.0558 -0.7423
  583MOL0     C76863  10.195   4.375   8.301  0.5343  0.2255 -0.1303
  583MOL0     C76864  10.046   4.383   8.351  0.1594  0.0040  0.3726
  583MOL0     C76865  10.033   4.356   8.498  1.0082  0.0117 -0.8142
  583MOL0     C76866   9.882   4.330   8.540 -0.4541 -1.2064 -0.2405
  583MOL0     C76867   9.875   4.297   8.683 -1.0278  0.5945  0.5015
  583MOL0    Cl76868   9.905   4.433   8.788  0.3031  0.0429 -0.1417
  583MOL0     C76869  10.902   4.472   8.449  0.3669 -0.2973 -0.2745
  583MOL0     C76870  11.026   4.533   8.444  0.1497  0.1170  0.4444
  583MOL0     O76871  11.131   4.791   8.553 -0.2581  0.3829  0.7840
  583MOL0     C76872  11.399   4.871   8.554  1.5159  0.3853  0.2866
  583MOL0     C76873  11.538   4.888   8.578 -0.8517 -0.6642 -0.6617
  583MOL0     N76874  12.184   4.586   9.033 -0.2789 -0.6677  0.5733
  583MOL0     N76875  12.187   4.510   9.130  0.1179  0.0372  0.6630
  583MOL0     C76876  11.059   4.205   9.417  0.2669 -0.1399 -0.8330
  583MOL0     C76877  10.973   4.192   9.526  0.0010 -0.6649 -0.6540
  583MOL0     C76878  10.787   4.202   9.968  0.3677 -0.7589 -0.0555
  583MOL0     C76879  10.773   4.273  10.090 -0.0444  0.5898  0.8894
  583MOL0     C76880  10.671   4.248  10.185  0.2245 -0.1521  0.3211
  583MOL0     C76881  10.588   4.139  10.161 -0.1650  0.1481  0.0930
  583MOL0     O76882  10.490   4.122  10.251  0.3460  0.1422  0.6429
  583MOL0     C76883  10.378   4.043  10.207  0.2503  0.0276  0.7409
  583MOL0     C76884  10.264   4.081  10.298  1.3637 -1.0496 -0.1559
  583MOL0     C76885  10.134   3.997  10.278  0.2067 -0.1836 -0.7452
  583MOL0     C76886  10.005   4.077  10.261  0.4182 -1.0418 -0.0575
  583MOL0     C76887   9.880   4.005  10.244  0.9952 -0.2400 -0.5443
  583MOL0     C76888   9.782   3.937  10.243  0.1946 -0.2570 -0.9188
  583MOL0     C76889  10.605   4.055  10.049 -0.3644 -0.5878 -0.2044
  583MOL0     C76890  10.701   4.093   9.957  0.6086 -0.5912  0.2006
  583MOL0     H76891  11.190   4.254   9.779 -1.7555  1.1257  0.5597
  583MOL0     H76892  11.342   4.280   9.604  0.2343 -0.7273 -0.2378
  583MOL0     H76893  11.199   4.237   9.153  0.2062 -0.9456 -0.2562
  583MOL0     H76894  11.285   4.098   9.229 -1.3570 -0.5938  3.0210
  583MOL0     H76895  11.395   4.360   9.120  0.8379  0.1121 -1.7189
  583MOL0     H76896  11.412   4.207   9.039  1.4228 -1.1938  1.3188
  583MOL0     H76897  11.518   4.118   9.252  1.0481 -0.1546 -0.2228
  583MOL0     H76898  11.548   4.281   9.310  1.7875  1.5938 -1.7276
  583MOL0     H76899  11.655   4.163   9.042 -0.2664  1.4517 -1.4052
  583MOL0     H76900  11.671   4.324   9.088 -2.5439 -0.8851 -1.2444
  583MOL0     H76901  11.787   4.080   9.254  2.4498  0.4975  1.5740
  583MOL0     H76902  11.786   4.243   9.309  5.3930 -0.4029  0.9416
  583MOL0     H76903  11.911   4.302   9.079  1.2237  0.5477 -0.4212
  583MOL0     H76904  11.936   4.131   9.073 -2.7557  1.2505 -1.5364
  583MOL0     H76905  12.008   4.309   9.311 -1.0570 -1.5289  1.0197
  583MOL0     H76906  12.019   4.140   9.304 -2.9063 -0.4680  0.4653
  583MOL0     H76907  12.212   4.176   9.107  0.4317 -0.7989  1.7342
  583MOL0     H76908  12.236   4.259   9.255  0.6615 -1.3195 -1.2053
  583MOL0     H76909  12.156   4.304   8.876  4.9457 -1.5641  1.3058
  583MOL0     H76910  12.166   4.533   8.706  0.6300 -0.1254 -0.7733
  583MOL0     H76911  12.190   4.683   8.780 -1.5290  0.6773 -0.6183
  583MOL0     H76912  11.958   4.710   8.860  2.4419  1.0973 -0.4676
  583MOL0     H76913  11.913   4.549   8.812  2.0795 -0.8862  0.3704
  583MOL0     H76914  12.029   4.756   8.604  1.1075 -1.4177 -2.6375
  583MOL0     H76915  11.942   4.607   8.567  0.9647  2.2172 -2.9473
  583MOL0     H76916  11.809   4.852   8.719 -5.0631 -0.6692  1.2506
  583MOL0     H76917  11.744   4.697   8.692  0.3625  0.9124 -0.2113
  583MOL0     H76918  11.623   4.631   8.360  1.1481  0.4111  0.0036
  583MOL0     H76919  11.394   4.630   8.323 -2.1985  0.8954  0.9179
  583MOL0     H76920  10.935   4.781   8.218 -2.9713  1.9156  1.2997
  583MOL0     H76921  10.725   4.665   8.244  1.9706 -1.1677 -3.0875
  583MOL0     H76922  10.561   4.602   8.375  1.9583 -0.3474 -0.9167
  583MOL0     H76923  10.561   4.493   8.518  0.6413 -0.8593  0.1140
  583MOL0     H76924  10.461   4.309   8.371 -0.2431 -1.7163 -2.0626
  583MOL0     H76925  10.447   4.412   8.243 -3.4366  1.5162 -0.3901
  583MOL0     H76926  10.279   4.568   8.376  3.4291  0.5185 -0.7059
  583MOL0     H76927  10.276   4.434   8.489 -2.5080 -0.7083 -1.5327
  583MOL0     H76928  10.209   4.401   8.196 -0.6362 -0.9430 -0.6072
  583MOL0     H76929  10.229   4.272   8.316 -1.0955 -0.2145  0.8478
  583MOL0     H76930   9.999   4.304   8.292  1.6366  0.4080 -1.4570
  583MOL0     H76931   9.994   4.473   8.316 -1.1610 -1.5835 -2.0784
  583MOL0     H76932  10.072   4.446   8.545 -0.4485  0.8514 -1.1371
  583MOL0     H76933  10.095   4.274   8.535 -1.2685 -1.9342 -1.0171
  583MOL0     H76934   9.823   4.421   8.523  0.1141 -0.9725 -0.9780
  583MOL0     H76935   9.840   4.249   8.479 -1.6381  1.1447 -2.7473
  583MOL0     H76936   9.943   4.215   8.704  0.9645  1.3036 -2.5050
  583MOL0     H76937   9.775   4.253   8.695 -0.8402 -0.8981 -2.4044
  583MOL0     H76938  10.898   4.401   8.531  0.7951  1.7106  1.5878
  583MOL0     H76939  11.120   4.508   8.492  1.0060 -1.9229 -2.0127
  583MOL0     H76940  11.325   4.925   8.612  2.0632  2.7137 -1.0174
  583MOL0     H76941  11.583   4.962   8.643  4.0768 -1.9262 -2.1803
  583MOL0     H76942  11.021   4.202   9.315  0.1619  3.7903 -1.0520
  583MOL0     H76943  10.871   4.161   9.506 -0.0112 -0.5777 -0.7314
  583MOL0     H76944  10.838   4.356  10.116  2.8294 -1.2473 -0.0630
  583MOL0     H76945  10.654   4.317  10.267  0.3896  1.9815 -1.3352
  583MOL0     H76946  10.394   3.935  10.215  1.2089  0.0967 -0.0963
  583MOL0     H76947  10.350   4.063  10.103 -1.5680 -1.3916  0.8977
  583MOL0     H76948  10.304   4.059  10.398  2.7973  0.5733 -0.3296
  583MOL0     H76949  10.237   4.184  10.273 -0.6081 -1.4528  0.1388
  583MOL0     H76950  10.105   3.928  10.358  2.3582 -1.4178 -0.9512
  583MOL0     H76951  10.148   3.942  10.184  1.0860 -0.3795 -0.5064
  583MOL0     H76952   9.991   4.145  10.345 -0.2248 -0.2907 -0.7565
  583MOL0     H76953  10.011   4.146  10.176 -3.4042  2.6493  2.3178
  583MOL0     H76954   9.695   3.875  10.251  0.7702 -0.9134  0.5070
  583MOL0     H76955  10.549   3.962  10.042 -1.6391  0.1720 -0.3351
  583MOL0     H76956  10.702   4.029   9.870 -0.6224 -0.8759  0.3729
  584MOL0     O76957   8.369   1.801   8.198 -0.6861 -0.4134  0.2748
  584MOL0     C76958   8.372   1.915   8.250 -1.0736 -0.3017  0.9375
  584MOL0     O76959   8.267   2.006   8.267 -0.2537 -0.4367 -0.2050
  584MOL0     C76960   8.139   1.998   8.219  0.7448  0.1592 -0.1705
  584MOL0     C76961   8.057   2.112   8.203  0.3874  0.7213 -0.1375
  584MOL0     C76962   7.924   2.109   8.163 -0.1058  0.3752 -0.2576
  584MOL0     C76963   7.867   1.985   8.142  0.1288 -0.0501  0.0256
  584MOL0     O76964   7.740   1.953   8.104  0.6489  0.4568  0.4245
  584MOL0     C76965   7.637   2.044   8.125  0.0287 -0.3113  0.3897
  584MOL0     C76966   7.508   1.960   8.117  0.2820  0.5418 -0.1384
  584MOL0     C76967   7.383   2.040   8.144 -1.0774  0.4546  0.4556
  584MOL0     C76968   7.351   2.139   8.027  0.1633 -0.3689  0.4324
  584MOL0     C76969   7.204   2.170   8.020  0.3378 -0.2270  0.3095
  584MOL0     C76970   7.161   2.291   7.957  0.4228 -0.2133 -0.3767
  584MOL0     C76971   7.176   2.413   8.060  0.7040  0.0018  0.0991
  584MOL0     C76972   7.090   2.532   8.013  0.1919  0.3704 -0.2764
  584MOL0     N76973   6.944   2.505   8.029  0.0097  0.7385  0.3535
  584MOL0     C76974   6.865   2.488   8.140 -1.1558 -1.0136 -0.5312
  584MOL0     C76975   6.739   2.466   8.101  0.0081 -0.3107 -0.6133
  584MOL0     C76976   6.630   2.416   8.199  0.1619  0.6942  0.4444
  584MOL0     C76977   6.520   2.524   8.206 -0.2594 -0.1386  0.5642
  584MOL0     C76978   6.387   2.468   8.250  0.5725 -0.1050  0.1698
  584MOL0     C76979   6.279   2.575   8.279 -0.0793 -0.7880 -0.4230
  584MOL0     O76980   6.231   2.609   8.142 -0.0757  0.1857 -0.1641
  584MOL0     C76981   6.188   2.732   8.116  0.6398  0.6591 -1.2822
  584MOL0     C76982   6.149   2.832   8.210  0.2687 -0.1501  0.1852
  584MOL0     C76983   6.100   2.954   8.171 -0.3648  0.1569  0.7239
  584MOL0     C76984   6.086   2.985   8.034  0.0729 -0.2246 -0.3006
  584MOL0     C76985   6.038   3.114   7.998  0.0689  1.1405  0.0693
  584MOL0     O76986   6.049   3.212   8.093  0.8862 -1.0851  0.2534
  584MOL0     C76987   6.031   3.347   8.054 -0.0654 -0.0263  0.1506
  584MOL0     C76988   6.076   3.401   7.937 -1.7592 -0.4247  0.0281
  584MOL0     C76989   6.074   3.541   7.923  0.4244  0.5174 -0.5120
  584MOL0     C76990   6.014   3.625   8.012  0.0522 -0.1890  0.2139
  584MOL0     O76991   5.996   3.761   7.983  0.1029 -0.5746  0.9244
  584MOL0     C76992   5.860   3.793   7.954 -0.0146  0.3109 -0.3350
  584MOL0     C76993   5.833   3.930   7.881 -0.3743  0.0041 -0.5720
  584MOL0     C76994   5.894   3.904   7.742  0.4993 -0.1338  0.7902
  584MOL0     C76995   5.883   4.022   7.640 -0.6946  0.3983  0.5091
  584MOL0     C76996   5.962   3.982   7.519  0.1642  1.2655 -0.3964
  584MOL0     C76997   6.011   4.107   7.443  0.0906  0.0294  0.5506
  584MOL0     C76998   6.088   4.060   7.315 -0.0210  0.5798  1.0553
  584MOL0     C76999   6.095   4.175   7.213  0.4407 -0.1073  0.1211
  584MOL0    Cl77000   6.146   4.114   7.051  0.2621  0.4258  0.0714
  584MOL0     C77001   5.951   3.565   8.123  0.0740  0.1174  0.6506
  584MOL0     C77002   5.970   3.430   8.153 -0.3776  0.0126  0.3498
  584MOL0     O77003   5.998   3.124   7.882 -0.3555 -0.4747 -0.9751
  584MOL0     C77004   6.114   2.885   7.942  0.0283  0.2410 -1.4504
  584MOL0     C77005   6.165   2.763   7.980 -0.5697  0.6499  0.5379
  584MOL0     N77006   6.732   2.484   7.970 -0.1607  0.8055  0.1728
  584MOL0     N77007   6.860   2.512   7.919  0.0661  0.0304  0.0557
  584MOL0     C77008   7.932   1.868   8.172  0.6647 -0.0622 -0.6096
  584MOL0     C77009   8.068   1.876   8.211  0.1438 -0.4364 -0.4162
  584MOL0     C77010   8.499   1.967   8.307  0.5564 -0.3900 -0.3689
  584MOL0     C77011   8.514   2.092   8.369  0.3183 -0.3678 -0.3147
  584MOL0     C77012   8.638   2.140   8.409  0.4980  0.2711  0.0775
  584MOL0     C77013   8.748   2.066   8.388  0.1037 -0.2877  0.3127
  584MOL0     O77014   8.861   2.126   8.422 -0.2942  0.4872 -0.4814
  584MOL0     C77015   8.993   2.074   8.389  0.1188 -0.4444  0.0032
  584MOL0     C77016   9.093   2.172   8.445  0.0874 -0.0998 -0.3516
  584MOL0     C77017   9.234   2.119   8.414 -0.4046 -0.2823  0.4465
  584MOL0     C77018   9.348   2.189   8.477 -0.5760 -0.6789 -0.1230
  584MOL0     C77019   9.340   2.192   8.626 -0.6777 -0.1459 -0.1039
  584MOL0     C77020   9.336   2.184   8.747  0.4716 -0.4891 -0.0259
  584MOL0     C77021   8.742   1.945   8.326 -0.3402  0.1185 -0.6181
  584MOL0     C77022   8.618   1.894   8.284  0.5074 -0.5112  0.7300
  584MOL0     H77023   8.098   2.212   8.217  2.7147 -0.3285  1.2080
  584MOL0     H77024   7.875   2.203   8.140  0.3939  1.1575  1.6457
  584MOL0     H77025   7.622   2.114   8.042 -0.4180 -3.3673 -2.3611
  584MOL0     H77026   7.643   2.083   8.227 -2.0991  0.4559  0.2790
  584MOL0     H77027   7.526   1.889   8.199  2.5609 -0.4008 -1.3615
  584MOL0     H77028   7.511   1.902   8.025 -0.3920  0.0438  0.1517
  584MOL0     H77029   7.399   2.103   8.232 -1.0707 -0.4152  1.0924
  584MOL0     H77030   7.300   1.972   8.165 -0.5253 -0.1102  0.8302
  584MOL0     H77031   7.411   2.230   8.037  0.8808 -0.6296 -1.3052
  584MOL0     H77032   7.376   2.091   7.932  1.8210 -0.7018  1.0019
  584MOL0     H77033   7.160   2.161   8.120  1.4770 -0.5954  0.7929
  584MOL0     H77034   7.169   2.084   7.962  1.0822 -0.1672 -0.2424
  584MOL0     H77035   7.058   2.268   7.927  1.2853 -1.6337 -2.5374
  584MOL0     H77036   7.218   2.317   7.868 -0.0615  3.1639  0.1575
  584MOL0     H77037   7.141   2.387   8.160  0.8421 -0.2700  0.0786
  584MOL0     H77038   7.282   2.440   8.059  0.6179  0.3471 -0.2313
  584MOL0     H77039   7.109   2.563   7.910 -0.7076  1.3286 -0.1658
  584MOL0     H77040   7.123   2.613   8.078  0.7548 -0.3438  0.3461
  584MOL0     H77041   6.907   2.490   8.241  2.3920  2.6456 -1.7775
  584MOL0     H77042   6.679   2.403   8.296 -0.0664 -1.2809  0.3380
  584MOL0     H77043   6.593   2.318   8.167  1.0482  0.1486  1.0729
  584MOL0     H77044   6.498   2.544   8.100  2.5016 -1.1437 -0.2925
  584MOL0     H77045   6.537   2.616   8.262 -1.1116  0.7646 -0.5809
  584MOL0     H77046   6.345   2.394   8.180 -2.0835  0.5919  0.8910
  584MOL0     H77047   6.410   2.412   8.341  0.8933  0.9076  0.7221
  584MOL0     H77048   6.324   2.654   8.340  1.7183 -0.6690 -1.8237
  584MOL0     H77049   6.195   2.527   8.331 -0.5650 -0.2758 -0.7248
  584MOL0     H77050   6.136   2.810   8.315 -2.2720  1.5708  0.3194
  584MOL0     H77051   6.068   3.027   8.246  1.1006  0.4527  1.0873
  584MOL0     H77052   6.126   3.339   7.864  2.7760 -0.9531  3.1856
  584MOL0     H77053   6.123   3.584   7.837 -0.3113  3.4859  0.4475
  584MOL0     H77054   5.815   3.802   8.054 -1.4090  1.9755 -1.0726
  584MOL0     H77055   5.801   3.716   7.903  0.1577 -0.1259  0.1104
  584MOL0     H77056   5.881   4.009   7.940  0.2594 -1.2812  0.7030
  584MOL0     H77057   5.727   3.948   7.864 -0.6659 -2.6553 -2.0503
  584MOL0     H77058   5.848   3.812   7.706 -3.3879  2.4336 -1.5346
  584MOL0     H77059   5.999   3.890   7.771  0.4951  0.7280  1.2372
  584MOL0     H77060   5.789   4.061   7.600 -0.3075  2.8320  1.7689
  584MOL0     H77061   5.923   4.114   7.683  0.8340 -0.9798  2.1887
  584MOL0     H77062   5.894   3.920   7.459  0.2536  0.8991 -0.1231
  584MOL0     H77063   6.048   3.922   7.548 -0.1335 -0.4025 -2.6613
  584MOL0     H77064   6.078   4.169   7.503 -1.5172  1.8743  0.5639
  584MOL0     H77065   5.919   4.153   7.403 -1.0780 -3.8048 -1.6826
  584MOL0     H77066   6.188   4.019   7.332  0.1731  1.2253  1.5222
  584MOL0     H77067   6.023   3.985   7.270 -0.3519  1.7923 -0.5557
  584MOL0     H77068   6.164   4.253   7.247  2.8638 -0.9051 -2.5247
  584MOL0     H77069   5.996   4.222   7.210  0.2630 -0.4951 -0.0344
  584MOL0     H77070   5.898   3.608   8.208 -2.1943  0.6121 -0.9078
  584MOL0     H77071   5.937   3.396   8.251  2.1481  0.3608  1.3935
  584MOL0     H77072   6.103   2.921   7.840 -1.8551  1.5949 -0.8248
  584MOL0     H77073   6.179   2.689   7.902  0.7789  0.9484  0.4682
  584MOL0     H77074   7.883   1.772   8.159  2.1645 -0.6802 -2.1456
  584MOL0     H77075   8.115   1.782   8.240 -1.7241 -1.8279 -1.6408
  584MOL0     H77076   8.426   2.156   8.377 -0.4276 -1.3884 -0.0933
  584MOL0     H77077   8.638   2.239   8.452 -1.0852 -0.5744  2.2392
  584MOL0     H77078   8.994   2.062   8.280 -3.1212  0.1083 -0.1949
  584MOL0     H77079   9.010   1.982   8.444  0.8218 -1.0438 -1.1728
  584MOL0     H77080   9.081   2.273   8.407 -3.4196  0.2852  1.3953
  584MOL0     H77081   9.084   2.184   8.553 -1.3824 -1.2049 -0.3111
  584MOL0     H77082   9.245   2.129   8.306  0.7433 -1.7137  0.4094
  584MOL0     H77083   9.240   2.016   8.450 -2.0503 -0.5996 -0.1146
  584MOL0     H77084   9.440   2.136   8.451  0.4296 -0.7877  3.2132
  584MOL0     H77085   9.356   2.292   8.439 -1.1090 -0.3404  0.6681
  584MOL0     H77086   9.340   2.191   8.854 -1.5104 -2.7903  0.2781
  584MOL0     H77087   8.833   1.892   8.301  0.4581  1.6603 -1.0633
  584MOL0     H77088   8.624   1.800   8.230 -1.7177 -0.1331 -0.2688
  585MOL0     O77089   9.796   0.033   1.545  0.1730 -1.1962 -0.4762
  585MOL0     C77090   9.828   0.110   1.455 -0.6660  0.1219  0.5131
  585MOL0     O77091   9.758   0.138   1.332  0.0387  0.5409 -0.3655
  585MOL0     C77092   9.628   0.086   1.319  0.5646 -0.2521 -0.6008
  585MOL0     C77093   9.521   0.109   1.413 -0.2654  0.6871  0.2406
  585MOL0     C77094   9.395   0.059   1.375 -0.2369  0.5271  0.0211
  585MOL0     C77095   9.366  -0.006   1.253  0.6400 -0.3225 -0.6260
  585MOL0     O77096   9.233  -0.019   1.231 -0.8245 -0.1196  1.0168
  585MOL0     C77097   9.196  -0.058   1.096  0.2039 -0.2889 -0.1951
  585MOL0     C77098   9.045  -0.055   1.094 -0.2037 -0.8541 -0.5078
  585MOL0     C77099   8.977  -0.021   0.949  0.1580 -0.7576 -0.5966
  585MOL0     C77100   8.824  -0.010   0.961  0.1161  0.1573  0.1357
  585MOL0     C77101   8.743  -0.036   0.835 -0.2907 -0.2102 -0.0086
  585MOL0     C77102   8.599  -0.010   0.851  0.9518  0.0316  0.5481
  585MOL0     C77103   8.519  -0.079   0.728 -0.2910  0.8952 -0.3754
  585MOL0     C77104   8.391   0.005   0.714 -0.3191  0.7957 -0.4134
  585MOL0     N77105   8.290  -0.085   0.659 -0.1008 -1.7176  0.1139
  585MOL0     C77106   8.203  -0.158   0.727  1.1781 -0.0958 -0.3631
  585MOL0     C77107   8.109  -0.189   0.638 -0.4131  0.3804 -0.5032
  585MOL0     C77108   7.997  -0.282   0.667  0.1428  0.1915  0.0439
  585MOL0     C77109   7.859  -0.252   0.607  0.2236 -0.1218  0.2714
  585MOL0     C77110   7.834  -0.301   0.470  0.0104 -0.6799  0.7699
  585MOL0     C77111   7.680  -0.279   0.449  0.2249  0.1763  0.2368
  585MOL0     O77112   7.617  -0.391   0.519 -0.0193 -0.6348  0.1575
  585MOL0     C77113   7.493  -0.384   0.560 -0.4980 -0.8743  0.4535
  585MOL0     C77114   7.402  -0.280   0.529 -0.3509 -0.3014  0.1982
  585MOL0     C77115   7.274  -0.286   0.571 -0.4997  0.2697  0.1616
  585MOL0     C77116   7.228  -0.403   0.635  0.4581  1.2096 -0.5054
  585MOL0     C77117   7.086  -0.422   0.688 -0.5680 -0.5800 -0.4269
  585MOL0     O77118   7.048  -0.537   0.751 -0.2036 -0.1307  0.6312
  585MOL0     C77119   6.928  -0.552   0.811 -1.1668  0.6687 -1.5352
  585MOL0     C77120   6.923  -0.614   0.936  0.7478  0.2404 -0.0064
  585MOL0     C77121   6.805  -0.659   0.999 -0.4241  0.2008 -0.0182
  585MOL0     C77122   6.685  -0.613   0.938 -0.4009  0.5613  0.1304
  585MOL0     O77123   6.572  -0.656   1.012 -0.6542 -0.0399  0.0348
  585MOL0     C77124   6.445  -0.660   0.946 -0.3194  0.2953  0.6082
  585MOL0     C77125   6.318  -0.708   1.027 -0.7513  0.2980  0.2129
  585MOL0     C77126   6.325  -0.852   1.052 -0.3972  0.1109  1.1683
  585MOL0     C77127   6.210  -0.905   1.134  0.4478 -0.5103  0.9943
  585MOL0     C77128   6.085  -0.893   1.058 -0.5562 -0.0316  1.2553
  585MOL0     C77129   5.984  -1.003   1.087 -1.0945 -0.2784  0.2838
  585MOL0     C77130   5.904  -0.991   1.222  0.7449  0.1994  0.9382
  585MOL0     C77131   5.974  -1.045   1.349  0.3512 -0.0031 -0.2982
  585MOL0    Cl77132   6.004  -1.219   1.358 -0.0605  0.0236 -0.0365
  585MOL0     C77133   6.683  -0.535   0.814  0.0212  0.4434 -0.1051
  585MOL0     C77134   6.804  -0.512   0.750 -0.3205 -0.2322  0.5060
  585MOL0     O77135   7.018  -0.319   0.681  0.4303  0.4924  0.2373
  585MOL0     C77136   7.318  -0.510   0.660 -1.0567 -0.7010 -0.3010
  585MOL0     C77137   7.454  -0.501   0.623 -0.3500 -0.2844  0.4140
  585MOL0     N77138   8.126  -0.125   0.517  0.8587 -0.3395  0.2189
  585MOL0     N77139   8.243  -0.067   0.529 -0.7782  0.5860 -0.2959
  585MOL0     C77140   9.473  -0.041   1.166 -0.1231  0.5016 -0.2425
  585MOL0     C77141   9.603   0.006   1.206 -0.5372  0.1360  0.4546
  585MOL0     C77142   9.962   0.178   1.468  0.3937 -0.3292 -0.1239
  585MOL0     C77143  10.013   0.260   1.356  0.0127  0.3431  0.4663
  585MOL0     C77144  10.146   0.305   1.360 -0.6781  0.3538 -0.3256
  585MOL0     C77145  10.229   0.260   1.469 -0.1969  0.2197  0.3489
  585MOL0     O77146  10.359   0.299   1.456  0.2752 -0.5322  0.7320
  585MOL0     C77147  10.470   0.245   1.536  0.7327 -0.3175 -1.2612
  585MOL0     C77148  10.505   0.105   1.483 -0.0607 -0.4300 -0.3031
  585MOL0     C77149  10.575   0.126   1.351 -0.4738 -1.1222  0.4676
  585MOL0     C77150  10.636  -0.001   1.296 -0.3963 -0.0486 -0.5024
  585MOL0     C77151  10.544  -0.106   1.252 -1.2362 -0.5491  0.2216
  585MOL0     C77152  10.465  -0.176   1.203  0.0933  0.2981 -0.0632
  585MOL0     C77153  10.179   0.176   1.572 -0.0874  0.7297  0.0449
  585MOL0     C77154  10.047   0.133   1.571  0.2429  0.0993  0.6766
  585MOL0     H77155   9.550   0.154   1.507  0.2484 -1.3611  1.1218
  585MOL0     H77156   9.311   0.073   1.443 -2.8803  1.2598 -3.1247
  585MOL0     H77157   9.233  -0.159   1.079  2.5630  0.3779  0.5565
  585MOL0     H77158   9.240   0.003   1.017 -1.5684 -1.1169 -1.8784
  585MOL0     H77159   9.003   0.020   1.161  0.6003 -0.9544  0.1277
  585MOL0     H77160   9.022  -0.151   1.141 -1.1698  0.6357  2.3379
  585MOL0     H77161   8.995  -0.108   0.886 -3.0475  0.5876 -3.6938
  585MOL0     H77162   9.018   0.067   0.898  1.4906 -0.9117  0.1679
  585MOL0     H77163   8.808  -0.089   1.035  2.9061 -0.5175  0.1597
  585MOL0     H77164   8.805   0.092   0.993  1.2473  0.5573 -0.3988
  585MOL0     H77165   8.749  -0.143   0.811 -3.3100 -0.7883  1.3859
  585MOL0     H77166   8.785   0.021   0.751 -0.6381 -0.1391 -0.1365
  585MOL0     H77167   8.583   0.098   0.843 -2.3035 -0.5005 -1.5322
  585MOL0     H77168   8.567  -0.059   0.944 -0.6321 -0.1445 -0.0673
  585MOL0     H77169   8.572  -0.074   0.633  1.7706  0.4005  0.6896
  585MOL0     H77170   8.513  -0.188   0.742  1.0200  0.8009 -0.4322
  585MOL0     H77171   8.414   0.078   0.636  5.6650  0.8894  0.9571
  585MOL0     H77172   8.349   0.047   0.806  0.0598  1.0283 -0.3459
  585MOL0     H77173   8.217  -0.180   0.833  1.3982  0.0756 -0.3566
  585MOL0     H77174   7.982  -0.290   0.775 -2.3020 -0.4618 -0.2961
  585MOL0     H77175   8.038  -0.373   0.622 -1.0851  0.6827 -2.2579
  585MOL0     H77176   7.834  -0.146   0.615  0.6583 -0.1211  1.7764
  585MOL0     H77177   7.783  -0.304   0.666  0.8692 -2.0748 -0.5383
  585MOL0     H77178   7.895  -0.258   0.391 -2.4019  1.7312  0.0640
  585MOL0     H77179   7.856  -0.408   0.463  1.2730 -0.3445 -0.9981
  585MOL0     H77180   7.652  -0.291   0.344  1.1657  0.3433 -0.0376
  585MOL0     H77181   7.648  -0.179   0.478  0.6763  1.3360 -2.8546
  585MOL0     H77182   7.441  -0.189   0.486  2.1278 -1.0715  0.6445
  585MOL0     H77183   7.211  -0.202   0.545  0.1175  0.8251  0.4557
  585MOL0     H77184   7.017  -0.634   0.985  0.8396  0.2156 -0.1904
  585MOL0     H77185   6.815  -0.709   1.095  3.0646  1.0643  0.2265
  585MOL0     H77186   6.461  -0.724   0.859 -1.6059  0.6602  0.0787
  585MOL0     H77187   6.429  -0.560   0.906 -0.8979  0.0988  0.3340
  585MOL0     H77188   6.233  -0.679   0.964 -1.3249 -1.4774  0.1175
  585MOL0     H77189   6.322  -0.649   1.119  0.7260 -1.8254  1.6033
  585MOL0     H77190   6.417  -0.873   1.107  1.5538 -1.7489 -2.4185
  585MOL0     H77191   6.321  -0.902   0.955 -0.0902 -0.8900  1.6682
  585MOL0     H77192   6.228  -1.013   1.142  0.9761 -0.6931 -1.7105
  585MOL0     H77193   6.208  -0.858   1.233  1.7985 -3.3719  2.4982
  585MOL0     H77194   6.111  -0.891   0.951  0.0012 -0.6989  1.3681
  585MOL0     H77195   6.046  -0.793   1.080 -1.9500  0.2529 -1.8624
  585MOL0     H77196   6.028  -1.103   1.074 -2.8067 -1.0109 -0.1236
  585MOL0     H77197   5.913  -0.992   1.004 -0.8991  1.8665  0.3537
  585MOL0     H77198   5.884  -0.887   1.249  0.0370 -0.0333  1.3441
  585MOL0     H77199   5.814  -1.047   1.193  1.4138 -0.0835 -0.7156
  585MOL0     H77200   5.904  -1.024   1.430  0.1644  3.7759 -1.2233
  585MOL0     H77201   6.063  -0.985   1.373 -0.5117  1.8293 -1.5105
  585MOL0     H77202   6.588  -0.495   0.780 -0.0823  1.3448  1.1384
  585MOL0     H77203   6.807  -0.470   0.650  0.2774 -1.3234  0.0534
  585MOL0     H77204   7.296  -0.601   0.716  3.9332 -0.9689  1.8117
  585MOL0     H77205   7.513  -0.590   0.641 -1.4032 -0.8647  1.0900
  585MOL0     H77206   9.458  -0.105   1.080 -4.0113  0.3163  0.4177
  585MOL0     H77207   9.686  -0.005   1.136  0.7839 -0.8904  2.0879
  585MOL0     H77208   9.950   0.290   1.272  1.4302 -0.8750 -1.0962
  585MOL0     H77209  10.197   0.356   1.279  3.4738 -4.8656 -1.5894
  585MOL0     H77210  10.451   0.250   1.644  2.6406  1.7251 -0.9465
  585MOL0     H77211  10.559   0.308   1.533  0.6366 -0.0017  0.7356
  585MOL0     H77212  10.568   0.054   1.556 -1.8191  0.6790  2.1176
  585MOL0     H77213  10.417   0.040   1.478 -0.1195 -0.3335 -0.5386
  585MOL0     H77214  10.661   0.191   1.367 -1.2377  0.0801 -0.1436
  585MOL0     H77215  10.510   0.185   1.285 -0.0182  0.2576  1.2124
  585MOL0     H77216  10.713   0.019   1.222 -0.5138 -0.3691 -0.7151
  585MOL0     H77217  10.687  -0.050   1.379 -2.9534 -1.7825  0.2074
  585MOL0     H77218  10.395  -0.245   1.161  0.1978  0.9172 -1.2732
  585MOL0     H77219  10.242   0.146   1.656 -0.1076 -2.3524 -0.9153
  585MOL0     H77220  10.006   0.066   1.647 -0.5124 -3.0040 -2.1938
  586MOL0     O77221   2.681   0.007   5.950 -0.0277  0.5672  0.7689
  586MOL0     C77222   2.631   0.017   5.840  0.2518  0.5122  0.0040
  586MOL0     O77223   2.496   0.021   5.823  0.4601 -0.2041  0.1625
  586MOL0     C77224   2.415   0.038   5.933  0.7080 -0.5861  0.1510
  586MOL0     C77225   2.284  -0.019   5.935 -0.5460  0.5399 -0.7239
  586MOL0     C77226   2.208   0.010   6.042  0.2912  0.1867  0.1272
  586MOL0     C77227   2.253   0.084   6.154  0.3566 -0.4967 -0.0231
  586MOL0     O77228   2.172   0.112   6.262  0.4421  0.4563  0.1850
  586MOL0     C77229   2.056   0.041   6.300 -0.0022  0.6125 -0.7967
  586MOL0     C77230   2.029   0.059   6.445  0.5868 -0.2098 -0.7806
  586MOL0     C77231   1.876   0.031   6.469 -0.5662 -0.7938 -0.0945
  586MOL0     C77232   1.865   0.053   6.619  1.0342 -0.5473 -0.9046
  586MOL0     C77233   1.715   0.037   6.673 -0.2039 -0.5974  1.1451
  586MOL0     C77234   1.638   0.169   6.643 -0.0024  0.2516 -0.4068
  586MOL0     C77235   1.494   0.175   6.713  0.0173  1.0732  0.2098
  586MOL0     C77236   1.391   0.063   6.670  0.3920 -0.3011  0.9817
  586MOL0     N77237   1.253   0.083   6.710 -0.5367  0.1246 -0.0439
  586MOL0     C77238   1.191   0.050   6.824 -0.3181  0.1053 -0.1498
  586MOL0     C77239   1.064   0.079   6.801  0.3449 -0.3831 -0.1196
  586MOL0     C77240   0.946   0.046   6.902  0.0973  0.2080 -0.2069
  586MOL0     C77241   0.812  -0.004   6.834  0.1532  0.1392 -0.0562
  586MOL0     C77242   0.707  -0.027   6.942  0.2414 -0.0984  0.2524
  586MOL0     C77243   0.559  -0.054   6.878  0.8751  0.3678  0.5314
  586MOL0     O77244   0.564  -0.166   6.783  0.3367 -0.0053  0.3247
  586MOL0     C77245   0.443  -0.203   6.758 -0.2664  0.1325  1.0598
  586MOL0     C77246   0.374  -0.146   6.646  0.1090  0.1574  0.4343
  586MOL0     C77247   0.241  -0.182   6.615 -0.1618 -0.3383 -0.0974
  586MOL0     C77248   0.180  -0.283   6.695  0.8331 -0.2284 -0.1863
  586MOL0     C77249   0.046  -0.331   6.660 -0.3550  0.1675 -0.0652
  586MOL0     O77250  -0.006  -0.420   6.750 -0.4502  0.6076  1.2880
  586MOL0     C77251  -0.132  -0.474   6.717  0.5478  0.0581 -0.2881
  586MOL0     C77252  -0.156  -0.585   6.636 -0.5957  0.5115 -0.0975
  586MOL0     C77253  -0.285  -0.639   6.613 -0.0827  0.4073  0.4933
  586MOL0     C77254  -0.399  -0.579   6.668  1.2491 -0.1388 -0.3059
  586MOL0     O77255  -0.531  -0.625   6.638  0.1161  0.3033  1.4377
  586MOL0     C77256  -0.542  -0.743   6.555 -0.0101 -0.3304 -0.6964
  586MOL0     C77257  -0.687  -0.782   6.540  0.6814  1.1128  0.5666
  586MOL0     C77258  -0.757  -0.816   6.668 -0.5264  0.3288 -0.0699
  586MOL0     C77259  -0.909  -0.829   6.643 -0.1896 -0.3529 -0.1793
  586MOL0     C77260  -0.999  -0.879   6.755 -0.6007 -0.1078 -0.4689
  586MOL0     C77261  -1.145  -0.854   6.733  0.4930  0.9871 -0.1752
  586MOL0     C77262  -1.241  -0.919   6.844 -0.2411 -0.0954 -0.3182
  586MOL0     C77263  -1.238  -1.075   6.834 -0.6295 -0.6593 -1.1604
  586MOL0    Cl77264  -1.310  -1.117   6.683 -0.1225 -0.2518  0.2109
  586MOL0     C77265  -0.377  -0.468   6.740  0.6701 -0.6623 -1.6199
  586MOL0     C77266  -0.248  -0.415   6.766  0.2375 -0.1092  0.2957
  586MOL0     O77267  -0.011  -0.272   6.569 -0.1969  0.0538 -0.4651
  586MOL0     C77268   0.247  -0.327   6.809  0.7887  0.6505  0.5173
  586MOL0     C77269   0.375  -0.294   6.838  0.3326  0.4191 -0.6087
  586MOL0     N77270   1.061   0.133   6.672 -0.2301 -0.0530 -0.8243
  586MOL0     N77271   1.172   0.120   6.612 -0.4646 -0.2485  0.8126
  586MOL0     C77272   2.371   0.158   6.141  0.0552  0.2819 -0.0079
  586MOL0     C77273   2.453   0.137   6.032  0.1011 -0.0856  0.8187
  586MOL0     C77274   2.702   0.021   5.707  0.4592 -0.4598  0.5398
  586MOL0     C77275   2.843   0.021   5.702  0.2785  0.9791 -0.2770
  586MOL0     C77276   2.920   0.043   5.588 -1.0518 -0.1653  0.7649
  586MOL0     C77277   2.854   0.070   5.462 -0.2409 -0.2756  0.0609
  586MOL0     O77278   2.905   0.094   5.341 -1.1075 -0.1440 -0.1863
  586MOL0     C77279   3.046   0.122   5.329  0.5978 -0.1242  0.2091
  586MOL0     C77280   3.131  -0.013   5.328 -0.4398  0.8076  0.0949
  586MOL0     C77281   3.283   0.017   5.358 -0.0508  0.2753  0.5313
  586MOL0     C77282   3.345  -0.115   5.403 -0.3721  0.0357  0.1423
  586MOL0     C77283   3.485  -0.105   5.445 -0.2130  0.5343 -0.3306
  586MOL0     C77284   3.602  -0.101   5.484 -0.2345 -0.6020 -0.0783
  586MOL0     C77285   2.717   0.069   5.469 -0.2803 -0.0430 -0.8550
  586MOL0     C77286   2.640   0.052   5.583 -0.2103  0.1376  0.0346
  586MOL0     H77287   2.242  -0.084   5.859 -1.5157 -0.7222  0.8439
  586MOL0     H77288   2.113  -0.042   6.044 -0.0606  0.7156  3.8459
  586MOL0     H77289   2.066  -0.066   6.279 -2.8429  0.0351  0.2547
  586MOL0     H77290   1.970   0.082   6.245 -2.0471 -1.9384  0.2472
  586MOL0     H77291   2.054   0.160   6.478  2.0148 -0.4803 -0.9794
  586MOL0     H77292   2.099  -0.005   6.500  0.5362  0.2344 -0.1868
  586MOL0     H77293   1.854  -0.073   6.443 -2.7967 -0.0946 -1.2136
  586MOL0     H77294   1.823   0.107   6.410 -1.3359 -0.5763  0.8568
  586MOL0     H77295   1.914  -0.030   6.670  0.1277 -1.5682 -1.6342
  586MOL0     H77296   1.905   0.150   6.650 -2.3825 -0.2688  3.7537
  586MOL0     H77297   1.730   0.007   6.777 -0.6693  0.8111  1.6542
  586MOL0     H77298   1.669  -0.052   6.629  2.4246 -2.5171  2.0806
  586MOL0     H77299   1.632   0.175   6.534  0.2148  1.2897 -0.3760
  586MOL0     H77300   1.702   0.251   6.678 -2.8675  1.7194  1.7890
  586MOL0     H77301   1.506   0.165   6.821  0.9530  0.8535  0.0988
  586MOL0     H77302   1.456   0.276   6.697  0.7893  1.9143  3.0478
  586MOL0     H77303   1.416  -0.035   6.714 -2.2433 -1.8436 -0.6631
  586MOL0     H77304   1.391   0.047   6.562  1.2098 -1.9136  1.1912
  586MOL0     H77305   1.225   0.020   6.922 -1.0623  2.7694  1.0055
  586MOL0     H77306   0.935   0.136   6.964 -0.7664 -0.6024  0.8512
  586MOL0     H77307   0.981  -0.035   6.967  2.0301  0.2562 -1.1309
  586MOL0     H77308   0.823  -0.099   6.781  1.2226  1.3776 -2.1828
  586MOL0     H77309   0.793   0.079   6.765 -0.3643  1.9567  2.1342
  586MOL0     H77310   0.735  -0.107   7.011  1.1917  0.6107  0.7132
  586MOL0     H77311   0.704   0.069   6.993  0.8453 -0.3569  0.7925
  586MOL0     H77312   0.523   0.024   6.811  0.8898 -1.7902 -2.1688
  586MOL0     H77313   0.484  -0.055   6.957  0.6933  3.0402  0.4778
  586MOL0     H77314   0.433  -0.079   6.584 -0.7719  0.8769  0.3459
  586MOL0     H77315   0.194  -0.130   6.533 -1.1609  0.6093  1.0292
  586MOL0     H77316  -0.072  -0.644   6.600 -2.3653 -1.9704 -0.4193
  586MOL0     H77317  -0.286  -0.728   6.552  1.8667 -0.0400  1.0380
  586MOL0     H77318  -0.478  -0.821   6.597 -0.3277 -0.8593 -1.1879
  586MOL0     H77319  -0.507  -0.703   6.459  0.4088  0.3039 -0.2859
  586MOL0     H77320  -0.689  -0.880   6.492 -0.7625  1.1878  0.4353
  586MOL0     H77321  -0.748  -0.710   6.484  0.9789  1.9243  1.2607
  586MOL0     H77322  -0.753  -0.730   6.736 -1.1196  2.2306 -2.3012
  586MOL0     H77323  -0.726  -0.912   6.710 -2.8926 -3.6966 -6.1768
  586MOL0     H77324  -0.943  -0.737   6.595  2.4219 -1.9766 -6.0333
  586MOL0     H77325  -0.923  -0.908   6.568  0.9771 -0.2508 -0.5222
  586MOL0     H77326  -0.965  -0.835   6.849 -1.7828 -0.9788  0.4002
  586MOL0     H77327  -0.969  -0.984   6.767  0.9664  0.6166  3.6332
  586MOL0     H77328  -1.181  -0.868   6.631  1.4341  3.6656 -0.9703
  586MOL0     H77329  -1.166  -0.747   6.729 -1.5717  0.6001 -0.6331
  586MOL0     H77330  -1.206  -0.891   6.943  0.5813 -0.2601 -0.5563
  586MOL0     H77331  -1.344  -0.885   6.831 -0.5333 -0.5017  0.8518
  586MOL0     H77332  -1.297  -1.120   6.914  0.9565  2.4809  2.0613
  586MOL0     H77333  -1.138  -1.117   6.847 -1.5745 -2.2466  1.7995
  586MOL0     H77334  -0.467  -0.427   6.784 -0.0663 -4.3379  0.7473
  586MOL0     H77335  -0.231  -0.325   6.824 -0.1064 -1.2128  2.1990
  586MOL0     H77336   0.203  -0.404   6.871 -1.6888 -0.5425 -2.4693
  586MOL0     H77337   0.427  -0.347   6.918  1.7319  1.3269 -0.8726
  586MOL0     H77338   2.391   0.219   6.228  2.9004 -0.5468  0.0180
  586MOL0     H77339   2.549   0.187   6.028  0.2382 -0.4048 -0.0052
  586MOL0     H77340   2.889  -0.003   5.797 -1.3913 -1.1405  0.0616
  586MOL0     H77341   3.027   0.024   5.593 -1.1745 -3.0358 -2.9808
  586MOL0     H77342   3.088   0.191   5.402  0.0807  1.0848 -0.5900
  586MOL0     H77343   3.062   0.169   5.231  0.8932  3.7792  1.9803
  586MOL0     H77344   3.087  -0.077   5.405 -0.6594 -0.1865 -0.8224
  586MOL0     H77345   3.116  -0.067   5.234  0.8074 -0.8446  0.8017
  586MOL0     H77346   3.293   0.077   5.448  0.1658  1.3112 -0.1648
  586MOL0     H77347   3.345   0.067   5.283 -0.0304 -0.6303 -0.0819
  586MOL0     H77348   3.278  -0.152   5.481 -2.2941 -2.8179 -2.6542
  586MOL0     H77349   3.342  -0.182   5.317 -0.8128  1.8521 -1.3399
  586MOL0     H77350   3.704  -0.100   5.517 -0.2363  0.6813 -0.0915
  586MOL0     H77351   2.668   0.094   5.375  1.1224  0.0252 -1.5914
  586MOL0     H77352   2.532   0.063   5.578 -0.1286  1.5801  0.9326
  587MOL0     O77353   6.471   6.440   0.984  0.5660 -0.8183  0.8060
  587MOL0     C77354   6.411   6.530   1.054  0.0825  0.5723 -0.3143
  587MOL0     O77355   6.468   6.649   1.093  0.2203  0.4829  0.1576
  587MOL0     C77356   6.597   6.683   1.052  0.0756  0.6444 -0.9465
  587MOL0     C77357   6.712   6.610   1.089  0.1908 -0.2415 -0.5657
  587MOL0     C77358   6.839   6.636   1.034  0.9364  0.7630  0.3247
  587MOL0     C77359   6.858   6.740   0.947  0.0226  0.0665 -0.8359
  587MOL0     O77360   6.982   6.778   0.899  0.4365  0.5480 -0.0240
  587MOL0     C77361   7.090   6.802   0.984 -0.4047  0.2212 -0.1055
  587MOL0     C77362   7.210   6.835   0.896  0.6021  0.4980  0.6259
  587MOL0     C77363   7.341   6.838   0.960  0.3716 -0.0810 -0.6392
  587MOL0     C77364   7.459   6.854   0.859  0.7264 -0.6414 -0.6900
  587MOL0     C77365   7.578   6.941   0.892 -0.6858 -0.4190  0.6252
  587MOL0     C77366   7.637   6.911   1.029 -0.5369 -0.1703  0.2204
  587MOL0     C77367   7.773   6.986   1.044  0.5782  0.0549 -0.3134
  587MOL0     C77368   7.885   6.930   0.963  0.7809 -0.7395  0.6975
  587MOL0     N77369   7.913   6.784   0.973 -0.4265 -0.4431 -0.3989
  587MOL0     C77370   7.952   6.724   1.098  0.5242  0.4041  0.1853
  587MOL0     C77371   8.002   6.607   1.054  1.0619 -0.8809  0.4229
  587MOL0     C77372   8.080   6.505   1.131 -0.3729 -0.0335 -0.7665
  587MOL0     C77373   8.234   6.507   1.121 -0.3527  1.1114  0.0039
  587MOL0     C77374   8.292   6.629   1.192  0.1943 -0.0893  0.6252
  587MOL0     C77375   8.442   6.616   1.222  0.1598  0.2083  0.5615
  587MOL0     O77376   8.519   6.606   1.096  0.6009 -0.6881 -0.1877
  587MOL0     C77377   8.655   6.600   1.100 -0.0716  0.0293  0.5971
  587MOL0     C77378   8.719   6.574   0.980  0.7217  0.0390 -0.2501
  587MOL0     C77379   8.857   6.537   0.986 -0.6062 -0.0097  0.3765
  587MOL0     C77380   8.933   6.543   1.104 -0.1320  0.0209  0.5931
  587MOL0     C77381   9.078   6.526   1.103 -0.9219  0.3046 -0.4424
  587MOL0     O77382   9.131   6.495   0.977 -0.2322 -0.2455 -0.4798
  587MOL0     C77383   9.265   6.496   0.960  0.8937  0.5955 -0.0637
  587MOL0     C77384   9.350   6.584   1.033  0.2007 -0.0952 -0.4605
  587MOL0     C77385   9.486   6.589   1.000 -0.4463 -0.1150  0.5070
  587MOL0     C77386   9.542   6.516   0.899 -0.1868  0.0973 -0.2453
  587MOL0     O77387   9.676   6.541   0.870 -0.4391  0.3815  0.1027
  587MOL0     C77388   9.749   6.479   0.765 -0.1951 -0.8977  0.2125
  587MOL0     C77389   9.794   6.346   0.806  0.4990 -0.8729  0.6814
  587MOL0     C77390   9.872   6.336   0.942 -0.6473 -0.5444  0.0138
  587MOL0     C77391   9.879   6.192   0.994 -0.1584  1.1430  0.1508
  587MOL0     C77392   9.957   6.184   1.128  0.0648 -0.5847 -0.4441
  587MOL0     C77393  10.108   6.184   1.111 -0.4577  0.2604 -0.1800
  587MOL0     C77394  10.191   6.156   1.239 -0.2506 -0.6988  0.2881
  587MOL0     C77395  10.346   6.165   1.221 -0.1785 -0.2757 -0.4606
  587MOL0    Cl77396  10.417   6.178   1.389 -0.3474  0.0945 -0.2777
  587MOL0     C77397   9.450   6.434   0.824 -0.3892 -0.9393  0.2310
  587MOL0     C77398   9.317   6.419   0.856  0.4308 -0.0405 -0.4834
  587MOL0     O77399   9.138   6.511   1.214 -0.1939  0.6164 -0.5999
  587MOL0     C77400   8.865   6.585   1.215  0.4875  0.8334 -0.9216
  587MOL0     C77401   8.728   6.603   1.216  0.2770  0.1689 -0.1430
  587MOL0     N77402   7.973   6.594   0.922  0.5358  0.1270  0.6380
  587MOL0     N77403   7.936   6.706   0.872 -0.2812 -0.9181  0.1086
  587MOL0     C77404   6.747   6.821   0.912 -0.2156 -0.6616 -0.1127
  587MOL0     C77405   6.621   6.790   0.961 -0.4435 -0.2624  0.4793
  587MOL0     C77406   6.272   6.503   1.113 -1.1577 -0.3924  0.5769
  587MOL0     C77407   6.192   6.404   1.057 -1.0229  0.9050 -1.1512
  587MOL0     C77408   6.060   6.384   1.099 -0.4716 -0.6524 -0.2667
  587MOL0     C77409   6.006   6.460   1.205  0.4513 -0.6206 -0.9231
  587MOL0     O77410   5.885   6.429   1.266 -0.4860  0.5542  0.0936
  587MOL0     C77411   5.805   6.520   1.343  0.0399 -0.0022  1.2113
  587MOL0     C77412   5.820   6.484   1.488 -0.3653  0.0485 -0.1229
  587MOL0     C77413   5.762   6.335   1.515  0.0655  0.7723 -0.2091
  587MOL0     C77414   5.616   6.338   1.561 -0.5048  0.5862  0.5661
  587MOL0     C77415   5.558   6.210   1.579  0.5915  0.2555  0.1552
  587MOL0     C77416   5.501   6.109   1.609 -0.2087 -0.3010 -0.7621
  587MOL0     C77417   6.085   6.566   1.255  0.5614  0.0560 -0.5855
  587MOL0     C77418   6.211   6.581   1.207  0.3172  0.0845 -0.2945
  587MOL0     H77419   6.695   6.523   1.152 -2.7854  0.4396 -0.2930
  587MOL0     H77420   6.930   6.581   1.055  0.1317 -1.1491 -0.8334
  587MOL0     H77421   7.121   6.715   1.043 -2.2647 -2.7551 -3.1054
  587MOL0     H77422   7.068   6.885   1.051  1.5893  0.3643  0.4183
  587MOL0     H77423   7.202   6.926   0.835 -1.6667  0.8677  1.3842
  587MOL0     H77424   7.220   6.744   0.836 -0.2199  0.0763  1.1164
  587MOL0     H77425   7.357   6.751   1.024 -1.8377 -1.4293 -1.8088
  587MOL0     H77426   7.333   6.919   1.032 -2.5558 -1.1561  0.3900
  587MOL0     H77427   7.497   6.752   0.848  0.8573 -0.4188 -2.5779
  587MOL0     H77428   7.408   6.898   0.773 -2.9495 -1.6329  0.7713
  587MOL0     H77429   7.552   7.048   0.898 -0.0886  0.0863 -3.4208
  587MOL0     H77430   7.656   6.936   0.816  0.1577  4.2700  0.8519
  587MOL0     H77431   7.653   6.803   1.039 -0.9965 -0.6568 -3.1606
  587MOL0     H77432   7.584   6.952   1.115  0.6137 -0.1910  0.9632
  587MOL0     H77433   7.766   7.091   1.015  0.6315 -0.4970 -2.4643
  587MOL0     H77434   7.787   6.973   1.152 -3.9505 -0.5294  0.3960
  587MOL0     H77435   7.978   6.968   1.007  0.3503  0.6923  0.3985
  587MOL0     H77436   7.882   6.954   0.857 -1.4762  0.0391  0.8908
  587MOL0     H77437   7.962   6.765   1.198 -1.2905 -0.4117  0.7503
  587MOL0     H77438   8.032   6.407   1.121 -0.9875  0.1145  0.4938
  587MOL0     H77439   8.055   6.517   1.237 -0.6043 -2.1442 -0.5244
  587MOL0     H77440   8.265   6.511   1.016 -0.7023 -3.0349 -0.4159
  587MOL0     H77441   8.268   6.408   1.151 -2.0711 -0.6199 -3.1838
  587MOL0     H77442   8.279   6.722   1.136 -2.8335 -1.1624 -0.6475
  587MOL0     H77443   8.232   6.640   1.282  1.0143 -1.1310  1.3297
  587MOL0     H77444   8.459   6.526   1.283 -1.0146 -1.1415 -1.0337
  587MOL0     H77445   8.476   6.698   1.287 -0.0986  0.5426  0.2725
  587MOL0     H77446   8.662   6.587   0.888  1.2897  4.6970 -0.1952
  587MOL0     H77447   8.907   6.511   0.893 -2.0546 -1.6863  0.0077
  587MOL0     H77448   9.323   6.652   1.113  1.8278 -2.1542  1.9945
  587MOL0     H77449   9.550   6.665   1.045  1.2706 -0.4749 -1.2063
  587MOL0     H77450   9.832   6.542   0.732  0.4270 -1.6670  0.2751
  587MOL0     H77451   9.686   6.471   0.676 -2.6650  1.3167  1.6157
  587MOL0     H77452   9.849   6.309   0.719 -0.2257 -2.4686  0.8528
  587MOL0     H77453   9.713   6.273   0.815  1.0471 -1.5787  0.0346
  587MOL0     H77454   9.821   6.393   1.020 -0.0890  0.5004 -0.3720
  587MOL0     H77455   9.974   6.375   0.928 -1.1049  1.4694  1.7401
  587MOL0     H77456   9.779   6.167   1.031  0.1655  1.7604  1.5432
  587MOL0     H77457   9.922   6.130   0.915 -2.3174  1.3013 -1.2152
  587MOL0     H77458   9.935   6.092   1.183  1.4150 -0.4259  0.4261
  587MOL0     H77459   9.940   6.272   1.190  3.5786  0.8640 -1.2821
  587MOL0     H77460  10.137   6.274   1.056  2.7260  0.8237  2.1481
  587MOL0     H77461  10.132   6.098   1.048  3.6383 -0.5924  2.1767
  587MOL0     H77462  10.167   6.224   1.321 -1.4668 -1.5631  0.6958
  587MOL0     H77463  10.173   6.053   1.272  0.0786 -0.8870 -0.1099
  587MOL0     H77464  10.364   6.254   1.161  0.1242 -1.6746 -2.5697
  587MOL0     H77465  10.385   6.079   1.165  1.5529 -0.0476  0.3313
  587MOL0     H77466   9.488   6.382   0.737 -0.0252 -1.2575  0.5781
  587MOL0     H77467   9.251   6.354   0.801  1.0967 -0.1778 -1.1369
  587MOL0     H77468   8.923   6.595   1.306  2.7782 -1.4931 -2.0083
  587MOL0     H77469   8.678   6.614   1.312 -0.1624 -1.2175 -0.1918
  587MOL0     H77470   6.756   6.908   0.847 -0.5625  1.7185  2.8005
  587MOL0     H77471   6.535   6.849   0.933 -1.4555 -2.2828 -0.9569
  587MOL0     H77472   6.231   6.351   0.971 -1.1623 -3.5241  1.2115
  587MOL0     H77473   6.001   6.303   1.056  0.5968 -1.3604 -0.4298
  587MOL0     H77474   5.699   6.512   1.316  0.4427 -0.3184 -0.3696
  587MOL0     H77475   5.835   6.623   1.318  0.7219 -0.3462  0.5560
  587MOL0     H77476   5.924   6.492   1.522 -0.3528  0.5845 -0.2776
  587MOL0     H77477   5.771   6.552   1.559  1.0889 -1.2359  2.2733
  587MOL0     H77478   5.821   6.276   1.585 -0.7806  1.6376  1.2983
  587MOL0     H77479   5.770   6.280   1.421 -3.6711 -2.6535  1.1778
  587MOL0     H77480   5.615   6.396   1.654  1.5542  0.4124  0.7442
  587MOL0     H77481   5.556   6.395   1.489 -0.7982 -0.6431 -0.1962
  587MOL0     H77482   5.440   6.024   1.637 -0.2914 -0.2527 -0.7943
  587MOL0     H77483   6.050   6.634   1.332  2.3279 -0.6021  0.8618
  587MOL0     H77484   6.267   6.663   1.249  2.0035 -1.1090 -0.1448
  588MOL0     O77485  10.612   4.089   6.046  0.3660  0.3861  0.1377
  588MOL0     C77486  10.662   4.010   6.124  0.4412  0.0054  1.1840
  588MOL0     O77487  10.598   3.958   6.237 -0.2768  0.6901  0.7333
  588MOL0     C77488  10.457   3.940   6.238 -0.1215 -1.6650  0.3415
  588MOL0     C77489  10.364   3.943   6.128 -0.1060  0.1316 -0.5300
  588MOL0     C77490  10.222   3.945   6.143  0.6523 -0.2024 -0.1963
  588MOL0     C77491  10.176   3.915   6.277  0.5821 -0.2325  0.6011
  588MOL0     O77492  10.040   3.908   6.309  0.0353  0.0533 -0.1598
  588MOL0     C77493   9.946   3.876   6.215 -0.1315 -0.2681  0.7716
  588MOL0     C77494   9.887   4.012   6.176 -0.1967  0.1654  0.2194
  588MOL0     C77495   9.778   4.009   6.070 -0.2391 -0.0407  0.4883
  588MOL0     C77496   9.654   3.917   6.096 -0.3602 -0.8828 -0.0505
  588MOL0     C77497   9.532   3.978   6.037  0.8575 -0.8769  0.4078
  588MOL0     C77498   9.423   3.879   6.017 -0.4536  0.2944  0.1461
  588MOL0     C77499   9.295   3.958   5.984  0.4526 -0.0582 -0.3404
  588MOL0     C77500   9.232   4.024   6.107  0.1516 -0.3759  0.4332
  588MOL0     N77501   9.114   4.096   6.051 -0.3506  0.0312 -0.2543
  588MOL0     C77502   8.976   4.053   6.056 -0.2873 -0.3600  0.1201
  588MOL0     C77503   8.920   4.145   5.969 -0.1836  0.3011  0.6576
  588MOL0     C77504   8.786   4.159   5.896 -0.3793 -0.2998  0.3046
  588MOL0     C77505   8.687   4.255   5.963 -0.1354  0.0723  0.5933
  588MOL0     C77506   8.716   4.398   5.969  1.2816  0.5283 -0.1864
  588MOL0     C77507   8.585   4.470   6.024  0.5392 -0.7009 -1.4047
  588MOL0     O77508   8.477   4.469   5.935  0.5211  0.7396 -0.0589
  588MOL0     C77509   8.356   4.519   5.971 -0.1066  0.5552  0.0859
  588MOL0     C77510   8.349   4.620   6.069  0.2811  0.2940  0.7846
  588MOL0     C77511   8.221   4.670   6.100 -0.7596 -0.7158 -1.2162
  588MOL0     C77512   8.108   4.634   6.026 -0.3008  0.0644  0.1226
  588MOL0     C77513   7.975   4.686   6.058 -1.3626 -0.8796  0.7858
  588MOL0     O77514   7.861   4.635   5.997 -0.1824  0.0175  0.4054
  588MOL0     C77515   7.744   4.694   6.026  0.4169 -0.8628  0.5890
  588MOL0     C77516   7.674   4.769   5.933  0.1691 -0.2253  1.0204
  588MOL0     C77517   7.552   4.833   5.955 -1.0974 -0.1900 -0.1241
  588MOL0     C77518   7.491   4.808   6.082  0.2763 -0.3736 -0.4923
  588MOL0     O77519   7.375   4.875   6.121  0.2506  0.3868  0.2699
  588MOL0     C77520   7.278   4.787   6.175 -0.1333  0.4063 -0.3476
  588MOL0     C77521   7.137   4.854   6.174 -0.5140 -0.2336 -0.1183
  588MOL0     C77522   7.029   4.787   6.247 -0.3700  0.3285  0.2577
  588MOL0     C77523   7.008   4.642   6.208  0.9991  0.1415 -0.4264
  588MOL0     C77524   6.885   4.578   6.288  0.6791  0.7726  0.2739
  588MOL0     C77525   6.853   4.443   6.219  0.6819  0.0507  0.3374
  588MOL0     C77526   6.705   4.404   6.249  0.1417  0.4161  0.0202
  588MOL0     C77527   6.605   4.485   6.164 -0.7800 -0.6887  0.2727
  588MOL0    Cl77528   6.437   4.458   6.218  0.4320 -0.0455 -0.5396
  588MOL0     C77529   7.550   4.726   6.175 -1.3704  0.1440 -0.3760
  588MOL0     C77530   7.681   4.669   6.148  0.6882  0.0637 -0.5835
  588MOL0     O77531   7.981   4.783   6.131  1.6444  0.1126 -0.3379
  588MOL0     C77532   8.115   4.525   5.933 -0.2789  0.7632 -0.3568
  588MOL0     C77533   8.243   4.480   5.897  0.4496 -0.4974 -0.0737
  588MOL0     N77534   9.010   4.246   5.933 -0.8670  0.5184 -0.0177
  588MOL0     N77535   9.124   4.211   5.981  0.1311  0.5832  0.3565
  588MOL0     C77536  10.270   3.894   6.375  0.2416  0.6534  0.3348
  588MOL0     C77537  10.401   3.909   6.366 -0.8426 -0.1942 -0.6855
  588MOL0     C77538  10.808   3.984   6.105  0.7496  0.1373 -0.7829
  588MOL0     C77539  10.881   4.055   6.008 -0.6552  0.1746 -0.5739
  588MOL0     C77540  11.021   4.021   5.998 -0.2864  0.4719 -0.0907
  588MOL0     C77541  11.084   3.928   6.090 -0.7631 -0.3805  0.0095
  588MOL0     O77542  11.214   3.883   6.087 -0.8695 -0.1571  0.8450
  588MOL0     C77543  11.318   3.944   6.019  0.0374 -0.2908  0.5565
  588MOL0     C77544  11.448   3.938   6.104 -0.0559 -0.4632  0.6859
  588MOL0     C77545  11.573   3.989   6.037  0.3662  0.5570  0.0187
  588MOL0     C77546  11.690   4.003   6.136 -0.7350  0.1366  0.4748
  588MOL0     C77547  11.820   4.027   6.069  0.7075 -0.2163  0.3495
  588MOL0     C77548  11.928   4.042   6.010 -0.0899 -0.4586 -0.9757
  588MOL0     C77549  11.000   3.869   6.182  0.4699 -0.4508 -0.1678
  588MOL0     C77550  10.869   3.903   6.190 -0.5559  0.5612 -1.0256
  588MOL0     H77551  10.404   3.964   6.029 -0.5862 -2.0682 -1.2383
  588MOL0     H77552  10.152   3.979   6.067  1.5120  1.1145 -0.4249
  588MOL0     H77553   9.878   3.802   6.259 -1.1672 -1.5672 -2.7461
  588MOL0     H77554   9.984   3.822   6.128 -1.7201 -0.7125  0.3143
  588MOL0     H77555   9.961   4.080   6.134 -0.4236 -0.5900 -1.4780
  588MOL0     H77556   9.843   4.066   6.261 -1.1545 -2.7107  1.7067
  588MOL0     H77557   9.819   3.981   5.973  3.1934  1.1495  1.4612
  588MOL0     H77558   9.741   4.111   6.053 -1.0210  0.0434  2.4545
  588MOL0     H77559   9.676   3.816   6.062  3.9563 -0.5160  1.1107
  588MOL0     H77560   9.634   3.919   6.204 -0.0633  0.7124  0.0104
  588MOL0     H77561   9.570   4.015   5.941  2.6472 -0.6838  1.1497
  588MOL0     H77562   9.507   4.066   6.096  3.4086  0.6704 -0.6249
  588MOL0     H77563   9.409   3.812   6.102  0.2366 -0.2087 -0.1171
  588MOL0     H77564   9.446   3.800   5.945 -1.2108 -3.0136  3.2476
  588MOL0     H77565   9.307   4.033   5.906 -2.6757  2.4959  1.3826
  588MOL0     H77566   9.222   3.883   5.951 -0.5384  1.7869 -2.7155
  588MOL0     H77567   9.305   4.102   6.133 -2.5431  3.2607 -1.8589
  588MOL0     H77568   9.206   3.954   6.187  1.4138 -0.1490  1.0636
  588MOL0     H77569   8.923   3.964   6.089 -2.3017  0.3792 -0.9328
  588MOL0     H77570   8.730   4.065   5.899 -0.3072 -0.3374  0.4916
  588MOL0     H77571   8.806   4.186   5.792  3.2543 -1.3725  0.5884
  588MOL0     H77572   8.657   4.212   6.058 -0.1006 -1.1383  0.0706
  588MOL0     H77573   8.591   4.256   5.911  1.1134  0.3622 -1.9033
  588MOL0     H77574   8.803   4.419   6.033 -0.3383 -2.2994  3.3170
  588MOL0     H77575   8.728   4.443   5.870 -1.0832 -0.2054 -0.8552
  588MOL0     H77576   8.620   4.572   6.043 -2.2252  0.0038  0.5274
  588MOL0     H77577   8.555   4.436   6.123  2.8742  0.4280 -0.2192
  588MOL0     H77578   8.427   4.638   6.142  0.1459 -1.1514  1.3217
  588MOL0     H77579   8.223   4.749   6.175 -1.1969 -1.7075 -0.1364
  588MOL0     H77580   7.706   4.775   5.829  0.1745  0.2522  1.0471
  588MOL0     H77581   7.500   4.901   5.888 -1.7861 -0.8066 -0.2376
  588MOL0     H77582   7.307   4.760   6.277  1.1563  1.6280 -0.3515
  588MOL0     H77583   7.278   4.697   6.112 -1.2110 -0.1420  0.4077
  588MOL0     H77584   7.111   4.857   6.068  1.5033  0.9944 -0.6531
  588MOL0     H77585   7.142   4.959   6.205  1.8707  0.0976 -1.3483
  588MOL0     H77586   6.934   4.839   6.237 -0.5661  0.7118  3.3149
  588MOL0     H77587   7.053   4.788   6.354  2.6210  2.5227 -0.3161
  588MOL0     H77588   6.993   4.632   6.100  1.6914  1.8615 -0.7162
  588MOL0     H77589   7.098   4.582   6.225 -0.2574 -1.2822  1.5817
  588MOL0     H77590   6.807   4.652   6.269  1.0506  0.7326 -1.5906
  588MOL0     H77591   6.904   4.554   6.393 -3.0686  0.1885  0.9592
  588MOL0     H77592   6.900   4.352   6.256 -2.5230 -1.2630  1.5363
  588MOL0     H77593   6.881   4.443   6.113  0.4226 -0.6476  0.2670
  588MOL0     H77594   6.702   4.296   6.232  1.3371  0.1263  1.4387
  588MOL0     H77595   6.687   4.430   6.354 -2.5345  1.3837 -0.5983
  588MOL0     H77596   6.607   4.464   6.057 -2.2879 -1.2967  0.3345
  588MOL0     H77597   6.631   4.590   6.180 -0.0911 -0.7820 -0.1944
  588MOL0     H77598   7.511   4.705   6.274  0.7826 -3.6862 -0.1520
  588MOL0     H77599   7.730   4.609   6.223 -1.5803  0.2033  1.1066
  588MOL0     H77600   8.029   4.480   5.884  0.5611 -0.7504 -0.5259
  588MOL0     H77601   8.269   4.413   5.815 -3.9662  1.6311 -3.6721
  588MOL0     H77602  10.216   3.868   6.466  0.1444  0.1249  0.1297
  588MOL0     H77603  10.458   3.905   6.459 -0.5086  1.4214 -0.7915
  588MOL0     H77604  10.833   4.125   5.939  1.7919  1.9082 -0.6425
  588MOL0     H77605  11.071   4.057   5.909  0.0001 -1.3737 -0.7013
  588MOL0     H77606  11.301   4.051   6.006  0.9867 -0.1748  0.1676
  588MOL0     H77607  11.341   3.903   5.920  2.3480  0.3374  0.7615
  588MOL0     H77608  11.438   3.985   6.202 -2.3712  2.4739 -0.7774
  588MOL0     H77609  11.458   3.830   6.119 -0.2221 -0.2614  2.3725
  588MOL0     H77610  11.560   4.090   5.997 -2.3058  1.2541  2.3765
  588MOL0     H77611  11.602   3.910   5.968  0.1939 -0.4171  1.0348
  588MOL0     H77612  11.668   4.084   6.206  0.0303 -1.2079  2.3709
  588MOL0     H77613  11.707   3.914   6.198 -0.2662  1.0159  1.6433
  588MOL0     H77614  12.025   4.063   5.969  0.0616  1.8052  0.3752
  588MOL0     H77615  11.037   3.797   6.255 -0.6324 -0.0820  0.7913
  588MOL0     H77616  10.818   3.838   6.261  1.3423 -2.0503 -1.8843
  589MOL0     O77617   0.732   2.393   3.355 -0.1582 -0.7846 -0.1753
  589MOL0     C77618   0.684   2.428   3.465  0.4974  0.3738 -0.0619
  589MOL0     O77619   0.754   2.430   3.587 -0.5013  0.1579 -0.1395
  589MOL0     C77620   0.891   2.399   3.597  0.2500  0.3266  0.9156
  589MOL0     C77621   0.952   2.390   3.718 -0.3779  0.1690  0.6054
  589MOL0     C77622   1.086   2.357   3.728  0.5588  0.5841  0.2784
  589MOL0     C77623   1.170   2.358   3.619 -0.1505  0.2450  0.8224
  589MOL0     O77624   1.304   2.334   3.618  0.2589  0.3858 -0.5237
  589MOL0     C77625   1.380   2.275   3.726  0.1083  0.1852 -0.0084
  589MOL0     C77626   1.526   2.280   3.683  0.6216  0.0171  0.9573
  589MOL0     C77627   1.589   2.425   3.691  0.1777  0.0296 -0.4024
  589MOL0     C77628   1.580   2.488   3.834 -0.5745  0.4248  0.0381
  589MOL0     C77629   1.678   2.603   3.843 -0.5221 -0.4618 -0.5245
  589MOL0     C77630   1.665   2.715   3.960 -0.0041 -0.3509  0.8836
  589MOL0     C77631   1.529   2.760   4.021  0.2644  0.2000 -0.6167
  589MOL0     C77632   1.531   2.869   4.133  0.8646 -0.0834  0.0609
  589MOL0     N77633   1.400   2.887   4.192 -1.0257  0.5674 -1.2778
  589MOL0     C77634   1.291   2.935   4.121 -0.7678  0.6011  0.0472
  589MOL0     C77635   1.188   2.931   4.207 -0.2615 -0.9424 -0.8725
  589MOL0     C77636   1.043   2.989   4.203 -0.3694 -0.3599  0.1519
  589MOL0     C77637   1.017   3.095   4.303 -0.1806 -0.5933 -0.1524
  589MOL0     C77638   0.886   3.174   4.268 -0.1204  0.2943  0.2879
  589MOL0     C77639   0.822   3.247   4.387 -0.7890 -0.0346  0.7980
  589MOL0     O77640   0.698   3.299   4.337 -0.1877 -0.3181  0.1713
  589MOL0     C77641   0.601   3.333   4.428 -0.7014 -0.3449 -0.3041
  589MOL0     C77642   0.479   3.389   4.392 -0.5797 -0.2809 -0.2813
  589MOL0     C77643   0.385   3.435   4.489 -0.5101 -0.7614 -0.3511
  589MOL0     C77644   0.396   3.400   4.622  0.3656 -0.0500 -0.7926
  589MOL0     C77645   0.282   3.435   4.712  0.2160  0.3851  0.4607
  589MOL0     O77646   0.154   3.420   4.656  0.1720  0.0888  0.5297
  589MOL0     C77647   0.027   3.444   4.707 -0.0205  0.1728 -0.1701
  589MOL0     C77648  -0.075   3.437   4.618 -0.0550  0.2909  0.5393
  589MOL0     C77649  -0.208   3.460   4.666  0.5410 -0.4631  0.3108
  589MOL0     C77650  -0.241   3.481   4.809  0.3739 -0.3424  1.1370
  589MOL0     O77651  -0.374   3.506   4.840 -0.4427  0.3425 -0.1455
  589MOL0     C77652  -0.405   3.536   4.976  0.0750  0.1116  0.3167
  589MOL0     C77653  -0.557   3.550   4.990  0.5172  0.3591  0.3526
  589MOL0     C77654  -0.612   3.678   4.919 -0.2234  0.3942  0.4132
  589MOL0     C77655  -0.763   3.682   4.924  0.7092  0.1914  0.3768
  589MOL0     C77656  -0.799   3.807   4.848  0.0419 -0.8598  0.0332
  589MOL0     C77657  -0.950   3.796   4.825  0.2085 -0.2158 -0.9028
  589MOL0     C77658  -1.001   3.917   4.748  0.0997 -0.3207  0.2233
  589MOL0     C77659  -1.147   3.888   4.719  0.7491 -0.7376 -1.0011
  589MOL0    Cl77660  -1.258   3.916   4.861  0.3114  0.2953  0.4428
  589MOL0     C77661  -0.134   3.500   4.889  0.2687 -0.0441  0.2992
  589MOL0     C77662   0.001   3.482   4.839 -0.2381 -0.0775 -0.0591
  589MOL0     O77663   0.312   3.447   4.834  0.4682 -0.8545  0.0068
  589MOL0     C77664   0.509   3.327   4.658  0.0840 -0.0297 -0.0001
  589MOL0     C77665   0.611   3.308   4.570 -0.3672  0.3689  1.1940
  589MOL0     N77666   1.238   2.876   4.328  0.0086  0.1659  0.7832
  589MOL0     N77667   1.358   2.839   4.311  0.1677  0.8149 -0.7435
  589MOL0     C77668   1.117   2.377   3.497 -1.1652  0.2934 -0.3348
  589MOL0     C77669   0.980   2.405   3.492 -0.7276 -0.4373  0.4189
  589MOL0     C77670   0.542   2.468   3.458  0.1164 -0.0692 -0.3401
  589MOL0     C77671   0.455   2.426   3.550  0.3502  0.2266  0.0934
  589MOL0     C77672   0.312   2.450   3.550 -0.1284 -0.9365  0.9851
  589MOL0     C77673   0.268   2.537   3.443 -0.3546  0.3643 -1.1272
  589MOL0     O77674   0.144   2.582   3.429 -0.0453  0.7004 -0.2968
  589MOL0     C77675   0.054   2.564   3.538 -0.5808  0.2351  0.2061
  589MOL0     C77676  -0.094   2.577   3.485 -0.2794  0.0996 -0.0562
  589MOL0     C77677  -0.151   2.718   3.458  0.6068  0.0416 -0.9933
  589MOL0     C77678  -0.305   2.715   3.443  0.1539 -0.1661 -0.8884
  589MOL0     C77679  -0.383   2.691   3.571  0.4428  0.4926  0.0403
  589MOL0     C77680  -0.457   2.678   3.666 -0.2922 -0.0937 -0.0805
  589MOL0     C77681   0.357   2.583   3.349 -0.3710 -0.0431  0.6145
  589MOL0     C77682   0.491   2.546   3.352 -0.8036 -0.6694 -0.3528
  589MOL0     H77683   0.898   2.409   3.810 -1.0846  1.7647 -0.1142
  589MOL0     H77684   1.133   2.352   3.826  0.3525 -0.5130  0.3381
  589MOL0     H77685   1.362   2.169   3.741 -0.3458  0.1010 -1.1204
  589MOL0     H77686   1.362   2.328   3.821  2.0960  0.6684  0.1631
  589MOL0     H77687   1.529   2.234   3.584  2.7977 -1.8311  1.7870
  589MOL0     H77688   1.581   2.210   3.746  0.4869  0.1754  1.2551
  589MOL0     H77689   1.533   2.496   3.629  0.4743  2.0658  1.5476
  589MOL0     H77690   1.692   2.417   3.654 -0.2700  0.4419 -1.8005
  589MOL0     H77691   1.476   2.521   3.847 -0.2106  0.4736  4.3710
  589MOL0     H77692   1.599   2.409   3.907 -0.5838 -0.4924 -0.9224
  589MOL0     H77693   1.671   2.670   3.757  1.3174  2.7377  1.5967
  589MOL0     H77694   1.777   2.556   3.846 -1.1334 -1.7563  0.3185
  589MOL0     H77695   1.719   2.799   3.916  4.7577 -2.8189  1.3114
  589MOL0     H77696   1.715   2.686   4.053 -0.2807 -3.6569  0.1256
  589MOL0     H77697   1.463   2.797   3.942 -2.6659 -3.3531 -0.0688
  589MOL0     H77698   1.481   2.675   4.070 -1.3321  0.7735 -1.1472
  589MOL0     H77699   1.564   2.962   4.086 -1.8530 -0.0069 -1.9584
  589MOL0     H77700   1.601   2.849   4.215  3.9346  1.3193 -1.9964
  589MOL0     H77701   1.296   2.981   4.023 -0.4680  1.3656  0.4088
  589MOL0     H77702   0.971   2.908   4.218 -1.1288  0.7528  3.3165
  589MOL0     H77703   1.028   3.033   4.104  1.0680  1.7290  0.7992
  589MOL0     H77704   1.087   3.179   4.296 -2.8373  1.6829 -1.2748
  589MOL0     H77705   1.022   3.047   4.401  4.0006 -0.4001 -0.1113
  589MOL0     H77706   0.914   3.232   4.180 -2.2683 -0.0912 -0.7235
  589MOL0     H77707   0.808   3.112   4.222 -0.0746  2.4102 -2.9232
  589MOL0     H77708   0.893   3.324   4.417 -1.7440  1.5212 -0.7809
  589MOL0     H77709   0.811   3.181   4.473  0.7060 -0.6186  0.5771
  589MOL0     H77710   0.470   3.411   4.286 -0.1173 -0.6017 -0.3888
  589MOL0     H77711   0.297   3.483   4.448 -0.4888 -0.0841  0.3677
  589MOL0     H77712  -0.065   3.396   4.519 -2.9097 -0.8757  0.6396
  589MOL0     H77713  -0.294   3.466   4.600  2.1347 -1.7331 -2.0120
  589MOL0     H77714  -0.352   3.631   4.994 -1.3311  1.5747 -2.6096
  589MOL0     H77715  -0.373   3.460   5.048  0.7484  0.7939  0.7708
  589MOL0     H77716  -0.589   3.563   5.094  2.4573  0.6482  0.9496
  589MOL0     H77717  -0.605   3.462   4.945 -1.0259  1.3737 -0.0635
  589MOL0     H77718  -0.585   3.658   4.815 -2.7233  1.9591 -0.6576
  589MOL0     H77719  -0.553   3.768   4.937  1.7289  0.0901 -3.4955
  589MOL0     H77720  -0.799   3.591   4.876  0.7714 -0.2732  1.1848
  589MOL0     H77721  -0.796   3.676   5.028 -2.5292  2.6761 -0.3324
  589MOL0     H77722  -0.750   3.802   4.751  1.1164 -0.6600  0.5490
  589MOL0     H77723  -0.774   3.905   4.890 -0.4290 -1.0429  0.7660
  589MOL0     H77724  -0.994   3.785   4.925 -0.2147 -1.3038 -1.1955
  589MOL0     H77725  -0.968   3.701   4.773  2.6511 -1.6752  0.7127
  589MOL0     H77726  -0.984   4.007   4.807  2.3706 -0.8982  0.5327
  589MOL0     H77727  -0.942   3.938   4.658  0.4444  1.0398  0.7460
  589MOL0     H77728  -1.163   3.786   4.683  3.3633 -1.2497 -0.8955
  589MOL0     H77729  -1.181   3.950   4.635  1.6318  1.7532  0.4008
  589MOL0     H77730  -0.145   3.536   4.990  2.8926 -2.2175  1.4916
  589MOL0     H77731   0.081   3.507   4.908 -1.2902  0.0173  1.1945
  589MOL0     H77732   0.529   3.321   4.764  1.1275 -1.0959 -0.2498
  589MOL0     H77733   0.698   3.262   4.615 -0.5344 -0.8234  0.3425
  589MOL0     H77734   1.174   2.377   3.405  2.2078 -1.8574  1.5489
  589MOL0     H77735   0.943   2.432   3.394 -0.5824 -2.3976 -0.2201
  589MOL0     H77736   0.492   2.370   3.635  1.3699  0.4978 -0.1693
  589MOL0     H77737   0.253   2.402   3.627 -1.6992 -3.9114 -1.7917
  589MOL0     H77738   0.082   2.639   3.613  0.5462  1.1832 -1.0965
  589MOL0     H77739   0.066   2.463   3.578  0.2245  0.8096  1.4856
  589MOL0     H77740  -0.086   2.524   3.389  2.3516  3.1242 -1.7374
  589MOL0     H77741  -0.164   2.540   3.560 -0.0046 -1.0350 -0.3418
  589MOL0     H77742  -0.113   2.743   3.358 -1.6368 -0.4791 -2.0481
  589MOL0     H77743  -0.121   2.779   3.543  0.9419 -4.2837  2.3129
  589MOL0     H77744  -0.341   2.805   3.393 -1.1334 -1.7038 -2.8850
  589MOL0     H77745  -0.328   2.629   3.378 -0.7764 -0.1931 -0.5410
  589MOL0     H77746  -0.525   2.680   3.749 -0.4876  0.1870 -0.2420
  589MOL0     H77747   0.319   2.655   3.277 -0.0477  0.5434  1.0198
  589MOL0     H77748   0.563   2.588   3.282  1.6250 -2.1159  1.1544
  590MOL0     O77749   6.387   3.757   9.609 -0.4162 -0.2568  0.0035
  590MOL0     C77750   6.345   3.652   9.650 -0.0074 -0.7214  0.5368
  590MOL0     O77751   6.423   3.548   9.699 -0.0469 -0.0994 -0.7157
  590MOL0     C77752   6.555   3.527   9.663  0.2192 -0.0247  0.9470
  590MOL0     C77753   6.642   3.612   9.608 -0.7451  0.4362  1.2673
  590MOL0     C77754   6.778   3.579   9.580  0.0436  0.0349 -0.1444
  590MOL0     C77755   6.831   3.454   9.611 -0.8103  0.0156  0.3406
  590MOL0     O77756   6.966   3.414   9.599 -0.0296 -0.1501 -0.4992
  590MOL0     C77757   7.062   3.508   9.558 -0.1976 -0.7217  0.2098
  590MOL0     C77758   7.210   3.469   9.587  0.8834  0.3998 -0.3315
  590MOL0     C77759   7.313   3.576   9.546 -0.6707 -0.4850 -0.1579
  590MOL0     C77760   7.463   3.551   9.567  0.3319 -0.4358  0.1540
  590MOL0     C77761   7.545   3.649   9.483 -0.1779  0.3726  0.3068
  590MOL0     C77762   7.697   3.668   9.529 -0.1925  0.3083  0.2585
  590MOL0     C77763   7.731   3.757   9.640  0.5170 -0.3768 -1.5416
  590MOL0     C77764   7.882   3.762   9.673  0.1719  0.2736  0.3397
  590MOL0     N77765   7.906   3.854   9.777 -0.5435 -0.3625  0.0698
  590MOL0     C77766   7.975   3.825   9.897 -0.5878  0.4627 -0.2464
  590MOL0     C77767   7.974   3.940   9.968 -0.3652  0.5161  0.2065
  590MOL0     C77768   8.043   3.969  10.103  0.0042  0.2661  0.4796
  590MOL0     C77769   8.194   3.947  10.090  0.4505  0.7523 -0.3345
  590MOL0     C77770   8.263   4.052  10.004  0.5494  0.1968 -0.5046
  590MOL0     C77771   8.417   4.026   9.991  0.9583 -0.1552 -0.5009
  590MOL0     O77772   8.465   3.896   9.951 -0.7114 -0.2163 -0.1206
  590MOL0     C77773   8.600   3.878   9.963  0.2512  0.8805  0.4523
  590MOL0     C77774   8.697   3.978   9.960  0.7564  0.0714  0.0113
  590MOL0     C77775   8.835   3.954   9.979  0.2887 -0.4934  0.3095
  590MOL0     C77776   8.878   3.824   9.960 -0.8300  0.6189 -0.0112
  590MOL0     C77777   9.026   3.795   9.966 -0.2815  0.4647  0.3125
  590MOL0     O77778   9.114   3.902  10.005 -0.2255  0.2093  0.1876
  590MOL0     C77779   9.252   3.874   9.986 -0.3511 -0.9800  0.1618
  590MOL0     C77780   9.324   3.813  10.087  0.3699  0.4993  0.5171
  590MOL0     C77781   9.456   3.773  10.071 -0.5751  0.5242 -0.0386
  590MOL0     C77782   9.522   3.829   9.963 -0.3059  0.2224  0.9271
  590MOL0     O77783   9.660   3.799   9.945 -0.6505  0.4887  0.1306
  590MOL0     C77784   9.747   3.857   9.837 -0.1285  0.8707 -0.3575
  590MOL0     C77785   9.887   3.796   9.837  0.1840 -0.3959 -0.4606
  590MOL0     C77786   9.999   3.895   9.819  0.7514 -0.9025  0.4720
  590MOL0     C77787  10.135   3.842   9.800 -0.1069 -0.4287  0.0303
  590MOL0     C77788  10.239   3.954   9.824 -0.3868  1.2664 -0.1068
  590MOL0     C77789  10.272   4.030   9.697  0.6071  0.3616 -0.2246
  590MOL0     C77790  10.383   4.130   9.734  0.1645 -0.1870 -0.1449
  590MOL0     C77791  10.482   4.164   9.625 -0.0681 -0.1953  0.0740
  590MOL0    Cl77792  10.584   4.020   9.599  0.1788 -0.2620 -0.5972
  590MOL0     C77793   9.458   3.913   9.872  1.2373  0.2353  0.5561
  590MOL0     C77794   9.323   3.933   9.881  1.0358 -0.1734 -0.1159
  590MOL0     O77795   9.062   3.680   9.950 -1.0921 -0.9478  0.5511
  590MOL0     C77796   8.779   3.721   9.955  1.0844  0.3932  0.0687
  590MOL0     C77797   8.648   3.746   9.969 -0.6834 -0.4142 -0.0778
  590MOL0     N77798   7.898   4.033   9.896  0.0925 -0.2588 -1.0151
  590MOL0     N77799   7.851   3.976   9.788  0.0273  0.5566  0.3748
  590MOL0     C77800   6.737   3.360   9.657  0.7916 -0.3900 -0.2158
  590MOL0     C77801   6.603   3.396   9.683 -0.6260  0.6892  0.2891
  590MOL0     C77802   6.194   3.639   9.665 -1.0571 -0.2324 -1.2167
  590MOL0     C77803   6.132   3.522   9.717 -0.4327 -0.4253  0.9261
  590MOL0     C77804   5.990   3.530   9.741 -1.0630  0.7005  0.0046
  590MOL0     C77805   5.913   3.633   9.699  0.1362 -0.7756 -1.1597
  590MOL0     O77806   5.776   3.646   9.722 -0.5912  0.2582  0.6550
  590MOL0     C77807   5.715   3.533   9.787 -0.2941 -0.5459 -0.4268
  590MOL0     C77808   5.566   3.540   9.784 -0.1766  0.7743 -0.6925
  590MOL0     C77809   5.500   3.663   9.850  0.4423  0.7311  0.0787
  590MOL0     C77810   5.357   3.682   9.794 -0.3041  0.1381 -1.0079
  590MOL0     C77811   5.280   3.803   9.827  0.8353  0.0556 -0.4051
  590MOL0     C77812   5.217   3.903   9.860  0.7205 -0.1556 -0.2807
  590MOL0     C77813   5.976   3.742   9.640 -0.7252 -0.6269  0.0373
  590MOL0     C77814   6.117   3.748   9.630  0.2465 -0.0036 -0.2105
  590MOL0     H77815   6.617   3.711   9.574  1.9080  0.1839 -1.8942
  590MOL0     H77816   6.845   3.658   9.548  3.2309 -1.3524  2.4979
  590MOL0     H77817   7.051   3.614   9.583  3.5094 -0.1369 -0.0357
  590MOL0     H77818   7.049   3.515   9.449 -0.4735  1.9000  0.3305
  590MOL0     H77819   7.224   3.380   9.525  0.6317  1.2152 -1.5796
  590MOL0     H77820   7.211   3.444   9.693 -0.3391 -0.9570 -0.6087
  590MOL0     H77821   7.286   3.671   9.591 -0.3443  0.4275 -1.8123
  590MOL0     H77822   7.291   3.595   9.440  1.2391  1.8676 -0.2098
  590MOL0     H77823   7.490   3.571   9.671 -0.3412 -2.4026  0.7477
  590MOL0     H77824   7.482   3.448   9.535  0.8368 -0.4411  0.4613
  590MOL0     H77825   7.492   3.745   9.489 -1.2586 -0.2498  1.2119
  590MOL0     H77826   7.541   3.613   9.380 -1.5249 -2.4742  1.2561
  590MOL0     H77827   7.751   3.700   9.440 -3.4371  2.4235 -1.1502
  590MOL0     H77828   7.731   3.568   9.559  0.1709  0.7243  1.2651
  590MOL0     H77829   7.684   3.855   9.626  1.4473 -0.0632 -2.5411
  590MOL0     H77830   7.687   3.718   9.732  1.6178 -0.0224 -0.8430
  590MOL0     H77831   7.945   3.786   9.586  0.7710  1.4580  1.0795
  590MOL0     H77832   7.902   3.658   9.701  3.7417  0.1544 -1.9895
  590MOL0     H77833   8.026   3.734   9.926 -1.2605 -0.2989 -1.3856
  590MOL0     H77834   8.004   3.901  10.179  1.7135 -0.8974  0.3605
  590MOL0     H77835   8.031   4.073  10.135 -0.3924 -0.3200  2.3330
  590MOL0     H77836   8.211   3.849  10.044  0.8358  0.6410  0.0422
  590MOL0     H77837   8.235   3.947  10.191 -1.4881  1.2477  0.4890
  590MOL0     H77838   8.221   4.046   9.903 -0.1621 -4.0696 -0.1523
  590MOL0     H77839   8.247   4.153  10.043  0.4539  0.4319 -1.1419
  590MOL0     H77840   8.470   4.058  10.081  0.6200  0.1008 -0.3918
  590MOL0     H77841   8.440   4.088   9.904  0.9545  1.6691  0.7260
  590MOL0     H77842   8.672   4.083   9.949  1.1054 -0.0562 -2.7031
  590MOL0     H77843   8.906   4.033  10.002 -1.0096  0.3934  1.4155
  590MOL0     H77844   9.281   3.765  10.174  0.6831 -3.9416 -1.4660
  590MOL0     H77845   9.518   3.717  10.139  1.6416  1.8898 -0.8234
  590MOL0     H77846   9.760   3.966   9.844 -1.9004  1.0662  0.7307
  590MOL0     H77847   9.686   3.831   9.750  0.6553  0.5074 -0.7983
  590MOL0     H77848   9.868   3.727   9.753 -0.7729  1.0004 -1.4367
  590MOL0     H77849   9.907   3.741   9.929 -1.5573  0.7540  0.6616
  590MOL0     H77850  10.003   3.966   9.902 -2.2584  0.5937 -0.5513
  590MOL0     H77851   9.975   3.964   9.738 -4.0231 -2.5179  0.2164
  590MOL0     H77852  10.152   3.756   9.866 -1.4935 -0.8269 -0.0860
  590MOL0     H77853  10.150   3.798   9.701 -2.2887 -1.9194  0.2817
  590MOL0     H77854  10.329   3.908   9.866 -0.6730 -1.8860 -2.5725
  590MOL0     H77855  10.214   4.022   9.906  0.5547  0.4528  0.8734
  590MOL0     H77856  10.181   4.078   9.661  0.9804  0.6814 -0.7511
  590MOL0     H77857  10.312   3.967   9.617  0.3812  0.6550 -0.5724
  590MOL0     H77858  10.338   4.219   9.778  0.6053  1.0198 -2.0117
  590MOL0     H77859  10.444   4.092   9.817 -1.3043 -0.6648  0.7469
  590MOL0     H77860  10.549   4.248   9.647 -0.5698 -0.0661  1.2077
  590MOL0     H77861  10.432   4.188   9.531 -0.5247 -2.4535 -0.3102
  590MOL0     H77862   9.506   3.957   9.785 -0.2196  2.7475  0.9288
  590MOL0     H77863   9.275   3.990   9.802 -0.1868 -2.3322 -1.0110
  590MOL0     H77864   8.815   3.619   9.944 -1.3661 -0.5059 -0.1206
  590MOL0     H77865   8.570   3.672   9.964 -1.1196 -0.3698  3.7793
  590MOL0     H77866   6.777   3.260   9.663 -1.6762 -1.8502 -3.9763
  590MOL0     H77867   6.540   3.320   9.726 -0.4982  1.3948  1.7665
  590MOL0     H77868   6.198   3.438   9.734 -1.9061 -2.1452 -1.3482
  590MOL0     H77869   5.956   3.448   9.802  0.2556 -0.2336 -0.4670
  590MOL0     H77870   5.733   3.535   9.895 -1.5095  0.8135 -0.2175
  590MOL0     H77871   5.750   3.444   9.733 -1.2416 -2.3161  1.7119
  590MOL0     H77872   5.548   3.548   9.677 -0.0112  3.2885 -0.5869
  590MOL0     H77873   5.516   3.458   9.837  0.4343  0.7472 -0.1480
  590MOL0     H77874   5.549   3.760   9.843 -1.1563  1.4569 -2.2236
  590MOL0     H77875   5.482   3.652   9.957 -0.5893  0.2948 -0.1220
  590MOL0     H77876   5.370   3.676   9.685  4.3395  0.1826 -0.6468
  590MOL0     H77877   5.300   3.597   9.832 -0.8061  1.2301  0.7846
  590MOL0     H77878   5.159   3.988   9.888  2.1297  1.7088 -2.6877
  590MOL0     H77879   5.912   3.827   9.620 -1.3103 -0.4029  2.5275
  590MOL0     H77880   6.166   3.836   9.588  2.3252 -1.0130 -0.0263
  591MOL0     O77881   5.947  10.373   2.228 -0.7325 -0.4459 -0.5268
  591MOL0     C77882   5.944  10.401   2.109 -0.2220  0.5736  0.7981
  591MOL0     O77883   5.841  10.375   2.025  0.3317 -0.9419 -0.5552
  591MOL0     C77884   5.715  10.330   2.079  0.2835  0.0174  0.1252
  591MOL0     C77885   5.637  10.383   2.180 -0.1194 -1.3449 -0.5624
  591MOL0     C77886   5.509  10.339   2.212 -0.7020 -0.3191  0.7718
  591MOL0     C77887   5.453  10.238   2.138  0.1764  0.0786 -0.0731
  591MOL0     O77888   5.331  10.193   2.186  0.5951 -0.4507  0.6868
  591MOL0     C77889   5.245  10.149   2.076  0.4330  0.2748 -0.5096
  591MOL0     C77890   5.117  10.078   2.116 -0.0573 -0.9525 -0.3956
  591MOL0     C77891   5.019  10.176   2.172 -0.3685 -0.1165  0.5113
  591MOL0     C77892   4.870  10.140   2.147 -0.1151  0.2861 -0.3271
  591MOL0     C77893   4.781  10.217   2.254 -0.5601  0.9956  0.7063
  591MOL0     C77894   4.649  10.147   2.263  0.0262  0.1929  0.4560
  591MOL0     C77895   4.537  10.224   2.330 -0.3300  0.1760  0.4773
  591MOL0     C77896   4.506  10.366   2.292 -0.8849  0.0188  0.9370
  591MOL0     N77897   4.370  10.409   2.329  0.7449 -0.4721  0.2679
  591MOL0     C77898   4.240  10.361   2.295 -0.0991 -0.4214 -0.5062
  591MOL0     C77899   4.153  10.421   2.372 -0.4280 -0.4879 -0.1589
  591MOL0     C77900   4.002  10.399   2.373  0.2654  0.2677  0.7741
  591MOL0     C77901   3.906  10.521   2.392  0.7268  0.0741 -0.3393
  591MOL0     C77902   3.914  10.580   2.530  0.2209  0.6192 -0.1713
  591MOL0     C77903   3.775  10.655   2.565 -0.0251  0.3312 -0.0230
  591MOL0     O77904   3.668  10.562   2.585  0.2320 -0.1719  0.8037
  591MOL0     C77905   3.554  10.600   2.655  0.1400  0.5365  0.0959
  591MOL0     C77906   3.548  10.665   2.776 -0.0656 -0.0874  0.1875
  591MOL0     C77907   3.429  10.702   2.839 -1.3542  0.6275 -1.8666
  591MOL0     C77908   3.307  10.669   2.783 -0.4071 -0.4274 -0.1641
  591MOL0     C77909   3.182  10.706   2.847  0.1310  0.9509  0.2747
  591MOL0     O77910   3.067  10.687   2.768 -0.2303  0.5434 -0.3323
  591MOL0     C77911   2.940  10.710   2.816  0.8433 -0.9853 -0.0138
  591MOL0     C77912   2.899  10.666   2.945 -0.2095 -0.6828 -0.3241
  591MOL0     C77913   2.761  10.690   2.979  0.3648  0.3235  0.5515
  591MOL0     C77914   2.670  10.749   2.887 -0.2564  0.2912  1.0832
  591MOL0     O77915   2.543  10.773   2.931 -0.2349 -0.3428 -0.3351
  591MOL0     C77916   2.440  10.755   2.827 -0.1199 -0.6909  0.4369
  591MOL0     C77917   2.308  10.723   2.893  0.5578 -0.7726 -0.1373
  591MOL0     C77918   2.190  10.752   2.791  0.7474  0.1143 -1.0223
  591MOL0     C77919   2.058  10.694   2.847  0.2124 -0.0100  0.6223
  591MOL0     C77920   2.038  10.546   2.806  0.0190  0.3451 -0.3005
  591MOL0     C77921   1.903  10.491   2.849  0.1712 -0.0915 -0.5605
  591MOL0     C77922   1.881  10.355   2.795 -0.4728  0.1373  0.1083
  591MOL0     C77923   1.733  10.301   2.808  0.0605 -0.4128  0.0264
  591MOL0    Cl77924   1.699  10.297   2.990  0.5832 -0.0663  0.4929
  591MOL0     C77925   2.721  10.799   2.766 -0.3784  0.1714 -0.7868
  591MOL0     C77926   2.851  10.769   2.726  0.0424  0.0338  0.1126
  591MOL0     O77927   3.182  10.751   2.957 -0.5607 -0.0264 -0.7367
  591MOL0     C77928   3.308  10.597   2.664  0.8141  0.2976  0.1998
  591MOL0     C77929   3.429  10.571   2.599 -0.4691 -0.6824  0.2634
  591MOL0     N77930   4.231  10.504   2.460 -0.3241 -0.5282  0.1086
  591MOL0     N77931   4.360  10.505   2.421 -0.5193 -0.0263  0.8111
  591MOL0     C77932   5.534  10.173   2.044 -0.3104  0.1839 -0.7360
  591MOL0     C77933   5.665  10.220   2.017  0.3806  0.2773 -0.4411
  591MOL0     C77934   6.061  10.459   2.056  0.7277 -0.3148 -0.4683
  591MOL0     C77935   6.176  10.469   2.132 -0.3174 -0.6480  0.6721
  591MOL0     C77936   6.302  10.503   2.075  0.5572 -1.2546 -0.4232
  591MOL0     C77937   6.312  10.530   1.941  0.3740 -0.1124 -0.0374
  591MOL0     O77938   6.439  10.551   1.881 -0.7261  0.0649 -0.2306
  591MOL0     C77939   6.477  10.682   1.864 -0.2705 -0.5393  0.0505
  591MOL0     C77940   6.626  10.688   1.828 -0.2363 -0.0371  0.2980
  591MOL0     C77941   6.653  10.625   1.691 -0.3974  0.0350  0.4280
  591MOL0     C77942   6.803  10.589   1.659 -0.4551  0.7347 -0.0469
  591MOL0     C77943   6.891  10.698   1.682  0.6921 -0.4138 -0.2937
  591MOL0     C77944   6.974  10.788   1.696  0.9681 -0.2779  0.4124
  591MOL0     C77945   6.191  10.531   1.860 -0.5717  0.1649 -0.1427
  591MOL0     C77946   6.068  10.496   1.924  0.0280 -0.2349 -0.6429
  591MOL0     H77947   5.676  10.476   2.220  0.4560 -2.1952  0.9214
  591MOL0     H77948   5.455  10.394   2.289 -0.6645  3.1719 -1.4757
  591MOL0     H77949   5.296  10.074   2.014 -0.4165 -3.6336  3.0237
  591MOL0     H77950   5.208  10.234   2.018 -1.1930  0.0024  0.0769
  591MOL0     H77951   5.129   9.999   2.191 -0.2327 -0.9774 -0.3921
  591MOL0     H77952   5.092  10.035   2.018  2.0030 -1.1008 -0.8974
  591MOL0     H77953   5.043  10.275   2.133 -0.8969 -0.7545 -1.5369
  591MOL0     H77954   5.040  10.189   2.279 -0.0276  0.5626  0.3665
  591MOL0     H77955   4.852  10.178   2.045  1.1896  2.4980  0.1911
  591MOL0     H77956   4.853  10.032   2.146 -0.0760  0.2820 -0.7229
  591MOL0     H77957   4.770  10.319   2.216  3.6961  0.7433 -1.8930
  591MOL0     H77958   4.834  10.217   2.349 -0.8352  3.9734  0.9445
  591MOL0     H77959   4.659  10.055   2.323  1.5383 -0.2720 -0.4363
  591MOL0     H77960   4.608  10.123   2.165  1.1532 -1.6542  0.3812
  591MOL0     H77961   4.445  10.165   2.319 -0.4637  0.3479  0.6655
  591MOL0     H77962   4.561  10.222   2.437 -2.1592  0.2762  0.9191
  591MOL0     H77963   4.516  10.379   2.184 -0.7734  0.2036  0.9685
  591MOL0     H77964   4.581  10.429   2.341 -2.5565  3.1305 -0.2814
  591MOL0     H77965   4.213  10.286   2.221  0.8191 -0.5571 -0.7065
  591MOL0     H77966   3.980  10.328   2.453 -1.1141  0.7865  0.8821
  591MOL0     H77967   3.972  10.357   2.277 -1.1012  0.9043  0.9044
  591MOL0     H77968   3.804  10.488   2.367  0.2266  0.6475  0.8417
  591MOL0     H77969   3.938  10.602   2.327  3.2875  0.1432  0.9012
  591MOL0     H77970   3.924  10.502   2.607  2.1748  1.2192  0.2435
  591MOL0     H77971   4.000  10.645   2.546  1.5801 -1.3351  1.0247
  591MOL0     H77972   3.736  10.725   2.490  0.2775  2.6760  1.8732
  591MOL0     H77973   3.782  10.722   2.651 -0.2867  0.1086  0.1697
  591MOL0     H77974   3.643  10.705   2.811  1.1637 -0.5562 -2.3398
  591MOL0     H77975   3.434  10.759   2.931  1.3464  0.7701 -2.0398
  591MOL0     H77976   2.964  10.610   3.011  1.7643  1.8641  0.0283
  591MOL0     H77977   2.728  10.664   3.078  0.9673  0.4894  0.7974
  591MOL0     H77978   2.454  10.677   2.751 -0.8109 -0.3582 -0.0459
  591MOL0     H77979   2.437  10.850   2.772  0.3448 -0.8447  0.1393
  591MOL0     H77980   2.293  10.787   2.980  1.0386  0.2030 -0.7481
  591MOL0     H77981   2.326  10.622   2.929  4.0574 -0.6404 -1.1009
  591MOL0     H77982   2.211  10.707   2.694 -1.9752 -0.6527 -1.3455
  591MOL0     H77983   2.169  10.858   2.771 -0.6062 -0.4333 -2.6888
  591MOL0     H77984   2.054  10.700   2.956  0.5412 -3.0140  0.8869
  591MOL0     H77985   1.976  10.756   2.811 -0.4485 -1.3819 -0.2824
  591MOL0     H77986   2.116  10.480   2.844 -0.0695  0.4157  0.0057
  591MOL0     H77987   2.049  10.559   2.698 -0.5171  2.8590 -0.1173
  591MOL0     H77988   1.824  10.566   2.841 -0.1111 -0.0276  1.8332
  591MOL0     H77989   1.911  10.477   2.958  1.4111 -1.1837 -0.7669
  591MOL0     H77990   1.900  10.364   2.687 -0.3035 -1.8449 -0.0531
  591MOL0     H77991   1.950  10.287   2.846 -1.7531  0.2398  2.0552
  591MOL0     H77992   1.731  10.197   2.773 -0.7966  0.5103 -2.9490
  591MOL0     H77993   1.654  10.355   2.756 -0.7565 -1.0742  0.5644
  591MOL0     H77994   2.653  10.847   2.697  0.6490  1.8674 -0.6844
  591MOL0     H77995   2.881  10.793   2.625  2.8494  2.2854  1.3347
  591MOL0     H77996   3.216  10.581   2.610  0.8642  1.7591 -0.3474
  591MOL0     H77997   3.425  10.526   2.501 -1.8242  1.5951 -0.7884
  591MOL0     H77998   5.505  10.087   1.985 -0.5774 -0.9919  1.0419
  591MOL0     H77999   5.727  10.178   1.939  0.8639 -0.7632  0.4781
  591MOL0     H78000   6.169  10.441   2.237 -3.1981  0.0144  0.7517
  591MOL0     H78001   6.385  10.503   2.145  0.8325 -0.8293 -0.7492
  591MOL0     H78002   6.463  10.732   1.960 -1.5550 -1.8627  0.5931
  591MOL0     H78003   6.430  10.731   1.779  1.5474 -3.7962 -3.1538
  591MOL0     H78004   6.662  10.791   1.838  1.7547 -0.7433  0.9090
  591MOL0     H78005   6.686  10.630   1.899  2.8215  0.6155 -1.5761
  591MOL0     H78006   6.621  10.689   1.608  0.8128 -1.6186 -1.4085
  591MOL0     H78007   6.597  10.531   1.680 -1.1269  0.7215 -2.5980
  591MOL0     H78008   6.835  10.501   1.716 -1.4224 -0.2106 -0.8974
  591MOL0     H78009   6.810  10.572   1.551  0.1050  1.6168 -0.1553
  591MOL0     H78010   7.038  10.866   1.733  1.1079 -0.7265  1.1410
  591MOL0     H78011   6.200  10.553   1.754 -1.3317 -0.9690 -0.4618
  591MOL0     H78012   5.979  10.486   1.861  1.0054  2.3956 -2.6343
  592MOL0     O78013   1.101   4.007   9.276 -0.8932  0.2280  0.0430
  592MOL0     C78014   1.156   3.913   9.338 -0.5819 -0.0926 -0.6628
  592MOL0     O78015   1.091   3.803   9.400  0.5673 -0.2196  0.2244
  592MOL0     C78016   0.960   3.812   9.436 -0.4456  0.0666  0.2017
  592MOL0     C78017   0.881   3.927   9.470 -0.5122  1.1505 -0.4687
  592MOL0     C78018   0.744   3.919   9.498 -0.9710  0.3307  0.4485
  592MOL0     C78019   0.679   3.799   9.520  0.1164  0.0828  0.9075
  592MOL0     O78020   0.545   3.807   9.558  0.3032 -0.3181 -0.1998
  592MOL0     C78021   0.480   3.681   9.585 -0.0494  0.2605 -0.1938
  592MOL0     C78022   0.432   3.629   9.456  0.1443  0.8480 -0.0978
  592MOL0     C78023   0.367   3.483   9.460 -0.8066  0.3884  0.2564
  592MOL0     C78024   0.224   3.475   9.510 -0.6934 -0.0753  0.1182
  592MOL0     C78025   0.149   3.368   9.433  0.7843  0.2433  0.4176
  592MOL0     C78026  -0.001   3.385   9.486  0.1871  0.0200 -0.0719
  592MOL0     C78027  -0.097   3.289   9.409 -0.3374  0.2139  0.2077
  592MOL0     C78028  -0.241   3.286   9.469 -0.3223  0.3516  0.2650
  592MOL0     N78029  -0.315   3.406   9.454  0.9355 -0.7745  0.3405
  592MOL0     C78030  -0.332   3.498   9.553 -0.0932 -0.1781  0.2387
  592MOL0     C78031  -0.374   3.611   9.491  0.2101  0.0110  0.7861
  592MOL0     C78032  -0.428   3.747   9.541 -0.2902 -0.8205  0.4127
  592MOL0     C78033  -0.330   3.799   9.644 -0.1047  0.4543  0.3137
  592MOL0     C78034  -0.185   3.797   9.586  0.1740 -0.2914  1.0851
  592MOL0     C78035  -0.095   3.887   9.666 -0.9775  0.4307  1.1039
  592MOL0     O78036   0.041   3.832   9.667  0.1565  0.1354  0.2836
  592MOL0     C78037   0.134   3.928   9.681 -0.1315  0.5517  0.3376
  592MOL0     C78038   0.197   3.979   9.568 -0.4860  0.0635  0.3349
  592MOL0     C78039   0.311   4.046   9.574 -0.1588 -0.1985  0.1161
  592MOL0     C78040   0.361   4.097   9.701  0.0503 -0.5801  0.2243
  592MOL0     C78041   0.474   4.196   9.711 -0.3087 -0.2178 -0.0123
  592MOL0     O78042   0.559   4.201   9.605  0.2406  0.7984  1.0925
  592MOL0     C78043   0.657   4.300   9.615  0.1241 -1.1147  0.2691
  592MOL0     C78044   0.752   4.276   9.717  0.2661 -0.5700 -0.4006
  592MOL0     C78045   0.845   4.370   9.746 -0.6028  0.2771  0.4122
  592MOL0     C78046   0.852   4.488   9.679  0.0061 -0.4193 -0.1879
  592MOL0     O78047   0.945   4.589   9.696 -0.0189  1.2152 -0.1297
  592MOL0     C78048   1.024   4.599   9.814  0.5577  0.0923  0.4073
  592MOL0     C78049   1.076   4.741   9.825 -0.0219  0.3454 -0.1958
  592MOL0     C78050   1.203   4.745   9.901  1.2490  0.7540 -0.2375
  592MOL0     C78051   1.209   4.701  10.045  0.3386 -0.1529 -0.8167
  592MOL0     C78052   1.353   4.704  10.103 -0.2784 -0.8352 -0.2663
  592MOL0     C78053   1.469   4.650  10.012  0.5750 -0.0662 -0.3599
  592MOL0     C78054   1.604   4.673  10.075  0.3756  0.5436  0.6176
  592MOL0     C78055   1.628   4.597  10.203 -0.0578  0.7691  0.2671
  592MOL0    Cl78056   1.764   4.694  10.275  0.1494  0.3174  0.1562
  592MOL0     C78057   0.761   4.517   9.571 -0.4178  0.2028 -0.0301
  592MOL0     C78058   0.661   4.420   9.547 -0.4151  0.1910 -0.5661
  592MOL0     O78059   0.493   4.257   9.817  0.5141 -0.1078  0.0629
  592MOL0     C78060   0.291   4.050   9.813  0.1993 -0.3672  0.1129
  592MOL0     C78061   0.180   3.962   9.804  0.2817  0.9617  0.6317
  592MOL0     N78062  -0.407   3.571   9.357  0.2385 -0.3349 -0.4705
  592MOL0     N78063  -0.367   3.453   9.334  0.3316  1.0619 -0.3958
  592MOL0     C78064   0.757   3.683   9.488 -0.0369  0.4941 -0.6843
  592MOL0     C78065   0.893   3.688   9.455  0.3503  0.3310  0.8753
  592MOL0     C78066   1.306   3.916   9.352  0.0857  1.0689  0.4994
  592MOL0     C78067   1.381   4.014   9.284 -0.1303  0.9572  0.5073
  592MOL0     C78068   1.518   4.011   9.307  0.0739  0.6280 -0.1464
  592MOL0     C78069   1.572   3.929   9.401  0.1704  0.1415  0.2232
  592MOL0     O78070   1.706   3.940   9.405 -0.4264 -0.0270  0.2418
  592MOL0     C78071   1.780   3.872   9.509  0.5860  0.2137 -0.0623
  592MOL0     C78072   1.742   3.898   9.656 -0.2085 -0.3516 -0.9262
  592MOL0     C78073   1.865   3.967   9.724  0.0558  0.3991  0.7667
  592MOL0     C78074   1.889   4.102   9.674 -0.9103 -0.4417  0.0986
  592MOL0     C78075   1.804   4.204   9.735 -0.5756  0.5449 -0.0863
  592MOL0     C78076   1.758   4.294   9.802 -0.3625 -0.0141  0.0506
  592MOL0     C78077   1.497   3.822   9.453 -0.9866 -1.0215 -0.3090
  592MOL0     C78078   1.368   3.817   9.429 -0.2620  0.0281  0.2586
  592MOL0     H78079   0.933   4.021   9.451  0.3185  1.2030  1.7281
  592MOL0     H78080   0.689   4.011   9.517  2.4867  3.0309 -1.3013
  592MOL0     H78081   0.389   3.707   9.640  0.8898 -0.2421  1.7062
  592MOL0     H78082   0.553   3.622   9.642  2.9270  3.8006  0.0548
  592MOL0     H78083   0.513   3.639   9.383  1.4744  4.6176  1.6519
  592MOL0     H78084   0.352   3.696   9.421  0.1701  1.2533  0.6123
  592MOL0     H78085   0.436   3.415   9.510  0.9315  1.7396 -0.2092
  592MOL0     H78086   0.369   3.449   9.356 -1.3649 -1.0297  0.6789
  592MOL0     H78087   0.222   3.455   9.617  0.9720 -1.0600 -0.0086
  592MOL0     H78088   0.177   3.572   9.488  2.0760  1.4112  0.3697
  592MOL0     H78089   0.177   3.265   9.457  0.4519 -0.6626 -2.7353
  592MOL0     H78090   0.154   3.385   9.325  0.7857  0.5712  0.4674
  592MOL0     H78091  -0.043   3.486   9.487 -2.7900 -1.0590 -1.7615
  592MOL0     H78092   0.003   3.350   9.590  2.1677 -1.1771 -0.5007
  592MOL0     H78093  -0.117   3.327   9.308 -3.7921 -0.4596  0.5185
  592MOL0     H78094  -0.056   3.189   9.391  1.4261  0.9046  0.2083
  592MOL0     H78095  -0.238   3.261   9.575  0.9691  0.0369  0.1767
  592MOL0     H78096  -0.289   3.206   9.412  1.1607  1.4656 -2.7738
  592MOL0     H78097  -0.300   3.491   9.656  0.0342  0.8080  0.2787
  592MOL0     H78098  -0.516   3.720   9.599  1.1901 -3.9953  1.4355
  592MOL0     H78099  -0.449   3.814   9.457 -1.0364 -2.9211 -1.1925
  592MOL0     H78100  -0.331   3.723   9.722  3.4061 -1.1037 -0.9695
  592MOL0     H78101  -0.364   3.900   9.670 -2.0651  1.1461 -3.9441
  592MOL0     H78102  -0.143   3.697   9.602  2.0453 -0.2626 -2.5083
  592MOL0     H78103  -0.177   3.822   9.480 -0.0029  1.9894  1.5704
  592MOL0     H78104  -0.131   3.892   9.770  2.6708 -0.0230  2.5301
  592MOL0     H78105  -0.084   3.985   9.619  1.1829 -1.0785 -1.8492
  592MOL0     H78106   0.161   3.950   9.470  0.5207  0.9709 -0.3228
  592MOL0     H78107   0.360   4.090   9.488  0.5091  3.2570  2.0438
  592MOL0     H78108   0.746   4.198   9.792 -3.2816  2.5580  2.9761
  592MOL0     H78109   0.925   4.354   9.817  0.5154  3.9221  0.2066
  592MOL0     H78110   1.103   4.523   9.812  2.1658  1.5814  2.3205
  592MOL0     H78111   0.950   4.579   9.892 -3.5141  0.0755 -3.1171
  592MOL0     H78112   0.993   4.795   9.871 -1.2717 -0.5892 -1.2593
  592MOL0     H78113   1.081   4.789   9.726 -0.1117  1.1770  0.1909
  592MOL0     H78114   1.233   4.849   9.884 -0.0723  0.8447 -2.5157
  592MOL0     H78115   1.264   4.677   9.841 -1.5597 -0.1336 -2.3445
  592MOL0     H78116   1.153   4.774  10.104  1.7965  1.8531 -1.8142
  592MOL0     H78117   1.172   4.602  10.074  1.8196  0.2173  2.8800
  592MOL0     H78118   1.344   4.639  10.191 -2.0259 -0.0155  0.2012
  592MOL0     H78119   1.377   4.803  10.142 -0.2406 -1.3111  0.9959
  592MOL0     H78120   1.468   4.720   9.928  1.1085  1.5039  0.9139
  592MOL0     H78121   1.453   4.544   9.988 -1.4596 -0.1730  1.2131
  592MOL0     H78122   1.674   4.640   9.998 -1.2749 -1.8767  0.0574
  592MOL0     H78123   1.640   4.776  10.080  2.7141 -0.2095  0.5925
  592MOL0     H78124   1.639   4.490  10.185 -0.0165  0.8445 -0.1752
  592MOL0     H78125   1.536   4.599  10.263  1.1930  1.6760  2.2681
  592MOL0     H78126   0.765   4.609   9.514  2.5117 -1.2736 -2.5543
  592MOL0     H78127   0.589   4.431   9.466 -0.1377 -2.1067 -1.1960
  592MOL0     H78128   0.323   4.085   9.911  2.6556  1.6373 -1.2798
  592MOL0     H78129   0.145   3.922   9.898  0.6997  0.8331  0.7365
  592MOL0     H78130   0.708   3.587   9.493  3.8836 -1.6281  1.5878
  592MOL0     H78131   0.941   3.594   9.430  0.4154  0.1501  1.6392
  592MOL0     H78132   1.340   4.080   9.207  1.7962 -1.3927 -2.8126
  592MOL0     H78133   1.574   4.078   9.243  0.7917 -0.2593 -0.4729
  592MOL0     H78134   1.886   3.888   9.489  0.5823  1.5476  0.8269
  592MOL0     H78135   1.760   3.765   9.505 -1.0783  0.4407  1.0954
  592MOL0     H78136   1.650   3.956   9.665  1.1214  1.6022  2.0121
  592MOL0     H78137   1.711   3.804   9.702  0.2010 -0.5622 -1.0774
  592MOL0     H78138   1.953   3.904   9.713 -0.3058  0.0387 -0.0991
  592MOL0     H78139   1.851   3.970   9.833  3.5646 -2.0445  1.4514
  592MOL0     H78140   1.989   4.134   9.706 -0.7387 -1.3981  0.5440
  592MOL0     H78141   1.893   4.120   9.566 -1.4520 -0.6027  0.0489
  592MOL0     H78142   1.708   4.366   9.864 -0.5023  0.7189 -0.9028
  592MOL0     H78143   1.545   3.744   9.512 -0.2025  0.6899  1.4367
  592MOL0     H78144   1.320   3.731   9.474  1.3422 -0.0426  1.9959
  593MOL0     O78145   1.878   2.059   1.751  0.1517 -0.4464  0.8186
  593MOL0     C78146   1.976   2.096   1.817  0.2546  0.0982 -0.5466
  593MOL0     O78147   1.996   2.082   1.955 -0.2547 -0.8409  0.4818
  593MOL0     C78148   1.891   2.052   2.031  0.3999  0.5690  0.7163
  593MOL0     C78149   1.851   1.918   2.028  0.3231  0.3197 -0.2741
  593MOL0     C78150   1.748   1.867   2.104 -0.5266 -0.1931  0.3324
  593MOL0     C78151   1.687   1.948   2.202 -0.6253  0.1373 -0.3076
  593MOL0     O78152   1.572   1.908   2.260 -0.0252 -0.0527 -0.1129
  593MOL0     C78153   1.555   1.777   2.296  0.4030  0.7077  0.3124
  593MOL0     C78154   1.458   1.768   2.411 -0.0160  0.1390 -1.0299
  593MOL0     C78155   1.490   1.861   2.536  0.1150  0.2125  0.8196
  593MOL0     C78156   1.360   1.888   2.596  0.2274 -0.2518  0.0703
  593MOL0     C78157   1.371   1.998   2.704 -1.2975  0.1059 -0.6717
  593MOL0     C78158   1.232   2.044   2.743 -0.0799 -0.2726 -0.1961
  593MOL0     C78159   1.254   2.164   2.831 -0.5177 -0.0597  0.0046
  593MOL0     C78160   1.123   2.218   2.899  0.1981 -0.4604 -0.8611
  593MOL0     N78161   1.139   2.351   2.968  0.5801 -0.4706 -0.7785
  593MOL0     C78162   1.050   2.455   2.964  0.7140  0.1095 -0.6655
  593MOL0     C78163   1.107   2.553   3.038 -0.3586 -0.1458 -0.7331
  593MOL0     C78164   1.064   2.695   3.067 -0.1555  0.9140 -0.6147
  593MOL0     C78165   0.938   2.694   3.164 -0.2269  0.1210  0.6220
  593MOL0     C78166   0.933   2.824   3.229 -0.4889 -0.6490 -0.3523
  593MOL0     C78167   0.808   2.813   3.309  0.1935 -0.1517 -0.1989
  593MOL0     O78168   0.835   2.878   3.438 -1.0663  0.1241 -0.5940
  593MOL0     C78169   0.723   2.908   3.515  0.5752  0.6598  0.4726
  593MOL0     C78170   0.590   2.893   3.475 -0.1916 -0.0533  0.5688
  593MOL0     C78171   0.484   2.941   3.560 -0.2313 -0.3059  0.2357
  593MOL0     C78172   0.512   2.998   3.682  1.0841  0.4824 -0.3037
  593MOL0     C78173   0.402   3.054   3.762  1.1410 -0.4403 -0.2733
  593MOL0     O78174   0.429   3.108   3.881 -0.9307 -0.4498 -0.7074
  593MOL0     C78175   0.347   3.193   3.947  0.2400  0.9426  0.5787
  593MOL0     C78176   0.302   3.314   3.887 -0.1712 -0.2683 -0.2402
  593MOL0     C78177   0.220   3.397   3.958 -0.4456 -1.1425  0.3944
  593MOL0     C78178   0.176   3.358   4.087 -0.2040 -0.0841  0.2466
  593MOL0     O78179   0.083   3.440   4.149  0.0636 -0.3320 -0.0539
  593MOL0     C78180  -0.052   3.380   4.168  0.4765 -0.3491 -0.1756
  593MOL0     C78181  -0.123   3.324   4.039 -0.5451  0.2655  0.2493
  593MOL0     C78182  -0.146   3.419   3.917  0.1367 -0.2131 -0.4365
  593MOL0     C78183  -0.203   3.559   3.940 -0.8769  0.8994  0.6145
  593MOL0     C78184  -0.356   3.555   3.973 -0.3098  1.2804  0.7297
  593MOL0     C78185  -0.416   3.698   3.981  0.3550  0.4007  0.8291
  593MOL0     C78186  -0.364   3.778   4.087 -0.7692 -1.0660 -1.0365
  593MOL0     C78187  -0.392   3.930   4.088 -0.3496 -0.5426 -0.7911
  593MOL0    Cl78188  -0.565   3.971   4.101  0.3717  0.4384 -0.0111
  593MOL0     C78189   0.228   3.246   4.152 -0.5588 -0.8267  0.5484
  593MOL0     C78190   0.322   3.169   4.080  1.0140 -0.3069 -0.5160
  593MOL0     O78191   0.286   3.058   3.712 -0.4424 -0.1775 -0.8334
  593MOL0     C78192   0.644   3.015   3.720  0.1559  0.3535 -0.5507
  593MOL0     C78193   0.745   2.962   3.643  0.2632 -0.6476 -0.5061
  593MOL0     N78194   1.232   2.509   3.081  0.6172  0.1925  0.3652
  593MOL0     N78195   1.247   2.387   3.045  0.8960 -0.3261 -0.3993
  593MOL0     C78196   1.723   2.083   2.209  0.2104  0.0887 -0.4027
  593MOL0     C78197   1.822   2.135   2.123  0.1103 -0.3068  0.8651
  593MOL0     C78198   2.093   2.134   1.731 -0.1230  0.1242 -0.3144
  593MOL0     C78199   2.090   2.117   1.589 -0.2042 -0.6168  0.1365
  593MOL0     C78200   2.194   2.152   1.501 -0.4047  0.1430  0.6084
  593MOL0     C78201   2.312   2.199   1.559  0.2593  0.4406  0.2023
  593MOL0     O78202   2.418   2.223   1.473 -0.5749 -0.3576  0.5932
  593MOL0     C78203   2.531   2.286   1.526 -0.7477 -0.1920 -0.4205
  593MOL0     C78204   2.634   2.316   1.421  0.6471 -0.7466 -1.0383
  593MOL0     C78205   2.578   2.437   1.331  0.5105  1.5767 -0.4972
  593MOL0     C78206   2.497   2.376   1.211  0.1003 -0.0565  0.2773
  593MOL0     C78207   2.463   2.484   1.114  0.0859  0.9991 -0.6178
  593MOL0     C78208   2.426   2.569   1.038 -0.0724 -0.3499 -0.3260
  593MOL0     C78209   2.316   2.220   1.694  0.6275 -0.0354 -0.7776
  593MOL0     C78210   2.213   2.186   1.780  0.5359  0.9270 -0.3214
  593MOL0     H78211   1.881   1.849   1.949  0.1083 -2.5885  2.0302
  593MOL0     H78212   1.721   1.762   2.093 -0.7310 -0.1893  0.7749
  593MOL0     H78213   1.650   1.730   2.324  0.6471  1.7495  1.3081
  593MOL0     H78214   1.515   1.715   2.215  0.0219  0.4060  0.7286
  593MOL0     H78215   1.447   1.666   2.448 -2.1158  1.3078  1.9673
  593MOL0     H78216   1.358   1.796   2.377 -0.5467 -0.7394 -0.2386
  593MOL0     H78217   1.527   1.960   2.511 -1.6315  0.2056 -2.3660
  593MOL0     H78218   1.558   1.802   2.597  1.6684 -2.4222 -3.0228
  593MOL0     H78219   1.289   1.927   2.523  0.8245 -0.3443 -0.5745
  593MOL0     H78220   1.317   1.802   2.649 -1.7765  1.1617  0.8408
  593MOL0     H78221   1.423   2.086   2.665 -0.7302 -0.1110 -0.4143
  593MOL0     H78222   1.420   1.956   2.792 -2.3245 -0.4758 -0.3569
  593MOL0     H78223   1.181   1.959   2.790 -0.1913 -1.2912 -2.0580
  593MOL0     H78224   1.176   2.074   2.654 -2.0596  0.1682  1.1343
  593MOL0     H78225   1.327   2.147   2.911  0.7934  2.1354 -0.6493
  593MOL0     H78226   1.286   2.244   2.764 -1.6441 -1.6836 -2.5876
  593MOL0     H78227   1.093   2.143   2.972  3.6152 -1.3586 -0.1742
  593MOL0     H78228   1.036   2.225   2.834 -1.7007  0.4165  1.5894
  593MOL0     H78229   0.957   2.456   2.908  0.7496 -0.3468 -0.7293
  593MOL0     H78230   1.050   2.742   2.969  2.2756  1.7785 -0.6008
  593MOL0     H78231   1.149   2.749   3.108  1.2449 -0.6746 -1.3121
  593MOL0     H78232   0.957   2.621   3.243 -0.8759 -1.0663 -0.2892
  593MOL0     H78233   0.848   2.667   3.107  0.0066  2.0073 -0.7585
  593MOL0     H78234   1.025   2.839   3.286 -1.6165  0.7671  1.1939
  593MOL0     H78235   0.915   2.904   3.157  2.3909 -0.5949 -1.1519
  593MOL0     H78236   0.790   2.706   3.327  0.0088 -0.3788 -1.5839
  593MOL0     H78237   0.732   2.861   3.247  1.8383  2.5002 -0.3192
  593MOL0     H78238   0.566   2.849   3.379 -1.8900  0.3034  0.8006
  593MOL0     H78239   0.386   2.921   3.520 -2.1681  4.2501  2.0706
  593MOL0     H78240   0.315   3.323   3.780 -1.9337  0.1181 -0.4499
  593MOL0     H78241   0.187   3.486   3.906  0.0994 -1.4826 -0.5614
  593MOL0     H78242  -0.122   3.455   4.207 -1.3155 -2.6758  1.3650
  593MOL0     H78243  -0.039   3.306   4.247 -1.2646  1.2580  1.7374
  593MOL0     H78244  -0.224   3.290   4.065  0.3273 -1.0396  2.1338
  593MOL0     H78245  -0.059   3.241   4.005  0.0213 -0.1800  2.2768
  593MOL0     H78246  -0.208   3.368   3.842  0.4423 -0.4087 -0.5579
  593MOL0     H78247  -0.046   3.442   3.880  1.4717 -2.0387  1.7754
  593MOL0     H78248  -0.140   3.604   4.018  2.5454 -1.1057 -0.8271
  593MOL0     H78249  -0.185   3.619   3.851  2.3904  1.4366  1.5045
  593MOL0     H78250  -0.378   3.501   4.066  0.5054  0.2711  0.3455
  593MOL0     H78251  -0.399   3.496   3.892 -0.4339  1.4765  0.6504
  593MOL0     H78252  -0.524   3.700   3.999  0.1954  1.3281 -0.1513
  593MOL0     H78253  -0.395   3.744   3.884 -0.0154 -0.2803  0.4201
  593MOL0     H78254  -0.392   3.729   4.181 -0.3637  1.9884  0.8335
  593MOL0     H78255  -0.255   3.770   4.089 -0.6853 -1.0827  2.8030
  593MOL0     H78256  -0.337   3.979   4.007  1.1908 -0.5355  0.2246
  593MOL0     H78257  -0.343   3.970   4.177 -0.2479 -0.3041 -0.9551
  593MOL0     H78258   0.207   3.235   4.258 -1.9142  2.4272  0.7346
  593MOL0     H78259   0.344   3.084   4.145 -2.3476 -0.1968  1.0085
  593MOL0     H78260   0.666   3.064   3.814  3.3240  1.6219 -1.8042
  593MOL0     H78261   0.844   2.972   3.685 -0.4546 -0.5892  1.2388
  593MOL0     H78262   1.673   2.139   2.289 -0.0884 -0.9771  0.1707
  593MOL0     H78263   1.840   2.241   2.105  0.7669 -0.8092 -1.8354
  593MOL0     H78264   1.993   2.093   1.546 -1.2760  1.4269  1.2523
  593MOL0     H78265   2.180   2.149   1.393 -1.6407 -1.0863  0.7721
  593MOL0     H78266   2.575   2.217   1.599 -1.6755  0.7068  1.0683
  593MOL0     H78267   2.488   2.374   1.576 -2.4593 -1.7000  0.9505
  593MOL0     H78268   2.733   2.333   1.464  1.5355 -1.1790 -2.7922
  593MOL0     H78269   2.661   2.227   1.363  4.2169 -2.4442  2.6821
  593MOL0     H78270   2.671   2.488   1.305  2.1988 -0.3180  1.3888
  593MOL0     H78271   2.516   2.505   1.390  1.0658  2.1115 -0.5158
  593MOL0     H78272   2.551   2.292   1.166  0.7696 -0.0304  1.0138
  593MOL0     H78273   2.404   2.325   1.237 -2.0107  4.2184  2.0973
  593MOL0     H78274   2.394   2.648   0.973 -0.5075 -0.8011 -0.6655
  593MOL0     H78275   2.403   2.260   1.746 -0.1499  0.1314  0.4417
  593MOL0     H78276   2.229   2.204   1.886 -1.8709 -0.8093  0.4327
  594MOL0     O78277  10.869   7.490   9.422  0.2440 -0.4380  0.0793
  594MOL0     C78278  10.816   7.400   9.362 -0.1112 -0.0196 -0.2423
  594MOL0     O78279  10.868   7.330   9.259  0.3321 -0.2115  0.8571
  594MOL0     C78280  10.960   7.391   9.182 -0.5943 -0.0629  0.6232
  594MOL0     C78281  10.923   7.460   9.062  0.9777  0.5168 -0.5720
  594MOL0     C78282  11.018   7.526   8.986  1.0180  0.7430  0.7531
  594MOL0     C78283  11.157   7.520   9.011 -0.2605  0.2205  0.7159
  594MOL0     O78284  11.247   7.592   8.936  1.1396  0.0529  1.0123
  594MOL0     C78285  11.197   7.662   8.824 -0.1121 -0.5268  0.0915
  594MOL0     C78286  11.292   7.769   8.786 -0.2910  0.7238  1.1496
  594MOL0     C78287  11.305   7.793   8.636  0.4691 -0.2668 -0.0129
  594MOL0     C78288  11.411   7.901   8.605  0.0873 -0.1176 -0.6687
  594MOL0     C78289  11.440   7.931   8.464 -0.1718  0.3465  0.0823
  594MOL0     C78290  11.565   8.020   8.455  0.0048  0.1095  0.5015
  594MOL0     C78291  11.576   8.073   8.316 -0.6821  0.9693 -0.8820
  594MOL0     C78292  11.611   7.962   8.217  0.1685  0.2716 -0.6565
  594MOL0     N78293  11.492   7.908   8.146  0.3261  0.0918 -0.3693
  594MOL0     C78294  11.450   7.775   8.145 -0.2847 -0.1713  0.7923
  594MOL0     C78295  11.361   7.774   8.041  1.1810 -0.4728 -0.2784
  594MOL0     C78296  11.291   7.647   8.005 -1.0224 -0.2477  1.4516
  594MOL0     C78297  11.143   7.652   8.033  0.5060  0.0948 -0.2251
  594MOL0     C78298  11.085   7.510   8.021 -0.2496  0.1116 -0.0200
  594MOL0     C78299  10.936   7.525   8.029  0.7816  0.6849 -0.7860
  594MOL0     O78300  10.877   7.397   8.042  0.4064 -0.5704 -0.2713
  594MOL0     C78301  10.736   7.397   8.045  0.4001 -0.0325  0.9960
  594MOL0     C78302  10.654   7.510   8.020  0.3373  0.0428  0.2950
  594MOL0     C78303  10.514   7.489   8.011 -0.6331 -1.1757  0.5196
  594MOL0     C78304  10.454   7.373   8.046  0.5821  0.5374 -0.3567
  594MOL0     C78305  10.316   7.349   8.032 -0.0547  0.2747  0.6985
  594MOL0     O78306  10.236   7.438   7.972  0.1404  0.0297  0.2414
  594MOL0     C78307  10.103   7.401   7.933 -0.1828 -1.0020 -0.3180
  594MOL0     C78308  10.073   7.329   7.810 -0.7396 -0.3770  0.7502
  594MOL0     C78309   9.940   7.295   7.788 -0.8330  0.6574  0.1570
  594MOL0     C78310   9.838   7.317   7.885 -0.2274 -0.3562 -1.0865
  594MOL0     O78311   9.701   7.297   7.881 -0.1884  0.2961 -0.3699
  594MOL0     C78312   9.654   7.199   7.794 -0.2551 -0.7439 -0.3337
  594MOL0     C78313   9.508   7.190   7.794 -0.0188 -0.1620 -0.9286
  594MOL0     C78314   9.457   7.064   7.725 -0.2275  0.3679  0.2476
  594MOL0     C78315   9.307   7.064   7.730 -0.5110  0.1272 -0.2190
  594MOL0     C78316   9.260   6.955   7.632  0.9266 -0.4850  0.3251
  594MOL0     C78317   9.097   6.951   7.629  0.1631 -0.6955  0.5224
  594MOL0     C78318   9.037   7.078   7.585  0.2636 -0.0528 -0.2560
  594MOL0     C78319   8.901   7.058   7.525  0.0218  0.3894 -0.0827
  594MOL0    Cl78320   8.784   7.022   7.646  0.2191 -0.4458 -0.0078
  594MOL0     C78321   9.877   7.393   7.998  0.1205  0.0767 -0.0409
  594MOL0     C78322  10.003   7.426   8.030  0.3439 -0.3169  0.7790
  594MOL0     O78323  10.274   7.253   8.091 -0.7018 -0.2792 -0.5834
  594MOL0     C78324  10.536   7.265   8.081  0.3085  0.4667  0.0258
  594MOL0     C78325  10.675   7.270   8.076 -0.3246 -1.4706  0.3543
  594MOL0     N78326  11.352   7.896   7.984 -0.3097 -0.7171  0.3589
  594MOL0     N78327  11.430   7.975   8.045 -0.0901  0.3588 -0.7454
  594MOL0     C78328  11.200   7.457   9.128  0.7460  1.1765 -0.3894
  594MOL0     C78329  11.102   7.387   9.205  0.6004 -0.1589 -0.3866
  594MOL0     C78330  10.693   7.343   9.425 -0.5566 -0.2513 -0.3670
  594MOL0     C78331  10.626   7.237   9.363  0.0144  0.0032  0.3948
  594MOL0     C78332  10.511   7.186   9.412 -0.1321  0.0047 -0.5999
  594MOL0     C78333  10.457   7.241   9.534 -0.1958 -0.0450  0.6002
  594MOL0     O78334  10.340   7.181   9.579 -0.2131 -0.4137 -0.1761
  594MOL0     C78335  10.272   7.235   9.701  0.2914 -0.3529  0.0990
  594MOL0     C78336  10.327   7.185   9.841  0.3437 -0.4899  0.3281
  594MOL0     C78337  10.322   7.029   9.850 -0.3621  0.1577 -0.5686
  594MOL0     C78338  10.405   6.940   9.754  0.0614 -0.0938  0.6793
  594MOL0     C78339  10.376   6.801   9.784  0.5759  0.7692  0.0352
  594MOL0     C78340  10.353   6.677   9.803  0.4957 -0.2383  0.1591
  594MOL0     C78341  10.532   7.340   9.605  0.0565 -0.2504  0.8539
  594MOL0     C78342  10.637   7.396   9.538  0.0229  0.2210 -0.4533
  594MOL0     H78343  10.820   7.460   9.027  0.7790 -2.7808 -0.2919
  594MOL0     H78344  10.970   7.575   8.902  1.0519  2.9799  1.9885
  594MOL0     H78345  11.105   7.715   8.850  0.6266  2.7980 -3.1267
  594MOL0     H78346  11.172   7.602   8.736 -1.1160 -2.1559  1.4354
  594MOL0     H78347  11.393   7.744   8.822 -1.6979 -2.9722  3.0056
  594MOL0     H78348  11.272   7.863   8.839 -0.5427  2.6372 -2.0299
  594MOL0     H78349  11.207   7.814   8.592 -1.2330 -2.6410  2.2791
  594MOL0     H78350  11.332   7.699   8.586  0.9532  0.4099 -1.0463
  594MOL0     H78351  11.383   7.994   8.655  1.5504  0.3734 -0.6995
  594MOL0     H78352  11.507   7.876   8.652 -0.6498  0.6068  1.3469
  594MOL0     H78353  11.353   7.973   8.413  0.7391 -0.5413 -2.3740
  594MOL0     H78354  11.469   7.832   8.427  0.0566  0.2001  0.6566
  594MOL0     H78355  11.660   7.966   8.464  0.1253 -0.0658 -1.3323
  594MOL0     H78356  11.553   8.105   8.523 -1.7340  1.4356 -1.3181
  594MOL0     H78357  11.481   8.124   8.301 -4.3817 -4.5830  0.3417
  594MOL0     H78358  11.664   8.137   8.325  0.8703 -1.2867  1.4089
  594MOL0     H78359  11.663   7.877   8.260  2.0583  0.9849 -1.3991
  594MOL0     H78360  11.674   8.011   8.142 -0.5025 -0.9557 -2.0632
  594MOL0     H78361  11.488   7.699   8.212 -1.0778 -0.0540  1.3964
  594MOL0     H78362  11.338   7.559   8.049  1.1091 -0.6252 -1.3491
  594MOL0     H78363  11.315   7.642   7.898  3.1719  3.0505  1.9455
  594MOL0     H78364  11.092   7.719   7.963  1.5504  0.5087 -0.6081
  594MOL0     H78365  11.113   7.689   8.132  1.5136  0.1914  0.0642
  594MOL0     H78366  11.107   7.456   7.929 -1.2864 -0.3533 -0.0186
  594MOL0     H78367  11.127   7.443   8.097  1.3345  0.2665 -0.7246
  594MOL0     H78368  10.901   7.582   7.943 -0.9612 -2.7078 -2.5443
  594MOL0     H78369  10.912   7.579   8.120 -1.3570 -0.6627 -0.4728
  594MOL0     H78370  10.699   7.605   7.993 -1.7562  0.5922 -1.4843
  594MOL0     H78371  10.454   7.572   7.974 -0.1620 -1.2072 -0.3405
  594MOL0     H78372  10.153   7.313   7.739  0.4824  1.2711  1.6991
  594MOL0     H78373   9.914   7.229   7.706  0.3224 -1.9755  1.7588
  594MOL0     H78374   9.706   7.110   7.829 -0.1285  0.2215  2.0957
  594MOL0     H78375   9.686   7.218   7.691 -0.3391 -0.8309 -0.3765
  594MOL0     H78376   9.473   7.277   7.739  0.1432 -1.3439 -2.9921
  594MOL0     H78377   9.484   7.192   7.901  2.7327 -2.4022 -0.1453
  594MOL0     H78378   9.497   6.987   7.792  0.1293  0.8741  0.6229
  594MOL0     H78379   9.494   7.054   7.623  0.8549 -2.1259  0.7973
  594MOL0     H78380   9.272   7.047   7.832 -0.5105 -1.4690 -0.4591
  594MOL0     H78381   9.268   7.161   7.700 -1.4490  0.2267  1.2439
  594MOL0     H78382   9.304   6.858   7.655  1.0282 -1.6841 -4.1136
  594MOL0     H78383   9.287   6.983   7.530 -0.2745  2.2954  0.6787
  594MOL0     H78384   9.056   6.927   7.728  0.2598 -1.5985  0.3453
  594MOL0     H78385   9.070   6.871   7.561  0.3939  0.9259 -1.5834
  594MOL0     H78386   9.030   7.144   7.672  2.7907 -0.6237  0.4650
  594MOL0     H78387   9.099   7.120   7.506  1.0055 -1.5977 -0.5280
  594MOL0     H78388   8.908   6.975   7.454  0.0790  0.0657  0.3038
  594MOL0     H78389   8.869   7.146   7.467  3.2328  0.7830 -1.4972
  594MOL0     H78390   9.795   7.403   8.069  0.2268 -4.3424  1.0071
  594MOL0     H78391  10.026   7.473   8.125  0.0843  0.9125  0.2419
  594MOL0     H78392  10.490   7.169   8.103 -1.0492  0.8350 -1.0319
  594MOL0     H78393  10.748   7.190   8.082  3.9513  1.7473 -2.5402
  594MOL0     H78394  11.302   7.453   9.164 -0.4138  3.4949  3.8371
  594MOL0     H78395  11.146   7.337   9.290  2.1185  1.2094 -0.3274
  594MOL0     H78396  10.659   7.210   9.263  3.1184  0.1497  1.2689
  594MOL0     H78397  10.454   7.109   9.361 -0.7140 -1.6111  2.2829
  594MOL0     H78398  10.170   7.197   9.689  0.4071 -0.3075 -1.2310
  594MOL0     H78399  10.279   7.344   9.691  2.6895 -0.5825 -1.6501
  594MOL0     H78400  10.431   7.219   9.855 -0.0750  1.2141 -0.4207
  594MOL0     H78401  10.284   7.246   9.922  2.8777  0.4741  1.0708
  594MOL0     H78402  10.214   7.012   9.845 -0.6182  1.9195 -2.1990
  594MOL0     H78403  10.363   7.004   9.948  3.0121 -0.0861 -1.9131
  594MOL0     H78404  10.356   6.966   9.660  0.4715 -1.7858 -0.0253
  594MOL0     H78405  10.509   6.975   9.757 -0.5801  2.1307 -0.3273
  594MOL0     H78406  10.321   6.577   9.824  1.9821 -0.9858 -0.9355
  594MOL0     H78407  10.497   7.374   9.702 -1.2645  2.4804 -0.4548
  594MOL0     H78408  10.694   7.473   9.589  0.9164 -0.8370  0.2064
  595MOL0     O78409  10.293   6.109  11.150 -0.0930  0.4317 -0.0253
  595MOL0     C78410  10.373   6.057  11.225  0.2077  0.1778 -0.0269
  595MOL0     O78411  10.343   6.009  11.352  0.6476  0.0466  0.1160
  595MOL0     C78412  10.210   5.990  11.389 -0.6994  0.0219 -0.0770
  595MOL0     C78413  10.180   5.877  11.467  0.4555  0.3420  0.3758
  595MOL0     C78414  10.044   5.859  11.506 -0.5625 -0.4247 -0.1666
  595MOL0     C78415   9.941   5.945  11.470  0.3531  0.0690 -0.2888
  595MOL0     O78416   9.804   5.937  11.489 -0.7056  0.0425  0.1123
  595MOL0     C78417   9.760   5.832  11.578 -0.9952  0.1451  0.3416
  595MOL0     C78418   9.607   5.810  11.575  0.0927 -0.3249 -0.5099
  595MOL0     C78419   9.574   5.713  11.688  0.4730  0.1954  1.1938
  595MOL0     C78420   9.441   5.643  11.658 -0.3699  0.4051 -0.8804
  595MOL0     C78421   9.395   5.542  11.757 -0.6306  0.7681 -0.5648
  595MOL0     C78422   9.267   5.475  11.707 -0.1467 -0.5212  0.2347
  595MOL0     C78423   9.187   5.399  11.811 -0.5988  0.6324  0.3005
  595MOL0     C78424   9.052   5.336  11.765  0.2803 -0.6909  0.2394
  595MOL0     N78425   8.959   5.321  11.878 -0.6362  0.2558  0.0218
  595MOL0     C78426   8.992   5.246  11.983  0.3662 -0.0885 -0.8481
  595MOL0     C78427   8.882   5.251  12.062  0.8015  0.4086 -0.7280
  595MOL0     C78428   8.871   5.174  12.192 -0.7941  0.1005  0.0088
  595MOL0     C78429   8.736   5.103  12.211  0.0928  0.0090 -0.0579
  595MOL0     C78430   8.728   5.012  12.337  1.2275  0.4386  0.1410
  595MOL0     C78431   8.575   4.996  12.377  0.2021 -0.3567 -0.9460
  595MOL0     O78432   8.573   4.927  12.503 -0.7833  0.2871 -0.4962
  595MOL0     C78433   8.455   4.886  12.559  0.7676 -0.2753 -0.1185
  595MOL0     C78434   8.329   4.924  12.516 -0.1464  0.1330 -0.6875
  595MOL0     C78435   8.214   4.879  12.587  0.3460 -0.4648  0.2227
  595MOL0     C78436   8.235   4.806  12.705  0.3299  0.5104  0.6019
  595MOL0     C78437   8.113   4.765  12.777  0.9155 -0.2086  0.2976
  595MOL0     O78438   8.002   4.840  12.761 -0.0875  0.5722 -0.0574
  595MOL0     C78439   7.891   4.800  12.831  0.5063 -0.0132 -0.6470
  595MOL0     C78440   7.783   4.740  12.768  0.9799  0.9895 -0.2548
  595MOL0     C78441   7.663   4.736  12.837  0.2175 -0.5332 -0.6769
  595MOL0     C78442   7.645   4.780  12.968 -0.5032  0.1529 -0.7775
  595MOL0     O78443   7.526   4.794  13.036  0.1839 -0.3783  0.3710
  595MOL0     C78444   7.398   4.758  12.971 -0.0088  0.3848 -0.3521
  595MOL0     C78445   7.273   4.759  13.054 -0.3449  0.5204 -0.6024
  595MOL0     C78446   7.305   4.826  13.195  0.6338  0.8945 -0.4814
  595MOL0     C78447   7.177   4.843  13.273  0.2428 -0.3693  0.1709
  595MOL0     C78448   7.087   4.958  13.211 -0.6033  0.6940  0.0619
  595MOL0     C78449   6.954   4.988  13.279 -0.4012  0.3157  0.2453
  595MOL0     C78450   6.866   4.875  13.288 -0.3570 -0.3867  0.1811
  595MOL0     C78451   6.733   4.922  13.349 -0.5059  0.0292 -0.3294
  595MOL0    Cl78452   6.731   5.040  13.486 -0.2383 -0.1272  0.4040
  595MOL0     C78453   7.756   4.832  13.035 -0.7935  0.5998  0.1601
  595MOL0     C78454   7.871   4.854  12.963  0.5746  0.6742  0.4588
  595MOL0     O78455   8.120   4.660  12.838 -0.2616  0.4247  0.3421
  595MOL0     C78456   8.364   4.774  12.748 -0.0678  0.1263  1.0306
  595MOL0     C78457   8.474   4.809  12.677  0.2278 -0.1942  0.5095
  595MOL0     N78458   8.780   5.323  11.996  0.2479 -0.3976  0.5517
  595MOL0     N78459   8.830   5.369  11.880 -0.4875  0.0043 -0.6587
  595MOL0     C78460   9.976   6.066  11.399  0.2541  0.1506  0.0881
  595MOL0     C78461  10.108   6.083  11.356 -0.0588 -0.1782 -0.2303
  595MOL0     C78462  10.509   6.083  11.170 -0.5299 -0.2042 -0.5112
  595MOL0     C78463  10.539   6.094  11.032 -0.1979  0.1411 -0.0485
  595MOL0     C78464  10.678   6.103  10.990 -0.0821  0.5484  0.2250
  595MOL0     C78465  10.783   6.092  11.083 -0.3072  0.5992  0.2227
  595MOL0     O78466  10.908   6.057  11.033  0.3980 -1.4804  0.3852
  595MOL0     C78467  10.937   5.921  11.063  0.9428 -0.9338  0.3091
  595MOL0     C78468  11.034   5.871  10.965  0.4074  0.0501  0.0214
  595MOL0     C78469  11.171   5.929  10.973  0.1204 -0.0381  0.6642
  595MOL0     C78470  11.264   5.848  10.894 -0.9584 -0.1399 -0.5522
  595MOL0     C78471  11.348   5.755  10.976  0.5059 -0.0165  0.0208
  595MOL0     C78472  11.395   5.671  11.038 -0.1981  0.5639  0.4519
  595MOL0     C78473  10.755   6.088  11.213  0.0302 -0.4417 -1.0390
  595MOL0     C78474  10.618   6.088  11.255 -0.6876 -0.1722 -0.0211
  595MOL0     H78475  10.265   5.814  11.490  1.5379  0.5054 -2.7338
  595MOL0     H78476  10.037   5.762  11.554  0.0714 -0.6825 -0.5865
  595MOL0     H78477   9.803   5.847  11.677  0.9559  3.3698 -0.8499
  595MOL0     H78478   9.805   5.743  11.531 -0.0662  1.5995 -1.6993
  595MOL0     H78479   9.577   5.770  11.478 -0.3502 -1.3385  0.0262
  595MOL0     H78480   9.564   5.910  11.591  2.8619  1.1241 -1.3699
  595MOL0     H78481   9.571   5.765  11.784 -1.8188  2.5240 -0.0030
  595MOL0     H78482   9.647   5.632  11.679 -0.8157 -1.0021  1.1275
  595MOL0     H78483   9.362   5.718  11.652 -0.6865  0.1301 -0.2176
  595MOL0     H78484   9.442   5.592  11.562 -1.0436 -0.1898 -0.5820
  595MOL0     H78485   9.378   5.586  11.856  1.0888  0.3630 -0.0574
  595MOL0     H78486   9.472   5.467  11.775 -1.6481 -0.0980  0.2989
  595MOL0     H78487   9.281   5.415  11.616 -3.9418  2.2689 -2.5167
  595MOL0     H78488   9.204   5.555  11.666  0.6620  1.2928  2.3553
  595MOL0     H78489   9.256   5.317  11.835  0.4408  0.9733 -1.3426
  595MOL0     H78490   9.171   5.450  11.906 -2.0865  0.4739  0.1694
  595MOL0     H78491   9.067   5.238  11.720  0.0167  0.0018 -1.4344
  595MOL0     H78492   9.009   5.394  11.683 -0.5033 -2.4169 -0.6178
  595MOL0     H78493   9.088   5.201  12.003  1.7987  2.9875 -0.2585
  595MOL0     H78494   8.880   5.238  12.280 -2.4688  1.2705 -0.6271
  595MOL0     H78495   8.954   5.104  12.207 -0.1593  1.3224  2.8673
  595MOL0     H78496   8.702   5.045  12.125  1.8217  2.4590 -2.5427
  595MOL0     H78497   8.656   5.177  12.206 -1.7319 -1.8735 -4.6514
  595MOL0     H78498   8.786   4.922  12.313  0.7128 -0.1116  0.9145
  595MOL0     H78499   8.768   5.068  12.422 -0.3946 -0.1571  1.3526
  595MOL0     H78500   8.508   4.947  12.306 -2.2045  0.2004  0.7916
  595MOL0     H78501   8.534   5.096  12.391 -0.3752 -0.3458 -2.5428
  595MOL0     H78502   8.304   4.989  12.433 -2.2265 -0.5410 -0.6431
  595MOL0     H78503   8.118   4.890  12.536  1.7233 -1.6880 -2.9298
  595MOL0     H78504   7.794   4.690  12.673  0.3197 -0.3769  0.3627
  595MOL0     H78505   7.577   4.691  12.788  1.6495 -2.7210 -1.3310
  595MOL0     H78506   7.395   4.661  12.920 -0.9249  0.6938 -0.9164
  595MOL0     H78507   7.389   4.832  12.890  2.3499 -0.3125 -1.3400
  595MOL0     H78508   7.242   4.656  13.075 -0.9533  0.8989  0.4860
  595MOL0     H78509   7.193   4.813  13.002 -0.6389 -0.4656 -1.1980
  595MOL0     H78510   7.343   4.927  13.180  4.2489 -0.5247 -2.1210
  595MOL0     H78511   7.377   4.767  13.252  0.7011  1.1523 -0.2998
  595MOL0     H78512   7.123   4.748  13.267  0.1949 -0.3160 -0.2107
  595MOL0     H78513   7.207   4.864  13.376 -0.5487  2.4937 -0.1019
  595MOL0     H78514   7.080   4.951  13.102  0.6942 -0.7041  0.0278
  595MOL0     H78515   7.148   5.048  13.225 -0.9444  0.7907  0.9388
  595MOL0     H78516   6.912   5.070  13.221  3.2335  0.3929 -2.6510
  595MOL0     H78517   6.971   5.030  13.378 -2.4174  0.1396  0.7021
  595MOL0     H78518   6.849   4.819  13.196 -1.4292 -0.8657  0.6553
  595MOL0     H78519   6.919   4.810  13.358  1.5031  0.1794 -0.6371
  595MOL0     H78520   6.678   4.836  13.387  1.2410  0.2980  3.1842
  595MOL0     H78521   6.676   4.980  13.276  0.9917 -0.4151 -1.9119
  595MOL0     H78522   7.739   4.864  13.137  1.0944  1.0844  0.3658
  595MOL0     H78523   7.956   4.900  13.014  2.3196 -0.6904 -1.0636
  595MOL0     H78524   8.365   4.718  12.841 -0.9193 -0.9013  0.4494
  595MOL0     H78525   8.573   4.789  12.718 -0.3056  0.7587  2.3510
  595MOL0     H78526   9.899   6.140  11.379 -0.2600 -0.1843  0.8010
  595MOL0     H78527  10.138   6.174  11.303  1.1851 -0.1589  0.4690
  595MOL0     H78528  10.456   6.106  10.963  1.3615  3.5565 -1.5450
  595MOL0     H78529  10.685   6.122  10.884 -1.5551  3.8064  0.6029
  595MOL0     H78530  10.846   5.861  11.049  0.5232 -0.4045  0.7323
  595MOL0     H78531  10.968   5.924  11.168  1.0012  0.3697  0.2734
  595MOL0     H78532  11.038   5.767  10.996 -0.0068  0.2533  0.7773
  595MOL0     H78533  10.983   5.883  10.869 -4.0457  0.5254  2.1502
  595MOL0     H78534  11.192   5.918  11.080 -1.1934  1.5124  1.1283
  595MOL0     H78535  11.163   6.033  10.938 -2.1454 -0.0303  1.0452
  595MOL0     H78536  11.207   5.785  10.826 -0.1332 -0.5577 -0.8725
  595MOL0     H78537  11.318   5.914  10.825 -0.6368 -0.9606 -1.1100
  595MOL0     H78538  11.427   5.593  11.105  0.1861  0.7702  0.5122
  595MOL0     H78539  10.825   6.093  11.296  1.1762  1.3509 -2.0599
  595MOL0     H78540  10.598   6.094  11.361  1.7626 -0.9959  0.5593
  596MOL0     O78541   4.618  10.543   6.356 -0.4633 -0.6179 -0.3397
  596MOL0     C78542   4.701  10.538   6.267 -0.6078  0.6051  0.1337
  596MOL0     O78543   4.674  10.544   6.136 -0.5547  0.4572 -0.3004
  596MOL0     C78544   4.560  10.599   6.099 -0.2344 -0.2630  0.7454
  596MOL0     C78545   4.507  10.714   6.161 -0.0329 -0.3243 -0.6574
  596MOL0     C78546   4.385  10.764   6.115 -0.0061 -0.5974  0.8870
  596MOL0     C78547   4.313  10.704   6.011 -0.6451 -0.4811  0.8052
  596MOL0     O78548   4.187  10.729   5.972 -0.2578 -0.4958 -0.0836
  596MOL0     C78549   4.119  10.847   6.032 -0.5273 -0.1664  0.1954
  596MOL0     C78550   3.971  10.838   5.990 -0.7385  0.2594 -0.8123
  596MOL0     C78551   3.898  10.974   6.002 -1.5908  0.2799 -0.0998
  596MOL0     C78552   3.755  10.961   5.977 -0.0825 -1.1037 -0.3029
  596MOL0     C78553   3.689  11.091   5.930 -0.2651  0.4064  0.2439
  596MOL0     C78554   3.530  11.083   5.918 -0.8239  0.5429 -0.2347
  596MOL0     C78555   3.470  11.222   5.901  0.0599  0.5887  0.4021
  596MOL0     C78556   3.318  11.242   5.933  0.2600  0.3307 -0.1649
  596MOL0     N78557   3.224  11.157   5.860  0.4025  0.2933 -0.4872
  596MOL0     C78558   3.139  11.057   5.918 -0.9109 -0.6590 -0.2344
  596MOL0     C78559   3.078  11.009   5.807  0.1186 -0.1570 -0.6551
  596MOL0     C78560   2.975  10.901   5.806  0.7844 -0.1718  0.1914
  596MOL0     C78561   2.844  10.956   5.886  0.8925 -0.5730  0.4361
  596MOL0     C78562   2.750  10.846   5.926 -0.2851 -0.8103  0.4388
  596MOL0     C78563   2.638  10.893   6.016  0.1384 -0.1948 -0.0462
  596MOL0     O78564   2.540  10.781   6.018  0.2579  0.3154  0.3126
  596MOL0     C78565   2.410  10.814   6.026  0.6599  0.4439  0.4597
  596MOL0     C78566   2.365  10.921   6.109  0.0513  0.7923  0.2165
  596MOL0     C78567   2.229  10.944   6.123  0.2292 -0.4306  0.1217
  596MOL0     C78568   2.137  10.862   6.067  0.2057  0.0299  0.4165
  596MOL0     C78569   1.988  10.881   6.081  0.3420  0.0248  0.0795
  596MOL0     O78570   1.902  10.793   6.018 -0.8017 -0.4632 -0.3713
  596MOL0     C78571   1.767  10.803   6.053 -0.4531  1.5674 -0.0118
  596MOL0     C78572   1.676  10.906   6.016  0.4261 -0.2377  0.0234
  596MOL0     C78573   1.544  10.893   6.040  0.0548  0.0638 -0.1830
  596MOL0     C78574   1.490  10.793   6.115  0.0311  0.2200  0.1287
  596MOL0     O78575   1.358  10.772   6.136  0.1716 -0.7903  0.2130
  596MOL0     C78576   1.251  10.861   6.095 -0.1408 -0.3540  0.3497
  596MOL0     C78577   1.103  10.800   6.103 -0.3713  0.0692 -0.1469
  596MOL0     C78578   1.007  10.895   6.021 -1.3166  0.3408  0.2635
  596MOL0     C78579   0.874  10.831   6.014 -0.0344 -0.3749  0.4170
  596MOL0     C78580   0.793  10.889   5.904  1.0368  0.2174  0.2407
  596MOL0     C78581   0.647  10.844   5.902 -0.2530 -0.3304  0.1529
  596MOL0     C78582   0.596  10.845   5.758  0.7637 -0.5702 -0.0545
  596MOL0     C78583   0.454  10.789   5.762  0.1890 -0.0298 -0.1914
  596MOL0    Cl78584   0.349  10.806   5.618 -0.3398  0.2558  0.1322
  596MOL0     C78585   1.578  10.692   6.153  0.2649 -0.3940 -0.3543
  596MOL0     C78586   1.714  10.696   6.127  0.0813  0.1909  0.3822
  596MOL0     O78587   1.948  10.975   6.150 -0.1172  0.0210  0.2155
  596MOL0     C78588   2.180  10.748   5.999 -0.5084  0.5442  0.1604
  596MOL0     C78589   2.320  10.732   5.974  0.5999  0.7052  0.2824
  596MOL0     N78590   3.129  11.073   5.690 -0.0511 -0.4431  0.0504
  596MOL0     N78591   3.220  11.155   5.732 -0.2786  0.4816  0.2863
  596MOL0     C78592   4.375  10.586   5.953  0.7039 -0.3766 -0.4970
  596MOL0     C78593   4.500  10.544   5.985  0.3678 -0.1673 -0.3720
  596MOL0     C78594   4.840  10.530   6.312 -0.1349 -0.1682 -0.2896
  596MOL0     C78595   4.877  10.550   6.447 -0.9700  0.2435 -0.7530
  596MOL0     C78596   5.010  10.519   6.487  0.5181  0.6415 -0.1132
  596MOL0     C78597   5.108  10.479   6.404  0.1319  0.2887  0.0760
  596MOL0     O78598   5.231  10.443   6.451 -0.1861 -1.0025  0.3396
  596MOL0     C78599   5.331  10.392   6.363  0.8509  0.0549 -0.0827
  596MOL0     C78600   5.476  10.391   6.425  0.4417  0.0634 -0.1361
  596MOL0     C78601   5.564  10.284   6.357  0.0149 -0.3279  0.4280
  596MOL0     C78602   5.702  10.277   6.415  0.6858  1.4554  0.0620
  596MOL0     C78603   5.817  10.201   6.341 -0.0202  0.2412 -0.7251
  596MOL0     C78604   5.903  10.138   6.283  0.0842 -0.4593 -0.1205
  596MOL0     C78605   5.074  10.463   6.263  0.2600  0.3065 -0.8176
  596MOL0     C78606   4.937  10.489   6.219 -0.3046 -0.1797  0.0072
  596MOL0     H78607   4.550  10.757   6.251 -1.0544 -0.2385 -0.1957
  596MOL0     H78608   4.339  10.841   6.176 -1.6555 -1.2453  0.5025
  596MOL0     H78609   4.162  10.937   5.986  1.2631 -0.4561  1.2129
  596MOL0     H78610   4.116  10.857   6.141 -4.6658  0.8450  0.1733
  596MOL0     H78611   3.918  10.762   6.049 -0.4672  2.2019  2.1501
  596MOL0     H78612   3.973  10.799   5.888  0.8614 -0.2789 -0.5992
  596MOL0     H78613   3.933  11.056   5.938 -4.2763  0.5670 -1.3455
  596MOL0     H78614   3.908  11.011   6.105  0.4280  1.5023 -0.6639
  596MOL0     H78615   3.733  10.878   5.910 -2.7353 -2.0496  1.5752
  596MOL0     H78616   3.707  10.916   6.064 -1.0249 -1.4128 -0.9745
  596MOL0     H78617   3.735  11.129   5.838  0.2066  2.1293  1.1446
  596MOL0     H78618   3.727  11.153   6.011  0.6452  1.1623 -0.7221
  596MOL0     H78619   3.488  11.032   6.005  1.4807  0.4066  0.8692
  596MOL0     H78620   3.503  11.015   5.836  2.4410 -2.1360  0.6973
  596MOL0     H78621   3.529  11.281   5.972  2.1389 -2.8658  1.8251
  596MOL0     H78622   3.492  11.241   5.796  0.9044 -0.9337  0.2704
  596MOL0     H78623   3.284  11.346   5.925 -1.4935  0.1649  3.2292
  596MOL0     H78624   3.311  11.235   6.042  2.0854  1.0357  0.0279
  596MOL0     H78625   3.145  11.032   6.023  0.0057 -1.2188 -0.4081
  596MOL0     H78626   3.008  10.806   5.849 -0.9637  0.5965  3.5230
  596MOL0     H78627   2.957  10.882   5.700  2.1728 -0.3613 -0.0322
  596MOL0     H78628   2.791  11.042   5.843  0.2081 -0.5250  1.3408
  596MOL0     H78629   2.883  10.993   5.982 -3.9234 -0.5601  2.7315
  596MOL0     H78630   2.710  10.804   5.833 -1.1271  1.4209 -0.2738
  596MOL0     H78631   2.816  10.777   5.979  2.5240  1.0309 -0.4927
  596MOL0     H78632   2.581  10.983   5.989 -2.7840 -1.3988  1.6551
  596MOL0     H78633   2.682  10.914   6.115  2.3644  1.9481 -1.3605
  596MOL0     H78634   2.440  10.976   6.164  1.5374  0.2912 -1.2417
  596MOL0     H78635   2.200  11.019   6.196  2.3469  0.2632  0.3050
  596MOL0     H78636   1.716  10.985   5.954 -2.6887 -0.4366 -2.4531
  596MOL0     H78637   1.478  10.970   6.002 -1.4301 -0.2686  1.6142
  596MOL0     H78638   1.257  10.896   5.992 -2.6003 -0.3603  0.1470
  596MOL0     H78639   1.234  10.947   6.161 -1.0319 -0.3840  0.1692
  596MOL0     H78640   1.067  10.797   6.206 -3.2316  0.4292 -1.0333
  596MOL0     H78641   1.105  10.699   6.060  1.4999  0.5759 -1.4003
  596MOL0     H78642   1.047  10.894   5.919  2.0235  0.5879  1.4412
  596MOL0     H78643   0.996  10.995   6.062 -1.6407  0.2639  0.3653
  596MOL0     H78644   0.885  10.722   6.013  3.2995 -0.1197 -0.1141
  596MOL0     H78645   0.824  10.852   6.109 -1.2273  0.9459 -0.4586
  596MOL0     H78646   0.838  10.858   5.809  1.6702  1.6735  0.0422
  596MOL0     H78647   0.790  10.998   5.916 -1.0438  0.0345  2.1645
  596MOL0     H78648   0.579  10.903   5.965 -0.0017 -1.1006  1.1647
  596MOL0     H78649   0.635  10.744   5.943 -0.2980 -0.7374 -0.8382
  596MOL0     H78650   0.594  10.948   5.721 -4.9224  1.0990  3.6205
  596MOL0     H78651   0.660  10.780   5.697  1.1586  0.6452 -0.9588
  596MOL0     H78652   0.399  10.843   5.839 -0.4896  1.1197 -1.4401
  596MOL0     H78653   0.458  10.680   5.777  0.5989 -0.1599 -1.1261
  596MOL0     H78654   1.540  10.607   6.208  0.1480 -1.3975 -1.9256
  596MOL0     H78655   1.777  10.610   6.146  3.6077  2.7847  1.4813
  596MOL0     H78656   2.114  10.681   5.944  1.0724 -1.2693  0.3881
  596MOL0     H78657   2.366  10.643   5.932  1.6146  1.0035  0.7311
  596MOL0     H78658   4.327  10.537   5.870  2.9491 -2.4249 -0.7006
  596MOL0     H78659   4.544  10.464   5.925  2.0515  0.8268 -0.5445
  596MOL0     H78660   4.802  10.582   6.519 -1.0304  0.4035 -0.8854
  596MOL0     H78661   5.047  10.520   6.589 -0.7675 -1.0014  0.4196
  596MOL0     H78662   5.329  10.442   6.266 -3.4037 -3.7747 -2.3765
  596MOL0     H78663   5.302  10.288   6.346 -0.0611  0.1363  0.8797
  596MOL0     H78664   5.514  10.491   6.403  0.4811 -0.3057 -1.8277
  596MOL0     H78665   5.464  10.373   6.533  0.1669  2.1245  0.2230
  596MOL0     H78666   5.569  10.317   6.253 -0.0689 -0.7294  0.2937
  596MOL0     H78667   5.516  10.185   6.358  0.9143 -0.7761  1.5895
  596MOL0     H78668   5.737  10.381   6.422  0.7406  1.5768 -1.6173
  596MOL0     H78669   5.688  10.239   6.516  0.6924  0.5634 -0.2679
  596MOL0     H78670   5.983  10.099   6.223  1.3752  1.4295  0.2780
  596MOL0     H78671   5.147  10.416   6.197  0.9495 -0.3458  0.3669
  596MOL0     H78672   4.912  10.462   6.117 -2.2791 -2.6588  1.0246
  597MOL0     O78673   1.614   3.245   1.577 -0.0099 -0.6574 -0.7002
  597MOL0     C78674   1.690   3.164   1.523  0.1527  0.6000 -0.1431
  597MOL0     O78675   1.661   3.037   1.485  0.1652 -0.4604 -0.1976
  597MOL0     C78676   1.558   2.973   1.540 -0.2253 -0.7995 -0.0879
  597MOL0     C78677   1.439   2.991   1.473  0.5215 -0.8288  0.0943
  597MOL0     C78678   1.323   2.929   1.524 -0.4703 -0.2561 -0.7494
  597MOL0     C78679   1.329   2.849   1.640  0.3405  0.3596 -0.2899
  597MOL0     O78680   1.209   2.785   1.676  0.8595  0.2830 -0.1870
  597MOL0     C78681   1.200   2.763   1.813  0.0781  0.0875  0.5514
  597MOL0     C78682   1.225   2.613   1.849 -0.1724  0.1310 -0.8969
  597MOL0     C78683   1.125   2.526   1.769 -0.2121 -0.0301 -0.1007
  597MOL0     C78684   1.132   2.391   1.834  0.1202  0.0479 -0.2262
  597MOL0     C78685   1.076   2.284   1.740  0.0230  0.8592  0.3056
  597MOL0     C78686   0.921   2.280   1.713 -0.0370  0.4154 -0.1473
  597MOL0     C78687   0.825   2.296   1.834 -0.2858  0.3699  0.2630
  597MOL0     C78688   0.864   2.199   1.943 -0.3285  0.7256 -0.3935
  597MOL0     N78689   0.767   2.235   2.045  0.5956  0.1133  0.2444
  597MOL0     C78690   0.646   2.167   2.051  0.0876  0.2895 -2.3857
  597MOL0     C78691   0.580   2.237   2.147  0.3671 -0.9190  0.8056
  597MOL0     C78692   0.446   2.220   2.215 -0.0349  0.1900 -0.1960
  597MOL0     C78693   0.399   2.075   2.263 -0.3132  0.3474  0.2534
  597MOL0     C78694   0.257   2.065   2.327 -0.6194  0.4347 -0.3820
  597MOL0     C78695   0.139   2.080   2.230 -0.0635  0.0250 -1.0760
  597MOL0     O78696   0.087   2.218   2.234 -0.3193 -0.4331 -0.3119
  597MOL0     C78697  -0.052   2.237   2.221 -0.1475  0.2627  0.2029
  597MOL0     C78698  -0.078   2.357   2.157  0.0675  0.0702 -0.4128
  597MOL0     C78699  -0.206   2.394   2.125  0.9065 -0.4416  0.7578
  597MOL0     C78700  -0.314   2.310   2.159 -0.2447 -1.2570 -0.1379
  597MOL0     C78701  -0.448   2.355   2.116 -0.0968 -0.8467 -0.8322
  597MOL0     O78702  -0.549   2.261   2.140  0.0379  0.4986 -0.0620
  597MOL0     C78703  -0.683   2.300   2.150 -0.1238  0.3646 -0.0401
  597MOL0     C78704  -0.769   2.196   2.145  0.5370 -0.5504 -0.0946
  597MOL0     C78705  -0.908   2.220   2.169 -0.6095  0.6100  0.0074
  597MOL0     C78706  -0.960   2.351   2.187 -0.0362 -0.1737  0.1883
  597MOL0     O78707  -1.092   2.385   2.200 -0.9208 -0.1299 -0.9205
  597MOL0     C78708  -1.143   2.329   2.318 -0.5412  0.6566  0.0298
  597MOL0     C78709  -1.236   2.436   2.376 -0.1482  0.5257 -0.1002
  597MOL0     C78710  -1.302   2.393   2.510  0.3648  0.1332  0.1922
  597MOL0     C78711  -1.383   2.265   2.486 -0.2366 -0.0224 -0.1248
  597MOL0     C78712  -1.486   2.230   2.586  0.3709  0.9991 -0.3501
  597MOL0     C78713  -1.539   2.087   2.550  0.7662  0.3617  0.9594
  597MOL0     C78714  -1.601   2.034   2.677 -0.6137  0.1336  0.4518
  597MOL0     C78715  -1.704   1.928   2.645 -0.6527 -0.6816  0.6804
  597MOL0    Cl78716  -1.848   2.002   2.555  0.2667 -0.3527 -0.1222
  597MOL0     C78717  -0.872   2.459   2.201 -0.0440  0.3830 -0.1548
  597MOL0     C78718  -0.733   2.430   2.187 -0.1365 -0.1367  0.3009
  597MOL0     O78719  -0.470   2.453   2.050 -0.4490  0.0548  0.1415
  597MOL0     C78720  -0.291   2.184   2.205  0.0490  0.3077 -0.0588
  597MOL0     C78721  -0.159   2.148   2.237  0.4756 -0.3263  0.4945
  597MOL0     N78722   0.666   2.334   2.199 -0.6784  0.0766 -0.3176
  597MOL0     N78723   0.781   2.327   2.140 -0.4381 -0.3266  0.7213
  597MOL0     C78724   1.455   2.824   1.695  0.3111  0.0618 -0.0808
  597MOL0     C78725   1.568   2.890   1.649  0.0313  0.1817  0.7666
  597MOL0     C78726   1.824   3.208   1.493 -0.4537 -0.6199 -0.3991
  597MOL0     C78727   1.915   3.130   1.429 -0.1116  0.1659 -0.0537
  597MOL0     C78728   2.041   3.169   1.391  0.2364  0.3402  0.2859
  597MOL0     C78729   2.078   3.305   1.429  0.5142 -0.4144  0.3387
  597MOL0     O78730   2.197   3.359   1.401  0.4120 -0.5574 -0.3184
  597MOL0     C78731   2.284   3.285   1.317  0.1137  0.0608 -0.0789
  597MOL0     C78732   2.382   3.386   1.254  0.0779 -0.6654  0.5715
  597MOL0     C78733   2.325   3.481   1.153 -0.2729  0.7774 -0.9690
  597MOL0     C78734   2.270   3.428   1.026 -0.2594  0.6861  0.7519
  597MOL0     C78735   2.367   3.380   0.924 -0.2887  0.3222 -0.3469
  597MOL0     C78736   2.462   3.356   0.848 -0.1322  0.4480 -0.9849
  597MOL0     C78737   1.992   3.385   1.507 -0.4439  0.6604 -0.2722
  597MOL0     C78738   1.865   3.336   1.537  0.6076 -0.3216 -0.6235
  597MOL0     H78739   1.433   3.038   1.375  2.7702 -0.5239  0.0487
  597MOL0     H78740   1.233   2.921   1.464  0.3663 -0.6875 -2.0041
  597MOL0     H78741   1.101   2.798   1.842  0.9792  3.5290  0.0361
  597MOL0     H78742   1.272   2.827   1.866 -0.0600 -0.4605  1.4196
  597MOL0     H78743   1.210   2.604   1.957 -4.0284  3.6414 -0.8833
  597MOL0     H78744   1.328   2.583   1.827 -0.3084  0.0680 -1.4694
  597MOL0     H78745   1.159   2.525   1.665  0.4668 -0.2086  0.1180
  597MOL0     H78746   1.024   2.566   1.781  0.6274  2.4749 -0.8727
  597MOL0     H78747   1.238   2.364   1.845  0.2596 -0.2740 -2.0693
  597MOL0     H78748   1.087   2.404   1.933  2.1822  3.4140  0.4316
  597MOL0     H78749   1.100   2.181   1.768 -4.4549 -0.9247 -1.3382
  597MOL0     H78750   1.132   2.290   1.647 -0.9671  0.5540 -0.3334
  597MOL0     H78751   0.897   2.190   1.655 -1.5673  0.7020  0.0123
  597MOL0     H78752   0.914   2.356   1.635 -0.9578  2.0583  1.4755
  597MOL0     H78753   0.836   2.400   1.866  1.1404  0.5139 -0.6106
  597MOL0     H78754   0.723   2.278   1.800 -0.3098 -0.9179  0.9509
  597MOL0     H78755   0.961   2.222   1.988 -0.2779  0.4017 -0.3389
  597MOL0     H78756   0.864   2.092   1.921  0.7952  0.0229  2.5577
  597MOL0     H78757   0.621   2.078   1.994 -0.0904 -0.1378 -1.6483
  597MOL0     H78758   0.363   2.253   2.152  0.2246 -1.0130 -1.2045
  597MOL0     H78759   0.447   2.294   2.296 -4.7048  0.0811  0.2271
  597MOL0     H78760   0.477   2.034   2.328  0.9100  0.2274 -1.2193
  597MOL0     H78761   0.416   2.021   2.169  0.0828 -1.2434  1.2053
  597MOL0     H78762   0.254   1.963   2.365  1.7269  1.4325  2.8327
  597MOL0     H78763   0.248   2.141   2.405  0.2488  1.5979 -1.3714
  597MOL0     H78764   0.060   2.008   2.255 -3.0709  3.9438  2.0401
  597MOL0     H78765   0.174   2.060   2.129 -3.8851 -1.4390 -2.2606
  597MOL0     H78766   0.004   2.423   2.133 -1.1885  0.6870 -3.4732
  597MOL0     H78767  -0.230   2.482   2.066 -2.9269 -0.9460  1.2807
  597MOL0     H78768  -0.729   2.096   2.136 -0.9924 -1.2229  0.2870
  597MOL0     H78769  -0.988   2.148   2.153  0.6694 -0.7432 -0.4106
  597MOL0     H78770  -1.058   2.304   2.383 -0.9143 -2.0986 -0.4499
  597MOL0     H78771  -1.195   2.236   2.294 -1.6608  0.9060  1.3597
  597MOL0     H78772  -1.313   2.470   2.307 -0.2711  1.7335  0.6113
  597MOL0     H78773  -1.170   2.523   2.386  0.6865 -0.2828  2.2005
  597MOL0     H78774  -1.367   2.473   2.550  0.0435  1.4056 -2.6188
  597MOL0     H78775  -1.225   2.364   2.581  2.3663  1.7007 -1.2179
  597MOL0     H78776  -1.442   2.267   2.393  2.2273  3.8292 -1.8212
  597MOL0     H78777  -1.314   2.181   2.476  0.4758  0.1921  2.4130
  597MOL0     H78778  -1.564   2.305   2.597  1.0800  1.4378  2.3684
  597MOL0     H78779  -1.445   2.207   2.685 -2.4326 -1.1807  0.4210
  597MOL0     H78780  -1.467   2.011   2.517 -1.4994 -1.9528  1.1003
  597MOL0     H78781  -1.607   2.102   2.466  1.4982 -0.6908  0.1489
  597MOL0     H78782  -1.522   1.996   2.743 -1.0971  0.0560  0.9962
  597MOL0     H78783  -1.654   2.103   2.743  1.4879  1.2556  1.0734
  597MOL0     H78784  -1.739   1.889   2.741 -0.2883  0.6426  1.3702
  597MOL0     H78785  -1.660   1.844   2.589  0.4411  0.6733 -0.5920
  597MOL0     H78786  -0.912   2.559   2.209  1.1696  1.1998 -3.0078
  597MOL0     H78787  -0.674   2.520   2.200 -2.0803  1.1046  0.7818
  597MOL0     H78788  -0.360   2.101   2.200 -1.8403  1.8243 -0.4927
  597MOL0     H78789  -0.152   2.044   2.265  0.7197 -0.6005 -0.5380
  597MOL0     H78790   1.463   2.745   1.769  0.4239 -1.1722 -1.3688
  597MOL0     H78791   1.664   2.867   1.693  0.6113  0.8519 -0.1064
  597MOL0     H78792   1.883   3.028   1.408 -1.0905  0.6110 -0.8442
  597MOL0     H78793   2.099   3.089   1.347  0.4776 -0.4696  1.9722
  597MOL0     H78794   2.236   3.232   1.234  0.5682  1.1470 -1.0500
  597MOL0     H78795   2.330   3.212   1.385 -0.2918  0.0321  0.1722
  597MOL0     H78796   2.419   3.442   1.341 -0.0288 -0.8923  0.7640
  597MOL0     H78797   2.476   3.349   1.212 -0.0086  0.6943 -0.8937
  597MOL0     H78798   2.405   3.551   1.129 -0.8317  1.4990 -0.7436
  597MOL0     H78799   2.242   3.531   1.202  0.9273 -0.8501  3.1780
  597MOL0     H78800   2.194   3.350   1.032  1.4869 -1.5629 -3.0114
  597MOL0     H78801   2.225   3.511   0.971 -1.8998 -1.4984 -1.4274
  597MOL0     H78802   2.548   3.345   0.785  0.8489  2.1751 -0.0134
  597MOL0     H78803   2.018   3.487   1.532 -0.1105  1.3860 -3.2343
  597MOL0     H78804   1.796   3.403   1.589  2.2908  1.8496 -1.0488
  598MOL0     O78805  10.742   6.805   9.587 -0.2153 -0.4148 -0.0279
  598MOL0     C78806  10.851   6.851   9.637 -1.1756 -0.1216  0.3895
  598MOL0     O78807  10.967   6.878   9.571  0.4991 -0.0737  0.5322
  598MOL0     C78808  10.967   6.908   9.436 -0.3207 -0.3915 -0.2215
  598MOL0     C78809  11.091   6.908   9.373  0.2947 -0.0512  0.3647
  598MOL0     C78810  11.102   6.926   9.235  0.2624 -0.0856  0.7992
  598MOL0     C78811  10.991   6.963   9.160 -0.4334 -0.0650 -0.8298
  598MOL0     O78812  10.986   6.976   9.030 -0.2902 -0.5188  0.2895
  598MOL0     C78813  11.088   7.054   8.963  0.0274  0.5911 -0.7110
  598MOL0     C78814  11.054   7.078   8.821  0.0937  0.2504 -0.4522
  598MOL0     C78815  11.178   7.130   8.735  0.3546  0.4971  0.3985
  598MOL0     C78816  11.232   7.261   8.784 -0.4337 -0.2820  0.4807
  598MOL0     C78817  11.299   7.360   8.673 -0.2333  0.4369  0.2322
  598MOL0     C78818  11.402   7.296   8.577  0.1481 -0.5343 -0.2698
  598MOL0     C78819  11.439   7.404   8.469  0.3385  0.3382  0.4297
  598MOL0     C78820  11.360   7.393   8.339 -0.5089 -0.2407 -1.2771
  598MOL0     N78821  11.216   7.416   8.360 -0.2199 -0.3689 -0.4481
  598MOL0     C78822  11.126   7.320   8.355  0.3384  0.2390  0.0979
  598MOL0     C78823  11.007   7.391   8.365 -0.8424  0.1512 -0.7406
  598MOL0     C78824  10.868   7.343   8.360  0.1915 -0.1337  0.4940
  598MOL0     C78825  10.817   7.292   8.500  0.0933  0.0791  0.0390
  598MOL0     C78826  10.851   7.383   8.604  0.8446 -0.6656  0.3669
  598MOL0     C78827  10.748   7.385   8.721  0.4138  0.3104 -0.3383
  598MOL0     O78828  10.761   7.266   8.804 -0.1948  0.4476 -0.4980
  598MOL0     C78829  10.659   7.233   8.885  0.1660 -0.6932  0.0656
  598MOL0     C78830  10.656   7.110   8.946  0.4566 -0.3112 -0.4327
  598MOL0     C78831  10.543   7.075   9.022 -0.1222  0.4581 -0.1650
  598MOL0     C78832  10.438   7.162   9.047 -1.1740  0.3555 -0.5615
  598MOL0     C78833  10.320   7.120   9.139  0.1813 -0.3062  0.6501
  598MOL0     O78834  10.213   7.213   9.149  0.2279 -0.2988  0.7570
  598MOL0     C78835  10.106   7.179   9.213 -0.0853 -0.3460 -0.6775
  598MOL0     C78836   9.987   7.234   9.175 -0.1176 -0.1776 -0.0451
  598MOL0     C78837   9.867   7.190   9.230  0.5560  0.3072  0.2866
  598MOL0     C78838   9.871   7.104   9.350 -0.1586 -0.9220 -0.4128
  598MOL0     O78839   9.761   7.097   9.431  0.2362  0.7466  0.1517
  598MOL0     C78840   9.656   7.031   9.364 -0.6095  0.2139  0.1634
  598MOL0     C78841   9.559   6.987   9.464  0.0045  0.1042 -1.0924
  598MOL0     C78842   9.418   7.010   9.406  1.2056  0.2199  0.3990
  598MOL0     C78843   9.301   6.947   9.491 -0.0021  0.0391  0.8033
  598MOL0     C78844   9.165   7.017   9.475  1.2208  0.2160 -0.1437
  598MOL0     C78845   9.067   6.947   9.575  0.0807 -0.0356 -0.7478
  598MOL0     C78846   8.930   7.028   9.585 -0.4845 -0.0026 -0.6269
  598MOL0     C78847   8.857   7.001   9.721 -0.0103 -0.9507 -0.0099
  598MOL0    Cl78848   8.937   7.056   9.872 -0.1809 -0.1200  0.0410
  598MOL0     C78849   9.995   7.072   9.400  0.3513 -0.0067  0.5668
  598MOL0     C78850  10.107   7.101   9.328  1.1629 -0.1864 -0.4971
  598MOL0     O78851  10.317   7.007   9.177  0.0501 -0.3353  1.1746
  598MOL0     C78852  10.447   7.284   8.978 -0.1698 -0.5351 -0.5241
  598MOL0     C78853  10.562   7.320   8.902  0.5069 -1.1586 -0.4678
  598MOL0     N78854  11.037   7.526   8.378  0.4544  0.1191  0.9158
  598MOL0     N78855  11.160   7.538   8.358  0.4609  0.5236 -0.4344
  598MOL0     C78856  10.865   6.974   9.224  0.0008  1.1244  0.0710
  598MOL0     C78857  10.852   6.952   9.366  0.0373  0.6151  0.2561
  598MOL0     C78858  10.865   6.856   9.782 -0.3761  0.5750  0.1475
  598MOL0     C78859  10.763   6.797   9.868 -0.9382 -0.1176  1.2670
  598MOL0     C78860  10.769   6.812  10.012  0.7372 -0.0817  0.2416
  598MOL0     C78861  10.881   6.883  10.071 -0.2401 -0.4811  0.7153
  598MOL0     O78862  10.906   6.898  10.204  0.5201  0.5570 -0.6075
  598MOL0     C78863  10.803   6.872  10.304  0.8026  0.9300 -0.2231
  598MOL0     C78864  10.854   6.888  10.451 -0.3875 -0.4332  0.5786
  598MOL0     C78865  10.958   6.786  10.487 -0.3042 -1.0065 -0.2759
  598MOL0     C78866  10.929   6.640  10.479  0.3108  0.5197  0.3768
  598MOL0     C78867  10.830   6.595  10.576 -0.0875 -0.4834 -0.8830
  598MOL0     C78868  10.751   6.558  10.668 -0.6014  0.9718  0.4246
  598MOL0     C78869  10.975   6.940   9.982 -0.1729  0.1761 -0.2490
  598MOL0     C78870  10.971   6.929   9.846 -0.7204 -0.5487 -0.6392
  598MOL0     H78871  11.182   6.884   9.428  0.0662 -2.1421 -0.0768
  598MOL0     H78872  11.203   6.934   9.195  0.1321 -3.1753 -0.4486
  598MOL0     H78873  11.181   6.997   8.962  1.8178  3.3143 -2.1390
  598MOL0     H78874  11.100   7.145   9.022 -4.1544  1.6281 -1.1247
  598MOL0     H78875  10.989   7.164   8.802  1.0061  1.1292  0.3114
  598MOL0     H78876  11.004   6.988   8.784  2.2513 -0.5894 -1.4355
  598MOL0     H78877  11.135   7.152   8.636  0.7103  0.6897  0.2846
  598MOL0     H78878  11.254   7.053   8.725 -1.1999 -1.1750  0.8338
  598MOL0     H78879  11.153   7.322   8.827  0.2500 -2.4261  5.5707
  598MOL0     H78880  11.308   7.239   8.861  0.1022  1.8272  0.6098
  598MOL0     H78881  11.342   7.443   8.729 -1.2490 -0.5769  2.6918
  598MOL0     H78882  11.213   7.388   8.611  0.0379 -0.1299 -0.4124
  598MOL0     H78883  11.357   7.210   8.528  0.4596  0.8043 -3.0733
  598MOL0     H78884  11.489   7.260   8.633  1.5955 -0.0965 -2.1501
  598MOL0     H78885  11.403   7.498   8.514  0.3404 -0.5587  2.4153
  598MOL0     H78886  11.545   7.405   8.441  0.0663  4.2095 -1.1656
  598MOL0     H78887  11.378   7.292   8.301  2.7523  0.1535 -1.0767
  598MOL0     H78888  11.405   7.468   8.274 -1.6853  1.9590  0.3107
  598MOL0     H78889  11.142   7.214   8.345  0.5846  0.1797  1.0053
  598MOL0     H78890  10.864   7.263   8.286  0.2169 -0.7205  1.1203
  598MOL0     H78891  10.798   7.423   8.332  1.4062  0.7396 -0.1233
  598MOL0     H78892  10.859   7.194   8.523  0.1826  0.5021  1.7995
  598MOL0     H78893  10.711   7.272   8.486  0.7447 -4.4683 -0.0346
  598MOL0     H78894  10.953   7.369   8.640  1.1416 -0.1576 -0.2494
  598MOL0     H78895  10.845   7.483   8.560  2.0162 -1.6233 -2.1032
  598MOL0     H78896  10.651   7.396   8.672  1.1165  3.1572 -1.2675
  598MOL0     H78897  10.768   7.472   8.784  0.4590  1.2761 -1.6350
  598MOL0     H78898  10.727   7.030   8.932 -1.2417 -1.8470 -0.6110
  598MOL0     H78899  10.544   6.974   9.063  1.4082  0.8830  0.9347
  598MOL0     H78900   9.991   7.297   9.087  2.1948  2.2106  1.6175
  598MOL0     H78901   9.780   7.247   9.200 -0.8334 -2.6536 -1.7486
  598MOL0     H78902   9.692   6.954   9.295  0.8976  0.7168  0.3287
  598MOL0     H78903   9.611   7.102   9.294 -1.7034 -2.1760 -1.7063
  598MOL0     H78904   9.563   7.053   9.551 -0.2603 -2.2844  0.8388
  598MOL0     H78905   9.578   6.889   9.510  1.5319  0.6433 -0.5060
  598MOL0     H78906   9.407   6.976   9.302 -4.0718 -1.8678  1.3200
  598MOL0     H78907   9.395   7.116   9.417 -0.6731 -0.3237  2.3478
  598MOL0     H78908   9.299   6.839   9.470 -3.8822  0.0183  0.5090
  598MOL0     H78909   9.323   6.964   9.597 -1.4554  2.0611  0.8427
  598MOL0     H78910   9.124   7.012   9.374  0.8515 -2.2882  0.0494
  598MOL0     H78911   9.181   7.117   9.515  0.2108  0.3288 -0.0046
  598MOL0     H78912   9.123   6.950   9.669 -2.5136 -0.3961  0.8916
  598MOL0     H78913   9.051   6.841   9.557  0.4961 -0.6632  2.1022
  598MOL0     H78914   8.951   7.135   9.579  0.2884 -0.0093  1.3627
  598MOL0     H78915   8.866   6.997   9.502 -1.7369 -0.3589  0.4516
  598MOL0     H78916   8.813   6.901   9.722  1.6041 -1.7123  2.4160
  598MOL0     H78917   8.763   7.056   9.726 -0.4818 -1.7408  0.0501
  598MOL0     H78918  10.005   7.009   9.488 -0.1564 -1.3555 -0.3109
  598MOL0     H78919  10.197   7.072   9.382  0.1858  0.1213  1.3809
  598MOL0     H78920  10.363   7.351   8.984 -0.1511 -0.5086 -0.5544
  598MOL0     H78921  10.552   7.420   8.860  1.7576 -0.7269  0.1874
  598MOL0     H78922  10.783   7.004   9.161 -0.0352  1.4165  0.2541
  598MOL0     H78923  10.757   6.979   9.409 -0.3163  3.1358 -1.8289
  598MOL0     H78924  10.683   6.737   9.828  1.5947 -2.1235 -1.2375
  598MOL0     H78925  10.681   6.781  10.067  0.4878 -0.7278 -0.4901
  598MOL0     H78926  10.771   6.769  10.290 -0.6335  1.1531  1.1967
  598MOL0     H78927  10.715   6.935  10.293 -0.3649 -0.3028  1.6126
  598MOL0     H78928  10.905   6.984  10.457  0.7153 -0.7211 -2.4999
  598MOL0     H78929  10.772   6.879  10.523 -1.2386 -0.8414 -0.4119
  598MOL0     H78930  10.994   6.814  10.586 -0.7596  0.1091 -0.4115
  598MOL0     H78931  11.051   6.802  10.432  0.4399 -0.4459  1.0955
  598MOL0     H78932  10.911   6.598  10.379  0.6990  2.4133 -0.5434
  598MOL0     H78933  11.022   6.594  10.515 -0.0781  1.1779  2.3426
  598MOL0     H78934  10.686   6.536  10.751 -0.9963  0.6945  0.0478
  598MOL0     H78935  11.061   6.990  10.024 -0.2116 -1.3620  1.8271
  598MOL0     H78936  11.057   6.965   9.789 -1.8155  2.9786 -0.3473
  599MOL0     O78937  10.838  10.569   3.084  0.9752 -0.0260 -0.2560
  599MOL0     C78938  10.918  10.658   3.103 -0.2035  0.3364  0.1355
  599MOL0     O78939  10.880  10.794   3.099 -0.8372 -0.4366 -0.1678
  599MOL0     C78940  10.757  10.830   3.033 -0.3129  0.5055 -0.4408
  599MOL0     C78941  10.753  10.904   2.918 -0.6819  0.9571 -0.5794
  599MOL0     C78942  10.639  10.929   2.854  0.6410 -1.2046 -0.9383
  599MOL0     C78943  10.515  10.894   2.894  0.4615  0.2200  0.0897
  599MOL0     O78944  10.412  10.934   2.808 -0.5256 -0.2393 -0.4658
  599MOL0     C78945  10.274  10.886   2.831  1.2800  0.2184 -0.1135
  599MOL0     C78946  10.167  10.976   2.772 -0.2220  0.1306  0.0959
  599MOL0     C78947  10.025  10.945   2.819 -0.0270  0.1625 -0.1692
  599MOL0     C78948   9.919  11.030   2.752  0.0669  0.2380  0.8543
  599MOL0     C78949   9.776  11.014   2.807 -0.6442  0.4555  0.1159
  599MOL0     C78950   9.655  11.075   2.723  0.2849 -0.4320 -0.5766
  599MOL0     C78951   9.525  11.082   2.803 -0.1090  0.2257  1.1145
  599MOL0     C78952   9.483  10.946   2.854 -0.4369 -0.2493  0.0885
  599MOL0     N78953   9.343  10.957   2.898 -0.1021 -0.8955 -0.6012
  599MOL0     C78954   9.230  10.934   2.831 -0.6938 -0.0335 -0.0665
  599MOL0     C78955   9.129  10.979   2.907  0.3496 -0.0933  0.1238
  599MOL0     C78956   8.981  11.003   2.857 -0.1154  0.4906  0.1392
  599MOL0     C78957   8.881  10.943   2.951  0.2556 -0.2365  0.1596
  599MOL0     C78958   8.891  10.792   2.964  0.2749  0.4958  0.0013
  599MOL0     C78959   8.766  10.734   3.027  1.3870 -0.7502 -0.4489
  599MOL0     O78960   8.722  10.796   3.152  0.0345 -0.0732 -0.2855
  599MOL0     C78961   8.613  10.745   3.212  1.0475  0.1897 -0.5060
  599MOL0     C78962   8.587  10.800   3.341  0.6585 -0.3726 -0.3078
  599MOL0     C78963   8.480  10.744   3.421  0.5205 -0.5639  0.7165
  599MOL0     C78964   8.380  10.663   3.359  0.4425  0.5346 -0.4708
  599MOL0     C78965   8.268  10.615   3.446 -0.4195  0.5273  0.1451
  599MOL0     O78966   8.256  10.674   3.564 -0.2622 -0.1671 -0.0606
  599MOL0     C78967   8.191  10.613   3.673 -0.6019  0.3721 -0.9679
  599MOL0     C78968   8.259  10.602   3.797 -0.0807 -0.1446  0.5411
  599MOL0     C78969   8.206  10.554   3.911 -0.3110 -0.9871 -1.0082
  599MOL0     C78970   8.074  10.511   3.911  0.1295 -0.2631  0.0084
  599MOL0     O78971   8.026  10.460   4.027 -0.0718 -0.0461 -0.0169
  599MOL0     C78972   7.941  10.346   4.014  0.2305  0.1979  0.7371
  599MOL0     C78973   7.975  10.264   4.139 -0.0293 -1.6699  0.8122
  599MOL0     C78974   8.120  10.209   4.123  0.2154 -0.5222  0.4806
  599MOL0     C78975   8.163  10.118   4.239  0.2812  0.5123 -0.5764
  599MOL0     C78976   8.297  10.065   4.221 -0.9024 -0.4003  0.6460
  599MOL0     C78977   8.360  10.045   4.358 -0.2944  0.3004 -0.2419
  599MOL0     C78978   8.487   9.961   4.355  0.0170 -0.5126  0.4160
  599MOL0     C78979   8.545   9.925   4.489  0.8046 -0.3943 -0.0581
  599MOL0    Cl78980   8.425   9.891   4.620 -0.1603  0.4470 -0.3290
  599MOL0     C78981   7.998  10.517   3.795  0.2998  0.0155 -0.0787
  599MOL0     C78982   8.057  10.564   3.670 -0.0304  0.2784  0.3670
  599MOL0     O78983   8.201  10.518   3.409  0.0953 -0.0475 -0.1225
  599MOL0     C78984   8.411  10.608   3.232 -0.3519  0.5238 -0.0976
  599MOL0     C78985   8.523  10.646   3.159 -0.4768  0.0227  0.1644
  599MOL0     N78986   9.187  11.026   3.023 -0.1712 -0.4190  0.4264
  599MOL0     N78987   9.318  11.007   3.014 -0.3826  0.1319 -0.6779
  599MOL0     C78988  10.516  10.817   3.013 -0.0140  0.1378  0.1787
  599MOL0     C78989  10.636  10.779   3.080 -0.1538  0.0857  0.2289
  599MOL0     C78990  11.040  10.629   3.169 -0.2788 -0.7007  0.7647
  599MOL0     C78991  11.137  10.730   3.187 -0.4653  0.2598  0.7347
  599MOL0     C78992  11.260  10.694   3.244 -0.3405 -0.3306 -0.1262
  599MOL0     C78993  11.293  10.564   3.290  0.4772 -0.0206  0.2738
  599MOL0     O78994  11.407  10.529   3.358 -0.5759 -0.2925 -0.1184
  599MOL0     C78995  11.527  10.606   3.332 -0.5501 -0.0474 -0.1686
  599MOL0     C78996  11.604  10.601   3.465  0.7335  0.2769  0.7472
  599MOL0     C78997  11.671  10.465   3.495  0.0518 -0.1631 -0.0480
  599MOL0     C78998  11.796  10.436   3.405 -0.0936 -0.0651 -0.3427
  599MOL0     C78999  11.920  10.512   3.443 -0.5512  1.3290 -0.8159
  599MOL0     C79000  12.031  10.556   3.464  0.9685 -0.4529 -0.1759
  599MOL0     C79001  11.195  10.469   3.266 -0.0460  0.5700  0.8746
  599MOL0     C79002  11.075  10.495   3.201 -0.2824 -0.2631  0.5206
  599MOL0     H79003  10.851  10.933   2.881  0.4230 -1.0797  0.5504
  599MOL0     H79004  10.654  10.994   2.768 -5.1475 -1.0154 -2.2229
  599MOL0     H79005  10.253  10.884   2.939 -2.4249 -2.6106 -0.6920
  599MOL0     H79006  10.270  10.782   2.799  1.9273  0.1862 -0.1131
  599MOL0     H79007  10.171  10.960   2.664  1.4292 -0.3622  0.2003
  599MOL0     H79008  10.187  11.081   2.791  0.4612  0.4939 -2.2737
  599MOL0     H79009  10.020  10.951   2.928 -1.8357 -1.7155 -0.0968
  599MOL0     H79010   9.998  10.841   2.796  3.0845 -0.9307  0.5879
  599MOL0     H79011   9.950  11.134   2.755 -1.0889  0.5854  1.2284
  599MOL0     H79012   9.913  11.001   2.647  0.5539  0.9319  0.6304
  599MOL0     H79013   9.775  11.065   2.903 -0.7476 -0.9696  0.8976
  599MOL0     H79014   9.753  10.909   2.826 -0.9392  0.6303  0.7456
  599MOL0     H79015   9.625  11.023   2.631  0.6451  0.2567 -1.0884
  599MOL0     H79016   9.693  11.172   2.691  1.1974 -0.4794  0.3132
  599MOL0     H79017   9.535  11.144   2.893 -0.3122 -0.5138  1.6530
  599MOL0     H79018   9.452  11.132   2.739 -1.1994 -0.9347  1.4040
  599MOL0     H79019   9.549  10.907   2.932  0.5249  0.8860 -0.1242
  599MOL0     H79020   9.497  10.871   2.776 -1.9013 -0.0899 -0.3495
  599MOL0     H79021   9.214  10.915   2.725 -1.2647  0.8846 -0.1617
  599MOL0     H79022   8.966  10.947   2.765 -1.6076 -0.0609  0.6810
  599MOL0     H79023   8.957  11.110   2.846 -3.2273 -0.2800 -1.6705
  599MOL0     H79024   8.785  10.978   2.913  0.7133 -0.4395 -1.2465
  599MOL0     H79025   8.897  10.991   3.048 -1.1198  1.0843 -0.2254
  599MOL0     H79026   8.907  10.753   2.863  0.2069 -0.6283  0.4156
  599MOL0     H79027   8.983  10.763   3.015  1.5091  1.1343 -1.7712
  599MOL0     H79028   8.790  10.628   3.045 -3.4757 -1.9427  0.3561
  599MOL0     H79029   8.678  10.739   2.962 -2.1978 -1.0597  3.9090
  599MOL0     H79030   8.660  10.860   3.394 -0.7527  1.0286  0.1086
  599MOL0     H79031   8.470  10.775   3.525  3.3201 -0.4710  1.0528
  599MOL0     H79032   8.364  10.628   3.810 -0.7726  1.6127  3.8888
  599MOL0     H79033   8.267  10.559   4.000  0.9214  5.6506 -1.7304
  599MOL0     H79034   7.960  10.281   3.928  5.6700  2.1934  0.0419
  599MOL0     H79035   7.833  10.363   4.011 -0.3123 -1.6740  4.3643
  599MOL0     H79036   7.905  10.180   4.140 -0.9168 -1.1453 -2.6153
  599MOL0     H79037   7.964  10.323   4.230  0.7716 -1.1373  0.5750
  599MOL0     H79038   8.186  10.294   4.103 -0.9995  0.3548  0.0519
  599MOL0     H79039   8.118  10.141   4.038 -0.2447 -0.5842  0.5380
  599MOL0     H79040   8.154  10.172   4.334  0.4398 -1.6239  0.7008
  599MOL0     H79041   8.090  10.041   4.266  1.9390 -0.6169  0.8533
  599MOL0     H79042   8.358  10.131   4.158  0.9776 -1.3207  1.4116
  599MOL0     H79043   8.294   9.974   4.162  1.2415  0.9255 -1.7501
  599MOL0     H79044   8.285  10.002   4.426  0.7966 -0.8782  0.2528
  599MOL0     H79045   8.397  10.145   4.381 -1.4080  0.8517 -0.7172
  599MOL0     H79046   8.450   9.870   4.307 -0.8261  1.3103 -2.7038
  599MOL0     H79047   8.565   9.999   4.287 -0.3001 -1.4875 -0.5180
  599MOL0     H79048   8.595  10.014   4.527 -1.8397  1.6061 -0.9345
  599MOL0     H79049   8.603   9.833   4.481 -2.2569 -2.5934  1.0547
  599MOL0     H79050   7.891  10.497   3.799 -0.2383  2.4845 -0.6189
  599MOL0     H79051   8.009  10.583   3.575  2.7973  0.0139 -1.2352
  599MOL0     H79052   8.345  10.536   3.186 -0.0617  1.1032 -1.4611
  599MOL0     H79053   8.532  10.594   3.064 -1.0501 -1.7811  1.0462
  599MOL0     H79054  10.424  10.769   3.044 -0.4605  0.6394 -0.3442
  599MOL0     H79055  10.643  10.710   3.164  0.7381 -0.0374  0.0653
  599MOL0     H79056  11.131  10.835   3.161  4.9098  0.7535  0.3960
  599MOL0     H79057  11.317  10.785   3.258  0.6308 -0.9422 -0.0537
  599MOL0     H79058  11.512  10.712   3.311 -0.1470  0.7136  2.8810
  599MOL0     H79059  11.579  10.561   3.247 -1.9873 -0.6570 -0.7475
  599MOL0     H79060  11.674  10.685   3.470 -0.1821  1.0620  0.5563
  599MOL0     H79061  11.534  10.629   3.544  1.4833  1.5970  0.9788
  599MOL0     H79062  11.596  10.390   3.468 -1.8209  1.8079 -0.6150
  599MOL0     H79063  11.705  10.466   3.599 -2.9877 -0.6747  1.0491
  599MOL0     H79064  11.806  10.328   3.413  0.5938  0.1001  1.5220
  599MOL0     H79065  11.759  10.474   3.309 -2.1441 -0.2676  0.3196
  599MOL0     H79066  12.129  10.589   3.494 -0.0022  0.3194  2.4968
  599MOL0     H79067  11.206  10.362   3.284  2.4063  0.1558 -2.1303
  599MOL0     H79068  11.004  10.413   3.190  1.8161 -2.3708  1.6398
  600MOL0     O79069   2.020   0.655   8.413  0.1843  0.0036  0.7454
  600MOL0     C79070   2.038   0.645   8.293 -0.3776  0.2417  0.5588
  600MOL0     O79071   1.966   0.559   8.211 -0.1468  0.0445  0.4023
  600MOL0     C79072   1.855   0.504   8.269  1.1479  0.1483 -0.2015
  600MOL0     C79073   1.731   0.541   8.216  0.5484 -0.7207  0.1663
  600MOL0     C79074   1.620   0.476   8.267  0.0662  0.0929 -1.0140
  600MOL0     C79075   1.630   0.363   8.345  0.9127  0.0562 -0.5203
  600MOL0     O79076   1.510   0.300   8.383 -0.1236  0.6028  0.4838
  600MOL0     C79077   1.396   0.303   8.297  0.9249 -0.8861  0.0977
  600MOL0     C79078   1.431   0.234   8.166  0.0723  0.1512  0.2095
  600MOL0     C79079   1.322   0.190   8.081  0.4213 -0.0784  0.8094
  600MOL0     C79080   1.282   0.304   7.980 -0.4225 -0.2205  0.7687
  600MOL0     C79081   1.178   0.253   7.875  0.6236  0.3179 -0.2917
  600MOL0     C79082   1.035   0.319   7.892  0.1156 -0.4277 -0.2938
  600MOL0     C79083   0.928   0.237   7.826  0.3103  0.0243 -0.2147
  600MOL0     C79084   0.800   0.309   7.795  0.7952  0.3241 -0.6091
  600MOL0     N79085   0.691   0.223   7.744 -0.3991  0.2985  0.6096
  600MOL0     C79086   0.590   0.168   7.819  0.5094 -0.1849  0.4989
  600MOL0     C79087   0.536   0.081   7.740  0.4438  0.9936 -0.0632
  600MOL0     C79088   0.421  -0.014   7.795  0.3157  0.0539 -0.1210
  600MOL0     C79089   0.353  -0.086   7.688 -0.1805  0.2087 -0.5337
  600MOL0     C79090   0.234  -0.166   7.740 -0.4889 -0.0509  0.4522
  600MOL0     C79091   0.178  -0.251   7.625 -0.1442 -0.4047 -1.2201
  600MOL0     O79092   0.133  -0.172   7.516  0.0068  0.2784 -0.1012
  600MOL0     C79093   0.003  -0.138   7.504 -0.3013  0.2926 -0.5284
  600MOL0     C79094  -0.039  -0.016   7.453 -0.2480  0.0759  0.1736
  600MOL0     C79095  -0.166   0.028   7.446  0.7409  0.6809 -0.0201
  600MOL0     C79096  -0.273  -0.063   7.476 -0.3383  0.0800 -0.7068
  600MOL0     C79097  -0.415  -0.020   7.470  0.5417  0.2538 -0.5639
  600MOL0     O79098  -0.448   0.081   7.379 -0.1003 -0.0381 -0.1358
  600MOL0     C79099  -0.571   0.133   7.372  0.6537  0.0251  0.1900
  600MOL0     C79100  -0.646   0.098   7.254 -1.1237 -0.1237 -0.1720
  600MOL0     C79101  -0.770   0.152   7.234  0.3821 -0.5638 -0.5110
  600MOL0     C79102  -0.822   0.233   7.334  0.0972  0.6123  0.0984
  600MOL0     O79103  -0.938   0.302   7.317  0.0412  0.3212 -0.0618
  600MOL0     C79104  -1.054   0.233   7.277  0.4527  0.4189  0.0453
  600MOL0     C79105  -1.090   0.288   7.142  0.2394 -0.1643  0.0836
  600MOL0     C79106  -1.225   0.236   7.074 -0.0258 -0.4235 -0.0241
  600MOL0     C79107  -1.267   0.320   6.950  0.0941  0.1988  0.4220
  600MOL0     C79108  -1.398   0.286   6.901  0.8865 -0.7261  0.4951
  600MOL0     C79109  -1.441   0.379   6.782 -0.0601  0.0600 -1.2602
  600MOL0     C79110  -1.593   0.366   6.758  0.4777 -0.6093 -0.5212
  600MOL0     C79111  -1.650   0.483   6.676 -0.0509  0.0271  0.1326
  600MOL0    Cl79112  -1.548   0.525   6.534  0.5232 -0.1464 -0.0611
  600MOL0     C79113  -0.758   0.264   7.459 -0.7934 -0.2648  0.5412
  600MOL0     C79114  -0.629   0.211   7.465 -0.3245  0.5219 -1.3189
  600MOL0     O79115  -0.496  -0.078   7.543 -0.7948  0.2351 -0.0034
  600MOL0     C79116  -0.233  -0.194   7.516  0.3476  0.5629 -0.1848
  600MOL0     C79117  -0.102  -0.230   7.538 -0.4211 -0.4743  0.1643
  600MOL0     N79118   0.602   0.075   7.615  0.9130  0.5249  0.4698
  600MOL0     N79119   0.699   0.157   7.620 -0.3548 -0.6068 -0.4886
  600MOL0     C79120   1.753   0.333   8.398  0.3283  0.3548  0.6232
  600MOL0     C79121   1.867   0.401   8.358  1.5867 -0.1727  0.0871
  600MOL0     C79122   2.148   0.710   8.233  1.0533 -0.0978  0.1456
  600MOL0     C79123   2.225   0.790   8.317  0.2464 -0.3684  0.0567
  600MOL0     C79124   2.315   0.866   8.248 -0.0625 -0.5029 -0.5060
  600MOL0     C79125   2.344   0.863   8.110 -0.8282 -0.0189  0.5836
  600MOL0     O79126   2.449   0.937   8.073  0.1022 -0.9722 -0.1048
  600MOL0     C79127   2.497   0.922   7.944 -0.1909 -0.0623  1.5724
  600MOL0     C79128   2.606   1.020   7.924  0.3902  0.0756  0.9662
  600MOL0     C79129   2.682   1.019   7.789  0.5857  0.1292  0.0277
  600MOL0     C79130   2.793   1.118   7.797  0.2353  0.0330 -0.1706
  600MOL0     C79131   2.849   1.159   7.661  0.3507 -0.2896 -0.0142
  600MOL0     C79132   2.901   1.205   7.558 -0.8958 -0.0122 -0.6757
  600MOL0     C79133   2.279   0.768   8.036  0.1621 -0.3105 -0.4464
  600MOL0     C79134   2.174   0.701   8.091  0.1492 -0.4459 -0.0404
  600MOL0     H79135   1.717   0.617   8.140  2.8856  0.2668  0.6230
  600MOL0     H79136   1.529   0.502   8.213  0.9200  0.3143 -2.4101
  600MOL0     H79137   1.359   0.402   8.270  0.5008 -1.5728 -2.0711
  600MOL0     H79138   1.311   0.248   8.338 -0.6072  0.0560 -1.6213
  600MOL0     H79139   1.492   0.146   8.188  2.1420  0.6575 -2.7536
  600MOL0     H79140   1.514   0.282   8.113  1.0465  0.1948  1.7371
  600MOL0     H79141   1.238   0.155   8.143  0.7153 -3.6857 -0.5553
  600MOL0     H79142   1.358   0.101   8.027  0.0083 -0.9110  1.8692
  600MOL0     H79143   1.257   0.391   8.041 -1.0885 -0.6603  1.1424
  600MOL0     H79144   1.371   0.331   7.922 -0.4219  3.6928  2.3372
  600MOL0     H79145   1.158   0.145   7.883  0.0492  0.3528 -1.0733
  600MOL0     H79146   1.207   0.284   7.774 -1.4714  0.7425 -0.8155
  600MOL0     H79147   1.033   0.416   7.842 -1.1213 -0.5124 -0.4366
  600MOL0     H79148   1.006   0.342   7.995  1.0774 -0.2968 -0.0387
  600MOL0     H79149   0.969   0.187   7.737  1.1567 -0.0036  0.1778
  600MOL0     H79150   0.901   0.159   7.897 -2.7075  0.7718 -0.4236
  600MOL0     H79151   0.811   0.387   7.719  0.4959 -0.4556 -1.4526
  600MOL0     H79152   0.766   0.359   7.887 -1.2460 -0.6991 -0.7566
  600MOL0     H79153   0.553   0.201   7.915 -3.0485 -2.3811  0.0898
  600MOL0     H79154   0.344   0.048   7.842  0.9228  1.1454 -0.5117
  600MOL0     H79155   0.468  -0.083   7.866 -1.1291  0.0050  0.8151
  600MOL0     H79156   0.424  -0.150   7.635  0.8434  2.2257 -1.6974
  600MOL0     H79157   0.315  -0.011   7.618 -1.0851  0.2847  0.0271
  600MOL0     H79158   0.268  -0.222   7.828  0.9312 -0.3950 -0.2707
  600MOL0     H79159   0.160  -0.092   7.769  0.0895 -0.0608  2.0100
  600MOL0     H79160   0.113  -0.328   7.668  0.2601 -0.3987 -0.5894
  600MOL0     H79161   0.269  -0.298   7.586  1.2414  1.7542 -0.7483
  600MOL0     H79162   0.045   0.046   7.424 -1.0319  0.9212 -0.3541
  600MOL0     H79163  -0.181   0.131   7.415 -1.3576  0.6739  0.8312
  600MOL0     H79164  -0.604   0.032   7.178  1.7899 -0.9755  1.9702
  600MOL0     H79165  -0.823   0.122   7.144  0.8616 -2.2018 -0.2955
  600MOL0     H79166  -1.128   0.238   7.358  2.0551  1.2836  1.5233
  600MOL0     H79167  -1.035   0.126   7.268  0.8878  0.3659  1.3983
  600MOL0     H79168  -1.005   0.280   7.074 -0.2706 -0.1341 -0.5633
  600MOL0     H79169  -1.102   0.395   7.161 -1.1242 -0.5072  1.2724
  600MOL0     H79170  -1.296   0.256   7.155  1.8386 -2.5666  2.3103
  600MOL0     H79171  -1.219   0.128   7.064 -0.0369 -0.5008  0.7625
  600MOL0     H79172  -1.272   0.424   6.985 -0.0679 -0.4358  2.4006
  600MOL0     H79173  -1.192   0.314   6.871  0.7621 -1.1968  1.1333
  600MOL0     H79174  -1.472   0.295   6.981  0.8832  2.1081  0.2623
  600MOL0     H79175  -1.390   0.183   6.865 -0.4431 -0.6760 -0.0291
  600MOL0     H79176  -1.390   0.347   6.691 -2.1865 -1.4006 -2.0229
  600MOL0     H79177  -1.423   0.475   6.831  3.7705 -2.8247  4.1453
  600MOL0     H79178  -1.605   0.273   6.703  0.5622 -1.0992  0.2766
  600MOL0     H79179  -1.642   0.352   6.855  0.9746  1.1444  0.0241
  600MOL0     H79180  -1.649   0.577   6.732  1.2986  2.0003 -2.8947
  600MOL0     H79181  -1.753   0.459   6.649 -1.3286  3.2516  1.6420
  600MOL0     H79182  -0.809   0.329   7.529 -2.4656 -0.6244 -0.2944
  600MOL0     H79183  -0.567   0.231   7.551  0.7904 -1.2631 -1.6414
  600MOL0     H79184  -0.306  -0.262   7.559  2.8516  0.9770  5.6817
  600MOL0     H79185  -0.094  -0.330   7.579 -0.4953  0.5460  2.9258
  600MOL0     H79186   1.763   0.246   8.462  1.9619 -2.5675 -3.2052
  600MOL0     H79187   1.963   0.365   8.394  3.1407  2.6197 -1.0072
  600MOL0     H79188   2.215   0.815   8.422  0.3311  1.4859 -0.3583
  600MOL0     H79189   2.377   0.930   8.310 -0.7873  2.5049 -2.7052
  600MOL0     H79190   2.413   0.947   7.878  0.9218  1.7102  0.7719
  600MOL0     H79191   2.529   0.820   7.920 -0.4948  0.0798  0.4848
  600MOL0     H79192   2.568   1.122   7.936 -3.2212 -1.3790  3.7193
  600MOL0     H79193   2.671   1.008   8.011  4.0813 -0.1339 -1.5914
  600MOL0     H79194   2.606   1.049   7.717 -2.9633 -0.3497  3.2501
  600MOL0     H79195   2.725   0.922   7.764  2.3838  0.9239 -0.1354
  600MOL0     H79196   2.766   1.208   7.853 -0.8720 -1.1505  1.2638
  600MOL0     H79197   2.878   1.089   7.860 -0.7072 -1.0607  0.6394
  600MOL0     H79198   2.948   1.236   7.467  0.0628 -1.4353 -0.7035
  600MOL0     H79199   2.299   0.744   7.932  3.3863  0.4395 -0.1266
  600MOL0     H79200   2.117   0.638   8.023  2.6120 -1.0305 -1.7041
  601MOL0     O79201   9.361  10.988   9.274  0.2717  0.7874 -0.0651
  601MOL0     C79202   9.485  10.986   9.264  0.0468  0.2062 -0.7627
  601MOL0     O79203   9.555  10.998   9.149 -0.9454 -0.1183  0.5848
  601MOL0     C79204   9.488  11.027   9.035  0.6808 -0.5432  0.0467
  601MOL0     C79205   9.497  10.934   8.934 -0.0128 -0.2092  0.0429
  601MOL0     C79206   9.442  10.965   8.806 -0.5073  0.0839  0.1045
  601MOL0     C79207   9.370  11.082   8.783 -0.4902  0.6972  0.8632
  601MOL0     O79208   9.330  11.120   8.660 -0.1590  0.7220  0.3455
  601MOL0     C79209   9.319  11.016   8.566  0.0586  1.1747  0.2318
  601MOL0     C79210   9.233  11.055   8.450 -0.7381  0.2396 -0.4194
  601MOL0     C79211   9.274  11.185   8.393 -0.1371 -0.9041 -0.2330
  601MOL0     C79212   9.174  11.238   8.286 -0.2137 -0.5512  0.1235
  601MOL0     C79213   9.231  11.347   8.190  0.1330  0.0538 -0.2785
  601MOL0     C79214   9.341  11.296   8.095  0.0613  0.3076 -0.0092
  601MOL0     C79215   9.407  11.412   8.015 -0.4225  0.0724 -0.6926
  601MOL0     C79216   9.328  11.458   7.888  0.4429 -0.4171 -0.0539
  601MOL0     N79217   9.292  11.336   7.812 -0.4920  0.2953 -0.3751
  601MOL0     C79218   9.371  11.264   7.727 -0.0941 -0.4026  0.0042
  601MOL0     C79219   9.306  11.154   7.699  0.3105  0.2415  0.6956
  601MOL0     C79220   9.347  11.027   7.611 -0.0768 -0.2363 -0.5059
  601MOL0     C79221   9.319  11.048   7.462  0.2465 -0.2152 -0.1897
  601MOL0     C79222   9.372  10.953   7.352  0.6234 -0.1398 -0.3750
  601MOL0     C79223   9.523  10.947   7.345 -0.4708  0.3521 -0.2941
  601MOL0     O79224   9.567  10.876   7.459 -1.1022 -0.6317  0.1717
  601MOL0     C79225   9.696  10.826   7.472 -0.6162  0.2778  0.1358
  601MOL0     C79226   9.784  10.796   7.368  0.2382 -0.2965 -0.9341
  601MOL0     C79227   9.902  10.718   7.393  0.7908  0.2405  0.3536
  601MOL0     C79228   9.938  10.682   7.521 -0.3637 -0.1074 -0.5336
  601MOL0     C79229  10.056  10.610   7.559  0.1617 -0.6270 -0.1377
  601MOL0     O79230  10.073  10.583   7.694 -0.7925  0.1777 -0.0529
  601MOL0     C79231  10.153  10.475   7.726 -0.0664 -0.5469 -0.2318
  601MOL0     C79232  10.096  10.348   7.696 -0.5603  0.3963 -0.6254
  601MOL0     C79233  10.158  10.236   7.734  1.2391  0.0805 -0.4335
  601MOL0     C79234  10.284  10.244   7.787 -0.3737  0.2147  0.2419
  601MOL0     O79235  10.342  10.128   7.821  0.0779  0.2538 -0.0987
  601MOL0     C79236  10.373  10.122   7.964  0.1820 -0.9116  0.1002
  601MOL0     C79237  10.276  10.012   8.020  0.1303  0.2575 -0.1012
  601MOL0     C79238  10.307   9.987   8.164 -0.0793  0.2271 -0.3831
  601MOL0     C79239  10.216   9.897   8.242  0.2840 -0.0063 -0.6621
  601MOL0     C79240  10.279   9.875   8.376 -1.0060  0.0703 -0.3403
  601MOL0     C79241  10.191   9.778   8.455 -0.6464 -0.5196  0.3320
  601MOL0     C79242  10.162   9.640   8.402  0.6520  0.1169 -0.2925
  601MOL0     C79243  10.090   9.554   8.515 -1.0564 -0.5764 -0.2503
  601MOL0    Cl79244   9.923   9.603   8.532  0.3377 -0.0468 -0.4217
  601MOL0     C79245  10.347  10.366   7.809 -0.3590  0.1578 -0.0551
  601MOL0     C79246  10.278  10.491   7.789 -0.3766  0.7363  1.3420
  601MOL0     O79247  10.132  10.574   7.465 -0.4878  0.4082 -0.4664
  601MOL0     C79248   9.848  10.706   7.620  0.0797 -0.0232 -0.1822
  601MOL0     C79249   9.730  10.780   7.596  0.8941  0.4669 -0.6984
  601MOL0     N79250   9.178  11.152   7.759 -0.5003  0.0043  0.0225
  601MOL0     N79251   9.174  11.265   7.823  0.8830 -0.7638 -0.3769
  601MOL0     C79252   9.370  11.185   8.887  1.6156  0.5748 -0.1665
  601MOL0     C79253   9.425  11.154   9.010  0.6762 -0.2987 -0.2437
  601MOL0     C79254   9.559  10.979   9.393 -0.1316  0.5462  0.3198
  601MOL0     C79255   9.493  11.018   9.513  0.0629 -0.2692 -0.0418
  601MOL0     C79256   9.552  10.999   9.640 -0.7915 -0.1282 -0.3019
  601MOL0     C79257   9.671  10.923   9.656 -0.5557 -0.5643 -0.0754
  601MOL0     O79258   9.720  10.885   9.775  0.4806 -0.2066  0.4599
  601MOL0     C79259   9.761  10.994   9.862 -0.0912  0.9839  0.4253
  601MOL0     C79260   9.914  10.967   9.878 -0.0621 -0.4279  0.0129
  601MOL0     C79261   9.964  11.055   9.998  1.2643  0.8025  0.1176
  601MOL0     C79262  10.116  11.060  10.006  0.2916 -1.4191  0.2024
  601MOL0     C79263  10.179  10.933  10.050 -0.3409 -0.6709  0.7390
  601MOL0     C79264  10.226  10.832  10.098  0.8652  0.3869  0.1064
  601MOL0     C79265   9.741  10.897   9.537 -0.5875  0.4617  0.6527
  601MOL0     C79266   9.687  10.913   9.407  0.3341  0.2196  0.3135
  601MOL0     H79267   9.553  10.845   8.962 -0.1819 -0.6407 -0.9355
  601MOL0     H79268   9.459  10.894   8.725  2.0420 -1.7212  2.0460
  601MOL0     H79269   9.275  10.924   8.605  1.5904 -0.2365 -1.1783
  601MOL0     H79270   9.421  10.998   8.531 -0.6224 -1.3965 -0.6093
  601MOL0     H79271   9.128  11.052   8.480 -0.8345  1.2266 -0.6362
  601MOL0     H79272   9.232  10.985   8.366 -2.3679  0.3438 -0.5011
  601MOL0     H79273   9.374  11.169   8.353 -0.1269 -1.5733  0.0442
  601MOL0     H79274   9.290  11.261   8.470  2.6350 -1.5629 -0.0787
  601MOL0     H79275   9.135  11.153   8.230  1.3653 -1.1573 -0.0992
  601MOL0     H79276   9.086  11.269   8.343 -1.0557 -0.2763 -1.2659
  601MOL0     H79277   9.272  11.425   8.254 -0.6880  0.4839 -0.2613
  601MOL0     H79278   9.142  11.390   8.142  1.1139  1.3818 -0.9917
  601MOL0     H79279   9.299  11.213   8.038 -2.3045  0.7264  1.0063
  601MOL0     H79280   9.418  11.259   8.163  1.1561  3.3438  0.5470
  601MOL0     H79281   9.430  11.502   8.071 -0.0855  2.2057 -3.9669
  601MOL0     H79282   9.505  11.384   7.976  0.0567 -0.3176  0.7586
  601MOL0     H79283   9.400  11.521   7.834  2.6784 -1.8067  1.1300
  601MOL0     H79284   9.241  11.521   7.906  2.3569  1.9407  1.7389
  601MOL0     H79285   9.472  11.293   7.700 -0.2694 -0.9174 -1.2833
  601MOL0     H79286   9.286  10.944   7.648 -0.2959 -0.5545 -1.5455
  601MOL0     H79287   9.452  10.999   7.622  0.2781  1.3202  0.3349
  601MOL0     H79288   9.352  11.152   7.448 -0.9800  0.2987  0.4742
  601MOL0     H79289   9.209  11.050   7.461  0.1877  1.9455  1.3028
  601MOL0     H79290   9.335  10.850   7.361  1.0634 -0.4055 -1.4201
  601MOL0     H79291   9.324  10.996   7.264  1.1076  2.7891  0.6752
  601MOL0     H79292   9.554  11.051   7.334  0.8844  0.1346  1.1379
  601MOL0     H79293   9.544  10.889   7.255 -0.8131  1.7011 -1.2695
  601MOL0     H79294   9.767  10.834   7.268  0.6042 -2.5889 -1.9488
  601MOL0     H79295   9.975  10.694   7.317  2.4812 -0.2848  2.0480
  601MOL0     H79296   9.997  10.331   7.657 -1.2148 -0.2650  1.2227
  601MOL0     H79297  10.110  10.141   7.714 -1.8166  1.5200 -0.6497
  601MOL0     H79298  10.376  10.220   8.012 -0.9374  0.0319 -1.6466
  601MOL0     H79299  10.476  10.088   7.979  0.4701  0.2539  0.8932
  601MOL0     H79300  10.296   9.915   7.974 -3.6889 -1.8599  2.1751
  601MOL0     H79301  10.170  10.035   8.005  0.7208  2.3231 -1.5719
  601MOL0     H79302  10.306  10.081   8.221 -3.0503 -0.5170  0.9550
  601MOL0     H79303  10.412   9.957   8.170  0.7092  2.6772 -0.8663
  601MOL0     H79304  10.113   9.935   8.252  0.2926 -0.5246  2.4760
  601MOL0     H79305  10.210   9.808   8.179 -2.9165 -2.0006  2.0869
  601MOL0     H79306  10.277   9.973   8.426  0.8303  0.4764 -1.0007
  601MOL0     H79307  10.381   9.839   8.367 -0.2363  2.3219 -1.4570
  601MOL0     H79308  10.095   9.826   8.480 -1.0457 -1.4633  0.6879
  601MOL0     H79309  10.240   9.766   8.552  0.9143  0.8187 -0.2404
  601MOL0     H79310  10.088   9.642   8.321 -0.6781 -0.5859  0.8531
  601MOL0     H79311  10.264   9.610   8.380  1.2441  0.7769  1.4080
  601MOL0     H79312  10.141   9.569   8.611  1.5112 -0.8466 -1.4861
  601MOL0     H79313  10.091   9.449   8.483  0.6886 -0.3651 -0.9744
  601MOL0     H79314  10.443  10.378   7.858 -0.8462  0.9100  0.7260
  601MOL0     H79315  10.328  10.584   7.816  0.7081  0.0062  1.9204
  601MOL0     H79316   9.873  10.681   7.723  1.1541 -0.3786 -0.5230
  601MOL0     H79317   9.660  10.801   7.676 -1.1028 -0.2901 -2.1578
  601MOL0     H79318   9.325  11.279   8.857 -2.2702 -0.6499  1.1820
  601MOL0     H79319   9.419  11.233   9.083 -0.9996 -0.3481 -0.2836
  601MOL0     H79320   9.395  11.066   9.513 -0.1139 -0.4001 -3.6037
  601MOL0     H79321   9.492  11.050   9.716 -1.2012 -1.0113 -0.0258
  601MOL0     H79322   9.708  10.978   9.956 -1.3995 -1.0226 -0.5920
  601MOL0     H79323   9.741  11.094   9.823 -2.5590  1.1825  2.0051
  601MOL0     H79324   9.937  10.864   9.906 -1.9903 -0.5284  1.4330
  601MOL0     H79325   9.961  10.988   9.782 -1.3625 -0.1103 -0.5774
  601MOL0     H79326   9.918  11.019  10.090  0.5494  4.4618  1.3690
  601MOL0     H79327   9.933  11.160   9.992 -4.0227 -0.4942 -0.8266
  601MOL0     H79328  10.144  11.093   9.906 -0.9048  3.8490  1.3227
  601MOL0     H79329  10.149  11.133  10.080  1.4675 -0.4635 -1.2268
  601MOL0     H79330  10.292  10.757  10.137  0.5449 -0.2473 -0.5341
  601MOL0     H79331   9.836  10.845   9.541 -0.4961  0.6803  3.3540
  601MOL0     H79332   9.740  10.882   9.317  0.2487  4.1719 -1.3042
  602MOL0     O79333   1.554   2.067  10.813 -0.2205 -0.2964  0.2609
  602MOL0     C79334   1.452   2.061  10.742  0.1207  0.2438 -1.2761
  602MOL0     O79335   1.387   1.948  10.705 -0.2852  0.4085  0.0834
  602MOL0     C79336   1.434   1.823  10.726  0.4494 -0.0954 -0.6458
  602MOL0     C79337   1.367   1.752  10.830  0.4876 -0.0797 -1.1017
  602MOL0     C79338   1.402   1.631  10.869 -0.0082  1.5446 -0.2336
  602MOL0     C79339   1.505   1.558  10.799  0.5940 -0.2327  0.1064
  602MOL0     O79340   1.526   1.429  10.828 -0.1164 -0.1708  0.1382
  602MOL0     C79341   1.575   1.359  10.707  0.1698  0.3573  0.5176
  602MOL0     C79342   1.543   1.201  10.731  0.3201  0.4124 -0.9932
  602MOL0     C79343   1.580   1.117  10.610 -0.7619 -0.1897  0.2549
  602MOL0     C79344   1.559   0.966  10.630 -0.3182  0.0248 -0.5375
  602MOL0     C79345   1.411   0.929  10.643  0.4225 -0.5781  0.3275
  602MOL0     C79346   1.388   0.774  10.670 -0.5083  0.4065  0.0959
  602MOL0     C79347   1.269   0.746  10.769 -0.1265 -0.2812  0.0164
  602MOL0     C79348   1.135   0.788  10.696  0.6747  1.0377  0.1015
  602MOL0     N79349   1.033   0.773  10.801  0.1557 -0.0561 -1.4620
  602MOL0     C79350   0.917   0.702  10.776 -0.1334 -0.4184 -0.0686
  602MOL0     C79351   0.846   0.706  10.896  0.1376 -0.3100  0.4471
  602MOL0     C79352   0.717   0.628  10.922  0.2806 -0.0144  1.0886
  602MOL0     C79353   0.590   0.685  10.845 -0.5761  0.6389  0.6819
  602MOL0     C79354   0.464   0.622  10.901  0.1504 -0.0034 -0.1474
  602MOL0     C79355   0.332   0.689  10.868 -1.2671  0.0506 -0.6402
  602MOL0     O79356   0.324   0.690  10.722  0.4107 -0.3402 -0.5751
  602MOL0     C79357   0.190   0.700  10.676  0.2712  0.7845  0.2411
  602MOL0     C79358   0.165   0.629  10.559 -0.7272  0.3680 -0.8341
  602MOL0     C79359   0.039   0.625  10.502  0.7539  0.6171 -0.6571
  602MOL0     C79360  -0.073   0.683  10.565  0.1208 -0.4684 -0.3509
  602MOL0     C79361  -0.213   0.673  10.516 -0.2230 -0.1207  0.8276
  602MOL0     O79362  -0.300   0.758  10.570  0.4646 -0.3626  0.3922
  602MOL0     C79363  -0.427   0.770  10.522 -0.5172  0.5475  0.1760
  602MOL0     C79364  -0.450   0.835  10.402 -0.1253  0.5257 -0.0181
  602MOL0     C79365  -0.584   0.859  10.366 -0.0389 -0.4825 -0.7146
  602MOL0     C79366  -0.684   0.811  10.436  0.1770 -0.6002  0.7579
  602MOL0     O79367  -0.812   0.830  10.380  0.5619 -0.5510  0.0225
  602MOL0     C79368  -0.928   0.774  10.440  0.8686 -0.0460  0.4861
  602MOL0     C79369  -1.050   0.815  10.361 -0.7530 -0.1269 -0.0341
  602MOL0     C79370  -1.046   0.755  10.215  0.2944  0.5220  0.5324
  602MOL0     C79371  -1.162   0.817  10.125 -0.2948  0.3297 -0.5526
  602MOL0     C79372  -1.203   0.717  10.027 -0.2409 -0.0530  0.0399
  602MOL0     C79373  -1.320   0.777   9.946 -0.9208 -0.1380 -1.1123
  602MOL0     C79374  -1.343   0.712   9.806 -0.3593 -0.3328 -1.2025
  602MOL0     C79375  -1.456   0.766   9.728  0.5646 -0.6542  0.0678
  602MOL0    Cl79376  -1.465   0.706   9.563 -0.0018  0.2434  0.3951
  602MOL0     C79377  -0.658   0.739  10.556 -0.5197  0.5562 -0.4788
  602MOL0     C79378  -0.525   0.722  10.608  0.4602  0.1541 -0.0470
  602MOL0     O79379  -0.237   0.596  10.422 -0.6026  0.4463  0.1840
  602MOL0     C79380  -0.044   0.755  10.684  1.2761  0.1918  0.2698
  602MOL0     C79381   0.080   0.764  10.741 -0.3571  0.2121  0.0933
  602MOL0     N79382   0.911   0.789  10.981  0.1267  0.3700 -0.8179
  602MOL0     N79383   1.022   0.825  10.926 -0.4942 -0.1827 -0.1297
  602MOL0     C79384   1.587   1.634  10.710  0.1828  0.2010 -0.0119
  602MOL0     C79385   1.548   1.763  10.668 -0.4645 -0.6152 -0.5099
  602MOL0     C79386   1.393   2.197  10.702 -0.4910  0.7728 -0.1007
  602MOL0     C79387   1.262   2.205  10.642 -0.4448 -0.5805 -0.0702
  602MOL0     C79388   1.208   2.330  10.608 -0.2245  0.0971 -0.5404
  602MOL0     C79389   1.277   2.447  10.620 -0.0500  0.2412 -1.1059
  602MOL0     O79390   1.224   2.564  10.585 -0.5419 -0.1745 -0.1453
  602MOL0     C79391   1.135   2.554  10.477  0.3507 -0.1926 -0.6116
  602MOL0     C79392   1.110   2.709  10.428 -0.9080  0.2073 -0.0993
  602MOL0     C79393   1.244   2.776  10.392 -0.9379 -0.7671  0.1556
  602MOL0     C79394   1.212   2.898  10.314 -0.0009 -0.8731  0.0993
  602MOL0     C79395   1.334   2.956  10.248 -0.3477 -0.3805 -0.4956
  602MOL0     C79396   1.445   3.013  10.220  0.4587 -1.1166 -0.4653
  602MOL0     C79397   1.405   2.443  10.685 -0.4764 -0.0869  0.5020
  602MOL0     C79398   1.463   2.322  10.719 -0.5703  0.9235  0.0076
  602MOL0     H79399   1.295   1.814  10.882  2.5741  0.6542  1.0804
  602MOL0     H79400   1.350   1.577  10.948 -1.1645  0.2845 -1.7963
  602MOL0     H79401   1.681   1.382  10.693  0.2998 -0.0392  0.8307
  602MOL0     H79402   1.521   1.391  10.617  0.8704  0.8810  0.2796
  602MOL0     H79403   1.440   1.174  10.757  0.0909  0.6343 -1.6518
  602MOL0     H79404   1.610   1.169  10.812 -2.2562  0.8407  1.4758
  602MOL0     H79405   1.687   1.132  10.590 -0.3310 -0.7660  1.9811
  602MOL0     H79406   1.532   1.150  10.517  1.4545  0.1405 -0.8449
  602MOL0     H79407   1.583   0.919  10.534  1.0286 -0.1910 -0.1072
  602MOL0     H79408   1.619   0.937  10.716  1.4049  0.8811 -1.3848
  602MOL0     H79409   1.355   0.954  10.552  1.7650  2.2758  0.1621
  602MOL0     H79410   1.366   0.971  10.734 -0.4416 -0.5506 -0.0988
  602MOL0     H79411   1.469   0.719  10.720 -0.5336  0.1626 -0.1281
  602MOL0     H79412   1.380   0.730  10.570 -0.4271  0.2067  0.1773
  602MOL0     H79413   1.249   0.640  10.788 -2.5563 -0.2072 -1.7178
  602MOL0     H79414   1.289   0.787  10.868  0.3950  0.7299 -0.4971
  602MOL0     H79415   1.113   0.729  10.607  2.3782  0.9177 -0.2834
  602MOL0     H79416   1.145   0.892  10.663 -1.5356  0.4520 -2.7638
  602MOL0     H79417   0.886   0.647  10.687  1.7801 -2.0653  0.2127
  602MOL0     H79418   0.697   0.621  11.029  0.5372 -1.2980  1.0699
  602MOL0     H79419   0.732   0.527  10.883 -2.5764  0.0268 -0.3518
  602MOL0     H79420   0.598   0.678  10.736 -0.8930  3.0037  0.4628
  602MOL0     H79421   0.587   0.793  10.858 -1.4726  0.7128  0.0391
  602MOL0     H79422   0.454   0.515  10.880 -1.8775 -0.1545  1.2438
  602MOL0     H79423   0.474   0.632  11.010 -0.2981  1.7953 -0.2397
  602MOL0     H79424   0.321   0.790  10.907 -1.1382  0.1603 -0.8840
  602MOL0     H79425   0.253   0.620  10.899  0.6981 -2.4545 -0.8658
  602MOL0     H79426   0.248   0.573  10.519  0.7118  0.3090  1.9524
  602MOL0     H79427   0.030   0.575  10.406  3.4039  1.5964 -1.5138
  602MOL0     H79428  -0.369   0.890  10.356 -1.1720  3.9421  1.8459
  602MOL0     H79429  -0.599   0.925  10.280  1.5045 -0.0816 -0.7044
  602MOL0     H79430  -0.934   0.805  10.545 -1.4965 -0.0349  0.4148
  602MOL0     H79431  -0.933   0.666  10.455  0.3130  0.1835  2.2037
  602MOL0     H79432  -1.054   0.924  10.362 -0.7780 -0.1130 -0.9509
  602MOL0     H79433  -1.141   0.778  10.409  0.2918 -0.5933  1.6679
  602MOL0     H79434  -1.045   0.647  10.229  1.3864  0.5156  0.5127
  602MOL0     H79435  -0.952   0.770  10.160  1.5436 -0.9942  2.1394
  602MOL0     H79436  -1.243   0.843  10.194 -0.9618  2.7542 -2.1001
  602MOL0     H79437  -1.131   0.909  10.073  2.3791 -0.0166  0.2718
  602MOL0     H79438  -1.234   0.627  10.081 -1.3620  0.9429  1.1538
  602MOL0     H79439  -1.121   0.690   9.961  1.6567  2.7210  1.0751
  602MOL0     H79440  -1.290   0.880   9.925  1.0555 -0.2573  0.6924
  602MOL0     H79441  -1.412   0.779  10.006 -0.5980  0.1292 -0.6127
  602MOL0     H79442  -1.256   0.741   9.746 -0.7616  1.7911 -0.8577
  602MOL0     H79443  -1.342   0.603   9.809  3.1838 -0.4226 -0.4637
  602MOL0     H79444  -1.450   0.875   9.724 -4.5064 -0.1062  0.4390
  602MOL0     H79445  -1.547   0.733   9.780  0.1704 -0.8951 -0.7462
  602MOL0     H79446  -0.739   0.699  10.616  2.6573  0.2642  4.1985
  602MOL0     H79447  -0.499   0.672  10.701  1.9479  0.8558 -0.0538
  602MOL0     H79448  -0.129   0.784  10.745  1.0413 -0.9256  0.4979
  602MOL0     H79449   0.093   0.813  10.837  1.3064 -2.2324  1.2261
  602MOL0     H79450   1.676   1.599  10.660 -1.0394  0.6353 -2.6611
  602MOL0     H79451   1.593   1.822  10.588  1.4037 -1.9220 -0.4857
  602MOL0     H79452   1.202   2.117  10.623  1.5808 -1.8877 -0.6998
  602MOL0     H79453   1.103   2.317  10.585 -0.1617 -2.2730  0.2045
  602MOL0     H79454   1.039   2.512  10.508  0.8564 -0.2876  0.9394
  602MOL0     H79455   1.167   2.491  10.394  2.7098 -0.2624  0.2442
  602MOL0     H79456   1.050   2.712  10.337  1.4711  2.3641 -1.7571
  602MOL0     H79457   1.066   2.768  10.509 -0.8858 -0.0235  0.0807
  602MOL0     H79458   1.306   2.713  10.327 -1.9033 -0.1973 -1.3789
  602MOL0     H79459   1.304   2.806  10.479  3.3861 -0.2989 -2.6864
  602MOL0     H79460   1.140   2.879  10.233 -1.2469  2.0937  0.4119
  602MOL0     H79461   1.159   2.976  10.369  0.3283 -1.2918  1.0324
  602MOL0     H79462   1.532   3.056  10.174 -0.2706 -1.5480 -2.3458
  602MOL0     H79463   1.451   2.540  10.705 -0.7485 -0.1811  1.6637
  602MOL0     H79464   1.563   2.316  10.761 -1.8161 -0.5440  3.0836
  603MOL0     O79465  10.983   8.623   3.044 -0.3003  0.2964  0.6326
  603MOL0     C79466  11.058   8.607   2.953  0.5624  0.4256  0.0306
  603MOL0     O79467  11.007   8.578   2.826 -0.0147 -0.0528 -0.1289
  603MOL0     C79468  10.875   8.555   2.809  0.5832  0.1790  0.0280
  603MOL0     C79469  10.790   8.658   2.747 -0.4023  0.1562 -0.3067
  603MOL0     C79470  10.662   8.629   2.702 -0.4364 -1.0398  0.0438
  603MOL0     C79471  10.603   8.506   2.740  0.9313  0.3522  0.3604
  603MOL0     O79472  10.466   8.484   2.700 -1.2056  0.8504 -0.4760
  603MOL0     C79473  10.422   8.350   2.680  1.0273 -0.4418 -0.3325
  603MOL0     C79474  10.284   8.373   2.619 -0.6724  0.3500 -0.3347
  603MOL0     C79475  10.201   8.247   2.633 -0.2078 -0.3528 -0.0866
  603MOL0     C79476  10.063   8.268   2.563 -0.4023 -0.1993  0.0897
  603MOL0     C79477   9.958   8.173   2.621 -0.2900  0.4936 -0.9725
  603MOL0     C79478   9.819   8.212   2.583  0.2893 -0.1837  0.3917
  603MOL0     C79479   9.703   8.130   2.649  0.3711 -0.3813 -0.0333
  603MOL0     C79480   9.704   7.992   2.606 -0.3894  0.7600  0.3322
  603MOL0     N79481   9.595   7.918   2.675 -0.1057  0.7454  0.4298
  603MOL0     C79482   9.468   7.964   2.697 -0.2393  0.3190  0.1727
  603MOL0     C79483   9.408   7.870   2.781  0.2771  0.2878 -0.6142
  603MOL0     C79484   9.266   7.862   2.837  0.8234  0.2113  0.2420
  603MOL0     C79485   9.248   7.934   2.962  0.3802  0.1312 -0.3135
  603MOL0     C79486   9.154   7.860   3.064  0.1828  0.4138  0.3919
  603MOL0     C79487   9.024   7.845   3.012 -0.1505  0.2606  0.5036
  603MOL0     O79488   8.928   7.830   3.118 -0.2378 -0.0768 -0.3548
  603MOL0     C79489   8.794   7.830   3.097 -0.3320  0.3145 -0.7969
  603MOL0     C79490   8.731   7.821   2.976  0.0336  0.8504  0.1588
  603MOL0     C79491   8.592   7.823   2.970  0.8166  0.1967  0.3230
  603MOL0     C79492   8.508   7.813   3.089 -1.1479 -0.3124  1.5798
  603MOL0     C79493   8.362   7.797   3.077  0.0076  0.0777 -0.6188
  603MOL0     O79494   8.316   7.806   2.954  0.3637 -0.2314 -0.0583
  603MOL0     C79495   8.185   7.788   2.937 -0.6236 -0.0530  0.6217
  603MOL0     C79496   8.097   7.888   2.963  0.3916 -0.6985  0.2948
  603MOL0     C79497   7.962   7.864   2.977 -0.6099  0.1499  0.5559
  603MOL0     C79498   7.913   7.736   2.951 -0.6198  0.3213 -0.1838
  603MOL0     O79499   7.780   7.727   2.976  0.5312 -0.8753  0.1200
  603MOL0     C79500   7.701   7.634   2.901  0.0894  0.2424 -0.3132
  603MOL0     C79501   7.549   7.666   2.949 -0.5974 -0.2349 -0.7664
  603MOL0     C79502   7.532   7.618   3.097 -1.0321  0.2680 -0.2115
  603MOL0     C79503   7.405   7.666   3.158 -0.2721 -0.6886 -0.4106
  603MOL0     C79504   7.285   7.592   3.096 -0.7257 -0.1108  0.4165
  603MOL0     C79505   7.182   7.588   3.204 -0.0999  0.6510 -0.1766
  603MOL0     C79506   7.039   7.551   3.170 -0.2134  0.2274 -0.1138
  603MOL0     C79507   6.942   7.568   3.293 -0.7989  0.4451  0.7650
  603MOL0    Cl79508   6.914   7.737   3.331 -0.1223 -0.4119 -0.2074
  603MOL0     C79509   7.997   7.633   2.908 -0.1385  0.1753 -0.3157
  603MOL0     C79510   8.134   7.661   2.902  0.0553 -0.1542  0.1670
  603MOL0     O79511   8.300   7.784   3.181  0.4612  0.6222  0.6203
  603MOL0     C79512   8.583   7.811   3.202 -0.4869  0.5356 -0.0667
  603MOL0     C79513   8.715   7.831   3.213 -0.1791  0.4353 -0.6066
  603MOL0     N79514   9.498   7.776   2.807 -0.7445  0.4260  0.7499
  603MOL0     N79515   9.603   7.803   2.748 -0.1660 -0.2164  0.1214
  603MOL0     C79516  10.673   8.409   2.817 -0.3808 -0.1711  0.9768
  603MOL0     C79517  10.813   8.436   2.840 -0.4048  0.4693  0.2621
  603MOL0     C79518  11.197   8.629   2.971  0.3821 -0.3494 -0.0506
  603MOL0     C79519  11.248   8.623   3.107 -0.3149 -0.3645 -0.0908
  603MOL0     C79520  11.380   8.636   3.122  0.5492  0.2305 -0.2558
  603MOL0     C79521  11.474   8.661   3.022 -0.2613 -0.6076  0.8658
  603MOL0     O79522  11.607   8.685   3.051  0.4166  0.3797 -0.4251
  603MOL0     C79523  11.695   8.669   2.941 -0.6100 -0.2258 -0.4229
  603MOL0     C79524  11.837   8.695   2.993  0.6347 -0.2973  0.2276
  603MOL0     C79525  11.943   8.703   2.878  0.4673  0.1826  0.4236
  603MOL0     C79526  12.068   8.628   2.911  0.6972  0.6535 -0.3118
  603MOL0     C79527  12.118   8.686   3.038  1.2990 -0.3369  0.4467
  603MOL0     C79528  12.158   8.739   3.139  0.3562 -0.7678  0.1832
  603MOL0     C79529  11.414   8.667   2.889 -0.0195 -0.1031 -0.0247
  603MOL0     C79530  11.284   8.660   2.866 -0.1611 -0.3128 -1.1209
  603MOL0     H79531  10.843   8.748   2.717 -0.5261 -0.6615 -3.2674
  603MOL0     H79532  10.621   8.703   2.635  0.6609 -1.4383 -1.0852
  603MOL0     H79533  10.402   8.310   2.780 -1.3452  1.9696  0.2637
  603MOL0     H79534  10.483   8.287   2.614  1.2756 -1.6276  0.9828
  603MOL0     H79535  10.298   8.397   2.513 -0.5763  0.9078 -0.1956
  603MOL0     H79536  10.238   8.456   2.673  0.1919 -0.3768  1.6283
  603MOL0     H79537  10.177   8.214   2.735 -0.0880 -1.8919 -0.5203
  603MOL0     H79538  10.243   8.158   2.585  0.2278 -1.4351  2.1512
  603MOL0     H79539  10.031   8.371   2.582 -0.4187 -0.3448  0.8671
  603MOL0     H79540  10.075   8.254   2.455 -1.6160  1.1680 -0.2608
  603MOL0     H79541   9.976   8.167   2.729  1.4347  0.5152 -1.2303
  603MOL0     H79542   9.996   8.077   2.585  1.5752  1.3067 -1.3185
  603MOL0     H79543   9.815   8.188   2.476  0.9773  0.6400  0.1729
  603MOL0     H79544   9.804   8.320   2.590 -0.5041 -0.0589 -2.1909
  603MOL0     H79545   9.699   8.140   2.758  1.3669 -1.0492  0.0672
  603MOL0     H79546   9.610   8.169   2.606 -0.1220 -1.8793 -0.3797
  603MOL0     H79547   9.799   7.943   2.632 -0.6713 -1.6474 -2.6400
  603MOL0     H79548   9.684   7.981   2.499 -1.7594 -2.2540  0.7942
  603MOL0     H79549   9.419   8.046   2.646  0.7769  0.1741 -1.0797
  603MOL0     H79550   9.229   7.760   2.838 -1.6659  1.0609  0.1084
  603MOL0     H79551   9.215   7.921   2.760  1.3390 -0.4905 -0.6625
  603MOL0     H79552   9.227   8.041   2.954  2.7669  0.5618 -1.9222
  603MOL0     H79553   9.349   7.938   3.004 -0.3038  5.2446  1.6250
  603MOL0     H79554   9.202   7.763   3.080 -2.1643 -0.9045 -0.1607
  603MOL0     H79555   9.139   7.914   3.158 -1.7001  1.8255 -0.6591
  603MOL0     H79556   9.007   7.760   2.946  0.8456 -1.0564  1.8678
  603MOL0     H79557   9.004   7.934   2.951  2.2303  0.5714  0.0946
  603MOL0     H79558   8.800   7.832   2.893  3.2754 -0.0260  2.5467
  603MOL0     H79559   8.538   7.805   2.878  1.3343 -1.3729  0.2991
  603MOL0     H79560   8.130   7.989   2.987 -2.9494  0.6271 -0.1213
  603MOL0     H79561   7.896   7.946   3.003  0.0739  0.9853 -0.2600
  603MOL0     H79562   7.730   7.533   2.934  1.6025  1.0798  1.0995
  603MOL0     H79563   7.715   7.648   2.794  2.0873 -0.7907 -0.2429
  603MOL0     H79564   7.487   7.609   2.879 -0.0275  0.0291 -1.4984
  603MOL0     H79565   7.543   7.773   2.929  1.3758 -0.1215 -0.9743
  603MOL0     H79566   7.606   7.653   3.169 -4.0109  1.5418  2.4771
  603MOL0     H79567   7.536   7.508   3.096 -0.2134  0.2792  0.3665
  603MOL0     H79568   7.420   7.653   3.265 -0.0042 -0.0106 -0.3586
  603MOL0     H79569   7.406   7.774   3.138  0.4600 -0.1642  2.1487
  603MOL0     H79570   7.298   7.487   3.066  0.6855 -0.6311  2.5960
  603MOL0     H79571   7.252   7.648   3.009 -0.2684  0.9780  0.9297
  603MOL0     H79572   7.178   7.681   3.263 -0.5781 -0.5417  1.7814
  603MOL0     H79573   7.220   7.505   3.265  1.9723  0.8939 -1.0435
  603MOL0     H79574   7.009   7.613   3.086  1.2856  0.9872 -0.1228
  603MOL0     H79575   7.031   7.446   3.142 -0.1577 -0.0680  0.9293
  603MOL0     H79576   6.993   7.518   3.376 -0.7508 -0.8551 -0.0301
  603MOL0     H79577   6.849   7.518   3.269  0.6013 -1.3590 -1.2541
  603MOL0     H79578   7.960   7.532   2.891 -2.1800  1.0393 -1.3835
  603MOL0     H79579   8.200   7.578   2.881  0.7092  0.1394  0.9851
  603MOL0     H79580   8.531   7.818   3.297 -0.5291 -1.7518  0.1257
  603MOL0     H79581   8.768   7.813   3.306 -0.6668 -3.5583 -0.9051
  603MOL0     H79582  10.616   8.321   2.846  0.3295 -1.0876 -0.2985
  603MOL0     H79583  10.889   8.370   2.880  1.6566  1.3024 -2.0387
  603MOL0     H79584  11.187   8.611   3.197  0.7627  1.9085  1.0230
  603MOL0     H79585  11.413   8.629   3.225  0.2456 -1.7426 -0.2473
  603MOL0     H79586  11.673   8.729   2.852  2.8256 -0.7416 -1.8060
  603MOL0     H79587  11.687   8.564   2.910 -0.7300 -0.3164 -0.0844
  603MOL0     H79588  11.844   8.790   3.047 -1.4217 -0.6776  1.2329
  603MOL0     H79589  11.869   8.619   3.064 -0.5244  0.8056  2.0191
  603MOL0     H79590  11.968   8.808   2.862 -0.0820  0.1047 -1.0700
  603MOL0     H79591  11.898   8.669   2.785 -1.1966 -0.0210  1.2705
  603MOL0     H79592  12.052   8.520   2.923 -0.9438  1.0194  1.0633
  603MOL0     H79593  12.140   8.642   2.829  0.7673 -0.2928 -0.4235
  603MOL0     H79594  12.198   8.788   3.226  0.1104 -0.5282  0.1654
  603MOL0     H79595  11.473   8.686   2.800  0.2205  1.7888  0.4792
  603MOL0     H79596  11.253   8.661   2.762 -2.2276 -1.0699 -0.5643
  604MOL0     O79597   7.394   2.264  10.920  0.2290  0.4372 -0.4522
  604MOL0     C79598   7.389   2.299  11.038  0.3824  0.0229  0.0835
  604MOL0     O79599   7.302   2.248  11.137 -0.1480 -0.3068 -0.3937
  604MOL0     C79600   7.205   2.151  11.122 -0.9454  0.0875  0.2673
  604MOL0     C79601   7.205   2.053  11.026 -0.3298  0.4198  0.3202
  604MOL0     C79602   7.099   1.974  11.001  0.3362 -0.6494  0.0515
  604MOL0     C79603   6.984   1.984  11.083  0.1053 -0.6688  0.1123
  604MOL0     O79604   6.876   1.906  11.047 -0.7829  0.0364  0.0557
  604MOL0     C79605   6.761   1.892  11.130 -0.4357 -0.5789  0.2585
  604MOL0     C79606   6.685   1.770  11.074  0.8355 -0.1310 -0.2440
  604MOL0     C79607   6.542   1.766  11.106  0.2727  0.5180 -0.1693
  604MOL0     C79608   6.468   1.695  10.987 -0.2587  0.2513 -0.0899
  604MOL0     C79609   6.321   1.674  11.029  1.3511 -0.3127  0.3173
  604MOL0     C79610   6.255   1.586  10.922 -0.2315  0.8023 -0.1671
  604MOL0     C79611   6.102   1.582  10.942  0.4135 -0.8975  0.2224
  604MOL0     C79612   6.061   1.524  11.074  0.1066  1.0520  0.2724
  604MOL0     N79613   5.915   1.495  11.072 -0.3613 -0.0163 -1.1060
  604MOL0     C79614   5.823   1.590  11.058  1.2986 -0.1104 -0.6871
  604MOL0     C79615   5.702   1.525  11.063 -0.0297 -0.1157  0.2187
  604MOL0     C79616   5.564   1.590  11.069  0.2511 -0.3431 -0.9397
  604MOL0     C79617   5.495   1.538  11.199 -1.3759 -0.7736  0.7947
  604MOL0     C79618   5.368   1.620  11.222  0.0763  0.4481  0.4110
  604MOL0     C79619   5.306   1.582  11.355  0.3498 -0.2561 -0.6588
  604MOL0     O79620   5.218   1.474  11.337  0.6215  0.1340 -1.1916
  604MOL0     C79621   5.111   1.456  11.434 -0.3596  0.5137 -1.0761
  604MOL0     C79622   5.038   1.566  11.473 -0.1025 -0.3290  0.2096
  604MOL0     C79623   4.927   1.558  11.557  0.3443  0.0907 -0.1732
  604MOL0     C79624   4.887   1.439  11.608 -0.7910 -0.5969  0.6246
  604MOL0     C79625   4.788   1.431  11.713  0.3365 -0.6640  0.7826
  604MOL0     O79626   4.822   1.348  11.811  0.4968  0.5473  0.0268
  604MOL0     C79627   4.733   1.310  11.914  0.2138  0.1977 -0.1896
  604MOL0     C79628   4.593   1.289  11.899 -0.0001 -0.5118 -0.1535
  604MOL0     C79629   4.523   1.235  12.005 -0.7498  0.3991  0.1509
  604MOL0     C79630   4.588   1.183  12.118  0.3285 -0.7057 -0.7867
  604MOL0     O79631   4.517   1.113  12.218 -0.5135 -0.0631  0.3515
  604MOL0     C79632   4.382   1.144  12.242  0.5872  0.5412  0.0712
  604MOL0     C79633   4.351   1.288  12.288  0.4951 -0.8479 -0.2017
  604MOL0     C79634   4.203   1.301  12.317  0.0811 -0.3059 -0.0349
  604MOL0     C79635   4.159   1.257  12.453 -0.3519  0.0011 -0.0896
  604MOL0     C79636   4.017   1.315  12.469  0.2102 -0.0744  0.0818
  604MOL0     C79637   3.952   1.255  12.595  0.4070 -0.5127  0.6027
  604MOL0     C79638   3.807   1.313  12.586 -0.0967 -0.7364 -0.3444
  604MOL0     C79639   3.718   1.291  12.709 -0.2537 -0.0132  0.1392
  604MOL0    Cl79640   3.799   1.387  12.844 -0.3628  0.2447 -0.2366
  604MOL0     C79641   4.726   1.205  12.138  0.2593  0.1611 -0.9349
  604MOL0     C79642   4.794   1.275  12.037  0.7004  0.5311  0.1478
  604MOL0     O79643   4.685   1.501  11.708 -0.7175 -0.1993  0.9779
  604MOL0     C79644   4.958   1.324  11.575 -1.1042 -1.0535 -2.1457
  604MOL0     C79645   5.062   1.332  11.480  0.5549 -0.7884 -0.1396
  604MOL0     N79646   5.727   1.387  11.060  1.0509  0.2552 -0.5655
  604MOL0     N79647   5.852   1.375  11.069 -0.2757  0.7796  0.5213
  604MOL0     C79648   6.985   2.074  11.191  0.4721  0.1308 -0.0074
  604MOL0     C79649   7.098   2.150  11.209  0.4770 -0.2166  0.2028
  604MOL0     C79650   7.473   2.409  11.083 -0.1030 -0.7453  0.1034
  604MOL0     C79651   7.570   2.463  11.004  0.9912 -0.4690 -0.0606
  604MOL0     C79652   7.650   2.564  11.051 -0.7301 -0.0116  0.5075
  604MOL0     C79653   7.655   2.607  11.190 -0.6826  0.2672  0.2769
  604MOL0     O79654   7.747   2.697  11.227 -0.1187 -0.1214 -0.1024
  604MOL0     C79655   7.866   2.636  11.266 -0.5218 -0.3756  0.0820
  604MOL0     C79656   7.984   2.736  11.304  0.9180  0.5711 -0.2832
  604MOL0     C79657   8.115   2.661  11.293 -0.4078 -0.6646 -0.4025
  604MOL0     C79658   8.224   2.753  11.362  0.1096  0.4729  0.0842
  604MOL0     C79659   8.352   2.668  11.353  0.1245 -0.5483 -0.5179
  604MOL0     C79660   8.457   2.605  11.343  0.2747  0.1618 -0.3240
  604MOL0     C79661   7.552   2.566  11.270 -0.0021 -0.0200 -0.5107
  604MOL0     C79662   7.459   2.467  11.215 -0.0967  0.3852  0.0614
  604MOL0     H79663   7.291   2.053  10.959 -0.1938  3.2152  0.3740
  604MOL0     H79664   7.120   1.901  10.924  2.2635 -0.5801  0.4655
  604MOL0     H79665   6.700   1.982  11.118  2.2422  1.1618 -1.4513
  604MOL0     H79666   6.791   1.885  11.235  1.4081  2.9605  0.1437
  604MOL0     H79667   6.718   1.677  11.120 -0.5405 -0.5541 -0.0902
  604MOL0     H79668   6.701   1.761  10.966 -1.9557  0.2540 -0.7514
  604MOL0     H79669   6.507   1.870  11.113 -1.1426  0.0712 -0.2050
  604MOL0     H79670   6.524   1.707  11.196 -2.4516 -0.3967 -1.1967
  604MOL0     H79671   6.474   1.755  10.896  0.4033 -1.1569 -1.0049
  604MOL0     H79672   6.514   1.599  10.963 -1.1572 -0.4624  0.9116
  604MOL0     H79673   6.275   1.773  11.036  0.0810 -0.7493 -1.1138
  604MOL0     H79674   6.323   1.631  11.129  3.8131  2.4452  1.6001
  604MOL0     H79675   6.286   1.484  10.948 -0.9887  0.7035  0.3870
  604MOL0     H79676   6.293   1.608  10.822 -0.5800 -0.7871 -0.6723
  604MOL0     H79677   6.058   1.680  10.920  0.2961 -0.7059  1.2440
  604MOL0     H79678   6.055   1.509  10.876 -3.1636 -1.3545  2.9747
  604MOL0     H79679   6.088   1.578  11.165  0.7030 -1.7041  1.8219
  604MOL0     H79680   6.118   1.431  11.086  1.6259  1.8445 -0.4142
  604MOL0     H79681   5.835   1.695  11.079  0.9305 -0.0829 -0.6095
  604MOL0     H79682   5.507   1.565  10.979 -1.6568  2.1028 -0.5186
  604MOL0     H79683   5.575   1.698  11.080 -1.3441 -0.3169  1.2165
  604MOL0     H79684   5.568   1.542  11.280  0.2019 -0.6984 -0.5767
  604MOL0     H79685   5.472   1.432  11.183 -2.1303 -0.7179  1.4706
  604MOL0     H79686   5.409   1.721  11.227  1.2817 -0.0062  0.2651
  604MOL0     H79687   5.299   1.614  11.137 -0.3243 -1.8066  0.8381
  604MOL0     H79688   5.268   1.673  11.401  1.0402 -0.8985  1.2709
  604MOL0     H79689   5.386   1.553  11.424 -1.9523  1.6976  3.0966
  604MOL0     H79690   5.059   1.665  11.435  0.0314 -0.1686  0.7017
  604MOL0     H79691   4.885   1.655  11.581 -1.4676 -0.6806 -0.0603
  604MOL0     H79692   4.543   1.329  11.812  0.2787 -4.9724 -2.7169
  604MOL0     H79693   4.415   1.235  11.997 -0.6693 -2.0236 -4.0953
  604MOL0     H79694   4.345   1.067  12.311  0.4206 -0.4150 -1.0470
  604MOL0     H79695   4.328   1.131  12.147  0.3832  0.6013  0.1772
  604MOL0     H79696   4.379   1.358  12.208 -0.5744  0.8053  0.8187
  604MOL0     H79697   4.409   1.317  12.376  0.7730 -0.8386 -0.3865
  604MOL0     H79698   4.142   1.251  12.241  2.6430 -1.2354 -1.6202
  604MOL0     H79699   4.191   1.410  12.313  0.1104 -0.2921  0.2862
  604MOL0     H79700   4.177   1.150  12.468 -0.9534  0.1260  1.9198
  604MOL0     H79701   4.224   1.313  12.522 -1.3006  1.8825 -0.6585
  604MOL0     H79702   3.956   1.289  12.382  1.8303 -3.2429 -0.2879
  604MOL0     H79703   4.023   1.424  12.477  0.7717 -0.0532 -0.4664
  604MOL0     H79704   4.008   1.277  12.686  2.2227  2.4685 -1.0591
  604MOL0     H79705   3.958   1.146  12.588  1.8631 -0.4742  0.8950
  604MOL0     H79706   3.821   1.421  12.574  0.0292 -0.7042  0.0658
  604MOL0     H79707   3.760   1.266  12.499 -4.3549 -1.3965  2.0514
  604MOL0     H79708   3.703   1.185  12.734 -0.6893 -0.1128 -0.5226
  604MOL0     H79709   3.621   1.334  12.684 -2.0566 -1.9902  3.0583
  604MOL0     H79710   4.773   1.171  12.230  1.6562  0.7431 -1.4033
  604MOL0     H79711   4.900   1.300  12.045  1.1552 -0.1373 -2.6310
  604MOL0     H79712   4.941   1.230  11.626  0.0276  0.4959  1.3493
  604MOL0     H79713   5.119   1.244  11.450  4.0666  0.9894  0.8492
  604MOL0     H79714   6.899   2.092  11.255 -0.2860  2.7870 -1.6048
  604MOL0     H79715   7.106   2.222  11.290 -2.7348 -0.7240  1.0769
  604MOL0     H79716   7.589   2.431  10.902 -1.8635  1.0233 -1.1737
  604MOL0     H79717   7.721   2.609  10.983 -2.5207 -0.4589 -1.8097
  604MOL0     H79718   7.909   2.571  11.189  2.8327  0.3751  1.1398
  604MOL0     H79719   7.847   2.576  11.356 -1.8032  0.5539  0.4520
  604MOL0     H79720   7.980   2.814  11.227  0.8897 -1.9344 -2.9883
  604MOL0     H79721   7.965   2.770  11.406 -0.8826 -0.8301 -0.0983
  604MOL0     H79722   8.135   2.651  11.186 -1.6289  0.4667 -0.7567
  604MOL0     H79723   8.111   2.562  11.339  0.8143 -1.2292 -1.4562
  604MOL0     H79724   8.257   2.841  11.304  2.3828  0.4258  1.1833
  604MOL0     H79725   8.209   2.778  11.467  2.0332 -2.5565  1.2075
  604MOL0     H79726   8.540   2.541  11.321 -0.7355 -2.2128  2.2160
  604MOL0     H79727   7.550   2.594  11.375 -0.2034 -0.4889 -0.3883
  604MOL0     H79728   7.372   2.430  11.268 -0.8969 -0.3139 -1.6918
  605MOL0     O79729   3.050   6.023   4.280  0.2370  0.2192 -0.2219
  605MOL0     C79730   2.990   6.114   4.217 -0.2859 -0.5873  0.0819
  605MOL0     O79731   3.024   6.157   4.088  0.0369 -0.2772  1.0057
  605MOL0     C79732   3.143   6.126   4.026  0.2350 -0.0850 -0.3900
  605MOL0     C79733   3.250   6.039   4.067  0.5121  0.9407  0.5421
  605MOL0     C79734   3.362   6.030   3.990  0.7775 -0.4199  0.2114
  605MOL0     C79735   3.382   6.120   3.881 -0.6896  0.2771 -0.7052
  605MOL0     O79736   3.497   6.135   3.811 -0.7163 -0.3265 -0.7445
  605MOL0     C79737   3.626   6.140   3.880  0.1008 -0.3386  1.2038
  605MOL0     C79738   3.702   6.007   3.879  0.1762 -0.2442 -0.3168
  605MOL0     C79739   3.753   5.981   3.737 -0.0136 -0.6641 -0.2485
  605MOL0     C79740   3.897   6.041   3.738 -0.2755  0.4520 -0.0636
  605MOL0     C79741   3.965   6.018   3.592  0.3997 -0.5047 -1.0848
  605MOL0     C79742   4.035   5.880   3.587 -0.2237  0.0631 -0.3244
  605MOL0     C79743   4.115   5.860   3.469 -0.0334  0.1552 -0.5364
  605MOL0     C79744   4.161   5.715   3.438  0.3915 -0.6094  0.1592
  605MOL0     N79745   4.307   5.726   3.397  0.2068  0.6839 -0.0220
  605MOL0     C79746   4.361   5.746   3.272 -0.1639 -0.7271  0.3284
  605MOL0     C79747   4.497   5.730   3.284 -0.1579  0.4181  0.8136
  605MOL0     C79748   4.594   5.757   3.169 -0.9914 -0.2837 -0.0875
  605MOL0     C79749   4.671   5.889   3.183 -0.2610 -0.8481  0.2266
  605MOL0     C79750   4.576   6.010   3.208 -0.5875  0.2005  0.1382
  605MOL0     C79751   4.471   6.024   3.098  0.0500  0.1128  0.6699
  605MOL0     O79752   4.407   6.147   3.114 -0.6583  0.2099 -0.5298
  605MOL0     C79753   4.292   6.156   3.186  0.1573 -0.3605  0.3530
  605MOL0     C79754   4.166   6.152   3.122 -0.8732 -0.3777  0.1832
  605MOL0     C79755   4.054   6.195   3.189  0.6807 -0.4151 -0.3546
  605MOL0     C79756   4.058   6.248   3.318 -0.2907 -0.4000  0.0852
  605MOL0     C79757   3.930   6.283   3.387 -0.1757  0.1775 -0.5708
  605MOL0     O79758   3.822   6.208   3.331 -0.0839  0.4100 -0.4486
  605MOL0     C79759   3.695   6.228   3.376 -0.1654 -0.6860  0.4925
  605MOL0     C79760   3.593   6.189   3.285 -0.9789 -0.5056 -0.0546
  605MOL0     C79761   3.460   6.200   3.323 -0.2834 -0.5344  0.0583
  605MOL0     C79762   3.422   6.245   3.451  0.1968  0.3907  0.5140
  605MOL0     O79763   3.296   6.254   3.500 -0.2155 -0.2722  0.1571
  605MOL0     C79764   3.180   6.243   3.413  0.4170 -0.3022  0.0418
  605MOL0     C79765   3.049   6.250   3.497  0.0273  0.2463  0.1841
  605MOL0     C79766   2.984   6.114   3.525  0.5909  0.2074  0.1496
  605MOL0     C79767   2.856   6.138   3.606 -0.8458 -0.0448 -0.1476
  605MOL0     C79768   2.815   5.999   3.657  0.2485 -0.1834  0.3222
  605MOL0     C79769   2.676   6.011   3.709 -0.3453  0.0447  0.2821
  605MOL0     C79770   2.662   6.118   3.823  0.6418 -0.0508 -0.1600
  605MOL0     C79771   2.528   6.108   3.890  0.3965  0.7275 -0.4840
  605MOL0    Cl79772   2.507   5.940   3.948 -0.1763 -0.2058 -0.0441
  605MOL0     C79773   3.526   6.281   3.534 -0.2603 -0.0632 -0.5185
  605MOL0     C79774   3.666   6.272   3.509  0.5904  0.0430  1.4570
  605MOL0     O79775   3.924   6.386   3.456 -0.2929  0.6182 -0.3016
  605MOL0     C79776   4.183   6.256   3.377 -0.2527 -0.7364 -0.0924
  605MOL0     C79777   4.293   6.202   3.319  0.3833  0.4640  0.4214
  605MOL0     N79778   4.526   5.694   3.413 -0.4887 -0.5584 -0.3520
  605MOL0     N79779   4.410   5.675   3.471 -0.2045  0.0271 -0.5934
  605MOL0     C79780   3.276   6.204   3.838  0.4629  0.0138  0.0436
  605MOL0     C79781   3.157   6.188   3.904 -0.4593  0.6137  0.6712
  605MOL0     C79782   2.847   6.149   4.260 -0.3991 -0.2589 -0.3868
  605MOL0     C79783   2.776   6.252   4.197 -1.0398  0.1889  0.3088
  605MOL0     C79784   2.652   6.288   4.247 -0.3803 -0.2288 -0.1036
  605MOL0     C79785   2.590   6.225   4.353  0.1070  0.0936  0.3412
  605MOL0     O79786   2.462   6.249   4.394 -0.2529  0.1411 -0.1285
  605MOL0     C79787   2.366   6.201   4.308  0.1038 -0.4578 -0.5668
  605MOL0     C79788   2.357   6.049   4.292 -1.5114 -0.0642  0.5095
  605MOL0     C79789   2.228   6.023   4.218 -0.0937 -0.2695 -0.4777
  605MOL0     C79790   2.211   6.078   4.084 -0.1751  0.0278  0.8562
  605MOL0     C79791   2.098   6.029   4.008  0.2326  0.1368  0.7475
  605MOL0     C79792   2.015   5.985   3.938 -0.3043 -0.8588  0.5762
  605MOL0     C79793   2.662   6.131   4.416  1.0306  0.0124 -0.6259
  605MOL0     C79794   2.787   6.082   4.370  0.2976 -0.3174  0.3437
  605MOL0     H79795   3.241   5.973   4.153  2.9740  1.4194  1.2466
  605MOL0     H79796   3.443   5.960   4.012  1.2715 -0.1237 -0.6518
  605MOL0     H79797   3.614   6.183   3.980 -1.1076 -0.4348  1.1153
  605MOL0     H79798   3.689   6.207   3.822 -0.7717 -2.5902 -2.7257
  605MOL0     H79799   3.630   5.931   3.911  0.0749 -0.6037 -1.3741
  605MOL0     H79800   3.786   6.004   3.949  1.1818 -4.0912 -1.4831
  605MOL0     H79801   3.686   6.021   3.661 -1.9643 -4.2573 -0.6263
  605MOL0     H79802   3.753   5.873   3.718  3.5581 -0.6540 -0.9578
  605MOL0     H79803   3.892   6.144   3.773 -2.2910 -0.4564  2.6601
  605MOL0     H79804   3.960   5.978   3.802 -2.4590 -0.5402  1.2266
  605MOL0     H79805   4.037   6.099   3.575 -0.8675  1.1058  0.7337
  605MOL0     H79806   3.888   6.026   3.515  0.1256  0.1121 -0.7503
  605MOL0     H79807   3.960   5.801   3.583  2.6066 -2.7994 -1.5543
  605MOL0     H79808   4.100   5.866   3.674  0.5768 -4.9282 -1.4296
  605MOL0     H79809   4.050   5.886   3.385 -0.7842  0.9064  0.2481
  605MOL0     H79810   4.204   5.923   3.465  0.3876 -0.2170  1.7124
  605MOL0     H79811   4.096   5.680   3.358  2.4345 -0.2195 -1.7806
  605MOL0     H79812   4.144   5.658   3.530 -2.9215  0.9911  0.6715
  605MOL0     H79813   4.296   5.768   3.187 -1.3231 -1.4752  0.9933
  605MOL0     H79814   4.531   5.747   3.080  1.5311 -1.4835 -1.8658
  605MOL0     H79815   4.670   5.681   3.149 -1.0268 -0.3126 -0.1124
  605MOL0     H79816   4.715   5.916   3.087 -1.2051  1.4413  0.3810
  605MOL0     H79817   4.745   5.871   3.262 -2.3488 -3.3281  1.7876
  605MOL0     H79818   4.535   5.994   3.309  1.6650 -3.8381  0.6324
  605MOL0     H79819   4.635   6.102   3.209 -0.5972  0.2019  0.7858
  605MOL0     H79820   4.390   5.951   3.097  3.3660 -3.9624  0.8739
  605MOL0     H79821   4.517   6.012   2.999 -2.3162  2.0551 -0.7915
  605MOL0     H79822   4.142   6.119   3.022 -3.5621  1.9246 -0.0488
  605MOL0     H79823   3.954   6.179   3.150  0.8351 -0.6669 -0.6541
  605MOL0     H79824   3.623   6.138   3.194 -0.6460 -0.0614 -0.1994
  605MOL0     H79825   3.395   6.144   3.256  0.7888  0.5968 -2.0427
  605MOL0     H79826   3.188   6.162   3.340  0.8629  1.0211 -1.4591
  605MOL0     H79827   3.179   6.337   3.356 -3.9632 -0.1663  0.0215
  605MOL0     H79828   2.973   6.315   3.451  1.1060  0.9925 -0.5837
  605MOL0     H79829   3.074   6.287   3.597  1.8519 -0.7378  0.1300
  605MOL0     H79830   3.043   6.050   3.593  1.8463 -1.1791 -2.1110
  605MOL0     H79831   2.964   6.064   3.430 -0.2809 -2.0897  1.4358
  605MOL0     H79832   2.887   6.200   3.691  1.7486  0.4744 -1.3812
  605MOL0     H79833   2.788   6.186   3.536  1.8696  0.1117 -2.9117
  605MOL0     H79834   2.881   5.967   3.738 -0.7058 -0.6225  0.9400
  605MOL0     H79835   2.826   5.921   3.581  0.1739 -1.6162  1.7206
  605MOL0     H79836   2.658   5.906   3.736  4.0810 -0.9451  0.1826
  605MOL0     H79837   2.617   6.051   3.626  0.2098  0.3221  0.0171
  605MOL0     H79838   2.732   6.087   3.902 -2.6294  2.0554  3.9963
  605MOL0     H79839   2.690   6.219   3.791  3.3713 -0.9615 -0.9450
  605MOL0     H79840   2.449   6.128   3.816  1.4118  0.3984 -1.6918
  605MOL0     H79841   2.523   6.176   3.975  0.5405  0.6709 -0.4309
  605MOL0     H79842   3.494   6.317   3.631 -3.3016 -0.4316 -1.2915
  605MOL0     H79843   3.736   6.293   3.589  0.8757 -1.0920  1.5099
  605MOL0     H79844   4.193   6.297   3.477 -1.7340 -1.4203  0.3715
  605MOL0     H79845   4.388   6.204   3.372  0.1075 -2.6129  1.2604
  605MOL0     H79846   3.288   6.277   3.759 -1.3116  2.5734  1.9366
  605MOL0     H79847   3.073   6.248   3.871 -0.8279 -0.8199 -1.2082
  605MOL0     H79848   2.811   6.312   4.114 -2.4950 -0.7126 -1.0121
  605MOL0     H79849   2.592   6.365   4.200  0.1273  0.6261  0.6234
  605MOL0     H79850   2.383   6.254   4.214  2.4495 -1.3839 -0.7299
  605MOL0     H79851   2.271   6.241   4.344 -0.7088 -0.1395 -2.9192
  605MOL0     H79852   2.444   6.016   4.234 -2.0221 -0.1400 -0.2185
  605MOL0     H79853   2.352   6.003   4.391 -1.2062  2.3244  1.7142
  605MOL0     H79854   2.141   6.056   4.276 -0.7993 -0.7213 -1.2534
  605MOL0     H79855   2.206   5.917   4.199  0.5163 -0.2372 -1.4475
  605MOL0     H79856   2.183   6.183   4.098 -1.7747 -0.4121  1.1796
  605MOL0     H79857   2.304   6.079   4.026  0.3581  0.4271  1.6891
  605MOL0     H79858   1.933   5.949   3.878 -1.3777  0.7827  0.9916
  605MOL0     H79859   2.608   6.090   4.501  2.0650  2.3195  1.2702
  605MOL0     H79860   2.833   6.002   4.426  3.9239  0.6975 -0.9353
  606MOL0     O79861   5.756   2.471   0.683  0.0158  0.2816 -0.2031
  606MOL0     C79862   5.794   2.368   0.638 -0.2724 -0.3285 -0.5183
  606MOL0     O79863   5.719   2.251   0.629  0.1914 -0.5833  0.3771
  606MOL0     C79864   5.605   2.244   0.695  0.4359 -0.3969 -0.1182
  606MOL0     C79865   5.605   2.232   0.834  0.5215  0.2310  0.3313
  606MOL0     C79866   5.475   2.205   0.907  0.4945  0.5671 -0.1429
  606MOL0     C79867   5.356   2.208   0.834  0.1120 -0.0516  0.3018
  606MOL0     O79868   5.236   2.204   0.898 -0.0105 -0.0974 -0.4981
  606MOL0     C79869   5.109   2.197   0.827  0.6872  0.8865  0.4665
  606MOL0     C79870   4.995   2.189   0.917  0.3281 -0.7284 -0.6273
  606MOL0     C79871   4.996   2.081   1.029 -0.0809 -0.6761 -0.5069
  606MOL0     C79872   4.878   2.092   1.135  0.0884  0.5554 -0.3000
  606MOL0     C79873   4.746   2.051   1.076 -0.1363  0.2003  0.5163
  606MOL0     C79874   4.640   2.046   1.181  0.0422 -0.0461 -0.3672
  606MOL0     C79875   4.610   2.187   1.252  0.2882  0.9127  0.1507
  606MOL0     C79876   4.478   2.193   1.321 -0.1854  0.4747 -0.7017
  606MOL0     N79877   4.419   2.332   1.328 -0.0254  0.2001  0.7287
  606MOL0     C79878   4.448   2.424   1.426  0.5797 -0.5202 -0.5237
  606MOL0     C79879   4.364   2.526   1.401  0.6308 -0.1543  0.1738
  606MOL0     C79880   4.345   2.654   1.484  0.0100 -0.2001  0.4204
  606MOL0     C79881   4.209   2.651   1.571 -0.2707  0.1198  0.3361
  606MOL0     C79882   4.085   2.648   1.485 -0.0315 -0.4683  0.0371
  606MOL0     C79883   3.962   2.643   1.575  0.7273 -0.5073 -0.2356
  606MOL0     O79884   3.842   2.646   1.488 -0.1016  0.9595 -0.3635
  606MOL0     C79885   3.726   2.650   1.555 -0.1373  0.0969 -0.0016
  606MOL0     C79886   3.623   2.697   1.481  0.1051 -0.0790  0.4312
  606MOL0     C79887   3.499   2.710   1.530 -0.8322  0.2717 -0.0091
  606MOL0     C79888   3.475   2.681   1.664 -0.0517  0.9267  0.2246
  606MOL0     C79889   3.343   2.717   1.724 -0.8637  0.5914 -0.7358
  606MOL0     O79890   3.262   2.811   1.659  0.2880  0.1338  0.8502
  606MOL0     C79891   3.151   2.863   1.728  0.0617 -0.0886 -0.5018
  606MOL0     C79892   3.032   2.887   1.667  0.8028  0.4063  0.4479
  606MOL0     C79893   2.919   2.936   1.740 -0.5873  0.5528  0.0423
  606MOL0     C79894   2.920   2.953   1.882 -1.1243 -0.2846  0.1758
  606MOL0     O79895   2.802   2.975   1.944  0.1371  0.0196  0.2304
  606MOL0     C79896   2.805   3.011   2.077 -0.0709  0.6521 -0.3411
  606MOL0     C79897   2.692   3.108   2.103  1.0833  0.4021 -0.0466
  606MOL0     C79898   2.552   3.021   2.102  0.1533  0.9392  0.8629
  606MOL0     C79899   2.437   3.129   2.111  0.1252 -1.3763 -0.3519
  606MOL0     C79900   2.302   3.064   2.131  0.3215  0.0728  0.4042
  606MOL0     C79901   2.285   3.054   2.285  0.2912  0.3577  0.1467
  606MOL0     C79902   2.163   2.950   2.322  0.0641  0.1698 -0.4350
  606MOL0     C79903   2.199   2.819   2.391 -1.0164  0.2263  0.5728
  606MOL0    Cl79904   2.260   2.872   2.556  0.3845 -0.1304  0.0747
  606MOL0     C79905   3.049   2.948   1.942 -0.2327 -0.2535  0.1258
  606MOL0     C79906   3.160   2.898   1.865  0.1685 -0.2472 -0.2615
  606MOL0     O79907   3.305   2.651   1.816 -0.4540  0.4967 -0.8210
  606MOL0     C79908   3.578   2.632   1.741 -0.4901 -0.1791  0.4669
  606MOL0     C79909   3.704   2.612   1.686 -0.3237 -0.3499  0.6091
  606MOL0     N79910   4.291   2.503   1.279  1.0285 -0.1408 -0.4672
  606MOL0     N79911   4.323   2.383   1.242 -0.2529  0.4334 -0.4602
  606MOL0     C79912   5.357   2.236   0.697 -0.0798 -0.7940 -0.2082
  606MOL0     C79913   5.477   2.245   0.626 -0.1573 -0.2109  0.1169
  606MOL0     C79914   5.931   2.365   0.591  0.3120 -0.4005  0.7385
  606MOL0     C79915   5.987   2.241   0.559 -0.1736 -0.5501 -0.0350
  606MOL0     C79916   6.114   2.236   0.508  0.2585 -0.5562 -0.5436
  606MOL0     C79917   6.198   2.346   0.501  0.3798  0.0589  0.3792
  606MOL0     O79918   6.326   2.320   0.458  0.4185 -0.0640 -0.3167
  606MOL0     C79919   6.425   2.395   0.534  0.2833 -0.2141  0.6512
  606MOL0     C79920   6.571   2.335   0.511 -0.0115  0.1093  1.1169
  606MOL0     C79921   6.677   2.412   0.573  0.0597 -0.1781  0.4748
  606MOL0     C79922   6.690   2.562   0.550 -0.0963 -0.3005  0.1273
  606MOL0     C79923   6.698   2.593   0.409  0.1742 -0.2500  0.8026
  606MOL0     C79924   6.713   2.631   0.296  0.1714  0.1932  0.6396
  606MOL0     C79925   6.143   2.471   0.516  0.6017 -0.0272  0.0026
  606MOL0     C79926   6.015   2.473   0.572  0.0204 -0.2114  0.4647
  606MOL0     H79927   5.700   2.228   0.887  1.2473  1.3358 -0.8260
  606MOL0     H79928   5.464   2.171   1.009 -0.1221  0.8400 -0.1152
  606MOL0     H79929   5.115   2.100   0.775 -0.4913  0.2492  1.4642
  606MOL0     H79930   5.093   2.288   0.769  0.0597  0.9455  0.7359
  606MOL0     H79931   4.903   2.171   0.860  0.3559  0.6606 -1.1281
  606MOL0     H79932   4.976   2.285   0.965  1.0645 -1.6939  1.7327
  606MOL0     H79933   5.084   2.095   1.093  0.2626  0.9844 -1.2820
  606MOL0     H79934   5.005   1.984   0.979  0.3355  0.3643 -2.5551
  606MOL0     H79935   4.902   2.036   1.226  0.1636  2.3069  0.8033
  606MOL0     H79936   4.869   2.194   1.174 -1.0861 -0.8231  3.4963
  606MOL0     H79937   4.768   1.956   1.027  0.6693  0.9978 -0.7356
  606MOL0     H79938   4.726   2.117   0.992  1.4679 -1.5848 -1.3794
  606MOL0     H79939   4.678   1.975   1.255 -1.8891 -2.1576 -1.3091
  606MOL0     H79940   4.551   2.001   1.138 -0.5553 -0.9188  1.6448
  606MOL0     H79941   4.681   2.189   1.335  0.6563  1.3093 -0.1674
  606MOL0     H79942   4.624   2.277   1.191 -0.4572  2.6304  2.3372
  606MOL0     H79943   4.497   2.145   1.417 -0.1296  1.3988 -0.2380
  606MOL0     H79944   4.402   2.127   1.276  1.6868 -1.9132 -0.5619
  606MOL0     H79945   4.517   2.406   1.508  2.3942 -0.1223 -1.8987
  606MOL0     H79946   4.367   2.746   1.429 -1.0112  1.3972  2.5454
  606MOL0     H79947   4.424   2.659   1.559 -0.0333 -0.5584  0.4899
  606MOL0     H79948   4.208   2.748   1.622 -2.1320 -0.9256  2.4627
  606MOL0     H79949   4.208   2.566   1.640  0.2890 -0.6922 -0.6277
  606MOL0     H79950   4.067   2.738   1.425  0.5179  1.6386  2.7688
  606MOL0     H79951   4.080   2.560   1.421 -2.2831 -0.5521  0.2547
  606MOL0     H79952   3.966   2.730   1.640  1.8636  0.0226 -0.9925
  606MOL0     H79953   3.960   2.554   1.638 -2.9020 -0.3484  0.0820
  606MOL0     H79954   3.642   2.726   1.378 -4.9765  0.5087 -0.6242
  606MOL0     H79955   3.427   2.748   1.457 -0.8194 -0.1809 -0.2606
  606MOL0     H79956   3.019   2.862   1.562  0.8772 -0.9482  0.7352
  606MOL0     H79957   2.829   2.963   1.686 -0.1731  1.5371 -0.1835
  606MOL0     H79958   2.894   3.063   2.112 -0.3303 -0.1597  1.7071
  606MOL0     H79959   2.788   2.924   2.142 -1.8328  1.8359  0.8944
  606MOL0     H79960   2.687   3.180   2.021 -2.4684 -1.3640 -1.5917
  606MOL0     H79961   2.707   3.155   2.201  0.3025  0.3870  0.0847
  606MOL0     H79962   2.554   2.940   2.176  1.3517  0.9292  0.8243
  606MOL0     H79963   2.542   2.970   2.006  1.4639  1.3435  0.4970
  606MOL0     H79964   2.470   3.200   2.188  1.0241 -3.1616  0.9737
  606MOL0     H79965   2.443   3.183   2.015  0.0434 -0.2984  0.2287
  606MOL0     H79966   2.312   2.967   2.080  0.5586  0.0601  0.4766
  606MOL0     H79967   2.219   3.121   2.087 -0.8933  0.0970  2.5750
  606MOL0     H79968   2.264   3.148   2.337 -0.2995  0.2389  0.1325
  606MOL0     H79969   2.373   3.007   2.331  0.9209  0.7474 -0.6516
  606MOL0     H79970   2.085   2.994   2.384 -0.1271  0.7545 -1.0813
  606MOL0     H79971   2.118   2.925   2.225  1.2152 -1.1337 -0.6753
  606MOL0     H79972   2.279   2.763   2.341 -1.4746  1.9295 -2.2451
  606MOL0     H79973   2.125   2.739   2.384 -0.1715 -0.4746 -0.7148
  606MOL0     H79974   3.069   2.964   2.048  3.0082 -1.9678 -0.0965
  606MOL0     H79975   3.266   2.895   1.891  1.4963 -1.2000 -4.7327
  606MOL0     H79976   3.563   2.619   1.848  1.9657  1.8031  1.1496
  606MOL0     H79977   3.785   2.576   1.748 -1.5391  0.1739  2.6156
  606MOL0     H79978   5.268   2.249   0.636 -0.0356  0.1759 -0.0830
  606MOL0     H79979   5.468   2.252   0.518  0.4840 -4.8672 -0.4350
  606MOL0     H79980   5.920   2.155   0.557 -0.7077 -0.1531  0.3770
  606MOL0     H79981   6.156   2.143   0.472 -0.9754 -0.9605 -0.9951
  606MOL0     H79982   6.413   2.387   0.643 -1.4629 -0.7647  0.4581
  606MOL0     H79983   6.414   2.501   0.509  1.4233 -0.1591  0.3328
  606MOL0     H79984   6.562   2.231   0.545 -1.6218  0.3891  1.6682
  606MOL0     H79985   6.575   2.329   0.402  1.0321  0.4599  1.1311
  606MOL0     H79986   6.771   2.375   0.529 -0.0888  0.1249 -0.1070
  606MOL0     H79987   6.684   2.395   0.680  2.5481  1.2661  0.6295
  606MOL0     H79988   6.607   2.619   0.593  2.1827  4.0620 -0.6900
  606MOL0     H79989   6.778   2.600   0.602 -1.8139 -0.4295  3.3775
  606MOL0     H79990   6.732   2.665   0.196 -1.1478 -1.1741 -0.1252
  606MOL0     H79991   6.187   2.569   0.506  3.6056 -1.1752  0.9736
  606MOL0     H79992   5.977   2.570   0.603  0.3700 -0.1240  0.6353
  607MOL0     O79993   9.953  10.572   9.677 -0.3325  0.3289 -0.0967
  607MOL0     C79994   9.831  10.572   9.686 -0.0433  0.2546  0.0586
  607MOL0     O79995   9.765  10.589   9.798 -0.3031 -0.7124 -0.0228
  607MOL0     C79996   9.811  10.541   9.916  0.6350 -0.7262 -0.3733
  607MOL0     C79997   9.736  10.442   9.983 -0.2491  0.3377  0.0983
  607MOL0     C79998   9.773  10.393  10.107  0.4889  0.6513 -0.1466
  607MOL0     C79999   9.880  10.447  10.179 -0.2975 -0.4713 -0.4250
  607MOL0     O80000   9.900  10.423  10.313 -0.3187  0.3621 -0.2583
  607MOL0     C80001   9.993  10.500  10.391 -0.5871 -0.5398  0.8736
  607MOL0     C80002   9.983  10.441  10.521  0.9756 -0.1994 -0.1654
  607MOL0     C80003  10.095  10.481  10.621 -0.4693  0.7467  0.8542
  607MOL0     C80004  10.042  10.453  10.759 -0.3059 -0.2511 -0.6206
  607MOL0     C80005  10.126  10.508  10.874 -0.0623  0.2912  0.0512
  607MOL0     C80006  10.095  10.426  11.003 -0.5198  0.1126  0.6148
  607MOL0     C80007  10.157  10.489  11.127  0.8737 -0.0780 -0.7121
  607MOL0     C80008  10.317  10.488  11.116  0.5073  1.1230  0.7591
  607MOL0     N80009  10.369  10.354  11.080  0.7543 -0.6427  0.4763
  607MOL0     C80010  10.385  10.250  11.170 -0.6872  0.0816  0.8872
  607MOL0     C80011  10.464  10.161  11.106 -0.9003  0.4668 -0.3704
  607MOL0     C80012  10.505  10.033  11.170 -0.0293  0.7938 -0.2202
  607MOL0     C80013  10.486   9.901  11.089  0.2288 -0.0459  0.2223
  607MOL0     C80014  10.576   9.792  11.150  0.4554 -0.2458 -0.2826
  607MOL0     C80015  10.505   9.725  11.271  0.0681  0.0886  0.4379
  607MOL0     O80016  10.367   9.698  11.239  0.4827 -0.0747  0.1157
  607MOL0     C80017  10.273   9.668  11.336 -0.6054  0.3409  0.3121
  607MOL0     C80018  10.312   9.618  11.463  0.4802  0.0033  0.1978
  607MOL0     C80019  10.212   9.577  11.558 -0.3511  0.2723 -0.1916
  607MOL0     C80020  10.080   9.568  11.520  0.3067 -0.0019 -1.0498
  607MOL0     C80021   9.976   9.521  11.617 -0.6246 -0.4542 -0.1466
  607MOL0     O80022   9.861   9.596  11.627  0.0360  0.1577 -0.2679
  607MOL0     C80023   9.751   9.541  11.690  0.0870  0.0694  0.0097
  607MOL0     C80024   9.650   9.631  11.709 -0.2522  0.1541  0.9694
  607MOL0     C80025   9.523   9.593  11.743  0.6674  0.1431  0.8189
  607MOL0     C80026   9.492   9.464  11.777 -0.9480  0.0750  0.2163
  607MOL0     O80027   9.364   9.442  11.815  0.2534 -0.0044  0.1331
  607MOL0     C80028   9.290   9.372  11.718  1.2386  0.2019 -0.9193
  607MOL0     C80029   9.159   9.337  11.784  0.0817 -0.6123 -0.9371
  607MOL0     C80030   9.062   9.256  11.683  0.9948 -0.3904 -0.3936
  607MOL0     C80031   8.935   9.213  11.758  0.8181  0.1520  0.4251
  607MOL0     C80032   8.858   9.085  11.700 -0.1090 -0.3731  0.6387
  607MOL0     C80033   8.841   8.979  11.815 -1.2023 -0.1195  0.5329
  607MOL0     C80034   8.717   8.993  11.899  0.4756  0.1963 -0.7250
  607MOL0     C80035   8.711   8.896  12.025  0.8255  0.3042 -0.4562
  607MOL0    Cl80036   8.701   8.733  11.967  0.2216 -0.2073  0.0610
  607MOL0     C80037   9.596   9.362  11.766  1.2587  0.6471  1.0949
  607MOL0     C80038   9.715   9.408  11.724 -0.1297  0.6224 -0.1994
  607MOL0     O80039  10.013   9.420  11.684 -0.3770 -0.8226  0.9022
  607MOL0     C80040  10.046   9.627  11.400 -0.3842 -0.1228 -0.1198
  607MOL0     C80041  10.136   9.666  11.305 -0.2156 -0.0294  0.1728
  607MOL0     N80042  10.500  10.209  10.983  0.2989  0.7156  0.6455
  607MOL0     N80043  10.434  10.328  10.968 -0.2970 -0.2418  0.2741
  607MOL0     C80044   9.948  10.546  10.116  0.1781 -0.7869  1.3376
  607MOL0     C80045   9.918  10.594   9.987 -0.5366 -0.0726  0.0587
  607MOL0     C80046   9.750  10.575   9.562 -0.3029 -0.2233 -0.6053
  607MOL0     C80047   9.813  10.571   9.438  0.0150  0.1985  0.8891
  607MOL0     C80048   9.750  10.571   9.318 -1.0332 -0.5623  0.3338
  607MOL0     C80049   9.610  10.579   9.321 -0.4656 -0.0001 -0.1763
  607MOL0     O80050   9.546  10.570   9.196  0.2664  0.6028 -0.3749
  607MOL0     C80051   9.405  10.572   9.184  0.6553  0.4199 -0.1126
  607MOL0     C80052   9.364  10.545   9.037 -0.7792 -0.9290 -0.4280
  607MOL0     C80053   9.220  10.474   9.033 -0.0198 -0.7570 -0.6941
  607MOL0     C80054   9.138  10.491   8.903 -0.7507 -0.2131  0.0882
  607MOL0     C80055   9.011  10.423   8.919  0.0926  0.5394 -0.1604
  607MOL0     C80056   8.906  10.365   8.907 -0.4794 -0.0677 -0.2706
  607MOL0     C80057   9.549  10.576   9.451 -0.1155  0.0976  1.2227
  607MOL0     C80058   9.615  10.570   9.570  0.9344 -0.4639  0.4288
  607MOL0     H80059   9.646  10.411   9.931 -0.9227  2.5087 -0.1284
  607MOL0     H80060   9.706  10.321  10.155 -1.3387  2.0695 -0.4383
  607MOL0     H80061   9.951  10.601  10.385 -0.7332 -0.6835 -1.5031
  607MOL0     H80062  10.094  10.492  10.347 -0.2785  0.5177  1.3443
  607MOL0     H80063   9.990  10.332  10.514  0.5651 -0.4610  2.5164
  607MOL0     H80064   9.881  10.471  10.547  1.0727 -0.4610  0.5308
  607MOL0     H80065  10.119  10.588  10.619 -0.5673  0.7934  1.7356
  607MOL0     H80066  10.187  10.424  10.605 -0.5293 -0.9234  5.0876
  607MOL0     H80067   9.935  10.473  10.774 -1.2477 -2.9493 -2.9352
  607MOL0     H80068  10.043  10.344  10.766 -3.9476 -0.3145  1.6703
  607MOL0     H80069  10.093  10.612  10.887 -2.2309 -0.6186  2.7494
  607MOL0     H80070  10.232  10.491  10.853  0.6614 -1.8062  4.3392
  607MOL0     H80071  10.139  10.327  10.985 -0.5039  0.3369 -0.7106
  607MOL0     H80072   9.988  10.410  11.017 -1.2895  4.0308  0.1781
  607MOL0     H80073  10.127  10.593  11.139  0.3324 -0.4351  1.3479
  607MOL0     H80074  10.125  10.442  11.220 -1.5604  0.6145 -1.1417
  607MOL0     H80075  10.365  10.514  11.211  0.9135 -1.1229  1.2419
  607MOL0     H80076  10.346  10.551  11.032 -2.6187  0.1625 -1.1959
  607MOL0     H80077  10.353  10.252  11.274  2.7425  2.5371  2.0989
  607MOL0     H80078  10.447  10.024  11.262 -1.2418  0.5991 -0.9707
  607MOL0     H80079  10.611  10.028  11.194 -0.1642 -0.8097  0.1410
  607MOL0     H80080  10.514   9.913  10.984  0.9581 -2.7616  0.0204
  607MOL0     H80081  10.379   9.878  11.088  0.7639 -3.0270 -1.6818
  607MOL0     H80082  10.588   9.723  11.066 -2.7446 -0.9408 -0.2764
  607MOL0     H80083  10.676   9.827  11.179 -0.0553  0.6539  0.4284
  607MOL0     H80084  10.505   9.791  11.358  1.2942  1.0039 -0.2345
  607MOL0     H80085  10.544   9.625  11.294 -1.3983  0.0592  3.2901
  607MOL0     H80086  10.412   9.619  11.505  0.0764  0.5986  1.1925
  607MOL0     H80087  10.247   9.551  11.657 -0.5517  1.7401  0.2844
  607MOL0     H80088   9.680   9.734  11.694  0.7608 -0.1154  1.1025
  607MOL0     H80089   9.450   9.673  11.749  0.8908  0.2770  2.3668
  607MOL0     H80090   9.338   9.276  11.698  1.6714 -0.1377  1.3991
  607MOL0     H80091   9.265   9.429  11.628 -3.3707 -0.6787 -0.4664
  607MOL0     H80092   9.109   9.427  11.821  0.0876 -2.1309  3.2690
  607MOL0     H80093   9.177   9.273  11.871 -2.2827  0.1748  0.2314
  607MOL0     H80094   9.113   9.168  11.643  0.9316  0.7998 -3.4408
  607MOL0     H80095   9.033   9.320  11.598 -2.2247  0.3067  1.0830
  607MOL0     H80096   8.958   9.190  11.862 -0.2792 -1.6704  0.3016
  607MOL0     H80097   8.866   9.298  11.750  1.4388  0.5676 -0.9028
  607MOL0     H80098   8.917   9.043  11.618  0.5413  2.5111 -0.4861
  607MOL0     H80099   8.767   9.115  11.647 -0.1636  0.6252  1.2706
  607MOL0     H80100   8.928   8.987  11.881 -1.8254  0.4518  1.2961
  607MOL0     H80101   8.855   8.878  11.774 -0.4304 -0.9601  2.7163
  607MOL0     H80102   8.707   9.095  11.937  2.5809 -0.2012  1.0975
  607MOL0     H80103   8.626   8.972  11.843 -0.0615  1.6691 -0.4764
  607MOL0     H80104   8.628   8.912  12.095  2.7785 -1.6717  2.5321
  607MOL0     H80105   8.801   8.919  12.082 -0.0332 -0.0015  1.0811
  607MOL0     H80106   9.558   9.262  11.784 -1.4718  0.8787 -2.1949
  607MOL0     H80107   9.787   9.333  11.693 -0.3842  0.0540  0.5491
  607MOL0     H80108   9.939   9.643  11.390  0.0695  1.3434 -4.1767
  607MOL0     H80109  10.107   9.713  11.212 -0.2394  0.0749  0.2334
  607MOL0     H80110  10.022  10.602  10.171 -0.1388 -2.0456  3.1478
  607MOL0     H80111   9.968  10.683   9.951 -0.6087  0.6650  1.7072
  607MOL0     H80112   9.922  10.572   9.439  0.1142 -1.9121 -0.4945
  607MOL0     H80113   9.803  10.581   9.223 -1.0125  0.5211  0.4476
  607MOL0     H80114   9.382  10.669   9.227  1.3117  0.3957  0.3165
  607MOL0     H80115   9.353  10.498   9.245 -2.4819  2.7393  0.2559
  607MOL0     H80116   9.361  10.642   8.987 -1.4876  0.0068  1.3184
  607MOL0     H80117   9.435  10.471   9.000  0.7400  0.1951  0.1072
  607MOL0     H80118   9.165  10.525   9.113  0.2773 -0.0074 -0.9531
  607MOL0     H80119   9.227  10.366   9.049 -0.0314 -0.2676  3.9126
  607MOL0     H80120   9.120  10.599   8.905 -0.9532 -0.2525  0.9454
  607MOL0     H80121   9.192  10.453   8.816  0.5982  2.1877 -0.2211
  607MOL0     H80122   8.812  10.316   8.889 -0.5297  0.8629 -3.0292
  607MOL0     H80123   9.441  10.585   9.437  0.3231  0.9705 -3.5232
  607MOL0     H80124   9.559  10.580   9.662 -2.7032  1.9064 -1.7649
  608MOL0     O80125   2.342   1.679   6.659 -0.1380 -0.4421  0.2927
  608MOL0     C80126   2.408   1.725   6.745  0.5014  0.0711  0.4129
  608MOL0     O80127   2.364   1.765   6.868 -0.4018  0.1172 -0.2880
  608MOL0     C80128   2.236   1.771   6.901  0.3639 -0.4056  0.3570
  608MOL0     C80129   2.125   1.774   6.818  0.1419 -0.0898 -0.1385
  608MOL0     C80130   1.999   1.782   6.880 -0.2633 -0.0343 -0.1964
  608MOL0     C80131   1.984   1.785   7.021  0.6927  0.7319 -0.7233
  608MOL0     O80132   1.862   1.783   7.089  0.5139 -0.3262  0.0044
  608MOL0     C80133   1.740   1.822   7.024  0.1704 -0.5395 -0.4737
  608MOL0     C80134   1.615   1.756   7.086  0.5324 -0.5103 -0.3777
  608MOL0     C80135   1.478   1.832   7.065  0.0793 -0.7953 -0.6092
  608MOL0     C80136   1.426   1.828   6.922 -0.5273 -0.1677 -0.3990
  608MOL0     C80137   1.271   1.836   6.903 -1.3042 -0.3610  0.5453
  608MOL0     C80138   1.191   1.715   6.957 -0.4262  0.1215  0.0894
  608MOL0     C80139   1.046   1.724   6.910 -0.4533 -0.2978  0.1481
  608MOL0     C80140   0.964   1.601   6.924 -0.2070 -0.8217 -0.2688
  608MOL0     N80141   0.938   1.570   7.069  0.2023  0.0852  0.2716
  608MOL0     C80142   0.901   1.663   7.162  0.3840  0.4598 -0.1935
  608MOL0     C80143   0.910   1.603   7.279  0.3140  0.1566 -0.4955
  608MOL0     C80144   0.891   1.658   7.412 -0.4337 -0.2370  0.1760
  608MOL0     C80145   0.789   1.767   7.435  0.5562  0.9609 -0.1443
  608MOL0     C80146   0.638   1.725   7.425  0.4340  0.3843  0.2354
  608MOL0     C80147   0.603   1.600   7.505 -0.8176  0.1290  0.8809
  608MOL0     O80148   0.590   1.646   7.639 -0.0043  0.4074  0.1194
  608MOL0     C80149   0.506   1.583   7.728  1.0601  0.4044 -0.2740
  608MOL0     C80150   0.496   1.636   7.858 -0.0932  0.0788 -0.0762
  608MOL0     C80151   0.401   1.591   7.958 -0.4420 -0.0063 -0.7559
  608MOL0     C80152   0.303   1.493   7.918 -0.0093 -0.3868  0.0664
  608MOL0     C80153   0.189   1.458   8.012  0.3004  0.2458  0.0034
  608MOL0     O80154   0.082   1.396   7.956 -0.7223  0.8859 -0.3543
  608MOL0     C80155  -0.003   1.359   8.058  1.3503  0.5089 -0.2535
  608MOL0     C80156  -0.118   1.439   8.085 -0.2159  1.0205 -0.2571
  608MOL0     C80157  -0.211   1.414   8.187 -1.0453  0.5036 -0.0216
  608MOL0     C80158  -0.193   1.296   8.270  0.7698 -0.2887  0.1516
  608MOL0     O80159  -0.277   1.239   8.365  0.1829  0.3691 -0.0013
  608MOL0     C80160  -0.388   1.323   8.405  0.5601  1.3476 -0.2661
  608MOL0     C80161  -0.491   1.240   8.488  0.2726  0.3607  0.2845
  608MOL0     C80162  -0.601   1.351   8.542 -0.7576  0.3131 -0.1928
  608MOL0     C80163  -0.710   1.282   8.608  0.1178 -0.3381  1.0431
  608MOL0     C80164  -0.831   1.368   8.666 -0.4573  0.2804 -0.1409
  608MOL0     C80165  -0.861   1.485   8.569 -0.2815  0.0469 -0.1960
  608MOL0     C80166  -1.002   1.539   8.593  0.5218  0.6145  0.3347
  608MOL0     C80167  -1.122   1.459   8.523 -0.1498 -0.5584  0.1848
  608MOL0    Cl80168  -1.277   1.554   8.509  0.1106  0.0216  0.1747
  608MOL0     C80169  -0.087   1.215   8.238 -0.0639  0.4165 -0.1517
  608MOL0     C80170   0.007   1.241   8.137  0.1040  0.0622 -0.0046
  608MOL0     O80171   0.200   1.493   8.131 -0.4837 -0.1053 -0.7648
  608MOL0     C80172   0.309   1.448   7.788  0.3212  1.0094 -0.3530
  608MOL0     C80173   0.414   1.480   7.702  0.1089  0.2595 -0.1657
  608MOL0     N80174   0.950   1.469   7.258  0.3122  0.0266 -0.8937
  608MOL0     N80175   0.966   1.455   7.134  0.0758 -0.0972  0.1237
  608MOL0     C80176   2.092   1.796   7.103 -0.6895  0.0384  0.5804
  608MOL0     C80177   2.223   1.780   7.042 -0.3317  0.1616  0.0766
  608MOL0     C80178   2.553   1.694   6.735 -0.2498 -0.1632 -1.4024
  608MOL0     C80179   2.612   1.699   6.610 -0.2023  0.2755 -0.0280
  608MOL0     C80180   2.746   1.687   6.593  0.1062  0.1785 -0.1668
  608MOL0     C80181   2.831   1.640   6.694  0.0399 -0.4309  0.1230
  608MOL0     O80182   2.951   1.580   6.681  0.1426  0.2953 -0.7328
  608MOL0     C80183   3.022   1.566   6.554  0.3394 -0.1694  0.3552
  608MOL0     C80184   3.123   1.465   6.571 -0.2025 -0.0637 -0.1546
  608MOL0     C80185   3.248   1.531   6.636  1.6670 -0.3545 -0.0862
  608MOL0     C80186   3.349   1.425   6.671  0.5809  0.2964 -0.0598
  608MOL0     C80187   3.472   1.474   6.720  0.4507 -0.0175 -0.1233
  608MOL0     C80188   3.570   1.539   6.758  0.0296 -0.5111  0.2535
  608MOL0     C80189   2.772   1.624   6.818  0.0046 -0.2385  1.0347
  608MOL0     C80190   2.637   1.654   6.845 -0.0643  0.2086  0.8398
  608MOL0     H80191   2.131   1.761   6.710 -3.0088 -0.6917 -0.3515
  608MOL0     H80192   1.907   1.779   6.823 -0.9944  2.5327  0.6742
  608MOL0     H80193   1.729   1.806   6.916 -0.3487 -1.4840 -0.2990
  608MOL0     H80194   1.742   1.931   7.036  0.4349 -0.2304 -2.8107
  608MOL0     H80195   1.635   1.755   7.194  3.0528 -2.2739 -0.7990
  608MOL0     H80196   1.609   1.656   7.042  1.6194  0.1389 -2.1041
  608MOL0     H80197   1.475   1.933   7.106 -1.3561 -0.2540 -1.9064
  608MOL0     H80198   1.402   1.786   7.129 -1.3172  0.1485 -1.5120
  608MOL0     H80199   1.459   1.914   6.863 -0.0776 -0.7768 -1.0583
  608MOL0     H80200   1.459   1.736   6.873  0.2563 -1.8111  2.9170
  608MOL0     H80201   1.254   1.835   6.795 -1.7222  0.7596  0.5788
  608MOL0     H80202   1.234   1.930   6.946  0.4097  1.7659 -2.2763
  608MOL0     H80203   1.182   1.711   7.066 -1.5321 -0.2643 -0.0001
  608MOL0     H80204   1.252   1.628   6.928 -0.8876  0.4903 -2.1489
  608MOL0     H80205   0.993   1.807   6.956 -0.4988 -0.4427  0.3576
  608MOL0     H80206   1.058   1.739   6.802  2.6833 -0.9897  0.2997
  608MOL0     H80207   1.011   1.516   6.873  2.5015  0.8593 -0.8015
  608MOL0     H80208   0.868   1.619   6.875 -0.3949  1.4083  0.7641
  608MOL0     H80209   0.892   1.770   7.144  3.8279  0.7756 -0.8225
  608MOL0     H80210   0.990   1.700   7.435  0.2857 -1.7286 -0.0717
  608MOL0     H80211   0.883   1.578   7.486  1.4337  0.7418  1.5196
  608MOL0     H80212   0.810   1.854   7.373  1.6642  0.8997  0.1138
  608MOL0     H80213   0.810   1.804   7.536  0.9826  1.9578 -0.5866
  608MOL0     H80214   0.567   1.800   7.461 -2.4163 -1.3980 -1.2626
  608MOL0     H80215   0.625   1.712   7.317 -1.0332  2.7551  0.0604
  608MOL0     H80216   0.674   1.519   7.488 -0.7792 -0.0208  1.6994
  608MOL0     H80217   0.512   1.565   7.457 -1.2009 -0.6173  2.1100
  608MOL0     H80218   0.575   1.702   7.891  0.4761 -1.9521  3.0217
  608MOL0     H80219   0.412   1.622   8.061 -1.9025  0.5219 -0.7369
  608MOL0     H80220  -0.135   1.518   8.012 -1.6888 -0.4679 -1.6103
  608MOL0     H80221  -0.290   1.487   8.198  0.2018  1.9872 -0.4630
  608MOL0     H80222  -0.432   1.369   8.317  0.4926  1.0622 -0.3803
  608MOL0     H80223  -0.345   1.404   8.466 -2.2327  2.5490  0.2351
  608MOL0     H80224  -0.441   1.194   8.574 -0.3176 -0.3400  0.2589
  608MOL0     H80225  -0.539   1.163   8.428  3.3166 -1.9256  0.5895
  608MOL0     H80226  -0.637   1.400   8.451  1.2851 -1.9955 -2.4092
  608MOL0     H80227  -0.564   1.428   8.610 -2.8602  1.1525  0.0797
  608MOL0     H80228  -0.741   1.204   8.538  2.1155 -1.2562  1.1251
  608MOL0     H80229  -0.682   1.224   8.696  0.5230 -0.0227  1.1259
  608MOL0     H80230  -0.806   1.402   8.767  2.3441 -3.7677  0.7894
  608MOL0     H80231  -0.916   1.303   8.689 -0.5173  0.3687 -0.1126
  608MOL0     H80232  -0.858   1.467   8.461 -2.7871 -0.8378 -0.1791
  608MOL0     H80233  -0.790   1.566   8.590  0.7067 -0.4504 -1.5197
  608MOL0     H80234  -1.017   1.557   8.700 -4.0817  0.7509 -0.1336
  608MOL0     H80235  -1.003   1.640   8.550 -0.0882  0.5040  0.0865
  608MOL0     H80236  -1.142   1.368   8.579  0.8362 -2.5630 -2.5410
  608MOL0     H80237  -1.096   1.425   8.422  0.5291  0.8409 -0.1493
  608MOL0     H80238  -0.076   1.119   8.288  0.9926  0.3078 -0.5599
  608MOL0     H80239   0.090   1.173   8.121  0.1550  0.1160  0.0306
  608MOL0     H80240   0.235   1.378   7.750 -0.7230  0.5824  2.2818
  608MOL0     H80241   0.415   1.448   7.599  1.0339 -1.0971  0.2371
  608MOL0     H80242   2.094   1.829   7.206  1.1994 -0.1764  0.6377
  608MOL0     H80243   2.306   1.778   7.112 -0.0498  3.0808 -0.0230
  608MOL0     H80244   2.567   1.718   6.512  3.3174 -2.9065 -2.5456
  608MOL0     H80245   2.785   1.697   6.492 -2.6714 -0.1675 -1.3459
  608MOL0     H80246   3.065   1.654   6.507  0.4712 -0.1195  0.5685
  608MOL0     H80247   2.960   1.532   6.470  0.1886  1.7960 -0.3804
  608MOL0     H80248   3.085   1.377   6.625 -0.5656 -0.9095 -1.7195
  608MOL0     H80249   3.148   1.431   6.470 -0.9074  3.4062 -1.6119
  608MOL0     H80250   3.213   1.589   6.722 -1.1088 -2.2874  0.2091
  608MOL0     H80251   3.294   1.597   6.562  1.0533  0.2951  0.0919
  608MOL0     H80252   3.299   1.362   6.745  0.5243  1.8512  1.2919
  608MOL0     H80253   3.367   1.374   6.576  1.8237 -1.0478  0.8453
  608MOL0     H80254   3.660   1.592   6.783  0.1829  0.2133 -1.6823
  608MOL0     H80255   2.836   1.595   6.900  0.2461 -1.2651  0.5010
  608MOL0     H80256   2.598   1.660   6.947 -1.5859  1.6988  0.2164
  609MOL0     O80257   6.710   8.343   5.548  0.8100 -0.0838  0.6241
  609MOL0     C80258   6.774   8.271   5.620 -0.0409 -0.6059  1.1476
  609MOL0     O80259   6.727   8.198   5.731  0.1884 -0.4527  0.1659
  609MOL0     C80260   6.597   8.202   5.770 -0.0668 -0.3353 -0.6043
  609MOL0     C80261   6.525   8.329   5.779 -0.5967  0.5432 -0.1152
  609MOL0     C80262   6.384   8.331   5.795 -0.0758 -0.2623 -0.4583
  609MOL0     C80263   6.315   8.213   5.820 -0.0822 -0.1172  0.2678
  609MOL0     O80264   6.184   8.223   5.847  0.5454 -0.3613 -0.0630
  609MOL0     C80265   6.101   8.103   5.867 -0.2894 -0.1112 -0.4363
  609MOL0     C80266   5.952   8.138   5.902 -0.5656 -1.0139  0.1875
  609MOL0     C80267   5.895   8.191   5.768 -0.0473 -0.3046  0.2071
  609MOL0     C80268   5.747   8.227   5.765  0.1690 -0.5157 -0.0016
  609MOL0     C80269   5.714   8.336   5.879 -0.5042 -0.9395  0.0243
  609MOL0     C80270   5.807   8.452   5.890 -0.4238 -0.4942 -0.9206
  609MOL0     C80271   5.752   8.562   5.991 -0.8706 -0.3247  0.3651
  609MOL0     C80272   5.706   8.516   6.134 -0.3511 -1.0561 -0.0640
  609MOL0     N80273   5.689   8.636   6.221  0.1322  1.0036 -0.1742
  609MOL0     C80274   5.586   8.713   6.202 -0.3449  0.5916  0.2485
  609MOL0     C80275   5.529   8.745   6.320 -0.1930  0.9661 -0.2807
  609MOL0     C80276   5.412   8.841   6.328 -0.3511  0.4225  0.7227
  609MOL0     C80277   5.306   8.782   6.420 -0.3165  0.4713 -0.1347
  609MOL0     C80278   5.192   8.879   6.452 -0.0963  0.3309 -0.0461
  609MOL0     C80279   5.228   8.988   6.555  0.4777  0.2512  0.3607
  609MOL0     O80280   5.134   9.091   6.548 -0.0300  0.6607  0.1140
  609MOL0     C80281   5.019   9.067   6.609  0.2974  0.4519 -0.0805
  609MOL0     C80282   4.974   8.955   6.677  0.3836  0.7373 -0.4653
  609MOL0     C80283   4.847   8.949   6.741 -0.7165 -0.2603  0.5686
  609MOL0     C80284   4.754   9.059   6.727 -0.5442 -0.2233 -0.4304
  609MOL0     C80285   4.623   9.054   6.789  0.0292  0.1181  0.2698
  609MOL0     O80286   4.565   9.171   6.802 -0.2800  0.4984 -0.5712
  609MOL0     C80287   4.433   9.194   6.839 -0.3200  0.3977  0.1417
  609MOL0     C80288   4.360   9.279   6.756  0.5032 -0.0934 -0.5359
  609MOL0     C80289   4.240   9.333   6.805 -0.1945  0.4027  0.6953
  609MOL0     C80290   4.189   9.294   6.927  0.9670  1.2101  1.1943
  609MOL0     O80291   4.071   9.342   6.976  0.7084  0.5048  0.3570
  609MOL0     C80292   4.066   9.481   7.006  0.4190 -0.2532  0.5847
  609MOL0     C80293   3.949   9.515   7.105 -0.4073 -0.6241 -1.1212
  609MOL0     C80294   3.904   9.663   7.087  0.3077  0.1286 -0.0029
  609MOL0     C80295   3.802   9.711   7.184 -0.6274  0.7654 -0.2398
  609MOL0     C80296   3.763   9.860   7.166  0.6479 -0.3668  0.0431
  609MOL0     C80297   3.851   9.963   7.238  0.5436 -0.6541  0.2096
  609MOL0     C80298   3.792  10.100   7.221  0.4664 -0.4752 -0.2152
  609MOL0     C80299   3.848  10.192   7.327 -0.2403  0.9523  0.6090
  609MOL0    Cl80300   4.026  10.195   7.329 -0.3460  0.2701 -0.4067
  609MOL0     C80301   4.255   9.197   7.001 -0.0499  0.3317  0.0669
  609MOL0     C80302   4.383   9.147   6.963 -0.3432  0.0703 -0.1748
  609MOL0     O80303   4.574   8.948   6.818  0.1969 -0.5471  0.1459
  609MOL0     C80304   4.802   9.171   6.666 -0.1434 -0.1649 -0.7049
  609MOL0     C80305   4.930   9.168   6.607  0.2257  0.1679  0.3627
  609MOL0     N80306   5.613   8.681   6.417  0.6909  0.9096  0.0193
  609MOL0     N80307   5.705   8.612   6.359 -0.1048  0.6959 -0.3778
  609MOL0     C80308   6.388   8.093   5.820 -0.3331  0.4947  0.6020
  609MOL0     C80309   6.526   8.079   5.803 -0.1343 -0.6975 -0.0140
  609MOL0     C80310   6.903   8.218   5.560  0.0138 -0.1039 -0.6358
  609MOL0     C80311   6.992   8.150   5.649 -0.1051  0.4758  0.6787
  609MOL0     C80312   7.119   8.122   5.591  0.8476 -0.0363 -0.2433
  609MOL0     C80313   7.162   8.161   5.465  0.1440 -0.5860 -0.3916
  609MOL0     O80314   7.292   8.140   5.414 -0.0665 -0.1473 -0.3369
  609MOL0     C80315   7.394   8.076   5.489 -0.4233  0.2492 -0.4489
  609MOL0     C80316   7.481   8.176   5.579  0.1395 -0.2482  0.5146
  609MOL0     C80317   7.592   8.255   5.501 -0.0768 -0.3694 -0.2098
  609MOL0     C80318   7.726   8.192   5.506 -0.7454  0.4287 -0.4276
  609MOL0     C80319   7.820   8.274   5.425  0.3772  0.6188 -0.3038
  609MOL0     C80320   7.906   8.343   5.371 -0.3891  0.6740 -0.2418
  609MOL0     C80321   7.075   8.244   5.393 -0.2942  0.5924  0.3179
  609MOL0     C80322   6.948   8.258   5.434  0.4918 -0.9124 -0.2687
  609MOL0     H80323   6.580   8.418   5.749  5.3897 -2.5588  0.1201
  609MOL0     H80324   6.342   8.431   5.794  5.0542  2.2278  0.7355
  609MOL0     H80325   6.142   8.043   5.949  1.2740 -1.1859 -1.9479
  609MOL0     H80326   6.093   8.041   5.777 -2.3037 -0.7427  0.1185
  609MOL0     H80327   5.960   8.217   5.977 -1.2711 -4.3369  4.1457
  609MOL0     H80328   5.896   8.055   5.944  0.0842 -0.9545  1.2049
  609MOL0     H80329   5.900   8.115   5.690 -0.3506  0.1049 -0.2209
  609MOL0     H80330   5.953   8.279   5.737 -2.3997  1.7010  1.1348
  609MOL0     H80331   5.733   8.269   5.664 -0.8526  0.4860  0.5335
  609MOL0     H80332   5.683   8.139   5.756  3.0517 -2.7154 -0.4370
  609MOL0     H80333   5.714   8.281   5.973 -0.2237  1.5615  1.5612
  609MOL0     H80334   5.609   8.365   5.866 -0.7082 -0.4305  2.4935
  609MOL0     H80335   5.812   8.501   5.792  3.6817 -0.8436 -1.0721
  609MOL0     H80336   5.909   8.428   5.922 -0.3085  1.6257  0.5022
  609MOL0     H80337   5.842   8.623   6.001  0.9910 -2.6380 -1.1195
  609MOL0     H80338   5.675   8.622   5.942  1.3046  1.2115 -1.4012
  609MOL0     H80339   5.779   8.448   6.179 -1.6572 -0.4086  3.3775
  609MOL0     H80340   5.608   8.467   6.133 -0.1943 -1.4278  1.2443
  609MOL0     H80341   5.543   8.749   6.109  0.4345  1.0393  0.0621
  609MOL0     H80342   5.364   8.868   6.233 -0.2122  0.5201  0.6798
  609MOL0     H80343   5.448   8.939   6.360  0.5296  0.3389  0.0132
  609MOL0     H80344   5.350   8.735   6.509 -1.2341 -2.0624 -0.9231
  609MOL0     H80345   5.251   8.703   6.368 -1.4971  0.0702  1.6192
  609MOL0     H80346   5.152   8.923   6.360 -3.3880 -0.5802  0.8394
  609MOL0     H80347   5.117   8.808   6.487  1.5857 -2.3060 -1.4315
  609MOL0     H80348   5.308   9.046   6.508  1.7189 -1.5885  0.0874
  609MOL0     H80349   5.262   8.946   6.650 -1.6374 -1.2866  0.4865
  609MOL0     H80350   5.038   8.867   6.668  1.5510  1.7111 -2.3178
  609MOL0     H80351   4.810   8.854   6.779  1.5389 -1.4224 -0.0019
  609MOL0     H80352   4.411   9.307   6.664  0.7659 -2.0492 -1.0207
  609MOL0     H80353   4.184   9.403   6.744 -0.2603 -1.3456 -1.4035
  609MOL0     H80354   4.044   9.537   6.915  1.7110  1.2424  1.1489
  609MOL0     H80355   4.164   9.500   7.053  0.7156  0.8852 -0.4397
  609MOL0     H80356   3.980   9.501   7.209 -1.2846  0.3353 -0.7087
  609MOL0     H80357   3.868   9.448   7.075 -0.5961 -0.6949 -0.4825
  609MOL0     H80358   3.868   9.673   6.984 -2.2597 -0.1092  0.8063
  609MOL0     H80359   3.990   9.730   7.092 -0.3068  0.8884  0.6399
  609MOL0     H80360   3.712   9.650   7.179 -0.7352  0.9110 -0.0774
  609MOL0     H80361   3.838   9.692   7.285 -2.9259  0.2129  0.5359
  609MOL0     H80362   3.666   9.865   7.215  1.2581  0.9460  1.2027
  609MOL0     H80363   3.760   9.887   7.060  3.5413 -1.7797 -0.5113
  609MOL0     H80364   3.954   9.948   7.203  0.1867 -2.9901 -0.0161
  609MOL0     H80365   3.866   9.937   7.343  0.5893 -2.2419 -0.1599
  609MOL0     H80366   3.823  10.145   7.126  4.2156 -1.2949  0.4545
  609MOL0     H80367   3.684  10.092   7.233  0.3199  0.9685 -0.3585
  609MOL0     H80368   3.806  10.175   7.426 -0.1278 -1.0856  0.3368
  609MOL0     H80369   3.809  10.291   7.298  0.5654  1.0360 -0.2528
  609MOL0     H80370   4.226   9.160   7.099  2.7452 -2.3716  0.0147
  609MOL0     H80371   4.438   9.065   7.009  2.9541  0.6758 -2.6484
  609MOL0     H80372   4.751   9.266   6.652 -1.0296 -0.2940  1.3010
  609MOL0     H80373   4.959   9.255   6.549 -0.0803 -0.3082 -0.5287
  609MOL0     H80374   6.341   7.996   5.835  0.3691 -0.0028 -0.2880
  609MOL0     H80375   6.585   7.989   5.807  2.6556  1.0604  0.8634
  609MOL0     H80376   6.963   8.116   5.748  2.0997  0.8242  1.5032
  609MOL0     H80377   7.180   8.065   5.661 -1.5131 -2.1781  0.2334
  609MOL0     H80378   7.458   8.023   5.417 -0.7396  1.4247 -1.6347
  609MOL0     H80379   7.348   7.998   5.550  0.1709 -0.5530 -1.0038
  609MOL0     H80380   7.410   8.249   5.620  0.2587  0.1657 -0.0077
  609MOL0     H80381   7.530   8.129   5.664  0.5585 -1.1612 -0.2156
  609MOL0     H80382   7.607   8.357   5.540  1.0153  0.0205 -1.5868
  609MOL0     H80383   7.558   8.258   5.397  1.4784  0.4034 -0.7292
  609MOL0     H80384   7.768   8.185   5.607 -0.2444 -2.8779 -0.7419
  609MOL0     H80385   7.715   8.090   5.467 -0.9543  0.8099 -1.3934
  609MOL0     H80386   7.985   8.398   5.326  1.7017 -0.9552  1.2359
  609MOL0     H80387   7.112   8.283   5.299  2.0730 -2.1251 -0.0236
  609MOL0     H80388   6.879   8.303   5.363  1.2110 -0.0242 -0.4305
  610MOL0     O80389   4.571   0.369   7.025  0.7747 -0.3792  0.4637
  610MOL0     C80390   4.622   0.322   7.121 -0.2299  0.7960 -0.4447
  610MOL0     O80391   4.562   0.256   7.224 -0.3104  0.0638 -0.4184
  610MOL0     C80392   4.420   0.272   7.232 -0.6717 -0.0152 -0.1135
  610MOL0     C80393   4.336   0.158   7.240 -0.4669 -0.6988  0.3662
  610MOL0     C80394   4.203   0.185   7.244  0.3168  0.1008  0.5108
  610MOL0     C80395   4.141   0.311   7.238 -1.0066  1.0395  0.0288
  610MOL0     O80396   4.007   0.332   7.237  0.3194  0.3038 -0.8483
  610MOL0     C80397   3.911   0.227   7.196 -0.3834 -0.5889 -1.1017
  610MOL0     C80398   3.767   0.284   7.201  0.0827 -0.1692 -0.7336
  610MOL0     C80399   3.724   0.309   7.056 -0.0005 -0.6894 -0.2135
  610MOL0     C80400   3.578   0.364   7.042  0.4376  0.0725 -0.6596
  610MOL0     C80401   3.463   0.261   7.063  0.4282 -0.0899 -0.2149
  610MOL0     C80402   3.316   0.320   7.064 -1.5459 -0.2821  0.5356
  610MOL0     C80403   3.203   0.218   7.098  0.0838  0.5340  0.0964
  610MOL0     C80404   3.152   0.228   7.238  0.0946 -0.0121 -0.1042
  610MOL0     N80405   3.092   0.359   7.268  0.2307  0.1720  1.1347
  610MOL0     C80406   3.151   0.462   7.338  0.0825 -0.0140  0.3041
  610MOL0     C80407   3.056   0.564   7.343  0.0139 -0.3306 -0.4165
  610MOL0     C80408   3.083   0.713   7.368 -0.1820  0.4647 -0.5161
  610MOL0     C80409   3.030   0.785   7.247 -0.1297 -0.7001 -0.3650
  610MOL0     C80410   2.880   0.803   7.258 -0.7315  0.0583 -0.2924
  610MOL0     C80411   2.855   0.940   7.329  0.8766 -0.9513 -0.1778
  610MOL0     O80412   2.710   0.971   7.317  0.1298  0.0294 -0.4430
  610MOL0     C80413   2.613   0.921   7.399 -0.9613 -0.1088 -0.1401
  610MOL0     C80414   2.639   0.842   7.509 -0.5641 -0.2381  0.5620
  610MOL0     C80415   2.534   0.785   7.579 -0.3807  0.2218  0.7086
  610MOL0     C80416   2.402   0.824   7.552 -0.5621 -0.9379 -0.3445
  610MOL0     C80417   2.289   0.766   7.614 -0.4682  0.2367  0.4208
  610MOL0     O80418   2.164   0.811   7.580  0.0125  0.1045 -0.2413
  610MOL0     C80419   2.058   0.760   7.654  0.0588  0.4231 -0.2701
  610MOL0     C80420   2.029   0.798   7.786 -0.0357  0.1873  0.4406
  610MOL0     C80421   1.915   0.754   7.844  0.0779 -0.5090  0.1413
  610MOL0     C80422   1.835   0.656   7.780  1.3496 -0.9714 -1.3540
  610MOL0     O80423   1.747   0.588   7.868 -1.0757 -0.0097  0.3620
  610MOL0     C80424   1.666   0.489   7.799 -0.0771 -0.5536 -0.6854
  610MOL0     C80425   1.543   0.550   7.737  0.2184 -0.1394 -0.6840
  610MOL0     C80426   1.464   0.624   7.837 -0.0305 -0.3566 -0.0683
  610MOL0     C80427   1.318   0.636   7.785  0.1617  0.5267 -0.7938
  610MOL0     C80428   1.216   0.704   7.872  0.7529  0.0254 -0.0328
  610MOL0     C80429   1.257   0.853   7.892 -0.4592 -0.6541 -0.2542
  610MOL0     C80430   1.157   0.940   7.956  0.2617  0.1333 -0.5113
  610MOL0     C80431   1.032   0.961   7.875 -0.0131  0.6235  0.1150
  610MOL0    Cl80432   0.937   1.090   7.950  0.1144  0.0713  0.2132
  610MOL0     C80433   1.867   0.625   7.646  0.0312  0.4119 -0.6195
  610MOL0     C80434   1.973   0.683   7.582  0.5825  0.2239 -0.1717
  610MOL0     O80435   2.308   0.676   7.692 -0.3644  0.3316 -0.4939
  610MOL0     C80436   2.385   0.911   7.447  0.2052 -0.2533 -0.1317
  610MOL0     C80437   2.489   0.960   7.371 -0.3911  0.6193 -0.1467
  610MOL0     N80438   2.938   0.507   7.304  1.1289  1.0438 -0.0672
  610MOL0     N80439   2.953   0.389   7.262  0.2160  0.0187 -0.5397
  610MOL0     C80440   4.222   0.423   7.228 -0.6910 -0.2658 -0.0534
  610MOL0     C80441   4.361   0.396   7.221 -0.4887  0.0889  0.1577
  610MOL0     C80442   4.773   0.301   7.126  0.0491  0.0454 -0.0882
  610MOL0     C80443   4.844   0.367   7.036 -0.5812  0.0705  1.1861
  610MOL0     C80444   4.976   0.351   7.019 -1.0523  0.3894  0.2580
  610MOL0     C80445   5.045   0.268   7.109  0.2860 -0.6509  0.1257
  610MOL0     O80446   5.169   0.218   7.086 -0.2071 -0.1637 -0.6072
  610MOL0     C80447   5.279   0.307   7.047 -0.4679 -0.6565 -0.2256
  610MOL0     C80448   5.349   0.245   6.930 -0.1234  0.4326 -0.1538
  610MOL0     C80449   5.275   0.270   6.807  0.6874 -0.3819 -0.3098
  610MOL0     C80450   5.173   0.164   6.765 -0.0821 -0.2486  0.0123
  610MOL0     C80451   5.229   0.062   6.676 -0.0246  0.5345 -0.7362
  610MOL0     C80452   5.275  -0.023   6.602  0.2581  0.2197 -0.5728
  610MOL0     C80453   4.978   0.204   7.210 -0.1143 -0.3307 -0.1206
  610MOL0     C80454   4.840   0.213   7.218 -0.2911  0.1362  0.9514
  610MOL0     H80455   4.383   0.060   7.246  2.9329  0.2926 -4.3304
  610MOL0     H80456   4.135   0.102   7.265 -0.9847  1.8430  4.1206
  610MOL0     H80457   3.912   0.147   7.270  2.4287 -0.6573 -1.1064
  610MOL0     H80458   3.931   0.174   7.102  3.5755  0.1364 -0.8293
  610MOL0     H80459   3.763   0.367   7.272 -1.6242  0.1034 -1.1037
  610MOL0     H80460   3.706   0.206   7.247  1.4305 -1.4679 -1.0842
  610MOL0     H80461   3.720   0.213   7.002 -0.6814 -0.6645 -0.2171
  610MOL0     H80462   3.798   0.379   7.018  2.2651 -0.2532  4.3377
  610MOL0     H80463   3.563   0.453   7.104  1.9152  1.1318 -1.7630
  610MOL0     H80464   3.554   0.401   6.942 -3.7903  1.0138  0.4670
  610MOL0     H80465   3.494   0.230   7.163 -1.6545  0.0399  0.5184
  610MOL0     H80466   3.471   0.185   6.984 -5.6760 -0.2070 -1.1806
  610MOL0     H80467   3.302   0.366   6.966  1.6117  0.5289  0.3533
  610MOL0     H80468   3.332   0.395   7.142 -0.2862  1.7092 -1.5131
  610MOL0     H80469   3.119   0.218   7.028 -3.0956 -2.4204  3.5098
  610MOL0     H80470   3.231   0.114   7.083  0.1430  0.8109 -2.0984
  610MOL0     H80471   3.235   0.218   7.308 -0.2422 -0.7401  0.1999
  610MOL0     H80472   3.074   0.152   7.248 -0.3685  0.5046  0.2968
  610MOL0     H80473   3.253   0.462   7.376 -0.4052  1.2407  1.6970
  610MOL0     H80474   3.189   0.731   7.385  0.2705 -2.6788  0.4849
  610MOL0     H80475   3.033   0.743   7.461  0.4215  1.3504 -0.4635
  610MOL0     H80476   3.055   0.716   7.166  0.9076 -1.2856  0.4210
  610MOL0     H80477   3.084   0.880   7.250  2.1728 -1.7448 -3.4192
  610MOL0     H80478   2.840   0.813   7.157  3.1747  2.5830 -1.8188
  610MOL0     H80479   2.835   0.711   7.297  4.7059 -4.0004 -2.1879
  610MOL0     H80480   2.907   1.017   7.272  0.1752  0.1542  0.6305
  610MOL0     H80481   2.899   0.940   7.429 -0.8326  2.1622  0.7307
  610MOL0     H80482   2.740   0.808   7.525 -0.5381 -0.2849  0.2910
  610MOL0     H80483   2.553   0.703   7.648  1.5736  1.1265  1.3162
  610MOL0     H80484   2.099   0.861   7.840  0.1764  0.0396  0.3399
  610MOL0     H80485   1.886   0.779   7.946 -0.7209  1.5628 -0.5264
  610MOL0     H80486   1.632   0.418   7.875  1.6390 -0.1570  0.5295
  610MOL0     H80487   1.728   0.424   7.736  1.1921 -0.2509  0.2139
  610MOL0     H80488   1.473   0.468   7.715 -3.2448  2.0743  1.1173
  610MOL0     H80489   1.562   0.612   7.649  0.6685 -0.9482 -1.1746
  610MOL0     H80490   1.517   0.720   7.836 -2.3301  0.9741 -0.7235
  610MOL0     H80491   1.472   0.579   7.937  0.8339 -2.3286 -0.9792
  610MOL0     H80492   1.330   0.684   7.687  1.1727  0.5972 -0.6383
  610MOL0     H80493   1.284   0.536   7.757 -1.3105  0.6455  0.4134
  610MOL0     H80494   1.211   0.651   7.967 -0.7823  0.2755  0.0462
  610MOL0     H80495   1.117   0.696   7.825  1.5059  1.4131 -2.0069
  610MOL0     H80496   1.289   0.891   7.795 -0.5769 -0.0749 -0.0707
  610MOL0     H80497   1.347   0.855   7.954 -0.1350  0.0708 -0.7439
  610MOL0     H80498   1.138   0.903   8.057  2.1197  2.8310  0.9477
  610MOL0     H80499   1.188   1.044   7.974 -0.4835  0.3127 -0.2389
  610MOL0     H80500   0.970   0.871   7.869  0.2979  0.2321  2.2562
  610MOL0     H80501   1.054   0.993   7.773 -4.2293  0.9947 -0.8910
  610MOL0     H80502   1.816   0.544   7.595  2.0491 -0.6422 -1.0595
  610MOL0     H80503   1.989   0.657   7.478  0.7383 -0.2828 -0.0277
  610MOL0     H80504   2.288   0.929   7.400  1.3465 -3.8668 -4.6750
  610MOL0     H80505   2.459   1.029   7.293  1.0254  1.6578  0.1698
  610MOL0     H80506   4.174   0.520   7.238 -3.8214 -1.9102  3.5951
  610MOL0     H80507   4.431   0.479   7.222  0.2053 -0.4847  0.1997
  610MOL0     H80508   4.787   0.432   6.972 -4.0159 -0.4540  3.4743
  610MOL0     H80509   5.044   0.402   6.950 -0.3749 -2.0445 -0.9688
  610MOL0     H80510   5.345   0.309   7.133  0.3056 -1.2441 -0.7874
  610MOL0     H80511   5.249   0.411   7.031 -1.8352 -1.0163 -0.2028
  610MOL0     H80512   5.449   0.287   6.916  1.3108 -2.9297 -1.0031
  610MOL0     H80513   5.368   0.138   6.946  0.4803  0.2568 -1.8526
  610MOL0     H80514   5.346   0.280   6.725  2.6861 -3.4567  0.8261
  610MOL0     H80515   5.215   0.362   6.810 -2.1691 -1.9729 -2.8803
  610MOL0     H80516   5.132   0.131   6.861 -0.9969  0.6834 -0.0424
  610MOL0     H80517   5.097   0.220   6.710  0.7071  2.1561  1.2228
  610MOL0     H80518   5.315  -0.105   6.545 -1.6299 -1.9750  1.0545
  610MOL0     H80519   5.027   0.131   7.273  1.2246  1.1423  0.6359
  610MOL0     H80520   4.779   0.136   7.265  0.3286 -2.1338 -1.6861
  611MOL0     O80521   7.359   0.957   7.669 -0.1783 -1.0364  0.3359
  611MOL0     C80522   7.406   0.844   7.630 -0.9121  0.0159  0.1967
  611MOL0     O80523   7.338   0.743   7.565  0.1490 -0.2117 -0.0239
  611MOL0     C80524   7.217   0.769   7.500  0.3851  0.1239 -0.0733
  611MOL0     C80525   7.165   0.890   7.455 -0.0409 -0.1073  0.1259
  611MOL0     C80526   7.043   0.902   7.407 -1.0944 -0.2765  0.2857
  611MOL0     C80527   6.965   0.785   7.393  0.0925 -0.6616  0.7081
  611MOL0     O80528   6.847   0.809   7.331  0.5914 -0.6424 -0.0406
  611MOL0     C80529   6.767   0.694   7.306 -0.5302 -0.2812  0.3531
  611MOL0     C80530   6.663   0.726   7.194 -0.7189 -0.4838 -0.4600
  611MOL0     C80531   6.562   0.837   7.245  0.0607  0.1222 -0.3876
  611MOL0     C80532   6.453   0.787   7.347  0.3083 -0.1098  0.2276
  611MOL0     C80533   6.312   0.844   7.335 -0.1039  0.1894  0.7855
  611MOL0     C80534   6.309   0.991   7.342 -0.4311  0.4628  0.5013
  611MOL0     C80535   6.163   1.044   7.329  0.9140  0.2542  0.0354
  611MOL0     C80536   6.111   1.060   7.186 -0.6772  0.4107  0.6162
  611MOL0     N80537   5.968   1.074   7.181 -0.3302 -0.7088 -0.3171
  611MOL0     C80538   5.902   1.188   7.167 -0.4471  0.0923  0.0727
  611MOL0     C80539   5.768   1.162   7.178 -0.6955 -0.4949  0.1587
  611MOL0     C80540   5.663   1.266   7.177 -0.2846 -0.6592 -0.5420
  611MOL0     C80541   5.617   1.306   7.318 -0.6818 -0.3791 -0.5674
  611MOL0     C80542   5.543   1.196   7.388 -0.1469 -0.9246 -0.1620
  611MOL0     C80543   5.466   1.250   7.508  1.0208 -0.6961 -0.5447
  611MOL0     O80544   5.374   1.356   7.472  0.1849  0.0125 -0.1203
  611MOL0     C80545   5.254   1.330   7.531  0.0141 -0.5060 -0.4169
  611MOL0     C80546   5.142   1.360   7.460  0.6004  0.9115 -0.1602
  611MOL0     C80547   5.013   1.364   7.521  0.4170  0.8190  0.9947
  611MOL0     C80548   4.996   1.335   7.658  0.5248 -0.1332 -0.8243
  611MOL0     C80549   4.863   1.334   7.725  0.8565  0.1590 -0.9560
  611MOL0     O80550   4.760   1.385   7.649 -0.0061 -0.1512  0.0276
  611MOL0     C80551   4.632   1.378   7.695  1.3719  0.2571  0.6000
  611MOL0     C80552   4.576   1.261   7.738  0.6637  0.5734  0.6380
  611MOL0     C80553   4.443   1.247   7.784  0.7911 -0.4541 -0.7270
  611MOL0     C80554   4.362   1.366   7.783  0.1247 -0.8253 -0.0115
  611MOL0     O80555   4.232   1.371   7.824 -0.0474 -0.1023  0.6170
  611MOL0     C80556   4.201   1.282   7.936  0.2878  0.1019  0.4146
  611MOL0     C80557   4.051   1.295   7.965  0.7834 -0.5521 -0.1346
  611MOL0     C80558   3.992   1.183   8.046  0.1831  0.1242 -0.0178
  611MOL0     C80559   3.837   1.169   8.048  0.3292 -0.3657 -0.1753
  611MOL0     C80560   3.752   1.285   8.081 -0.3437 -0.0639 -0.8456
  611MOL0     C80561   3.604   1.266   8.056 -1.0089  0.6744  0.5607
  611MOL0     C80562   3.526   1.390   8.109  0.0108  0.3451  0.7889
  611MOL0     C80563   3.371   1.354   8.134 -0.0127  0.6220 -0.1560
  611MOL0    Cl80564   3.289   1.313   7.987 -0.6524 -0.0368  0.5195
  611MOL0     C80565   4.415   1.488   7.737 -0.4258  0.1679 -0.2986
  611MOL0     C80566   4.543   1.484   7.686 -0.1891  0.7167  0.3793
  611MOL0     O80567   4.854   1.285   7.836 -0.0083 -0.5416 -0.2011
  611MOL0     C80568   5.116   1.294   7.734 -0.5218 -0.4083  0.4199
  611MOL0     C80569   5.238   1.286   7.668  0.0261  0.2999  0.3281
  611MOL0     N80570   5.760   1.025   7.185 -0.1570  0.2705  0.1168
  611MOL0     N80571   5.880   0.974   7.184 -0.1763 -0.5583 -0.3719
  611MOL0     C80572   7.007   0.661   7.439  0.2193 -0.3321 -0.1845
  611MOL0     C80573   7.137   0.653   7.490  0.7752  0.5144 -0.0818
  611MOL0     C80574   7.537   0.812   7.672 -0.0010 -0.7393  0.1188
  611MOL0     C80575   7.592   0.684   7.668  0.8706 -0.7408 -0.3447
  611MOL0     C80576   7.725   0.661   7.702  0.4976  0.7457 -0.1198
  611MOL0     C80577   7.811   0.756   7.760 -0.1782 -0.3412 -0.4400
  611MOL0     O80578   7.934   0.718   7.809  0.2223  0.2564  0.5724
  611MOL0     C80579   8.017   0.817   7.855  0.1739  0.1829 -0.1272
  611MOL0     C80580   8.155   0.754   7.878  0.6561  0.1751  0.4557
  611MOL0     C80581   8.229   0.680   7.756  0.3523  0.2794  0.4688
  611MOL0     C80582   8.334   0.584   7.811 -0.0530  0.1645  0.2475
  611MOL0     C80583   8.441   0.655   7.885 -0.1014  0.3511  0.1904
  611MOL0     C80584   8.532   0.691   7.956  0.2828  0.3324 -0.0616
  611MOL0     C80585   7.755   0.889   7.767  0.0895  0.6878 -0.0498
  611MOL0     C80586   7.628   0.913   7.713 -0.1287  0.3146 -0.5587
  611MOL0     H80587   7.239   0.968   7.442 -1.3678  1.2065  0.1866
  611MOL0     H80588   6.995   0.992   7.371  0.4906  0.9026  1.0380
  611MOL0     H80589   6.712   0.664   7.396 -1.2180 -2.7106 -0.7709
  611MOL0     H80590   6.820   0.602   7.279  2.6337  1.5231 -0.0437
  611MOL0     H80591   6.596   0.641   7.178 -3.2950  1.3287  0.0200
  611MOL0     H80592   6.714   0.764   7.105 -1.0255  0.5343 -0.2108
  611MOL0     H80593   6.508   0.896   7.170 -1.2955  0.1027  0.5224
  611MOL0     H80594   6.616   0.922   7.287  2.3736 -0.4388 -2.0695
  611MOL0     H80595   6.441   0.679   7.332 -2.3115  0.1138  0.3672
  611MOL0     H80596   6.498   0.811   7.444  3.0925  0.7511 -1.1793
  611MOL0     H80597   6.271   0.814   7.432  0.8069 -0.3143  1.0266
  611MOL0     H80598   6.247   0.799   7.259  0.0855 -1.5971  1.6298
  611MOL0     H80599   6.377   1.033   7.267  0.9989 -4.3278 -1.2766
  611MOL0     H80600   6.333   1.019   7.445 -2.5521 -0.2288  1.2265
  611MOL0     H80601   6.094   0.975   7.378  0.9964 -0.4162 -0.7832
  611MOL0     H80602   6.165   1.136   7.388  5.4161 -0.6203  1.6501
  611MOL0     H80603   6.139   0.964   7.141  1.8431  1.1942  0.3667
  611MOL0     H80604   6.163   1.138   7.130  0.7793 -1.8575 -1.3885
  611MOL0     H80605   5.947   1.286   7.151  1.8466 -1.1455 -1.6564
  611MOL0     H80606   5.581   1.219   7.123  0.0383 -2.8367  0.7165
  611MOL0     H80607   5.694   1.358   7.127 -1.4406  0.6329  1.0121
  611MOL0     H80608   5.553   1.394   7.307  2.0853  1.6383 -2.1396
  611MOL0     H80609   5.700   1.333   7.384  0.7693  0.7417 -2.6985
  611MOL0     H80610   5.467   1.160   7.318 -1.4774  0.9889  0.2189
  611MOL0     H80611   5.610   1.116   7.422 -0.9360 -2.3158 -1.7209
  611MOL0     H80612   5.534   1.287   7.586 -0.2773 -2.3043  1.4629
  611MOL0     H80613   5.417   1.163   7.554  1.3333  0.4848  2.2136
  611MOL0     H80614   5.158   1.381   7.355  4.7766  0.3207  0.2083
  611MOL0     H80615   4.925   1.393   7.465 -0.1396 -0.1610  1.3464
  611MOL0     H80616   4.644   1.178   7.753  3.2489  2.6053  0.8779
  611MOL0     H80617   4.410   1.153   7.827  2.3406 -0.3918  0.7105
  611MOL0     H80618   4.255   1.309   8.027 -0.5504 -1.4307  1.4084
  611MOL0     H80619   4.222   1.179   7.908 -0.2992 -0.1127  0.7484
  611MOL0     H80620   4.003   1.307   7.867 -0.4757  1.9403  0.7134
  611MOL0     H80621   4.041   1.388   8.021  0.5776 -0.1383 -0.8370
  611MOL0     H80622   4.028   1.182   8.149  0.9343  0.3752 -0.2701
  611MOL0     H80623   4.042   1.093   8.008 -1.6256 -1.5108  1.2823
  611MOL0     H80624   3.809   1.158   7.942 -0.5081  2.0905 -0.2744
  611MOL0     H80625   3.807   1.081   8.106  0.6283  1.3268  2.7058
  611MOL0     H80626   3.782   1.370   8.020 -3.3360  1.7788  0.0358
  611MOL0     H80627   3.777   1.307   8.185  1.7541 -1.0967 -1.0928
  611MOL0     H80628   3.576   1.176   8.112 -3.9449  0.4078 -1.1166
  611MOL0     H80629   3.583   1.243   7.951  0.6982  1.0162  0.1154
  611MOL0     H80630   3.557   1.439   8.201  0.5306  3.7325 -1.0264
  611MOL0     H80631   3.540   1.470   8.036 -0.5702 -1.3104 -1.2504
  611MOL0     H80632   3.318   1.438   8.180 -1.8219 -0.8210  0.5092
  611MOL0     H80633   3.360   1.273   8.206 -2.9906  1.2818  0.2675
  611MOL0     H80634   4.348   1.573   7.731  0.1379  0.5699 -1.1036
  611MOL0     H80635   4.593   1.566   7.637 -0.6034 -1.7827 -4.8849
  611MOL0     H80636   5.108   1.280   7.841 -1.4953 -1.4421  0.2353
  611MOL0     H80637   5.324   1.243   7.719 -1.5350 -0.6659  2.2794
  611MOL0     H80638   6.946   0.572   7.431 -3.9759  2.3165 -0.5169
  611MOL0     H80639   7.177   0.562   7.531 -0.1456 -0.2822 -0.9022
  611MOL0     H80640   7.522   0.607   7.639 -0.5547  0.6409 -0.7360
  611MOL0     H80641   7.768   0.562   7.699 -0.5407  0.2514  0.7721
  611MOL0     H80642   7.979   0.862   7.947  2.6005 -0.0479  1.0749
  611MOL0     H80643   8.016   0.891   7.775 -1.3641  0.7960  0.4278
  611MOL0     H80644   8.218   0.833   7.920 -1.9282  1.9737  1.1725
  611MOL0     H80645   8.129   0.685   7.959 -0.1005  1.2673  1.1594
  611MOL0     H80646   8.290   0.754   7.703  3.6788 -2.4996  0.1121
  611MOL0     H80647   8.166   0.636   7.679  2.4063  0.3210 -1.3170
  611MOL0     H80648   8.280   0.526   7.886 -1.7787  2.9845  1.3819
  611MOL0     H80649   8.361   0.519   7.727 -1.3812  0.0326 -0.1033
  611MOL0     H80650   8.610   0.734   8.015  0.0696 -2.3556  2.3992
  611MOL0     H80651   7.821   0.957   7.822 -0.9444 -0.2973  2.5738
  611MOL0     H80652   7.586   1.011   7.733  0.1139  0.6341 -1.5272
  612MOL0     O80653   8.191   8.104   4.659 -0.0007 -0.7590  0.6496
  612MOL0     C80654   8.110   8.192   4.641  0.1415 -0.7066 -0.4193
  612MOL0     O80655   8.135   8.312   4.576  0.0669  0.4546 -0.4428
  612MOL0     C80656   8.262   8.338   4.532 -0.1396  0.8611  0.0205
  612MOL0     C80657   8.283   8.377   4.399 -0.7178  0.5150  0.4947
  612MOL0     C80658   8.405   8.391   4.345 -0.0375  0.1493  0.1078
  612MOL0     C80659   8.514   8.380   4.426 -0.3685 -0.0830 -0.3234
  612MOL0     O80660   8.645   8.391   4.373  0.2138  0.6291  0.0038
  612MOL0     C80661   8.669   8.444   4.245 -0.0804 -0.1417 -0.3111
  612MOL0     C80662   8.816   8.480   4.235 -0.2499  0.7552  0.4943
  612MOL0     C80663   8.846   8.571   4.107  0.2326 -0.0526 -0.1460
  612MOL0     C80664   8.994   8.582   4.085 -1.3602  0.3002  0.4273
  612MOL0     C80665   9.032   8.651   3.951  0.4112 -0.3387 -0.4219
  612MOL0     C80666   9.006   8.805   3.955 -0.2871  0.2802  0.2257
  612MOL0     C80667   9.073   8.875   3.839  0.6713 -0.1086 -0.1208
  612MOL0     C80668   9.066   9.022   3.869 -0.5793 -0.6799  0.6544
  612MOL0     N80669   9.126   9.091   3.760  0.2573  0.0441  0.7073
  612MOL0     C80670   9.088   9.085   3.629  0.7083  0.6859  0.5264
  612MOL0     C80671   9.151   9.191   3.570 -0.3678  1.1434  0.4987
  612MOL0     C80672   9.155   9.213   3.415 -0.2833  0.3474  1.3697
  612MOL0     C80673   9.305   9.228   3.363  0.5484  0.3615  0.2624
  612MOL0     C80674   9.312   9.280   3.219  0.4551 -0.1772  0.5541
  612MOL0     C80675   9.297   9.431   3.203  0.1945 -0.8779  0.1022
  612MOL0     O80676   9.295   9.472   3.069  0.2111 -0.2987  0.2802
  612MOL0     C80677   9.179   9.466   2.998 -0.3366 -0.6385 -0.4567
  612MOL0     C80678   9.190   9.489   2.863  0.2853  0.0763  0.3679
  612MOL0     C80679   9.073   9.490   2.783 -0.0837 -0.3005 -0.6743
  612MOL0     C80680   8.947   9.454   2.844  0.2340 -0.1459 -0.0157
  612MOL0     C80681   8.818   9.450   2.771 -0.1173 -0.7479  0.6053
  612MOL0     O80682   8.704   9.419   2.840  0.4084 -0.6991  0.1985
  612MOL0     C80683   8.588   9.380   2.791  0.4905  0.5721 -0.1492
  612MOL0     C80684   8.573   9.330   2.667  1.1254  0.7335 -0.6644
  612MOL0     C80685   8.460   9.254   2.623 -0.0116 -0.8949  0.6759
  612MOL0     C80686   8.345   9.253   2.700  0.4121  0.3434  0.2548
  612MOL0     O80687   8.230   9.191   2.660  0.1449  0.3847 -0.3386
  612MOL0     C80688   8.236   9.095   2.562  0.2335  0.4126 -0.2321
  612MOL0     C80689   8.116   9.001   2.566  0.1256  0.0541  0.1956
  612MOL0     C80690   7.983   9.059   2.522  0.1959  0.1825  0.1240
  612MOL0     C80691   7.865   8.972   2.569  0.0348  0.3599  0.5549
  612MOL0     C80692   7.729   9.043   2.537 -0.1437  0.4637 -1.2392
  612MOL0     C80693   7.614   8.936   2.558 -0.3711 -0.1415  0.6327
  612MOL0     C80694   7.471   9.003   2.558 -0.7344 -0.4878  0.0418
  612MOL0     C80695   7.449   9.096   2.438 -0.5115 -0.4542  1.2245
  612MOL0    Cl80696   7.278   9.109   2.389 -0.0169  0.3490 -0.1086
  612MOL0     C80697   8.348   9.315   2.820 -0.2170  0.2726 -0.4757
  612MOL0     C80698   8.472   9.376   2.872 -0.3916  0.1368  0.4160
  612MOL0     O80699   8.822   9.512   2.663  0.4049  0.3910 -0.0685
  612MOL0     C80700   8.944   9.429   2.979 -0.4504 -0.2347 -0.3061
  612MOL0     C80701   9.057   9.436   3.057  0.3650 -0.0810 -0.2351
  612MOL0     N80702   9.222   9.262   3.664 -0.7163 -0.5722  0.6196
  612MOL0     N80703   9.214   9.199   3.771 -0.4737  0.1642  0.1457
  612MOL0     C80704   8.500   8.339   4.560  0.0361 -0.9264 -0.1122
  612MOL0     C80705   8.372   8.326   4.614  0.7844 -0.1333  0.0696
  612MOL0     C80706   7.974   8.142   4.665  0.6939  0.0259  0.5259
  612MOL0     C80707   7.961   8.030   4.740 -0.2205 -0.4257  0.1588
  612MOL0     C80708   7.837   7.981   4.782  0.0723 -0.5262 -0.1996
  612MOL0     C80709   7.726   8.035   4.723  0.6084 -0.1432 -0.4706
  612MOL0     O80710   7.598   7.994   4.755 -0.3225  0.1363  0.1281
  612MOL0     C80711   7.552   7.860   4.777 -0.4031 -0.0599 -0.1659
  612MOL0     C80712   7.492   7.821   4.643  0.2960 -0.1868  0.6748
  612MOL0     C80713   7.439   7.673   4.646  0.3278 -0.6119  0.9337
  612MOL0     C80714   7.338   7.645   4.747  0.2907 -0.1609 -0.1414
  612MOL0     C80715   7.266   7.525   4.704 -0.8751 -0.1635  0.2038
  612MOL0     C80716   7.211   7.423   4.665 -0.2508  1.1796  0.3213
  612MOL0     C80717   7.736   8.147   4.646 -0.7034 -0.2536  0.4570
  612MOL0     C80718   7.862   8.205   4.616  0.1083 -0.2141  0.0843
  612MOL0     H80719   8.194   8.362   4.339 -0.0498 -0.5647 -0.2637
  612MOL0     H80720   8.409   8.419   4.240 -4.6194  0.2529 -0.2565
  612MOL0     H80721   8.613   8.538   4.240  0.3951  0.1003 -2.0745
  612MOL0     H80722   8.643   8.367   4.172  0.8818 -1.9761  1.2071
  612MOL0     H80723   8.868   8.384   4.234 -2.8565 -0.8173 -2.6186
  612MOL0     H80724   8.852   8.529   4.326 -1.0554 -2.2273  2.5934
  612MOL0     H80725   8.802   8.671   4.106 -1.1327 -0.4368 -5.0397
  612MOL0     H80726   8.807   8.512   4.023  0.0649  0.3447 -0.3505
  612MOL0     H80727   9.038   8.647   4.161  1.3416  2.2780 -2.5484
  612MOL0     H80728   9.044   8.485   4.095 -1.6614  0.1532  0.5212
  612MOL0     H80729   8.976   8.604   3.869 -1.7286 -1.6853  1.6872
  612MOL0     H80730   9.138   8.639   3.925 -0.2927 -3.0750 -2.5506
  612MOL0     H80731   9.025   8.836   4.057 -0.0737 -3.1240  1.3523
  612MOL0     H80732   8.902   8.831   3.932  0.3412  0.1294 -3.4198
  612MOL0     H80733   9.175   8.840   3.819  1.1021  1.1636 -0.2138
  612MOL0     H80734   9.017   8.848   3.749  1.7179  3.3765 -2.0137
  612MOL0     H80735   9.116   9.050   3.962 -1.2902  1.9880  0.3348
  612MOL0     H80736   8.964   9.059   3.883 -0.2351  0.7645 -0.3895
  612MOL0     H80737   9.013   9.019   3.587  1.7809 -1.3015  1.5605
  612MOL0     H80738   9.089   9.293   3.381 -1.9087 -1.9933 -1.4789
  612MOL0     H80739   9.121   9.119   3.369  0.4079  0.1858  1.1759
  612MOL0     H80740   9.340   9.124   3.353  0.0747 -0.0308  2.3531
  612MOL0     H80741   9.370   9.285   3.429  2.2687 -1.7764  0.5534
  612MOL0     H80742   9.414   9.258   3.185  1.2565  2.0614  1.3110
  612MOL0     H80743   9.244   9.226   3.153  0.2866  2.5143 -1.6662
  612MOL0     H80744   9.376   9.486   3.254 -2.2722  1.2890  1.8404
  612MOL0     H80745   9.207   9.474   3.248  0.8448 -0.8502  1.4035
  612MOL0     H80746   9.284   9.514   2.816 -1.2446  3.7145 -1.0734
  612MOL0     H80747   9.065   9.521   2.680 -3.4409  2.6071  0.2611
  612MOL0     H80748   8.663   9.318   2.607  0.5294 -2.2818 -1.1347
  612MOL0     H80749   8.482   9.220   2.522  0.9270  1.8029 -0.1358
  612MOL0     H80750   8.322   9.027   2.562  1.5103  1.9429  0.3280
  612MOL0     H80751   8.238   9.154   2.469 -0.1586 -1.2005 -1.3134
  612MOL0     H80752   8.106   8.960   2.667 -2.8510  0.5089  0.1682
  612MOL0     H80753   8.138   8.925   2.491  1.1038  1.0912 -0.6042
  612MOL0     H80754   7.985   9.083   2.415 -2.2125  0.2801  0.0468
  612MOL0     H80755   7.962   9.149   2.580 -1.0712  0.7322 -1.1180
  612MOL0     H80756   7.869   8.873   2.523 -0.0720  1.0161 -0.9209
  612MOL0     H80757   7.873   8.953   2.677 -0.2717 -2.0625  0.2046
  612MOL0     H80758   7.724   9.092   2.439  1.0163  3.5994  0.1406
  612MOL0     H80759   7.728   9.130   2.604 -0.0936  1.4668 -2.5055
  612MOL0     H80760   7.623   8.892   2.658 -0.7856  1.9016  1.6285
  612MOL0     H80761   7.615   8.861   2.478 -1.1760  1.1248 -0.5993
  612MOL0     H80762   7.407   8.915   2.548  0.0600 -1.2493  1.3167
  612MOL0     H80763   7.458   9.057   2.652  3.9662  0.1970  0.5557
  612MOL0     H80764   7.502   9.056   2.352 -0.2891 -0.3141  1.2947
  612MOL0     H80765   7.484   9.200   2.445 -1.8828  0.4766 -2.8119
  612MOL0     H80766   8.258   9.326   2.879 -0.4672 -0.5848 -0.6875
  612MOL0     H80767   8.465   9.421   2.971 -0.3104  0.1740  0.4045
  612MOL0     H80768   8.852   9.409   3.032  1.2372  1.3459  3.6012
  612MOL0     H80769   9.035   9.408   3.159 -0.2641 -0.1998 -0.4041
  612MOL0     H80770   8.587   8.332   4.624  0.2325  1.1636 -0.0943
  612MOL0     H80771   8.366   8.293   4.718  2.6579  1.6209  0.7879
  612MOL0     H80772   8.044   7.978   4.787 -0.0574  0.3416  0.7476
  612MOL0     H80773   7.839   7.891   4.842  1.0981  0.0873  0.7128
  612MOL0     H80774   7.477   7.861   4.856  1.5712  3.3004  1.9312
  612MOL0     H80775   7.633   7.788   4.793  0.5935  1.0405 -0.1316
  612MOL0     H80776   7.406   7.884   4.620 -1.8908 -2.3954  2.2798
  612MOL0     H80777   7.570   7.841   4.569  0.9213 -0.7547  1.1761
  612MOL0     H80778   7.527   7.613   4.671  0.7358  0.3605  1.9339
  612MOL0     H80779   7.394   7.640   4.552  0.4698 -1.2870  1.0980
  612MOL0     H80780   7.392   7.634   4.842 -0.0138  1.6046  0.2655
  612MOL0     H80781   7.268   7.729   4.754  0.4149 -0.0691  0.0137
  612MOL0     H80782   7.154   7.333   4.654  2.9865 -1.0753  0.3875
  612MOL0     H80783   7.650   8.193   4.599  1.6638  1.7764 -2.2617
  612MOL0     H80784   7.866   8.298   4.560 -2.9359  0.6532  1.1147
  613MOL0     O80785   6.825   1.556   7.250 -0.7533  0.1425 -0.2623
  613MOL0     C80786   6.905   1.626   7.316  0.5648  0.1117  0.4372
  613MOL0     O80787   6.876   1.743   7.398  0.3090  0.0647  0.1504
  613MOL0     C80788   6.748   1.793   7.394  1.0312  0.1666  0.3628
  613MOL0     C80789   6.679   1.812   7.515 -0.0083  0.9267  0.1806
  613MOL0     C80790   6.545   1.857   7.508  0.2080  0.1328 -0.4856
  613MOL0     C80791   6.487   1.896   7.387 -0.0117 -0.2953  0.4996
  613MOL0     O80792   6.371   1.955   7.406  0.1982 -0.4526 -0.0496
  613MOL0     C80793   6.286   1.976   7.286  0.6076  0.6446  0.5258
  613MOL0     C80794   6.150   1.914   7.312  0.4860  0.2077  0.0055
  613MOL0     C80795   6.091   1.975   7.442  0.7224  0.4524 -0.5550
  613MOL0     C80796   5.945   1.926   7.463  1.1457  0.0884  0.0462
  613MOL0     C80797   5.887   1.964   7.603  0.2444  0.2816 -0.1780
  613MOL0     C80798   5.847   2.118   7.601  0.3095  0.4707 -0.5106
  613MOL0     C80799   5.777   2.165   7.735 -0.8998  0.3108 -0.1129
  613MOL0     C80800   5.625   2.123   7.728  0.5333  0.0997 -0.0326
  613MOL0     N80801   5.544   2.203   7.821 -0.6671  0.8316 -0.0309
  613MOL0     C80802   5.593   2.254   7.942  0.5206  0.2436  0.6145
  613MOL0     C80803   5.487   2.316   8.001  0.0204 -0.1651 -1.1066
  613MOL0     C80804   5.478   2.397   8.128  0.2145 -0.3625 -0.3451
  613MOL0     C80805   5.456   2.305   8.251  0.0392  0.5619  0.5005
  613MOL0     C80806   5.583   2.243   8.297 -0.1941 -0.6663  0.4947
  613MOL0     C80807   5.559   2.148   8.417  0.4096  0.0240 -0.6120
  613MOL0     O80808   5.519   2.225   8.534  0.2553 -0.2013 -0.3229
  613MOL0     C80809   5.392   2.208   8.576 -0.6329 -0.3450  0.1430
  613MOL0     C80810   5.343   2.079   8.591  0.3180  0.2871 -0.7279
  613MOL0     C80811   5.209   2.052   8.636 -0.2633  0.4088  1.0479
  613MOL0     C80812   5.127   2.153   8.682 -0.2373  0.5179  0.3579
  613MOL0     C80813   4.990   2.126   8.719 -0.3901  0.4503 -0.0756
  613MOL0     O80814   4.938   2.006   8.690 -0.4201 -0.1668 -0.2648
  613MOL0     C80815   4.802   1.980   8.702  0.0798  0.1614 -0.1458
  613MOL0     C80816   4.766   1.881   8.795  0.2725 -0.3088  0.3537
  613MOL0     C80817   4.633   1.848   8.806  0.0170  0.2833  0.0221
  613MOL0     C80818   4.541   1.902   8.723  0.3130 -0.0338 -0.3802
  613MOL0     O80819   4.419   1.846   8.732  0.3248 -1.1417  0.2001
  613MOL0     C80820   4.388   1.768   8.613  0.2938  0.5480  0.0837
  613MOL0     C80821   4.236   1.732   8.587 -0.0959  0.1794  0.5185
  613MOL0     C80822   4.191   1.733   8.435 -0.3291 -0.6160  0.8888
  613MOL0     C80823   4.032   1.735   8.432 -0.1087  0.2935 -0.0417
  613MOL0     C80824   3.966   1.676   8.302 -0.1412 -0.9210 -0.8461
  613MOL0     C80825   4.005   1.723   8.163 -0.1769 -0.0866 -0.1571
  613MOL0     C80826   3.911   1.667   8.053  0.0101 -0.6279  0.1971
  613MOL0     C80827   3.983   1.673   7.911  0.2757  0.5362  0.4710
  613MOL0    Cl80828   3.876   1.599   7.804 -0.1483 -0.2916  0.2626
  613MOL0     C80829   4.577   2.012   8.647  0.1019  0.5059  0.1683
  613MOL0     C80830   4.710   2.057   8.624 -0.1588  0.6673 -0.3851
  613MOL0     O80831   4.935   2.213   8.784  1.0181  0.0088  0.1607
  613MOL0     C80832   5.181   2.280   8.679  0.5939  0.6245  1.1662
  613MOL0     C80833   5.307   2.313   8.627 -0.3531 -0.4429  0.1216
  613MOL0     N80834   5.378   2.298   7.917 -0.1949  0.2394 -0.3827
  613MOL0     N80835   5.417   2.241   7.811 -0.0662 -0.1226 -0.8542
  613MOL0     C80836   6.556   1.882   7.266 -0.2853  0.4108  0.0948
  613MOL0     C80837   6.682   1.827   7.271  0.5447  0.0205  0.7946
  613MOL0     C80838   7.038   1.573   7.339  1.0192 -0.3683  0.0682
  613MOL0     C80839   7.124   1.616   7.448 -0.3522  0.2907  0.2468
  613MOL0     C80840   7.248   1.566   7.464  0.0770  0.0073  0.0024
  613MOL0     C80841   7.295   1.466   7.381 -0.2169  0.2790  0.0334
  613MOL0     O80842   7.429   1.434   7.416 -0.7103  0.6765  0.4468
  613MOL0     C80843   7.489   1.317   7.361  0.6617 -0.1199 -0.5649
  613MOL0     C80844   7.594   1.265   7.462 -0.7444  0.7184  0.5576
  613MOL0     C80845   7.689   1.166   7.401  0.0901  1.0735  0.7421
  613MOL0     C80846   7.636   1.021   7.366  0.1035  0.1517  0.7737
  613MOL0     C80847   7.534   1.019   7.254 -0.2951 -0.6625 -0.3047
  613MOL0     C80848   7.459   1.014   7.163  0.3660 -0.7961  1.0691
  613MOL0     C80849   7.222   1.413   7.278  0.1841 -0.2971 -0.1838
  613MOL0     C80850   7.098   1.479   7.248 -0.2579  0.4309  0.2135
  613MOL0     H80851   6.733   1.801   7.608  2.0170 -1.1078 -1.1387
  613MOL0     H80852   6.484   1.867   7.597  0.8675  2.6922 -0.2296
  613MOL0     H80853   6.319   1.926   7.194 -2.8953 -0.3858 -0.3394
  613MOL0     H80854   6.258   2.081   7.280 -0.6246  0.3423  0.7410
  613MOL0     H80855   6.153   1.805   7.322 -1.0963  0.1508  0.0466
  613MOL0     H80856   6.080   1.941   7.233  0.1546  2.5521  1.0382
  613MOL0     H80857   6.089   2.084   7.447 -2.1964  0.5360 -1.4920
  613MOL0     H80858   6.145   1.928   7.525  0.8152 -0.6674 -1.2286
  613MOL0     H80859   5.887   1.961   7.377  0.4298 -2.0276 -0.3993
  613MOL0     H80860   5.927   1.818   7.455 -0.4366  0.4634 -2.3796
  613MOL0     H80861   5.961   1.958   7.683  3.8101  1.3741 -3.1326
  613MOL0     H80862   5.801   1.896   7.610  1.5939 -1.4559  0.5488
  613MOL0     H80863   5.770   2.134   7.525 -0.8291  2.3167  0.9425
  613MOL0     H80864   5.930   2.187   7.583  1.0385 -0.1257  0.5082
  613MOL0     H80865   5.831   2.114   7.816 -0.3512  0.5840 -0.2975
  613MOL0     H80866   5.775   2.274   7.747 -1.6080  0.3045 -0.1335
  613MOL0     H80867   5.617   2.025   7.774  1.2682  0.1972  0.3255
  613MOL0     H80868   5.577   2.132   7.630 -2.2823  0.9437  1.3081
  613MOL0     H80869   5.688   2.236   7.992  0.7826 -0.6984 -0.1794
  613MOL0     H80870   5.388   2.459   8.130 -0.4814 -1.3390  1.7161
  613MOL0     H80871   5.561   2.464   8.149 -0.6782 -0.1851  3.5723
  613MOL0     H80872   5.384   2.228   8.221  0.8000  0.8475 -2.3252
  613MOL0     H80873   5.413   2.369   8.329  0.4013  0.7929  0.5113
  613MOL0     H80874   5.621   2.194   8.207 -0.4340  2.8879 -1.7323
  613MOL0     H80875   5.658   2.315   8.330  2.2833 -2.7458 -0.2487
  613MOL0     H80876   5.650   2.089   8.433  0.0850 -1.0858 -2.6112
  613MOL0     H80877   5.481   2.078   8.389 -2.2277  1.3439  2.7127
  613MOL0     H80878   5.401   1.992   8.565 -2.6455 -1.3715 -2.3466
  613MOL0     H80879   5.172   1.950   8.637 -0.0229  0.2819 -0.6082
  613MOL0     H80880   4.849   1.830   8.843  2.2763  0.6490 -1.8942
  613MOL0     H80881   4.596   1.777   8.879  2.8041  0.0195  1.3075
  613MOL0     H80882   4.437   1.672   8.631 -1.7300  0.1246  5.1806
  613MOL0     H80883   4.436   1.815   8.527  2.8205  0.7436  1.4793
  613MOL0     H80884   4.174   1.796   8.651 -1.4784 -0.5036 -0.0823
  613MOL0     H80885   4.217   1.629   8.619 -2.0649 -0.3295 -1.9524
  613MOL0     H80886   4.220   1.639   8.388  1.1372 -0.2583  1.0476
  613MOL0     H80887   4.223   1.822   8.380 -5.4326  1.3037  0.4651
  613MOL0     H80888   3.987   1.686   8.519 -0.0573 -0.0504 -0.2061
  613MOL0     H80889   4.002   1.840   8.440 -0.1266  0.4083 -1.3142
  613MOL0     H80890   3.860   1.700   8.310  0.5050  2.1121 -0.3039
  613MOL0     H80891   3.998   1.572   8.310  0.3751 -0.7625 -0.8212
  613MOL0     H80892   4.110   1.699   8.145 -0.0475  1.0617 -1.0362
  613MOL0     H80893   4.007   1.832   8.161  1.4622  0.1363  3.8503
  613MOL0     H80894   3.892   1.561   8.071  0.7254 -1.0961 -1.5796
  613MOL0     H80895   3.822   1.731   8.052 -0.2781 -0.8567 -3.4656
  613MOL0     H80896   4.078   1.620   7.906 -2.0256 -4.0292  0.6947
  613MOL0     H80897   4.008   1.776   7.882 -0.4599  0.8553  0.9378
  613MOL0     H80898   4.492   2.061   8.601 -1.7516 -2.3064  0.3228
  613MOL0     H80899   4.741   2.129   8.549  0.4857  2.1915  1.2830
  613MOL0     H80900   5.118   2.363   8.707 -3.5440 -2.7634  3.0355
  613MOL0     H80901   5.350   2.411   8.607 -2.8274  0.6805 -0.1081
  613MOL0     H80902   6.516   1.911   7.169  1.0067 -0.9378 -0.8817
  613MOL0     H80903   6.736   1.827   7.178 -0.4307  0.2608  0.2161
  613MOL0     H80904   7.095   1.696   7.515 -0.3414 -1.1278  2.0214
  613MOL0     H80905   7.331   1.592   7.529  0.6565 -0.6188 -0.4739
  613MOL0     H80906   7.539   1.352   7.270 -1.1361  0.6311 -1.3077
  613MOL0     H80907   7.413   1.241   7.343  0.9007  0.2501 -3.7073
  613MOL0     H80908   7.653   1.356   7.480  1.5333 -0.5296 -0.2308
  613MOL0     H80909   7.557   1.213   7.551 -0.4710 -0.7674 -0.1716
  613MOL0     H80910   7.762   1.145   7.480  0.9468 -1.3849 -0.6184
  613MOL0     H80911   7.721   1.217   7.309 -2.1654 -0.8590 -1.2565
  613MOL0     H80912   7.720   0.953   7.349  0.1022  0.4009 -0.2849
  613MOL0     H80913   7.589   0.988   7.459 -1.0528 -0.1728  0.0957
  613MOL0     H80914   7.386   1.007   7.085  2.3879  0.9914 -1.1536
  613MOL0     H80915   7.249   1.338   7.205 -1.7025 -2.2547  1.0320
  613MOL0     H80916   7.041   1.452   7.160 -1.4649  2.3312  0.3769
  614MOL0     O80917   5.783  10.768   6.479  0.0923  1.0941 -0.1118
  614MOL0     C80918   5.807  10.673   6.397  0.3614 -0.1178  0.1254
  614MOL0     O80919   5.729  10.636   6.290  0.2352  0.5449  0.2165
  614MOL0     C80920   5.614  10.698   6.255 -0.8435  0.8034 -0.2450
  614MOL0     C80921   5.560  10.678   6.129  0.7492  0.0052  0.5538
  614MOL0     C80922   5.437  10.737   6.098  0.2989  0.3462  0.3630
  614MOL0     C80923   5.363  10.810   6.187  0.5515 -1.5124 -0.2866
  614MOL0     O80924   5.238  10.864   6.151  1.1704 -0.2994  0.1492
  614MOL0     C80925   5.162  10.779   6.064 -0.2859  0.0166 -0.5540
  614MOL0     C80926   5.014  10.807   6.055 -0.1397 -0.3242 -0.1327
  614MOL0     C80927   4.991  10.956   6.009  0.0579 -0.6930 -0.5975
  614MOL0     C80928   4.850  10.976   5.947  0.2596  0.0735  0.5238
  614MOL0     C80929   4.816  11.125   5.959  0.3195 -0.3550  0.2443
  614MOL0     C80930   4.688  11.151   5.886  0.4137 -0.3963  0.3631
  614MOL0     C80931   4.652  11.300   5.882 -0.6260 -0.0566  0.2181
  614MOL0     C80932   4.516  11.330   5.810 -0.1887  0.0308 -0.1764
  614MOL0     N80933   4.396  11.293   5.896  0.2709  0.5010  0.0234
  614MOL0     C80934   4.273  11.346   5.885 -0.3500 -0.7453 -0.5996
  614MOL0     C80935   4.198  11.297   5.982 -0.5021  0.1077 -0.1073
  614MOL0     C80936   4.065  11.344   6.014  0.0925 -0.1548  0.0750
  614MOL0     C80937   4.038  11.306   6.158 -0.2331  1.0889  0.7134
  614MOL0     C80938   3.909  11.380   6.193 -0.3563 -0.7019  0.5795
  614MOL0     C80939   3.838  11.337   6.319  0.6669  0.1755  0.5136
  614MOL0     O80940   3.769  11.214   6.294  0.3606 -0.3347 -0.0520
  614MOL0     C80941   3.633  11.203   6.295  0.1309  0.4317 -0.2815
  614MOL0     C80942   3.535  11.300   6.280 -0.4971  0.3828 -0.1245
  614MOL0     C80943   3.402  11.262   6.291  0.5942  0.6438 -0.1385
  614MOL0     C80944   3.365  11.123   6.290  0.8344  0.4784  0.2752
  614MOL0     C80945   3.223  11.075   6.286  0.5472  0.4462  0.2871
  614MOL0     O80946   3.124  11.165   6.259 -0.5244 -0.4933 -0.7226
  614MOL0     C80947   3.001  11.148   6.311  1.1691 -0.1921  0.6354
  614MOL0     C80948   2.964  11.081   6.434 -0.3604 -1.2732  0.6268
  614MOL0     C80949   2.834  11.073   6.480  0.3353 -0.8271 -0.4039
  614MOL0     C80950   2.729  11.126   6.400 -0.6811 -0.2117  0.3886
  614MOL0     O80951   2.599  11.109   6.446 -0.6616 -0.5942 -0.3265
  614MOL0     C80952   2.507  11.209   6.402  0.0267  0.2002 -0.1766
  614MOL0     C80953   2.377  11.200   6.481 -0.3574 -0.5893  0.9815
  614MOL0     C80954   2.396  11.176   6.634  0.1477  0.3814  0.4642
  614MOL0     C80955   2.255  11.175   6.695  0.5615  1.1092 -0.8808
  614MOL0     C80956   2.260  11.137   6.850 -0.6221 -0.4535  0.6197
  614MOL0     C80957   2.316  10.996   6.869 -0.8482 -0.1774 -0.1126
  614MOL0     C80958   2.260  10.951   7.004  0.5966  0.0561 -0.4578
  614MOL0     C80959   2.305  10.815   7.058 -0.3923  0.1612 -0.2425
  614MOL0    Cl80960   2.469  10.817   7.112  0.2966 -0.0445 -0.2205
  614MOL0     C80961   2.756  11.183   6.278  0.6843 -0.3552 -0.1049
  614MOL0     C80962   2.888  11.208   6.242 -0.2075  0.8112  0.1908
  614MOL0     O80963   3.203  10.956   6.309 -0.3268 -0.0614 -0.2879
  614MOL0     C80964   3.467  11.024   6.297 -0.1630  0.1473 -0.1286
  614MOL0     C80965   3.600  11.069   6.298 -0.7377  0.8716 -0.9407
  614MOL0     N80966   4.274  11.197   6.049 -0.7713 -0.3979 -0.7755
  614MOL0     N80967   4.397  11.197   5.996  0.6040  0.3999 -0.2626
  614MOL0     C80968   5.414  10.815   6.319 -0.0152  0.3992 -0.0540
  614MOL0     C80969   5.531  10.752   6.354 -0.2043  0.1498  0.4713
  614MOL0     C80970   5.934  10.602   6.407  0.8085 -0.1359 -0.2423
  614MOL0     C80971   6.019  10.631   6.517  0.4731 -0.3891  0.8687
  614MOL0     C80972   6.135  10.562   6.538  0.4418  1.0527  0.0722
  614MOL0     C80973   6.178  10.451   6.455 -0.3103 -0.2018 -0.6474
  614MOL0     O80974   6.288  10.381   6.484 -0.9418 -0.0862  0.2241
  614MOL0     C80975   6.298  10.250   6.428 -0.4951  0.4638  0.3949
  614MOL0     C80976   6.424  10.178   6.457  0.8365  0.0026  0.6325
  614MOL0     C80977   6.553  10.243   6.409  0.0411  0.1699 -0.2099
  614MOL0     C80978   6.573  10.390   6.459 -0.0394  0.1102  0.0511
  614MOL0     C80979   6.534  10.482   6.353 -0.2322  0.3907 -1.1730
  614MOL0     C80980   6.496  10.540   6.255  0.9287  0.4672  0.2602
  614MOL0     C80981   6.085  10.425   6.346  0.3329  0.0005 -0.4265
  614MOL0     C80982   5.971  10.506   6.322  1.3582 -0.0527  0.3043
  614MOL0     H80983   5.624  10.623   6.060  2.4291  0.4862  1.6823
  614MOL0     H80984   5.418  10.746   5.991  3.0958  0.7702 -0.1827
  614MOL0     H80985   5.169  10.677   6.102 -1.5984  0.0071 -0.3051
  614MOL0     H80986   5.204  10.777   5.963  1.7372 -0.1675  0.2579
  614MOL0     H80987   4.966  10.788   6.151  0.1263  2.9852  0.7694
  614MOL0     H80988   4.963  10.738   5.987  0.4952 -0.4392 -0.4968
  614MOL0     H80989   5.081  10.990   5.955 -0.5578  0.2677 -1.0455
  614MOL0     H80990   4.982  11.018   6.098 -2.9831 -3.6555  1.3646
  614MOL0     H80991   4.843  10.948   5.841 -3.1807 -0.3846  0.7417
  614MOL0     H80992   4.775  10.918   6.001 -1.7121  2.8499  1.0000
  614MOL0     H80993   4.897  11.187   5.921  0.0524  0.5952  1.1764
  614MOL0     H80994   4.811  11.158   6.063 -2.9896  0.5121 -0.0548
  614MOL0     H80995   4.610  11.096   5.938 -1.1098  1.4790  0.1913
  614MOL0     H80996   4.687  11.110   5.784  2.3286  0.5461 -0.0719
  614MOL0     H80997   4.659  11.330   5.987  1.0093 -1.3894  0.5357
  614MOL0     H80998   4.735  11.344   5.826 -0.9044  0.0474 -0.1131
  614MOL0     H80999   4.505  11.296   5.707 -1.1113  2.6045 -1.0102
  614MOL0     H81000   4.519  11.439   5.808  1.1889  0.0127  0.0057
  614MOL0     H81001   4.235  11.417   5.812  1.8493 -0.6473 -1.7204
  614MOL0     H81002   3.991  11.297   5.949 -0.0097 -0.4530  0.4025
  614MOL0     H81003   4.069  11.452   5.996  1.1658  0.1802  1.9502
  614MOL0     H81004   4.127  11.339   6.214  0.8069 -0.3194 -0.0345
  614MOL0     H81005   4.039  11.197   6.169  5.5343  0.7154 -0.2804
  614MOL0     H81006   3.932  11.487   6.200  2.2549 -0.9112 -2.5605
  614MOL0     H81007   3.843  11.354   6.109 -0.2337  0.6350  0.0391
  614MOL0     H81008   3.765  11.408   6.358 -1.8499 -0.7747 -2.0893
  614MOL0     H81009   3.908  11.314   6.400 -0.1906  0.0949  1.2526
  614MOL0     H81010   3.568  11.403   6.271  2.5215 -0.0927  3.3866
  614MOL0     H81011   3.335  11.347   6.285  0.6562  0.9935  2.7560
  614MOL0     H81012   3.044  11.057   6.504  1.7552  2.9601 -0.0105
  614MOL0     H81013   2.810  11.027   6.575  1.6346 -0.0273  0.3440
  614MOL0     H81014   2.483  11.202   6.296 -0.2541  2.6572 -0.3286
  614MOL0     H81015   2.543  11.312   6.406 -1.7859  0.8848 -0.6019
  614MOL0     H81016   2.313  11.124   6.434  1.4486 -0.4809 -1.8816
  614MOL0     H81017   2.324  11.294   6.464  0.5946 -0.3695 -1.1001
  614MOL0     H81018   2.463  11.246   6.684 -1.7241  2.1276  0.6772
  614MOL0     H81019   2.436  11.074   6.631 -2.7017 -0.8168  0.1979
  614MOL0     H81020   2.223  11.280   6.684  1.7424  1.4479 -1.2298
  614MOL0     H81021   2.185  11.112   6.639 -0.3306  0.7464  0.5952
  614MOL0     H81022   2.159  11.132   6.891 -0.0204 -0.7851  2.1639
  614MOL0     H81023   2.307  11.214   6.912  1.6508 -1.0345 -0.2900
  614MOL0     H81024   2.425  11.004   6.874 -0.6673 -2.2236 -0.1100
  614MOL0     H81025   2.289  10.925   6.790 -1.3506  2.2507 -2.3010
  614MOL0     H81026   2.280  11.027   7.080  0.9868 -1.6244  1.1855
  614MOL0     H81027   2.153  10.948   6.984  1.2708  0.6632 -5.3664
  614MOL0     H81028   2.298  10.749   6.972  2.0567 -1.1541  0.4481
  614MOL0     H81029   2.231  10.788   7.134 -3.4092 -1.3037 -3.4356
  614MOL0     H81030   2.667  11.214   6.224  0.0869  0.7357  1.4326
  614MOL0     H81031   2.908  11.263   6.151  2.3227  3.0015  1.9116
  614MOL0     H81032   3.449  10.917   6.293 -1.3702  0.3073  0.5102
  614MOL0     H81033   3.679  10.995   6.289 -1.0681  0.3111  0.5510
  614MOL0     H81034   5.348  10.859   6.393 -1.9252 -0.4603 -1.1851
  614MOL0     H81035   5.553  10.729   6.457  4.4108  0.6352 -0.2139
  614MOL0     H81036   5.999  10.720   6.577  1.8263  1.7040 -1.5630
  614MOL0     H81037   6.200  10.596   6.618  0.3669  0.1965  0.5051
  614MOL0     H81038   6.290  10.261   6.319 -1.1502  0.2943  0.4197
  614MOL0     H81039   6.212  10.192   6.464 -1.0725  1.4154  0.5812
  614MOL0     H81040   6.425  10.170   6.566 -1.6935 -5.9498  0.6136
  614MOL0     H81041   6.422  10.081   6.406  1.2235  0.6279 -0.6148
  614MOL0     H81042   6.573  10.230   6.302  5.2408  1.6319  0.3011
  614MOL0     H81043   6.626  10.180   6.461  1.5333 -0.6065 -3.0283
  614MOL0     H81044   6.528  10.398   6.558  2.8052  2.7056  1.3302
  614MOL0     H81045   6.677  10.420   6.475 -0.4825  1.8525 -0.2028
  614MOL0     H81046   6.450  10.597   6.177 -0.2200 -1.3697 -0.4844
  614MOL0     H81047   6.113  10.344   6.279  2.2574 -1.7337  2.2564
  614MOL0     H81048   5.908  10.465   6.244  0.7051 -0.4233  1.0094
  615MOL0     O81049   6.906   3.768   1.291 -0.5208  0.8023  0.1047
  615MOL0     C81050   6.910   3.890   1.253 -0.0153  0.1281  0.5385
  615MOL0     O81051   6.813   3.988   1.278 -0.2767 -0.0716  0.3106
  615MOL0     C81052   6.715   3.945   1.365  0.4774  0.8371 -0.3467
  615MOL0     C81053   6.594   3.898   1.316 -0.1109 -0.6029 -0.3418
  615MOL0     C81054   6.490   3.842   1.400  0.1119 -0.1191  0.3180
  615MOL0     C81055   6.504   3.838   1.541  0.7305  0.1010 -0.5968
  615MOL0     O81056   6.393   3.794   1.613 -0.1321  0.6054 -0.4584
  615MOL0     C81057   6.420   3.762   1.752  0.0203 -0.7951 -0.4319
  615MOL0     C81058   6.296   3.708   1.830  0.0705  0.2673 -0.4139
  615MOL0     C81059   6.253   3.568   1.795 -0.3172  0.3824  0.1446
  615MOL0     C81060   6.137   3.524   1.888  0.3828  0.3449 -1.0930
  615MOL0     C81061   6.179   3.465   2.024  0.0822 -1.0699  0.6535
  615MOL0     C81062   6.083   3.403   2.127  0.5009  0.4355  0.7758
  615MOL0     C81063   6.009   3.279   2.085  0.3940 -0.2104 -0.0199
  615MOL0     C81064   5.874   3.299   2.007 -0.2853  0.4520 -0.1317
  615MOL0     N81065   5.784   3.394   2.074 -0.3507  0.3465  0.0931
  615MOL0     C81066   5.706   3.363   2.180 -0.2305  0.1933  0.0706
  615MOL0     C81067   5.640   3.475   2.209 -0.1320 -0.1255  1.3005
  615MOL0     C81068   5.552   3.503   2.331  0.6137  0.5341 -0.1798
  615MOL0     C81069   5.402   3.439   2.308 -0.5592 -0.2109  0.4894
  615MOL0     C81070   5.309   3.469   2.419  0.2642 -0.3377  0.5105
  615MOL0     C81071   5.155   3.485   2.376  1.0278 -0.4599 -0.1077
  615MOL0     O81072   5.145   3.616   2.304  0.1256 -0.2516 -0.5922
  615MOL0     C81073   5.019   3.661   2.322 -0.5936 -0.4557 -0.1943
  615MOL0     C81074   4.909   3.597   2.260 -0.4627 -0.7015 -0.3643
  615MOL0     C81075   4.774   3.636   2.273 -0.0688 -0.1474 -0.2465
  615MOL0     C81076   4.752   3.765   2.333 -0.0482  0.8717 -0.2106
  615MOL0     C81077   4.615   3.814   2.339  0.5122  0.0264 -0.1123
  615MOL0     O81078   4.604   3.928   2.401  0.1757  0.2000 -0.1220
  615MOL0     C81079   4.483   3.988   2.430 -0.1261 -0.5499 -0.7969
  615MOL0     C81080   4.395   3.913   2.494  0.2218  0.3368  0.0982
  615MOL0     C81081   4.260   3.956   2.510  0.2965 -0.2288  0.0444
  615MOL0     C81082   4.224   4.089   2.467 -0.4075  0.7751 -0.1584
  615MOL0     O81083   4.094   4.130   2.472 -1.0542 -0.4835 -0.0253
  615MOL0     C81084   3.983   4.035   2.463  0.4904  0.0717 -0.5599
  615MOL0     C81085   3.854   4.105   2.472 -0.2277  1.3563  0.4053
  615MOL0     C81086   3.720   4.024   2.459  0.9159  0.3544 -0.0363
  615MOL0     C81087   3.601   4.114   2.469 -0.4474 -0.1995  0.5452
  615MOL0     C81088   3.470   4.039   2.427 -0.2451 -0.1886 -0.0973
  615MOL0     C81089   3.345   4.125   2.420  0.3690 -0.0226 -0.5585
  615MOL0     C81090   3.221   4.040   2.396  0.0339 -1.0164  0.0573
  615MOL0     C81091   3.106   4.132   2.434  0.4789 -0.4263 -0.5869
  615MOL0    Cl81092   2.956   4.032   2.442  0.5934 -0.1770  0.1602
  615MOL0     C81093   4.323   4.167   2.411  0.7339 -0.0862 -0.0267
  615MOL0     C81094   4.457   4.119   2.397  1.3452  0.3172  0.4000
  615MOL0     O81095   4.527   3.754   2.275  0.2454  0.2602  0.6191
  615MOL0     C81096   4.855   3.832   2.391 -1.0704 -0.1172  0.1717
  615MOL0     C81097   4.988   3.792   2.373  0.9424  0.5141  0.3879
  615MOL0     N81098   5.673   3.571   2.117  0.4934 -0.0657  0.0140
  615MOL0     N81099   5.772   3.524   2.048 -0.1104  0.0335  0.4475
  615MOL0     C81100   6.632   3.865   1.593  0.6538 -0.0952  0.3501
  615MOL0     C81101   6.736   3.917   1.508  0.1849  0.2096 -0.5151
  615MOL0     C81102   7.024   3.945   1.183 -0.3197 -0.2188 -0.3271
  615MOL0     C81103   7.136   3.865   1.167 -0.3324  0.2672 -0.5857
  615MOL0     C81104   7.251   3.926   1.127  0.8506 -0.8252  0.3486
  615MOL0     C81105   7.261   4.060   1.081  0.2669 -0.2870  0.0118
  615MOL0     O81106   7.375   4.121   1.042  0.4800  0.8950  0.2009
  615MOL0     C81107   7.498   4.039   1.025 -0.0632  0.0950  0.1349
  615MOL0     C81108   7.610   4.125   0.984  0.3987  0.7072 -0.4742
  615MOL0     C81109   7.595   4.169   0.837 -0.3657 -0.5739  0.3625
  615MOL0     C81110   7.712   4.262   0.793 -0.4023 -0.4198 -0.5291
  615MOL0     C81111   7.724   4.387   0.873  0.8045 -0.5150  0.3307
  615MOL0     C81112   7.726   4.488   0.943 -1.0086 -0.1270  0.5719
  615MOL0     C81113   7.149   4.137   1.083 -0.5783 -1.5509 -0.1253
  615MOL0     C81114   7.029   4.083   1.137  0.5434  0.0104  0.2900
  615MOL0     H81115   6.571   3.906   1.210 -0.1580  1.2238 -0.2240
  615MOL0     H81116   6.399   3.808   1.353  0.9369 -0.7342 -0.8899
  615MOL0     H81117   6.447   3.856   1.802 -1.4977  1.0769 -2.8605
  615MOL0     H81118   6.498   3.686   1.755 -0.2379 -1.0632 -0.4681
  615MOL0     H81119   6.211   3.773   1.807  1.6408  2.2757 -0.8689
  615MOL0     H81120   6.326   3.714   1.935 -1.2173  0.2801 -0.0291
  615MOL0     H81121   6.339   3.500   1.790  0.9771  2.0095 -2.5678
  615MOL0     H81122   6.228   3.574   1.688 -2.1504 -2.9996  0.2299
  615MOL0     H81123   6.069   3.609   1.903  3.2179  2.6223 -0.3599
  615MOL0     H81124   6.090   3.440   1.835 -0.2369 -0.1298  0.1703
  615MOL0     H81125   6.228   3.553   2.067  0.3535 -0.3589 -1.0243
  615MOL0     H81126   6.252   3.386   2.008  1.9203  0.6607  0.1804
  615MOL0     H81127   6.004   3.470   2.163  0.8173  2.5030 -2.0533
  615MOL0     H81128   6.150   3.382   2.211 -0.0251 -1.2073  0.8109
  615MOL0     H81129   6.075   3.206   2.038 -2.2014 -2.4679 -0.4422
  615MOL0     H81130   5.988   3.235   2.183 -1.7930 -2.7724 -1.4870
  615MOL0     H81131   5.829   3.200   2.000 -0.6864  0.6212  0.0053
  615MOL0     H81132   5.899   3.332   1.906  2.7466 -0.2571  0.3063
  615MOL0     H81133   5.697   3.273   2.239  1.0314 -2.7769 -3.8592
  615MOL0     H81134   5.550   3.610   2.353  0.5034  1.0256 -2.3613
  615MOL0     H81135   5.601   3.454   2.415  3.4914  1.6766 -1.0690
  615MOL0     H81136   5.413   3.331   2.299  3.2586  0.0569  0.6483
  615MOL0     H81137   5.360   3.483   2.216  2.2877 -0.4756 -1.0320
  615MOL0     H81138   5.314   3.390   2.495  1.2086 -0.6584  0.1226
  615MOL0     H81139   5.337   3.565   2.464 -0.7582 -0.0011  0.4665
  615MOL0     H81140   5.095   3.487   2.468 -0.6837 -2.1181 -1.1075
  615MOL0     H81141   5.125   3.397   2.318  2.3862 -0.9220 -0.1418
  615MOL0     H81142   4.934   3.513   2.196 -0.1936  0.6735 -2.1425
  615MOL0     H81143   4.690   3.579   2.237 -1.0569  1.1732 -0.1181
  615MOL0     H81144   4.414   3.814   2.535 -3.1579 -0.0812  0.9503
  615MOL0     H81145   4.188   3.899   2.569 -1.2482 -0.8615 -2.3390
  615MOL0     H81146   3.990   3.970   2.551 -0.1982 -0.2217 -0.7228
  615MOL0     H81147   3.982   3.969   2.376 -0.5353  0.3304 -0.7570
  615MOL0     H81148   3.853   4.175   2.389 -2.7891 -0.5847 -1.3901
  615MOL0     H81149   3.860   4.157   2.568  2.7265  0.1400  0.9895
  615MOL0     H81150   3.715   3.966   2.552 -0.2274 -2.9988 -2.0031
  615MOL0     H81151   3.721   3.959   2.371 -1.0605  1.4364 -0.9361
  615MOL0     H81152   3.582   4.144   2.572 -0.6803  0.9433  0.1876
  615MOL0     H81153   3.616   4.203   2.407  0.0925  1.4887  2.9402
  615MOL0     H81154   3.454   3.957   2.498 -2.3002  1.3482  1.3681
  615MOL0     H81155   3.488   3.992   2.330  1.1768  0.5961 -0.2437
  615MOL0     H81156   3.348   4.196   2.337 -4.4395  2.0825  0.7216
  615MOL0     H81157   3.337   4.188   2.510  3.2029  1.4334 -1.1932
  615MOL0     H81158   3.242   4.026   2.290  3.8562 -1.2744  0.6903
  615MOL0     H81159   3.228   3.942   2.444 -0.2766 -1.5844 -1.0433
  615MOL0     H81160   3.090   4.216   2.366  0.9191  1.0671  1.0932
  615MOL0     H81161   3.122   4.184   2.529 -2.9869  1.7484 -1.0113
  615MOL0     H81162   4.316   4.272   2.386  2.0479 -0.0018 -0.0739
  615MOL0     H81163   4.538   4.178   2.354  0.7570  0.7579 -0.1220
  615MOL0     H81164   4.853   3.931   2.437 -0.2528  0.6509 -1.3813
  615MOL0     H81165   5.071   3.853   2.409 -0.0441  1.2378  1.4845
  615MOL0     H81166   6.650   3.863   1.700 -0.2433 -0.9397  0.5038
  615MOL0     H81167   6.830   3.947   1.551  0.3642 -2.2139  0.9659
  615MOL0     H81168   7.132   3.760   1.196 -0.4114  0.5530  0.4624
  615MOL0     H81169   7.346   3.873   1.137 -0.0433 -2.3026  1.3709
  615MOL0     H81170   7.487   3.954   0.956  0.4231 -1.5364  1.9875
  615MOL0     H81171   7.530   4.003   1.123  2.2303  2.1325  0.2342
  615MOL0     H81172   7.620   4.214   1.047  0.7126  1.3047 -1.3496
  615MOL0     H81173   7.696   4.058   0.991 -1.0988 -1.2414  0.2972
  615MOL0     H81174   7.500   4.223   0.835 -0.9021 -1.4085  1.9407
  615MOL0     H81175   7.575   4.080   0.777 -4.7170 -0.9938  2.0886
  615MOL0     H81176   7.813   4.220   0.792 -0.0438  0.1044  2.6898
  615MOL0     H81177   7.682   4.293   0.693 -0.6228  3.7335  0.6211
  615MOL0     H81178   7.723   4.585   0.989 -0.7307  0.7750 -1.2457
  615MOL0     H81179   7.162   4.236   1.042 -0.0373 -1.5417  0.0649
  615MOL0     H81180   6.946   4.150   1.158 -1.6353 -2.4166 -0.0947
  616MOL0     O81181   2.609   8.842   2.811  0.5076  0.3357  0.9462
  616MOL0     C81182   2.576   8.944   2.751  0.0225  0.1021 -0.4237
  616MOL0     O81183   2.497   9.039   2.805 -0.6084 -0.2757 -0.7703
  616MOL0     C81184   2.464   9.017   2.937 -0.1906  0.6351 -0.3965
  616MOL0     C81185   2.570   9.006   3.035  0.5220 -0.5548 -0.1562
  616MOL0     C81186   2.545   8.944   3.163  0.1295  0.0752  0.1788
  616MOL0     C81187   2.417   8.898   3.193  0.7350  0.1321  0.8290
  616MOL0     O81188   2.387   8.815   3.295 -0.7194 -0.0564 -0.4954
  616MOL0     C81189   2.487   8.715   3.329  0.4618  0.5388  0.1645
  616MOL0     C81190   2.425   8.591   3.393  0.4184  0.0441  0.1885
  616MOL0     C81191   2.348   8.516   3.277 -0.3803 -0.0073  0.4763
  616MOL0     C81192   2.273   8.386   3.324 -0.3571 -0.7721  0.6123
  616MOL0     C81193   2.341   8.252   3.294 -0.7236 -0.4634  0.1704
  616MOL0     C81194   2.494   8.256   3.308  1.0256 -0.2335  0.3310
  616MOL0     C81195   2.560   8.111   3.304 -0.0371 -0.5448 -0.0672
  616MOL0     C81196   2.563   8.039   3.162 -0.4924  0.3355  1.1079
  616MOL0     N81197   2.648   8.116   3.058  0.3575 -0.5126 -0.4019
  616MOL0     C81198   2.593   8.186   2.951 -0.5527  0.6768 -0.5161
  616MOL0     C81199   2.700   8.251   2.888  0.5355  0.3136  0.3353
  616MOL0     C81200   2.703   8.347   2.769  0.0832 -0.5121 -0.1272
  616MOL0     C81201   2.675   8.489   2.814 -0.1646  0.3729 -0.7091
  616MOL0     C81202   2.531   8.521   2.846  0.1209 -0.0246  0.0705
  616MOL0     C81203   2.436   8.534   2.727 -0.7255  0.6130 -0.5088
  616MOL0     O81204   2.389   8.406   2.686  0.2357  0.1134  0.0643
  616MOL0     C81205   2.282   8.353   2.755  0.7331  0.8278 -0.9986
  616MOL0     C81206   2.208   8.416   2.857  0.5752 -0.6145  0.4724
  616MOL0     C81207   2.089   8.369   2.909  0.1656  0.4484  0.0199
  616MOL0     C81208   2.029   8.253   2.873 -0.4947  0.8398  0.7269
  616MOL0     C81209   1.905   8.204   2.926 -0.3243  0.8030 -0.0075
  616MOL0     O81210   1.842   8.100   2.860 -1.0318  0.2399  0.1909
  616MOL0     C81211   1.715   8.069   2.915 -0.1145  0.4298 -0.2409
  616MOL0     C81212   1.600   8.134   2.880 -0.5854 -1.1852  0.0416
  616MOL0     C81213   1.479   8.077   2.913  0.2724 -0.2316  0.5573
  616MOL0     C81214   1.475   7.957   2.994  0.3117 -0.1091 -0.1327
  616MOL0     O81215   1.352   7.903   3.023 -0.3272  0.2098 -0.4137
  616MOL0     C81216   1.299   7.825   2.919  0.5548 -0.6469 -0.1363
  616MOL0     C81217   1.152   7.786   2.937  0.7996 -0.2754  0.7844
  616MOL0     C81218   1.097   7.702   2.830  0.3196 -0.0764  1.3244
  616MOL0     C81219   0.948   7.666   2.856  0.5036  1.0008  0.3493
  616MOL0     C81220   0.856   7.788   2.864  0.1638  0.3234 -0.3984
  616MOL0     C81221   0.711   7.747   2.889 -0.0637 -0.6170  0.7530
  616MOL0     C81222   0.625   7.870   2.877  0.8261  0.1336  0.2644
  616MOL0     C81223   0.484   7.827   2.842  0.4218 -0.0638 -0.5216
  616MOL0    Cl81224   0.382   7.976   2.845 -0.0764  0.3969 -0.4148
  616MOL0     C81225   1.595   7.898   3.041  0.4627  0.0605  0.8970
  616MOL0     C81226   1.712   7.958   3.000 -0.5084 -0.5334 -0.1688
  616MOL0     O81227   1.851   8.267   3.022 -0.0046 -0.1029 -0.0426
  616MOL0     C81228   2.108   8.178   2.782 -0.1983  0.8329 -0.4764
  616MOL0     C81229   2.228   8.226   2.724 -0.2537  0.0781  0.0647
  616MOL0     N81230   2.809   8.211   2.959 -0.2712 -0.8317 -0.3513
  616MOL0     N81231   2.784   8.139   3.059  0.9065  0.5132  0.6451
  616MOL0     C81232   2.319   8.936   3.104  0.1797  0.0909 -1.0414
  616MOL0     C81233   2.339   8.983   2.977  0.0946  0.3366  0.1028
  616MOL0     C81234   2.617   8.954   2.608  0.9164 -0.5590  0.2718
  616MOL0     C81235   2.567   9.062   2.533 -0.8428 -0.3349 -0.5110
  616MOL0     C81236   2.586   9.075   2.395 -0.4316  0.4948 -0.1824
  616MOL0     C81237   2.677   8.987   2.336 -0.4937  0.6848 -0.3484
  616MOL0     O81238   2.715   8.985   2.205 -0.1303  0.3922 -0.4329
  616MOL0     C81239   2.725   9.103   2.126 -0.1543  0.1258  0.4255
  616MOL0     C81240   2.875   9.111   2.074 -0.4184 -0.4278  0.2450
  616MOL0     C81241   2.971   9.146   2.184  0.0815 -0.1022  0.0694
  616MOL0     C81242   3.116   9.098   2.152 -0.0848  0.5722 -0.1230
  616MOL0     C81243   3.157   9.131   2.011 -0.5093  0.4102 -0.1254
  616MOL0     C81244   3.215   9.161   1.906 -0.0825  0.2909 -0.4830
  616MOL0     C81245   2.733   8.884   2.408 -0.2299 -0.3263 -0.3096
  616MOL0     C81246   2.703   8.863   2.541  0.7770  0.2660  0.3375
  616MOL0     H81247   2.667   9.044   3.003  1.1694  0.1132  2.3839
  616MOL0     H81248   2.626   8.935   3.235  1.7009  0.0725 -1.5199
  616MOL0     H81249   2.563   8.741   3.403 -0.7440 -0.7553  1.9322
  616MOL0     H81250   2.528   8.677   3.235 -0.5882 -1.2468  0.3864
  616MOL0     H81251   2.350   8.624   3.466 -2.4275  1.6516 -3.2166
  616MOL0     H81252   2.512   8.536   3.432  1.0784  1.4745  0.7850
  616MOL0     H81253   2.415   8.497   3.193  0.8287  0.5057  1.2855
  616MOL0     H81254   2.269   8.581   3.239 -0.6103 -0.6769 -0.2155
  616MOL0     H81255   2.260   8.399   3.432 -2.5055  0.9655  0.2302
  616MOL0     H81256   2.170   8.379   3.287 -0.9948  2.9931  1.1956
  616MOL0     H81257   2.318   8.218   3.192 -1.4274  1.2704 -0.2827
  616MOL0     H81258   2.297   8.169   3.349 -2.0786 -0.2167 -0.4954
  616MOL0     H81259   2.520   8.306   3.401  1.2296  2.4169 -1.0788
  616MOL0     H81260   2.535   8.314   3.225  0.2256 -0.3612 -0.1715
  616MOL0     H81261   2.663   8.126   3.338  0.1991 -0.0016 -0.9867
  616MOL0     H81262   2.515   8.035   3.368 -0.1925 -3.2914 -3.1679
  616MOL0     H81263   2.462   8.037   3.122 -0.5884  0.6936  1.3296
  616MOL0     H81264   2.599   7.937   3.179  1.2995  1.0855  2.1564
  616MOL0     H81265   2.488   8.185   2.922 -0.2898 -1.2256 -1.5872
  616MOL0     H81266   2.623   8.313   2.702  1.5334 -1.5355 -1.4107
  616MOL0     H81267   2.805   8.345   2.729  0.1248  1.0389 -0.1832
  616MOL0     H81268   2.706   8.558   2.735  1.1398 -0.7600 -1.2139
  616MOL0     H81269   2.740   8.514   2.898 -0.7433 -1.4629  0.3540
  616MOL0     H81270   2.479   8.449   2.911  0.3234 -1.2930 -1.1193
  616MOL0     H81271   2.538   8.617   2.898  3.0948 -0.8309  1.4056
  616MOL0     H81272   2.492   8.566   2.638  0.9026 -2.1989 -0.6132
  616MOL0     H81273   2.348   8.596   2.746 -1.0407  0.4282 -1.2938
  616MOL0     H81274   2.233   8.518   2.887 -2.1011  0.7169 -1.3494
  616MOL0     H81275   2.036   8.429   2.981 -2.7631 -2.0599  0.1422
  616MOL0     H81276   1.610   8.229   2.828  2.2875 -1.1860  0.3904
  616MOL0     H81277   1.382   8.121   2.890 -0.1490 -1.3756  0.0865
  616MOL0     H81278   1.354   7.732   2.903 -0.2447 -0.7951 -2.3368
  616MOL0     H81279   1.314   7.876   2.824  0.7891 -0.0595  0.2120
  616MOL0     H81280   1.094   7.879   2.946 -1.2664 -1.6795  3.2863
  616MOL0     H81281   1.156   7.733   3.032  4.1274  3.3830  3.0142
  616MOL0     H81282   1.148   7.605   2.825 -1.9797 -1.3128 -1.4030
  616MOL0     H81283   1.101   7.754   2.734  0.3226 -0.5629  1.0558
  616MOL0     H81284   0.910   7.599   2.778  0.4358 -1.2034  2.1622
  616MOL0     H81285   0.943   7.615   2.953  2.4624 -1.4989 -0.7552
  616MOL0     H81286   0.871   7.839   2.768  3.2688  0.7503  0.2069
  616MOL0     H81287   0.893   7.854   2.942  2.8587 -0.9867 -0.4348
  616MOL0     H81288   0.712   7.717   2.995  2.1167 -1.4781  0.5505
  616MOL0     H81289   0.688   7.666   2.820  0.4762  0.6098 -0.9305
  616MOL0     H81290   0.631   7.927   2.970  0.6217  0.1233  0.2838
  616MOL0     H81291   0.670   7.934   2.800  1.2227 -3.0436 -2.3854
  616MOL0     H81292   0.452   7.756   2.919  0.1903  0.6958  0.0924
  616MOL0     H81293   0.485   7.780   2.743 -0.6966 -0.3020 -0.4250
  616MOL0     H81294   1.591   7.806   3.099 -0.1349 -0.1950  0.4517
  616MOL0     H81295   1.801   7.905   3.035 -0.8549  0.1876  1.9820
  616MOL0     H81296   2.081   8.079   2.748 -1.2763  1.0804 -0.3895
  616MOL0     H81297   2.281   8.172   2.646  1.7393  1.1442  0.6100
  616MOL0     H81298   2.221   8.901   3.138  0.2610  0.4501 -0.4288
  616MOL0     H81299   2.249   9.005   2.920  0.0887  0.9067  0.3217
  616MOL0     H81300   2.495   9.128   2.582  0.6370  0.5712  0.5177
  616MOL0     H81301   2.564   9.164   2.338  3.2410  0.2918 -2.2698
  616MOL0     H81302   2.697   9.193   2.182 -0.5951  0.3626 -0.1649
  616MOL0     H81303   2.660   9.089   2.039 -0.6328  0.5056  0.7136
  616MOL0     H81304   2.896   9.021   2.017  2.0113 -0.0460  0.4250
  616MOL0     H81305   2.877   9.196   2.004 -0.9352  2.0355  2.9994
  616MOL0     H81306   2.937   9.089   2.271  2.9177 -0.4674  1.0355
  616MOL0     H81307   2.981   9.251   2.216  3.5478 -0.8247  1.8722
  616MOL0     H81308   3.192   9.139   2.219 -0.7796  5.4601 -1.9166
  616MOL0     H81309   3.110   8.990   2.165  0.6759  0.4200 -0.9376
  616MOL0     H81310   3.265   9.201   1.820 -1.7861 -0.4403 -1.8975
  616MOL0     H81311   2.795   8.821   2.345  0.5218  0.8064 -0.7367
  616MOL0     H81312   2.732   8.771   2.591 -1.1278 -1.0801 -0.8768
  617MOL0     O81313   0.845   2.377  11.214 -0.1888 -1.1760 -0.6526
  617MOL0     C81314   0.912   2.358  11.313 -0.8355  0.1921 -0.2139
  617MOL0     O81315   0.867   2.284  11.420 -0.2329  0.2067  0.7136
  617MOL0     C81316   0.735   2.244  11.422  0.0018  0.3694 -0.0831
  617MOL0     C81317   0.660   2.303  11.521 -0.2354 -0.4730 -0.0392
  617MOL0     C81318   0.526   2.269  11.529 -0.9403 -0.4198  0.7968
  617MOL0     C81319   0.465   2.181  11.438  0.0843  0.0765 -0.2353
  617MOL0     O81320   0.334   2.133  11.464  0.3902  0.2289  0.8787
  617MOL0     C81321   0.235   2.227  11.497  0.2151  0.6419  0.1307
  617MOL0     C81322   0.188   2.211  11.639  0.6275 -0.3943  0.1821
  617MOL0     C81323   0.079   2.316  11.678 -0.7941 -0.1989 -0.5809
  617MOL0     C81324   0.018   2.288  11.814  0.7191 -0.3097 -0.0769
  617MOL0     C81325  -0.114   2.375  11.832 -0.6776  0.1363  0.1663
  617MOL0     C81326  -0.125   2.408  11.988  0.1004  0.1532 -0.4045
  617MOL0     C81327  -0.178   2.286  12.066 -1.4380  0.6013 -0.1465
  617MOL0     C81328  -0.327   2.261  12.046  0.9013  0.2213 -0.7337
  617MOL0     N81329  -0.415   2.374  12.092  0.0868  0.7432 -0.1919
  617MOL0     C81330  -0.457   2.398  12.224 -0.6063  0.7313  0.0555
  617MOL0     C81331  -0.542   2.497  12.216  0.2274 -0.6959  0.2679
  617MOL0     C81332  -0.618   2.579  12.317 -0.1652 -0.5528  0.5013
  617MOL0     C81333  -0.539   2.619  12.438 -0.1814 -0.2406 -0.0445
  617MOL0     C81334  -0.615   2.739  12.507  0.3778 -0.0968  0.2685
  617MOL0     C81335  -0.751   2.704  12.564 -0.2951 -0.8713 -0.4878
  617MOL0     O81336  -0.862   2.686  12.475 -0.1080  0.2852 -0.7207
  617MOL0     C81337  -0.989   2.667  12.532 -0.2283  1.0973  0.4220
  617MOL0     C81338  -1.025   2.660  12.673  0.1708  0.3703 -0.2447
  617MOL0     C81339  -1.163   2.631  12.707  0.1469 -0.4323 -0.2214
  617MOL0     C81340  -1.267   2.619  12.615  0.6672 -0.0859 -0.3652
  617MOL0     C81341  -1.410   2.604  12.649  0.7063  0.0131 -0.1237
  617MOL0     O81342  -1.443   2.639  12.774 -0.4073  0.2510 -0.2237
  617MOL0     C81343  -1.572   2.667  12.822  0.4434 -0.8258  0.5352
  617MOL0     C81344  -1.605   2.602  12.948 -0.0044 -0.9138  0.1351
  617MOL0     C81345  -1.729   2.609  13.007  0.5794  0.8687  0.4632
  617MOL0     C81346  -1.835   2.681  12.947 -0.6989  0.8767  0.4350
  617MOL0     O81347  -1.961   2.690  13.001  0.6922 -0.1958 -0.2906
  617MOL0     C81348  -2.002   2.623  13.117  0.0581  1.1593 -0.1019
  617MOL0     C81349  -1.951   2.690  13.247 -0.3904 -0.4628 -0.1067
  617MOL0     C81350  -1.991   2.617  13.376  0.4341  0.1351 -0.3655
  617MOL0     C81351  -1.950   2.703  13.497  0.9958  0.1338  0.4413
  617MOL0     C81352  -2.020   2.664  13.637  0.2034  0.9744  0.6160
  617MOL0     C81353  -1.941   2.571  13.728 -0.7306  0.8444 -0.4661
  617MOL0     C81354  -2.016   2.538  13.862  0.6691 -1.1039 -0.2217
  617MOL0     C81355  -2.139   2.451  13.827  0.1727  1.1888 -1.5642
  617MOL0    Cl81356  -2.081   2.285  13.763 -0.1793 -0.0608 -0.2613
  617MOL0     C81357  -1.809   2.737  12.822  0.2836 -0.9383  0.3185
  617MOL0     C81358  -1.682   2.727  12.760 -0.0367 -0.7865  0.0257
  617MOL0     O81359  -1.487   2.571  12.555  1.0786 -0.0434 -0.1207
  617MOL0     C81360  -1.227   2.624  12.477  0.2179 -0.4244 -0.0002
  617MOL0     C81361  -1.091   2.640  12.443  0.4737 -0.1214  0.6660
  617MOL0     N81362  -0.556   2.532  12.080 -0.9717 -0.2072  0.1914
  617MOL0     N81363  -0.472   2.458  12.008  0.0252  0.4755  0.2943
  617MOL0     C81364   0.543   2.129  11.335  1.0282 -0.1210  0.5197
  617MOL0     C81365   0.682   2.152  11.328  0.4515 -0.5142 -0.6319
  617MOL0     C81366   1.060   2.390  11.309  0.2784 -0.5909  0.7933
  617MOL0     C81367   1.120   2.489  11.229  0.5375  0.4869  0.1978
  617MOL0     C81368   1.257   2.515  11.237  0.1683  0.3464 -0.6566
  617MOL0     C81369   1.335   2.432  11.318  0.0456  0.0216  0.6510
  617MOL0     O81370   1.465   2.466  11.327  0.0704  0.8951  0.1327
  617MOL0     C81371   1.571   2.376  11.365  0.1756 -0.1060 -0.1081
  617MOL0     C81372   1.590   2.260  11.263 -0.1625 -0.6909 -0.5268
  617MOL0     C81373   1.640   2.311  11.118 -0.3720 -0.0126  0.2140
  617MOL0     C81374   1.721   2.199  11.053  1.1802  0.6360  0.1356
  617MOL0     C81375   1.858   2.189  11.111 -0.8453  0.0030 -0.5090
  617MOL0     C81376   1.969   2.171  11.160  0.2146  0.2710 -0.3355
  617MOL0     C81377   1.282   2.326  11.380  0.4425 -0.2099 -0.4072
  617MOL0     C81378   1.145   2.313  11.386 -0.6268 -0.0142 -0.2944
  617MOL0     H81379   0.706   2.376  11.587 -0.2350  0.4901 -1.0765
  617MOL0     H81380   0.471   2.310  11.613  0.0529  0.0437  1.2293
  617MOL0     H81381   0.151   2.221  11.428  0.8274 -1.9751 -0.4820
  617MOL0     H81382   0.269   2.331  11.487  1.5324  0.2994  0.8161
  617MOL0     H81383   0.274   2.217  11.707  2.0386  2.6159 -1.6331
  617MOL0     H81384   0.142   2.112  11.646 -2.6151  0.9776 -0.2361
  617MOL0     H81385  -0.009   2.312  11.613 -1.0883 -0.3517 -0.1728
  617MOL0     H81386   0.124   2.416  11.679 -2.8725  0.7882  0.0196
  617MOL0     H81387  -0.005   2.181  11.820  1.9166 -0.6334 -1.0240
  617MOL0     H81388   0.100   2.310  11.882  2.9090  0.5566 -2.8173
  617MOL0     H81389  -0.204   2.330  11.790  0.5990 -0.0911 -2.5398
  617MOL0     H81390  -0.096   2.472  11.783  1.1344  0.7032  1.8224
  617MOL0     H81391  -0.202   2.485  11.989  0.5030  0.5517  0.0775
  617MOL0     H81392  -0.029   2.445  12.025  0.5365 -2.3562  1.2382
  617MOL0     H81393  -0.123   2.200  12.027 -0.4174  1.9866 -1.9542
  617MOL0     H81394  -0.150   2.295  12.171  4.0362  3.4690 -1.4986
  617MOL0     H81395  -0.342   2.168  12.101 -0.9825  0.7184 -0.3252
  617MOL0     H81396  -0.364   2.241  11.945  0.0184 -1.1206 -0.1735
  617MOL0     H81397  -0.413   2.351  12.311 -1.6161  3.1018  1.9464
  617MOL0     H81398  -0.692   2.507  12.353 -0.7304 -0.4118 -0.3555
  617MOL0     H81399  -0.669   2.667  12.276  1.6634 -0.3276 -1.4487
  617MOL0     H81400  -0.439   2.650  12.406  1.1453 -4.3367 -0.5040
  617MOL0     H81401  -0.530   2.531  12.502  2.4753  0.7749  1.0858
  617MOL0     H81402  -0.540   2.773  12.579 -0.4600  2.3868  0.0834
  617MOL0     H81403  -0.631   2.818  12.433  1.1547 -0.6415 -0.5046
  617MOL0     H81404  -0.778   2.780  12.637  2.3223 -1.8728  1.7194
  617MOL0     H81405  -0.740   2.608  12.615  1.3850  0.3008  1.5274
  617MOL0     H81406  -0.959   2.663  12.759 -0.1703  0.8405  0.0062
  617MOL0     H81407  -1.194   2.617  12.811 -3.1913 -0.2529 -1.0749
  617MOL0     H81408  -1.527   2.535  12.984 -0.0133 -0.9641  0.0626
  617MOL0     H81409  -1.752   2.539  13.087 -0.5710 -0.1172 -0.6772
  617MOL0     H81410  -1.986   2.515  13.108 -3.1507  0.4440  1.2587
  617MOL0     H81411  -2.110   2.629  13.133 -0.4929  1.8582 -3.4652
  617MOL0     H81412  -1.994   2.790  13.239  0.3131 -0.3025 -3.3068
  617MOL0     H81413  -1.842   2.698  13.242 -0.4150 -0.7687 -1.6601
  617MOL0     H81414  -1.936   2.523  13.378 -1.7859 -1.2186  0.6985
  617MOL0     H81415  -2.096   2.595  13.397  1.1113 -1.9850  1.1351
  617MOL0     H81416  -1.840   2.706  13.502  0.9635 -0.1156  3.6368
  617MOL0     H81417  -1.982   2.803  13.466  0.7605  0.7706  2.5511
  617MOL0     H81418  -2.116   2.614  13.624  1.9610 -3.3593  2.5455
  617MOL0     H81419  -2.029   2.756  13.697  3.4432  1.3523  0.7523
  617MOL0     H81420  -1.842   2.612  13.749 -1.2292  2.0595 -0.3795
  617MOL0     H81421  -1.926   2.474  13.681 -1.0294 -0.7631  2.5246
  617MOL0     H81422  -1.954   2.482  13.933 -0.9352 -3.4394 -0.5553
  617MOL0     H81423  -2.047   2.632  13.909  0.8043 -1.4613  0.6176
  617MOL0     H81424  -2.214   2.487  13.756 -0.2322  0.0829 -1.7123
  617MOL0     H81425  -2.186   2.433  13.924  1.1778 -1.3781 -1.4839
  617MOL0     H81426  -1.883   2.796  12.768  1.4769 -1.3322 -1.8747
  617MOL0     H81427  -1.678   2.763  12.658 -1.4789  1.8971  0.7898
  617MOL0     H81428  -1.303   2.620  12.399  0.9065  0.4931 -0.7395
  617MOL0     H81429  -1.078   2.630  12.336  1.1025  0.6765  0.6635
  617MOL0     H81430   0.504   2.049  11.272  0.4013  0.1711  0.5278
  617MOL0     H81431   0.736   2.092  11.256 -0.0210 -1.4308 -0.2393
  617MOL0     H81432   1.054   2.545  11.163  0.4328 -0.4199 -0.4935
  617MOL0     H81433   1.298   2.605  11.193 -1.7703  1.9684  0.6882
  617MOL0     H81434   1.546   2.343  11.466 -0.5514  1.3951  0.2178
  617MOL0     H81435   1.661   2.436  11.382 -0.5780  0.7177  1.0278
  617MOL0     H81436   1.661   2.187  11.305 -1.0139 -1.4910 -0.4489
  617MOL0     H81437   1.487   2.223  11.255 -0.7548  0.3973  1.3078
  617MOL0     H81438   1.715   2.390  11.134 -1.0087  0.3918  1.3259
  617MOL0     H81439   1.563   2.347  11.049  0.8653  1.1150 -0.6193
  617MOL0     H81440   1.658   2.110  11.064 -3.7897  3.8176  0.7295
  617MOL0     H81441   1.722   2.211  10.944  0.4062  0.1489  0.0631
  617MOL0     H81442   2.064   2.153  11.206  0.3261  1.7542  0.0906
  617MOL0     H81443   1.340   2.266  11.450  0.4154 -0.1028 -0.2931
  617MOL0     H81444   1.108   2.236  11.453 -0.2778  1.6363  1.8691
  618MOL0     O81445   9.295   1.500   4.663 -0.0577 -0.3518  0.2851
  618MOL0     C81446   9.333   1.399   4.721 -1.1478  0.9818  0.1061
  618MOL0     O81447   9.253   1.294   4.772 -0.0089 -0.0053  0.2150
  618MOL0     C81448   9.120   1.309   4.801  0.1750 -0.6013  0.8157
  618MOL0     C81449   9.042   1.203   4.753 -0.0176  0.5047 -0.2175
  618MOL0     C81450   8.897   1.212   4.770 -0.1469  0.0324 -0.2377
  618MOL0     C81451   8.848   1.316   4.848 -0.8560  0.6490  0.9780
  618MOL0     O81452   8.719   1.322   4.888 -0.4906  0.3565 -0.9528
  618MOL0     C81453   8.689   1.249   5.011 -0.1343  0.2755  0.3211
  618MOL0     C81454   8.535   1.227   5.052  0.3015 -0.2572 -0.1430
  618MOL0     C81455   8.520   1.139   5.178 -1.0055 -0.2847  0.1613
  618MOL0     C81456   8.371   1.115   5.208 -0.7291  0.1202  0.4282
  618MOL0     C81457   8.354   1.047   5.341 -0.0711 -0.9935  0.4212
  618MOL0     C81458   8.223   0.971   5.348  0.7597  0.3239  0.0717
  618MOL0     C81459   8.199   0.903   5.487 -0.5328  0.6761  0.5681
  618MOL0     C81460   8.118   0.988   5.593  0.7664 -0.1572 -0.0758
  618MOL0     N81461   7.989   1.053   5.550  0.1755 -0.1215  0.4913
  618MOL0     C81462   7.877   0.988   5.548  0.2009  0.7766  1.1044
  618MOL0     C81463   7.791   1.072   5.485  0.5882 -0.2200 -0.4438
  618MOL0     C81464   7.642   1.054   5.465 -1.0727 -0.5727  0.7129
  618MOL0     C81465   7.608   1.061   5.307  0.4405  0.2447 -0.0261
  618MOL0     C81466   7.646   0.941   5.226  0.1373  0.6913 -0.0422
  618MOL0     C81467   7.791   0.935   5.172  0.4011  0.2833 -0.2177
  618MOL0     O81468   7.825   0.803   5.118  0.0722 -0.7368 -0.2870
  618MOL0     C81469   7.947   0.792   5.049  0.0643  0.2525 -0.3489
  618MOL0     C81470   8.048   0.886   5.038  0.7164  0.3496 -1.1567
  618MOL0     C81471   8.164   0.860   4.958  0.6706 -0.0202 -0.5548
  618MOL0     C81472   8.183   0.748   4.882 -0.5328  0.1671 -0.2432
  618MOL0     C81473   8.302   0.725   4.795 -0.2163 -0.0564  0.1946
  618MOL0     O81474   8.388   0.827   4.797 -0.1934  0.2734  0.7988
  618MOL0     C81475   8.517   0.803   4.760  0.3671 -0.3307 -0.2076
  618MOL0     C81476   8.566   0.762   4.639 -0.0136 -0.7703 -0.5530
  618MOL0     C81477   8.708   0.778   4.606  0.4342 -0.1501  0.1743
  618MOL0     C81478   8.797   0.842   4.689 -0.2701 -0.3840  0.0799
  618MOL0     O81479   8.932   0.875   4.650 -0.4950  0.0628 -0.4302
  618MOL0     C81480   8.988   0.798   4.532 -0.4985  0.2337 -0.7403
  618MOL0     C81481   9.136   0.828   4.538  0.1533  0.8484 -0.3505
  618MOL0     C81482   9.198   0.790   4.397  0.8813  0.3590  0.4101
  618MOL0     C81483   9.352   0.757   4.418  1.1387 -0.3656  0.4044
  618MOL0     C81484   9.423   0.724   4.288  0.3143 -0.0321 -1.3360
  618MOL0     C81485   9.573   0.694   4.304 -0.1131 -0.1793 -0.2348
  618MOL0     C81486   9.602   0.590   4.408 -0.7352 -0.7636 -0.3481
  618MOL0     C81487   9.761   0.576   4.412 -0.6675 -0.5023 -0.1149
  618MOL0    Cl81488   9.800   0.491   4.564  0.0939  0.1840 -0.2640
  618MOL0     C81489   8.749   0.890   4.808  0.1545 -1.2474  0.1984
  618MOL0     C81490   8.608   0.874   4.841  0.3848  0.0054 -0.3423
  618MOL0     O81491   8.316   0.613   4.740 -0.7596 -0.0749  0.7944
  618MOL0     C81492   8.091   0.646   4.900  0.2938 -0.2894  0.9008
  618MOL0     C81493   7.972   0.672   4.964  0.9383 -0.8897 -0.1044
  618MOL0     N81494   7.856   1.190   5.454  0.0726 -0.1767  0.5539
  618MOL0     N81495   7.978   1.177   5.499 -0.2566 -0.0458 -0.0848
  618MOL0     C81496   8.931   1.422   4.888 -0.0148 -0.3416 -0.2417
  618MOL0     C81497   9.067   1.418   4.864 -0.0546  0.1117  0.0334
  618MOL0     C81498   9.478   1.373   4.711 -0.2069  0.2058  0.0132
  618MOL0     C81499   9.528   1.253   4.760 -0.1607  0.4248  0.4083
  618MOL0     C81500   9.660   1.225   4.766 -0.1389  0.6349  0.4139
  618MOL0     C81501   9.757   1.309   4.713 -0.4794 -0.1435 -0.0551
  618MOL0     O81502   9.886   1.277   4.702  0.0255  0.2096 -0.5763
  618MOL0     C81503   9.935   1.163   4.786 -0.0176 -0.0093  0.4782
  618MOL0     C81504   9.958   1.219   4.925  0.4117 -0.0512  0.7452
  618MOL0     C81505  10.042   1.127   5.012  0.4858 -0.4257  0.1302
  618MOL0     C81506  10.100   1.210   5.129 -0.4115  1.0603 -0.2325
  618MOL0     C81507  10.168   1.128   5.230  0.0911 -0.1621  0.1270
  618MOL0     C81508  10.238   1.067   5.304  0.2228 -0.0569 -0.0517
  618MOL0     C81509   9.704   1.436   4.668 -0.3012  0.0233  0.1865
  618MOL0     C81510   9.567   1.468   4.662  0.3170  1.2323  0.7028
  618MOL0     H81511   9.092   1.118   4.707 -1.4737 -0.8724  0.6405
  618MOL0     H81512   8.826   1.138   4.734 -2.0500  2.5303 -2.0278
  618MOL0     H81513   8.734   1.292   5.102  0.5154 -0.4664  0.3576
  618MOL0     H81514   8.736   1.151   5.001  1.1946  1.0997 -2.3356
  618MOL0     H81515   8.479   1.178   4.972 -1.2913  1.8277 -0.4022
  618MOL0     H81516   8.496   1.328   5.070 -1.6608 -0.7963 -1.1020
  618MOL0     H81517   8.580   1.166   5.265 -0.6513 -1.5447  0.3306
  618MOL0     H81518   8.571   1.043   5.162  3.9295  1.6064  2.4395
  618MOL0     H81519   8.325   1.214   5.201 -1.7664 -0.4315 -1.2389
  618MOL0     H81520   8.316   1.055   5.135 -2.2636  0.2659  1.4343
  618MOL0     H81521   8.352   1.122   5.420  1.8216 -1.2766  0.8042
  618MOL0     H81522   8.439   0.980   5.358  1.4437  0.4950 -0.9164
  618MOL0     H81523   8.225   0.891   5.273  0.8815 -0.6256  1.0602
  618MOL0     H81524   8.131   1.025   5.322  0.1860 -1.1958 -1.2176
  618MOL0     H81525   8.141   0.811   5.475 -1.2033  1.1120  0.4751
  618MOL0     H81526   8.300   0.879   5.523  1.8215  5.2169 -2.1892
  618MOL0     H81527   8.181   1.070   5.628  0.7769 -0.6022  0.9759
  618MOL0     H81528   8.096   0.926   5.680 -3.0960 -0.9924 -1.4639
  618MOL0     H81529   7.859   0.891   5.593  3.4639 -0.7597 -0.5481
  618MOL0     H81530   7.599   1.140   5.517 -0.7937 -0.4578  0.7584
  618MOL0     H81531   7.601   0.965   5.513 -1.3049 -0.7409  0.2041
  618MOL0     H81532   7.659   1.150   5.269  2.1309 -1.1256 -1.0597
  618MOL0     H81533   7.500   1.067   5.294  0.7377  2.4806 -2.1029
  618MOL0     H81534   7.638   0.856   5.294  1.4845  2.2937  2.2435
  618MOL0     H81535   7.579   0.940   5.140  0.0341  0.5418  0.0404
  618MOL0     H81536   7.863   0.964   5.249  2.9068  0.4231 -2.4526
  618MOL0     H81537   7.804   1.008   5.092  1.4047 -0.5014 -0.7931
  618MOL0     H81538   8.041   0.986   5.081 -0.1880 -1.4550  3.4767
  618MOL0     H81539   8.243   0.935   4.958 -1.2728  2.1379 -1.1067
  618MOL0     H81540   8.507   0.734   4.552  1.8661  0.4214 -2.3179
  618MOL0     H81541   8.735   0.742   4.508  1.7337  2.0011 -0.3195
  618MOL0     H81542   8.935   0.824   4.440 -1.7607 -0.7216 -0.3216
  618MOL0     H81543   8.969   0.691   4.542  0.4514 -0.1312 -2.4504
  618MOL0     H81544   9.176   0.766   4.619 -0.0982  0.3147 -0.6300
  618MOL0     H81545   9.154   0.932   4.565 -1.0935  0.5679  1.7869
  618MOL0     H81546   9.168   0.865   4.323 -2.5254  0.2016  1.4501
  618MOL0     H81547   9.152   0.700   4.356 -0.8372  2.0166 -1.5580
  618MOL0     H81548   9.396   0.841   4.472  0.1971 -0.2041  0.9327
  618MOL0     H81549   9.359   0.660   4.469 -1.2887 -1.0749 -0.4751
  618MOL0     H81550   9.404   0.806   4.218  0.8270 -0.3868 -1.9124
  618MOL0     H81551   9.372   0.640   4.238  0.0514  0.2287 -1.5094
  618MOL0     H81552   9.622   0.787   4.336 -0.6921  0.2234 -0.5065
  618MOL0     H81553   9.620   0.663   4.210  0.1386 -1.3246  0.2498
  618MOL0     H81554   9.577   0.629   4.507  2.1899  2.0647 -0.5385
  618MOL0     H81555   9.562   0.489   4.395 -2.4007 -0.1789  0.0113
  618MOL0     H81556   9.808   0.674   4.424 -1.5259 -0.2157  1.1975
  618MOL0     H81557   9.808   0.522   4.330  3.0042  1.0362  0.7669
  618MOL0     H81558   8.825   0.936   4.871 -0.0508  1.2394 -1.2339
  618MOL0     H81559   8.562   0.919   4.928 -1.9420 -1.7755 -0.5470
  618MOL0     H81560   8.123   0.551   4.860 -1.0710 -0.0463 -0.8940
  618MOL0     H81561   7.893   0.598   4.963  2.1637 -2.3013  1.5239
  618MOL0     H81562   8.890   1.500   4.952  0.7803 -0.9012  0.9914
  618MOL0     H81563   9.129   1.495   4.908  2.6737 -3.0859  2.2467
  618MOL0     H81564   9.461   1.173   4.788 -0.0806  0.1403 -0.1926
  618MOL0     H81565   9.675   1.127   4.810  2.2202  0.7002 -0.1204
  618MOL0     H81566  10.031   1.133   4.742  0.0717 -1.6432  1.6929
  618MOL0     H81567   9.874   1.074   4.765 -0.8722  0.4470  0.9817
  618MOL0     H81568  10.003   1.318   4.909 -1.0795  0.4516 -0.6212
  618MOL0     H81569   9.868   1.259   4.973  1.1025 -0.9742  2.9284
  618MOL0     H81570  10.111   1.081   4.941 -2.0976 -2.6149 -1.1600
  618MOL0     H81571   9.982   1.041   5.045 -3.6285  1.8693 -0.6465
  618MOL0     H81572  10.174   1.281   5.089  2.0139 -0.8870  0.5015
  618MOL0     H81573  10.027   1.273   5.180 -0.7008  0.8483 -0.3816
  618MOL0     H81574  10.301   0.996   5.355 -3.0974 -2.6391  0.8052
  618MOL0     H81575   9.758   1.522   4.630  1.1175  0.3526  2.7739
  618MOL0     H81576   9.539   1.563   4.619 -1.8633  1.0238  1.5401
  619MOL0     O81577   2.975   4.242   2.897 -0.1546 -0.1811  0.3980
  619MOL0     C81578   3.027   4.300   2.805  0.8485  0.2244  0.2211
  619MOL0     O81579   2.965   4.392   2.720  0.0101  0.5762 -0.3276
  619MOL0     C81580   2.834   4.426   2.756 -0.3569  0.6044 -0.3411
  619MOL0     C81581   2.727   4.333   2.769  0.5925  0.1545  0.6203
  619MOL0     C81582   2.599   4.386   2.810 -0.4500 -0.5283 -0.6598
  619MOL0     C81583   2.574   4.520   2.829 -0.0130  0.0099  0.0171
  619MOL0     O81584   2.451   4.581   2.860 -0.1580  1.3376  0.2942
  619MOL0     C81585   2.334   4.502   2.873 -0.1261  0.5194  0.2556
  619MOL0     C81586   2.204   4.576   2.844 -0.8049  0.5445 -0.5901
  619MOL0     C81587   2.174   4.703   2.912 -0.4844 -0.4002  0.0859
  619MOL0     C81588   2.034   4.764   2.876  0.5860  0.3071 -0.3941
  619MOL0     C81589   2.009   4.884   2.975  0.5429  0.4071 -0.2981
  619MOL0     C81590   1.871   4.943   2.982 -0.3161  0.2170 -0.0945
  619MOL0     C81591   1.862   5.045   3.101 -0.7715 -0.4939  0.5479
  619MOL0     C81592   1.725   5.112   3.105 -0.5652 -0.1154  0.0787
  619MOL0     N81593   1.612   5.014   3.118 -0.0922 -0.5321  0.6397
  619MOL0     C81594   1.523   4.989   3.013  0.6169  0.8023 -0.5595
  619MOL0     C81595   1.450   4.893   3.071 -0.4329 -1.1024  0.6700
  619MOL0     C81596   1.333   4.818   3.012  0.7247 -0.1970 -0.0157
  619MOL0     C81597   1.205   4.882   3.057  0.6310  0.3884  0.0417
  619MOL0     C81598   1.151   4.834   3.190 -0.1747 -0.8405  0.0144
  619MOL0     C81599   1.104   4.694   3.190 -0.0835 -0.6538  0.4334
  619MOL0     O81600   0.984   4.687   3.273 -0.5529  0.0295  0.5545
  619MOL0     C81601   0.858   4.708   3.229  0.7472  0.1631 -0.3151
  619MOL0     C81602   0.754   4.649   3.303 -0.4439  0.5488  0.7970
  619MOL0     C81603   0.618   4.650   3.254 -0.6929  1.0127  0.2521
  619MOL0     C81604   0.586   4.720   3.136 -0.1012  0.4747 -0.3317
  619MOL0     C81605   0.438   4.734   3.095  0.3955  0.0682  0.2458
  619MOL0     O81606   0.417   4.800   2.985  0.0095 -0.4719  0.1069
  619MOL0     C81607   0.311   4.889   2.959  0.1548 -0.4100 -0.9697
  619MOL0     C81608   0.246   4.951   3.065  0.7873  0.5054  0.2271
  619MOL0     C81609   0.135   5.029   3.042 -0.2122 -0.6209 -0.2844
  619MOL0     C81610   0.086   5.047   2.916 -0.5177 -0.2206 -0.1927
  619MOL0     O81611  -0.019   5.125   2.890 -0.0887 -0.0555  0.2558
  619MOL0     C81612  -0.074   5.213   2.989 -0.6127 -0.5477 -0.3786
  619MOL0     C81613  -0.160   5.321   2.913  0.2869  0.5711 -0.8759
  619MOL0     C81614  -0.243   5.400   3.013  0.1866 -0.2359  0.2743
  619MOL0     C81615  -0.354   5.325   3.095 -0.6505 -0.2298 -0.1390
  619MOL0     C81616  -0.449   5.421   3.175  1.2091 -0.5781  1.0022
  619MOL0     C81617  -0.532   5.513   3.084  0.4353  0.4449  1.7464
  619MOL0     C81618  -0.601   5.457   2.967 -0.5184 -0.4560 -0.9142
  619MOL0     C81619  -0.701   5.562   2.911  0.1033  1.0135 -0.6457
  619MOL0    Cl81620  -0.601   5.688   2.837 -0.3249 -0.1744  0.1580
  619MOL0     C81621   0.168   5.000   2.811  0.7086  0.1402  0.0440
  619MOL0     C81622   0.279   4.921   2.833  0.0432  0.1900 -0.2780
  619MOL0     O81623   0.351   4.681   3.162 -0.2510 -0.1564  0.4872
  619MOL0     C81624   0.691   4.765   3.059  0.2021  0.2045  0.1378
  619MOL0     C81625   0.821   4.758   3.100  0.5794 -0.7874  0.4303
  619MOL0     N81626   1.505   4.858   3.193  0.3089  0.2938  0.1951
  619MOL0     N81627   1.610   4.920   3.213 -0.1292 -0.6233 -0.0876
  619MOL0     C81628   2.682   4.611   2.802 -0.2147  0.0738 -0.4352
  619MOL0     C81629   2.809   4.565   2.767 -0.0190 -0.9185 -0.0208
  619MOL0     C81630   3.175   4.299   2.811 -0.5588 -0.5658 -0.3876
  619MOL0     C81631   3.248   4.397   2.741 -0.1620  0.8866  0.3365
  619MOL0     C81632   3.389   4.401   2.746 -0.6481  0.4472 -0.8339
  619MOL0     C81633   3.455   4.297   2.810  0.7130 -0.3973  0.3022
  619MOL0     O81634   3.588   4.282   2.826 -0.3438 -0.1021  0.1080
  619MOL0     C81635   3.680   4.368   2.764 -0.6844 -0.1372  0.1414
  619MOL0     C81636   3.813   4.295   2.791 -0.9109  0.0672  0.8373
  619MOL0     C81637   3.923   4.385   2.742  0.6319  0.0252  0.6661
  619MOL0     C81638   4.058   4.319   2.779  0.0007 -1.0232 -0.0899
  619MOL0     C81639   4.166   4.406   2.727  0.4365  1.1055  0.6180
  619MOL0     C81640   4.250   4.469   2.672 -0.1253 -0.1480  0.4956
  619MOL0     C81641   3.386   4.202   2.882 -0.4340  0.1515  0.0841
  619MOL0     C81642   3.246   4.199   2.876  0.8343 -0.5203 -0.2935
  619MOL0     H81643   2.752   4.227   2.767  0.6921  0.1815 -0.8348
  619MOL0     H81644   2.523   4.311   2.830 -0.3105 -0.3974  0.4084
  619MOL0     H81645   2.324   4.477   2.979 -3.3911  1.0322  0.1608
  619MOL0     H81646   2.345   4.410   2.814 -0.3037  1.2727 -0.9811
  619MOL0     H81647   2.119   4.513   2.869  0.5204  0.2288  4.0452
  619MOL0     H81648   2.191   4.590   2.736 -3.3435  0.6341 -0.3144
  619MOL0     H81649   2.259   4.770   2.894  0.8089 -2.0851 -0.2783
  619MOL0     H81650   2.177   4.687   3.020  1.3779 -3.6656 -0.2995
  619MOL0     H81651   2.028   4.809   2.776  0.4170 -0.8772 -0.9405
  619MOL0     H81652   1.955   4.688   2.884  1.8854 -1.0278  0.3053
  619MOL0     H81653   2.080   4.964   2.953  0.8276  0.7142  1.5752
  619MOL0     H81654   2.045   4.854   3.074  0.2725  0.3411 -0.2199
  619MOL0     H81655   1.807   4.858   3.007 -0.6662  0.2367 -0.9104
  619MOL0     H81656   1.837   4.985   2.888 -0.0956 -1.0168 -0.7553
  619MOL0     H81657   1.871   4.981   3.189 -2.2597 -1.4019  0.0748
  619MOL0     H81658   1.943   5.117   3.086  2.3054 -3.9542 -1.1408
  619MOL0     H81659   1.711   5.172   3.015 -1.1800  0.9646  0.8665
  619MOL0     H81660   1.715   5.184   3.187 -0.2899  1.0327 -0.8553
  619MOL0     H81661   1.502   5.044   2.922 -3.1411  2.0688  0.8490
  619MOL0     H81662   1.337   4.714   3.048  1.3309 -0.6099 -1.2432
  619MOL0     H81663   1.347   4.810   2.904  1.5020 -2.5980  0.1970
  619MOL0     H81664   1.130   4.883   2.977 -0.4277 -1.7939  0.9318
  619MOL0     H81665   1.230   4.988   3.067 -0.0000  0.4398  1.3104
  619MOL0     H81666   1.226   4.840   3.270 -0.1046 -0.3650 -0.0859
  619MOL0     H81667   1.071   4.901   3.223 -1.1080 -0.9559 -1.9007
  619MOL0     H81668   1.185   4.637   3.238  0.7952  0.7730  0.7166
  619MOL0     H81669   1.098   4.647   3.092  0.5791  2.2959 -1.1400
  619MOL0     H81670   0.774   4.584   3.388 -0.8986  0.4439  0.8299
  619MOL0     H81671   0.547   4.589   3.308  0.0258 -0.5502 -0.4806
  619MOL0     H81672   0.272   4.928   3.168 -0.8283 -1.1438  0.3147
  619MOL0     H81673   0.083   5.061   3.132  2.0789 -2.9905  2.0144
  619MOL0     H81674   0.007   5.256   3.048 -0.1107 -1.3225 -0.4827
  619MOL0     H81675  -0.133   5.151   3.057 -0.6405 -0.7775 -0.6111
  619MOL0     H81676  -0.225   5.268   2.843  0.2628 -0.3367 -0.1886
  619MOL0     H81677  -0.079   5.371   2.862  0.5846  3.7574  2.3325
  619MOL0     H81678  -0.293   5.488   2.972 -0.1811  0.2222  1.6242
  619MOL0     H81679  -0.175   5.437   3.090  3.2381 -0.6570 -2.0340
  619MOL0     H81680  -0.414   5.267   3.023  0.2699 -0.5063 -0.7046
  619MOL0     H81681  -0.295   5.261   3.161  3.1165  0.3491 -2.6263
  619MOL0     H81682  -0.392   5.487   3.240  1.7973 -0.9227  0.8472
  619MOL0     H81683  -0.512   5.358   3.239  1.9585  0.0959  2.4503
  619MOL0     H81684  -0.464   5.591   3.048  0.2752 -0.1832 -0.0212
  619MOL0     H81685  -0.610   5.563   3.143 -1.7043 -0.2712 -0.3056
  619MOL0     H81686  -0.521   5.446   2.893  0.4537 -2.4882  0.3449
  619MOL0     H81687  -0.641   5.357   2.985 -0.7934  0.1348  2.5272
  619MOL0     H81688  -0.763   5.610   2.987 -2.9116 -1.3141 -1.4734
  619MOL0     H81689  -0.754   5.512   2.830  4.1439  1.7748 -4.1432
  619MOL0     H81690   0.137   5.017   2.708  0.1408  1.6177  0.4433
  619MOL0     H81691   0.335   4.885   2.747  1.7719 -0.3865  1.0158
  619MOL0     H81692   0.667   4.820   2.968  1.4642 -0.9207 -0.9275
  619MOL0     H81693   0.903   4.803   3.045 -0.5510  1.4240  0.4611
  619MOL0     H81694   2.667   4.717   2.821  1.5195  0.1929  0.4955
  619MOL0     H81695   2.882   4.646   2.765  0.2622 -1.1810 -1.4587
  619MOL0     H81696   3.193   4.472   2.685  1.9576  2.4343  0.2043
  619MOL0     H81697   3.443   4.482   2.697 -0.0932  0.8119  0.3458
  619MOL0     H81698   3.678   4.464   2.816  0.2241 -0.1779  0.2803
  619MOL0     H81699   3.666   4.386   2.657 -0.1164 -1.5253 -0.1936
  619MOL0     H81700   3.821   4.285   2.900 -0.2210 -1.4699  0.6581
  619MOL0     H81701   3.806   4.197   2.744 -0.0039  0.5079 -0.2609
  619MOL0     H81702   3.916   4.489   2.776 -0.1465  0.5199 -0.8818
  619MOL0     H81703   3.906   4.397   2.634 -0.9815 -2.9288  0.4987
  619MOL0     H81704   4.064   4.297   2.886 -1.3058  0.8507  0.4223
  619MOL0     H81705   4.056   4.224   2.724 -1.9205 -3.1261  3.2643
  619MOL0     H81706   4.314   4.522   2.605  2.3067 -3.7819 -0.3410
  619MOL0     H81707   3.443   4.137   2.948 -0.5211  2.4503  2.6086
  619MOL0     H81708   3.187   4.127   2.932  0.9457  0.2502  0.8561
  620MOL0     O81709   3.279   6.121   1.809  0.3970 -0.7734 -0.0078
  620MOL0     C81710   3.315   6.012   1.783  0.0807  1.2932  0.3347
  620MOL0     O81711   3.240   5.905   1.778  0.4946  0.8232  0.8288
  620MOL0     C81712   3.103   5.914   1.799  0.3507  0.1393  0.1934
  620MOL0     C81713   3.049   5.961   1.918  0.5362  0.9697 -0.2230
  620MOL0     C81714   2.910   5.930   1.945  0.7550  0.7523  0.5411
  620MOL0     C81715   2.829   5.864   1.856 -0.3383 -0.2232 -0.4599
  620MOL0     O81716   2.700   5.832   1.863 -0.3127  0.8058 -0.8177
  620MOL0     C81717   2.624   5.909   1.958  0.5107 -0.0061  0.3230
  620MOL0     C81718   2.480   5.894   1.913 -0.3431 -0.5010  0.2714
  620MOL0     C81719   2.412   5.758   1.942 -0.1352  0.2042 -0.1831
  620MOL0     C81720   2.264   5.765   1.898  0.6196  0.6530  0.7185
  620MOL0     C81721   2.199   5.623   1.905 -0.0631 -0.9365 -0.9326
  620MOL0     C81722   2.259   5.518   1.818  0.7271 -0.5614 -0.4189
  620MOL0     C81723   2.175   5.395   1.798  0.3351 -1.0119  0.2418
  620MOL0     C81724   2.142   5.363   1.651 -0.1068 -0.2326  0.8071
  620MOL0     N81725   2.269   5.308   1.590  0.0967 -0.8799  0.0609
  620MOL0     C81726   2.298   5.177   1.583  0.5002  0.5590 -0.1876
  620MOL0     C81727   2.407   5.170   1.504  0.3834  0.2135 -0.0341
  620MOL0     C81728   2.475   5.035   1.476 -1.0274  0.8123 -0.5646
  620MOL0     C81729   2.632   5.052   1.483  0.6603  0.3464 -0.1680
  620MOL0     C81730   2.709   4.921   1.456 -1.4892  0.4184 -0.0178
  620MOL0     C81731   2.864   4.931   1.488  1.0190 -0.0375  0.0451
  620MOL0     O81732   2.928   5.027   1.405 -0.0869 -0.6478  0.0760
  620MOL0     C81733   3.071   5.034   1.391 -0.8883  0.0575  0.8401
  620MOL0     C81734   3.117   5.127   1.306  0.4523  0.6204  0.1056
  620MOL0     C81735   3.248   5.156   1.291 -0.1775 -0.1827 -0.6148
  620MOL0     C81736   3.345   5.087   1.368 -0.1404 -0.7096  0.3497
  620MOL0     C81737   3.494   5.113   1.356 -0.7206 -0.0235  0.6802
  620MOL0     O81738   3.581   5.043   1.435  0.0152  0.0694 -0.2031
  620MOL0     C81739   3.711   5.047   1.392 -0.5099 -0.2091 -0.1737
  620MOL0     C81740   3.802   5.074   1.496  0.2661  0.3236 -0.6273
  620MOL0     C81741   3.940   5.082   1.473 -0.1709 -0.2573 -0.4853
  620MOL0     C81742   3.986   5.061   1.342  0.1548  0.0382 -0.7077
  620MOL0     O81743   4.122   5.059   1.312 -0.2994  0.3935  0.2266
  620MOL0     C81744   4.218   5.096   1.414  0.9808  0.0210  0.2485
  620MOL0     C81745   4.359   5.085   1.369 -0.4719  0.9561 -0.3075
  620MOL0     C81746   4.453   5.171   1.456  0.5416  0.3336 -0.6591
  620MOL0     C81747   4.459   5.122   1.604 -0.1151 -0.0677  0.2815
  620MOL0     C81748   4.549   5.209   1.689 -0.5684  0.4209  0.2805
  620MOL0     C81749   4.696   5.155   1.679  0.5565 -0.4475  0.0062
  620MOL0     C81750   4.791   5.226   1.784  0.3055 -1.0833  0.8518
  620MOL0     C81751   4.792   5.143   1.911 -0.7092 -0.3734 -0.7264
  620MOL0    Cl81752   4.897   5.213   2.038 -0.3591 -0.6113  0.0961
  620MOL0     C81753   3.901   5.025   1.238  0.4863 -0.4988  0.5159
  620MOL0     C81754   3.761   5.023   1.260 -0.6653 -0.1212 -0.7905
  620MOL0     O81755   3.520   5.199   1.273  0.3123 -0.4154 -1.0877
  620MOL0     C81756   3.297   4.979   1.446  0.6345 -0.0086  0.2793
  620MOL0     C81757   3.161   4.945   1.456 -0.7351  0.2062 -0.0900
  620MOL0     N81758   2.445   5.303   1.471 -0.5825 -0.8702 -0.2617
  620MOL0     N81759   2.355   5.386   1.523  0.7628 -0.2332  0.9196
  620MOL0     C81760   2.891   5.813   1.741 -0.6009  0.2221 -0.6814
  620MOL0     C81761   3.027   5.833   1.715  0.0888  0.5751  0.4138
  620MOL0     C81762   3.449   6.001   1.719 -0.2060 -1.3223 -1.0919
  620MOL0     C81763   3.550   6.100   1.737 -0.5787 -0.4770  0.4800
  620MOL0     C81764   3.680   6.085   1.689 -0.3983 -0.7366 -0.6162
  620MOL0     C81765   3.709   5.971   1.631 -0.0345  0.1370 -0.8157
  620MOL0     O81766   3.838   5.940   1.609 -0.0847 -0.0749  0.0314
  620MOL0     C81767   3.893   5.953   1.480 -0.3587  0.0399 -0.0438
  620MOL0     C81768   4.040   5.998   1.489 -0.6336 -0.2843 -0.1852
  620MOL0     C81769   4.051   6.141   1.543  1.2513  0.5102  0.9302
  620MOL0     C81770   4.155   6.223   1.476  1.1426  0.3787  0.0274
  620MOL0     C81771   4.122   6.257   1.336 -0.6538 -0.4783 -0.1390
  620MOL0     C81772   4.114   6.280   1.216 -0.2037 -0.1857 -0.2953
  620MOL0     C81773   3.609   5.872   1.606 -0.3613  0.8061 -0.1650
  620MOL0     C81774   3.479   5.890   1.640 -0.4701  0.5747 -0.7185
  620MOL0     H81775   3.101   6.004   2.003 -0.5984 -2.6923  2.6067
  620MOL0     H81776   2.871   5.944   2.045  2.4561  0.2575  1.3045
  620MOL0     H81777   2.652   6.014   1.956  1.8849 -0.3630 -1.4953
  620MOL0     H81778   2.644   5.896   2.065  3.7694 -1.8894 -0.3758
  620MOL0     H81779   2.468   5.903   1.804  2.5027 -1.1110 -0.1524
  620MOL0     H81780   2.427   5.968   1.973 -0.8768 -1.4980  1.0691
  620MOL0     H81781   2.412   5.740   2.050 -3.9467 -1.1191 -0.2757
  620MOL0     H81782   2.462   5.679   1.886 -0.3203  1.5678 -2.4156
  620MOL0     H81783   2.217   5.843   1.959  1.9276  1.2881  0.9597
  620MOL0     H81784   2.237   5.802   1.799 -0.0382  4.2505  2.0701
  620MOL0     H81785   2.097   5.647   1.873 -1.3374 -2.9976  1.2113
  620MOL0     H81786   2.191   5.598   2.011 -0.8802  1.2370 -0.4201
  620MOL0     H81787   2.357   5.487   1.857  0.7143  1.3122  1.2046
  620MOL0     H81788   2.274   5.561   1.718  1.7820  1.3811  0.5128
  620MOL0     H81789   2.212   5.309   1.854 -1.1044 -2.5647 -1.0722
  620MOL0     H81790   2.076   5.422   1.836  0.3798 -0.3389 -0.1008
  620MOL0     H81791   2.116   5.455   1.598  3.2048 -0.1558 -0.9487
  620MOL0     H81792   2.058   5.292   1.643  0.0152 -0.2476 -0.5214
  620MOL0     H81793   2.237   5.100   1.629 -1.9393  1.6958 -1.3393
  620MOL0     H81794   2.447   5.011   1.373 -0.0209  0.8628 -0.8659
  620MOL0     H81795   2.441   4.953   1.539 -1.0578  0.1831 -1.3950
  620MOL0     H81796   2.649   5.092   1.584  1.3452 -1.7259  0.5980
  620MOL0     H81797   2.643   5.131   1.408  0.1218  1.3267  0.7592
  620MOL0     H81798   2.671   4.830   1.504 -1.4450  0.9786  1.1015
  620MOL0     H81799   2.703   4.906   1.348 -1.6433  0.8913 -0.0739
  620MOL0     H81800   2.908   4.831   1.481  1.0331 -0.1259  1.1765
  620MOL0     H81801   2.875   4.956   1.594  0.3628 -0.4122  0.2093
  620MOL0     H81802   3.045   5.181   1.245 -1.7708 -0.1182  1.9682
  620MOL0     H81803   3.280   5.229   1.217  0.2172 -0.0083 -0.2761
  620MOL0     H81804   3.765   5.081   1.597  1.6135 -1.0869  0.0078
  620MOL0     H81805   4.007   5.085   1.558  1.4122 -2.0743 -1.5594
  620MOL0     H81806   4.195   5.030   1.498 -2.7965  0.3659 -0.3138
  620MOL0     H81807   4.200   5.204   1.427 -1.5383  0.0293 -2.3074
  620MOL0     H81808   4.363   5.114   1.264  0.4246  3.1982  0.2887
  620MOL0     H81809   4.389   4.982   1.389 -1.3044  0.8568  0.5253
  620MOL0     H81810   4.425   5.277   1.446 -3.0652 -0.5969 -2.0558
  620MOL0     H81811   4.551   5.166   1.406  0.2880  2.4297 -1.4913
  620MOL0     H81812   4.363   5.112   1.656 -2.2049  1.7751 -2.8685
  620MOL0     H81813   4.504   5.022   1.605  1.1028  0.4445  1.9450
  620MOL0     H81814   4.517   5.203   1.793 -0.9646  0.2751  0.1498
  620MOL0     H81815   4.539   5.314   1.658 -2.2385 -0.0666 -0.9710
  620MOL0     H81816   4.731   5.174   1.577 -0.7598  1.9797 -0.0497
  620MOL0     H81817   4.706   5.049   1.703  0.2979 -0.2087  1.2708
  620MOL0     H81818   4.889   5.234   1.737 -0.4355  2.2642 -0.3768
  620MOL0     H81819   4.766   5.331   1.805  0.8763 -0.2008 -2.4296
  620MOL0     H81820   4.820   5.042   1.880  0.7313 -0.3403  0.3837
  620MOL0     H81821   4.695   5.129   1.959 -0.6202 -1.2732 -0.8013
  620MOL0     H81822   3.936   5.017   1.136 -2.2210 -1.0733 -0.4460
  620MOL0     H81823   3.690   5.012   1.179 -0.6526  1.5626 -1.0701
  620MOL0     H81824   3.369   4.913   1.493  1.3966  0.7507  0.1942
  620MOL0     H81825   3.134   4.880   1.539 -1.4270  1.2535  0.5436
  620MOL0     H81826   2.830   5.754   1.675  1.7449 -2.1266 -0.9337
  620MOL0     H81827   3.083   5.795   1.630 -0.9478 -0.5412  0.2180
  620MOL0     H81828   3.524   6.188   1.796  0.3952  0.4029 -0.3577
  620MOL0     H81829   3.758   6.159   1.697 -2.8306  1.7919  2.2147
  620MOL0     H81830   3.828   6.028   1.433 -0.5688  0.4108  0.8226
  620MOL0     H81831   3.886   5.858   1.426  0.5285 -0.8908  1.4092
  620MOL0     H81832   4.103   5.929   1.544 -0.0727 -2.4321 -3.2550
  620MOL0     H81833   4.077   6.003   1.386  0.0299  2.4294  0.0894
  620MOL0     H81834   4.066   6.147   1.651  0.1775  3.5611  1.0086
  620MOL0     H81835   3.958   6.194   1.521  0.7145 -1.0148 -0.6644
  620MOL0     H81836   4.169   6.319   1.528  0.7038  0.6340 -0.3279
  620MOL0     H81837   4.255   6.180   1.485  1.0647  0.5761  2.9838
  620MOL0     H81838   4.108   6.300   1.111  2.0284 -2.8141 -1.0464
  620MOL0     H81839   3.645   5.781   1.559 -2.6207  0.2571 -0.9411
  620MOL0     H81840   3.391   5.829   1.622  0.5388 -0.6974 -1.5087
  621MOL0     O81841   4.465   1.570  10.213 -0.0479  1.0455 -0.9880
  621MOL0     C81842   4.576   1.521  10.249  1.2882 -0.3564 -0.3198
  621MOL0     O81843   4.598   1.389  10.245  0.0547 -0.3343  0.0631
  621MOL0     C81844   4.497   1.299  10.237 -1.0341  0.2024  0.0259
  621MOL0     C81845   4.469   1.238  10.113  0.2896 -0.4119  0.5062
  621MOL0     C81846   4.369   1.134  10.112  1.1012  0.8939 -0.4938
  621MOL0     C81847   4.296   1.104  10.223 -0.2881  0.1129 -0.6421
  621MOL0     O81848   4.185   1.011  10.215  0.5707  0.4952 -0.0560
  621MOL0     C81849   4.168   0.924  10.331  0.6201  0.6931  0.4288
  621MOL0     C81850   4.040   0.832  10.314 -0.7757 -0.1557 -0.5860
  621MOL0     C81851   3.912   0.925  10.300  0.1660 -0.9246  0.6683
  621MOL0     C81852   3.793   0.849  10.346  0.7831 -0.3494  0.7781
  621MOL0     C81853   3.662   0.907  10.292  0.4235 -0.9914  0.1412
  621MOL0     C81854   3.540   0.841  10.347  0.4861 -0.4823 -0.5221
  621MOL0     C81855   3.403   0.894  10.297  0.6175  0.1251 -0.6665
  621MOL0     C81856   3.379   0.830  10.162 -0.5170  0.3571 -0.0398
  621MOL0     N81857   3.252   0.884  10.115 -0.2737  0.0317  0.3159
  621MOL0     C81858   3.238   0.971  10.015  0.1228  0.3029  0.5262
  621MOL0     C81859   3.103   1.002  10.013 -0.2159  0.4372  0.3362
  621MOL0     C81860   3.029   1.083   9.909 -0.8423 -0.3819  0.3988
  621MOL0     C81861   2.878   1.053   9.888 -0.4431  0.8059 -0.2529
  621MOL0     C81862   2.779   1.116   9.979 -0.1488 -1.0346  0.0396
  621MOL0     C81863   2.640   1.041   9.988 -0.2546  0.2691 -0.1582
  621MOL0     O81864   2.587   0.986   9.866 -0.3407 -0.0570  0.4976
  621MOL0     C81865   2.455   0.940   9.883 -0.3482 -0.5831  0.3208
  621MOL0     C81866   2.381   0.918   9.999 -0.6059  0.4378 -0.0980
  621MOL0     C81867   2.253   0.870  10.000  0.1829  0.5513 -0.0081
  621MOL0     C81868   2.193   0.848   9.875  0.0647 -0.6325  0.1020
  621MOL0     C81869   2.052   0.815   9.870  0.6625  0.5704  0.2479
  621MOL0     O81870   1.988   0.860   9.760 -0.1825 -0.3666 -0.3257
  621MOL0     C81871   1.862   0.815   9.728 -0.2771 -0.2074 -0.2688
  621MOL0     C81872   1.849   0.762   9.603 -0.4062  0.0614  0.0669
  621MOL0     C81873   1.728   0.695   9.563 -0.2427 -0.0709  0.3704
  621MOL0     C81874   1.626   0.681   9.660  0.1558  0.6299  0.0422
  621MOL0     O81875   1.500   0.615   9.627  0.3039  0.0238  0.5097
  621MOL0     C81876   1.518   0.474   9.597 -0.5318  0.1779  0.8950
  621MOL0     C81877   1.523   0.433   9.454  0.1893  0.5330  0.1520
  621MOL0     C81878   1.440   0.529   9.369 -0.0750  0.1879 -0.1260
  621MOL0     C81879   1.426   0.485   9.221  0.8215 -0.2978  0.1489
  621MOL0     C81880   1.559   0.478   9.154 -0.4864 -0.7888  0.1398
  621MOL0     C81881   1.542   0.410   9.021  0.0888 -0.1489  0.5895
  621MOL0     C81882   1.683   0.391   8.960 -0.0743  0.1163  0.2887
  621MOL0     C81883   1.695   0.308   8.835  0.0356 -0.2753  0.4700
  621MOL0    Cl81884   1.568   0.334   8.710 -0.0824  0.0021 -0.1489
  621MOL0     C81885   1.632   0.744   9.785 -0.0890 -0.5580 -0.7074
  621MOL0     C81886   1.749   0.822   9.809 -0.4415  0.0098 -0.8542
  621MOL0     O81887   2.003   0.734   9.948  0.3841 -0.1090 -0.2431
  621MOL0     C81888   2.258   0.871   9.754  0.9279  0.1058  0.0778
  621MOL0     C81889   2.388   0.917   9.757 -0.7403 -0.4908 -0.3888
  621MOL0     N81890   3.042   0.918  10.111  0.8346  0.7767  0.1358
  621MOL0     N81891   3.134   0.851  10.173  0.1616 -0.3294 -0.6793
  621MOL0     C81892   4.325   1.167  10.343  0.3295 -0.8727  0.3494
  621MOL0     C81893   4.435   1.253  10.354 -0.3290 -1.0288  0.0585
  621MOL0     C81894   4.684   1.611  10.291 -0.1828  0.3471  0.3656
  621MOL0     C81895   4.668   1.749  10.284  0.0790  0.7360  0.0771
  621MOL0     C81896   4.774   1.836  10.325 -0.3635  0.5258 -0.0791
  621MOL0     C81897   4.895   1.781  10.377  0.3021  0.5587  0.3623
  621MOL0     O81898   5.009   1.844  10.419  0.1125 -0.0185 -0.9517
  621MOL0     C81899   5.023   1.983  10.365 -0.2913  0.1129  0.1424
  621MOL0     C81900   5.174   2.021  10.355  0.5653  0.6003  0.6458
  621MOL0     C81901   5.258   2.014  10.479  0.0148 -0.0558  0.0202
  621MOL0     C81902   5.368   2.128  10.482  0.5105  0.1914  1.1734
  621MOL0     C81903   5.489   2.097  10.403  0.2856 -0.0238 -0.3023
  621MOL0     C81904   5.580   2.061  10.328 -0.5238 -0.9994 -0.2126
  621MOL0     C81905   4.911   1.644  10.378  0.1507  0.2080  0.3737
  621MOL0     C81906   4.808   1.560  10.340 -1.0095  0.2652  0.2712
  621MOL0     H81907   4.518   1.280  10.025  1.4657  0.0935  1.3554
  621MOL0     H81908   4.340   1.089  10.017 -1.9575 -1.5234  1.3793
  621MOL0     H81909   4.137   0.980  10.420 -0.8168  1.8184 -0.7122
  621MOL0     H81910   4.252   0.855  10.340 -1.1123 -1.7782 -1.0640
  621MOL0     H81911   4.025   0.770  10.403  2.1535 -3.7019 -2.2777
  621MOL0     H81912   4.054   0.771  10.224  1.1580 -0.8471  0.1341
  621MOL0     H81913   3.910   0.944  10.192  6.0983  0.2936  0.4593
  621MOL0     H81914   3.903   1.022  10.349 -3.1242 -0.2204 -1.0395
  621MOL0     H81915   3.807   0.744  10.321  0.5261  0.1705 -1.8494
  621MOL0     H81916   3.787   0.857  10.455  0.0148  0.3037  0.6948
  621MOL0     H81917   3.665   0.901  10.183  0.7872 -2.0172  0.1978
  621MOL0     H81918   3.664   1.012  10.322 -2.2756 -1.3752  2.0484
  621MOL0     H81919   3.550   0.853  10.456  0.3455 -3.3227 -0.1210
  621MOL0     H81920   3.550   0.735  10.321 -1.1296 -0.7145 -0.2838
  621MOL0     H81921   3.320   0.869  10.364 -0.2791  2.3348 -0.8594
  621MOL0     H81922   3.414   1.003  10.299  0.0894  0.3378  4.1187
  621MOL0     H81923   3.364   0.722  10.174  1.8723 -0.0505 -0.1397
  621MOL0     H81924   3.458   0.840  10.087 -0.8195 -1.2236 -0.6004
  621MOL0     H81925   3.309   0.994   9.936  1.3828  0.5675  1.7027
  621MOL0     H81926   3.086   1.067   9.817  0.3589 -1.0819  1.2401
  621MOL0     H81927   3.038   1.188   9.938  0.4475  0.1100 -1.5571
  621MOL0     H81928   2.870   0.945   9.901 -3.2131  1.1658  2.1091
  621MOL0     H81929   2.857   1.079   9.784  0.4174  1.8810 -0.1821
  621MOL0     H81930   2.828   1.125  10.076 -1.9177  4.4637  0.7282
  621MOL0     H81931   2.764   1.214   9.933  0.8703 -1.8988 -2.3088
  621MOL0     H81932   2.565   1.113  10.022 -0.0652  1.0629 -1.3542
  621MOL0     H81933   2.653   0.964  10.065 -2.8509  0.7600  0.8694
  621MOL0     H81934   2.435   0.951  10.087 -0.1408 -0.4633 -0.0256
  621MOL0     H81935   2.200   0.869  10.095 -0.5664  2.9740 -0.3207
  621MOL0     H81936   1.933   0.752   9.534 -0.5828  2.6699 -0.6177
  621MOL0     H81937   1.732   0.652   9.464 -2.6543 -3.3471  1.5093
  621MOL0     H81938   1.427   0.425   9.634  0.0325 -0.8252  1.0051
  621MOL0     H81939   1.607   0.441   9.652  0.2673  3.9854  2.2187
  621MOL0     H81940   1.488   0.330   9.443  0.1059  0.3551  1.8497
  621MOL0     H81941   1.632   0.428   9.439  0.5669 -0.5352  2.6771
  621MOL0     H81942   1.470   0.634   9.372  1.3058 -0.2127  1.6551
  621MOL0     H81943   1.340   0.521   9.414  1.1796  1.9526  3.3948
  621MOL0     H81944   1.387   0.384   9.212  3.5861 -1.6705  1.9361
  621MOL0     H81945   1.370   0.561   9.165  2.5741  2.7276  2.1561
  621MOL0     H81946   1.636   0.422   9.209  2.1238  0.8770 -1.5912
  621MOL0     H81947   1.604   0.575   9.136 -1.4275 -0.8418 -3.3133
  621MOL0     H81948   1.471   0.474   8.969  1.1539  1.5959  1.1984
  621MOL0     H81949   1.511   0.305   9.028  0.8661 -0.5106 -0.8574
  621MOL0     H81950   1.715   0.493   8.934 -1.2076  1.3116  3.2394
  621MOL0     H81951   1.753   0.345   9.030  0.7651  1.1607  0.1745
  621MOL0     H81952   1.707   0.202   8.861 -3.1424 -0.7232  0.4056
  621MOL0     H81953   1.783   0.334   8.775 -1.2419 -1.1651 -1.8934
  621MOL0     H81954   1.550   0.747   9.857 -0.5007 -1.2192 -1.1339
  621MOL0     H81955   1.750   0.849   9.914 -1.4409 -3.7272  0.2703
  621MOL0     H81956   2.212   0.856   9.657 -3.5204  0.6096  1.8301
  621MOL0     H81957   2.452   0.945   9.673 -0.0024 -0.5535  0.1454
  621MOL0     H81958   4.278   1.162  10.441 -3.1485 -2.0425 -1.2121
  621MOL0     H81959   4.457   1.297  10.451 -1.6051 -0.4892  0.1311
  621MOL0     H81960   4.574   1.786  10.245  0.1892  0.4259 -0.4833
  621MOL0     H81961   4.759   1.944  10.321 -2.8998  0.2524  0.4374
  621MOL0     H81962   4.983   2.059  10.432  0.5864 -0.2662  1.1290
  621MOL0     H81963   4.982   1.985  10.264 -0.1228 -1.7691 -0.0056
  621MOL0     H81964   5.206   1.945  10.282 -6.3922  1.6248 -4.5424
  621MOL0     H81965   5.202   2.109  10.296  1.3094 -0.3193 -0.4467
  621MOL0     H81966   5.306   1.917  10.499  1.7740  0.7540 -0.1038
  621MOL0     H81967   5.195   2.027  10.567  3.2382 -0.9098  2.6584
  621MOL0     H81968   5.328   2.223  10.444  3.4266  0.6314 -1.1917
  621MOL0     H81969   5.404   2.143  10.584  3.9105  0.6677  0.0314
  621MOL0     H81970   5.655   2.015  10.267  0.1358  1.0901 -1.0611
  621MOL0     H81971   4.998   1.582  10.398 -0.1334 -0.8542 -1.4956
  621MOL0     H81972   4.831   1.454  10.335  4.2118  1.1589 -0.6445
  622MOL0     O81973   6.167   1.724   5.132  0.2197 -0.5960 -0.7327
  622MOL0     C81974   6.250   1.693   5.218 -0.1333 -0.4760  0.6387
  622MOL0     O81975   6.242   1.733   5.346 -0.3437  0.1306  0.0210
  622MOL0     C81976   6.127   1.775   5.407 -0.7076  0.6729 -0.4592
  622MOL0     C81977   6.133   1.852   5.519 -0.5162 -0.8781 -0.0023
  622MOL0     C81978   6.019   1.919   5.565 -0.3901  0.1175  0.2232
  622MOL0     C81979   5.893   1.898   5.518 -1.0001  0.0000  0.5828
  622MOL0     O81980   5.775   1.950   5.562  0.3866 -0.1107  0.0899
  622MOL0     C81981   5.774   2.063   5.658 -0.3358 -0.8938  0.6820
  622MOL0     C81982   5.630   2.083   5.713 -0.3064 -0.6479  0.0394
  622MOL0     C81983   5.520   2.062   5.620  0.2396 -0.7860  0.2492
  622MOL0     C81984   5.386   2.069   5.694 -0.5474 -0.4466  1.3853
  622MOL0     C81985   5.275   2.055   5.586 -0.2078  0.1111 -0.2215
  622MOL0     C81986   5.150   2.022   5.665  0.3037 -0.4051  0.6645
  622MOL0     C81987   5.020   2.033   5.588 -0.3331  0.4515 -0.6260
  622MOL0     C81988   4.931   2.140   5.646  1.1151  0.2579 -0.3282
  622MOL0     N81989   4.814   2.175   5.566  0.1863  0.4635 -0.1498
  622MOL0     C81990   4.803   2.275   5.469 -0.6125 -0.1112  0.6158
  622MOL0     C81991   4.666   2.271   5.435 -0.2677  0.0086 -1.0984
  622MOL0     C81992   4.602   2.358   5.335  0.3374  0.4119  0.8590
  622MOL0     C81993   4.608   2.292   5.195  0.6911 -0.3712 -0.2083
  622MOL0     C81994   4.468   2.258   5.149 -0.3931 -0.0329 -0.8511
  622MOL0     C81995   4.400   2.138   5.214  0.5581 -0.5636  0.5347
  622MOL0     O81996   4.275   2.121   5.133 -0.0358 -1.0530  0.6580
  622MOL0     C81997   4.171   2.059   5.185  0.7538  0.7178  0.3689
  622MOL0     C81998   4.046   2.063   5.114 -0.1636  0.0444 -0.2902
  622MOL0     C81999   3.939   1.986   5.161  0.2077  0.3593 -0.3644
  622MOL0     C82000   3.947   1.919   5.283 -0.0680  0.4637  0.1100
  622MOL0     C82001   3.839   1.827   5.333 -0.2712  0.7661 -0.8009
  622MOL0     O82002   3.752   1.794   5.237 -0.1381 -0.3498 -0.8964
  622MOL0     C82003   3.634   1.746   5.280 -0.1624  0.1478  0.0536
  622MOL0     C82004   3.540   1.835   5.313 -0.3490 -0.2730  0.3291
  622MOL0     C82005   3.406   1.790   5.340 -0.5044  0.9992  0.0609
  622MOL0     C82006   3.380   1.647   5.362  0.2492  0.8423  0.1760
  622MOL0     O82007   3.253   1.600   5.386  0.1118 -0.0997 -0.0953
  622MOL0     C82008   3.145   1.672   5.324 -0.3328  1.2854  0.8074
  622MOL0     C82009   3.021   1.566   5.325  0.2021 -0.2173 -0.1253
  622MOL0     C82010   2.895   1.633   5.282  0.4849  0.4470 -0.4387
  622MOL0     C82011   2.778   1.540   5.234  0.3030 -0.5423  0.6505
  622MOL0     C82012   2.659   1.627   5.182 -0.1255  0.0493 -0.2451
  622MOL0     C82013   2.540   1.541   5.135  0.1085 -0.4961 -0.1398
  622MOL0     C82014   2.413   1.621   5.086 -0.2495  0.7529 -0.2036
  622MOL0     C82015   2.288   1.530   5.062 -0.1005  0.5090  0.1037
  622MOL0    Cl82016   2.203   1.450   5.205  0.0923 -0.3594  0.3669
  622MOL0     C82017   3.481   1.557   5.327 -0.8929  0.4883  0.1480
  622MOL0     C82018   3.607   1.607   5.285 -0.7248 -0.2666 -0.8060
  622MOL0     O82019   3.827   1.804   5.455  1.2108  0.3282 -0.3937
  622MOL0     C82020   4.062   1.931   5.357 -0.9591 -0.0914  0.2363
  622MOL0     C82021   4.174   1.987   5.304 -0.2674 -0.1940  0.3564
  622MOL0     N82022   4.604   2.170   5.508  0.1760  0.0785  0.1915
  622MOL0     N82023   4.694   2.111   5.576 -0.0750 -0.3251  0.3107
  622MOL0     C82024   5.883   1.816   5.409  0.0110  0.2461  0.1528
  622MOL0     C82025   5.992   1.745   5.358 -0.4801 -0.0971  0.2988
  622MOL0     C82026   6.360   1.607   5.190 -0.0670 -0.6668  0.1553
  622MOL0     C82027   6.382   1.561   5.065 -0.1889 -0.0156 -0.5829
  622MOL0     C82028   6.485   1.478   5.045  0.1671  0.0111 -0.2808
  622MOL0     C82029   6.575   1.433   5.138 -0.3628 -0.3269  0.7981
  622MOL0     O82030   6.670   1.347   5.090 -0.3779  0.2791 -0.6557
  622MOL0     C82031   6.692   1.234   5.179 -0.6007 -0.4632 -0.4657
  622MOL0     C82032   6.825   1.275   5.242  0.2001 -0.1858 -0.0455
  622MOL0     C82033   6.959   1.242   5.174  0.3865  0.4285 -0.1612
  622MOL0     C82034   7.080   1.249   5.263  0.1246  0.3889 -0.8508
  622MOL0     C82035   7.201   1.250   5.186  0.1909 -0.5587  0.3440
  622MOL0     C82036   7.303   1.241   5.124 -0.0190  0.9908  0.6750
  622MOL0     C82037   6.556   1.476   5.265 -0.3096  1.0269 -0.2403
  622MOL0     C82038   6.448   1.567   5.291  0.0542 -0.0598 -0.6227
  622MOL0     H82039   6.226   1.892   5.559 -1.5396 -0.2328  1.8779
  622MOL0     H82040   6.048   1.979   5.651  2.3113 -1.2252  0.3623
  622MOL0     H82041   5.793   2.154   5.601 -0.5744 -0.7937  0.7617
  622MOL0     H82042   5.841   2.054   5.743 -0.4935 -3.0463  0.6338
  622MOL0     H82043   5.622   2.180   5.763  1.7488 -1.0165  1.2049
  622MOL0     H82044   5.610   2.001   5.782 -1.7879 -0.4799 -0.1647
  622MOL0     H82045   5.525   1.962   5.577 -1.4683 -1.1016  0.6866
  622MOL0     H82046   5.536   2.138   5.544  0.6533  0.9038  1.9383
  622MOL0     H82047   5.370   1.996   5.773 -0.2333 -2.6009 -0.4465
  622MOL0     H82048   5.375   2.167   5.743  1.0758  0.0084  0.9108
  622MOL0     H82049   5.281   1.963   5.527 -5.0892  0.8878 -2.4053
  622MOL0     H82050   5.272   2.146   5.525 -1.2708  0.2163 -0.0154
  622MOL0     H82051   5.146   2.088   5.751 -0.5803 -1.1064  1.1892
  622MOL0     H82052   5.141   1.918   5.698 -0.0331 -0.2533  1.0561
  622MOL0     H82053   5.034   2.054   5.481 -2.0636  0.6137 -0.8608
  622MOL0     H82054   4.966   1.938   5.597 -1.8890  1.3238 -0.3776
  622MOL0     H82055   4.983   2.237   5.646 -0.6199  1.2482  0.7729
  622MOL0     H82056   4.901   2.106   5.746  0.7733  3.8487  0.9493
  622MOL0     H82057   4.882   2.331   5.421  0.3356 -1.7941  0.1314
  622MOL0     H82058   4.658   2.452   5.337  1.4961 -0.2634  2.7792
  622MOL0     H82059   4.500   2.383   5.364 -0.6638 -3.3903  1.1953
  622MOL0     H82060   4.670   2.204   5.177  2.2856  0.8210 -0.7998
  622MOL0     H82061   4.654   2.356   5.120 -0.3977  0.8420  0.1163
  622MOL0     H82062   4.409   2.347   5.172 -3.0338 -1.9949  0.5038
  622MOL0     H82063   4.466   2.237   5.042  3.0581  1.2928 -1.3230
  622MOL0     H82064   4.377   2.159   5.319 -2.9599  1.2938 -0.4485
  622MOL0     H82065   4.461   2.049   5.195  1.2699  0.2482 -1.1600
  622MOL0     H82066   4.029   2.124   5.026  2.0869  0.0541 -0.7715
  622MOL0     H82067   3.839   1.996   5.119 -1.1093  3.6494  3.0190
  622MOL0     H82068   3.557   1.942   5.319 -0.8588 -0.2256  1.1243
  622MOL0     H82069   3.334   1.866   5.368 -1.8560 -0.2267 -0.0017
  622MOL0     H82070   3.173   1.695   5.221 -2.9681  1.7506  0.1119
  622MOL0     H82071   3.128   1.764   5.382 -2.3320  1.5806 -0.1795
  622MOL0     H82072   3.009   1.529   5.427  0.5379  1.2095  0.4546
  622MOL0     H82073   3.061   1.490   5.257 -1.1444 -0.0997 -1.0788
  622MOL0     H82074   2.921   1.699   5.199  0.7086  0.4576 -0.3593
  622MOL0     H82075   2.849   1.680   5.369 -0.0267 -1.5659  0.4429
  622MOL0     H82076   2.812   1.474   5.153 -2.3629 -0.5342 -0.5706
  622MOL0     H82077   2.748   1.480   5.320  1.2119 -0.2970  1.1463
  622MOL0     H82078   2.703   1.682   5.098  0.9803 -1.5090 -0.7326
  622MOL0     H82079   2.616   1.700   5.252 -1.6214  0.3981 -1.4722
  622MOL0     H82080   2.508   1.473   5.215 -3.4780  2.0789  0.8846
  622MOL0     H82081   2.574   1.467   5.062 -0.4180 -0.2353 -0.6618
  622MOL0     H82082   2.377   1.689   5.163 -3.0105  1.0603 -1.6384
  622MOL0     H82083   2.448   1.673   4.996 -5.4125  1.2705 -2.2364
  622MOL0     H82084   2.315   1.449   4.994  0.1099 -0.4859  1.3333
  622MOL0     H82085   2.206   1.577   5.008  0.9926  0.2432 -1.8573
  622MOL0     H82086   3.457   1.452   5.327 -0.0795  0.2929  0.3187
  622MOL0     H82087   3.695   1.552   5.253 -0.1191  1.4379 -2.2273
  622MOL0     H82088   4.061   1.888   5.456  0.4634  0.2107  0.3998
  622MOL0     H82089   4.261   1.979   5.368 -1.3999 -3.5901  1.7145
  622MOL0     H82090   5.787   1.797   5.362 -0.9131 -2.8263  2.9353
  622MOL0     H82091   5.972   1.701   5.261 -0.4635  0.0082  0.2477
  622MOL0     H82092   6.305   1.594   4.996 -0.5049  0.2430 -0.1132
  622MOL0     H82093   6.496   1.450   4.941 -2.2092  0.7591 -0.7937
  622MOL0     H82094   6.691   1.141   5.120  3.0463 -0.4933 -0.6941
  622MOL0     H82095   6.618   1.215   5.257 -0.8417 -1.1671 -0.8591
  622MOL0     H82096   6.828   1.380   5.273 -0.7379 -0.6433  1.6913
  622MOL0     H82097   6.824   1.220   5.336  0.7390  1.2668  0.8422
  622MOL0     H82098   6.972   1.297   5.081 -1.1119  1.4955  0.2148
  622MOL0     H82099   6.950   1.137   5.143 -0.6517  1.2715 -2.9784
  622MOL0     H82100   7.075   1.339   5.324  1.9227  0.6345 -1.0150
  622MOL0     H82101   7.083   1.168   5.337  2.0387 -1.0787 -2.4202
  622MOL0     H82102   7.399   1.248   5.075  0.1287 -0.0048  0.8189
  622MOL0     H82103   6.631   1.439   5.334  1.1291 -2.4692 -3.3913
  622MOL0     H82104   6.437   1.606   5.392  0.7926  0.1292 -0.6113
  623MOL0     O82105   7.651   2.504   0.885  0.3291 -0.2447  0.0115
  623MOL0     C82106   7.698   2.528   0.995 -0.3049 -0.9860 -0.3091
  623MOL0     O82107   7.621   2.559   1.114 -0.1590 -0.2547 -0.0796
  623MOL0     C82108   7.491   2.521   1.110  0.3578  0.3524  0.7434
  623MOL0     C82109   7.404   2.614   1.057  0.2661  0.1656  0.5606
  623MOL0     C82110   7.263   2.589   1.054  0.7544 -0.5590  0.5894
  623MOL0     C82111   7.210   2.469   1.101 -0.0914  0.4699 -0.5841
  623MOL0     O82112   7.074   2.428   1.088 -0.0676  0.3998 -0.2492
  623MOL0     C82113   6.972   2.527   1.114 -0.9829  0.2107  0.5609
  623MOL0     C82114   6.869   2.534   0.994 -0.9601 -0.5143 -0.9924
  623MOL0     C82115   6.757   2.427   1.004 -0.2851 -1.1951 -0.8050
  623MOL0     C82116   6.640   2.465   0.920  0.4585  0.2855 -0.7043
  623MOL0     C82117   6.540   2.560   0.986 -0.1015  0.1781 -0.3717
  623MOL0     C82118   6.434   2.609   0.888  0.0505 -0.4863  0.0615
  623MOL0     C82119   6.323   2.701   0.943 -0.0926  0.1041  0.8668
  623MOL0     C82120   6.187   2.646   0.898  0.4836  0.2986  0.8181
  623MOL0     N82121   6.073   2.700   0.969 -0.0209 -0.2772 -0.5620
  623MOL0     C82122   5.982   2.798   0.921 -0.0318  0.7041 -1.5763
  623MOL0     C82123   5.877   2.801   1.014 -2.0320 -1.2984 -0.3758
  623MOL0     C82124   5.753   2.882   1.006  0.4551  0.6167  0.7481
  623MOL0     C82125   5.642   2.781   1.018  0.7794 -0.2251 -0.4844
  623MOL0     C82126   5.641   2.681   0.902  0.3507 -0.2369  0.0692
  623MOL0     C82127   5.503   2.607   0.880 -0.0454 -0.3038 -0.2479
  623MOL0     O82128   5.418   2.707   0.813 -0.1272  0.2451  0.4140
  623MOL0     C82129   5.292   2.675   0.769 -0.1824 -0.4862  0.6169
  623MOL0     C82130   5.250   2.689   0.631 -0.2017  0.1962  0.7075
  623MOL0     C82131   5.122   2.640   0.588 -0.6721  0.9071 -0.3070
  623MOL0     C82132   5.039   2.562   0.675 -1.1124 -0.0940 -0.0126
  623MOL0     C82133   4.901   2.496   0.642 -0.2198 -0.1655 -0.3357
  623MOL0     O82134   4.829   2.446   0.749 -0.1777  0.2714  0.3888
  623MOL0     C82135   4.696   2.441   0.750 -0.6730  0.3381  0.5486
  623MOL0     C82136   4.637   2.441   0.879 -0.1883  0.9641  0.5581
  623MOL0     C82137   4.503   2.432   0.899  0.4229 -0.3703 -0.2687
  623MOL0     C82138   4.416   2.424   0.791 -0.0290 -0.6647 -0.3417
  623MOL0     O82139   4.279   2.429   0.790 -0.5782  0.0972 -0.2018
  623MOL0     C82140   4.205   2.420   0.909 -0.5319  0.8151  0.2333
  623MOL0     C82141   4.053   2.438   0.876 -0.9702  0.2525  1.0585
  623MOL0     C82142   3.971   2.458   1.006 -1.1558 -0.0771 -0.2243
  623MOL0     C82143   3.823   2.418   0.982  0.0133 -0.2825  0.0914
  623MOL0     C82144   3.736   2.445   1.102  0.7134 -0.2401  0.4788
  623MOL0     C82145   3.586   2.461   1.060 -0.9318  0.2870  0.5211
  623MOL0     C82146   3.495   2.484   1.178 -1.2791 -0.0784 -0.4234
  623MOL0     C82147   3.347   2.517   1.165 -0.7706  0.1321 -0.3173
  623MOL0    Cl82148   3.332   2.669   1.076 -0.2878  0.1391 -0.1318
  623MOL0     C82149   4.471   2.425   0.662  0.4344  0.3207  0.1467
  623MOL0     C82150   4.610   2.430   0.638  0.7865 -0.5660 -0.1245
  623MOL0     O82151   4.863   2.505   0.523  0.4497  0.0082  0.2419
  623MOL0     C82152   5.086   2.552   0.808 -0.4575 -0.7097 -0.0196
  623MOL0     C82153   5.206   2.601   0.852  0.1594 -0.2761 -0.4296
  623MOL0     N82154   5.918   2.721   1.120 -0.3005 -0.3025 -0.1620
  623MOL0     N82155   6.031   2.665   1.088  1.4759 -0.2371  0.2157
  623MOL0     C82156   7.308   2.379   1.147 -0.6458  0.4005 -0.4307
  623MOL0     C82157   7.448   2.401   1.154  0.1168 -0.6087  0.5164
  623MOL0     C82158   7.840   2.524   1.021  0.6373  0.4079  0.7734
  623MOL0     C82159   7.894   2.538   1.150  1.1530 -1.3275  0.4232
  623MOL0     C82160   8.035   2.547   1.175 -0.9118  0.3663  0.0168
  623MOL0     C82161   8.118   2.516   1.065  0.7677  0.1604 -1.4762
  623MOL0     O82162   8.258   2.503   1.076 -0.1741 -0.5543 -0.7634
  623MOL0     C82163   8.323   2.494   1.202  0.3464 -0.1925  0.4926
  623MOL0     C82164   8.460   2.564   1.174  0.1711  0.6150  0.3380
  623MOL0     C82165   8.491   2.665   1.286 -0.1425 -0.6836 -0.0915
  623MOL0     C82166   8.599   2.766   1.237  0.2406 -0.5887 -0.4975
  623MOL0     C82167   8.723   2.700   1.186 -0.2868  1.0063 -0.2257
  623MOL0     C82168   8.828   2.658   1.151 -0.0819  0.3176  0.0232
  623MOL0     C82169   8.068   2.500   0.941  0.6488 -0.2611  0.4025
  623MOL0     C82170   7.933   2.498   0.922 -0.2414 -0.6544  0.6990
  623MOL0     H82171   7.448   2.705   1.018  1.5006 -1.9180 -3.4599
  623MOL0     H82172   7.205   2.663   1.001  0.4576 -2.3652 -1.7488
  623MOL0     H82173   7.020   2.623   1.132  0.7020 -0.3822 -0.4542
  623MOL0     H82174   6.926   2.498   1.209 -1.9465 -0.3212 -0.0510
  623MOL0     H82175   6.923   2.528   0.900 -2.0497  1.8166 -1.8391
  623MOL0     H82176   6.827   2.633   1.014 -2.1255 -1.4065  1.4683
  623MOL0     H82177   6.734   2.399   1.107  1.1886  0.6396  0.0721
  623MOL0     H82178   6.808   2.341   0.960  1.6073  1.0171 -3.2298
  623MOL0     H82179   6.673   2.529   0.837 -1.8694  0.9699 -1.1830
  623MOL0     H82180   6.608   2.371   0.874 -0.7763  1.1721 -1.7670
  623MOL0     H82181   6.590   2.650   1.023  0.0577  0.2325 -0.7130
  623MOL0     H82182   6.497   2.510   1.073  0.2987 -1.9165 -1.3329
  623MOL0     H82183   6.395   2.513   0.851  0.7515 -0.5467 -0.5434
  623MOL0     H82184   6.494   2.661   0.813 -1.1328  0.1712 -0.4433
  623MOL0     H82185   6.317   2.704   1.052 -2.0661 -0.4118  0.8171
  623MOL0     H82186   6.341   2.802   0.905  1.4940 -0.8066 -0.9201
  623MOL0     H82187   6.197   2.540   0.924  4.1322  0.0135 -1.0576
  623MOL0     H82188   6.168   2.659   0.791  1.2759  0.7664  0.7224
  623MOL0     H82189   5.980   2.862   0.834 -2.4109  3.2586  0.1877
  623MOL0     H82190   5.748   2.931   0.909  0.7327 -1.2168 -0.2374
  623MOL0     H82191   5.736   2.955   1.086  0.5687 -0.2496  1.5803
  623MOL0     H82192   5.548   2.838   1.015  1.7720  1.3973 -2.0247
  623MOL0     H82193   5.645   2.725   1.112 -4.2458 -4.6116 -2.3897
  623MOL0     H82194   5.650   2.741   0.811 -0.4803  0.4490  0.4262
  623MOL0     H82195   5.726   2.612   0.899  1.1265  0.7339 -2.0205
  623MOL0     H82196   5.470   2.584   0.981  0.5853  1.7234  0.4753
  623MOL0     H82197   5.511   2.522   0.812 -0.3068 -0.0221 -0.6440
  623MOL0     H82198   5.323   2.743   0.570 -0.5788  1.9837  1.7612
  623MOL0     H82199   5.102   2.630   0.482  0.2595 -2.1727 -0.2910
  623MOL0     H82200   4.706   2.439   0.963 -1.0154  0.1191  1.2269
  623MOL0     H82201   4.469   2.435   1.002 -0.3527 -1.5874 -0.4716
  623MOL0     H82202   4.237   2.497   0.979 -1.7298  1.4380  0.1334
  623MOL0     H82203   4.220   2.326   0.962  0.1286 -0.1435 -1.5936
  623MOL0     H82204   4.014   2.358   0.813  0.5360  2.5110 -3.1063
  623MOL0     H82205   4.022   2.527   0.821 -1.3700 -0.0480  0.7963
  623MOL0     H82206   3.982   2.555   1.056 -0.2716 -0.0451 -0.4681
  623MOL0     H82207   4.003   2.381   1.076  2.3632 -0.3655 -1.9552
  623MOL0     H82208   3.783   2.479   0.901  1.1065  0.0303 -0.2198
  623MOL0     H82209   3.808   2.312   0.961 -0.0205 -0.2246 -0.1834
  623MOL0     H82210   3.777   2.535   1.149  1.7083 -0.8113  0.7531
  623MOL0     H82211   3.737   2.361   1.172  0.3369 -0.0675  0.6923
  623MOL0     H82212   3.543   2.377   1.005 -2.0887  0.1077  1.6496
  623MOL0     H82213   3.585   2.558   1.009  0.5612 -0.0572 -0.2315
  623MOL0     H82214   3.493   2.388   1.230  1.7367 -0.1761 -0.3264
  623MOL0     H82215   3.537   2.557   1.248 -0.9032  0.7287 -1.4580
  623MOL0     H82216   3.295   2.518   1.262 -0.2418 -0.7095 -0.0140
  623MOL0     H82217   3.304   2.433   1.111  1.5687 -0.4446 -1.3900
  623MOL0     H82218   4.413   2.407   0.572  2.7376  0.5326 -1.4635
  623MOL0     H82219   4.645   2.413   0.537 -0.0443 -0.1461 -0.4966
  623MOL0     H82220   5.028   2.491   0.877 -0.3084 -0.6698  0.1417
  623MOL0     H82221   5.234   2.594   0.956 -0.1547  1.4545 -0.1965
  623MOL0     H82222   7.272   2.278   1.163 -3.2047  0.9946 -1.7910
  623MOL0     H82223   7.516   2.328   1.197  0.7407  0.4341  1.3412
  623MOL0     H82224   7.828   2.572   1.229 -1.4698 -0.3359 -2.0135
  623MOL0     H82225   8.072   2.542   1.277 -3.4074  0.4703  0.9792
  623MOL0     H82226   8.335   2.389   1.231  0.7351 -0.7533 -1.5291
  623MOL0     H82227   8.269   2.546   1.281 -1.4579 -0.9348 -0.1997
  623MOL0     H82228   8.539   2.489   1.181  1.2020  1.6955  0.7369
  623MOL0     H82229   8.456   2.609   1.074 -0.9877  0.6635  0.3886
  623MOL0     H82230   8.512   2.620   1.383  1.9406 -1.5723 -0.8921
  623MOL0     H82231   8.408   2.735   1.297  0.3870  0.7695 -3.8311
  623MOL0     H82232   8.558   2.829   1.158  0.0081  0.8100  0.7061
  623MOL0     H82233   8.610   2.827   1.327  2.1407 -1.8564  0.1902
  623MOL0     H82234   8.921   2.620   1.114  0.1379  1.1717 -0.3199
  623MOL0     H82235   8.140   2.489   0.860  0.0076  1.5771 -0.4800
  623MOL0     H82236   7.906   2.504   0.817  3.7583 -1.1160 -0.5555
  624MOL0     O82237  10.204   1.542   9.655  0.4927 -0.3577  0.1223
  624MOL0     C82238  10.263   1.572   9.552 -0.2563  0.5893  0.5233
  624MOL0     O82239  10.206   1.568   9.427 -0.4476 -0.2831 -0.2263
  624MOL0     C82240  10.083   1.515   9.426 -0.2027 -0.2717  0.5432
  624MOL0     C82241   9.974   1.566   9.499  0.3923  0.2659  0.3782
  624MOL0     C82242   9.851   1.492   9.502 -0.8411 -0.5585 -0.5275
  624MOL0     C82243   9.835   1.357   9.450  1.1529 -0.8977 -0.4281
  624MOL0     O82244   9.723   1.279   9.460  0.0803  0.0591  0.1529
  624MOL0     C82245   9.612   1.336   9.533  0.6949 -0.2159  0.1022
  624MOL0     C82246   9.489   1.243   9.546  0.5180 -0.5220  0.4696
  624MOL0     C82247   9.533   1.089   9.548 -0.5619 -0.1344 -0.6750
  624MOL0     C82248   9.414   0.999   9.573 -0.1894  0.4788  1.1367
  624MOL0     C82249   9.334   1.016   9.704 -0.6645 -0.2561 -0.7815
  624MOL0     C82250   9.226   0.907   9.710 -0.1106  0.6512 -0.2410
  624MOL0     C82251   9.163   0.921   9.847  0.2090  0.7513 -0.0609
  624MOL0     C82252   9.071   0.806   9.881  0.4942 -0.8716  0.5294
  624MOL0     N82253   8.962   0.786   9.788  0.0040  0.2597  0.6169
  624MOL0     C82254   8.935   0.676   9.710  0.1228  0.3343  0.2623
  624MOL0     C82255   8.830   0.711   9.633  0.0770 -0.0355  0.3964
  624MOL0     C82256   8.765   0.618   9.541 -0.4981  0.1482  0.5206
  624MOL0     C82257   8.655   0.543   9.620  0.6062 -0.0246  0.4895
  624MOL0     C82258   8.718   0.423   9.700  0.1523 -0.1237  0.1125
  624MOL0     C82259   8.621   0.345   9.785  0.2858  0.8099 -0.6006
  624MOL0     O82260   8.681   0.217   9.819  0.4850  0.7019  0.0431
  624MOL0     C82261   8.785   0.210   9.898 -0.0070 -0.4121 -0.5757
  624MOL0     C82262   8.806   0.295  10.005  0.0422 -0.2640  0.7987
  624MOL0     C82263   8.921   0.280  10.085  0.5848 -0.4275  0.2781
  624MOL0     C82264   9.010   0.177  10.051 -0.4760 -0.3344  0.0397
  624MOL0     C82265   9.136   0.156  10.127 -0.4000  0.0158  0.6184
  624MOL0     O82266   9.170   0.242  10.220 -0.2603 -0.4304  0.5894
  624MOL0     C82267   9.264   0.224  10.312  0.0176 -0.1803 -0.4384
  624MOL0     C82268   9.233   0.145  10.426 -0.1969 -0.7350  0.6356
  624MOL0     C82269   9.323   0.111  10.524 -0.9566 -0.6841  0.8590
  624MOL0     C82270   9.456   0.161  10.523  0.1628 -1.0086  0.0747
  624MOL0     O82271   9.533   0.123  10.625 -0.0142  0.3577 -0.1803
  624MOL0     C82272   9.673   0.155  10.621  0.6946 -1.0782 -0.5133
  624MOL0     C82273   9.729   0.134  10.769 -0.7430 -0.2060 -0.0071
  624MOL0     C82274   9.709  -0.015  10.817  0.6597 -0.0660 -0.9949
  624MOL0     C82275   9.798  -0.116  10.742 -0.0871 -0.0459 -0.7959
  624MOL0     C82276   9.785  -0.254  10.801  0.7877  0.1231  0.4792
  624MOL0     C82277   9.863  -0.359  10.718  0.3114  0.1258 -0.6636
  624MOL0     C82278   9.839  -0.510  10.765 -0.2201 -0.0409 -0.6150
  624MOL0     C82279   9.701  -0.556  10.724  0.4619  0.1255  0.0686
  624MOL0    Cl82280   9.665  -0.681  10.843  0.0576 -0.3298 -0.0334
  624MOL0     C82281   9.501   0.225  10.405  0.5767  0.8957  0.1875
  624MOL0     C82282   9.405   0.250  10.302  0.1835 -0.8147  0.4022
  624MOL0     O82283   9.204   0.053  10.098 -0.2090  0.2550  0.7476
  624MOL0     C82284   8.995   0.095   9.940 -0.4297 -0.1675 -0.1511
  624MOL0     C82285   8.882   0.118   9.857 -0.1295  0.5666 -0.7669
  624MOL0     N82286   8.788   0.833   9.673 -0.4898  0.0251  0.1756
  624MOL0     N82287   8.865   0.875   9.766 -0.3898 -0.3886 -0.6331
  624MOL0     C82288   9.945   1.312   9.384  0.0710 -0.9369 -1.2605
  624MOL0     C82289  10.060   1.389   9.366 -0.5122 -0.1484 -0.4388
  624MOL0     C82290  10.405   1.611   9.571 -0.4720  0.2955 -0.7913
  624MOL0     C82291  10.486   1.637   9.461  0.3064 -0.5224 -0.3741
  624MOL0     C82292  10.619   1.689   9.482 -0.1299  1.2211  0.0983
  624MOL0     C82293  10.665   1.717   9.617 -0.5299 -0.4650  0.5258
  624MOL0     O82294  10.797   1.768   9.637 -0.1542 -0.4511 -0.5943
  624MOL0     C82295  10.836   1.801   9.776  0.2063  0.4288  0.6982
  624MOL0     C82296  10.976   1.877   9.762  1.3148 -0.3444  0.7577
  624MOL0     C82297  10.975   2.010   9.692 -0.0404 -0.1886 -0.3631
  624MOL0     C82298  11.119   2.073   9.693  0.0838  0.4654 -0.5820
  624MOL0     C82299  11.120   2.193   9.612  0.0316 -0.7192 -0.6504
  624MOL0     C82300  11.124   2.292   9.541  0.5344  0.0718 -0.8151
  624MOL0     C82301  10.586   1.684   9.722  0.2461 -0.2000  0.0271
  624MOL0     C82302  10.460   1.625   9.701  0.5030 -0.0547  0.8151
  624MOL0     H82303   9.962   1.666   9.541 -1.9547  0.2083 -0.0225
  624MOL0     H82304   9.757   1.537   9.532 -0.9804 -0.0222 -1.7101
  624MOL0     H82305   9.571   1.430   9.496 -0.8315 -0.4539  1.0620
  624MOL0     H82306   9.638   1.358   9.637 -1.3057  0.1857  0.5708
  624MOL0     H82307   9.423   1.268   9.462  1.9489  0.1247 -0.4917
  624MOL0     H82308   9.437   1.274   9.637  1.5330 -0.7419  1.1347
  624MOL0     H82309   9.607   1.083   9.629 -0.3270  2.7924 -0.5385
  624MOL0     H82310   9.588   1.081   9.454  0.6979  4.2867 -0.5662
  624MOL0     H82311   9.343   1.009   9.489 -1.3542 -3.1290  1.5407
  624MOL0     H82312   9.445   0.895   9.565 -2.9078 -0.2557 -2.4472
  624MOL0     H82313   9.287   1.114   9.703  0.6560  0.5403  2.5950
  624MOL0     H82314   9.409   0.997   9.782 -1.7367 -1.2496  0.0427
  624MOL0     H82315   9.278   0.810   9.710 -0.8867  0.1841  1.7582
  624MOL0     H82316   9.148   0.906   9.634  0.0704 -2.3230 -0.5204
  624MOL0     H82317   9.237   0.925   9.928 -0.0413 -2.3644  0.4559
  624MOL0     H82318   9.110   1.016   9.840 -1.0473  0.0761  0.0724
  624MOL0     H82319   9.027   0.825   9.979 -1.1581 -0.3929 -0.2588
  624MOL0     H82320   9.128   0.713   9.883 -0.1567 -1.2599  1.7771
  624MOL0     H82321   8.987   0.581   9.718 -0.3746  0.1073  0.9127
  624MOL0     H82322   8.840   0.545   9.510 -1.0440  0.5325 -1.9383
  624MOL0     H82323   8.734   0.667   9.448  2.5736 -2.4425 -2.1006
  624MOL0     H82324   8.573   0.514   9.553  1.5529 -1.5943 -0.0541
  624MOL0     H82325   8.615   0.603   9.702  0.9717 -0.7168  1.1840
  624MOL0     H82326   8.758   0.358   9.622  0.7464  0.6280 -0.2172
  624MOL0     H82327   8.799   0.457   9.765  0.8351  0.7305 -1.1387
  624MOL0     H82328   8.533   0.311   9.730 -2.0844  0.2292  3.1721
  624MOL0     H82329   8.582   0.396   9.874 -1.0784  0.1337 -0.7869
  624MOL0     H82330   8.745   0.381  10.031 -0.8577 -0.4086 -0.7217
  624MOL0     H82331   8.958   0.346  10.163  1.0876  1.3068 -1.3393
  624MOL0     H82332   9.132   0.107  10.436 -0.4240  0.0677  1.5364
  624MOL0     H82333   9.299   0.049  10.609 -0.7750  0.4767  1.7798
  624MOL0     H82334   9.689   0.262  10.606  0.5590 -0.3912  3.2709
  624MOL0     H82335   9.720   0.094  10.544 -2.6571 -0.8184 -3.0121
  624MOL0     H82336   9.681   0.204  10.838 -1.7240 -1.3528  0.5079
  624MOL0     H82337   9.833   0.168  10.758 -1.0373  0.4992 -0.6713
  624MOL0     H82338   9.604  -0.042  10.801  0.3985  0.5546 -0.3760
  624MOL0     H82339   9.729  -0.021  10.924 -1.7668 -2.2015 -0.5473
  624MOL0     H82340   9.767  -0.116  10.637 -0.1883  0.3042 -0.7685
  624MOL0     H82341   9.900  -0.077  10.738  0.3184 -1.0542 -0.6504
  624MOL0     H82342   9.679  -0.279  10.809  0.0832  2.1828 -1.2297
  624MOL0     H82343   9.828  -0.245  10.901  1.2040  2.3369  0.1473
  624MOL0     H82344   9.969  -0.335  10.732  0.9806 -2.4412 -0.6467
  624MOL0     H82345   9.843  -0.344  10.612 -0.4195  1.4720 -0.3530
  624MOL0     H82346   9.912  -0.574  10.715  1.4106  0.5655  0.8840
  624MOL0     H82347   9.854  -0.522  10.873 -0.0589  2.1409 -0.3451
  624MOL0     H82348   9.693  -0.579  10.618 -0.6697  2.9772 -0.5554
  624MOL0     H82349   9.627  -0.477  10.737 -0.5816 -0.6765 -0.8041
  624MOL0     H82350   9.604   0.259  10.396  1.8093 -2.1425  1.4414
  624MOL0     H82351   9.439   0.292  10.208 -0.1408 -0.0113  0.6389
  624MOL0     H82352   9.064   0.020   9.902 -0.9803 -0.6304 -0.2595
  624MOL0     H82353   8.857   0.060   9.768  1.2630  2.8172 -2.7395
  624MOL0     H82354   9.930   1.216   9.334 -1.2331 -0.4922 -1.7666
  624MOL0     H82355  10.139   1.331   9.319 -0.5049 -2.2770  2.0038
  624MOL0     H82356  10.451   1.609   9.362  0.5047  3.1128 -1.6447
  624MOL0     H82357  10.694   1.703   9.404 -2.1944  2.4534 -1.8020
  624MOL0     H82358  10.836   1.717   9.846  2.6704 -1.4378 -1.3255
  624MOL0     H82359  10.759   1.871   9.808 -0.8450 -0.1772 -0.4269
  624MOL0     H82360  11.011   1.882   9.866 -0.4895  0.3429  1.3724
  624MOL0     H82361  11.042   1.806   9.710  1.0817 -0.3691  0.4947
  624MOL0     H82362  10.909   2.062   9.761  1.0172  1.5607 -0.6040
  624MOL0     H82363  10.935   1.993   9.592  0.9264  1.2354 -1.0184
  624MOL0     H82364  11.168   2.106   9.785  3.2041  2.5245 -2.7572
  624MOL0     H82365  11.187   2.008   9.636 -0.1278  1.8828 -2.5667
  624MOL0     H82366  11.116   2.382   9.483  0.5899  0.7282  0.1778
  624MOL0     H82367  10.619   1.695   9.825  2.5356 -1.1893 -0.5406
  624MOL0     H82368  10.396   1.603   9.786  0.3507 -0.8658  0.5041
  625MOL0     O82369   8.470   5.841   6.977  0.2860 -0.1332  0.0044
  625MOL0     C82370   8.515   5.816   6.865 -1.3262  0.8331  0.5546
  625MOL0     O82371   8.453   5.830   6.743  0.3340  0.0219  0.3677
  625MOL0     C82372   8.315   5.860   6.728  0.2660 -0.1762 -0.3490
  625MOL0     C82373   8.214   5.808   6.809  0.5580  0.1506  0.2939
  625MOL0     C82374   8.077   5.836   6.776  0.1493  0.1446 -0.1298
  625MOL0     C82375   8.036   5.904   6.663 -0.3889  0.1291 -0.2643
  625MOL0     O82376   7.912   5.942   6.638  0.4699  0.0386  0.7433
  625MOL0     C82377   7.868   6.060   6.707 -1.3531 -0.2863  0.0182
  625MOL0     C82378   7.719   6.068   6.698 -0.5176 -0.0818  0.1584
  625MOL0     C82379   7.656   6.140   6.573 -0.4020  1.3727  0.8496
  625MOL0     C82380   7.507   6.130   6.584 -0.5526  0.5836 -0.0462
  625MOL0     C82381   7.444   6.187   6.450  0.1893  1.0161  0.4364
  625MOL0     C82382   7.298   6.174   6.445  0.3994 -0.4653 -0.0981
  625MOL0     C82383   7.237   6.222   6.315 -1.0383  0.5918  0.3378
  625MOL0     C82384   7.096   6.183   6.316  0.7092 -0.7823  0.3014
  625MOL0     N82385   7.019   6.237   6.203  0.2076  0.2061  0.5224
  625MOL0     C82386   7.012   6.182   6.082 -0.4627  0.2882 -0.4787
  625MOL0     C82387   6.936   6.264   6.009 -0.3305  0.1907 -0.1114
  625MOL0     C82388   6.892   6.234   5.873 -0.4010 -0.0812 -0.7064
  625MOL0     C82389   6.784   6.124   5.865  0.4071 -0.1818  0.4188
  625MOL0     C82390   6.643   6.179   5.894  0.0610  0.0600  0.4727
  625MOL0     C82391   6.517   6.086   5.882 -0.1499 -0.5001 -0.2655
  625MOL0     O82392   6.395   6.145   5.944 -0.0676  0.0211  0.0464
  625MOL0     C82393   6.273   6.078   5.917 -0.0634 -0.6924 -0.6428
  625MOL0     C82394   6.255   5.977   5.818  0.5240 -1.0419  0.7872
  625MOL0     C82395   6.127   5.924   5.795  0.3258 -0.0631 -0.7470
  625MOL0     C82396   6.010   5.983   5.865 -0.8220 -0.4930 -0.1200
  625MOL0     C82397   5.878   5.928   5.833 -0.1129 -0.1517  0.3552
  625MOL0     O82398   5.776   5.997   5.882 -1.2155 -0.2178  0.3256
  625MOL0     C82399   5.647   5.954   5.851  0.3998 -0.4141 -0.1575
  625MOL0     C82400   5.572   5.891   5.949 -0.2082 -0.2626 -1.3421
  625MOL0     C82401   5.446   5.837   5.921 -0.3177 -0.4539 -0.4061
  625MOL0     C82402   5.396   5.846   5.799 -0.2789 -0.4083  0.0384
  625MOL0     O82403   5.269   5.788   5.777  0.5365  0.2357  0.3214
  625MOL0     C82404   5.157   5.870   5.734  0.2774  0.0103  0.6236
  625MOL0     C82405   5.130   5.897   5.588  0.0658 -0.3881  0.0401
  625MOL0     C82406   5.099   5.765   5.522  0.3821  0.8586  0.7088
  625MOL0     C82407   5.059   5.805   5.379  0.0664 -0.3508  0.2233
  625MOL0     C82408   5.005   5.682   5.310 -0.0345  0.3892 -0.0519
  625MOL0     C82409   4.940   5.720   5.168  1.0174 -0.5090 -0.9474
  625MOL0     C82410   5.043   5.752   5.066  0.7307 -0.4533 -0.4243
  625MOL0     C82411   4.981   5.800   4.929  0.7962 -0.2163 -0.3492
  625MOL0    Cl82412   5.084   5.764   4.788 -0.0190  0.0592 -0.2280
  625MOL0     C82413   5.463   5.918   5.700 -0.2978  0.0437  0.8854
  625MOL0     C82414   5.588   5.967   5.727 -0.1828 -0.4825 -0.9993
  625MOL0     O82415   5.860   5.825   5.771 -0.6054  0.3295 -0.0292
  625MOL0     C82416   6.030   6.091   5.956 -0.1067  0.1610  0.3383
  625MOL0     C82417   6.162   6.135   5.983 -0.4058  0.2878 -0.0067
  625MOL0     N82418   6.886   6.359   6.088  0.7058  0.2110  0.3517
  625MOL0     N82419   6.936   6.344   6.206 -0.4140  0.1794  0.5797
  625MOL0     C82420   8.142   5.961   6.586  0.7136  0.1261  1.1542
  625MOL0     C82421   8.275   5.948   6.623 -0.0106  0.5341  1.0780
  625MOL0     C82422   8.649   5.747   6.856 -0.0350 -0.2463  0.3676
  625MOL0     C82423   8.712   5.714   6.729  0.1161 -0.3806  0.5850
  625MOL0     C82424   8.837   5.650   6.720 -0.8820 -0.3235 -0.1481
  625MOL0     C82425   8.908   5.626   6.835  0.2576  0.3540 -0.3333
  625MOL0     O82426   9.029   5.560   6.817  0.6897 -0.4602  0.0217
  625MOL0     C82427   9.096   5.503   6.935  0.4256 -1.2369  0.4077
  625MOL0     C82428   9.233   5.445   6.911  0.6147  0.0274 -0.0488
  625MOL0     C82429   9.340   5.543   6.853  0.0616  0.2017 -0.3254
  625MOL0     C82430   9.456   5.454   6.792  0.0268 -0.1985  0.1670
  625MOL0     C82431   9.567   5.542   6.760 -0.8769 -0.3352  0.2091
  625MOL0     C82432   9.655   5.617   6.734 -0.3885  0.5311  0.3808
  625MOL0     C82433   8.844   5.657   6.960  0.0306  1.0442 -0.5267
  625MOL0     C82434   8.720   5.723   6.965  0.3769  0.3583 -0.0366
  625MOL0     H82435   8.254   5.746   6.888 -0.1523  1.0860  1.4161
  625MOL0     H82436   8.003   5.801   6.847  2.3349 -0.3210  2.0927
  625MOL0     H82437   7.923   6.146   6.669  0.1499  0.0224  2.6870
  625MOL0     H82438   7.894   6.041   6.811 -0.7951  0.1151 -0.0488
  625MOL0     H82439   7.686   6.128   6.784 -0.0017  1.9392 -0.9937
  625MOL0     H82440   7.681   5.966   6.703  1.2792 -0.7888  0.3047
  625MOL0     H82441   7.681   6.090   6.479 -0.6288 -1.0925  2.0154
  625MOL0     H82442   7.685   6.246   6.575  2.4391  0.7340 -0.6503
  625MOL0     H82443   7.476   6.026   6.597 -0.3221  0.6358  1.1107
  625MOL0     H82444   7.462   6.185   6.667 -0.7345 -1.2379  1.1414
  625MOL0     H82445   7.495   6.130   6.372  0.9841  1.4102  0.6579
  625MOL0     H82446   7.464   6.294   6.437  1.4096  0.8200  0.5385
  625MOL0     H82447   7.250   6.235   6.523  0.8610 -1.3513  0.9085
  625MOL0     H82448   7.266   6.070   6.459  0.6710 -0.6377 -0.7594
  625MOL0     H82449   7.230   6.331   6.318 -1.8814  0.5553 -0.2247
  625MOL0     H82450   7.292   6.181   6.230  1.3757  0.5196  1.8064
  625MOL0     H82451   7.040   6.216   6.404 -1.9766 -1.6627 -0.9829
  625MOL0     H82452   7.082   6.075   6.318  0.5580 -0.7809 -0.3874
  625MOL0     H82453   7.069   6.092   6.058 -2.8117 -1.8260  1.3141
  625MOL0     H82454   6.977   6.185   5.823 -0.2597 -2.0221  1.2941
  625MOL0     H82455   6.853   6.317   5.814 -0.9826 -0.3361 -0.6829
  625MOL0     H82456   6.813   6.049   5.939 -0.2834 -0.1334  0.7427
  625MOL0     H82457   6.786   6.071   5.769 -0.3279 -1.1958  0.9489
  625MOL0     H82458   6.656   6.214   5.997  1.8529 -0.0302  0.3043
  625MOL0     H82459   6.629   6.264   5.826  0.0330 -1.5093 -1.5906
  625MOL0     H82460   6.538   5.996   5.940 -1.8225 -0.1855  0.9111
  625MOL0     H82461   6.510   6.047   5.780  0.6452  2.1379 -1.4249
  625MOL0     H82462   6.339   5.941   5.759  0.6174  0.4799 -0.0624
  625MOL0     H82463   6.111   5.839   5.729 -0.1518 -1.3888  0.9928
  625MOL0     H82464   5.629   5.875   6.040  0.9528 -1.9175 -2.3027
  625MOL0     H82465   5.400   5.773   5.996  1.9999 -1.3742  0.3456
  625MOL0     H82466   5.166   5.967   5.783  0.3672  2.1026 -3.1677
  625MOL0     H82467   5.064   5.831   5.777  0.5299  2.9696  4.4470
  625MOL0     H82468   5.210   5.951   5.536  0.1263 -0.4132  0.1068
  625MOL0     H82469   5.040   5.959   5.585 -1.2002 -2.1814 -2.0854
  625MOL0     H82470   5.018   5.717   5.577  1.1002 -0.1543  0.9163
  625MOL0     H82471   5.185   5.697   5.522  1.2736  1.8419 -1.6404
  625MOL0     H82472   4.985   5.885   5.378 -1.2734 -1.5325 -0.2563
  625MOL0     H82473   5.140   5.852   5.323 -0.1055  0.8011  0.9232
  625MOL0     H82474   4.921   5.635   5.362 -1.0485  0.1314 -1.8562
  625MOL0     H82475   5.081   5.604   5.303  0.8183  1.2171 -0.2280
  625MOL0     H82476   4.882   5.812   5.179  2.1297 -0.1423  4.2948
  625MOL0     H82477   4.878   5.639   5.130  1.6973 -0.5578 -1.9967
  625MOL0     H82478   5.108   5.832   5.103 -0.4489  0.5160 -0.4143
  625MOL0     H82479   5.097   5.665   5.027 -0.1591 -1.6874  0.9973
  625MOL0     H82480   4.960   5.907   4.931  2.1345  0.0429  0.1198
  625MOL0     H82481   4.885   5.752   4.905 -1.9323  3.3253  2.3124
  625MOL0     H82482   5.420   5.925   5.601 -0.7918 -1.4780  0.9629
  625MOL0     H82483   5.635   6.022   5.646 -2.6295  5.2081  0.9118
  625MOL0     H82484   5.948   6.126   6.018 -0.2300 -1.7762  1.3365
  625MOL0     H82485   6.182   6.217   6.050 -0.2862  0.2413  0.0147
  625MOL0     H82486   8.123   6.023   6.499  3.0070  1.6108  1.6086
  625MOL0     H82487   8.355   5.990   6.563  0.5528 -0.4115  1.1510
  625MOL0     H82488   8.666   5.751   6.638  1.2359  0.3263  0.2921
  625MOL0     H82489   8.864   5.625   6.617 -0.2146  0.4013 -0.1601
  625MOL0     H82490   9.025   5.430   6.975 -0.8497 -0.4762 -0.3838
  625MOL0     H82491   9.108   5.582   7.010 -0.5270  0.0469 -0.7368
  625MOL0     H82492   9.267   5.392   7.000 -2.5497 -3.0076 -0.4535
  625MOL0     H82493   9.223   5.365   6.837  5.4912 -1.1393  0.1779
  625MOL0     H82494   9.371   5.612   6.932  1.6117 -1.2027  0.3348
  625MOL0     H82495   9.292   5.607   6.777 -3.0383 -1.7655 -0.2024
  625MOL0     H82496   9.495   5.386   6.868  0.2535 -0.8680 -0.5424
  625MOL0     H82497   9.428   5.413   6.695  1.1916  1.7464 -1.0668
  625MOL0     H82498   9.736   5.679   6.702  0.0994 -1.2266 -2.0532
  625MOL0     H82499   8.903   5.632   7.048 -0.3076 -1.1899 -0.8531
  625MOL0     H82500   8.674   5.741   7.062 -3.1366  2.1398 -1.8275
  626MOL0     O82501   9.738   6.019   0.618  0.1415 -0.7824 -0.8370
  626MOL0     C82502   9.681   6.103   0.546 -1.1463  0.4773  0.1455
  626MOL0     O82503   9.544   6.115   0.532 -0.5938 -0.3509  0.1051
  626MOL0     C82504   9.463   6.046   0.614  0.4817 -0.2902  0.2889
  626MOL0     C82505   9.468   6.047   0.756 -0.3063  0.2686  1.0206
  626MOL0     C82506   9.378   5.971   0.833 -0.1970 -0.9963  0.8977
  626MOL0     C82507   9.271   5.909   0.762 -0.5032  0.3632  0.3306
  626MOL0     O82508   9.176   5.853   0.840 -0.4917  0.6946 -0.1596
  626MOL0     C82509   9.059   5.806   0.770  0.0914 -0.0530 -0.2612
  626MOL0     C82510   9.005   5.724   0.883  0.6874  0.3362 -0.1419
  626MOL0     C82511   8.862   5.684   0.845  0.6303 -0.0714  0.4708
  626MOL0     C82512   8.797   5.600   0.950  0.8332  0.0601  0.1001
  626MOL0     C82513   8.647   5.593   0.925 -0.3357  0.2875 -0.0078
  626MOL0     C82514   8.564   5.549   1.049 -0.1523  1.3260 -0.5108
  626MOL0     C82515   8.411   5.554   1.025  0.4212  0.4042 -0.1818
  626MOL0     C82516   8.342   5.473   1.133  0.2739  0.6621 -0.2531
  626MOL0     N82517   8.199   5.468   1.124 -0.2881 -0.0457  0.2930
  626MOL0     C82518   8.115   5.415   1.022  0.2922 -0.6314  1.1008
  626MOL0     C82519   7.987   5.447   1.060  0.5743  0.6073 -0.1737
  626MOL0     C82520   7.867   5.418   0.981  0.8546 -0.1035  0.4546
  626MOL0     C82521   7.765   5.329   1.059  0.0948 -0.0155  0.0735
  626MOL0     C82522   7.728   5.381   1.203  0.0269  0.5885  0.0028
  626MOL0     C82523   7.614   5.304   1.269  0.4989  0.0985  0.5327
  626MOL0     O82524   7.490   5.339   1.197  0.1421  0.1140 -0.4538
  626MOL0     C82525   7.369   5.300   1.241 -0.5073  0.4640 -0.3006
  626MOL0     C82526   7.350   5.228   1.366  0.5065 -0.1079  0.8041
  626MOL0     C82527   7.225   5.179   1.411  0.2694 -0.5254  0.1188
  626MOL0     C82528   7.109   5.211   1.340  0.3515 -0.1235  0.4675
  626MOL0     C82529   6.982   5.153   1.379  0.7655 -0.2386 -0.0474
  626MOL0     O82530   6.980   5.102   1.508 -0.5480 -0.1273 -0.5056
  626MOL0     C82531   6.872   5.129   1.585 -0.7878 -0.4440 -0.0237
  626MOL0     C82532   6.899   5.199   1.700 -0.7487 -0.3569  0.6750
  626MOL0     C82533   6.795   5.221   1.793 -0.8172  0.4913 -0.9794
  626MOL0     C82534   6.665   5.199   1.752  0.2735 -0.9163 -0.2864
  626MOL0     O82535   6.565   5.260   1.822  0.1618  0.1430  0.8434
  626MOL0     C82536   6.423   5.236   1.789 -0.0847  0.5153  0.4775
  626MOL0     C82537   6.336   5.335   1.864 -0.4161  0.2416  0.4403
  626MOL0     C82538   6.326   5.298   2.023 -0.3447  0.6137 -0.0881
  626MOL0     C82539   6.454   5.297   2.103 -0.3178  0.4776 -0.9796
  626MOL0     C82540   6.434   5.303   2.262  0.0836  0.6002  0.0132
  626MOL0     C82541   6.361   5.187   2.334 -0.0676  0.3866  0.9244
  626MOL0     C82542   6.386   5.174   2.486 -0.0911 -0.4143 -0.1330
  626MOL0     C82543   6.337   5.050   2.544  0.1631  0.7042 -0.5809
  626MOL0    Cl82544   6.153   5.038   2.543 -0.2443  0.1389  0.0665
  626MOL0     C82545   6.642   5.115   1.642 -0.2068 -0.9069 -0.3368
  626MOL0     C82546   6.748   5.071   1.568 -0.7273  0.2365  0.2643
  626MOL0     O82547   6.883   5.160   1.305  0.1766  0.6410  0.1930
  626MOL0     C82548   7.126   5.283   1.218 -0.3586  0.4530 -0.6854
  626MOL0     C82549   7.248   5.333   1.173  0.7552 -0.1504  0.2504
  626MOL0     N82550   8.001   5.518   1.181 -0.6527  0.8987 -0.1461
  626MOL0     N82551   8.120   5.527   1.220  0.5246 -0.3505 -0.4391
  626MOL0     C82552   9.261   5.918   0.620  0.7733 -0.5486 -0.1827
  626MOL0     C82553   9.356   5.987   0.546 -0.1390  0.7099 -0.2028
  626MOL0     C82554   9.764   6.194   0.464  0.4987 -0.5119 -0.1984
  626MOL0     C82555   9.709   6.283   0.376 -0.2674 -1.0241  0.7788
  626MOL0     C82556   9.793   6.364   0.304 -0.7119  0.1091 -1.0925
  626MOL0     C82557   9.935   6.355   0.307  0.3359 -0.5090  0.3217
  626MOL0     O82558  10.009   6.445   0.239  0.1313  0.3551  0.0413
  626MOL0     C82559  10.154   6.431   0.236 -0.2995  0.0458  0.5776
  626MOL0     C82560  10.233   6.551   0.176  0.7217 -0.4618  0.5280
  626MOL0     C82561  10.159   6.621   0.058  0.0819  0.2584 -0.3891
  626MOL0     C82562  10.150   6.544  -0.076 -1.0165 -0.9871  0.9340
  626MOL0     C82563  10.280   6.491  -0.122  0.2185 -0.2218  0.7998
  626MOL0     C82564  10.379   6.432  -0.156 -0.2201 -0.2035 -0.4531
  626MOL0     C82565   9.988   6.256   0.384 -0.5456  0.1523 -0.7916
  626MOL0     C82566   9.904   6.175   0.459 -1.5466 -0.4426  0.1395
  626MOL0     H82567   9.536   6.110   0.814 -0.2614 -0.4815  1.8073
  626MOL0     H82568   9.396   5.957   0.939  0.0508 -1.5398  0.7902
  626MOL0     H82569   9.081   5.727   0.698  0.6102  0.4440 -0.6580
  626MOL0     H82570   8.995   5.885   0.730  0.5699  1.0350  1.0566
  626MOL0     H82571   9.000   5.793   0.968 -0.3037 -1.4365  1.3039
  626MOL0     H82572   9.075   5.641   0.897  1.5727  1.1548  0.4739
  626MOL0     H82573   8.857   5.645   0.743 -0.1550  0.0012  0.4763
  626MOL0     H82574   8.801   5.771   0.818 -0.3630 -0.1510  2.3113
  626MOL0     H82575   8.836   5.498   0.944 -0.5679 -0.7977  3.3113
  626MOL0     H82576   8.826   5.641   1.047  0.1492  0.6948  0.0503
  626MOL0     H82577   8.620   5.518   0.850 -2.9941  2.8129 -1.7574
  626MOL0     H82578   8.598   5.686   0.895  0.4356  0.0320 -2.2929
  626MOL0     H82579   8.592   5.609   1.136  0.1834  0.8008 -0.2562
  626MOL0     H82580   8.581   5.444   1.072  1.6035  2.0934  2.0660
  626MOL0     H82581   8.383   5.659   1.022  0.1954  0.5392  2.8706
  626MOL0     H82582   8.385   5.508   0.930 -0.4503  1.4651 -0.4728
  626MOL0     H82583   8.382   5.505   1.230 -0.1831 -0.1253  0.2035
  626MOL0     H82584   8.376   5.369   1.126  1.9329  1.1724 -0.2007
  626MOL0     H82585   8.158   5.384   0.928 -0.7267  0.5415  0.2097
  626MOL0     H82586   7.881   5.371   0.883 -1.4940  0.1040 -0.0493
  626MOL0     H82587   7.828   5.518   0.962  3.7389  1.0122 -0.0449
  626MOL0     H82588   7.811   5.230   1.070 -1.4568 -0.8747 -0.9336
  626MOL0     H82589   7.673   5.313   1.003  0.2944 -1.2999  0.0883
  626MOL0     H82590   7.819   5.355   1.259  2.0626 -0.8862 -3.6757
  626MOL0     H82591   7.689   5.483   1.206  0.9764  0.9403  1.1108
  626MOL0     H82592   7.606   5.330   1.375  0.7895  2.7833 -0.0353
  626MOL0     H82593   7.628   5.197   1.250  3.9920  0.6772 -0.7933
  626MOL0     H82594   7.437   5.192   1.421  0.0248  0.3847  1.9257
  626MOL0     H82595   7.235   5.124   1.504  0.6276 -0.5256  0.0838
  626MOL0     H82596   7.001   5.224   1.727 -0.2697  0.8394 -1.9430
  626MOL0     H82597   6.815   5.265   1.890 -0.0289  1.0437 -1.3850
  626MOL0     H82598   6.397   5.134   1.816  0.3125  0.3549  0.2544
  626MOL0     H82599   6.418   5.249   1.680  4.8370 -0.6638 -0.1188
  626MOL0     H82600   6.236   5.329   1.819  0.7434  1.1943 -2.4650
  626MOL0     H82601   6.373   5.436   1.847  0.1759 -0.0399  0.0187
  626MOL0     H82602   6.289   5.195   2.028  0.8483  0.0750 -1.6564
  626MOL0     H82603   6.258   5.382   2.042 -0.5497  1.7153 -4.5961
  626MOL0     H82604   6.509   5.205   2.084 -0.6231  0.0009  0.3564
  626MOL0     H82605   6.520   5.382   2.078  0.3621 -0.1179 -1.2504
  626MOL0     H82606   6.376   5.392   2.287  1.5576  1.1952  1.5058
  626MOL0     H82607   6.530   5.319   2.312 -0.0686 -2.6204  1.6351
  626MOL0     H82608   6.387   5.096   2.280 -1.2491  1.1967 -1.1429
  626MOL0     H82609   6.255   5.195   2.308  0.5831  2.1706 -1.6404
  626MOL0     H82610   6.495   5.183   2.496 -0.1387  1.1105 -0.7043
  626MOL0     H82611   6.339   5.257   2.539 -0.6970  0.2683 -1.6839
  626MOL0     H82612   6.360   5.025   2.648  1.6025 -3.3567 -1.7260
  626MOL0     H82613   6.376   4.964   2.490  1.8145  1.4979 -0.7135
  626MOL0     H82614   6.544   5.089   1.602  0.1603 -1.1796 -1.0704
  626MOL0     H82615   6.728   5.014   1.478 -2.1660  1.4522 -0.2279
  626MOL0     H82616   7.037   5.296   1.156 -1.8498 -0.8511  1.0488
  626MOL0     H82617   7.241   5.383   1.078  3.8192 -0.0631 -0.0539
  626MOL0     H82618   9.174   5.877   0.569  1.4442 -1.2904 -0.7591
  626MOL0     H82619   9.362   5.985   0.438 -0.1434  0.6810 -0.2024
  626MOL0     H82620   9.601   6.291   0.374 -0.2600 -0.9970  0.1775
  626MOL0     H82621   9.754   6.435   0.232 -1.6503 -0.9241 -1.6335
  626MOL0     H82622  10.174   6.349   0.167 -0.5607 -0.8235  1.5218
  626MOL0     H82623  10.191   6.418   0.339  2.8058  0.0791 -0.4347
  626MOL0     H82624  10.247   6.629   0.252 -0.7142  0.4836 -0.1259
  626MOL0     H82625  10.330   6.514   0.141  0.6477 -0.2739  0.1204
  626MOL0     H82626  10.211   6.714   0.035  1.3923 -0.6300 -1.1782
  626MOL0     H82627  10.058   6.642   0.092  0.2583 -1.3233  1.2566
  626MOL0     H82628  10.080   6.463  -0.054 -0.4241 -2.1646 -1.2222
  626MOL0     H82629  10.101   6.610  -0.148 -0.0007  1.1050  2.0690
  626MOL0     H82630  10.465   6.372  -0.175  1.6618  0.9711  3.3036
  626MOL0     H82631  10.089   6.220   0.372 -0.4893  0.0681 -0.0713
  626MOL0     H82632   9.941   6.079   0.493  0.2375 -0.7637 -2.4163
  627MOL0     O82633   1.215   9.447   4.659 -0.5792 -1.5364  0.6515
  627MOL0     C82634   1.227   9.413   4.541  1.1222  0.7312  0.7974
  627MOL0     O82635   1.331   9.333   4.488  0.4911 -0.3606 -0.3308
  627MOL0     C82636   1.445   9.326   4.557  0.7054  0.9335  0.4627
  627MOL0     C82637   1.515   9.432   4.603  0.5030 -0.4171 -0.5693
  627MOL0     C82638   1.637   9.417   4.683  0.8867 -0.6540 -0.4375
  627MOL0     C82639   1.684   9.293   4.704  0.2213  0.4492  0.2092
  627MOL0     O82640   1.790   9.276   4.797 -0.1224 -0.3076  0.3683
  627MOL0     C82641   1.811   9.141   4.848 -0.4603 -0.1253  0.0190
  627MOL0     C82642   1.949   9.117   4.921  0.3090 -0.3599 -0.3762
  627MOL0     C82643   1.944   8.974   4.969 -0.0897  0.2012  0.3356
  627MOL0     C82644   2.069   8.919   5.046  0.3532 -0.1258  0.1371
  627MOL0     C82645   2.056   8.772   5.101 -0.1340  0.0959  0.3979
  627MOL0     C82646   1.942   8.748   5.211  0.4465 -0.3221  0.0355
  627MOL0     C82647   1.990   8.765   5.349  0.4488 -0.2451  0.0565
  627MOL0     C82648   2.038   8.631   5.405  0.0564 -1.4339 -0.0627
  627MOL0     N82649   1.934   8.528   5.405  0.3658  0.3698 -0.5516
  627MOL0     C82650   1.809   8.543   5.453  0.5333 -0.2678  0.2042
  627MOL0     C82651   1.744   8.429   5.411 -1.0811 -1.0131 -1.7443
  627MOL0     C82652   1.608   8.392   5.465  1.7604  0.1825  0.1830
  627MOL0     C82653   1.498   8.409   5.346  0.7911  0.2442  0.0771
  627MOL0     C82654   1.497   8.559   5.310  0.1813  0.3614  0.2421
  627MOL0     C82655   1.408   8.606   5.193 -0.2592  0.9221 -0.5062
  627MOL0     O82656   1.274   8.567   5.231 -0.6518 -0.3099 -0.5734
  627MOL0     C82657   1.164   8.600   5.161 -1.0165  0.0619 -0.6420
  627MOL0     C82658   1.163   8.679   5.043  0.3919  0.2993 -0.8373
  627MOL0     C82659   1.033   8.716   4.985 -0.3428 -0.4942  0.1885
  627MOL0     C82660   0.917   8.671   5.045  0.9236  0.4733  0.5331
  627MOL0     C82661   0.775   8.707   5.008  0.2547  0.7952  0.1231
  627MOL0     O82662   0.683   8.666   5.092  0.1271 -0.1482 -0.0178
  627MOL0     C82663   0.555   8.718   5.079 -0.4819  0.4715 -0.4233
  627MOL0     C82664   0.494   8.773   5.195  1.1376 -0.3251  0.7011
  627MOL0     C82665   0.362   8.805   5.189 -0.4169 -0.5477 -0.7319
  627MOL0     C82666   0.285   8.781   5.072  1.2093 -0.5550 -0.6191
  627MOL0     O82667   0.155   8.822   5.082 -0.0644  0.8430 -0.1622
  627MOL0     C82668   0.060   8.786   4.974 -0.2829  0.4319  0.2121
  627MOL0     C82669  -0.082   8.833   4.990 -0.5508  0.2325  0.8386
  627MOL0     C82670  -0.173   8.725   5.021  0.2278  0.3855  0.4993
  627MOL0     C82671  -0.216   8.651   4.886  0.8771 -0.3598 -0.7808
  627MOL0     C82672  -0.339   8.553   4.910 -0.7635  0.1785  0.1944
  627MOL0     C82673  -0.471   8.622   4.911  0.3827 -0.7848 -0.5607
  627MOL0     C82674  -0.575   8.514   4.925  0.4354 -0.0576  0.0496
  627MOL0     C82675  -0.721   8.561   4.906 -1.0104  0.2011 -0.5852
  627MOL0    Cl82676  -0.740   8.702   5.014  0.0569  0.3965 -0.6387
  627MOL0     C82677   0.344   8.728   4.960  0.2278 -0.1061  0.1359
  627MOL0     C82678   0.481   8.695   4.959 -0.2580 -0.2075  0.0604
  627MOL0     O82679   0.761   8.782   4.906 -0.8051 -0.0476 -0.0101
  627MOL0     C82680   0.921   8.586   5.153 -0.8000  0.6938  0.6601
  627MOL0     C82681   1.043   8.562   5.220 -0.7134  0.1058  0.5398
  627MOL0     N82682   1.832   8.352   5.333  0.6068  0.1029 -0.7819
  627MOL0     N82683   1.936   8.416   5.320 -0.5791 -0.0632 -0.6630
  627MOL0     C82684   1.611   9.179   4.643 -1.0078  0.2663  0.3241
  627MOL0     C82685   1.500   9.201   4.576 -0.0026  0.9014  0.6502
  627MOL0     C82686   1.111   9.427   4.453  0.4739  0.7639 -0.6970
  627MOL0     C82687   0.994   9.511   4.487  0.6157 -0.2306  0.3998
  627MOL0     C82688   0.869   9.493   4.420 -0.1195  0.2123  0.1988
  627MOL0     C82689   0.858   9.399   4.316 -0.4406 -0.0079 -0.5079
  627MOL0     O82690   0.743   9.386   4.238  0.5754 -0.1562  0.5090
  627MOL0     C82691   0.757   9.400   4.086 -0.2001  0.9897 -0.0308
  627MOL0     C82692   0.647   9.483   4.020  0.0117 -0.8136 -0.1871
  627MOL0     C82693   0.602   9.596   4.109  0.2437 -0.1989 -0.7105
  627MOL0     C82694   0.520   9.709   4.049 -0.2365 -0.4839 -0.8013
  627MOL0     C82695   0.424   9.661   3.953 -0.4956  0.0081  0.0397
  627MOL0     C82696   0.332   9.622   3.884  0.1110  0.8630 -0.4161
  627MOL0     C82697   0.975   9.332   4.274  0.4404 -0.0272 -0.4043
  627MOL0     C82698   1.094   9.339   4.344  1.1655 -0.7900  0.1200
  627MOL0     H82699   1.465   9.529   4.610  1.6576  0.1683 -0.1037
  627MOL0     H82700   1.691   9.500   4.728 -0.2582 -0.8144  1.3102
  627MOL0     H82701   1.815   9.072   4.763  0.2012  1.4423 -1.2740
  627MOL0     H82702   1.726   9.121   4.914 -0.0931  1.4784  1.0153
  627MOL0     H82703   1.967   9.184   5.006  1.4589  1.7276 -2.1688
  627MOL0     H82704   2.035   9.141   4.858 -1.4143  0.9824 -2.3463
  627MOL0     H82705   1.923   8.909   4.884  1.1491  0.5114 -0.2259
  627MOL0     H82706   1.863   8.956   5.040  1.1218  1.6904  2.2104
  627MOL0     H82707   2.154   8.932   4.979 -0.5310  0.8586 -0.8164
  627MOL0     H82708   2.087   8.975   5.138 -3.2456 -0.7392  1.3506
  627MOL0     H82709   2.149   8.741   5.148  1.1640  0.5913 -1.7012
  627MOL0     H82710   2.033   8.707   5.016 -0.0104  1.4355 -0.7086
  627MOL0     H82711   1.897   8.650   5.197 -1.8900  0.3794  2.0428
  627MOL0     H82712   1.861   8.821   5.201  0.3253 -0.3982  0.4651
  627MOL0     H82713   2.067   8.843   5.354 -1.2822  1.5108  0.4546
  627MOL0     H82714   1.916   8.803   5.420  0.0987 -0.9569  0.0866
  627MOL0     H82715   2.079   8.648   5.505 -1.3686  1.7685  0.0714
  627MOL0     H82716   2.119   8.590   5.344  0.5073 -1.8575  0.8002
  627MOL0     H82717   1.771   8.626   5.512 -0.4133 -1.7527  1.8021
  627MOL0     H82718   1.583   8.457   5.550 -0.3745  1.4274 -1.3041
  627MOL0     H82719   1.614   8.285   5.489  0.4717  0.1657  0.4839
  627MOL0     H82720   1.401   8.384   5.391  1.2571 -0.9708  0.4487
  627MOL0     H82721   1.531   8.342   5.266 -2.8718  0.0192 -1.4554
  627MOL0     H82722   1.480   8.615   5.403  1.7262 -0.2000  0.8988
  627MOL0     H82723   1.598   8.593   5.286 -0.2872  1.0602 -0.7903
  627MOL0     H82724   1.436   8.574   5.092 -0.7543 -0.0216 -0.3544
  627MOL0     H82725   1.410   8.715   5.181  0.4939  1.0104  0.3076
  627MOL0     H82726   1.256   8.725   5.011  2.9945 -3.3640  0.6391
  627MOL0     H82727   1.028   8.789   4.906  0.0016  0.0392  0.6537
  627MOL0     H82728   0.542   8.774   5.292 -2.4449 -0.5765  2.6466
  627MOL0     H82729   0.304   8.842   5.274  0.4686  1.3175 -0.8956
  627MOL0     H82730   0.070   8.678   4.956  3.3062  0.3993  1.4882
  627MOL0     H82731   0.090   8.843   4.885  1.0787  0.2485  0.5248
  627MOL0     H82732  -0.104   8.892   4.900  0.5483  2.7589  2.1352
  627MOL0     H82733  -0.080   8.904   5.073 -0.9635  3.3263 -1.6111
  627MOL0     H82734  -0.254   8.770   5.079  0.8864  3.0198 -0.4664
  627MOL0     H82735  -0.114   8.661   5.087  1.6172  0.3266 -0.7615
  627MOL0     H82736  -0.249   8.721   4.809 -0.0098  2.4935  2.0074
  627MOL0     H82737  -0.126   8.598   4.851  0.8700 -0.5917 -0.4496
  627MOL0     H82738  -0.322   8.497   5.003 -2.9633  0.3713  0.7813
  627MOL0     H82739  -0.351   8.481   4.830 -2.8529 -0.9071  1.3945
  627MOL0     H82740  -0.482   8.674   4.815  3.3235  0.0337 -0.5344
  627MOL0     H82741  -0.485   8.698   4.989  0.3706 -0.2486 -1.0727
  627MOL0     H82742  -0.564   8.427   4.860 -0.3180 -2.7358  3.2421
  627MOL0     H82743  -0.572   8.473   5.026 -2.1672  1.6992  0.9392
  627MOL0     H82744  -0.786   8.480   4.942 -1.1007  0.6594  0.3243
  627MOL0     H82745  -0.734   8.580   4.799  0.4959 -1.4312 -1.1153
  627MOL0     H82746   0.291   8.704   4.868  0.5453 -2.0293  0.4319
  627MOL0     H82747   0.532   8.648   4.876 -1.3136 -0.0727 -0.6902
  627MOL0     H82748   0.838   8.536   5.203  0.2540 -0.3432  1.4414
  627MOL0     H82749   1.046   8.491   5.302  1.8983 -0.3673  0.1039
  627MOL0     H82750   1.633   9.075   4.662 -3.0365 -0.2760 -0.0513
  627MOL0     H82751   1.453   9.118   4.523  1.5045 -0.0864  0.7629
  627MOL0     H82752   0.998   9.582   4.569  1.7871 -1.5070  1.5196
  627MOL0     H82753   0.782   9.550   4.449 -0.9525 -2.5527  4.0688
  627MOL0     H82754   0.732   9.299   4.050 -0.6888  1.0760  0.0559
  627MOL0     H82755   0.857   9.432   4.057 -0.4752  3.3778  1.3994
  627MOL0     H82756   0.696   9.528   3.933 -0.1717  0.1379  0.1856
  627MOL0     H82757   0.559   9.424   3.995 -0.1270  0.8096 -4.3399
  627MOL0     H82758   0.692   9.645   4.146  1.1393 -2.0756 -0.3200
  627MOL0     H82759   0.555   9.554   4.198  4.3109 -2.6812  0.5275
  627MOL0     H82760   0.463   9.748   4.133  1.7658 -3.3221  2.1380
  627MOL0     H82761   0.588   9.789   4.017  0.4834 -1.2290 -1.2071
  627MOL0     H82762   0.254   9.573   3.830 -1.0816 -0.1463  2.0743
  627MOL0     H82763   0.963   9.253   4.200  2.2390 -1.7746  1.0345
  627MOL0     H82764   1.184   9.283   4.322  2.7684  1.5595  0.3277
  628MOL0     O82765   8.937   5.435   4.000 -0.6937  0.5911 -0.6426
  628MOL0     C82766   8.848   5.521   3.990  0.4016 -0.9093  0.2675
  628MOL0     O82767   8.871   5.656   3.970 -0.7460 -0.8157  0.9324
  628MOL0     C82768   8.988   5.706   3.926  0.6670 -0.9540 -0.7964
  628MOL0     C82769   9.025   5.831   3.991 -0.0223  0.0782  0.5411
  628MOL0     C82770   9.140   5.894   3.952  0.7562  0.3337  0.5627
  628MOL0     C82771   9.226   5.840   3.853 -0.3882 -0.4418 -0.4201
  628MOL0     O82772   9.345   5.910   3.818  0.0402 -0.0592 -0.0478
  628MOL0     C82773   9.436   5.951   3.929 -0.2991  0.0079 -0.3451
  628MOL0     C82774   9.578   5.947   3.874  0.5842 -0.2026 -0.6213
  628MOL0     C82775   9.630   5.817   3.814  0.0272 -0.1122  0.6183
  628MOL0     C82776   9.777   5.837   3.776 -0.0214  0.1037  0.8245
  628MOL0     C82777   9.828   5.715   3.705  0.2056  0.0665  0.3850
  628MOL0     C82778   9.791   5.719   3.557  0.8271  0.1801  0.5628
  628MOL0     C82779   9.860   5.627   3.461 -0.0558  0.7406  0.5701
  628MOL0     C82780   9.911   5.504   3.528  1.0728  0.4406  0.3342
  628MOL0     N82781   9.976   5.421   3.428  0.7173  0.4060 -0.2365
  628MOL0     C82782  10.109   5.419   3.411 -1.8184  0.9948  0.1795
  628MOL0     C82783  10.128   5.338   3.304 -0.0502  0.2592 -0.5367
  628MOL0     C82784  10.261   5.313   3.226 -0.0235  0.3722  0.3529
  628MOL0     C82785  10.333   5.434   3.166  0.8184 -0.1508 -0.7209
  628MOL0     C82786  10.237   5.542   3.106 -0.0058 -0.0774 -0.0550
  628MOL0     C82787  10.144   5.506   2.984  0.5110 -0.0367  0.3278
  628MOL0     O82788  10.083   5.625   2.927  0.2258 -0.1109 -0.2260
  628MOL0     C82789   9.975   5.681   2.990  0.2471 -0.0553 -0.8882
  628MOL0     C82790   9.866   5.603   3.052  0.0580 -0.6365  0.1330
  628MOL0     C82791   9.767   5.674   3.117  0.4329 -1.4201  0.7770
  628MOL0     C82792   9.752   5.814   3.109  0.1221  1.3501  0.3542
  628MOL0     C82793   9.639   5.887   3.182 -0.8009 -0.0857 -0.1999
  628MOL0     O82794   9.533   5.830   3.241  0.9402  0.6189 -0.3526
  628MOL0     C82795   9.417   5.894   3.280 -0.1392  0.0501  0.4440
  628MOL0     C82796   9.338   5.967   3.185  0.0358  0.0346 -0.1153
  628MOL0     C82797   9.225   6.035   3.236  0.2838  0.4105 -0.0761
  628MOL0     C82798   9.185   6.032   3.369 -0.8351 -0.0453 -0.2440
  628MOL0     O82799   9.071   6.081   3.423  0.0573 -0.0633  0.0894
  628MOL0     C82800   8.976   6.139   3.337  0.6131  0.3250  0.5221
  628MOL0     C82801   8.858   6.203   3.401  0.9463 -0.5915 -0.7795
  628MOL0     C82802   8.764   6.226   3.280  0.8224 -0.5001  0.1496
  628MOL0     C82803   8.625   6.279   3.318  0.1765 -0.0493 -0.2361
  628MOL0     C82804   8.523   6.237   3.205 -0.3529 -0.8627 -0.0128
  628MOL0     C82805   8.383   6.206   3.253 -0.2759 -0.2409  0.4148
  628MOL0     C82806   8.382   6.067   3.308  0.4213  0.4198 -0.0641
  628MOL0     C82807   8.239   6.040   3.361  0.4313  0.7169 -0.3259
  628MOL0    Cl82808   8.232   5.874   3.418 -0.2969 -0.1010  0.1444
  628MOL0     C82809   9.264   5.958   3.457  0.3976  0.2034 -0.0104
  628MOL0     C82810   9.375   5.888   3.415 -0.2792 -0.2486  0.2137
  628MOL0     O82811   9.657   6.012   3.172  0.0709  0.0995 -0.5012
  628MOL0     C82812   9.852   5.889   3.043 -0.0198  0.5334 -0.0982
  628MOL0     C82813   9.957   5.819   2.975 -0.4080 -0.4382  0.0455
  628MOL0     N82814  10.005   5.294   3.258 -1.1284 -0.2416  0.0332
  628MOL0     N82815   9.914   5.350   3.327  0.5724  0.0942 -0.8242
  628MOL0     C82816   9.186   5.726   3.778  0.0828 -0.4927 -0.8709
  628MOL0     C82817   9.062   5.664   3.819 -0.1886 -0.6081  0.0516
  628MOL0     C82818   8.715   5.489   4.029  0.5637  0.8340 -0.3203
  628MOL0     C82819   8.686   5.361   4.077 -0.2250  0.2198 -0.7278
  628MOL0     C82820   8.550   5.320   4.086  0.2197  0.3671 -0.3938
  628MOL0     C82821   8.442   5.408   4.051 -0.2867 -0.2546 -0.5219
  628MOL0     O82822   8.316   5.348   4.044  0.0460  0.7191 -0.5809
  628MOL0     C82823   8.227   5.401   4.144 -0.4136  0.3573  0.5373
  628MOL0     C82824   8.257   5.361   4.289 -0.2967  0.0535 -0.3681
  628MOL0     C82825   8.152   5.419   4.393  0.4968  0.3832  0.0802
  628MOL0     C82826   8.124   5.565   4.401  0.1081 -0.8092  0.3378
  628MOL0     C82827   8.251   5.643   4.386  0.5525  0.3081  0.3128
  628MOL0     C82828   8.348   5.719   4.373  0.5588  0.6552 -0.0109
  628MOL0     C82829   8.467   5.540   4.022  0.6671  0.8528  0.7929
  628MOL0     C82830   8.607   5.575   4.003  0.6639 -0.4985 -0.0717
  628MOL0     H82831   8.970   5.867   4.077  0.2857  1.5541  0.1409
  628MOL0     H82832   9.173   5.987   3.998  0.4459  0.9316 -0.3923
  628MOL0     H82833   9.435   5.872   4.006 -0.6490 -0.1375 -0.4993
  628MOL0     H82834   9.407   6.051   3.962 -0.2297  0.7748 -2.4749
  628MOL0     H82835   9.650   5.962   3.955 -0.6590  0.4651  0.3925
  628MOL0     H82836   9.590   6.033   3.807  1.2978 -0.7806 -1.2578
  628MOL0     H82837   9.569   5.786   3.729  0.6519  3.0272 -1.1370
  628MOL0     H82838   9.624   5.740   3.891  0.7506 -0.4590  0.3367
  628MOL0     H82839   9.774   5.927   3.713 -0.6169 -1.9235 -2.2517
  628MOL0     H82840   9.835   5.851   3.868 -0.0020  2.5589  0.5141
  628MOL0     H82841   9.790   5.621   3.746  1.4548 -1.0027 -0.7785
  628MOL0     H82842   9.938   5.721   3.707  0.3797 -1.9836 -0.5046
  628MOL0     H82843   9.800   5.822   3.524 -2.2220  0.6154  0.8321
  628MOL0     H82844   9.684   5.698   3.560  0.6499  0.7124 -1.0008
  628MOL0     H82845   9.785   5.605   3.385 -0.2955  1.0352  0.7192
  628MOL0     H82846   9.947   5.678   3.418  2.0073 -3.1339 -0.2457
  628MOL0     H82847   9.826   5.449   3.569  1.9366 -0.6843  0.6739
  628MOL0     H82848   9.988   5.526   3.603  2.3638 -1.0579 -0.5239
  628MOL0     H82849  10.190   5.465   3.467 -0.6273 -2.8914  1.9682
  628MOL0     H82850  10.250   5.238   3.146  3.7609 -1.1120  0.9951
  628MOL0     H82851  10.341   5.272   3.288  0.1617  2.4259  1.5562
  628MOL0     H82852  10.405   5.395   3.094  1.2145 -0.3360 -0.2233
  628MOL0     H82853  10.368   5.499   3.246 -2.0885 -0.1020  0.6666
  628MOL0     H82854  10.180   5.594   3.185 -2.8939 -0.9011 -1.4514
  628MOL0     H82855  10.295   5.627   3.068 -1.6550  1.7479  1.2404
  628MOL0     H82856  10.072   5.426   3.004  0.0617 -0.0565 -1.2227
  628MOL0     H82857  10.206   5.452   2.911 -1.3871 -0.8188 -0.7705
  628MOL0     H82858   9.875   5.495   3.057  0.4308 -0.5759  0.9916
  628MOL0     H82859   9.689   5.624   3.173 -1.9552  0.7646 -0.4126
  628MOL0     H82860   9.361   5.968   3.079 -4.0648 -1.6306 -1.2259
  628MOL0     H82861   9.165   6.088   3.162  1.0507  0.2038 -0.8575
  628MOL0     H82862   8.942   6.067   3.262  1.2934  2.1204 -1.6330
  628MOL0     H82863   9.032   6.216   3.283 -1.2053  1.5491  0.2737
  628MOL0     H82864   8.881   6.297   3.452  1.2134 -1.2124  0.2906
  628MOL0     H82865   8.819   6.124   3.466  1.2029 -1.1313 -1.2749
  628MOL0     H82866   8.747   6.129   3.232 -2.4253 -0.2943  0.6632
  628MOL0     H82867   8.801   6.297   3.205  2.1947 -1.6872 -0.3420
  628MOL0     H82868   8.593   6.244   3.417 -1.2919  2.9313  0.4661
  628MOL0     H82869   8.638   6.388   3.325 -1.1191  0.0342  1.9649
  628MOL0     H82870   8.562   6.153   3.148  2.5321  1.4931 -1.8068
  628MOL0     H82871   8.519   6.316   3.130 -0.3909 -0.3850  0.4802
  628MOL0     H82872   8.308   6.213   3.174  0.7814 -2.3129 -0.8695
  628MOL0     H82873   8.365   6.275   3.336  1.2690  0.3107  0.3429
  628MOL0     H82874   8.413   5.995   3.231 -0.1981 -0.9492  0.9413
  628MOL0     H82875   8.450   6.062   3.393 -0.2742 -0.0614  0.4713
  628MOL0     H82876   8.166   6.044   3.280 -0.0415  1.0437  0.1070
  628MOL0     H82877   8.220   6.115   3.439  2.2183  1.1220 -0.2155
  628MOL0     H82878   9.235   5.971   3.561  2.1313 -1.6091  0.7667
  628MOL0     H82879   9.431   5.843   3.497  2.0214  0.2844 -1.0178
  628MOL0     H82880   9.852   5.997   3.043 -2.5157  0.5897  0.2342
  628MOL0     H82881  10.032   5.878   2.923  1.2886 -2.6966 -0.2033
  628MOL0     H82882   9.250   5.692   3.698  1.2866 -0.4112  0.0222
  628MOL0     H82883   9.018   5.584   3.761 -0.7170  0.3825 -0.9560
  628MOL0     H82884   8.766   5.291   4.095  0.2573  0.1620 -2.8074
  628MOL0     H82885   8.523   5.221   4.120 -0.6162  0.7606  0.1308
  628MOL0     H82886   8.125   5.371   4.116  0.3809  0.5832 -3.0386
  628MOL0     H82887   8.240   5.509   4.146  0.9052  0.2004  1.2777
  628MOL0     H82888   8.255   5.252   4.296 -2.0263 -0.1001 -2.4740
  628MOL0     H82889   8.359   5.383   4.324 -0.6968 -1.9094  2.3169
  628MOL0     H82890   8.181   5.391   4.495 -2.8401  0.1179  1.0770
  628MOL0     H82891   8.055   5.369   4.383  0.9992 -0.7934  0.9403
  628MOL0     H82892   8.055   5.585   4.318 -3.4497 -5.2756  1.8043
  628MOL0     H82893   8.072   5.605   4.488  0.0085 -0.0420 -0.0668
  628MOL0     H82894   8.428   5.789   4.361  1.1093  0.1660  0.7183
  628MOL0     H82895   8.381   5.606   4.015  1.4063  1.9649  1.7751
  628MOL0     H82896   8.632   5.676   3.972  2.2731 -1.3019 -1.5915
  629MOL0     O82897  10.752   3.324  10.369  0.2361  0.1057 -0.4544
  629MOL0     C82898  10.752   3.232  10.454 -0.7268 -0.1762 -1.2553
  629MOL0     O82899  10.643   3.174  10.510 -0.0482  0.6153  0.6316
  629MOL0     C82900  10.513   3.184  10.457 -0.3801  0.2408  1.0595
  629MOL0     C82901  10.453   3.278  10.370  0.2749  0.9251  0.5680
  629MOL0     C82902  10.320   3.282  10.325  0.0645 -0.1045  0.2772
  629MOL0     C82903  10.238   3.183  10.370 -0.7672  0.1483  0.0883
  629MOL0     O82904  10.108   3.191  10.328  0.0579  0.1882  0.2819
  629MOL0     C82905  10.032   3.067  10.313 -0.4524 -0.0472  0.1983
  629MOL0     C82906   9.880   3.098  10.288 -0.1059  0.0803  0.6386
  629MOL0     C82907   9.814   3.128  10.419  0.0665 -0.3613  0.0235
  629MOL0     C82908   9.657   3.145  10.411 -0.7257 -0.6931  0.0497
  629MOL0     C82909   9.593   3.222  10.526  0.1002  0.1230 -1.0764
  629MOL0     C82910   9.452   3.241  10.481 -0.5586  0.2633  0.4349
  629MOL0     C82911   9.346   3.273  10.586 -0.6246 -1.1203 -0.2348
  629MOL0     C82912   9.204   3.298  10.534  0.0099  0.6700 -0.1133
  629MOL0     N82913   9.140   3.170  10.500 -0.1841  0.8123  0.1605
  629MOL0     C82914   9.139   3.114  10.376 -0.2469  0.5558 -0.4798
  629MOL0     C82915   9.067   2.996  10.395  0.4831  0.0137  0.4331
  629MOL0     C82916   9.023   2.888  10.291 -0.4913  0.1093  0.3124
  629MOL0     C82917   8.879   2.920  10.247  1.1177 -0.2205  0.1677
  629MOL0     C82918   8.796   2.808  10.168 -0.2865  0.8015 -0.3630
  629MOL0     C82919   8.645   2.846  10.181 -0.1114  0.0759  0.3260
  629MOL0     O82920   8.592   2.794  10.303  0.0606 -0.5763  0.5934
  629MOL0     C82921   8.466   2.739  10.284 -0.4358 -0.0557  0.9565
  629MOL0     C82922   8.432   2.620  10.355 -0.4656  0.4427  0.9191
  629MOL0     C82923   8.301   2.570  10.354  0.3486  0.2321 -0.1551
  629MOL0     C82924   8.193   2.637  10.302 -0.0580  0.3238  0.4478
  629MOL0     C82925   8.051   2.587  10.308  0.2860  0.0598 -0.1903
  629MOL0     O82926   8.047   2.456  10.323 -0.6748  1.0678 -0.7856
  629MOL0     C82927   7.932   2.392  10.343 -0.1199  1.2714 -0.2651
  629MOL0     C82928   7.921   2.303  10.451 -0.4890  0.3278 -0.8308
  629MOL0     C82929   7.801   2.238  10.499 -0.5581  0.0816 -0.5889
  629MOL0     C82930   7.684   2.261  10.435  0.7555  0.2476  0.0186
  629MOL0     O82931   7.559   2.201  10.466 -0.1814  0.9545  0.7303
  629MOL0     C82932   7.550   2.154  10.600 -0.6329 -0.1375 -0.6138
  629MOL0     C82933   7.421   2.095  10.633 -0.2332 -0.2932 -0.0338
  629MOL0     C82934   7.386   1.971  10.546 -0.2025  0.6247 -0.2723
  629MOL0     C82935   7.245   1.916  10.591 -0.3741  0.7319 -0.3873
  629MOL0     C82936   7.211   1.799  10.497  0.6538  0.8035  0.5164
  629MOL0     C82937   7.066   1.763  10.506  0.0134  0.0068  0.1463
  629MOL0     C82938   7.035   1.667  10.389  0.8572  0.6245 -0.0211
  629MOL0     C82939   6.898   1.614  10.363  0.0347  0.6323 -0.2832
  629MOL0    Cl82940   6.902   1.504  10.219 -0.3281  0.2131  0.0212
  629MOL0     C82941   7.697   2.349  10.320 -0.4872 -0.3206 -0.4277
  629MOL0     C82942   7.812   2.420  10.282  0.5401  0.7093  0.2522
  629MOL0     O82943   7.956   2.669  10.299  0.7865  0.9751 -0.5704
  629MOL0     C82944   8.231   2.759  10.235  0.3740 -0.3896  0.2415
  629MOL0     C82945   8.366   2.809  10.226  0.0869 -0.1618 -0.9086
  629MOL0     N82946   9.028   2.982  10.530 -0.9785 -0.4238 -0.1921
  629MOL0     N82947   9.081   3.083  10.590  0.0733 -0.2739  0.4039
  629MOL0     C82948  10.293   3.085  10.463  0.0311 -0.3648 -0.4781
  629MOL0     C82949  10.424   3.090  10.508 -0.6546 -0.1153  0.0650
  629MOL0     C82950  10.883   3.185  10.503  0.2058 -0.7337 -0.2367
  629MOL0     C82951  11.000   3.206  10.430  0.2996  0.3148  0.5653
  629MOL0     C82952  11.122   3.163  10.478  0.0657 -0.0009 -0.3887
  629MOL0     C82953  11.136   3.080  10.588  0.2539  0.0452  0.1488
  629MOL0     O82954  11.259   3.038  10.614  0.1642 -0.9841 -0.1381
  629MOL0     C82955  11.329   3.124  10.700  0.0427 -0.3452 -0.4575
  629MOL0     C82956  11.480   3.109  10.676  0.6292  0.4579  0.0440
  629MOL0     C82957  11.531   3.188  10.555  0.0510 -0.0150  0.0736
  629MOL0     C82958  11.519   3.336  10.581  0.6144 -0.1679 -0.3108
  629MOL0     C82959  11.574   3.408  10.471  0.2273  0.1745 -0.1767
  629MOL0     C82960  11.634   3.473  10.386  0.1897  0.3963 -0.6636
  629MOL0     C82961  11.022   3.052  10.669 -0.4240  0.1051  0.5053
  629MOL0     C82962  10.899   3.109  10.628  0.2771 -0.3701 -0.5135
  629MOL0     H82963  10.520   3.349  10.323  1.7323 -0.9081 -0.2407
  629MOL0     H82964  10.287   3.355  10.252 -0.2281 -2.9288 -2.6828
  629MOL0     H82965  10.038   3.005  10.403 -1.0573  0.0580  0.3128
  629MOL0     H82966  10.073   3.014  10.226  1.8253 -0.2016  1.2841
  629MOL0     H82967   9.836   3.006  10.249  2.0737 -0.7091 -0.1493
  629MOL0     H82968   9.860   3.183  10.222 -0.3784 -0.0343  0.5721
  629MOL0     H82969   9.862   3.222  10.448  1.4466 -0.8456 -0.5842
  629MOL0     H82970   9.831   3.051  10.495 -1.1085 -0.2990  0.3756
  629MOL0     H82971   9.627   3.191  10.316 -2.7855  1.5483  1.6559
  629MOL0     H82972   9.615   3.045  10.420  0.0694 -1.0090  0.2852
  629MOL0     H82973   9.652   3.313  10.537  1.3495 -0.8554  0.7805
  629MOL0     H82974   9.602   3.172  10.623 -0.6960  2.3802  0.2494
  629MOL0     H82975   9.420   3.159  10.416 -1.3847  1.3528 -0.5988
  629MOL0     H82976   9.449   3.318  10.402  0.6988 -2.2167 -2.2172
  629MOL0     H82977   9.347   3.195  10.663 -1.7674  0.3703  1.3510
  629MOL0     H82978   9.382   3.364  10.635  2.9101 -3.4218  1.8826
  629MOL0     H82979   9.196   3.364  10.447 -0.2969  1.5565  0.5733
  629MOL0     H82980   9.142   3.351  10.607  0.2917  3.2189 -1.6086
  629MOL0     H82981   9.183   3.156  10.286 -0.0500  3.2384  0.7708
  629MOL0     H82982   9.020   2.792  10.342 -1.0299 -0.7039 -1.1775
  629MOL0     H82983   9.088   2.885  10.203 -1.5929  0.8420 -0.5539
  629MOL0     H82984   8.874   3.004  10.177  2.0370 -2.7101 -3.1160
  629MOL0     H82985   8.819   2.937  10.337  0.9528 -0.4818  0.1063
  629MOL0     H82986   8.820   2.798  10.062 -1.1562 -2.5231 -0.3470
  629MOL0     H82987   8.807   2.709  10.214  1.3578  1.4166  0.6948
  629MOL0     H82988   8.606   2.791  10.094 -1.2305 -1.3479  1.6703
  629MOL0     H82989   8.631   2.953  10.160  2.7663  0.5631  0.5183
  629MOL0     H82990   8.514   2.570  10.406  0.4681 -0.6059 -1.4553
  629MOL0     H82991   8.270   2.480  10.405 -1.5761  1.5063  1.0513
  629MOL0     H82992   8.007   2.270  10.509 -1.0136 -1.1914 -0.8727
  629MOL0     H82993   7.805   2.191  10.596 -0.2120  0.7207 -0.2905
  629MOL0     H82994   7.586   2.239  10.659  1.7500  1.6196 -4.2200
  629MOL0     H82995   7.619   2.069  10.604 -0.8719 -0.3430 -0.8591
  629MOL0     H82996   7.340   2.168  10.617 -0.2165 -0.3519 -0.3940
  629MOL0     H82997   7.434   2.065  10.737  0.0188 -1.6731 -0.4526
  629MOL0     H82998   7.464   1.894  10.540  0.0400  0.8818 -0.4759
  629MOL0     H82999   7.374   2.013  10.446  1.0023  0.9451 -0.3079
  629MOL0     H83000   7.251   1.867  10.688  0.9059  0.0500 -0.7872
  629MOL0     H83001   7.163   1.984  10.568 -2.5360 -2.9045 -5.4012
  629MOL0     H83002   7.269   1.711  10.528 -3.1323 -2.5844 -1.1333
  629MOL0     H83003   7.252   1.810  10.396  2.4910  0.6183  1.2085
  629MOL0     H83004   7.002   1.851  10.492  2.3323  1.5995 -1.2949
  629MOL0     H83005   7.053   1.723  10.606  0.6039  0.8599  0.5768
  629MOL0     H83006   7.065   1.726  10.302  1.1801  0.7006  0.1412
  629MOL0     H83007   7.103   1.582  10.392  0.6156  0.3821 -1.0326
  629MOL0     H83008   6.815   1.683  10.347 -0.3279  0.1641 -0.4291
  629MOL0     H83009   6.865   1.563  10.454  3.7802 -0.0782  0.8620
  629MOL0     H83010   7.608   2.371  10.261 -1.5882 -0.0640  1.2706
  629MOL0     H83011   7.795   2.480  10.193  0.8839 -0.7381 -0.8243
  629MOL0     H83012   8.158   2.831  10.199  2.8476  1.5637 -1.1245
  629MOL0     H83013   8.393   2.902  10.179  2.0628  0.1573  0.7275
  629MOL0     H83014  10.225   3.018  10.515 -0.5480 -0.1896 -0.9992
  629MOL0     H83015  10.440   3.019  10.589 -0.7507  3.9698  4.0664
  629MOL0     H83016  11.001   3.260  10.336  3.1501 -3.4942 -1.8953
  629MOL0     H83017  11.206   3.185  10.412 -0.3422  1.4457 -0.4587
  629MOL0     H83018  11.299   3.103  10.803 -2.1430 -2.8899 -1.5108
  629MOL0     H83019  11.292   3.225  10.677  1.2558  0.1227 -0.4307
  629MOL0     H83020  11.523   3.133  10.774 -1.3037  0.2543  0.9900
  629MOL0     H83021  11.509   3.004  10.667  0.5666  0.3740  0.7342
  629MOL0     H83022  11.461   3.173  10.472 -1.0170  0.0996  0.9271
  629MOL0     H83023  11.637   3.172  10.534  0.4137  2.9436 -0.8472
  629MOL0     H83024  11.422   3.382  10.601  0.6743  0.8569 -2.1624
  629MOL0     H83025  11.578   3.379  10.663  0.0249  0.8185 -0.3862
  629MOL0     H83026  11.690   3.533  10.318  2.0698 -0.6135 -0.0603
  629MOL0     H83027  11.024   2.977  10.747 -1.1553  0.3706  0.7931
  629MOL0     H83028  10.809   3.089  10.686  1.8897  0.8622  2.6306
  630MOL0     O83029  10.621   9.266   0.788  0.5717 -0.1098 -0.9625
  630MOL0     C83030  10.617   9.141   0.814  0.0357 -0.0483  0.5977
  630MOL0     O83031  10.506   9.067   0.822  0.4213 -0.9384 -0.5022
  630MOL0     C83032  10.384   9.135   0.820 -0.5269 -0.1096  1.0854
  630MOL0     C83033  10.337   9.225   0.723  0.0982 -0.1003  0.2970
  630MOL0     C83034  10.200   9.266   0.723 -0.5337 -0.1240  0.0812
  630MOL0     C83035  10.111   9.226   0.820  0.0857  0.2222 -0.8586
  630MOL0     O83036   9.979   9.271   0.816 -0.5091  0.1499 -0.0378
  630MOL0     C83037   9.880   9.181   0.872 -0.0376 -0.3739 -0.0284
  630MOL0     C83038   9.749   9.230   0.810 -0.8105  0.3609 -0.1798
  630MOL0     C83039   9.628   9.146   0.879 -0.5354 -0.8440  0.8564
  630MOL0     C83040   9.507   9.164   0.787 -0.0825  0.1716  0.4330
  630MOL0     C83041   9.377   9.147   0.861  0.5465  0.0687  0.0440
  630MOL0     C83042   9.351   9.001   0.905  0.2456  0.4269  0.4337
  630MOL0     C83043   9.204   8.981   0.953  0.0488 -0.0430 -0.6389
  630MOL0     C83044   9.174   8.828   0.953 -0.8485  0.4691 -0.0116
  630MOL0     N83045   9.041   8.780   0.995  1.1207 -0.0486  0.2990
  630MOL0     C83046   9.015   8.648   0.988  0.2401 -0.0766 -0.0015
  630MOL0     C83047   8.906   8.637   1.064  0.8466 -0.0657 -0.5791
  630MOL0     C83048   8.846   8.502   1.083 -0.1484 -0.0642  0.3801
  630MOL0     C83049   8.777   8.464   0.946  0.4312 -0.1601 -0.0139
  630MOL0     C83050   8.713   8.326   0.959  0.0754 -0.3477  0.4346
  630MOL0     C83051   8.585   8.312   0.867  1.2551 -0.1866  0.3550
  630MOL0     O83052   8.497   8.426   0.884 -0.4471  0.2968 -0.0987
  630MOL0     C83053   8.385   8.412   0.964 -0.3394  0.0365  0.1476
  630MOL0     C83054   8.275   8.493   0.938 -0.0046 -0.3209 -0.0571
  630MOL0     C83055   8.153   8.488   1.002  0.1696  1.0743 -0.9443
  630MOL0     C83056   8.142   8.397   1.113 -0.1171  0.5027  0.2247
  630MOL0     C83057   8.024   8.399   1.198 -0.3103 -0.3810 -0.2690
  630MOL0     O83058   7.930   8.492   1.162  0.8799 -0.0399  0.1511
  630MOL0     C83059   7.809   8.504   1.235 -0.1464 -0.2320 -0.1668
  630MOL0     C83060   7.823   8.527   1.374  0.5299  0.4148  0.4078
  630MOL0     C83061   7.705   8.543   1.458 -0.2427 -0.0734 -0.4157
  630MOL0     C83062   7.583   8.512   1.405  0.7312 -0.3695  0.8530
  630MOL0     O83063   7.478   8.552   1.489  0.3365 -0.0089 -0.5588
  630MOL0     C83064   7.346   8.559   1.439 -0.9028  0.6875 -0.2559
  630MOL0     C83065   7.268   8.651   1.533  0.1345  0.6417  0.4344
  630MOL0     C83066   7.109   8.641   1.517 -0.2289 -0.3808  0.5610
  630MOL0     C83067   7.038   8.755   1.595  0.9556 -0.0209  0.1951
  630MOL0     C83068   6.889   8.751   1.600 -0.2752  0.5292 -0.1187
  630MOL0     C83069   6.827   8.829   1.706  0.6582  0.7953  0.4664
  630MOL0     C83070   6.829   8.983   1.668 -0.3833  0.1992  0.1248
  630MOL0     C83071   6.756   9.054   1.780  0.5582 -0.6011 -0.3173
  630MOL0    Cl83072   6.576   9.026   1.764 -0.0270 -0.5983 -0.0483
  630MOL0     C83073   7.572   8.482   1.267  0.0039 -0.2543 -0.2769
  630MOL0     C83074   7.679   8.469   1.191  0.1134  0.2739  0.5000
  630MOL0     O83075   8.015   8.325   1.298 -0.1583 -0.1354 -0.2516
  630MOL0     C83076   8.240   8.304   1.144 -0.2075 -0.1270 -0.3512
  630MOL0     C83077   8.365   8.315   1.070  0.4678 -0.0072 -0.3775
  630MOL0     N83078   8.863   8.754   1.121  0.2246 -0.6042  0.4988
  630MOL0     N83079   8.959   8.844   1.080  0.1317  0.5341  0.1266
  630MOL0     C83080  10.159   9.136   0.920  0.4328  0.4157  0.3837
  630MOL0     C83081  10.293   9.097   0.919 -0.1786  0.0420 -0.5301
  630MOL0     C83082  10.749   9.065   0.810  0.8625  0.1433  0.4700
  630MOL0     C83083  10.866   9.134   0.765  0.1740  0.2721 -0.6972
  630MOL0     C83084  10.995   9.086   0.787  0.4632  0.1910 -0.1143
  630MOL0     C83085  11.015   8.960   0.843 -0.3061  0.5010 -0.2745
  630MOL0     O83086  11.151   8.929   0.847 -0.2786  0.4474  0.4550
  630MOL0     C83087  11.188   8.790   0.875  0.2093  0.0980  0.1944
  630MOL0     C83088  11.340   8.783   0.840  1.1281 -0.4995  1.3396
  630MOL0     C83089  11.423   8.832   0.967  0.5987 -0.0414 -1.5346
  630MOL0     C83090  11.553   8.913   0.927 -0.1233  0.0604  0.4696
  630MOL0     C83091  11.655   8.816   0.879 -0.0879  0.1053  0.6554
  630MOL0     C83092  11.749   8.745   0.839  0.1604 -0.1142 -0.3291
  630MOL0     C83093  10.898   8.886   0.875 -0.1319  0.0413  0.3368
  630MOL0     C83094  10.770   8.939   0.869 -0.4705  0.0579 -0.6312
  630MOL0     H83095  10.399   9.242   0.636 -0.0678 -1.3773 -0.0937
  630MOL0     H83096  10.161   9.327   0.643  0.0017  0.0076 -0.0822
  630MOL0     H83097   9.872   9.201   0.979 -0.9467  2.0617 -0.4937
  630MOL0     H83098   9.901   9.076   0.848 -1.0178 -0.5414 -0.1739
  630MOL0     H83099   9.747   9.206   0.703 -1.3872 -1.3526  0.1914
  630MOL0     H83100   9.739   9.339   0.817  2.0408  0.6591  0.4193
  630MOL0     H83101   9.607   9.180   0.981 -1.2934  1.2351  0.0566
  630MOL0     H83102   9.659   9.042   0.894 -0.9430 -1.4135 -1.6965
  630MOL0     H83103   9.489   9.264   0.748 -0.6741  0.1674  0.6688
  630MOL0     H83104   9.507   9.089   0.707 -0.8098  0.8413 -0.2166
  630MOL0     H83105   9.290   9.174   0.801 -0.6022  0.7708  1.9566
  630MOL0     H83106   9.368   9.209   0.950 -2.7907  1.0261 -0.8264
  630MOL0     H83107   9.421   8.971   0.983 -0.2567  0.0394  0.7390
  630MOL0     H83108   9.360   8.933   0.820 -1.4650 -2.8032  2.6475
  630MOL0     H83109   9.185   9.024   1.052  2.9756 -0.1515  0.0465
  630MOL0     H83110   9.141   9.018   0.872  3.5181  1.5454 -2.8342
  630MOL0     H83111   9.240   8.780   1.026 -1.7450  1.9732  1.9118
  630MOL0     H83112   9.179   8.780   0.855 -2.3999 -1.8297  0.9543
  630MOL0     H83113   9.061   8.571   0.927 -0.7529  0.5929 -1.6788
  630MOL0     H83114   8.782   8.500   1.172 -1.0246  2.6548 -0.0865
  630MOL0     H83115   8.920   8.425   1.102 -1.2907 -1.8632 -2.0009
  630MOL0     H83116   8.845   8.466   0.860  0.6931 -1.9928  0.1179
  630MOL0     H83117   8.702   8.541   0.925 -0.9247 -0.9320  1.7629
  630MOL0     H83118   8.782   8.250   0.923  0.0525  0.2136 -0.8502
  630MOL0     H83119   8.674   8.310   1.060 -2.5900  2.7767  0.0625
  630MOL0     H83120   8.539   8.215   0.886 -0.5429  0.6245  0.3667
  630MOL0     H83121   8.608   8.311   0.760  1.0964  2.1911  0.2369
  630MOL0     H83122   8.271   8.563   0.855 -1.4530 -0.7381 -0.3789
  630MOL0     H83123   8.076   8.560   0.976 -1.1402  0.0765  0.0238
  630MOL0     H83124   7.918   8.555   1.417  0.1682  2.6835 -0.1619
  630MOL0     H83125   7.707   8.574   1.562 -0.6821 -1.8547  0.1676
  630MOL0     H83126   7.321   8.454   1.424 -1.0570  0.9698 -2.3069
  630MOL0     H83127   7.326   8.595   1.337 -1.4211  2.6504  0.5016
  630MOL0     H83128   7.298   8.755   1.517 -1.9330  0.9914 -1.7968
  630MOL0     H83129   7.306   8.616   1.629  3.1223  2.6130  0.1191
  630MOL0     H83130   7.077   8.541   1.550  0.6216 -0.2829  1.7827
  630MOL0     H83131   7.092   8.666   1.413  3.3817  2.7767  0.4980
  630MOL0     H83132   7.072   8.749   1.699  1.7429 -0.5475 -0.0853
  630MOL0     H83133   7.076   8.852   1.560  1.9664 -0.5506 -0.2091
  630MOL0     H83134   6.854   8.649   1.619  0.8572  0.1553  0.0533
  630MOL0     H83135   6.843   8.781   1.505 -2.1266 -0.4985  0.4010
  630MOL0     H83136   6.866   8.810   1.806  1.3910 -2.6536 -0.3617
  630MOL0     H83137   6.721   8.803   1.711  0.6385 -0.3955 -3.2328
  630MOL0     H83138   6.932   9.019   1.665 -0.6380  0.9317 -1.8311
  630MOL0     H83139   6.786   8.990   1.567  1.1265  0.2878 -0.5283
  630MOL0     H83140   6.773   9.161   1.765  3.9048 -1.1446 -1.3771
  630MOL0     H83141   6.801   9.025   1.876 -1.6719  0.8634  1.2686
  630MOL0     H83142   7.479   8.447   1.222  0.4814 -0.3653 -1.2058
  630MOL0     H83143   7.671   8.427   1.091 -1.2299  1.8630 -0.0964
  630MOL0     H83144   8.232   8.238   1.230 -1.3604  0.4506  0.0049
  630MOL0     H83145   8.443   8.246   1.100  0.6725  0.0705 -0.7292
  630MOL0     H83146  10.094   9.084   0.990  1.5560 -1.6589 -0.0525
  630MOL0     H83147  10.333   9.030   0.995  0.0819  2.9571  2.0902
  630MOL0     H83148  10.845   9.237   0.737  1.0255  0.6843  0.1249
  630MOL0     H83149  11.080   9.152   0.772 -0.3928  1.5260  0.6497
  630MOL0     H83150  11.134   8.731   0.801 -2.0724  1.4024  0.7319
  630MOL0     H83151  11.169   8.756   0.977 -0.7766 -0.3090 -0.1168
  630MOL0     H83152  11.369   8.680   0.817  0.0597 -0.2376 -1.6597
  630MOL0     H83153  11.359   8.837   0.746 -0.1774 -1.2605  0.5974
  630MOL0     H83154  11.445   8.745   1.029  2.0393  1.7989  0.6916
  630MOL0     H83155  11.364   8.903   1.024 -0.4898 -0.1231 -2.5189
  630MOL0     H83156  11.533   8.979   0.843  4.6886 -0.7275 -1.5931
  630MOL0     H83157  11.588   8.975   1.010  0.6327 -0.2170  0.3677
  630MOL0     H83158  11.829   8.690   0.793 -0.0180 -1.5618  1.0254
  630MOL0     H83159  10.909   8.785   0.914 -0.1572 -0.2232 -0.3279
  630MOL0     H83160  10.689   8.882   0.913 -1.9160  2.9296  0.7448
  631MOL0     O83161   1.980   0.178  10.048 -0.8584 -0.3669  0.2387
  631MOL0     C83162   2.025   0.261   9.967  0.0731 -0.2553  0.1018
  631MOL0     O83163   1.944   0.340   9.885 -0.3631 -0.5837 -0.1388
  631MOL0     C83164   1.809   0.343   9.908  0.2934 -0.2247  0.0431
  631MOL0     C83165   1.729   0.228   9.883 -0.6956  0.8842  0.0452
  631MOL0     C83166   1.590   0.239   9.898  0.2395 -0.2888 -1.0667
  631MOL0     C83167   1.535   0.358   9.942  0.5199 -0.2670 -0.0539
  631MOL0     O83168   1.396   0.358   9.969 -0.8749 -0.0789 -0.5432
  631MOL0     C83169   1.320   0.473   9.923  0.5908  0.4258  0.4051
  631MOL0     C83170   1.196   0.420   9.859  0.5804 -0.5931  0.2628
  631MOL0     C83171   1.103   0.538   9.823 -0.8309 -0.9070  0.7473
  631MOL0     C83172   0.954   0.497   9.855  0.0992 -0.4974  0.4337
  631MOL0     C83173   0.861   0.617   9.875  0.3866 -0.2200 -0.4063
  631MOL0     C83174   0.712   0.576   9.843 -0.4609  0.3852  0.2737
  631MOL0     C83175   0.602   0.680   9.862 -0.2764 -0.5541 -0.5434
  631MOL0     C83176   0.578   0.711  10.017  0.6074  0.4654  0.2946
  631MOL0     N83177   0.439   0.681  10.060  0.1125 -0.5481  0.3218
  631MOL0     C83178   0.329   0.738  10.016 -0.4752 -0.2585  0.2366
  631MOL0     C83179   0.224   0.713  10.099 -0.4190  0.5208 -0.1731
  631MOL0     C83180   0.088   0.762  10.089 -0.2820 -0.0677 -0.2693
  631MOL0     C83181   0.042   0.850  10.201  0.1861 -0.5580 -0.3013
  631MOL0     C83182  -0.069   0.953  10.163  0.3453  1.0924  0.0331
  631MOL0     C83183  -0.174   0.871  10.076  0.2870  0.1715 -0.0116
  631MOL0     O83184  -0.302   0.934  10.089 -0.2812 -0.5895 -0.3364
  631MOL0     C83185  -0.406   0.880  10.023 -0.2542 -0.5584 -0.3706
  631MOL0     C83186  -0.522   0.961  10.017 -0.7122 -0.3797  0.1035
  631MOL0     C83187  -0.644   0.916   9.961 -1.3375  0.4490 -0.1100
  631MOL0     C83188  -0.642   0.794   9.894 -0.4165  0.1914 -0.6562
  631MOL0     C83189  -0.759   0.752   9.823  0.1222  0.4934  0.0342
  631MOL0     O83190  -0.743   0.630   9.759 -0.3569  0.1691 -0.0283
  631MOL0     C83191  -0.837   0.582   9.667  0.3516  0.2107 -0.0102
  631MOL0     C83192  -0.975   0.592   9.698  0.4689 -0.4685  0.5484
  631MOL0     C83193  -1.065   0.559   9.600 -0.1329  0.1126 -0.3435
  631MOL0     C83194  -1.023   0.505   9.474  0.3499 -0.9576 -0.1206
  631MOL0     O83195  -1.122   0.488   9.380  0.6998 -0.2805 -0.3503
  631MOL0     C83196  -1.223   0.385   9.392 -0.8420 -0.5659 -0.0548
  631MOL0     C83197  -1.136   0.259   9.344 -0.2933 -0.8240 -0.3394
  631MOL0     C83198  -1.074   0.271   9.211 -0.2489 -0.2463  0.3993
  631MOL0     C83199  -1.174   0.291   9.096  0.7434 -0.7629  0.3740
  631MOL0     C83200  -1.091   0.320   8.966 -0.4897 -0.1117  0.0143
  631MOL0     C83201  -1.188   0.334   8.854  0.2410 -0.1906  0.6942
  631MOL0     C83202  -1.306   0.435   8.860  1.0709  0.9799  0.8461
  631MOL0     C83203  -1.317   0.502   8.719  0.4235  0.4831  0.4360
  631MOL0    Cl83204  -1.451   0.613   8.739  0.0056 -0.0334  0.0644
  631MOL0     C83205  -0.888   0.494   9.444  0.6427  0.0325  0.0268
  631MOL0     C83206  -0.796   0.534   9.540  0.1713  0.5036 -1.0073
  631MOL0     O83207  -0.859   0.826   9.825 -0.7464 -0.5149 -0.5529
  631MOL0     C83208  -0.514   0.725   9.874 -0.4558 -0.1457  1.0624
  631MOL0     C83209  -0.403   0.767   9.944  0.1541 -0.3990  0.3123
  631MOL0     N83210   0.279   0.637  10.201  1.2692 -0.2796  0.1975
  631MOL0     N83211   0.409   0.631  10.183 -0.2012 -0.0473  0.2122
  631MOL0     C83212   1.615   0.471   9.972  0.3540  0.1327  1.1089
  631MOL0     C83213   1.750   0.463   9.945 -0.2148 -0.3355 -0.4978
  631MOL0     C83214   2.163   0.311   9.994  0.2106 -0.3370  0.0864
  631MOL0     C83215   2.214   0.436   9.955  0.5017  0.0377  0.0038
  631MOL0     C83216   2.341   0.481   9.978  0.1284 -0.1555  0.6740
  631MOL0     C83217   2.429   0.404  10.053  0.0791 -0.0391 -0.2138
  631MOL0     O83218   2.551   0.458  10.084  0.0414  0.1173  0.2229
  631MOL0     C83219   2.638   0.394  10.185 -0.8447  0.3184 -0.5289
  631MOL0     C83220   2.756   0.476  10.236 -0.3656  0.3590  0.4277
  631MOL0     C83221   2.839   0.516  10.105  0.7362  0.9236 -0.9230
  631MOL0     C83222   2.982   0.578  10.134 -0.2857  0.6950 -0.2108
  631MOL0     C83223   3.082   0.474  10.143  0.0702  0.4288  0.5452
  631MOL0     C83224   3.165   0.389  10.155  0.2829 -0.2449  0.9163
  631MOL0     C83225   2.383   0.271  10.092  0.6188  0.0139  0.3367
  631MOL0     C83226   2.254   0.227  10.059  0.7300  0.7710 -0.8016
  631MOL0     H83227   1.758   0.126   9.860 -0.4619  1.2617 -1.4462
  631MOL0     H83228   1.524   0.153   9.898 -0.8150  0.4836  0.6824
  631MOL0     H83229   1.376   0.533   9.851 -0.2027  2.5035  1.4396
  631MOL0     H83230   1.286   0.535  10.007  1.4862 -0.0630  1.1430
  631MOL0     H83231   1.151   0.353   9.932 -0.3949 -0.0873  0.1421
  631MOL0     H83232   1.227   0.362   9.771 -0.8233  0.0431 -0.6802
  631MOL0     H83233   1.118   0.565   9.718  0.7302 -1.9556  0.6530
  631MOL0     H83234   1.126   0.626   9.883  1.3097 -1.1241  0.3274
  631MOL0     H83235   0.919   0.423   9.783 -3.7508  1.3176  0.1932
  631MOL0     H83236   0.952   0.438   9.947 -0.3591  0.1421  0.8418
  631MOL0     H83237   0.880   0.698   9.805 -4.0592  0.1155 -1.5242
  631MOL0     H83238   0.861   0.655   9.977 -0.6047 -0.8519 -0.1532
  631MOL0     H83239   0.685   0.493   9.910 -0.7307  0.7083  0.5689
  631MOL0     H83240   0.716   0.538   9.741 -0.1292 -1.0290  0.7878
  631MOL0     H83241   0.635   0.768   9.806 -1.5516  0.5854  0.4242
  631MOL0     H83242   0.506   0.655   9.816 -0.7447  1.0130 -0.4798
  631MOL0     H83243   0.578   0.819  10.034  1.0150 -0.1345  6.4155
  631MOL0     H83244   0.649   0.652  10.076  0.8331 -0.1183 -0.5463
  631MOL0     H83245   0.327   0.801   9.927  1.3748 -0.1831  0.2175
  631MOL0     H83246   0.029   0.671  10.077  1.2451 -1.0065 -0.9448
  631MOL0     H83247   0.092   0.822   9.998  1.7735 -2.2187 -1.7210
  631MOL0     H83248   0.133   0.891  10.247  0.8110  0.4606 -2.3227
  631MOL0     H83249  -0.006   0.784  10.273 -0.6665 -0.0946 -0.4385
  631MOL0     H83250  -0.127   0.992  10.247 -2.0517 -1.8657 -0.0270
  631MOL0     H83251  -0.031   1.030  10.096  1.9784 -2.8861 -4.1601
  631MOL0     H83252  -0.171   0.768  10.111  4.9140  0.7665  2.1914
  631MOL0     H83253  -0.134   0.884   9.974  2.5955 -1.2575  0.6334
  631MOL0     H83254  -0.514   1.064  10.051 -0.7299 -0.1767 -0.4940
  631MOL0     H83255  -0.738   0.970   9.961 -0.4600  2.1003 -2.1779
  631MOL0     H83256  -1.017   0.630   9.790 -2.8297 -2.9842  0.2608
  631MOL0     H83257  -1.169   0.560   9.630 -0.2216  1.1461 -0.6552
  631MOL0     H83258  -1.307   0.406   9.326 -1.3106 -0.9701  0.4056
  631MOL0     H83259  -1.257   0.362   9.493 -0.0424 -0.0901  0.3334
  631MOL0     H83260  -1.208   0.177   9.343  1.6455 -2.6080 -0.4829
  631MOL0     H83261  -1.063   0.241   9.423 -0.4293  3.3709  0.9499
  631MOL0     H83262  -1.017   0.181   9.189  1.2710  1.6138 -4.8732
  631MOL0     H83263  -1.005   0.356   9.212  0.3307 -0.6565 -1.3343
  631MOL0     H83264  -1.230   0.199   9.079 -1.3569  0.3332  1.0245
  631MOL0     H83265  -1.257   0.360   9.115  1.5120  0.5898 -0.9090
  631MOL0     H83266  -1.013   0.244   8.958 -0.3880  0.0985 -1.1981
  631MOL0     H83267  -1.041   0.417   8.971 -1.4967  0.6290 -2.6995
  631MOL0     H83268  -1.226   0.232   8.840  1.1665 -0.3557 -0.9639
  631MOL0     H83269  -1.143   0.346   8.755  2.5245 -4.2460  1.0138
  631MOL0     H83270  -1.399   0.383   8.887  1.4962  0.3834  1.1896
  631MOL0     H83271  -1.289   0.514   8.933  0.5155 -0.3927  2.5430
  631MOL0     H83272  -1.326   0.435   8.633 -1.7758  0.0433  0.9418
  631MOL0     H83273  -1.223   0.555   8.702 -0.4349  2.4277  1.4321
  631MOL0     H83274  -0.865   0.461   9.343 -3.5214 -1.3333 -0.6445
  631MOL0     H83275  -0.689   0.515   9.531  0.5362  0.8859  1.6818
  631MOL0     H83276  -0.521   0.637   9.811 -1.5935  0.7555 -0.1320
  631MOL0     H83277  -0.314   0.705   9.934 -0.5998 -1.1926 -2.1785
  631MOL0     H83278   1.561   0.560  10.000 -1.3059  0.5665 -2.8534
  631MOL0     H83279   1.806   0.554   9.964 -0.0561 -0.2138 -1.4892
  631MOL0     H83280   2.128   0.498   9.931 -2.0946 -2.0463  2.9427
  631MOL0     H83281   2.357   0.588   9.966 -3.0764  0.3213 -0.2223
  631MOL0     H83282   2.685   0.308  10.137 -1.1685 -0.1870  0.0488
  631MOL0     H83283   2.582   0.363  10.273  0.4651  2.4630  1.1754
  631MOL0     H83284   2.730   0.571  10.285  0.2701  0.8893 -0.2347
  631MOL0     H83285   2.816   0.422  10.309 -1.9188 -2.5012 -0.2741
  631MOL0     H83286   2.781   0.592  10.053 -0.2291 -0.2358 -1.5835
  631MOL0     H83287   2.854   0.432  10.036  2.7138  0.9394 -0.5919
  631MOL0     H83288   3.005   0.655  10.059 -5.2784  1.8637 -0.9060
  631MOL0     H83289   2.977   0.635  10.228  1.2194  0.8148 -0.1909
  631MOL0     H83290   3.236   0.312  10.179 -0.8630 -0.9409  2.1664
  631MOL0     H83291   2.451   0.197  10.131  2.4170  0.9925 -0.7679
  631MOL0     H83292   2.216   0.138  10.107 -1.5658  0.0008 -3.7190
  632MOL0     O83293   1.765   8.751   4.626 -0.2618 -0.1887  0.6107
  632MOL0     C83294   1.800   8.686   4.722 -1.0204 -0.7779 -0.8958
  632MOL0     O83295   1.723   8.638   4.823  0.1117 -0.2319 -0.4275
  632MOL0     C83296   1.588   8.639   4.809  0.4662  0.6253 -0.7754
  632MOL0     C83297   1.516   8.758   4.781  0.4124 -1.1641 -0.2725
  632MOL0     C83298   1.378   8.752   4.747 -0.4275  0.6107  0.5183
  632MOL0     C83299   1.308   8.632   4.748 -1.0227  0.6585 -0.9288
  632MOL0     O83300   1.176   8.633   4.709  0.3051  0.1112  0.4262
  632MOL0     C83301   1.092   8.518   4.712  0.0564 -0.2539  0.3938
  632MOL0     C83302   0.963   8.553   4.650  0.1420 -0.0890  0.6088
  632MOL0     C83303   0.980   8.577   4.503 -0.4441  0.4417 -0.3732
  632MOL0     C83304   0.844   8.554   4.428 -0.0903 -0.3462 -1.0173
  632MOL0     C83305   0.862   8.580   4.279  0.6762  0.4230  0.9006
  632MOL0     C83306   0.735   8.552   4.211  0.1461 -0.0857 -0.3830
  632MOL0     C83307   0.743   8.589   4.059  0.0238 -0.6339 -0.2823
  632MOL0     C83308   0.609   8.570   3.992  0.8798  0.5069  0.4504
  632MOL0     N83309   0.611   8.621   3.862  0.5935 -0.2897  0.8554
  632MOL0     C83310   0.703   8.592   3.766  0.6427  0.0251  0.4792
  632MOL0     C83311   0.662   8.673   3.663 -0.5583 -0.8398  0.1466
  632MOL0     C83312   0.719   8.684   3.523 -0.7525 -0.4958  0.8773
  632MOL0     C83313   0.623   8.638   3.415 -0.7953 -0.4190  0.0621
  632MOL0     C83314   0.578   8.491   3.418 -0.4594 -0.4972  0.5413
  632MOL0     C83315   0.484   8.457   3.303 -0.2645 -1.0052  0.5350
  632MOL0     O83316   0.391   8.361   3.347 -1.3648 -0.1751  0.4255
  632MOL0     C83317   0.275   8.359   3.271 -0.3059  0.6799  1.3583
  632MOL0     C83318   0.151   8.351   3.337 -0.1955  0.5140 -0.5576
  632MOL0     C83319   0.034   8.325   3.275  0.7307 -0.3773 -0.8883
  632MOL0     C83320   0.036   8.302   3.133  0.7390  0.4014 -0.5441
  632MOL0     C83321  -0.089   8.275   3.057  0.8229 -0.0414  0.2389
  632MOL0     O83322  -0.210   8.259   3.123 -0.1985 -0.1256 -0.2968
  632MOL0     C83323  -0.328   8.196   3.088 -0.4444  0.0871  0.3507
  632MOL0     C83324  -0.323   8.097   2.985  0.1468  0.5348  0.5804
  632MOL0     C83325  -0.430   8.017   2.959  0.1502  0.3504  0.3194
  632MOL0     C83326  -0.557   8.044   3.022  0.2324 -0.2297  0.2031
  632MOL0     O83327  -0.671   7.967   2.998  0.0764 -0.3521  0.6499
  632MOL0     C83328  -0.693   7.893   2.880 -0.1211  0.1283 -0.1599
  632MOL0     C83329  -0.832   7.916   2.839 -0.2451 -0.9061 -0.3533
  632MOL0     C83330  -0.943   7.885   2.945 -0.2593  0.4572  0.1635
  632MOL0     C83331  -1.058   7.976   2.912  0.1617 -0.7615 -0.2509
  632MOL0     C83332  -1.183   7.940   2.998 -0.0036  0.4432  0.3382
  632MOL0     C83333  -1.322   7.996   2.954 -1.1540 -0.5655 -0.0406
  632MOL0     C83334  -1.428   7.920   3.033 -0.0597  0.5068 -0.2596
  632MOL0     C83335  -1.566   7.984   3.031 -0.5082  0.3262 -0.4303
  632MOL0    Cl83336  -1.689   7.872   3.115  0.0631  0.0478  0.1919
  632MOL0     C83337  -0.558   8.158   3.110  0.4471  0.6568 -0.7611
  632MOL0     C83338  -0.444   8.228   3.143  0.3687  0.1056  0.1283
  632MOL0     O83339  -0.075   8.251   2.939 -0.0549  0.3477 -0.2685
  632MOL0     C83340   0.164   8.300   3.071  0.2100  0.6876  0.3099
  632MOL0     C83341   0.280   8.338   3.135  0.8166 -0.1982 -0.3274
  632MOL0     N83342   0.549   8.746   3.701  0.0730 -0.2657 -0.1914
  632MOL0     N83343   0.522   8.715   3.823 -0.4160  0.2443 -0.0772
  632MOL0     C83344   1.380   8.518   4.781 -0.0293  0.2054 -0.5155
  632MOL0     C83345   1.515   8.521   4.816  0.0275  0.1414 -0.5753
  632MOL0     C83346   1.943   8.650   4.738  0.5998  0.6000 -0.6709
  632MOL0     C83347   2.042   8.735   4.693 -0.3369 -0.0945  1.2723
  632MOL0     C83348   2.185   8.724   4.710 -0.0973  0.6265 -0.1877
  632MOL0     C83349   2.228   8.608   4.780 -0.5528 -0.0136 -0.1100
  632MOL0     O83350   2.351   8.582   4.826  0.1796 -0.3093  0.4239
  632MOL0     C83351   2.462   8.680   4.797  0.1181  0.8626 -0.7715
  632MOL0     C83352   2.541   8.680   4.925  1.0289  0.4174  0.5229
  632MOL0     C83353   2.470   8.740   5.046  0.3157  0.4823  0.5368
  632MOL0     C83354   2.435   8.892   5.031 -0.9995  0.6807  0.0301
  632MOL0     C83355   2.564   8.966   5.028 -0.2394  0.4278 -0.1330
  632MOL0     C83356   2.669   9.027   5.020 -0.1664  0.2995  0.3898
  632MOL0     C83357   2.132   8.523   4.824  0.3131 -0.1641 -0.1327
  632MOL0     C83358   1.999   8.539   4.804  0.4290 -0.7467 -0.3696
  632MOL0     H83359   1.577   8.846   4.762  2.0101 -2.2732 -0.4652
  632MOL0     H83360   1.333   8.843   4.709 -0.6574  0.0285 -0.6373
  632MOL0     H83361   1.076   8.489   4.817 -2.8500 -2.7911 -0.6064
  632MOL0     H83362   1.140   8.426   4.676  1.5499 -0.7137  3.2447
  632MOL0     H83363   0.919   8.643   4.692 -1.3000 -0.0508 -0.8726
  632MOL0     H83364   0.896   8.466   4.653  0.5796 -0.6461 -2.2820
  632MOL0     H83365   1.051   8.503   4.464  0.7192  2.3802 -2.1513
  632MOL0     H83366   1.021   8.678   4.493 -0.4111  0.2719 -2.3769
  632MOL0     H83367   0.807   8.452   4.440 -2.1849 -0.4007 -5.6331
  632MOL0     H83368   0.761   8.617   4.463 -1.0897 -1.6744 -0.9073
  632MOL0     H83369   0.932   8.505   4.242  0.5354 -0.6462  2.6581
  632MOL0     H83370   0.887   8.685   4.262 -0.7483  0.8410  1.1907
  632MOL0     H83371   0.656   8.608   4.262 -0.0466 -1.0555  0.4129
  632MOL0     H83372   0.722   8.444   4.226  0.4826 -0.1667 -0.6723
  632MOL0     H83373   0.769   8.695   4.062 -0.6436 -0.4705 -0.2031
  632MOL0     H83374   0.816   8.529   4.004 -0.0586 -0.7742 -0.2401
  632MOL0     H83375   0.533   8.617   4.055 -0.8166 -2.9563  1.2236
  632MOL0     H83376   0.593   8.463   3.974 -2.4680  0.8951  0.3942
  632MOL0     H83377   0.783   8.519   3.771 -0.2819 -1.0180  0.5853
  632MOL0     H83378   0.798   8.611   3.504  0.1682  0.6254  0.2850
  632MOL0     H83379   0.749   8.786   3.499 -0.4309 -0.9471 -0.7570
  632MOL0     H83380   0.658   8.661   3.314 -1.0481 -1.0242 -0.1667
  632MOL0     H83381   0.536   8.704   3.421 -0.7098  0.0863 -2.7638
  632MOL0     H83382   0.669   8.433   3.402  1.1118  1.3869  2.1545
  632MOL0     H83383   0.525   8.469   3.511 -2.3043 -0.5968 -0.4868
  632MOL0     H83384   0.533   8.438   3.207 -1.4745  3.5416 -1.2743
  632MOL0     H83385   0.429   8.550   3.285  1.7614 -0.0602 -1.2488
  632MOL0     H83386   0.156   8.359   3.446 -3.8878 -0.9444 -0.1174
  632MOL0     H83387  -0.056   8.318   3.334  0.6298 -0.5145 -1.0592
  632MOL0     H83388  -0.229   8.070   2.938 -0.3755 -1.5934  0.6541
  632MOL0     H83389  -0.427   7.939   2.884  2.3894  2.3065 -1.7835
  632MOL0     H83390  -0.676   7.787   2.903  0.2637  0.3860  0.7906
  632MOL0     H83391  -0.625   7.913   2.797 -1.4043 -0.3230 -1.3453
  632MOL0     H83392  -0.862   7.853   2.755 -2.0982 -1.4418  0.6356
  632MOL0     H83393  -0.850   8.019   2.806 -0.0100 -0.1580  1.7048
  632MOL0     H83394  -0.895   7.908   3.041  2.2610  0.4221 -0.9868
  632MOL0     H83395  -0.975   7.781   2.950  1.4738 -0.1013  0.2658
  632MOL0     H83396  -1.037   8.082   2.930  1.2554 -0.8952 -0.6681
  632MOL0     H83397  -1.092   7.968   2.808  1.7020 -0.9029 -0.7658
  632MOL0     H83398  -1.163   7.968   3.102  0.8424  1.1233  0.0005
  632MOL0     H83399  -1.188   7.831   2.987 -1.6276  0.5700 -0.4659
  632MOL0     H83400  -1.332   7.974   2.847  1.1278  1.3321 -0.7325
  632MOL0     H83401  -1.331   8.101   2.982 -1.8985 -0.4134 -0.8265
  632MOL0     H83402  -1.430   7.813   3.010  1.2120 -0.6383  4.0771
  632MOL0     H83403  -1.410   7.921   3.141 -0.5732 -1.4107 -0.1060
  632MOL0     H83404  -1.585   7.997   2.924  2.0932 -3.2423 -1.4923
  632MOL0     H83405  -1.544   8.081   3.077  2.1257  0.2392 -1.3597
  632MOL0     H83406  -0.657   8.189   3.143 -1.0157 -2.7930 -1.3856
  632MOL0     H83407  -0.451   8.300   3.224  1.2723 -1.4159  1.6222
  632MOL0     H83408   0.181   8.281   2.965 -3.7956 -1.3078 -0.1915
  632MOL0     H83409   0.370   8.328   3.076  0.1840 -0.9849 -1.1925
  632MOL0     H83410   1.328   8.423   4.774  0.5063 -0.0334 -1.4279
  632MOL0     H83411   1.562   8.428   4.848 -0.6632 -0.4455 -1.2076
  632MOL0     H83412   2.014   8.812   4.623  0.1759 -1.6522 -0.7550
  632MOL0     H83413   2.239   8.796   4.649 -1.0674  2.2067  0.7463
  632MOL0     H83414   2.419   8.781   4.787 -1.4172  0.3517  0.2106
  632MOL0     H83415   2.517   8.644   4.710 -0.1462 -5.4331  1.2097
  632MOL0     H83416   2.562   8.579   4.964  1.7372 -0.2376 -1.4506
  632MOL0     H83417   2.632   8.731   4.894  0.4502  1.0425 -0.1738
  632MOL0     H83418   2.534   8.729   5.134 -0.2552 -3.2351  0.6256
  632MOL0     H83419   2.376   8.690   5.071 -1.4449  3.6060  0.7740
  632MOL0     H83420   2.379   8.918   4.941  0.9927 -0.5290 -1.6464
  632MOL0     H83421   2.371   8.926   5.113  1.6512  0.6037  2.3081
  632MOL0     H83422   2.763   9.070   4.990  0.0424 -0.2351  0.2689
  632MOL0     H83423   2.158   8.434   4.879  1.4953 -0.4876 -1.1836
  632MOL0     H83424   1.920   8.471   4.833 -0.2673  0.7992  1.5547
  633MOL0     O83425   3.924   7.573   6.924  0.1054 -0.5048  1.3707
  633MOL0     C83426   3.980   7.533   7.028  0.3440  0.8306 -0.3157
  633MOL0     O83427   3.933   7.560   7.154  0.3036  0.1368  0.0403
  633MOL0     C83428   3.808   7.603   7.171 -0.0320  0.1881 -0.4952
  633MOL0     C83429   3.779   7.718   7.249  0.5296  0.0893 -0.7507
  633MOL0     C83430   3.640   7.749   7.279  0.3367 -0.6402 -0.0848
  633MOL0     C83431   3.540   7.657   7.249  0.2498  0.0921  0.1720
  633MOL0     O83432   3.406   7.677   7.272  0.6985  0.0670  0.3702
  633MOL0     C83433   3.370   7.785   7.363 -0.0118 -0.4136  1.0940
  633MOL0     C83434   3.215   7.817   7.368  0.0686  0.2575  0.0142
  633MOL0     C83435   3.128   7.694   7.388 -0.0344  0.9196  1.1652
  633MOL0     C83436   2.987   7.743   7.430 -0.7762 -0.4641 -0.2973
  633MOL0     C83437   2.899   7.637   7.477  0.4262  0.9017  0.6179
  633MOL0     C83438   2.751   7.675   7.512  0.0112  0.8595  0.1146
  633MOL0     C83439   2.738   7.815   7.571  0.1628 -0.1579  0.5146
  633MOL0     C83440   2.597   7.833   7.640 -0.1739  1.1207 -0.1188
  633MOL0     N83441   2.483   7.820   7.550 -0.9847  0.9463  0.5373
  633MOL0     C83442   2.461   7.889   7.427  0.3141  0.5335 -0.4495
  633MOL0     C83443   2.351   7.827   7.370 -0.3299  0.2330  0.7142
  633MOL0     C83444   2.301   7.861   7.233  0.4965  0.5755  0.1837
  633MOL0     C83445   2.155   7.815   7.200 -1.0898  0.2608 -0.1406
  633MOL0     C83446   2.104   7.887   7.075 -0.1110 -0.0674  0.0751
  633MOL0     C83447   1.965   7.850   7.035 -0.1867  0.1133  0.2445
  633MOL0     O83448   1.982   7.738   6.948 -0.3203 -0.1397  0.3592
  633MOL0     C83449   1.859   7.677   6.908 -0.3358  0.0683  0.3752
  633MOL0     C83450   1.847   7.550   6.867 -1.5274  0.1326  0.6090
  633MOL0     C83451   1.726   7.491   6.819 -0.2425  0.6740  0.0231
  633MOL0     C83452   1.612   7.569   6.824  0.9210  0.2613  0.8925
  633MOL0     C83453   1.483   7.517   6.768 -0.7996 -0.1282  0.6994
  633MOL0     O83454   1.370   7.608   6.778 -0.4264  0.1050  0.2073
  633MOL0     C83455   1.246   7.554   6.749 -0.4444 -1.0190  0.0148
  633MOL0     C83456   1.205   7.442   6.813 -0.1244 -0.4198 -0.7038
  633MOL0     C83457   1.079   7.384   6.788 -0.2605 -0.1572  0.4014
  633MOL0     C83458   0.995   7.446   6.698  0.6245  0.2478 -0.1680
  633MOL0     O83459   0.873   7.385   6.668  0.4427  0.8221 -0.3270
  633MOL0     C83460   0.828   7.382   6.537 -0.8746 -0.0827  0.1696
  633MOL0     C83461   0.702   7.299   6.519 -0.8252 -0.3495  0.4390
  633MOL0     C83462   0.666   7.301   6.363 -0.2240 -0.2306  0.1606
  633MOL0     C83463   0.522   7.245   6.320  0.5948  0.5448 -0.2355
  633MOL0     C83464   0.405   7.328   6.369  0.1339  0.3439 -0.3113
  633MOL0     C83465   0.290   7.291   6.266  0.2886  0.2120 -0.9020
  633MOL0     C83466   0.167   7.375   6.290 -0.6654 -0.0559  0.0889
  633MOL0     C83467   0.098   7.386   6.428  0.2557  0.1455 -0.6326
  633MOL0    Cl83468   0.009   7.242   6.479 -0.0808 -0.4610  0.1513
  633MOL0     C83469   1.049   7.555   6.620  0.5103 -0.1140  0.2599
  633MOL0     C83470   1.165   7.617   6.658 -0.4795  0.3917 -0.9125
  633MOL0     O83471   1.479   7.408   6.725 -0.3389  0.1849  0.3384
  633MOL0     C83472   1.619   7.700   6.882 -0.0518  0.3505  0.6266
  633MOL0     C83473   1.735   7.750   6.925  0.2700  0.0179 -0.5814
  633MOL0     N83474   2.306   7.732   7.463 -0.1079  0.4620  0.7119
  633MOL0     N83475   2.387   7.721   7.564  0.1659 -0.2533 -0.4532
  633MOL0     C83476   3.575   7.545   7.180  0.8550 -0.4466  1.2961
  633MOL0     C83477   3.702   7.526   7.126  0.2027 -0.6362 -0.5434
  633MOL0     C83478   4.114   7.490   7.009 -0.5158  0.2507 -0.8677
  633MOL0     C83479   4.169   7.462   6.880 -0.3869 -0.3686 -0.8375
  633MOL0     C83480   4.298   7.423   6.866 -0.1667  0.3890  0.6822
  633MOL0     C83481   4.368   7.383   6.979 -0.4871  0.1036  0.1039
  633MOL0     O83482   4.489   7.318   6.959  0.0668  0.1452  0.1400
  633MOL0     C83483   4.482   7.180   7.000 -0.0610  0.1619  0.4595
  633MOL0     C83484   4.572   7.108   6.905  0.6477 -0.0206 -0.7240
  633MOL0     C83485   4.721   7.131   6.918 -0.3414  0.0997 -0.4806
  633MOL0     C83486   4.789   7.044   6.813 -0.0044 -0.0765  0.5103
  633MOL0     C83487   4.927   7.078   6.815 -0.3319  0.1938  0.1896
  633MOL0     C83488   5.040   7.093   6.840  0.1389 -1.4945  0.0467
  633MOL0     C83489   4.313   7.403   7.100 -0.4584 -0.0583 -0.5775
  633MOL0     C83490   4.188   7.455   7.120  0.5787 -0.2461 -0.0073
  633MOL0     H83491   3.861   7.775   7.291 -2.8039  3.6222  1.7205
  633MOL0     H83492   3.623   7.845   7.326 -0.9606 -1.4203  1.1129
  633MOL0     H83493   3.411   7.875   7.316 -1.0516 -0.6908 -0.4449
  633MOL0     H83494   3.411   7.765   7.462  0.1207 -2.5493  0.6570
  633MOL0     H83495   3.179   7.869   7.278  1.6895 -1.1795 -1.5537
  633MOL0     H83496   3.201   7.885   7.452  2.5214 -0.3350  1.0029
  633MOL0     H83497   3.160   7.632   7.472 -1.6602  4.2055  4.4939
  633MOL0     H83498   3.118   7.645   7.291  0.3566  0.6906  1.2378
  633MOL0     H83499   2.998   7.811   7.514  0.2731 -0.6430 -0.2752
  633MOL0     H83500   2.935   7.798   7.350 -2.7894  0.7364  1.7047
  633MOL0     H83501   2.940   7.598   7.571 -0.2824  1.1565  1.0491
  633MOL0     H83502   2.887   7.570   7.391  1.8025  1.5944 -0.1358
  633MOL0     H83503   2.710   7.599   7.579 -0.2646 -1.3116 -2.3380
  633MOL0     H83504   2.688   7.676   7.423 -1.1752  1.8913  0.9320
  633MOL0     H83505   2.810   7.827   7.653  1.0077  4.6365 -0.6420
  633MOL0     H83506   2.754   7.891   7.494  2.7500 -1.8061 -0.7181
  633MOL0     H83507   2.583   7.932   7.686 -0.6369  0.4287  1.2609
  633MOL0     H83508   2.578   7.757   7.715  0.1654  1.3038  0.1543
  633MOL0     H83509   2.511   7.970   7.375  1.3070 -0.1787 -0.6171
  633MOL0     H83510   2.373   7.811   7.168  2.2959  0.6209  2.0613
  633MOL0     H83511   2.302   7.968   7.210  1.0831  0.3375 -0.9749
  633MOL0     H83512   2.096   7.844   7.288  0.1570  2.0493  0.1526
  633MOL0     H83513   2.145   7.708   7.180 -3.5116  0.4873 -0.4343
  633MOL0     H83514   2.089   7.993   7.094 -1.7361 -0.2913  0.1966
  633MOL0     H83515   2.173   7.867   6.992  3.1738 -2.4904  3.0872
  633MOL0     H83516   1.917   7.931   6.980 -0.6993  0.7191  1.5504
  633MOL0     H83517   1.917   7.819   7.128  1.4366  0.4101  1.2112
  633MOL0     H83518   1.940   7.497   6.849 -1.8325  0.0712 -0.8875
  633MOL0     H83519   1.723   7.388   6.787  3.5565  1.1604 -2.6480
  633MOL0     H83520   1.267   7.389   6.885 -1.4115 -0.9903  0.0135
  633MOL0     H83521   1.059   7.295   6.848  0.3774  0.0366  0.9259
  633MOL0     H83522   0.904   7.337   6.471  0.9005  2.2232  0.5299
  633MOL0     H83523   0.805   7.484   6.505 -1.5534  0.7570  3.0678
  633MOL0     H83524   0.623   7.352   6.572  1.2945  0.5327  2.8808
  633MOL0     H83525   0.718   7.196   6.553 -0.1498 -0.1048  0.8903
  633MOL0     H83526   0.735   7.243   6.302 -0.2879  0.2388 -0.3613
  633MOL0     H83527   0.668   7.405   6.331 -1.4175  0.4896  2.1903
  633MOL0     H83528   0.532   7.220   6.214  0.2021 -2.9900  0.4274
  633MOL0     H83529   0.506   7.143   6.357 -2.0810  1.7591  2.3455
  633MOL0     H83530   0.430   7.434   6.359  3.4438 -0.1696  1.1984
  633MOL0     H83531   0.382   7.315   6.475  0.1798  2.2875 -0.0122
  633MOL0     H83532   0.261   7.186   6.277 -0.4627  0.4000 -1.0470
  633MOL0     H83533   0.324   7.307   6.163 -1.7469 -2.7770 -2.1671
  633MOL0     H83534   0.198   7.474   6.256  0.2075 -0.8666 -1.6270
  633MOL0     H83535   0.091   7.330   6.225 -1.7415 -0.2571  1.4406
  633MOL0     H83536   0.029   7.470   6.424  2.6845  2.3854  1.1213
  633MOL0     H83537   0.171   7.412   6.506  0.3657 -1.2058 -0.2471
  633MOL0     H83538   1.002   7.597   6.532  4.3366  1.9073 -1.0470
  633MOL0     H83539   1.201   7.711   6.618  0.0903  1.2259  1.3769
  633MOL0     H83540   1.538   7.772   6.879 -0.3407  0.0072 -0.2169
  633MOL0     H83541   1.726   7.857   6.940 -1.0602 -0.0778 -0.6021
  633MOL0     H83542   3.500   7.478   7.139  0.1701  0.9760  0.1251
  633MOL0     H83543   3.732   7.443   7.063 -0.3192 -1.8909  0.8167
  633MOL0     H83544   4.106   7.475   6.792 -1.3033 -1.2275 -0.3272
  633MOL0     H83545   4.351   7.398   6.774 -1.7341 -1.3241  0.1949
  633MOL0     H83546   4.381   7.139   6.997  0.6350 -1.8619 -4.6569
  633MOL0     H83547   4.504   7.176   7.107 -0.6499  0.8706  0.6108
  633MOL0     H83548   4.550   7.002   6.916 -3.2782  0.7142 -0.3299
  633MOL0     H83549   4.538   7.134   6.804 -0.0407 -1.5634 -0.9275
  633MOL0     H83550   4.757   7.110   7.019  1.1960  1.9288 -0.5890
  633MOL0     H83551   4.738   7.238   6.900 -2.3004  0.8416  1.6807
  633MOL0     H83552   4.769   6.940   6.841 -1.1319  0.0652  0.2764
  633MOL0     H83553   4.745   7.075   6.719 -1.8873  0.3847  1.5009
  633MOL0     H83554   5.140   7.109   6.874 -0.0213 -1.5735  0.5803
  633MOL0     H83555   4.365   7.383   7.193 -2.5104 -0.9444  0.4502
  633MOL0     H83556   4.140   7.476   7.215  1.3709 -0.3116  0.4142
  634MOL0     O83557   8.076   0.856  10.491  0.7117  0.2278  0.0058
  634MOL0     C83558   8.090   0.963  10.548  0.7469  1.0619  0.6017
  634MOL0     O83559   8.020   1.013  10.656 -0.8006  0.1648  0.5611
  634MOL0     C83560   7.902   0.952  10.701 -0.2798  0.3403  0.1394
  634MOL0     C83561   7.853   1.020  10.813 -0.1965 -0.3869 -0.0383
  634MOL0     C83562   7.752   0.966  10.886  0.3491  0.0907  0.6744
  634MOL0     C83563   7.696   0.844  10.846 -0.9350  0.1095  0.1988
  634MOL0     O83564   7.584   0.802  10.914  0.6189  0.3137  0.2178
  634MOL0     C83565   7.508   0.695  10.845 -0.7415  0.4336 -0.1952
  634MOL0     C83566   7.396   0.653  10.932  0.2339 -0.3398 -0.0724
  634MOL0     C83567   7.302   0.574  10.846  0.0116  0.1287 -0.7763
  634MOL0     C83568   7.189   0.534  10.946 -0.4125 -0.0002 -0.5537
  634MOL0     C83569   7.099   0.441  10.868  0.5391 -0.0343  0.3309
  634MOL0     C83570   6.975   0.400  10.949  1.0553  0.3306  0.0866
  634MOL0     C83571   6.853   0.493  10.918 -0.0611 -0.0112 -0.0765
  634MOL0     C83572   6.792   0.462  10.781 -0.0621 -0.6413 -0.3087
  634MOL0     N83573   6.685   0.365  10.773 -0.3288 -0.3039 -0.1013
  634MOL0     C83574   6.561   0.385  10.724  0.1519  0.6353  0.3824
  634MOL0     C83575   6.496   0.272  10.746  0.0177 -0.4368  0.3974
  634MOL0     C83576   6.357   0.229  10.711  0.2451  0.6475  0.4676
  634MOL0     C83577   6.331   0.138  10.596  0.7274  0.0756  0.3477
  634MOL0     C83578   6.376   0.205  10.468 -0.0619  0.0832  0.0080
  634MOL0     C83579   6.292   0.325  10.426 -0.5089 -0.0640  0.5331
  634MOL0     O83580   6.156   0.278  10.416 -0.1192  0.4353 -0.7370
  634MOL0     C83581   6.059   0.369  10.461  0.0348 -0.4580  0.2228
  634MOL0     C83582   5.948   0.319  10.515  0.7290 -0.1183 -0.0627
  634MOL0     C83583   5.840   0.398  10.558  0.1931 -0.8283  0.6680
  634MOL0     C83584   5.843   0.537  10.536 -0.9112 -0.0215  0.3600
  634MOL0     C83585   5.717   0.618  10.575  0.2467  0.2431  1.0477
  634MOL0     O83586   5.606   0.535  10.589  0.9086  0.6943 -0.2165
  634MOL0     C83587   5.489   0.589  10.627  0.2172  0.3469 -0.0150
  634MOL0     C83588   5.477   0.645  10.753 -0.2353  0.1273  0.5940
  634MOL0     C83589   5.367   0.718  10.792  0.3240 -0.4144 -0.8061
  634MOL0     C83590   5.255   0.725  10.710 -0.1464  0.2081  0.5165
  634MOL0     O83591   5.142   0.795  10.755  0.4234 -0.7525  0.1219
  634MOL0     C83592   5.026   0.788  10.671 -0.8173  0.5168  0.0662
  634MOL0     C83593   4.912   0.842  10.758 -0.3617 -0.0027  0.3743
  634MOL0     C83594   4.779   0.829  10.691  0.4474 -0.2064  0.3695
  634MOL0     C83595   4.677   0.907  10.764 -0.1811 -1.3347  0.8973
  634MOL0     C83596   4.552   0.947  10.692 -0.2468 -0.1202 -0.0624
  634MOL0     C83597   4.433   0.853  10.705  0.7985  0.6331  0.3099
  634MOL0     C83598   4.306   0.932  10.698  0.4691 -0.9240 -0.5240
  634MOL0     C83599   4.187   0.847  10.694  0.7843  0.8498  0.4960
  634MOL0    Cl83600   4.048   0.951  10.672  0.2368 -0.3559 -0.2071
  634MOL0     C83601   5.261   0.659  10.586 -0.0965 -0.3686 -0.1906
  634MOL0     C83602   5.381   0.600  10.542  0.6067  0.2612  0.2563
  634MOL0     O83603   5.736   0.737  10.601 -0.3171 -0.2128 -0.3415
  634MOL0     C83604   5.959   0.598  10.481 -0.1002 -0.2996 -0.0666
  634MOL0     C83605   6.064   0.510  10.449 -0.9153 -0.1053  0.1555
  634MOL0     N83606   6.584   0.189  10.817  0.6841 -1.1895 -1.3150
  634MOL0     N83607   6.693   0.247  10.838  0.3738  0.3252 -0.4724
  634MOL0     C83608   7.751   0.781  10.734  0.0031 -0.4076  0.1178
  634MOL0     C83609   7.852   0.830  10.661 -0.3795 -0.3272 -0.7170
  634MOL0     C83610   8.219   1.026  10.518  0.3216  0.8354 -0.3297
  634MOL0     C83611   8.298   0.981  10.410  0.0442  0.3471 -0.1339
  634MOL0     C83612   8.427   1.038  10.394  0.6043  0.4812  0.9267
  634MOL0     C83613   8.479   1.133  10.479 -0.7467 -0.1414 -0.0027
  634MOL0     O83614   8.612   1.171  10.462  0.1910  0.4237 -0.0889
  634MOL0     C83615   8.714   1.080  10.519 -0.2142 -0.1796 -0.1380
  634MOL0     C83616   8.794   1.037  10.398 -0.4749  0.2582  0.0905
  634MOL0     C83617   8.904   0.941  10.437 -0.7584 -0.3583  0.4792
  634MOL0     C83618   8.978   0.878  10.316 -0.3606  0.7406  0.0922
  634MOL0     C83619   8.917   0.742  10.282  0.7911 -0.5183 -0.7640
  634MOL0     C83620   8.863   0.645  10.232 -0.3056 -0.4333  0.9119
  634MOL0     C83621   8.405   1.172  10.584 -1.1737 -0.1709  0.1770
  634MOL0     C83622   8.274   1.118  10.602 -0.8703 -0.8135 -0.3404
  634MOL0     H83623   7.884   1.123  10.828  0.1221 -0.6673  1.3872
  634MOL0     H83624   7.715   1.017  10.975  2.2822  0.6029  1.2213
  634MOL0     H83625   7.569   0.605  10.831 -0.5926 -0.1175  3.2109
  634MOL0     H83626   7.474   0.730  10.747  1.8842 -2.8670 -2.5214
  634MOL0     H83627   7.345   0.745  10.963 -0.7980 -1.0712  0.4249
  634MOL0     H83628   7.427   0.594  11.018 -0.3495 -0.6063 -0.0414
  634MOL0     H83629   7.353   0.490  10.797 -0.6364 -1.6283  1.4080
  634MOL0     H83630   7.260   0.642  10.770  0.1755  1.7664  0.5460
  634MOL0     H83631   7.223   0.472  11.029 -2.6299  1.1801  1.3375
  634MOL0     H83632   7.134   0.616  10.991 -0.8070 -0.0575 -0.9273
  634MOL0     H83633   7.162   0.353  10.850  1.1559  0.6765 -1.1831
  634MOL0     H83634   7.084   0.483  10.768  5.0951  0.4138 -0.3921
  634MOL0     H83635   6.994   0.398  11.057 -2.2318 -0.8145  0.7397
  634MOL0     H83636   6.969   0.296  10.917  2.9456  0.6412 -1.5021
  634MOL0     H83637   6.769   0.490  10.989  0.3267 -2.2511  0.3593
  634MOL0     H83638   6.899   0.592  10.919 -0.0251  0.0211 -1.9407
  634MOL0     H83639   6.869   0.431  10.709 -1.3055 -0.0469 -1.9673
  634MOL0     H83640   6.750   0.559  10.752 -1.2717 -0.3595  2.1424
  634MOL0     H83641   6.514   0.468  10.672 -1.4274 -0.2416  0.3525
  634MOL0     H83642   6.297   0.317  10.687 -3.7375 -2.3882 -1.9646
  634MOL0     H83643   6.312   0.175  10.795  0.7257 -1.8125 -0.7503
  634MOL0     H83644   6.223   0.117  10.592  1.0416 -2.0947  1.6973
  634MOL0     H83645   6.380   0.040  10.598 -1.8442 -1.4270 -2.2008
  634MOL0     H83646   6.478   0.239  10.488 -0.7627  0.9429  2.5567
  634MOL0     H83647   6.366   0.142  10.379 -0.8613  0.2938 -0.0625
  634MOL0     H83648   6.330   0.370  10.334 -2.0271  0.4646  0.1364
  634MOL0     H83649   6.306   0.405  10.500  4.5675 -0.1823  0.1089
  634MOL0     H83650   5.948   0.211  10.531 -3.8857 -0.4433 -0.7032
  634MOL0     H83651   5.748   0.361  10.603 -1.9323  1.3782 -1.5636
  634MOL0     H83652   5.564   0.649  10.818  1.0011  1.1628 -1.0256
  634MOL0     H83653   5.373   0.777  10.883  2.0591  0.7427 -1.6331
  634MOL0     H83654   5.008   0.682  10.652 -1.4954  1.0273 -2.4196
  634MOL0     H83655   5.035   0.844  10.578 -2.2933 -0.3146 -0.6151
  634MOL0     H83656   4.939   0.943  10.791 -0.7592 -0.7723  3.4174
  634MOL0     H83657   4.893   0.784  10.849 -2.1718 -0.1397 -0.0460
  634MOL0     H83658   4.756   0.722  10.687 -0.0082 -0.1629  1.4840
  634MOL0     H83659   4.782   0.872  10.591  0.2697  2.0649  1.2893
  634MOL0     H83660   4.650   0.865  10.862  0.8506 -1.9654  0.9263
  634MOL0     H83661   4.721   1.004  10.790 -1.5559 -0.3602 -0.2129
  634MOL0     H83662   4.581   0.955  10.587  4.4554 -0.5952  0.9530
  634MOL0     H83663   4.520   1.045  10.730  2.1317  0.1140  1.5830
  634MOL0     H83664   4.432   0.778  10.785  0.7371 -1.4624 -1.5364
  634MOL0     H83665   4.427   0.791  10.615 -4.3877 -0.3918  1.0403
  634MOL0     H83666   4.302   0.988  10.792 -0.4190 -4.2709  1.5720
  634MOL0     H83667   4.301   1.014  10.626  0.9926 -0.7287 -0.3436
  634MOL0     H83668   4.172   0.798  10.790 -1.7668  0.8639  0.1558
  634MOL0     H83669   4.189   0.767  10.619 -0.4411 -0.2374  1.5969
  634MOL0     H83670   5.177   0.659  10.517 -3.7788  2.7645  3.7655
  634MOL0     H83671   5.379   0.557  10.443  0.7765 -0.6114  0.6113
  634MOL0     H83672   5.949   0.705  10.469 -0.2264 -0.5423 -2.8481
  634MOL0     H83673   6.156   0.554  10.412 -1.3624  0.2384 -0.5722
  634MOL0     H83674   7.713   0.686  10.697  0.7720 -0.5964 -0.1985
  634MOL0     H83675   7.884   0.777  10.572  2.4017  0.2938 -0.1777
  634MOL0     H83676   8.260   0.912  10.335 -0.2119 -0.4419  0.7070
  634MOL0     H83677   8.482   1.000  10.308 -4.6352 -0.6814 -2.4038
  634MOL0     H83678   8.670   0.991  10.566  0.1297 -0.3448 -0.1311
  634MOL0     H83679   8.786   1.114  10.593 -1.4381 -0.8219  1.4235
  634MOL0     H83680   8.730   0.974  10.334  1.2631  0.3844 -1.8690
  634MOL0     H83681   8.830   1.123  10.341 -1.7557  0.6487 -0.1645
  634MOL0     H83682   8.869   0.861  10.503 -2.4307  0.3923  0.5280
  634MOL0     H83683   8.982   0.998  10.489  1.0918 -0.3716 -2.0880
  634MOL0     H83684   8.985   0.938  10.225  0.3644 -0.2021 -0.4918
  634MOL0     H83685   9.078   0.870  10.360 -1.3825  2.4370  3.0454
  634MOL0     H83686   8.825   0.563  10.174  2.2114 -1.6362  0.8536
  634MOL0     H83687   8.454   1.245  10.648 -1.4789  0.9697 -0.8437
  634MOL0     H83688   8.218   1.149  10.689 -0.0758  0.4843 -0.2636
  635MOL0     O83689   4.330   3.309   2.541 -0.6796  0.3192 -0.4562
  635MOL0     C83690   4.407   3.398   2.529 -0.3532 -0.6154  0.4963
  635MOL0     O83691   4.377   3.530   2.481  0.2136 -1.0220  0.0029
  635MOL0     C83692   4.251   3.558   2.442 -0.5491 -0.2544  0.0337
  635MOL0     C83693   4.152   3.587   2.539  0.5291  0.4794  0.4972
  635MOL0     C83694   4.019   3.607   2.505 -0.0036 -0.1336  0.3433
  635MOL0     C83695   3.979   3.608   2.370  0.1589  0.5648 -0.2681
  635MOL0     O83696   3.855   3.626   2.325 -0.6275 -0.1968 -0.9567
  635MOL0     C83697   3.749   3.680   2.418 -0.0885 -0.0412 -0.5493
  635MOL0     C83698   3.619   3.706   2.344  0.1707  0.3346  0.6109
  635MOL0     C83699   3.526   3.581   2.311  0.4580 -0.5581 -0.3527
  635MOL0     C83700   3.434   3.610   2.196  0.7805 -0.3260 -0.2132
  635MOL0     C83701   3.322   3.721   2.209 -0.4846 -0.7214 -0.6554
  635MOL0     C83702   3.223   3.685   2.317  0.1951 -0.5746 -0.6225
  635MOL0     C83703   3.131   3.551   2.312 -1.0598 -0.2141  1.0448
  635MOL0     C83704   3.091   3.518   2.164 -0.7371 -0.1028  0.4682
  635MOL0     N83705   3.015   3.632   2.110  0.1784 -0.8961  0.4450
  635MOL0     C83706   3.042   3.703   1.991 -0.1171  0.3239  0.1077
  635MOL0     C83707   2.931   3.778   1.973  0.6269 -0.4371  0.1123
  635MOL0     C83708   2.894   3.843   1.841 -0.6083 -0.4048 -0.4546
  635MOL0     C83709   2.793   3.764   1.754 -0.0947  0.2233  0.3581
  635MOL0     C83710   2.758   3.832   1.625 -0.0304 -0.4367  0.5465
  635MOL0     C83711   2.648   3.756   1.567  0.6519 -0.2766 -0.4035
  635MOL0     O83712   2.598   3.823   1.451  0.3252  0.0249  0.4372
  635MOL0     C83713   2.466   3.813   1.416  1.1621 -0.0155  0.9851
  635MOL0     C83714   2.408   3.907   1.328 -0.2726 -0.1436 -0.1085
  635MOL0     C83715   2.267   3.901   1.292 -0.3401 -0.9873  0.3073
  635MOL0     C83716   2.179   3.805   1.343  0.5259  1.1727  0.6081
  635MOL0     C83717   2.036   3.805   1.313  0.5479 -0.0087 -0.4873
  635MOL0     O83718   1.962   3.696   1.343 -0.2945  0.3449 -0.3002
  635MOL0     C83719   1.831   3.672   1.297  0.4765  0.0038 -0.6414
  635MOL0     C83720   1.799   3.691   1.158 -0.7051  0.1587 -0.6913
  635MOL0     C83721   1.672   3.667   1.112  0.6521 -0.2257 -0.4292
  635MOL0     C83722   1.561   3.650   1.206  0.0233 -0.5357 -0.1264
  635MOL0     O83723   1.436   3.646   1.159  0.0125 -1.0220 -0.4380
  635MOL0     C83724   1.325   3.610   1.243 -0.0596  0.0416 -0.4230
  635MOL0     C83725   1.197   3.582   1.168  0.1860 -0.1681  0.2820
  635MOL0     C83726   1.100   3.510   1.253  0.1872 -0.3874 -0.2307
  635MOL0     C83727   0.980   3.458   1.183 -0.3291  0.0573 -0.0460
  635MOL0     C83728   0.879   3.561   1.138 -0.2280  0.6461  0.4533
  635MOL0     C83729   0.749   3.490   1.083  0.2892 -0.3398  0.9808
  635MOL0     C83730   0.646   3.453   1.185  0.5250 -0.9021 -0.8684
  635MOL0     C83731   0.508   3.431   1.117  0.3213 -0.5396 -0.1066
  635MOL0    Cl83732   0.522   3.281   1.016  0.2920  0.3928 -0.2295
  635MOL0     C83733   1.585   3.643   1.344  0.5239 -0.6900 -0.4297
  635MOL0     C83734   1.723   3.645   1.386  0.6987 -0.6732  0.8417
  635MOL0     O83735   1.998   3.901   1.245  0.7231 -0.1642  0.1394
  635MOL0     C83736   2.244   3.710   1.418 -0.0119  0.0065 -0.8058
  635MOL0     C83737   2.379   3.708   1.454 -0.0662  0.7960  0.1115
  635MOL0     N83738   2.845   3.759   2.085  0.4976  0.0192 -0.9757
  635MOL0     N83739   2.907   3.684   2.165  0.5505 -0.7975 -0.1370
  635MOL0     C83740   4.077   3.583   2.273 -0.9796 -0.5532  0.2505
  635MOL0     C83741   4.216   3.577   2.311  0.3065  0.3977  0.9129
  635MOL0     C83742   4.545   3.380   2.552 -0.7660  0.2454  0.5883
  635MOL0     C83743   4.593   3.259   2.603  0.5674  0.3374  0.2508
  635MOL0     C83744   4.731   3.223   2.623  0.1944 -0.6331 -0.3694
  635MOL0     C83745   4.824   3.317   2.585  0.4231 -0.9887  0.0527
  635MOL0     O83746   4.960   3.310   2.593  0.5717  1.0228 -0.2270
  635MOL0     C83747   5.044   3.190   2.622  0.7281 -0.8618  0.0912
  635MOL0     C83748   5.077   3.173   2.774  0.0519 -0.1696 -0.6971
  635MOL0     C83749   5.167   3.049   2.796 -0.8915  1.0185  0.7144
  635MOL0     C83750   5.285   3.039   2.696  0.0226  0.3505 -0.9154
  635MOL0     C83751   5.379   3.137   2.730 -0.5005 -0.3524  0.1806
  635MOL0     C83752   5.468   3.221   2.740  0.4468  0.6266  0.1871
  635MOL0     C83753   4.776   3.451   2.549  0.4874 -0.0550 -0.1431
  635MOL0     C83754   4.639   3.476   2.526 -0.2341  0.6666  0.6903
  635MOL0     H83755   4.179   3.570   2.643 -2.2436 -3.5446  0.8164
  635MOL0     H83756   3.953   3.611   2.591  1.2321 -4.3593  1.7277
  635MOL0     H83757   3.771   3.774   2.468  0.2931 -0.5041  0.1808
  635MOL0     H83758   3.733   3.610   2.501 -0.2928  1.0231  0.3173
  635MOL0     H83759   3.660   3.753   2.254 -0.0934 -0.3368  0.1277
  635MOL0     H83760   3.556   3.782   2.392 -2.0008 -0.8224 -0.2647
  635MOL0     H83761   3.468   3.552   2.399  2.9511 -3.3242  0.5232
  635MOL0     H83762   3.585   3.493   2.285  2.8846  0.7447  0.3756
  635MOL0     H83763   3.496   3.629   2.108  0.8749 -0.8283 -0.2624
  635MOL0     H83764   3.389   3.513   2.168  0.6264 -1.1641  2.6598
  635MOL0     H83765   3.276   3.722   2.110 -1.5174 -1.2427 -0.1921
  635MOL0     H83766   3.371   3.814   2.237  0.6230 -1.9914  2.0232
  635MOL0     H83767   3.155   3.770   2.317  0.8376  0.0005  1.2452
  635MOL0     H83768   3.284   3.682   2.408 -0.9426 -0.6287  0.1537
  635MOL0     H83769   3.192   3.466   2.345 -0.7009  0.2980  1.7154
  635MOL0     H83770   3.041   3.557   2.374 -1.8575 -2.4195  0.2347
  635MOL0     H83771   3.019   3.436   2.167  1.3976 -2.0731  1.4551
  635MOL0     H83772   3.172   3.481   2.101  0.9354  3.5105  0.2237
  635MOL0     H83773   3.128   3.698   1.925 -0.5808 -1.1162 -0.4386
  635MOL0     H83774   2.990   3.850   1.789  1.8519 -1.6580  3.5410
  635MOL0     H83775   2.858   3.943   1.869  0.6576 -0.2955  0.8961
  635MOL0     H83776   2.707   3.749   1.821  1.1242 -0.1828  1.8757
  635MOL0     H83777   2.826   3.662   1.735 -2.3821 -0.4116 -0.5773
  635MOL0     H83778   2.737   3.938   1.643 -0.3389 -0.3020 -0.5002
  635MOL0     H83779   2.840   3.834   1.552 -1.5103  0.5388 -1.1859
  635MOL0     H83780   2.561   3.741   1.632  0.4055  1.8800 -0.1435
  635MOL0     H83781   2.684   3.658   1.534  2.3618  1.8624 -6.0070
  635MOL0     H83782   2.465   3.998   1.309  0.6289 -0.5010  0.7830
  635MOL0     H83783   2.225   3.969   1.219 -0.3702  0.0587  1.2835
  635MOL0     H83784   1.875   3.690   1.081 -0.4292 -1.5983 -0.4258
  635MOL0     H83785   1.634   3.664   1.011 -1.8256 -0.3974  0.4291
  635MOL0     H83786   1.298   3.698   1.302 -2.5477 -0.5939 -0.4685
  635MOL0     H83787   1.344   3.516   1.295 -1.4386  0.2748  0.5574
  635MOL0     H83788   1.207   3.538   1.068 -1.2025  1.4905 -0.6450
  635MOL0     H83789   1.139   3.673   1.149  0.1540 -0.8599 -4.1783
  635MOL0     H83790   1.057   3.567   1.335  1.4789 -0.6076  0.6352
  635MOL0     H83791   1.142   3.420   1.301 -0.8554  0.1562  1.8064
  635MOL0     H83792   1.007   3.407   1.090  2.3224 -0.2031  0.7773
  635MOL0     H83793   0.928   3.383   1.242 -2.5293  0.3324 -1.5132
  635MOL0     H83794   0.929   3.611   1.054  1.9029 -2.0415 -0.0215
  635MOL0     H83795   0.851   3.630   1.218  0.4688  1.6404 -0.1307
  635MOL0     H83796   0.782   3.402   1.026 -0.1441 -0.6569  1.2203
  635MOL0     H83797   0.705   3.556   1.007  1.5371 -0.5240  0.0557
  635MOL0     H83798   0.679   3.360   1.233 -0.1197 -0.4756  0.4695
  635MOL0     H83799   0.632   3.517   1.273 -0.1219 -2.1192 -0.0600
  635MOL0     H83800   0.479   3.510   1.046 -1.4411 -0.0602  1.0893
  635MOL0     H83801   0.429   3.425   1.191 -0.7214  1.4867 -0.9808
  635MOL0     H83802   1.509   3.625   1.420 -1.3677  1.7548 -1.5896
  635MOL0     H83803   1.739   3.637   1.493  0.8496  3.5569  1.2680
  635MOL0     H83804   2.179   3.628   1.447 -1.8059  1.4848 -0.4102
  635MOL0     H83805   2.415   3.627   1.517  1.7296  3.5461  2.9404
  635MOL0     H83806   4.055   3.584   2.167 -3.2879  1.0681  0.6700
  635MOL0     H83807   4.295   3.570   2.237  0.6000  0.0010  1.2566
  635MOL0     H83808   4.516   3.182   2.608 -1.3799  2.0580 -1.3895
  635MOL0     H83809   4.767   3.123   2.644 -0.4659 -1.2649 -2.1413
  635MOL0     H83810   5.134   3.203   2.561 -1.6348  1.3838 -3.2721
  635MOL0     H83811   4.999   3.097   2.585  0.6056 -1.4769  1.7055
  635MOL0     H83812   5.126   3.255   2.827 -3.5890  1.0711  1.0776
  635MOL0     H83813   4.981   3.152   2.821  0.3307 -0.9622 -0.4500
  635MOL0     H83814   5.108   2.958   2.784 -0.2798 -0.1355  4.9003
  635MOL0     H83815   5.205   3.034   2.898  1.4067 -0.3589 -0.2657
  635MOL0     H83816   5.320   2.935   2.702 -2.5506 -0.5791 -0.4254
  635MOL0     H83817   5.253   3.049   2.592 -3.9783  0.5929  0.1675
  635MOL0     H83818   5.557   3.280   2.747 -0.4667  1.8627  2.3596
  635MOL0     H83819   4.841   3.538   2.542 -0.8862  0.9105 -1.6774
  635MOL0     H83820   4.608   3.574   2.491 -3.7774 -1.5098 -3.0899
  636MOL0     O83821   4.172   8.548   1.957  1.1675 -0.3421  0.4029
  636MOL0     C83822   4.213   8.630   2.035 -0.2812 -0.4741 -0.0785
  636MOL0     O83823   4.339   8.640   2.079  0.5806 -0.3994  0.4646
  636MOL0     C83824   4.430   8.547   2.028 -0.1240 -0.0509  0.3097
  636MOL0     C83825   4.460   8.537   1.891  0.2107  0.4256 -0.4051
  636MOL0     C83826   4.550   8.438   1.843 -0.0978  0.4970  0.2108
  636MOL0     C83827   4.611   8.347   1.930  0.0146 -0.2896  0.6052
  636MOL0     O83828   4.694   8.253   1.885 -0.2475  0.2493  0.0254
  636MOL0     C83829   4.789   8.285   1.775 -0.0049  0.5568  0.2383
  636MOL0     C83830   4.872   8.412   1.797  0.0611 -0.0851 -0.0148
  636MOL0     C83831   4.996   8.413   1.704 -0.6675 -0.4120  0.1532
  636MOL0     C83832   5.062   8.549   1.697 -0.7919  0.6455  0.4781
  636MOL0     C83833   5.201   8.523   1.624 -0.6910 -0.6059 -0.6208
  636MOL0     C83834   5.263   8.664   1.611  0.0946  0.5544 -0.0075
  636MOL0     C83835   5.400   8.658   1.550 -0.2981  0.0538  0.3520
  636MOL0     C83836   5.464   8.799   1.562  0.4579  0.7711 -0.1467
  636MOL0     N83837   5.384   8.913   1.529 -0.5086 -0.2463 -0.8889
  636MOL0     C83838   5.325   9.006   1.613 -0.1041 -0.1561 -0.6220
  636MOL0     C83839   5.243   9.078   1.535 -0.4057 -0.5824 -0.4352
  636MOL0     C83840   5.153   9.180   1.577 -0.1998  0.5270 -0.3901
  636MOL0     C83841   5.047   9.124   1.666  0.2731 -0.5987  0.3493
  636MOL0     C83842   4.965   9.240   1.720 -0.0603 -0.4720  0.2737
  636MOL0     C83843   4.891   9.209   1.861 -0.3234 -0.2607  0.4413
  636MOL0     O83844   4.778   9.303   1.892 -0.0690  0.1552 -0.5051
  636MOL0     C83845   4.705   9.292   2.005  0.4771  0.7762 -1.1110
  636MOL0     C83846   4.720   9.183   2.093  0.0456  0.3836  0.3071
  636MOL0     C83847   4.624   9.160   2.198  0.3864  0.3487 -1.2505
  636MOL0     C83848   4.515   9.246   2.220  0.2235  0.4148  0.3923
  636MOL0     C83849   4.418   9.213   2.339 -0.5291  0.7571 -0.7166
  636MOL0     O83850   4.325   9.311   2.380 -0.4504 -0.4313 -0.0463
  636MOL0     C83851   4.235   9.306   2.487  0.2343  0.4080 -0.1194
  636MOL0     C83852   4.206   9.200   2.569  0.3130 -0.0989  0.2045
  636MOL0     C83853   4.103   9.197   2.654 -0.2665  0.3293 -0.3390
  636MOL0     C83854   4.030   9.311   2.680  0.2180 -0.7572  0.3983
  636MOL0     O83855   3.941   9.308   2.782 -0.7337  0.6940  0.5844
  636MOL0     C83856   3.809   9.364   2.754  0.0793 -0.2780  0.8163
  636MOL0     C83857   3.700   9.346   2.859  0.3540 -0.4362 -0.3578
  636MOL0     C83858   3.575   9.422   2.817 -0.2995 -0.3827  0.5028
  636MOL0     C83859   3.454   9.405   2.900  0.8497 -0.3052 -0.0205
  636MOL0     C83860   3.324   9.382   2.811 -1.1314  0.3649  0.3026
  636MOL0     C83861   3.208   9.360   2.909 -0.0644 -0.0642 -0.0880
  636MOL0     C83862   3.202   9.219   2.965 -1.2466  0.0627  0.6996
  636MOL0     C83863   3.076   9.203   3.047  0.3386 -0.6850  0.5803
  636MOL0    Cl83864   2.939   9.155   2.939 -0.1866 -0.0387 -0.1489
  636MOL0     C83865   4.051   9.423   2.601 -0.2137 -0.7099 -0.0996
  636MOL0     C83866   4.153   9.422   2.504 -1.0470  0.9169  0.3018
  636MOL0     O83867   4.427   9.100   2.385 -0.1817  0.0089 -0.2698
  636MOL0     C83868   4.505   9.362   2.133 -0.0148  0.2599  0.3382
  636MOL0     C83869   4.599   9.374   2.030 -0.0449 -0.2497 -0.1946
  636MOL0     N83870   5.252   9.033   1.408  0.9949  0.1758  0.1221
  636MOL0     N83871   5.327   8.935   1.404 -0.1352  0.0326 -0.4536
  636MOL0     C83872   4.572   8.348   2.065 -0.8594 -0.0713  0.2308
  636MOL0     C83873   4.494   8.452   2.114  0.1688 -0.6414 -0.5046
  636MOL0     C83874   4.115   8.728   2.092  0.3283 -0.3204 -0.2167
  636MOL0     C83875   4.158   8.840   2.167  0.8042 -0.2412  0.2588
  636MOL0     C83876   4.064   8.942   2.221  0.3298 -0.7801  0.6842
  636MOL0     C83877   3.930   8.921   2.198  1.2819  0.4219 -0.6375
  636MOL0     O83878   3.828   8.988   2.261 -1.1513 -0.8102  0.3063
  636MOL0     C83879   3.862   9.089   2.364  0.6649  0.3699  0.1103
  636MOL0     C83880   3.752   9.172   2.424  0.0220  0.5315 -0.8940
  636MOL0     C83881   3.655   9.232   2.319 -0.1360 -0.1810 -0.2824
  636MOL0     C83882   3.546   9.299   2.391 -0.4228  0.6242  0.5666
  636MOL0     C83883   3.467   9.390   2.301  0.5631  0.7674  1.5286
  636MOL0     C83884   3.426   9.473   2.220 -0.0438 -0.0138  0.7802
  636MOL0     C83885   3.881   8.816   2.120 -0.0945  0.5917 -0.0133
  636MOL0     C83886   3.975   8.720   2.070  0.3317  0.0489 -0.1891
  636MOL0     H83887   4.400   8.601   1.827 -1.2292 -2.3781 -2.0493
  636MOL0     H83888   4.561   8.427   1.736 -0.2252 -1.9922  0.3799
  636MOL0     H83889   4.731   8.284   1.683  1.6790  1.4699 -0.8986
  636MOL0     H83890   4.859   8.201   1.777  0.2725  0.6905 -1.9908
  636MOL0     H83891   4.903   8.423   1.901 -0.0853 -2.0684  0.2846
  636MOL0     H83892   4.803   8.494   1.775 -1.3952 -0.9766  1.0542
  636MOL0     H83893   4.973   8.389   1.600  1.4827 -0.3719 -0.3934
  636MOL0     H83894   5.066   8.338   1.741 -0.4374 -0.7508 -0.9459
  636MOL0     H83895   4.997   8.614   1.638  0.9320  0.7303 -1.4167
  636MOL0     H83896   5.076   8.600   1.793  0.5280  1.1557  0.0391
  636MOL0     H83897   5.186   8.484   1.523 -1.8280 -1.7624 -0.0369
  636MOL0     H83898   5.258   8.446   1.677 -3.2702 -3.4064 -1.6311
  636MOL0     H83899   5.251   8.712   1.708  1.5807  1.2013 -0.1255
  636MOL0     H83900   5.198   8.723   1.546  0.1853  0.4551 -0.1904
  636MOL0     H83901   5.466   8.586   1.599  2.0020  0.3081 -2.1307
  636MOL0     H83902   5.394   8.622   1.447 -2.2032 -0.1559  0.5014
  636MOL0     H83903   5.546   8.807   1.491  0.8231  2.7326  0.4143
  636MOL0     H83904   5.505   8.804   1.664 -0.9262  0.5806  0.4378
  636MOL0     H83905   5.327   9.016   1.721 -2.1368  1.9093 -0.6749
  636MOL0     H83906   5.104   9.225   1.490 -1.0547 -2.6334 -1.6724
  636MOL0     H83907   5.203   9.257   1.636  0.0161  1.5108 -1.8101
  636MOL0     H83908   5.090   9.074   1.753  1.6558  2.5534  1.6083
  636MOL0     H83909   4.984   9.052   1.613  1.9503 -0.9364 -1.3336
  636MOL0     H83910   5.032   9.325   1.739  0.9464 -0.4622 -2.7546
  636MOL0     H83911   4.893   9.266   1.642  0.1916 -1.7163 -0.4018
  636MOL0     H83912   4.954   9.208   1.950 -1.3770  1.9535  1.2905
  636MOL0     H83913   4.843   9.110   1.861 -0.1312 -0.4124  2.7268
  636MOL0     H83914   4.783   9.095   2.083 -1.1473 -0.6427  1.4996
  636MOL0     H83915   4.628   9.062   2.244  3.0944  0.2381 -1.5751
  636MOL0     H83916   4.269   9.112   2.558 -1.0412 -1.4148  2.3274
  636MOL0     H83917   4.076   9.106   2.707 -1.7881  1.2400  0.5295
  636MOL0     H83918   3.768   9.306   2.671 -2.9755 -0.3563  2.2681
  636MOL0     H83919   3.826   9.469   2.728 -1.5228  0.0641  1.0284
  636MOL0     H83920   3.740   9.370   2.958 -0.1134 -1.7449  0.1672
  636MOL0     H83921   3.664   9.244   2.867  0.0951 -0.1976  2.1749
  636MOL0     H83922   3.552   9.378   2.719 -1.5001  0.2869  0.4651
  636MOL0     H83923   3.604   9.527   2.806  1.9363 -1.0375 -0.5199
  636MOL0     H83924   3.464   9.320   2.968 -1.8105 -2.0536 -1.6037
  636MOL0     H83925   3.422   9.499   2.947  0.7433  0.2454 -1.1582
  636MOL0     H83926   3.334   9.295   2.745  1.9758  0.7951  0.0841
  636MOL0     H83927   3.305   9.465   2.742  1.5292 -1.2384 -2.6155
  636MOL0     H83928   3.119   9.373   2.847  0.7963 -3.2276 -2.2239
  636MOL0     H83929   3.208   9.431   2.992  0.3476  0.6902 -0.7145
  636MOL0     H83930   3.214   9.144   2.886 -2.9138 -0.3466  0.7968
  636MOL0     H83931   3.288   9.205   3.030  0.8767  0.1732 -1.9240
  636MOL0     H83932   3.038   9.295   3.092 -1.9851 -1.5216  0.4706
  636MOL0     H83933   3.100   9.131   3.125  1.9243  0.4503  1.1931
  636MOL0     H83934   3.986   9.509   2.611  0.0358 -0.5265 -0.0440
  636MOL0     H83935   4.174   9.500   2.431  1.1825 -2.1076 -2.5461
  636MOL0     H83936   4.429   9.438   2.149  0.7338  1.2241 -0.5877
  636MOL0     H83937   4.602   9.467   1.973  0.2292  3.6625  5.3396
  636MOL0     H83938   4.608   8.267   2.128 -0.1506  0.1273  0.0939
  636MOL0     H83939   4.461   8.453   2.218  0.9791 -0.2981 -0.2473
  636MOL0     H83940   4.265   8.849   2.176  0.7351 -0.2874  1.2625
  636MOL0     H83941   4.104   9.033   2.266  0.3443 -0.0345 -0.7724
  636MOL0     H83942   3.931   9.166   2.327 -0.4378 -0.3436 -3.9053
  636MOL0     H83943   3.908   9.030   2.445  1.3140 -2.1934 -1.9546
  636MOL0     H83944   3.702   9.105   2.494  0.4482  0.4880 -0.6297
  636MOL0     H83945   3.791   9.255   2.484 -0.7603  0.3515 -0.1279
  636MOL0     H83946   3.603   9.153   2.264 -1.2829 -1.0584  1.9386
  636MOL0     H83947   3.704   9.301   2.249  0.5204 -2.0328 -1.7216
  636MOL0     H83948   3.483   9.233   2.452 -0.3244 -0.5585 -0.5793
  636MOL0     H83949   3.603   9.369   2.453  1.5980 -0.5948  0.1975
  636MOL0     H83950   3.395   9.552   2.154 -0.6718  0.2735  1.4026
  636MOL0     H83951   3.774   8.813   2.100 -0.1300 -0.9294  0.2794
  636MOL0     H83952   3.940   8.639   2.006  0.0129  0.9265 -1.1524
  637MOL0     O83953   8.181   6.189   4.456 -0.8410 -0.2465 -0.3069
  637MOL0     C83954   8.143   6.086   4.508  0.2413 -0.4666 -0.1751
  637MOL0     O83955   8.025   6.021   4.487 -0.1229  0.8343  0.1549
  637MOL0     C83956   7.931   6.077   4.395  1.0565 -0.5600  0.5111
  637MOL0     C83957   7.934   6.046   4.260 -0.6680  0.5453  0.2311
  637MOL0     C83958   7.845   6.100   4.166  0.7623  0.0361 -0.1308
  637MOL0     C83959   7.752   6.195   4.213 -0.4364  0.4810 -0.2065
  637MOL0     O83960   7.699   6.264   4.106 -0.1458 -0.3261  0.6350
  637MOL0     C83961   7.593   6.358   4.142 -0.0921 -0.9816 -0.7524
  637MOL0     C83962   7.641   6.515   4.136 -0.1209  0.1246  0.2628
  637MOL0     C83963   7.520   6.612   4.128  0.0287  0.1981  0.0346
  637MOL0     C83964   7.468   6.639   4.267  0.8035 -0.4254  1.0633
  637MOL0     C83965   7.319   6.662   4.269 -0.4008 -0.2823 -1.3880
  637MOL0     C83966   7.276   6.690   4.408 -0.0405  0.8907 -0.3363
  637MOL0     C83967   7.125   6.722   4.406 -0.2361  0.0007  0.4736
  637MOL0     C83968   7.038   6.595   4.388  0.1736  0.0352  0.2576
  637MOL0     N83969   6.893   6.604   4.412 -0.3558 -0.4117 -0.0303
  637MOL0     C83970   6.828   6.707   4.487  0.1570 -0.3240  0.6804
  637MOL0     C83971   6.701   6.685   4.477 -0.2099  0.6830 -0.4400
  637MOL0     C83972   6.582   6.758   4.539  0.0361  0.0282 -0.5014
  637MOL0     C83973   6.489   6.661   4.614  0.3760 -0.4857 -1.3750
  637MOL0     C83974   6.381   6.747   4.687 -0.0544 -0.1064  0.3979
  637MOL0     C83975   6.260   6.655   4.725  0.6116 -0.1832  0.3539
  637MOL0     O83976   6.172   6.742   4.801 -0.3405 -0.0444  0.6784
  637MOL0     C83977   6.034   6.718   4.785  0.6048  1.1038 -0.3565
  637MOL0     C83978   5.967   6.656   4.890  0.0362 -0.6089  0.8844
  637MOL0     C83979   5.831   6.648   4.894  0.7875  0.4394 -1.6457
  637MOL0     C83980   5.754   6.699   4.793 -0.3310 -0.1246  0.2692
  637MOL0     C83981   5.606   6.707   4.795  0.5920 -1.0323 -0.5828
  637MOL0     O83982   5.543   6.640   4.899  1.1285 -0.4741 -0.1812
  637MOL0     C83983   5.405   6.634   4.887 -0.0729 -0.4525 -0.7181
  637MOL0     C83984   5.343   6.573   4.781 -0.1169 -0.2756  0.6228
  637MOL0     C83985   5.205   6.564   4.775  0.1929  0.6106 -0.8520
  637MOL0     C83986   5.131   6.624   4.875 -0.2118  0.7841  0.1674
  637MOL0     O83987   4.998   6.627   4.870 -0.7332  0.1300  0.1787
  637MOL0     C83988   4.924   6.551   4.776 -0.0299 -0.5574 -0.5129
  637MOL0     C83989   4.775   6.563   4.813 -0.3215  0.6480  0.9508
  637MOL0     C83990   4.689   6.477   4.713  0.3799  0.0794 -0.4041
  637MOL0     C83991   4.545   6.469   4.765 -0.2952  0.1315  0.2783
  637MOL0     C83992   4.447   6.410   4.656  0.4914  0.6686  0.2643
  637MOL0     C83993   4.299   6.435   4.702 -0.3478  0.5849  0.6782
  637MOL0     C83994   4.267   6.587   4.697  0.4512  0.1009 -0.6377
  637MOL0     C83995   4.120   6.621   4.687 -0.4293  0.3294 -0.1534
  637MOL0    Cl83996   4.013   6.497   4.764  0.3837  0.0721 -0.0008
  637MOL0     C83997   5.187   6.693   4.975  0.1406  0.7700 -1.0402
  637MOL0     C83998   5.328   6.698   4.981  0.5411  0.3900  0.2032
  637MOL0     O83999   5.549   6.775   4.704  0.0217  0.4244 -0.0744
  637MOL0     C84000   5.822   6.758   4.683 -0.1290 -0.2991  0.9962
  637MOL0     C84001   5.962   6.771   4.673 -1.2808 -0.2487 -0.4155
  637MOL0     N84002   6.681   6.571   4.400 -0.2080  0.8243 -0.0105
  637MOL0     N84003   6.794   6.532   4.354  0.1344 -0.1089  0.4788
  637MOL0     C84004   7.754   6.237   4.348  0.9270  0.0845  0.0057
  637MOL0     C84005   7.844   6.177   4.437  0.7985  0.1328  0.8515
  637MOL0     C84006   8.241   6.009   4.588  0.5610 -1.7141  0.3597
  637MOL0     C84007   8.364   6.061   4.622 -0.8509 -1.0671 -0.6620
  637MOL0     C84008   8.454   5.985   4.694  0.5178  0.3544 -0.6603
  637MOL0     C84009   8.426   5.852   4.741 -0.6641  0.0180 -0.0591
  637MOL0     O84010   8.519   5.769   4.798 -0.5943  0.1806 -0.3332
  637MOL0     C84011   8.654   5.782   4.764 -0.1299  1.1654  0.9011
  637MOL0     C84012   8.692   5.737   4.618  0.3335 -0.3505  0.0507
  637MOL0     C84013   8.645   5.594   4.589  0.4083 -0.1256  0.5902
  637MOL0     C84014   8.697   5.541   4.454  0.7883  0.0592 -0.0294
  637MOL0     C84015   8.642   5.412   4.429 -0.4398 -0.4028 -0.1230
  637MOL0     C84016   8.593   5.300   4.414  0.0615  0.2718 -0.3926
  637MOL0     C84017   8.302   5.803   4.697 -0.0106  1.5194 -1.7830
  637MOL0     C84018   8.211   5.879   4.626  0.3319 -0.8014 -0.1812
  637MOL0     H84019   8.012   5.977   4.231 -0.9317  0.3477 -0.0090
  637MOL0     H84020   7.841   6.065   4.063  4.9578 -0.4273 -0.3114
  637MOL0     H84021   7.552   6.328   4.239  1.3494 -0.5104  0.0500
  637MOL0     H84022   7.520   6.343   4.062 -2.0149  0.7960  0.5568
  637MOL0     H84023   7.707   6.534   4.051 -1.4572  0.1490 -0.8052
  637MOL0     H84024   7.709   6.533   4.219  0.5235 -3.9885  0.8535
  637MOL0     H84025   7.432   6.568   4.079 -0.5493 -1.1564  2.1312
  637MOL0     H84026   7.564   6.698   4.078  1.4893 -1.1178 -1.0053
  637MOL0     H84027   7.492   6.553   4.331 -1.7483 -0.9571  1.3863
  637MOL0     H84028   7.511   6.735   4.298  0.4939  0.2933 -0.6292
  637MOL0     H84029   7.269   6.573   4.230  0.2297 -1.2715 -0.0018
  637MOL0     H84030   7.295   6.753   4.213  2.4316 -0.0040 -2.2688
  637MOL0     H84031   7.334   6.776   4.440 -0.0691  0.2932  1.3848
  637MOL0     H84032   7.299   6.608   4.477 -0.1734  3.0451  2.4274
  637MOL0     H84033   7.098   6.761   4.505 -0.6427  0.0994  0.3279
  637MOL0     H84034   7.104   6.794   4.327  2.1690  0.8400  0.5388
  637MOL0     H84035   7.080   6.517   4.451  0.2934 -0.9352 -0.9896
  637MOL0     H84036   7.044   6.552   4.287  1.9416  1.6260 -0.3679
  637MOL0     H84037   6.877   6.788   4.540 -0.1120  0.0967  0.2950
  637MOL0     H84038   6.531   6.816   4.462  0.2292  3.4157  1.7015
  637MOL0     H84039   6.619   6.830   4.613 -0.3994 -1.2434  1.0017
  637MOL0     H84040   6.558   6.615   4.686 -2.1521 -0.3424  1.3554
  637MOL0     H84041   6.434   6.604   4.540  0.8519  0.1521 -2.2345
  637MOL0     H84042   6.409   6.799   4.779 -1.9567 -0.5779  1.2925
  637MOL0     H84043   6.326   6.817   4.625 -3.3362  1.2908  4.4381
  637MOL0     H84044   6.288   6.572   4.791  0.4741 -0.6473 -0.1672
  637MOL0     H84045   6.209   6.605   4.643 -0.2233 -1.5031  1.6171
  637MOL0     H84046   6.015   6.619   4.980  0.5108  0.0173  0.9006
  637MOL0     H84047   5.784   6.593   4.975 -1.2752 -2.0027 -4.3177
  637MOL0     H84048   5.411   6.535   4.706  1.7494  1.3550  1.3695
  637MOL0     H84049   5.165   6.503   4.695  1.5382 -2.5067  0.6614
  637MOL0     H84050   4.968   6.451   4.763 -1.2197 -1.0848 -0.5537
  637MOL0     H84051   4.931   6.611   4.685 -3.1032 -0.1960 -0.6088
  637MOL0     H84052   4.730   6.662   4.823  0.6016  1.4354 -1.7654
  637MOL0     H84053   4.773   6.510   4.908  1.8539 -2.0412 -0.3733
  637MOL0     H84054   4.732   6.377   4.704 -2.3506 -1.2494  0.1820
  637MOL0     H84055   4.702   6.525   4.616  0.9413  0.5045 -0.1216
  637MOL0     H84056   4.528   6.399   4.847 -3.1889 -0.2568 -0.5608
  637MOL0     H84057   4.514   6.569   4.796 -2.2488 -0.0444 -0.9291
  637MOL0     H84058   4.469   6.303   4.651 -0.8025  0.1503  3.5613
  637MOL0     H84059   4.454   6.452   4.555  0.1436 -0.2210 -0.1349
  637MOL0     H84060   4.291   6.392   4.802 -0.2953 -2.3772 -0.4830
  637MOL0     H84061   4.229   6.380   4.637  1.2994  1.1186 -1.6661
  637MOL0     H84062   4.295   6.635   4.791 -0.2627  1.6759 -1.1959
  637MOL0     H84063   4.320   6.642   4.619  0.2256  1.3723  0.0829
  637MOL0     H84064   4.096   6.637   4.581  1.1437 -0.5979 -0.6970
  637MOL0     H84065   4.107   6.719   4.734  0.9483  2.1203 -3.2105
  637MOL0     H84066   5.129   6.740   5.053 -1.4958 -4.0291  1.0003
  637MOL0     H84067   5.382   6.750   5.059  2.4916 -0.1369 -0.7228
  637MOL0     H84068   5.750   6.808   4.618  0.6509  1.0718  1.1495
  637MOL0     H84069   6.004   6.823   4.587 -0.9409  0.5666  0.2332
  637MOL0     H84070   7.701   6.324   4.384 -1.6144 -1.5456  0.4756
  637MOL0     H84071   7.854   6.214   4.538  2.9044 -1.2309  1.2140
  637MOL0     H84072   8.403   6.158   4.592 -1.2583 -0.3059  1.1184
  637MOL0     H84073   8.547   6.036   4.716  0.5753 -0.4711  1.2051
  637MOL0     H84074   8.693   5.700   4.826  0.3943  1.3039  0.7537
  637MOL0     H84075   8.691   5.881   4.791 -1.7446  2.1445 -0.2941
  637MOL0     H84076   8.648   5.804   4.542  0.6971 -0.2547 -0.0763
  637MOL0     H84077   8.799   5.742   4.597  0.2699 -2.1469 -0.8988
  637MOL0     H84078   8.535   5.596   4.590  0.3431 -1.0787 -0.8388
  637MOL0     H84079   8.680   5.529   4.670 -0.9920 -0.4763  0.9483
  637MOL0     H84080   8.679   5.606   4.368 -3.6170 -3.2358 -2.0372
  637MOL0     H84081   8.804   5.524   4.463  1.1477  1.4996 -1.2303
  637MOL0     H84082   8.538   5.209   4.398 -2.6833  1.7077  0.3436
  637MOL0     H84083   8.262   5.707   4.728 -1.2707  2.5595  0.0213
  637MOL0     H84084   8.116   5.833   4.603  1.6128 -1.9160 -4.1926
  638MOL0     O84085   5.466   0.350   3.023  0.1856  1.1497  0.3037
  638MOL0     C84086   5.477   0.469   2.998  0.0275 -1.5268  0.3644
  638MOL0     O84087   5.388   0.572   3.030  0.0972  0.0662  0.3233
  638MOL0     C84088   5.288   0.530   3.113  0.3863 -0.3143  0.0122
  638MOL0     C84089   5.158   0.511   3.060 -0.3111 -0.2851 -0.1762
  638MOL0     C84090   5.055   0.486   3.149  0.3181  0.2305 -0.5647
  638MOL0     C84091   5.067   0.487   3.290 -0.4338  0.8634  0.2848
  638MOL0     O84092   4.955   0.479   3.366  0.0191 -0.4814  0.4337
  638MOL0     C84093   4.986   0.464   3.513 -0.1558 -0.9604  0.2209
  638MOL0     C84094   4.848   0.448   3.593  0.8176  0.1931  1.0770
  638MOL0     C84095   4.765   0.560   3.536 -0.2099 -0.0158 -0.0843
  638MOL0     C84096   4.637   0.572   3.629 -0.1209 -0.7314 -0.0277
  638MOL0     C84097   4.517   0.631   3.552  0.0584  0.8217  0.4634
  638MOL0     C84098   4.388   0.659   3.644 -0.6556  0.3491  0.0303
  638MOL0     C84099   4.282   0.730   3.557  0.1070  0.6230 -0.7098
  638MOL0     C84100   4.138   0.719   3.612 -0.7808 -0.0412 -0.3725
  638MOL0     N84101   4.033   0.728   3.510  0.9653 -0.9636  0.3337
  638MOL0     C84102   3.982   0.836   3.448  0.7294  0.5331 -1.2818
  638MOL0     C84103   3.878   0.792   3.376  0.6537 -0.4421 -0.5381
  638MOL0     C84104   3.796   0.879   3.293 -0.6033 -0.7637  0.5067
  638MOL0     C84105   3.680   0.934   3.377  1.1704 -0.8223 -0.0240
  638MOL0     C84106   3.567   0.840   3.372  0.5186 -0.4584 -0.5389
  638MOL0     C84107   3.457   0.882   3.475  0.0857  0.4055  0.1607
  638MOL0     O84108   3.395   1.004   3.433 -0.5001 -0.1672  0.4579
  638MOL0     C84109   3.278   1.043   3.497  0.0828 -0.3543  0.7451
  638MOL0     C84110   3.222   0.972   3.605 -0.3249 -0.3579 -1.3705
  638MOL0     C84111   3.117   1.030   3.675  0.3247  0.7691  0.3721
  638MOL0     C84112   3.065   1.155   3.628 -0.0921  0.4103  0.7066
  638MOL0     C84113   2.957   1.223   3.703 -0.2426  0.7539  1.6699
  638MOL0     O84114   2.899   1.333   3.643 -0.5359 -0.1301 -0.0303
  638MOL0     C84115   2.780   1.381   3.684 -0.0569 -0.8104 -0.7974
  638MOL0     C84116   2.757   1.430   3.813  0.6908 -0.0304 -0.4938
  638MOL0     C84117   2.631   1.496   3.851  0.4839  0.5646 -0.6208
  638MOL0     C84118   2.533   1.518   3.749 -0.5317 -0.4161 -0.7524
  638MOL0     O84119   2.423   1.599   3.755  0.2167  0.5239 -0.4542
  638MOL0     C84120   2.404   1.676   3.878 -0.1569  0.6263 -0.0599
  638MOL0     C84121   2.283   1.770   3.869  0.0236  0.2462  0.1802
  638MOL0     C84122   2.145   1.714   3.879  0.5577  0.6404 -0.6984
  638MOL0     C84123   2.085   1.647   3.758  0.5019 -0.2697 -0.5348
  638MOL0     C84124   1.959   1.569   3.791  0.2241 -0.2861  0.5445
  638MOL0     C84125   1.833   1.663   3.816  0.0440 -0.0675 -0.2433
  638MOL0     C84126   1.716   1.576   3.873  0.9007  0.3451  0.1479
  638MOL0     C84127   1.648   1.499   3.756  0.2062 -0.9202 -1.0069
  638MOL0    Cl84128   1.538   1.624   3.673  0.0818 -0.2934 -0.5362
  638MOL0     C84129   2.565   1.482   3.622 -0.4425 -0.1770  0.3156
  638MOL0     C84130   2.688   1.417   3.586  0.2762 -0.8796  0.2712
  638MOL0     O84131   2.924   1.183   3.818 -0.3333 -0.2891  0.2057
  638MOL0     C84132   3.117   1.218   3.510 -0.9935 -0.4685 -0.0302
  638MOL0     C84133   3.222   1.160   3.454 -0.7084 -0.3770 -0.2485
  638MOL0     N84134   3.850   0.662   3.412 -0.1296  0.4577  0.6728
  638MOL0     N84135   3.954   0.623   3.483 -0.5023  0.1151 -0.0957
  638MOL0     C84136   5.202   0.489   3.339 -0.5606 -0.0144 -0.1918
  638MOL0     C84137   5.306   0.516   3.254 -0.4967  0.2673  0.1526
  638MOL0     C84138   5.590   0.512   2.916  0.0499  1.1100  0.4642
  638MOL0     C84139   5.617   0.646   2.879 -0.5571  0.1148 -0.2084
  638MOL0     C84140   5.737   0.676   2.828  0.5968  1.0996 -0.5512
  638MOL0     C84141   5.832   0.577   2.794  0.3837 -0.3733 -0.1233
  638MOL0     O84142   5.956   0.602   2.737  0.2401  0.0395 -0.4989
  638MOL0     C84143   5.987   0.730   2.688  0.1772  0.5941 -1.1470
  638MOL0     C84144   6.132   0.744   2.634  0.2615 -0.0827 -0.7289
  638MOL0     C84145   6.232   0.729   2.751 -0.6186 -0.2929  0.5191
  638MOL0     C84146   6.379   0.761   2.709 -0.1568 -0.6142 -0.2923
  638MOL0     C84147   6.476   0.674   2.775  0.7363  0.4269  0.2634
  638MOL0     C84148   6.562   0.605   2.829 -0.3777  0.3566 -0.4728
  638MOL0     C84149   5.808   0.446   2.824 -0.5111 -0.0427  0.1630
  638MOL0     C84150   5.686   0.414   2.881 -0.1601 -0.2481  0.3182
  638MOL0     H84151   5.149   0.528   2.953  1.6730  1.3564 -0.1299
  638MOL0     H84152   4.952   0.473   3.118 -0.4242 -0.2229  1.8465
  638MOL0     H84153   5.041   0.548   3.555 -2.4743  0.4403  0.6160
  638MOL0     H84154   5.034   0.367   3.532 -0.5871 -1.1401  0.4135
  638MOL0     H84155   4.871   0.463   3.699  1.1101 -0.7631  1.1638
  638MOL0     H84156   4.796   0.351   3.587  0.6914  0.3064  0.2231
  638MOL0     H84157   4.727   0.530   3.438 -1.8232 -2.7847  1.2516
  638MOL0     H84158   4.819   0.653   3.516 -0.6792  0.3616  0.3802
  638MOL0     H84159   4.616   0.472   3.669 -3.1691 -0.6601 -1.1755
  638MOL0     H84160   4.655   0.640   3.713 -0.0676 -3.1562  2.0573
  638MOL0     H84161   4.488   0.554   3.481  1.7713  1.3898 -0.9294
  638MOL0     H84162   4.557   0.714   3.492  1.0951 -0.9648 -1.4198
  638MOL0     H84163   4.406   0.720   3.733 -0.8919 -0.8490  0.9215
  638MOL0     H84164   4.348   0.564   3.679  1.1210  1.2138  5.3296
  638MOL0     H84165   4.319   0.833   3.552 -0.0453  0.7921  0.9761
  638MOL0     H84166   4.292   0.681   3.460  2.9458 -1.3993  0.4669
  638MOL0     H84167   4.132   0.793   3.693 -0.5983 -1.6228  1.1548
  638MOL0     H84168   4.120   0.622   3.659  0.2571  0.1753  0.5171
  638MOL0     H84169   4.019   0.935   3.470 -0.5408  0.4703  1.7431
  638MOL0     H84170   3.748   0.827   3.209 -1.5353  1.5481 -0.4753
  638MOL0     H84171   3.850   0.962   3.245 -2.7236 -0.2991 -1.2323
  638MOL0     H84172   3.647   1.032   3.344 -2.2127 -2.1937 -1.1773
  638MOL0     H84173   3.718   0.950   3.478  0.0482 -3.1035  0.8434
  638MOL0     H84174   3.527   0.840   3.271  2.0301 -2.4736 -1.1971
  638MOL0     H84175   3.603   0.738   3.390 -1.4735 -1.1743 -0.3414
  638MOL0     H84176   3.499   0.912   3.572 -0.4092 -1.0120  0.8457
  638MOL0     H84177   3.385   0.801   3.489 -1.8065  1.6125 -1.9900
  638MOL0     H84178   3.261   0.878   3.643  1.2254  0.9583  0.4834
  638MOL0     H84179   3.078   0.988   3.767 -0.3151  1.2211  0.3073
  638MOL0     H84180   2.840   1.432   3.882  0.6401  1.8941 -0.4430
  638MOL0     H84181   2.622   1.531   3.953  4.0563 -0.6951  0.2858
  638MOL0     H84182   2.492   1.739   3.894 -1.4153  1.7754  3.1174
  638MOL0     H84183   2.397   1.604   3.960  1.2158  0.2122 -0.2747
  638MOL0     H84184   2.293   1.831   3.779 -1.7670 -0.4920 -0.5737
  638MOL0     H84185   2.304   1.833   3.956  1.6477 -0.3718  0.2663
  638MOL0     H84186   2.076   1.795   3.905 -0.4395  0.5420 -2.8309
  638MOL0     H84187   2.149   1.645   3.964 -0.2183  3.0099  1.3766
  638MOL0     H84188   2.084   1.713   3.671  2.8661 -1.2367 -1.3909
  638MOL0     H84189   2.162   1.576   3.728  1.2283  1.0845 -2.0465
  638MOL0     H84190   1.979   1.506   3.879  1.5007 -2.6905 -1.3532
  638MOL0     H84191   1.932   1.512   3.702  0.0485  3.2318 -1.8594
  638MOL0     H84192   1.810   1.712   3.721  1.2109  0.8105 -0.1002
  638MOL0     H84193   1.840   1.743   3.890 -1.2204 -0.1578 -0.0022
  638MOL0     H84194   1.745   1.501   3.948  0.4752  1.8429  1.8840
  638MOL0     H84195   1.645   1.639   3.927 -0.1486 -1.5510  1.0866
  638MOL0     H84196   1.596   1.414   3.800 -0.1344  0.2091  0.8975
  638MOL0     H84197   1.720   1.458   3.685 -0.5437 -0.8064 -1.8437
  638MOL0     H84198   2.508   1.503   3.532 -0.3673 -1.1477  0.0331
  638MOL0     H84199   2.721   1.382   3.489  2.0820 -2.6046  1.4313
  638MOL0     H84200   3.082   1.314   3.473 -0.2533  0.5305  1.7191
  638MOL0     H84201   3.265   1.222   3.376 -1.3517  0.8220  0.3150
  638MOL0     H84202   5.219   0.450   3.439  2.6973 -0.8456 -0.9298
  638MOL0     H84203   5.402   0.517   3.304  0.1617 -1.0704 -1.0011
  638MOL0     H84204   5.546   0.728   2.885 -0.0328  0.5257  0.5329
  638MOL0     H84205   5.751   0.783   2.812 -0.6937  1.6791  1.7234
  638MOL0     H84206   5.981   0.799   2.772  0.2101 -0.8293  0.0751
  638MOL0     H84207   5.912   0.761   2.614 -2.1746 -1.0366  0.3660
  638MOL0     H84208   6.143   0.655   2.572  0.2536  1.7308 -3.5028
  638MOL0     H84209   6.158   0.830   2.571  0.5487 -0.1343 -0.6817
  638MOL0     H84210   6.232   0.621   2.770  2.8760 -0.3354  0.9474
  638MOL0     H84211   6.205   0.790   2.838 -4.2770 -0.9537  0.0126
  638MOL0     H84212   6.391   0.741   2.602 -1.9398  0.1929 -0.6862
  638MOL0     H84213   6.391   0.869   2.718 -1.6760 -0.3169 -1.2525
  638MOL0     H84214   6.643   0.539   2.851 -0.0051  1.0593  0.3082
  638MOL0     H84215   5.879   0.368   2.797 -0.6644  0.2615 -1.1503
  638MOL0     H84216   5.667   0.315   2.921 -3.0172  1.2966  3.1665
  639MOL0     O84217  10.753   2.486   3.129 -0.3745 -0.6279 -0.0952
  639MOL0     C84218  10.743   2.461   3.248 -0.5737  0.2281  1.2669
  639MOL0     O84219  10.636   2.498   3.329  0.5294 -0.5414  0.6822
  639MOL0     C84220  10.558   2.599   3.283  0.1977  0.4716  0.6670
  639MOL0     C84221  10.565   2.724   3.347 -0.3036  0.2140  0.2753
  639MOL0     C84222  10.490   2.833   3.297 -0.1570 -0.3107  0.6737
  639MOL0     C84223  10.395   2.805   3.194 -0.1740  0.2023 -0.2995
  639MOL0     O84224  10.315   2.916   3.167 -0.0856  0.2422  0.4488
  639MOL0     C84225  10.258   2.930   3.034 -0.0953  0.4717  0.6609
  639MOL0     C84226  10.194   3.072   3.011  0.6954  0.1187  1.1005
  639MOL0     C84227  10.096   3.119   3.115  0.5422 -0.2769 -0.3931
  639MOL0     C84228  10.053   3.267   3.068  0.1130  1.3735  0.3563
  639MOL0     C84229   9.942   3.329   3.141  0.6532  0.4336 -0.3954
  639MOL0     C84230   9.968   3.344   3.288 -0.9335 -0.2293 -0.1789
  639MOL0     C84231   9.852   3.411   3.370  0.2943  0.7178 -0.0778
  639MOL0     C84232   9.875   3.396   3.516 -0.6791 -0.6479 -0.4140
  639MOL0     N84233   9.751   3.444   3.590 -0.2848 -0.0839  0.4372
  639MOL0     C84234   9.707   3.568   3.601  0.2547  0.6619 -0.4671
  639MOL0     C84235   9.615   3.562   3.695 -0.2638  0.7171 -0.4932
  639MOL0     C84236   9.544   3.691   3.722  0.8313 -0.3955 -0.2228
  639MOL0     C84237   9.398   3.669   3.673  0.0216 -0.4793  0.0619
  639MOL0     C84238   9.318   3.581   3.766  0.1796 -0.2593 -0.2759
  639MOL0     C84239   9.168   3.576   3.750  0.3522  0.3346  0.1752
  639MOL0     O84240   9.106   3.695   3.803 -0.3648 -0.1783  0.4985
  639MOL0     C84241   9.011   3.744   3.726 -0.1067  0.2451 -0.3567
  639MOL0     C84242   9.037   3.818   3.606 -0.8542  0.4703  0.6333
  639MOL0     C84243   8.936   3.885   3.536  0.5966 -1.0998 -0.1586
  639MOL0     C84244   8.802   3.869   3.581  0.2747  0.0398 -0.5243
  639MOL0     C84245   8.682   3.940   3.517 -0.1500  0.2881  0.2384
  639MOL0     O84246   8.561   3.947   3.590 -0.5171  0.4893  0.1402
  639MOL0     C84247   8.444   3.972   3.522 -0.2191 -0.1311 -0.2821
  639MOL0     C84248   8.345   4.034   3.594  0.3957  0.0845  0.8566
  639MOL0     C84249   8.218   4.056   3.533 -0.2630 -0.3727 -1.1622
  639MOL0     C84250   8.199   4.019   3.400  0.8011  0.2078 -0.3477
  639MOL0     O84251   8.077   4.012   3.329  0.1850  0.3167  0.0357
  639MOL0     C84252   7.952   4.049   3.386  0.2168  0.6539 -0.6090
  639MOL0     C84253   7.848   4.035   3.277 -0.2446 -0.2180  0.6522
  639MOL0     C84254   7.711   4.078   3.330 -0.2218 -0.4443  0.0272
  639MOL0     C84255   7.613   4.105   3.222  0.3711  0.8241  0.2907
  639MOL0     C84256   7.479   4.163   3.272 -0.1516 -0.4657 -0.0798
  639MOL0     C84257   7.429   4.104   3.402 -0.4004 -1.2712 -0.4178
  639MOL0     C84258   7.299   4.169   3.446  0.1167  0.2256 -0.0964
  639MOL0     C84259   7.217   4.064   3.526 -0.1665  0.6331  0.5604
  639MOL0    Cl84260   7.175   3.921   3.423  0.0296  0.0073 -0.1167
  639MOL0     C84261   8.297   3.960   3.326  0.7416 -0.2414 -0.0591
  639MOL0     C84262   8.422   3.939   3.389  0.3611  0.7224  0.2811
  639MOL0     O84263   8.699   3.998   3.411 -0.5858  0.2213  0.1326
  639MOL0     C84264   8.774   3.779   3.690 -0.0410  0.0308 -0.2525
  639MOL0     C84265   8.880   3.720   3.761 -0.4162 -0.9500  0.0909
  639MOL0     N84266   9.608   3.434   3.744 -0.2280  0.0416 -0.4221
  639MOL0     N84267   9.692   3.358   3.675  0.1412 -0.4062 -0.3053
  639MOL0     C84268  10.391   2.684   3.130 -0.9282  0.7819  0.6009
  639MOL0     C84269  10.467   2.578   3.180  0.4028  0.8666 -0.2317
  639MOL0     C84270  10.831   2.358   3.303 -0.1094  0.2601  0.2272
  639MOL0     C84271  10.790   2.251   3.391 -0.2410 -0.1933 -0.4560
  639MOL0     C84272  10.883   2.151   3.429 -0.3166  0.5866 -0.0583
  639MOL0     C84273  11.013   2.148   3.397  0.3254  0.2790  0.2517
  639MOL0     O84274  11.086   2.050   3.445  0.3872  0.3787 -0.2718
  639MOL0     C84275  11.221   2.031   3.413 -0.9701 -0.5502 -0.2518
  639MOL0     C84276  11.322   2.122   3.496 -0.2838 -0.8382 -0.5398
  639MOL0     C84277  11.374   2.048   3.625  0.5651  0.6059 -0.4536
  639MOL0     C84278  11.491   1.951   3.592 -0.5517 -0.5273 -0.2430
  639MOL0     C84279  11.603   2.021   3.528  0.4528 -0.1148 -0.3841
  639MOL0     C84280  11.714   2.071   3.490  0.1458 -0.5188 -0.1215
  639MOL0     C84281  11.056   2.239   3.304  0.1085  0.5930 -0.6331
  639MOL0     C84282  10.970   2.346   3.265  0.3830  0.6778  0.0550
  639MOL0     H84283  10.641   2.755   3.417 -1.1188  0.7572  0.9482
  639MOL0     H84284  10.505   2.932   3.338 -1.7200  0.1967  0.0850
  639MOL0     H84285  10.193   2.846   3.010  0.8072  0.5336 -2.5081
  639MOL0     H84286  10.334   2.919   2.956 -2.8940 -2.5308 -1.9097
  639MOL0     H84287  10.165   3.073   2.906  1.4395  0.9813  0.8873
  639MOL0     H84288  10.276   3.145   3.022  0.9473 -0.0481  0.3428
  639MOL0     H84289  10.146   3.118   3.213 -2.7272  0.4006  1.4205
  639MOL0     H84290  10.012   3.049   3.116  1.5453 -1.5545 -1.3409
  639MOL0     H84291  10.140   3.330   3.089 -1.2938  3.2155  0.8975
  639MOL0     H84292  10.023   3.260   2.963 -0.8901 -0.2203  0.7187
  639MOL0     H84293   9.847   3.276   3.128 -0.2453  2.2848 -2.0078
  639MOL0     H84294   9.927   3.433   3.108  2.5698  0.4684 -1.3107
  639MOL0     H84295  10.051   3.413   3.306 -1.0506 -0.3674  0.9132
  639MOL0     H84296   9.994   3.248   3.332  2.2349 -0.2474 -1.8588
  639MOL0     H84297   9.841   3.516   3.341  1.0960  1.0715  0.8484
  639MOL0     H84298   9.758   3.360   3.348 -0.2405  1.6050  0.0959
  639MOL0     H84299   9.962   3.461   3.535 -0.8955  0.1103 -1.9098
  639MOL0     H84300   9.900   3.293   3.544 -1.7129 -0.6539  0.5849
  639MOL0     H84301   9.736   3.654   3.541 -2.8454  1.0126 -1.6153
  639MOL0     H84302   9.587   3.768   3.658  4.7047 -1.5497  0.7522
  639MOL0     H84303   9.542   3.729   3.824 -1.3430  1.2077 -0.7892
  639MOL0     H84304   9.400   3.627   3.572  0.1323  2.7589 -1.3851
  639MOL0     H84305   9.354   3.769   3.681  0.8810 -0.2040  1.8698
  639MOL0     H84306   9.364   3.481   3.770  1.0500  0.1011 -0.9249
  639MOL0     H84307   9.342   3.627   3.862  1.8202 -0.6851 -0.4459
  639MOL0     H84308   9.126   3.487   3.798  0.9851 -0.3544 -0.5204
  639MOL0     H84309   9.146   3.550   3.646  1.1313  0.1730  0.0450
  639MOL0     H84310   9.140   3.832   3.578 -0.7796  4.1681  2.1576
  639MOL0     H84311   8.945   3.956   3.453 -4.4199  1.8545  1.3643
  639MOL0     H84312   8.362   4.051   3.700  1.8342 -1.5301  0.9507
  639MOL0     H84313   8.133   4.096   3.588  0.4129 -0.0233 -0.3534
  639MOL0     H84314   7.949   4.149   3.429 -0.5618 -0.8031  3.0490
  639MOL0     H84315   7.934   3.977   3.466  0.7729  0.7994 -0.3506
  639MOL0     H84316   7.851   3.940   3.222  2.5614  0.0697  0.1328
  639MOL0     H84317   7.876   4.103   3.196  0.3700 -1.9680 -0.6891
  639MOL0     H84318   7.721   4.166   3.393  1.4371 -0.1798 -0.5590
  639MOL0     H84319   7.678   4.001   3.400  1.0779 -0.8641  0.2048
  639MOL0     H84320   7.661   4.162   3.142  1.1347 -0.3089 -0.0661
  639MOL0     H84321   7.596   4.010   3.172  0.3174  0.5703  0.7836
  639MOL0     H84322   7.412   4.156   3.186  1.6669 -0.0964 -1.6097
  639MOL0     H84323   7.492   4.270   3.289 -0.0656 -0.6712  1.2652
  639MOL0     H84324   7.491   4.135   3.487 -1.5256 -1.8725  0.6448
  639MOL0     H84325   7.426   3.995   3.400  1.1358 -1.7211  5.1663
  639MOL0     H84326   7.318   4.257   3.509  1.3186 -0.1413  0.0892
  639MOL0     H84327   7.239   4.208   3.364  2.5336  3.8930 -0.3191
  639MOL0     H84328   7.123   4.111   3.553  0.7417  1.7758  1.9023
  639MOL0     H84329   7.265   4.027   3.617  3.9952 -0.9807 -1.9510
  639MOL0     H84330   8.257   3.927   3.231 -4.9246 -0.7309  2.1240
  639MOL0     H84331   8.491   3.894   3.318 -1.0688  1.2039 -1.4818
  639MOL0     H84332   8.672   3.767   3.726  0.0415  3.2694  1.4891
  639MOL0     H84333   8.849   3.654   3.841 -3.3441 -0.3022 -0.3984
  639MOL0     H84334  10.315   2.660   3.056 -0.2954  1.7493 -0.4052
  639MOL0     H84335  10.456   2.477   3.142  1.0591  0.4989  0.5341
  639MOL0     H84336  10.686   2.237   3.419  0.2133 -2.0938  0.4955
  639MOL0     H84337  10.857   2.070   3.497  2.8240 -0.2765  0.2836
  639MOL0     H84338  11.240   2.067   3.312  1.6171  1.1807  0.7313
  639MOL0     H84339  11.257   1.930   3.433 -0.1499 -0.0965  0.6464
  639MOL0     H84340  11.396   2.167   3.429 -0.8257  1.3878  0.2681
  639MOL0     H84341  11.258   2.203   3.534 -0.8714 -1.1805 -0.7739
  639MOL0     H84342  11.283   2.004   3.667  0.6770  0.1894 -0.6363
  639MOL0     H84343  11.414   2.123   3.694  1.0783 -0.8123  0.8495
  639MOL0     H84344  11.525   1.901   3.683  0.1958  0.7652  0.2136
  639MOL0     H84345  11.444   1.875   3.529 -1.8180 -2.1385  2.4347
  639MOL0     H84346  11.804   2.113   3.450  2.5933 -4.9074  0.1512
  639MOL0     H84347  11.154   2.241   3.255 -0.4177  0.6914 -1.7170
  639MOL0     H84348  11.021   2.423   3.208  0.7908 -0.2705 -0.8999
  640MOL0     O84349   4.027   6.802   0.676  0.3293 -0.2483 -0.1727
  640MOL0     C84350   3.937   6.792   0.592  0.2405 -0.3622 -0.5850
  640MOL0     O84351   3.948   6.726   0.470 -0.3467 -0.5741 -0.3887
  640MOL0     C84352   4.068   6.663   0.449 -1.0754 -0.5107 -0.5631
  640MOL0     C84353   4.125   6.564   0.528 -0.1341 -0.5144  0.7082
  640MOL0     C84354   4.249   6.507   0.494  1.0640 -0.4027 -1.1107
  640MOL0     C84355   4.306   6.543   0.371 -0.5439 -0.1384 -0.1353
  640MOL0     O84356   4.419   6.469   0.350 -0.6118  0.0537  0.4205
  640MOL0     C84357   4.475   6.482   0.218 -0.0785  0.2549 -0.9986
  640MOL0     C84358   4.610   6.418   0.209  0.2613 -0.3393 -0.7762
  640MOL0     C84359   4.611   6.263   0.234 -0.7879 -0.3490 -0.1242
  640MOL0     C84360   4.755   6.201   0.222  0.0883  0.3174  0.0199
  640MOL0     C84361   4.748   6.053   0.274  0.1611 -0.4881  0.1909
  640MOL0     C84362   4.676   5.954   0.191  0.9395 -0.0889 -0.8167
  640MOL0     C84363   4.670   5.813   0.239 -0.5347  0.2694 -0.5013
  640MOL0     C84364   4.575   5.724   0.155  0.4782 -1.0778  0.0350
  640MOL0     N84365   4.443   5.779   0.117  0.4365 -0.0619 -0.8111
  640MOL0     C84366   4.407   5.879   0.028  0.1552  0.3329 -0.6932
  640MOL0     C84367   4.267   5.891   0.044  1.1906  0.3629  0.0800
  640MOL0     C84368   4.168   5.970  -0.036 -0.4439 -0.7830  0.0554
  640MOL0     C84369   4.092   6.064   0.056  0.6839  0.7856 -0.3076
  640MOL0     C84370   4.185   6.191   0.089  0.1282  0.1294 -0.5794
  640MOL0     C84371   4.133   6.291   0.179  0.0620  0.4683  0.1992
  640MOL0     O84372   4.015   6.348   0.114 -0.7499  0.0748 -0.6494
  640MOL0     C84373   3.902   6.380   0.188  0.0783 -0.6010 -0.3158
  640MOL0     C84374   3.795   6.432   0.113  0.0275  0.2330  0.1083
  640MOL0     C84375   3.676   6.476   0.176 -0.2148 -0.2777 -0.8347
  640MOL0     C84376   3.674   6.471   0.318  1.0289 -0.5775  0.4313
  640MOL0     C84377   3.548   6.533   0.375  0.5569  0.3752  1.1060
  640MOL0     O84378   3.432   6.563   0.294  0.2572 -0.7494  0.5840
  640MOL0     C84379   3.340   6.650   0.355 -0.2270  0.4871 -0.2956
  640MOL0     C84380   3.274   6.622   0.479 -0.8633  0.4210  1.2719
  640MOL0     C84381   3.182   6.705   0.539 -0.4568  0.5345 -0.6678
  640MOL0     C84382   3.143   6.823   0.473 -0.6752  0.8204  0.3885
  640MOL0     O84383   3.048   6.901   0.537  0.2094 -0.2821 -0.3386
  640MOL0     C84384   3.020   7.034   0.490  0.2987 -0.2259 -0.2885
  640MOL0     C84385   2.889   7.079   0.545  0.2020 -0.4974  0.5998
  640MOL0     C84386   2.897   7.104   0.687  0.0099 -0.0802  0.3014
  640MOL0     C84387   2.769   7.183   0.746 -0.7485  0.4138 -0.2093
  640MOL0     C84388   2.790   7.209   0.897  0.2465  0.9898 -0.5601
  640MOL0     C84389   2.661   7.268   0.962  0.0583  0.6805  0.2620
  640MOL0     C84390   2.682   7.275   1.112 -0.2700 -0.5111 -1.0043
  640MOL0     C84391   2.590   7.364   1.199  0.6124  0.2889  0.2504
  640MOL0    Cl84392   2.645   7.370   1.366  0.1660 -0.2636 -0.2264
  640MOL0     C84393   3.202   6.845   0.350  0.2407 -0.4802 -0.2890
  640MOL0     C84394   3.291   6.763   0.289 -0.1287 -0.5865  0.1611
  640MOL0     O84395   3.552   6.539   0.499  0.5116  0.5494  0.1005
  640MOL0     C84396   3.779   6.430   0.391 -0.3748  0.2595  0.7960
  640MOL0     C84397   3.897   6.380   0.329 -0.5980  0.0496  0.4487
  640MOL0     N84398   4.223   5.803   0.137 -0.2821 -0.8984 -1.2400
  640MOL0     N84399   4.330   5.740   0.189 -0.5746  0.0181 -0.3872
  640MOL0     C84400   4.249   6.644   0.288 -0.5221  0.3634 -0.7007
  640MOL0     C84401   4.129   6.697   0.328 -0.1075 -0.2972  0.4650
  640MOL0     C84402   3.827   6.879   0.616  0.8395 -0.3950  0.1697
  640MOL0     C84403   3.703   6.854   0.542 -0.5839 -0.3389 -0.5496
  640MOL0     C84404   3.585   6.921   0.573  0.6717  0.6355  0.7990
  640MOL0     C84405   3.583   7.021   0.674  0.0626  0.2517  0.1392
  640MOL0     O84406   3.468   7.083   0.713 -0.2122 -0.3739  1.1708
  640MOL0     C84407   3.344   7.013   0.705  0.2000 -0.3469  0.6883
  640MOL0     C84408   3.327   6.915   0.817  0.1316  0.1135 -1.0222
  640MOL0     C84409   3.281   6.985   0.952  0.2312 -0.0449 -0.3983
  640MOL0     C84410   3.133   6.956   0.984 -0.6987 -0.1042 -0.0897
  640MOL0     C84411   3.105   7.036   1.104 -0.4206 -0.4267 -0.2970
  640MOL0     C84412   3.075   7.096   1.201 -0.2559 -0.2033 -0.2832
  640MOL0     C84413   3.706   7.060   0.732 -1.0969  0.2878  0.3941
  640MOL0     C84414   3.822   6.992   0.704  0.4955  1.1062  0.8595
  640MOL0     H84415   4.078   6.550   0.625  2.8756  1.6608  2.6349
  640MOL0     H84416   4.300   6.435   0.558  1.3154 -2.1116 -3.1343
  640MOL0     H84417   4.497   6.589   0.212  2.0561 -0.0030  0.9124
  640MOL0     H84418   4.403   6.444   0.145 -0.8305 -0.0219 -0.1366
  640MOL0     H84419   4.679   6.478   0.269 -1.6663  2.0462 -0.7824
  640MOL0     H84420   4.634   6.436   0.104 -1.3930  0.9220 -0.9908
  640MOL0     H84421   4.549   6.209   0.162  0.4395  1.3290 -2.5668
  640MOL0     H84422   4.567   6.240   0.332 -2.1736  1.1730 -0.3378
  640MOL0     H84423   4.783   6.212   0.116 -1.5763 -1.7567 -0.7168
  640MOL0     H84424   4.823   6.252   0.291  2.3981 -2.0263 -0.3846
  640MOL0     H84425   4.711   6.041   0.377  2.4547 -2.1514  0.9120
  640MOL0     H84426   4.852   6.019   0.270 -0.4059 -2.3851 -3.6613
  640MOL0     H84427   4.731   5.960   0.097  3.8188 -2.0051  0.6162
  640MOL0     H84428   4.574   5.992   0.181  1.2295  1.1375  0.5760
  640MOL0     H84429   4.773   5.781   0.257 -0.3506  1.6838  1.3005
  640MOL0     H84430   4.635   5.823   0.342  1.4939  2.6859  0.0353
  640MOL0     H84431   4.562   5.632   0.212  3.0382 -1.0709  0.7581
  640MOL0     H84432   4.632   5.704   0.063 -1.1054  1.0917 -1.5136
  640MOL0     H84433   4.483   5.923  -0.037  2.8433 -0.3711  1.7482
  640MOL0     H84434   4.109   5.895  -0.091  1.4960 -3.2925  1.1748
  640MOL0     H84435   4.233   6.023  -0.107  0.1299 -1.5200  0.0171
  640MOL0     H84436   4.066   6.012   0.148  1.2938  0.3236 -0.3898
  640MOL0     H84437   4.005   6.105   0.003  0.6318  1.8537  0.5670
  640MOL0     H84438   4.280   6.161   0.134 -1.4989 -3.2072  0.9903
  640MOL0     H84439   4.217   6.232  -0.008 -0.2350 -0.0310 -0.7689
  640MOL0     H84440   4.201   6.370   0.214  0.2379  1.3414 -1.9454
  640MOL0     H84441   4.101   6.237   0.269 -1.8236 -0.2660 -0.8527
  640MOL0     H84442   3.812   6.438   0.006 -0.7833 -1.5529 -0.1426
  640MOL0     H84443   3.594   6.508   0.113  0.8438  2.5081 -0.9407
  640MOL0     H84444   3.286   6.528   0.533 -3.5146 -1.5980 -1.3523
  640MOL0     H84445   3.146   6.684   0.639 -1.7411 -0.7406 -1.3479
  640MOL0     H84446   3.009   7.032   0.381 -1.3712 -0.0081 -0.1416
  640MOL0     H84447   3.094   7.107   0.523 -2.1758  2.4952 -0.4121
  640MOL0     H84448   2.819   6.999   0.518 -2.8141  2.0075  0.4814
  640MOL0     H84449   2.864   7.170   0.490  5.0352  0.3416 -0.6179
  640MOL0     H84450   2.987   7.162   0.707  0.7603 -1.2114  0.2854
  640MOL0     H84451   2.920   7.009   0.737 -0.2792 -0.2723  0.0749
  640MOL0     H84452   2.766   7.273   0.685  0.3216  2.0665  2.0329
  640MOL0     H84453   2.677   7.126   0.729  0.0773 -0.9424 -0.2868
  640MOL0     H84454   2.868   7.284   0.915 -0.3804  1.1220  2.1100
  640MOL0     H84455   2.816   7.114   0.944 -1.1528  0.1995 -1.3486
  640MOL0     H84456   2.570   7.209   0.949  0.9713 -0.2250 -2.8679
  640MOL0     H84457   2.634   7.366   0.922 -0.6192 -0.4189 -2.1057
  640MOL0     H84458   2.671   7.174   1.153 -0.5166 -0.1420 -0.1461
  640MOL0     H84459   2.784   7.304   1.138 -1.2716  2.8663 -0.3311
  640MOL0     H84460   2.492   7.315   1.201  0.6489  0.2190  0.3559
  640MOL0     H84461   2.582   7.466   1.162  1.4107  0.8792  1.6432
  640MOL0     H84462   3.182   6.936   0.294  0.9513  0.7714  1.4009
  640MOL0     H84463   3.320   6.794   0.189  2.2203  0.3840  1.0669
  640MOL0     H84464   3.770   6.423   0.499  0.9810  0.1293  0.9136
  640MOL0     H84465   3.977   6.358   0.398  0.5961  1.1985 -0.5199
  640MOL0     H84466   4.313   6.682   0.209 -0.1851 -3.0072 -2.2449
  640MOL0     H84467   4.073   6.769   0.269  2.1428  1.1379 -0.0469
  640MOL0     H84468   3.703   6.776   0.466 -1.2263 -0.4154 -0.4731
  640MOL0     H84469   3.492   6.890   0.527  2.0163 -3.5538  0.4343
  640MOL0     H84470   3.321   6.972   0.606  1.6882  2.7265 -1.0542
  640MOL0     H84471   3.269   7.092   0.713  0.2871  0.2089 -2.6785
  640MOL0     H84472   3.251   6.840   0.795 -1.2111 -0.6048  4.4162
  640MOL0     H84473   3.426   6.871   0.832  0.3462  1.4462  2.5646
  640MOL0     H84474   3.305   7.092   0.947 -2.7654  0.8377  1.6208
  640MOL0     H84475   3.339   6.933   1.029  1.0142 -1.2899 -1.7680
  640MOL0     H84476   3.078   6.992   0.897  0.1293  0.2539 -0.4782
  640MOL0     H84477   3.117   6.848   0.977  1.3341 -0.3598 -2.1368
  640MOL0     H84478   3.043   7.154   1.285 -1.4575  1.4183 -1.7941
  640MOL0     H84479   3.700   7.148   0.795  0.5116  1.8102 -1.4422
  640MOL0     H84480   3.911   7.027   0.757  0.5612 -0.0497  1.5431
  641MOL0     O84481   5.895   0.122   8.756 -0.2533 -0.9188 -0.0892
  641MOL0     C84482   5.836   0.144   8.654  0.4139  0.0047  0.5917
  641MOL0     O84483   5.894   0.203   8.543  0.2880 -0.2299 -0.4709
  641MOL0     C84484   6.019   0.243   8.556  0.2419  0.3851 -0.2711
  641MOL0     C84485   6.041   0.372   8.592  0.6802  0.6882  0.4738
  641MOL0     C84486   6.172   0.423   8.601 -0.2667 -0.1234 -0.1089
  641MOL0     C84487   6.283   0.331   8.587 -0.8363 -0.6607  0.2953
  641MOL0     O84488   6.408   0.374   8.608 -0.6345  0.5094  0.2345
  641MOL0     C84489   6.524   0.303   8.558 -0.6322 -1.0791 -0.8562
  641MOL0     C84490   6.653   0.387   8.574 -0.1547  0.8208  0.5429
  641MOL0     C84491   6.785   0.308   8.563 -0.6571 -0.6990  0.0658
  641MOL0     C84492   6.913   0.386   8.606 -0.9929 -0.7003 -0.2985
  641MOL0     C84493   7.043   0.294   8.590 -0.0418 -0.5981 -0.8043
  641MOL0     C84494   7.158   0.389   8.611 -0.3944 -0.5902 -1.1393
  641MOL0     C84495   7.284   0.303   8.607  0.5860 -1.0313 -0.0874
  641MOL0     C84496   7.351   0.278   8.749 -0.0607 -0.5788 -0.4393
  641MOL0     N84497   7.256   0.230   8.857  0.2002 -0.3630 -0.0283
  641MOL0     C84498   7.160   0.291   8.934 -0.8983 -0.4878  0.5460
  641MOL0     C84499   7.119   0.207   9.023  0.8379 -0.7727 -0.2367
  641MOL0     C84500   7.031   0.231   9.131 -0.3064 -0.0343  0.1817
  641MOL0     C84501   6.877   0.216   9.097  0.2851  0.7566 -0.1921
  641MOL0     C84502   6.824   0.250   8.964 -0.3915 -0.9855 -0.0869
  641MOL0     C84503   6.681   0.209   8.960  0.2299 -0.2959  0.9073
  641MOL0     O84504   6.607   0.238   9.078  0.3098 -0.5022 -1.0084
  641MOL0     C84505   6.490   0.165   9.083 -0.6830 -0.8397 -0.1416
  641MOL0     C84506   6.461   0.113   9.203  0.9563 -0.1165 -0.4958
  641MOL0     C84507   6.345   0.043   9.221  0.7660  0.7658 -1.2109
  641MOL0     C84508   6.244   0.024   9.122  0.6548 -0.3039 -0.3091
  641MOL0     C84509   6.117  -0.045   9.157  0.3617 -0.1945  0.0220
  641MOL0     O84510   6.037  -0.088   9.057 -0.2012  0.5028 -0.1254
  641MOL0     C84511   5.918  -0.146   9.085  0.2050 -0.3586  0.4948
  641MOL0     C84512   5.905  -0.270   9.157 -0.2565 -0.6263 -0.0810
  641MOL0     C84513   5.785  -0.329   9.177  0.9102  0.1463  0.2380
  641MOL0     C84514   5.670  -0.277   9.111 -1.2901  0.3909 -0.2506
  641MOL0     O84515   5.541  -0.316   9.130  0.0622 -0.4771 -0.2411
  641MOL0     C84516   5.530  -0.457   9.141  0.0852  0.1845  0.3144
  641MOL0     C84517   5.392  -0.519   9.120  0.6748  0.4550  0.2899
  641MOL0     C84518   5.268  -0.443   9.159  0.0298  1.6300 -0.5005
  641MOL0     C84519   5.229  -0.475   9.306 -0.6302 -0.4995  0.3535
  641MOL0     C84520   5.083  -0.525   9.328  0.4406 -0.4312 -0.4405
  641MOL0     C84521   5.035  -0.497   9.469 -0.4834 -0.9000  0.0073
  641MOL0     C84522   4.893  -0.540   9.491 -0.2440 -0.2217  0.3432
  641MOL0     C84523   4.830  -0.547   9.623 -0.3228 -0.3633 -0.0857
  641MOL0    Cl84524   4.650  -0.574   9.618 -0.1686  0.3946 -0.0483
  641MOL0     C84525   5.684  -0.160   9.030 -0.4171  0.0888 -1.3875
  641MOL0     C84526   5.806  -0.090   9.013  0.0478  0.7513 -0.1211
  641MOL0     O84527   6.090  -0.066   9.271 -0.5050  0.5916  0.3440
  641MOL0     C84528   6.282   0.067   8.997  0.5560  0.2822  0.7681
  641MOL0     C84529   6.396   0.144   8.979  0.4500 -0.0709 -0.1778
  641MOL0     N84530   7.179   0.089   9.001  0.3072  0.2879  0.7933
  641MOL0     N84531   7.247   0.104   8.892 -0.7864  0.2693 -0.5649
  641MOL0     C84532   6.255   0.197   8.542  0.3971  0.0742 -1.4843
  641MOL0     C84533   6.125   0.152   8.534 -0.2266 -0.3860 -0.4981
  641MOL0     C84534   5.687   0.133   8.649 -0.1889  0.2172 -0.0699
  641MOL0     C84535   5.625   0.032   8.719  0.3665  0.0259  0.1903
  641MOL0     C84536   5.489   0.024   8.727  0.1517 -0.4495 -0.1372
  641MOL0     C84537   5.411   0.123   8.666 -0.2150 -0.8436  0.2469
  641MOL0     O84538   5.274   0.127   8.671  0.6198 -0.7009 -0.4314
  641MOL0     C84539   5.208   0.040   8.761 -0.2105 -0.4471  0.3219
  641MOL0     C84540   5.061   0.088   8.768 -0.7708  0.4159  0.7376
  641MOL0     C84541   4.985   0.072   8.636 -0.0595 -0.4007 -0.0193
  641MOL0     C84542   4.943  -0.073   8.616 -0.0873  0.3069  0.1856
  641MOL0     C84543   4.857  -0.081   8.495  1.2399  0.0995 -0.7800
  641MOL0     C84544   4.778  -0.083   8.403  0.5222 -0.5523 -0.0901
  641MOL0     C84545   5.470   0.214   8.583 -0.2437  0.4368  0.0122
  641MOL0     C84546   5.615   0.225   8.578  0.5786 -0.4405  0.6614
  641MOL0     H84547   5.952   0.432   8.613 -0.6660 -1.2705  0.6398
  641MOL0     H84548   6.172   0.531   8.613 -2.2836 -0.0559 -0.2612
  641MOL0     H84549   6.522   0.282   8.451 -2.7316 -2.6210 -0.5631
  641MOL0     H84550   6.527   0.210   8.615 -0.0845 -0.1661  0.6661
  641MOL0     H84551   6.654   0.436   8.672  0.2551 -0.4595  1.2170
  641MOL0     H84552   6.658   0.468   8.501  0.3935  1.1287  0.9136
  641MOL0     H84553   6.783   0.267   8.462  1.9882  0.3857 -0.5108
  641MOL0     H84554   6.784   0.233   8.643  1.6936  1.1318  1.9865
  641MOL0     H84555   6.926   0.470   8.536 -4.1012 -0.8907 -1.2774
  641MOL0     H84556   6.917   0.404   8.713  0.9134 -1.2628 -0.2416
  641MOL0     H84557   7.051   0.248   8.491  3.7413 -0.9568 -0.4737
  641MOL0     H84558   7.038   0.225   8.674  0.0110  1.0641  0.6337
  641MOL0     H84559   7.147   0.437   8.709  2.5906 -0.5724 -0.7205
  641MOL0     H84560   7.153   0.465   8.533  0.6748  0.3992 -0.2867
  641MOL0     H84561   7.254   0.210   8.558  1.3479 -0.7923 -1.0300
  641MOL0     H84562   7.355   0.347   8.537 -1.7014 -1.3334 -2.7796
  641MOL0     H84563   7.413   0.361   8.785  0.0904 -0.1419 -1.6373
  641MOL0     H84564   7.427   0.200   8.740  0.8978  0.1635  0.8400
  641MOL0     H84565   7.129   0.395   8.930 -1.5296 -0.6964 -0.3117
  641MOL0     H84566   7.046   0.331   9.173 -0.4285  0.7998 -1.6705
  641MOL0     H84567   7.054   0.162   9.213 -3.9275 -1.4218  0.2300
  641MOL0     H84568   6.833   0.278   9.175  1.7627 -1.7219  2.8291
  641MOL0     H84569   6.856   0.115   9.134  1.8304  0.9902  1.4421
  641MOL0     H84570   6.824   0.358   8.943 -2.5514 -0.4490  2.1404
  641MOL0     H84571   6.887   0.197   8.892  4.1015  2.3259  0.9089
  641MOL0     H84572   6.697   0.101   8.951  2.3950  0.0009  0.5927
  641MOL0     H84573   6.633   0.259   8.875  0.8312  0.0255  0.7531
  641MOL0     H84574   6.536   0.136   9.278  1.2363  0.7809 -1.0369
  641MOL0     H84575   6.323   0.008   9.321 -3.0602  2.5121 -1.2694
  641MOL0     H84576   5.994  -0.326   9.184 -2.2007 -2.4941  3.0098
  641MOL0     H84577   5.787  -0.422   9.233  0.2654 -0.0377 -0.0307
  641MOL0     H84578   5.555  -0.481   9.245  0.9713 -0.4725 -0.0328
  641MOL0     H84579   5.603  -0.503   9.073 -2.9705 -0.3475 -2.8969
  641MOL0     H84580   5.394  -0.620   9.164  0.0262 -0.3275 -1.3972
  641MOL0     H84581   5.381  -0.524   9.011 -0.0983 -3.7719  0.3820
  641MOL0     H84582   5.189  -0.480   9.093  1.6760 -2.1334 -0.6435
  641MOL0     H84583   5.281  -0.335   9.154  2.2375  1.4888  0.7974
  641MOL0     H84584   5.302  -0.547   9.342  0.0510  0.1529  0.3182
  641MOL0     H84585   5.245  -0.379   9.356  0.5872 -0.0930 -0.7530
  641MOL0     H84586   5.066  -0.629   9.299  2.0359 -0.5305 -1.1335
  641MOL0     H84587   5.020  -0.465   9.262  1.2320  1.0334  0.0995
  641MOL0     H84588   5.040  -0.393   9.501 -2.5790 -0.0377 -2.1584
  641MOL0     H84589   5.095  -0.554   9.541 -0.2524 -0.1170  0.4461
  641MOL0     H84590   4.830  -0.475   9.430 -0.8153 -1.5014 -0.4733
  641MOL0     H84591   4.886  -0.644   9.456  0.3375 -0.1393 -0.0487
  641MOL0     H84592   4.858  -0.459   9.682  0.5237  0.4934 -1.6937
  641MOL0     H84593   4.869  -0.634   9.676  2.8453  2.2805  2.3482
  641MOL0     H84594   5.593  -0.126   8.982  1.5364  2.6801 -3.5784
  641MOL0     H84595   5.813  -0.003   8.948  0.5376 -0.2613 -1.4682
  641MOL0     H84596   6.208   0.053   8.920  1.7213  0.8730 -0.5069
  641MOL0     H84597   6.421   0.193   8.886  1.9695  1.4070  0.9486
  641MOL0     H84598   6.341   0.133   8.530  1.0044  0.2094  1.5077
  641MOL0     H84599   6.109   0.051   8.497  0.9370 -0.6386 -0.3426
  641MOL0     H84600   5.691  -0.038   8.769  1.1190  0.5341 -0.0826
  641MOL0     H84601   5.447  -0.057   8.785  5.1063 -2.0913  1.5872
  641MOL0     H84602   5.259   0.051   8.857  1.2901 -0.5191 -0.4489
  641MOL0     H84603   5.202  -0.060   8.716 -1.8661  1.0603 -3.1788
  641MOL0     H84604   5.015   0.030   8.847  1.3600 -1.9506  0.3922
  641MOL0     H84605   5.069   0.195   8.792  2.0343  0.6175 -0.5746
  641MOL0     H84606   5.020   0.128   8.549 -0.8324 -1.1994 -0.8743
  641MOL0     H84607   4.890   0.119   8.662  0.4713 -0.4606  2.2668
  641MOL0     H84608   5.030  -0.135   8.596  0.2644  0.1388  2.0774
  641MOL0     H84609   4.890  -0.104   8.706 -1.4247  0.2855 -0.5728
  641MOL0     H84610   4.720  -0.100   8.314  1.3065 -1.2816 -0.4847
  641MOL0     H84611   5.406   0.280   8.526  1.0935 -1.2972 -3.8039
  641MOL0     H84612   5.643   0.311   8.519 -3.7629 -0.2877 -1.5414
  642MOL0     O84613  11.180   3.773   3.086 -0.2868 -0.8907 -0.3485
  642MOL0     C84614  11.153   3.858   3.171  0.3357  0.1559 -0.1897
  642MOL0     O84615  11.240   3.915   3.252 -0.6035 -0.2686  0.8050
  642MOL0     C84616  11.373   3.882   3.253  0.7504 -0.3443 -0.0078
  642MOL0     C84617  11.457   3.851   3.133  0.1224 -0.9584 -0.6811
  642MOL0     C84618  11.591   3.818   3.159  0.4859 -0.4937 -0.1678
  642MOL0     C84619  11.653   3.811   3.286 -0.3084  0.1731  1.1141
  642MOL0     O84620  11.785   3.769   3.320  0.8588 -0.0547 -0.0723
  642MOL0     C84621  11.871   3.726   3.207 -0.5096 -0.1684 -0.7582
  642MOL0     C84622  12.017   3.721   3.237 -0.1885  0.3088 -0.5039
  642MOL0     C84623  12.060   3.586   3.316 -0.1382 -0.1139  0.2504
  642MOL0     C84624  12.207   3.600   3.356 -0.0908 -0.0093  0.8293
  642MOL0     C84625  12.264   3.460   3.383 -0.1872  0.4527  1.0848
  642MOL0     C84626  12.175   3.378   3.482  0.4635  0.3051  0.9066
  642MOL0     C84627  12.254   3.257   3.536 -0.3757  0.4243 -1.1755
  642MOL0     C84628  12.399   3.274   3.582 -0.1516  0.6888 -0.5619
  642MOL0     N84629  12.445   3.153   3.650 -0.1751 -0.0491 -0.5545
  642MOL0     C84630  12.502   3.051   3.583 -0.6242 -0.4392 -0.4036
  642MOL0     C84631  12.542   2.970   3.677 -0.2621 -1.0653  0.3981
  642MOL0     C84632  12.599   2.841   3.666 -0.5821  1.3463  0.3317
  642MOL0     C84633  12.501   2.726   3.663 -0.2160 -0.7418 -0.3989
  642MOL0     C84634  12.414   2.708   3.788 -0.5286  0.5497 -0.3891
  642MOL0     C84635  12.263   2.734   3.782  0.5348  0.0317 -0.2030
  642MOL0     O84636  12.197   2.659   3.895 -0.5876 -0.5637 -0.1999
  642MOL0     C84637  12.064   2.669   3.898  0.3354  0.4868  0.4609
  642MOL0     C84638  11.986   2.667   3.784  0.3295  0.1001 -0.0946
  642MOL0     C84639  11.845   2.693   3.779 -0.8109 -0.5201 -0.8590
  642MOL0     C84640  11.779   2.732   3.893  0.3918  0.0902 -0.1259
  642MOL0     C84641  11.634   2.757   3.897 -0.3116 -0.6305 -0.3159
  642MOL0     O84642  11.574   2.788   4.013  0.6878  0.2180  0.6541
  642MOL0     C84643  11.437   2.780   4.015 -0.2370  0.0264  0.2076
  642MOL0     C84644  11.368   2.866   3.922 -0.1781 -0.7333 -0.8412
  642MOL0     C84645  11.228   2.858   3.916 -0.0492  0.3636  0.3425
  642MOL0     C84646  11.159   2.775   4.009 -1.1670  0.8959 -0.0282
  642MOL0     O84647  11.025   2.745   4.007 -0.4185 -0.1941  0.3000
  642MOL0     C84648  10.941   2.847   3.944 -0.2424 -0.7741 -1.0479
  642MOL0     C84649  10.932   2.960   4.039 -0.4540 -0.6369  0.9310
  642MOL0     C84650  10.813   3.065   3.997  0.0020  0.0578  0.6677
  642MOL0     C84651  10.760   3.157   4.111  0.1269 -0.4953  0.5992
  642MOL0     C84652  10.660   3.258   4.048  1.2062  0.1501  0.0239
  642MOL0     C84653  10.559   3.295   4.149  0.5136  0.4545  0.0155
  642MOL0     C84654  10.456   3.382   4.063 -0.3814 -0.2239 -0.2705
  642MOL0     C84655  10.325   3.410   4.147 -0.6261 -0.0746 -0.2776
  642MOL0    Cl84656  10.363   3.494   4.303 -0.1901 -0.0371 -0.2378
  642MOL0     C84657  11.231   2.706   4.104 -0.0641  0.9154 -0.0350
  642MOL0     C84658  11.372   2.705   4.098 -0.4136  0.3798  0.1385
  642MOL0     O84659  11.578   2.721   3.797  0.6620  0.4780 -0.3862
  642MOL0     C84660  11.857   2.751   4.010 -0.0680  0.2064  0.9489
  642MOL0     C84661  12.001   2.715   4.013 -0.0878 -0.6732  0.2729
  642MOL0     N84662  12.515   3.032   3.802  0.8096 -0.3589 -0.6315
  642MOL0     N84663  12.449   3.139   3.780  0.5717 -0.1915 -0.1087
  642MOL0     C84664  11.576   3.839   3.395  0.2993 -0.2799  0.0997
  642MOL0     C84665  11.437   3.879   3.381  0.0970  0.5498 -0.6553
  642MOL0     C84666  11.012   3.896   3.182 -0.7158  0.2287 -0.6264
  642MOL0     C84667  10.965   3.985   3.284 -0.6527  0.1072 -0.0763
  642MOL0     C84668  10.836   4.033   3.288  0.2219  0.5149 -0.1417
  642MOL0     C84669  10.749   3.986   3.188  0.1798 -0.2933  0.1669
  642MOL0     O84670  10.617   4.025   3.172 -0.6260 -0.1514  0.0991
  642MOL0     C84671  10.529   3.959   3.266 -0.3355 -0.9794 -0.3083
  642MOL0     C84672  10.468   3.835   3.209  0.0198 -0.0783  0.2983
  642MOL0     C84673  10.315   3.847   3.188  0.8941  0.3596  0.2612
  642MOL0     C84674  10.242   3.727   3.121  0.1564  0.2031 -0.4626
  642MOL0     C84675  10.093   3.744   3.134  0.5058  0.7149  0.3367
  642MOL0     C84676   9.967   3.742   3.112 -0.5971  0.7677  0.0516
  642MOL0     C84677  10.793   3.896   3.094  0.1932  0.0685 -0.3317
  642MOL0     C84678  10.926   3.843   3.088 -0.0130  0.3104 -0.3693
  642MOL0     H84679  11.418   3.844   3.032 -0.3399 -0.9276 -0.5049
  642MOL0     H84680  11.651   3.795   3.072  1.4173 -1.7506  0.7676
  642MOL0     H84681  11.863   3.801   3.128  2.4313  0.7528 -0.2936
  642MOL0     H84682  11.836   3.630   3.168  1.3825 -0.8959 -0.7696
  642MOL0     H84683  12.063   3.809   3.284 -0.4948 -1.6621  4.0522
  642MOL0     H84684  12.069   3.708   3.142 -0.3341 -2.3366 -0.2865
  642MOL0     H84685  12.052   3.506   3.242  3.4124  0.5907 -1.0764
  642MOL0     H84686  11.997   3.570   3.404 -0.6434 -2.6090 -0.4971
  642MOL0     H84687  12.263   3.645   3.274 -0.2634 -3.2731 -1.2510
  642MOL0     H84688  12.211   3.664   3.445 -0.3151  0.0038  0.8326
  642MOL0     H84689  12.365   3.469   3.422 -0.1650  0.4490  1.0277
  642MOL0     H84690  12.269   3.407   3.288 -0.4735 -0.8820  1.7847
  642MOL0     H84691  12.090   3.345   3.422  1.8952 -2.2095  0.1108
  642MOL0     H84692  12.163   3.443   3.569  3.8545  0.7743  1.1715
  642MOL0     H84693  12.185   3.214   3.609 -1.4877 -1.2120 -3.0858
  642MOL0     H84694  12.247   3.170   3.470 -0.8433 -2.0370  1.8877
  642MOL0     H84695  12.397   3.360   3.649 -0.2786  0.6615 -0.5300
  642MOL0     H84696  12.461   3.307   3.499  1.2986  2.5018  1.1589
  642MOL0     H84697  12.507   3.042   3.475 -0.9323 -2.0753 -0.3025
  642MOL0     H84698  12.676   2.840   3.744 -1.0509 -0.1464  0.8283
  642MOL0     H84699  12.656   2.831   3.573 -1.5288  0.6878 -0.1890
  642MOL0     H84700  12.559   2.634   3.653 -0.9815 -1.3847  0.7584
  642MOL0     H84701  12.434   2.737   3.578  0.4303  1.4551 -0.6989
  642MOL0     H84702  12.424   2.609   3.836  0.8859  0.3499 -1.0490
  642MOL0     H84703  12.445   2.777   3.867 -2.7679  1.4712 -0.2373
  642MOL0     H84704  12.231   2.698   3.684  2.8792  2.2574 -1.9142
  642MOL0     H84705  12.251   2.843   3.783 -0.7991  0.0090  3.5168
  642MOL0     H84706  12.036   2.642   3.691  1.1108 -1.4023  0.6884
  642MOL0     H84707  11.804   2.686   3.679  2.7980  0.1772 -2.5416
  642MOL0     H84708  11.426   2.926   3.853 -1.7460  0.9055 -0.7837
  642MOL0     H84709  11.163   2.899   3.839 -0.4243  0.7204  0.8416
  642MOL0     H84710  10.838   2.808   3.944 -1.3441  1.8827  0.4024
  642MOL0     H84711  10.975   2.894   3.851  1.0238 -3.1261 -1.8516
  642MOL0     H84712  11.024   3.018   4.048 -0.8345  0.2560 -0.5986
  642MOL0     H84713  10.896   2.918   4.134  0.4524  0.9480  2.0111
  642MOL0     H84714  10.723   3.008   3.971 -0.0795  0.3780  0.2368
  642MOL0     H84715  10.850   3.129   3.916 -2.2027  0.1418 -0.3543
  642MOL0     H84716  10.706   3.093   4.182 -1.2315 -0.4491 -0.3475
  642MOL0     H84717  10.840   3.213   4.160 -1.1060  1.1151  0.8628
  642MOL0     H84718  10.604   3.204   3.971 -1.0207  1.4707  0.6455
  642MOL0     H84719  10.704   3.351   4.011 -0.6938  0.6127 -1.1900
  642MOL0     H84720  10.606   3.351   4.230 -1.8776  0.9051  1.1802
  642MOL0     H84721  10.504   3.206   4.183 -0.8087  1.3945  0.4075
  642MOL0     H84722  10.515   3.474   4.053 -1.1600  0.1612 -1.5733
  642MOL0     H84723  10.425   3.334   3.970  0.9050 -2.8369  0.5633
  642MOL0     H84724  10.277   3.317   4.176  0.9236 -0.9290 -0.3461
  642MOL0     H84725  10.246   3.457   4.087  1.2473  1.4590 -1.7241
  642MOL0     H84726  11.171   2.647   4.173 -0.3699 -0.3639 -1.3376
  642MOL0     H84727  11.441   2.647   4.157  0.1772 -0.2455 -1.1229
  642MOL0     H84728  11.810   2.783   4.102  0.0368 -1.8143  1.7350
  642MOL0     H84729  12.055   2.747   4.101 -0.0276  0.4437 -0.1548
  642MOL0     H84730  11.630   3.840   3.489  2.1045  0.7855 -0.9023
  642MOL0     H84731  11.378   3.891   3.471 -0.1369 -1.7598 -0.4517
  642MOL0     H84732  11.035   4.034   3.351 -0.1269  1.0331 -1.2508
  642MOL0     H84733  10.801   4.101   3.364  1.6469  1.2134 -0.0988
  642MOL0     H84734  10.450   4.030   3.296  0.5551 -0.3597  0.6192
  642MOL0     H84735  10.577   3.937   3.362 -2.6062  0.3844  1.2508
  642MOL0     H84736  10.521   3.819   3.114 -0.6753 -0.9932  0.0520
  642MOL0     H84737  10.494   3.760   3.284  2.0141  1.5180  1.2778
  642MOL0     H84738  10.305   3.940   3.131  1.4810  0.6096  0.5558
  642MOL0     H84739  10.272   3.850   3.288 -1.2583  0.6268 -0.6179
  642MOL0     H84740  10.284   3.717   3.021 -0.2036  0.1653 -0.6139
  642MOL0     H84741  10.260   3.641   3.186 -0.8235  0.6886  0.4973
  642MOL0     H84742   9.862   3.739   3.091 -1.1330  1.4500  2.4458
  642MOL0     H84743  10.726   3.881   3.010 -2.0595 -1.7878  1.6594
  642MOL0     H84744  10.952   3.773   3.010  0.1650  2.1099 -1.9819
  643MOL0     O84745   7.782   3.762   7.454  0.1694  0.0940  0.1951
  643MOL0     C84746   7.816   3.701   7.555 -0.7725  0.2110  0.2001
  643MOL0     O84747   7.735   3.681   7.657 -0.9890 -0.0989  0.7816
  643MOL0     C84748   7.619   3.754   7.674 -0.4735 -0.1547  0.7678
  643MOL0     C84749   7.573   3.869   7.609 -0.1667  0.7652 -0.7667
  643MOL0     C84750   7.453   3.934   7.651  0.5200 -0.2151  0.3624
  643MOL0     C84751   7.380   3.900   7.760  0.2457  0.0125  0.2278
  643MOL0     O84752   7.279   3.968   7.819 -0.1791  0.2334  0.3648
  643MOL0     C84753   7.151   3.948   7.762  0.6990 -0.2009  0.1195
  643MOL0     C84754   7.072   4.067   7.804  0.0797 -0.1012  0.3676
  643MOL0     C84755   7.109   4.199   7.726  0.1605  0.4061 -0.6394
  643MOL0     C84756   7.015   4.317   7.758 -0.1613 -0.5150  0.4188
  643MOL0     C84757   7.083   4.455   7.739  0.3007  0.1854 -0.0992
  643MOL0     C84758   7.125   4.477   7.597  0.3708 -1.0179 -0.8122
  643MOL0     C84759   7.170   4.625   7.586  0.0232 -0.8001 -0.3530
  643MOL0     C84760   7.064   4.733   7.574  0.0622 -0.4891 -0.0889
  643MOL0     N84761   6.978   4.716   7.459  0.0017 -0.5876  0.4805
  643MOL0     C84762   7.031   4.733   7.334  0.6333  0.1444 -0.0865
  643MOL0     C84763   6.943   4.673   7.255  0.3923  0.6072 -0.9801
  643MOL0     C84764   6.948   4.662   7.105  0.3275  0.1135  0.2908
  643MOL0     C84765   6.918   4.800   7.039  0.0112 -0.4677  0.7402
  643MOL0     C84766   6.764   4.819   7.014 -0.5819 -1.1062 -0.0166
  643MOL0     C84767   6.699   4.700   6.944  0.0620 -0.6672 -0.2256
  643MOL0     O84768   6.758   4.643   6.828  0.3516 -0.1175 -0.6460
  643MOL0     C84769   6.724   4.713   6.718 -0.0604 -0.1428  0.2617
  643MOL0     C84770   6.617   4.663   6.645 -0.2680  0.6690  0.2890
  643MOL0     C84771   6.575   4.724   6.530  0.5275 -0.1198  1.2708
  643MOL0     C84772   6.665   4.814   6.464  0.5214  0.5860  0.0016
  643MOL0     C84773   6.617   4.869   6.337 -0.2450  0.6247 -0.0148
  643MOL0     O84774   6.665   4.990   6.311 -1.0711  0.7696  1.0453
  643MOL0     C84775   6.609   5.067   6.209 -0.1996 -0.1652  0.7271
  643MOL0     C84776   6.671   5.066   6.079  0.2173  0.0242 -0.6895
  643MOL0     C84777   6.647   5.175   5.983 -0.4895  0.1762 -1.1870
  643MOL0     C84778   6.556   5.281   6.015  0.0195 -0.6741 -0.0051
  643MOL0     O84779   6.523   5.382   5.931  0.3128 -0.5404 -0.3133
  643MOL0     C84780   6.506   5.361   5.786 -0.0478  0.8553  0.3630
  643MOL0     C84781   6.392   5.445   5.735 -0.0610  0.1499  0.2476
  643MOL0     C84782   6.264   5.424   5.823 -0.4238 -0.3809 -0.2317
  643MOL0     C84783   6.148   5.497   5.778 -0.1385 -0.4530  0.4951
  643MOL0     C84784   6.087   5.453   5.635 -0.6697  0.7364  0.2298
  643MOL0     C84785   5.965   5.539   5.602 -0.1480 -0.2813 -0.3280
  643MOL0     C84786   5.939   5.548   5.457 -0.1815  0.2538  1.2701
  643MOL0     C84787   5.911   5.412   5.389  0.7139  0.3142  0.1807
  643MOL0    Cl84788   5.902   5.435   5.216 -0.0311 -0.1445 -0.2179
  643MOL0     C84789   6.493   5.268   6.138  0.3521  1.4050 -0.3643
  643MOL0     C84790   6.511   5.162   6.231 -0.0909  0.1612  0.6503
  643MOL0     O84791   6.551   4.801   6.259  0.3458 -0.5635  0.2240
  643MOL0     C84792   6.770   4.864   6.541 -0.8842  0.3213 -0.6765
  643MOL0     C84793   6.799   4.822   6.672 -0.8731  0.5770 -0.5348
  643MOL0     N84794   6.835   4.638   7.338  0.9025 -0.6006  1.1111
  643MOL0     N84795   6.854   4.653   7.453 -0.3739 -0.2882  0.0834
  643MOL0     C84796   7.422   3.777   7.825 -0.2307  0.2537  0.7202
  643MOL0     C84797   7.541   3.714   7.776  0.2181  0.0072 -0.9382
  643MOL0     C84798   7.954   3.662   7.566 -0.4807 -0.5654  0.7659
  643MOL0     C84799   8.038   3.672   7.454  0.0047 -0.5279 -0.4293
  643MOL0     C84800   8.168   3.623   7.464  0.0435  0.0993  0.7356
  643MOL0     C84801   8.221   3.578   7.581  0.6446  0.2957 -0.2387
  643MOL0     O84802   8.351   3.531   7.562 -0.0391  0.1991 -0.9524
  643MOL0     C84803   8.413   3.473   7.676 -0.3119  0.3684 -0.1697
  643MOL0     C84804   8.554   3.442   7.633  0.6436  0.2701 -1.0672
  643MOL0     C84805   8.639   3.398   7.748 -0.0531 -0.0314 -0.8125
  643MOL0     C84806   8.787   3.373   7.711 -0.2068 -0.6390 -0.0918
  643MOL0     C84807   8.810   3.271   7.613  0.0730  0.0556  0.5852
  643MOL0     C84808   8.811   3.185   7.531 -0.4167  0.5444 -1.0482
  643MOL0     C84809   8.148   3.576   7.704 -0.8138 -0.7385  0.4923
  643MOL0     C84810   8.008   3.617   7.691  0.1407 -0.5444  0.7050
  643MOL0     H84811   7.630   3.922   7.533 -2.9899  1.4308 -2.5761
  643MOL0     H84812   7.423   4.020   7.591 -0.2877 -0.8085 -0.1004
  643MOL0     H84813   7.106   3.857   7.802 -0.3115 -0.1603 -0.8520
  643MOL0     H84814   7.151   3.945   7.653  0.4151  1.5021  0.0411
  643MOL0     H84815   7.079   4.076   7.913 -3.0538 -1.7722  0.8345
  643MOL0     H84816   6.965   4.053   7.786 -1.0213  2.7111  3.7117
  643MOL0     H84817   7.127   4.182   7.619 -1.1810  1.0386 -0.9829
  643MOL0     H84818   7.205   4.222   7.774 -0.4843  0.1728  0.8080
  643MOL0     H84819   6.940   4.312   7.678  0.9853  3.1195 -1.0660
  643MOL0     H84820   6.970   4.304   7.857  1.2443 -1.6233  0.9428
  643MOL0     H84821   7.171   4.471   7.801  1.2292  0.5367 -1.4467
  643MOL0     H84822   7.011   4.531   7.771  1.1347  0.5153  1.0625
  643MOL0     H84823   7.037   4.461   7.534 -0.0313 -1.7082 -0.0937
  643MOL0     H84824   7.208   4.412   7.567  2.8742  2.1303 -1.2508
  643MOL0     H84825   7.234   4.645   7.673  1.4457 -1.1184 -1.2973
  643MOL0     H84826   7.230   4.630   7.495  0.5549  1.5196  0.0721
  643MOL0     H84827   7.123   4.825   7.568  1.1621 -1.2311 -0.9760
  643MOL0     H84828   7.005   4.734   7.666 -1.6297 -1.4257 -1.1191
  643MOL0     H84829   7.128   4.776   7.310 -0.4370  2.8823  0.1009
  643MOL0     H84830   6.880   4.578   7.085 -0.0199  0.1983  1.0975
  643MOL0     H84831   7.051   4.631   7.083  1.4184  2.8673  1.0959
  643MOL0     H84832   6.975   4.795   6.946 -0.0288  0.1541  0.6801
  643MOL0     H84833   6.953   4.884   7.098 -0.0287  1.2470 -1.5455
  643MOL0     H84834   6.712   4.844   7.107  0.3258 -1.6123  0.6338
  643MOL0     H84835   6.745   4.914   6.961  2.3490  2.2368  4.2176
  643MOL0     H84836   6.596   4.731   6.925 -0.8222 -1.4943  2.8053
  643MOL0     H84837   6.691   4.626   7.023 -1.4357 -1.0634 -0.7203
  643MOL0     H84838   6.575   4.567   6.671  0.5975  0.7787  2.3048
  643MOL0     H84839   6.482   4.679   6.498  0.0154  0.4884  1.8743
  643MOL0     H84840   6.740   4.986   6.056  1.2107  0.7341 -0.2088
  643MOL0     H84841   6.708   5.192   5.895 -1.3263  1.9078 -1.4835
  643MOL0     H84842   6.485   5.255   5.770  3.0192  0.0376  1.2116
  643MOL0     H84843   6.599   5.377   5.731  0.5589 -2.1968  0.3273
  643MOL0     H84844   6.381   5.427   5.628  1.5411  2.3007 -0.3431
  643MOL0     H84845   6.416   5.551   5.740 -1.9546  0.7435 -1.6997
  643MOL0     H84846   6.299   5.474   5.914  3.6618 -0.6725 -1.4333
  643MOL0     H84847   6.253   5.320   5.855  0.9320  0.3988  3.2093
  643MOL0     H84848   6.075   5.483   5.859  1.3578  0.5081  2.0932
  643MOL0     H84849   6.181   5.601   5.776 -2.1148  0.2510  1.4033
  643MOL0     H84850   6.063   5.347   5.633  0.7446  0.4009  0.5083
  643MOL0     H84851   6.163   5.465   5.558 -0.6149  2.9853  0.5436
  643MOL0     H84852   5.985   5.637   5.645 -0.4214 -0.3361 -0.0761
  643MOL0     H84853   5.883   5.513   5.669 -0.7631  1.0652 -0.5305
  643MOL0     H84854   5.854   5.614   5.435 -1.1716 -1.2883  0.3099
  643MOL0     H84855   6.027   5.593   5.411  0.7413  0.2671  2.9711
  643MOL0     H84856   5.821   5.366   5.431  0.6140 -0.9074 -1.2926
  643MOL0     H84857   5.995   5.350   5.419 -0.1746 -1.4102 -0.7745
  643MOL0     H84858   6.419   5.341   6.171  0.3591  1.1356  0.2705
  643MOL0     H84859   6.466   5.177   6.329  0.3230  1.6981  0.6314
  643MOL0     H84860   6.839   4.934   6.495 -1.4901  0.3489 -1.5764
  643MOL0     H84861   6.882   4.865   6.726 -0.7349  0.3273 -0.5495
  643MOL0     H84862   7.372   3.734   7.911 -2.3090  1.0724 -0.0113
  643MOL0     H84863   7.563   3.629   7.840 -1.3158  2.7584  3.7587
  643MOL0     H84864   8.011   3.723   7.363 -0.8803 -1.5618 -0.7664
  643MOL0     H84865   8.225   3.624   7.372 -1.3664  1.6938 -0.1674
  643MOL0     H84866   8.362   3.385   7.718  0.5283  0.0521  0.2170
  643MOL0     H84867   8.415   3.543   7.760 -3.0252  0.1344  0.1827
  643MOL0     H84868   8.548   3.374   7.548 -2.4560  2.4076 -2.7434
  643MOL0     H84869   8.597   3.538   7.601  0.8222  1.7991  3.0668
  643MOL0     H84870   8.606   3.304   7.793  3.2555 -0.1532  1.7520
  643MOL0     H84871   8.621   3.474   7.825  0.2643 -0.1086 -0.6617
  643MOL0     H84872   8.844   3.458   7.671  0.8382 -0.7971  1.0296
  643MOL0     H84873   8.827   3.338   7.807 -1.4543  2.1848  1.5788
  643MOL0     H84874   8.814   3.115   7.451 -0.6316 -0.0697 -0.5287
  643MOL0     H84875   8.183   3.540   7.799 -0.4525 -0.3899  0.4967
  643MOL0     H84876   7.947   3.624   7.780 -0.9069  0.4693 -0.0642
  644MOL0     O84877   5.759   8.080   5.407  0.1910 -0.9300  0.7074
  644MOL0     C84878   5.706   8.099   5.294  0.1777  0.7427  0.2596
  644MOL0     O84879   5.585   8.152   5.275  0.5128 -0.2046 -0.2752
  644MOL0     C84880   5.505   8.175   5.392 -0.2673 -0.6140  0.4685
  644MOL0     C84881   5.438   8.294   5.391 -0.3325 -0.3040  0.3321
  644MOL0     C84882   5.376   8.341   5.507 -0.8828  0.1988 -0.5226
  644MOL0     C84883   5.372   8.262   5.626  0.0169 -0.8091  0.7249
  644MOL0     O84884   5.328   8.304   5.751 -0.0544  0.2315 -0.0088
  644MOL0     C84885   5.206   8.377   5.759 -0.6335  0.3822  0.5678
  644MOL0     C84886   5.162   8.388   5.910  0.2748 -0.3213 -0.6816
  644MOL0     C84887   5.024   8.439   5.923 -0.0739  0.8026  0.1465
  644MOL0     C84888   4.919   8.347   5.857  0.5312  0.0526  0.1269
  644MOL0     C84889   4.774   8.360   5.913  0.4684  0.2730 -0.1862
  644MOL0     C84890   4.672   8.339   5.804 -0.6005 -0.5571 -1.3102
  644MOL0     C84891   4.540   8.358   5.866  0.9645 -0.2309  1.1275
  644MOL0     C84892   4.424   8.379   5.760  0.2045 -0.6562 -0.6369
  644MOL0     N84893   4.285   8.364   5.805  1.1007 -0.3628 -0.0163
  644MOL0     C84894   4.243   8.240   5.855 -1.1890 -0.3710 -0.6004
  644MOL0     C84895   4.110   8.249   5.865 -0.1883 -0.1120 -0.1149
  644MOL0     C84896   4.019   8.143   5.911  0.0888 -0.0565  0.0576
  644MOL0     C84897   3.888   8.189   5.982  0.5068 -0.2027 -0.0380
  644MOL0     C84898   3.805   8.060   5.997 -0.1171  0.0267  0.3303
  644MOL0     C84899   3.663   8.105   6.041  0.8944  0.2053 -0.0278
  644MOL0     O84900   3.590   7.987   6.093  0.0835 -0.0040 -0.6404
  644MOL0     C84901   3.461   8.000   6.150  0.1035 -0.1912  0.6847
  644MOL0     C84902   3.368   8.105   6.107 -0.8787 -0.1545 -0.1254
  644MOL0     C84903   3.239   8.084   6.142  0.2763  0.0021  0.1362
  644MOL0     C84904   3.200   7.981   6.231  0.6625  0.5685  0.6436
  644MOL0     C84905   3.058   7.979   6.289 -0.0314 -0.7260 -0.2704
  644MOL0     O84906   3.003   7.861   6.308  0.5867 -0.8362  0.4423
  644MOL0     C84907   2.880   7.861   6.371  0.7255  0.0058 -0.5554
  644MOL0     C84908   2.870   7.797   6.503 -0.7568 -0.6783 -0.3832
  644MOL0     C84909   2.738   7.770   6.561  0.0966  0.2458 -0.5096
  644MOL0     C84910   2.620   7.819   6.496  0.2787  0.1366  0.2602
  644MOL0     O84911   2.504   7.786   6.558  0.6749  0.3212  0.6753
  644MOL0     C84912   2.373   7.806   6.481 -0.6122 -0.1267  0.2051
  644MOL0     C84913   2.261   7.795   6.580 -0.1434 -0.1905  0.4543
  644MOL0     C84914   2.132   7.778   6.498 -0.3468 -0.1041  0.0983
  644MOL0     C84915   2.015   7.763   6.597 -0.0296 -0.0817 -0.4878
  644MOL0     C84916   1.886   7.732   6.523 -0.4907  0.1024  0.3778
  644MOL0     C84917   1.905   7.618   6.420 -0.4829 -0.4157  0.4622
  644MOL0     C84918   1.774   7.556   6.401  0.6683  0.5810  0.1923
  644MOL0     C84919   1.782   7.410   6.445 -0.4463 -0.2542  0.9407
  644MOL0    Cl84920   1.890   7.320   6.331  0.1584  0.0408 -0.7555
  644MOL0     C84921   2.638   7.875   6.362 -0.1638  0.1761 -0.7244
  644MOL0     C84922   2.763   7.905   6.307 -0.7290 -0.4768 -0.4004
  644MOL0     O84923   3.006   8.086   6.318  0.8815 -0.5718 -0.1004
  644MOL0     C84924   3.289   7.878   6.250  0.0346 -0.0220  0.0996
  644MOL0     C84925   3.423   7.899   6.234  0.5406 -0.6616  0.8950
  644MOL0     N84926   4.075   8.370   5.817 -0.0608  0.3363 -0.0543
  644MOL0     N84927   4.177   8.434   5.773  0.6096 -0.1289 -0.5901
  644MOL0     C84928   5.439   8.141   5.620  0.0903  0.2560 -0.5487
  644MOL0     C84929   5.511   8.097   5.509 -0.0608  0.3920 -0.1671
  644MOL0     C84930   5.774   8.056   5.173 -0.3606 -0.1487 -0.4497
  644MOL0     C84931   5.711   8.063   5.048 -0.4338 -0.3961  0.7224
  644MOL0     C84932   5.780   8.026   4.931  0.9027 -0.5263  0.0572
  644MOL0     C84933   5.911   7.985   4.937 -0.0758  0.0768 -0.4078
  644MOL0     O84934   5.979   7.948   4.822  0.4577 -1.0091 -0.4890
  644MOL0     C84935   5.944   8.009   4.698  0.3617 -1.1827 -0.4028
  644MOL0     C84936   6.061   7.954   4.604 -0.3310 -1.3779 -0.3717
  644MOL0     C84937   6.195   8.015   4.654  0.2512 -0.3410  0.9292
  644MOL0     C84938   6.316   7.950   4.588 -0.0418 -0.1579 -0.6566
  644MOL0     C84939   6.344   7.815   4.643 -0.6114 -0.0326  0.1135
  644MOL0     C84940   6.354   7.708   4.697  0.9442 -0.0275  0.5065
  644MOL0     C84941   5.968   7.959   5.066 -0.5928 -0.9960  0.0189
  644MOL0     C84942   5.907   8.010   5.182  0.1291 -0.4492 -0.4242
  644MOL0     H84943   5.457   8.369   5.315  0.4788  1.0731  1.8451
  644MOL0     H84944   5.330   8.439   5.505 -1.5762 -0.1075 -0.0642
  644MOL0     H84945   5.133   8.314   5.708  3.1346 -3.5786 -0.5440
  644MOL0     H84946   5.215   8.480   5.721 -0.5221  1.3768  3.0646
  644MOL0     H84947   5.229   8.451   5.970  0.3015 -2.6700  1.9671
  644MOL0     H84948   5.159   8.287   5.952  2.6954  0.2929  1.2511
  644MOL0     H84949   5.018   8.540   5.881  0.1837  1.3840  1.4638
  644MOL0     H84950   5.001   8.458   6.028 -3.5548 -0.7285 -0.1978
  644MOL0     H84951   4.917   8.385   5.755  1.5245 -0.4040 -0.0729
  644MOL0     H84952   4.962   8.247   5.848  2.8078  1.1262 -1.9102
  644MOL0     H84953   4.763   8.459   5.958 -0.4255 -1.4370  3.7524
  644MOL0     H84954   4.757   8.277   5.982 -1.3712  0.1681 -0.7127
  644MOL0     H84955   4.693   8.238   5.768 -1.0574 -2.8224  3.9498
  644MOL0     H84956   4.686   8.415   5.726 -2.8242  1.4514  0.0899
  644MOL0     H84957   4.513   8.274   5.930  2.3891 -3.8456 -2.5415
  644MOL0     H84958   4.533   8.450   5.924  0.3417  0.3431  0.1691
  644MOL0     H84959   4.424   8.306   5.680 -3.1875  0.3968 -1.7531
  644MOL0     H84960   4.432   8.472   5.703  1.9637 -0.0627  0.4667
  644MOL0     H84961   4.311   8.161   5.884 -1.2658 -0.4432 -0.6196
  644MOL0     H84962   4.084   8.090   5.981 -0.2850  0.0728  0.5124
  644MOL0     H84963   3.995   8.072   5.831 -1.7347  0.9290 -0.3190
  644MOL0     H84964   3.834   8.267   5.926  0.3746  0.5548  1.1099
  644MOL0     H84965   3.909   8.215   6.086  1.4102 -0.7557 -0.0717
  644MOL0     H84966   3.775   8.009   5.905 -0.8914  1.7919 -0.4483
  644MOL0     H84967   3.848   7.985   6.064  4.0605  1.8685 -0.0119
  644MOL0     H84968   3.603   8.145   5.959 -1.8744  0.6390  2.0769
  644MOL0     H84969   3.656   8.181   6.120  0.6039  2.3877 -2.0456
  644MOL0     H84970   3.410   8.187   6.050  2.0226 -2.6575 -1.9351
  644MOL0     H84971   3.161   8.153   6.110  0.6773  1.5088  2.2270
  644MOL0     H84972   2.962   7.759   6.546 -0.8945 -1.0088 -0.3807
  644MOL0     H84973   2.732   7.707   6.649 -0.7719 -0.5272 -1.1009
  644MOL0     H84974   2.361   7.727   6.405  1.8453  1.0624 -1.5607
  644MOL0     H84975   2.382   7.907   6.441  1.4821 -0.4329 -0.2427
  644MOL0     H84976   2.255   7.886   6.641 -0.7449  0.3613 -0.3922
  644MOL0     H84977   2.285   7.701   6.630 -0.5117 -1.7660 -2.1700
  644MOL0     H84978   2.150   7.702   6.422  0.1642  0.2923 -0.1810
  644MOL0     H84979   2.108   7.861   6.431 -1.9251 -1.8505 -1.6316
  644MOL0     H84980   2.043   7.677   6.659 -3.7367 -2.6563 -2.0037
  644MOL0     H84981   2.003   7.856   6.654 -0.7107 -0.3214 -0.2366
  644MOL0     H84982   1.852   7.823   6.473 -1.1604 -0.5301 -0.3460
  644MOL0     H84983   1.808   7.702   6.594 -2.3312  0.5275 -1.3847
  644MOL0     H84984   1.988   7.548   6.435  1.3350  0.9148 -2.4232
  644MOL0     H84985   1.939   7.663   6.326  0.8531  0.3914  1.2982
  644MOL0     H84986   1.698   7.608   6.461 -0.0818 -0.1920 -0.0651
  644MOL0     H84987   1.747   7.558   6.295  1.4933  1.3147 -0.0185
  644MOL0     H84988   1.683   7.365   6.455 -1.5004  2.0511  1.5713
  644MOL0     H84989   1.815   7.404   6.549 -0.1563  0.7948  0.9252
  644MOL0     H84990   2.553   7.871   6.294 -0.8942  0.5290  0.1491
  644MOL0     H84991   2.775   7.949   6.208 -1.9247 -0.2020 -0.4411
  644MOL0     H84992   3.248   7.797   6.311 -0.2779  0.6050  0.7371
  644MOL0     H84993   3.500   7.833   6.272  3.0192  1.1372 -0.6738
  644MOL0     H84994   5.435   8.075   5.706  0.1043  0.4571 -0.3944
  644MOL0     H84995   5.557   7.999   5.519 -1.0730 -0.3372 -2.1386
  644MOL0     H84996   5.607   8.094   5.041 -0.1937  0.3308  0.1805
  644MOL0     H84997   5.728   8.030   4.836 -1.5792 -2.1202  1.2355
  644MOL0     H84998   5.951   8.118   4.705 -1.6472 -0.9427 -1.5544
  644MOL0     H84999   5.847   7.986   4.653  0.3499 -1.9115 -0.0205
  644MOL0     H85000   6.067   7.844   4.606 -1.7046 -1.4671 -0.3746
  644MOL0     H85001   6.044   7.979   4.500 -0.2101 -2.2454 -0.6105
  644MOL0     H85002   6.208   8.008   4.762 -0.0493 -0.1822  0.9747
  644MOL0     H85003   6.200   8.122   4.629 -0.0333 -0.4566  0.3499
  644MOL0     H85004   6.299   7.941   4.481  2.0711 -0.1821 -1.0265
  644MOL0     H85005   6.403   8.014   4.606 -0.1575 -0.8194  3.1768
  644MOL0     H85006   6.357   7.608   4.736  0.6028 -0.2097  0.0754
  644MOL0     H85007   6.066   7.913   5.068 -0.5903 -0.9766  0.2941
  644MOL0     H85008   5.951   8.005   5.281 -0.6755 -1.7854 -0.1110
  645MOL0     O85009   2.161   4.984  11.072  1.0740  0.5029 -0.1948
  645MOL0     C85010   2.270   4.979  11.125 -0.0335 -0.9885  0.4211
  645MOL0     O85011   2.336   4.865  11.171  0.2795 -0.4214  0.0956
  645MOL0     C85012   2.284   4.737  11.175 -0.0482 -0.2962 -1.1471
  645MOL0     C85013   2.355   4.653  11.250 -0.7847  0.3714 -0.6142
  645MOL0     C85014   2.319   4.524  11.265  0.4433 -0.6789  0.0235
  645MOL0     C85015   2.212   4.466  11.194 -0.3772  0.2297 -0.9572
  645MOL0     O85016   2.186   4.337  11.219 -0.4011  0.7279  0.2434
  645MOL0     C85017   2.054   4.281  11.218  0.5074 -0.5046 -0.5992
  645MOL0     C85018   2.066   4.138  11.245  0.6498 -0.2632 -0.2462
  645MOL0     C85019   2.015   4.116  11.379 -0.5549  0.0808  0.2667
  645MOL0     C85020   2.107   4.154  11.494 -0.2885 -0.4375  0.0873
  645MOL0     C85021   2.050   4.099  11.626  0.0079 -0.3070  0.2218
  645MOL0     C85022   1.930   4.175  11.659 -0.7159 -0.3215  0.5413
  645MOL0     C85023   1.866   4.132  11.789  0.5437  0.8402  0.1532
  645MOL0     C85024   1.737   4.212  11.808  0.5454 -0.7691 -1.0007
  645MOL0     N85025   1.675   4.213  11.940 -0.6505 -0.2775  0.5305
  645MOL0     C85026   1.674   4.114  12.042 -0.5657  0.2825  0.3873
  645MOL0     C85027   1.569   4.155  12.124 -0.5675  0.1013  0.0072
  645MOL0     C85028   1.535   4.076  12.247 -0.1246  0.1637 -0.9266
  645MOL0     C85029   1.385   4.084  12.295 -0.2817  0.0772  0.1585
  645MOL0     C85030   1.320   3.941  12.308 -0.8874 -0.5584 -0.8204
  645MOL0     C85031   1.169   3.953  12.298  0.2598  0.6757  0.2632
  645MOL0     O85032   1.129   3.911  12.165 -0.2856  0.2531 -0.1615
  645MOL0     C85033   0.997   3.883  12.136 -0.2699  0.3712  0.0095
  645MOL0     C85034   0.961   3.845  12.009  0.2842 -0.3719  0.1664
  645MOL0     C85035   0.839   3.782  11.977  0.3238 -0.6802 -0.1936
  645MOL0     C85036   0.739   3.785  12.083  0.2768 -0.5546  0.9122
  645MOL0     C85037   0.598   3.737  12.055  0.4961 -0.5181  0.7338
  645MOL0     O85038   0.562   3.691  11.933 -0.5742  0.1528  0.2949
  645MOL0     C85039   0.435   3.634  11.927  0.2736  0.3444 -0.5715
  645MOL0     C85040   0.402   3.517  12.000  0.9590 -0.2089  0.3411
  645MOL0     C85041   0.268   3.473  12.012  0.7881  0.3799  0.4690
  645MOL0     C85042   0.160   3.534  11.950 -0.1048 -0.6747 -0.0027
  645MOL0     O85043   0.035   3.476  11.945 -0.7819 -0.6151 -0.1193
  645MOL0     C85044   0.026   3.342  11.984  0.9341  0.2189 -0.0805
  645MOL0     C85045  -0.107   3.281  11.933  0.4456  0.2795  0.1759
  645MOL0     C85046  -0.238   3.354  11.976 -0.4298 -0.3928  0.4998
  645MOL0     C85047  -0.241   3.363  12.128 -0.4415 -0.5933  0.3360
  645MOL0     C85048  -0.374   3.415  12.183  0.0210  0.3102 -0.2264
  645MOL0     C85049  -0.392   3.401  12.338  0.3623  0.2496  0.3197
  645MOL0     C85050  -0.497   3.494  12.397  0.9989  0.0481  0.7065
  645MOL0     C85051  -0.518   3.467  12.549 -0.9903 -0.3143  0.6310
  645MOL0    Cl85052  -0.647   3.347  12.575 -0.1289 -0.6924 -0.2175
  645MOL0     C85053   0.193   3.655  11.889 -0.8793 -0.3498  0.0636
  645MOL0     C85054   0.328   3.705  11.872  0.4636  0.1178  0.2610
  645MOL0     O85055   0.529   3.731  12.154  0.4714 -0.3879  0.3474
  645MOL0     C85056   0.767   3.840  12.206 -0.8245  0.6121  0.2585
  645MOL0     C85057   0.896   3.886  12.231 -0.4660 -0.0490  0.5382
  645MOL0     N85058   1.528   4.278  12.087 -0.0279  0.7340 -0.4149
  645MOL0     N85059   1.585   4.306  11.975  0.6227 -0.1966  0.1088
  645MOL0     C85060   2.136   4.551  11.117 -0.4304 -0.0200 -0.3100
  645MOL0     C85061   2.172   4.687  11.105  0.0428  1.2603 -0.6952
  645MOL0     C85062   2.337   5.117  11.123 -0.3666  0.4186  0.1627
  645MOL0     C85063   2.481   5.136  11.117  0.6695  0.0955  0.6559
  645MOL0     C85064   2.540   5.257  11.093  0.6536 -0.8983  0.1469
  645MOL0     C85065   2.458   5.372  11.108  0.3565  0.5582  0.6019
  645MOL0     O85066   2.525   5.494  11.111  0.4691  0.1325  0.9643
  645MOL0     C85067   2.460   5.613  11.156  0.2608  0.7173  0.0611
  645MOL0     C85068   2.525   5.742  11.111 -0.1451 -0.6726  0.5116
  645MOL0     C85069   2.679   5.743  11.115  0.4497 -0.0002 -0.5394
  645MOL0     C85070   2.720   5.883  11.069 -0.0413  0.3945  0.4185
  645MOL0     C85071   2.864   5.893  11.062 -0.0641  0.5139  0.6187
  645MOL0     C85072   2.985   5.907  11.087  1.0414  0.0858  0.0165
  645MOL0     C85073   2.317   5.353  11.126  0.1293 -0.5107  0.1087
  645MOL0     C85074   2.259   5.222  11.119 -0.0342 -0.3236 -0.0959
  645MOL0     H85075   2.444   4.697  11.296 -1.6873  2.4149 -0.7073
  645MOL0     H85076   2.389   4.463  11.322 -0.3449 -2.1274 -0.5066
  645MOL0     H85077   2.014   4.287  11.116  2.9648 -0.7545 -1.6530
  645MOL0     H85078   1.990   4.329  11.292  0.6430 -1.2587  0.0127
  645MOL0     H85079   2.165   4.100  11.219  0.4993  0.4932 -2.0619
  645MOL0     H85080   2.008   4.092  11.164  3.6321 -0.6425 -2.3343
  645MOL0     H85081   2.000   4.007  11.384 -2.5585  0.2552 -0.8648
  645MOL0     H85082   1.920   4.169  11.391 -1.4985 -1.2908 -0.8171
  645MOL0     H85083   2.207   4.109  11.488  0.4904  1.1424  0.5314
  645MOL0     H85084   2.123   4.262  11.491 -0.5323 -0.3616  1.2074
  645MOL0     H85085   2.129   4.098  11.702  0.8981 -0.0927 -0.6686
  645MOL0     H85086   2.018   3.996  11.610 -1.2124  0.0142  0.4755
  645MOL0     H85087   1.851   4.168  11.583  1.2407 -1.3190 -1.4969
  645MOL0     H85088   1.967   4.277  11.666  0.5401 -0.3699 -3.2789
  645MOL0     H85089   1.834   4.027  11.783 -3.0022  1.7659  0.5128
  645MOL0     H85090   1.945   4.133  11.864  1.7646 -5.0180 -0.5519
  645MOL0     H85091   1.646   4.179  11.758 -1.1199 -0.8592  1.8715
  645MOL0     H85092   1.757   4.316  11.780 -0.2708 -0.7866 -1.6624
  645MOL0     H85093   1.747   4.037  12.062 -0.8908 -0.0138  0.4481
  645MOL0     H85094   1.602   4.105  12.328  2.2392 -0.9962 -2.3724
  645MOL0     H85095   1.553   3.970  12.230 -0.4670 -0.2047  0.8040
  645MOL0     H85096   1.334   4.127  12.208 -1.9940 -3.5434 -0.8157
  645MOL0     H85097   1.373   4.154  12.378  1.3861  0.1267  0.3943
  645MOL0     H85098   1.359   3.865  12.239 -2.0778 -2.6997  0.7396
  645MOL0     H85099   1.336   3.891  12.403 -0.9207 -0.3511 -0.7062
  645MOL0     H85100   1.130   4.053  12.315  1.8442  1.6160 -1.3505
  645MOL0     H85101   1.114   3.890  12.369 -0.4450  1.6675  0.6046
  645MOL0     H85102   1.028   3.864  11.925 -0.0964  1.6192  0.2633
  645MOL0     H85103   0.814   3.763  11.873 -0.0608 -1.4449  0.0297
  645MOL0     H85104   0.483   3.475  12.058  0.5919  2.3452  2.9408
  645MOL0     H85105   0.254   3.386  12.075  2.0425  0.3365  0.7300
  645MOL0     H85106   0.019   3.334  12.093 -1.5852 -1.0188 -0.2819
  645MOL0     H85107   0.111   3.281  11.952  0.7012  0.7336 -1.7897
  645MOL0     H85108  -0.108   3.179  11.972  1.1256 -0.6340 -2.0545
  645MOL0     H85109  -0.101   3.277  11.824 -0.3158  2.1904  0.0228
  645MOL0     H85110  -0.325   3.297  11.943 -2.1053  2.1727  0.2126
  645MOL0     H85111  -0.245   3.455  11.933  0.0856 -0.0866  1.1005
  645MOL0     H85112  -0.238   3.260  12.165  0.1825 -0.1085  1.7065
  645MOL0     H85113  -0.168   3.431  12.173  0.1129  0.9508 -2.6658
  645MOL0     H85114  -0.463   3.378  12.131 -1.9863  3.0253  1.0552
  645MOL0     H85115  -0.367   3.522  12.164  0.4527  0.0773 -1.4977
  645MOL0     H85116  -0.299   3.434  12.385 -2.2198  2.6973  4.2811
  645MOL0     H85117  -0.421   3.298  12.356 -1.3395  0.6346 -0.0322
  645MOL0     H85118  -0.457   3.595  12.391  2.9298 -0.7524 -1.5167
  645MOL0     H85119  -0.587   3.469  12.341  0.5937  0.6761  1.0634
  645MOL0     H85120  -0.542   3.564  12.594  1.2613  0.9751 -0.7403
  645MOL0     H85121  -0.423   3.434  12.591 -0.5403  0.1046 -0.0366
  645MOL0     H85122   0.117   3.718  11.845  0.2819  2.2590  1.5821
  645MOL0     H85123   0.363   3.790  11.814 -0.7502  1.1368  0.9770
  645MOL0     H85124   0.698   3.839  12.289  0.2293  0.3499  1.1548
  645MOL0     H85125   0.920   3.919  12.332  2.9474  2.1064 -0.8030
  645MOL0     H85126   2.042   4.517  11.076 -0.6174  1.1955 -0.9401
  645MOL0     H85127   2.127   4.751  11.030  1.7162  0.9365 -2.0518
  645MOL0     H85128   2.539   5.045  11.124  0.0565 -0.3111  0.6073
  645MOL0     H85129   2.645   5.269  11.071  0.5773 -0.7112 -0.1237
  645MOL0     H85130   2.470   5.608  11.265  1.2130 -1.1900 -0.0786
  645MOL0     H85131   2.356   5.618  11.122  0.4941 -0.1853 -0.8203
  645MOL0     H85132   2.502   5.751  11.005  0.3195  1.5453  0.5555
  645MOL0     H85133   2.476   5.823  11.165 -0.7176 -0.7953  0.1793
  645MOL0     H85134   2.720   5.661  11.056 -3.9955 -0.6420 -3.1474
  645MOL0     H85135   2.709   5.732  11.219 -2.0356  0.7856  0.3243
  645MOL0     H85136   2.670   5.901  10.974 -2.3968  0.1191  1.5284
  645MOL0     H85137   2.679   5.959  11.136 -1.7439 -0.1944  0.1021
  645MOL0     H85138   3.089   5.918  11.110  1.5028 -2.1354 -0.8014
  645MOL0     H85139   2.245   5.434  11.127  2.6888  1.9061 -0.1307
  645MOL0     H85140   2.152   5.208  11.127  0.3545 -3.7815  0.4850
  646MOL0     O85141   0.145   2.129  10.631 -0.0738 -0.3974  0.3123
  646MOL0     C85142   0.216   2.041  10.588 -0.4539 -0.2319  0.3725
  646MOL0     O85143   0.180   1.937  10.510 -0.6922  0.1027  0.3381
  646MOL0     C85144   0.044   1.901  10.477  0.1837 -0.6901  0.0860
  646MOL0     C85145  -0.044   2.011  10.436  0.2398 -0.3355  0.3545
  646MOL0     C85146  -0.175   1.980  10.414 -0.4747 -0.2157  0.1308
  646MOL0     C85147  -0.226   1.852  10.427  0.3436 -0.0139 -0.5306
  646MOL0     O85148  -0.362   1.830  10.398  0.3332 -0.0172  1.0719
  646MOL0     C85149  -0.406   1.722  10.320 -1.1557  0.6870  0.9152
  646MOL0     C85150  -0.543   1.744  10.265  0.8946  0.4650  0.3208
  646MOL0     C85151  -0.652   1.754  10.368  0.5553 -0.0911  0.4544
  646MOL0     C85152  -0.796   1.742  10.313  0.5039 -0.4467  0.4286
  646MOL0     C85153  -0.826   1.854  10.214  0.9150  0.5348  0.6394
  646MOL0     C85154  -0.974   1.861  10.171 -0.5737  0.0007 -0.4055
  646MOL0     C85155  -0.991   1.939  10.035 -0.3497  0.0626  0.0087
  646MOL0     C85156  -1.131   1.961  10.008  0.5776 -0.3057  0.2458
  646MOL0     N85157  -1.139   2.025   9.880 -0.7741  0.2865  0.4808
  646MOL0     C85158  -1.114   1.972   9.756  0.4290 -0.1273 -0.0642
  646MOL0     C85159  -1.174   2.061   9.670  0.0793 -0.2747  0.4344
  646MOL0     C85160  -1.171   2.057   9.523  0.4741 -0.1220  0.2953
  646MOL0     C85161  -1.210   1.924   9.471 -0.4107  1.5872  0.6258
  646MOL0     C85162  -1.191   1.894   9.319  0.0865 -0.2955  1.0887
  646MOL0     C85163  -1.052   1.915   9.275 -0.3162 -0.9059  0.0895
  646MOL0     O85164  -1.044   1.890   9.133 -0.0299  0.4729 -0.0634
  646MOL0     C85165  -0.918   1.859   9.077 -0.2988  0.4296 -0.0986
  646MOL0     C85166  -0.917   1.800   8.947 -0.1965  0.3898 -0.7289
  646MOL0     C85167  -0.794   1.754   8.889  0.3578  0.6063 -0.3486
  646MOL0     C85168  -0.672   1.752   8.960 -0.2255 -0.2576 -0.2698
  646MOL0     C85169  -0.555   1.704   8.884  0.0870 -0.0283  0.1754
  646MOL0     O85170  -0.434   1.684   8.961 -0.2797 -0.8995 -0.0282
  646MOL0     C85171  -0.347   1.591   8.915  0.3054 -0.6526  0.1435
  646MOL0     C85172  -0.219   1.633   8.884 -0.4088 -0.0236  0.8770
  646MOL0     C85173  -0.124   1.537   8.837 -0.5811  0.7320 -0.6266
  646MOL0     C85174  -0.158   1.400   8.833  0.4049 -0.9340  0.4466
  646MOL0     O85175  -0.066   1.306   8.798  0.8031 -0.4372  0.1368
  646MOL0     C85176  -0.103   1.229   8.689 -0.1504 -0.0336  1.3034
  646MOL0     C85177   0.030   1.168   8.642 -0.2441  1.2223 -0.4431
  646MOL0     C85178   0.135   1.259   8.572 -0.0583  0.1462  0.2054
  646MOL0     C85179   0.245   1.178   8.511 -0.2863 -0.0574 -0.0401
  646MOL0     C85180   0.326   1.275   8.417  0.6712 -1.0158 -0.8942
  646MOL0     C85181   0.440   1.208   8.353  0.2843 -0.2211  0.5617
  646MOL0     C85182   0.519   1.311   8.270 -0.2982 -0.2287 -0.4039
  646MOL0     C85183   0.633   1.231   8.200 -1.1249  0.3716  0.0240
  646MOL0    Cl85184   0.759   1.170   8.316 -0.2250 -0.0316  0.1841
  646MOL0     C85185  -0.294   1.362   8.866  0.5719 -0.5978 -0.3116
  646MOL0     C85186  -0.387   1.455   8.915 -0.2889 -0.2317 -0.0307
  646MOL0     O85187  -0.572   1.665   8.769 -0.5558 -0.7223 -0.5749
  646MOL0     C85188  -0.671   1.809   9.094  0.1185 -0.2644  0.3948
  646MOL0     C85189  -0.792   1.856   9.150 -1.2855  0.2902  0.8289
  646MOL0     N85190  -1.233   2.168   9.744  0.2496  0.3216  0.0149
  646MOL0     N85191  -1.218   2.144   9.864 -1.3018 -0.3320 -0.1570
  646MOL0     C85192  -0.140   1.746  10.472 -0.2827 -0.4697  0.3555
  646MOL0     C85193  -0.002   1.774  10.487  0.2872 -0.3923 -0.1974
  646MOL0     C85194   0.356   2.038  10.640 -0.5735  0.1234  0.1527
  646MOL0     C85195   0.395   2.095  10.759 -0.4460 -0.2576 -0.7477
  646MOL0     C85196   0.519   2.069  10.821  0.4234 -0.5906 -0.6293
  646MOL0     C85197   0.619   2.000  10.748 -0.6892 -1.0057 -0.3084
  646MOL0     O85198   0.751   1.985  10.789 -0.6789  0.0356  0.1647
  646MOL0     C85199   0.795   2.079  10.889  0.2976 -0.7095 -0.9809
  646MOL0     C85200   0.950   2.076  10.908 -0.2624  1.0716 -0.8262
  646MOL0     C85201   0.983   2.155  11.040  0.0422  0.4066 -0.1377
  646MOL0     C85202   1.139   2.160  11.057  0.0250 -0.4898 -0.1317
  646MOL0     C85203   1.191   2.035  11.119 -0.5015  0.0499  0.4081
  646MOL0     C85204   1.260   1.944  11.159  0.1660 -0.1887  0.3877
  646MOL0     C85205   0.587   1.947  10.624  0.5432  0.2294  0.5038
  646MOL0     C85206   0.450   1.960  10.568 -0.0682 -0.0327  0.6000
  646MOL0     H85207  -0.008   2.112  10.420  0.2002 -0.2822  0.5934
  646MOL0     H85208  -0.242   2.059  10.382 -1.6360 -0.9667  0.6496
  646MOL0     H85209  -0.400   1.626  10.373 -0.6576  1.3199  2.0302
  646MOL0     H85210  -0.333   1.713  10.239 -0.6546 -1.1858  1.5179
  646MOL0     H85211  -0.569   1.669  10.190 -0.4897  1.4488 -0.2341
  646MOL0     H85212  -0.534   1.838  10.210  0.5304 -0.0486 -0.6417
  646MOL0     H85213  -0.652   1.852  10.417 -1.6711 -0.3333  1.0568
  646MOL0     H85214  -0.631   1.684  10.449  2.5339 -1.0550 -0.8160
  646MOL0     H85215  -0.805   1.643  10.267  0.2278 -0.7628  1.1554
  646MOL0     H85216  -0.858   1.735  10.402 -1.3920  0.4718 -0.7653
  646MOL0     H85217  -0.769   1.848  10.121 -0.8759  1.3159 -0.5692
  646MOL0     H85218  -0.802   1.953  10.256 -3.1057  2.0397 -0.1007
  646MOL0     H85219  -1.030   1.904  10.255  1.0848 -0.0282  0.7723
  646MOL0     H85220  -1.011   1.759  10.157 -1.9013  0.4519 -0.3472
  646MOL0     H85221  -0.951   2.037  10.063 -2.2619  0.4695  1.5997
  646MOL0     H85222  -0.942   1.909   9.943 -1.7789  0.0323 -0.7779
  646MOL0     H85223  -1.174   2.027  10.085  0.7329 -0.7753  0.7422
  646MOL0     H85224  -1.186   1.866  10.010  1.6991 -0.9656  0.1842
  646MOL0     H85225  -1.067   1.880   9.723  2.5785  1.0888 -0.5775
  646MOL0     H85226  -1.069   2.084   9.496  0.1327  0.2626 -0.6470
  646MOL0     H85227  -1.241   2.131   9.482  3.6014  1.6614 -2.2552
  646MOL0     H85228  -1.319   1.919   9.485 -0.4033  0.7047  0.3856
  646MOL0     H85229  -1.162   1.846   9.530 -0.1556  0.9156 -0.4492
  646MOL0     H85230  -1.217   1.789   9.299 -0.7056  0.0794  0.0503
  646MOL0     H85231  -1.251   1.952   9.248  2.0429  1.3694  0.6924
  646MOL0     H85232  -0.990   1.844   9.331  1.8559  0.8884  0.0572
  646MOL0     H85233  -1.026   2.018   9.300 -0.2813 -0.8068 -0.3413
  646MOL0     H85234  -1.008   1.784   8.890  0.2240 -0.3777 -1.2074
  646MOL0     H85235  -0.798   1.715   8.788 -0.3220  2.1239 -0.9427
  646MOL0     H85236  -0.189   1.737   8.889 -0.2238 -0.1306  2.9268
  646MOL0     H85237  -0.028   1.582   8.813  0.6240 -0.5410  1.4685
  646MOL0     H85238  -0.156   1.286   8.612  2.8093 -0.4017 -1.2036
  646MOL0     H85239  -0.160   1.149   8.737  0.2971 -0.6448  0.8276
  646MOL0     H85240   0.003   1.090   8.570  1.4705 -1.0099  1.1926
  646MOL0     H85241   0.060   1.121   8.736 -2.8230 -0.9604 -0.5904
  646MOL0     H85242   0.184   1.321   8.648  3.1142 -2.4813  0.5616
  646MOL0     H85243   0.088   1.317   8.492  2.2788  2.2795  0.2175
  646MOL0     H85244   0.307   1.134   8.589 -3.2560 -1.3851  1.7465
  646MOL0     H85245   0.207   1.093   8.455  1.8944 -1.2947  0.2420
  646MOL0     H85246   0.360   1.359   8.479 -0.7328  0.9925 -2.6833
  646MOL0     H85247   0.264   1.323   8.341  0.4964 -2.1568 -1.4934
  646MOL0     H85248   0.415   1.140   8.271  2.9858  1.0535 -1.4650
  646MOL0     H85249   0.500   1.150   8.425  1.2393 -1.5675 -1.2228
  646MOL0     H85250   0.451   1.342   8.190  1.4383  0.2558 -1.7570
  646MOL0     H85251   0.546   1.391   8.340  0.4011 -0.2746 -0.6161
  646MOL0     H85252   0.678   1.293   8.123  0.4622 -3.4104 -2.3471
  646MOL0     H85253   0.591   1.141   8.155  1.0011 -1.9044  2.2700
  646MOL0     H85254  -0.315   1.256   8.854  3.3881 -1.3948  0.9567
  646MOL0     H85255  -0.487   1.420   8.935 -1.3313  2.8146  0.6870
  646MOL0     H85256  -0.580   1.816   9.151 -0.1509  0.2496  0.7689
  646MOL0     H85257  -0.796   1.895   9.251  0.5556 -0.0693  1.0687
  646MOL0     H85258  -0.190   1.651  10.488 -1.1259 -0.6322 -2.6683
  646MOL0     H85259   0.066   1.701  10.529 -3.2025 -3.2929  0.9780
  646MOL0     H85260   0.328   2.151  10.824  0.6466  2.1479 -1.5773
  646MOL0     H85261   0.549   2.111  10.916  0.1280  0.6701 -1.0831
  646MOL0     H85262   0.734   2.060  10.978 -1.3841 -0.2166 -1.9897
  646MOL0     H85263   0.754   2.178  10.868 -0.1794 -0.7117 -0.1224
  646MOL0     H85264   0.993   1.977  10.927 -0.4841  0.9169 -1.1289
  646MOL0     H85265   0.995   2.127  10.823  0.5218  1.5711 -0.1222
  646MOL0     H85266   0.932   2.114  11.127 -1.9580 -0.6119 -1.6987
  646MOL0     H85267   0.945   2.256  11.021  1.6436  1.3645  1.4131
  646MOL0     H85268   1.190   2.192  10.965 -1.6837  1.3440 -0.5128
  646MOL0     H85269   1.158   2.238  11.131 -1.3846  1.5264 -1.7587
  646MOL0     H85270   1.322   1.868  11.202 -0.4609 -1.4970 -0.9484
  646MOL0     H85271   0.660   1.879  10.581 -2.3021 -1.7927 -1.5024
  646MOL0     H85272   0.416   1.913  10.476  1.2107  3.0240 -1.6088
  647MOL0     O85273   7.045   1.609   4.102  0.5243  0.9414 -0.1173
  647MOL0     C85274   7.057   1.561   4.217 -0.1184 -0.4027  0.5321
  647MOL0     O85275   6.957   1.523   4.302  0.1318  0.0687 -0.1279
  647MOL0     C85276   6.825   1.522   4.262  0.6027 -0.1940  0.1424
  647MOL0     C85277   6.769   1.626   4.172 -0.5438  0.3501 -0.5441
  647MOL0     C85278   6.636   1.624   4.147  0.0265 -0.2155 -0.6412
  647MOL0     C85279   6.551   1.522   4.205  0.0338 -0.3034  0.3200
  647MOL0     O85280   6.423   1.532   4.185  0.1228 -0.2038  0.0990
  647MOL0     C85281   6.375   1.467   4.068 -0.0764 -0.2595  1.0844
  647MOL0     C85282   6.226   1.426   4.081 -0.0634  0.3102  0.2394
  647MOL0     C85283   6.188   1.347   3.959  0.2519 -0.0083 -0.4536
  647MOL0     C85284   6.038   1.313   3.977  0.3762  0.3089  1.1313
  647MOL0     C85285   5.990   1.272   3.834 -0.3164 -0.3635 -0.1061
  647MOL0     C85286   5.839   1.243   3.838  0.2804 -0.3563 -0.2956
  647MOL0     C85287   5.781   1.203   3.701 -0.2404 -0.1474 -0.4185
  647MOL0     C85288   5.812   1.058   3.674 -0.8218  0.4557 -0.8094
  647MOL0     N85289   5.895   1.035   3.555 -0.3238 -1.0417  0.2133
  647MOL0     C85290   6.031   1.051   3.548  0.6105  0.0692 -0.6993
  647MOL0     C85291   6.051   1.050   3.414  0.3996  0.0552 -0.1865
  647MOL0     C85292   6.180   1.073   3.337  0.0121 -0.8567 -0.2504
  647MOL0     C85293   6.229   1.229   3.371 -0.0093  0.6005  0.0153
  647MOL0     C85294   6.131   1.348   3.340  0.2933  0.3951  0.4131
  647MOL0     C85295   6.109   1.355   3.191  0.9443 -0.2232  0.7789
  647MOL0     O85296   6.230   1.371   3.122 -0.1216  0.1332 -0.0638
  647MOL0     C85297   6.298   1.487   3.124  0.9238 -0.7222 -0.5352
  647MOL0     C85298   6.426   1.483   3.062  0.0418 -0.7765  0.2586
  647MOL0     C85299   6.499   1.604   3.065  0.5286  0.3402  0.7472
  647MOL0     C85300   6.445   1.722   3.124 -1.1630  0.3328 -0.0324
  647MOL0     C85301   6.533   1.840   3.138 -0.0195  0.0945 -0.4656
  647MOL0     O85302   6.518   1.913   3.252 -0.0142 -0.4044  0.0605
  647MOL0     C85303   6.583   2.037   3.248  0.1513 -0.0330 -0.6290
  647MOL0     C85304   6.704   2.071   3.316  0.2834 -0.1796  0.1072
  647MOL0     C85305   6.766   2.192   3.302  0.5618 -0.3149  0.5651
  647MOL0     C85306   6.713   2.287   3.208  0.1690 -0.4810  0.8067
  647MOL0     O85307   6.774   2.401   3.172 -0.5630  0.2489  0.3750
  647MOL0     C85308   6.916   2.414   3.183  0.0137 -0.1639 -0.0598
  647MOL0     C85309   6.965   2.537   3.108 -0.6866  0.1816 -0.8191
  647MOL0     C85310   7.112   2.563   3.110 -0.3669 -0.6317 -0.9111
  647MOL0     C85311   7.137   2.706   3.058  0.6491  0.5649  0.5492
  647MOL0     C85312   7.297   2.719   3.040 -0.0324  0.2766 -0.1222
  647MOL0     C85313   7.345   2.672   2.906  0.1353  1.0114  0.4623
  647MOL0     C85314   7.492   2.697   2.910 -0.4815 -0.0860  0.5771
  647MOL0     C85315   7.564   2.684   2.769 -0.1471  0.2045 -0.4072
  647MOL0    Cl85316   7.728   2.743   2.765  0.1598  0.3845  0.4959
  647MOL0     C85317   6.590   2.268   3.147  0.3423  0.5232 -0.5781
  647MOL0     C85318   6.532   2.140   3.167  0.0331  0.5148  0.0752
  647MOL0     O85319   6.620   1.867   3.057 -0.4106 -0.8713 -0.1664
  647MOL0     C85320   6.326   1.722   3.173  0.5851 -0.4789 -0.5841
  647MOL0     C85321   6.250   1.603   3.188  0.3601 -0.3918  0.0640
  647MOL0     N85322   5.932   1.008   3.352 -0.3452 -0.8435 -0.2607
  647MOL0     N85323   5.834   1.006   3.437 -0.1285  0.2905  0.2520
  647MOL0     C85324   6.612   1.417   4.268 -0.3109  1.0388  0.0611
  647MOL0     C85325   6.745   1.421   4.306 -0.0992 -0.5342 -0.2432
  647MOL0     C85326   7.199   1.538   4.255  0.0082  0.1072  0.4680
  647MOL0     C85327   7.230   1.499   4.392 -0.3230 -0.3633 -0.3138
  647MOL0     C85328   7.361   1.469   4.430  0.7122 -0.1194 -0.2053
  647MOL0     C85329   7.464   1.480   4.341 -0.4243 -0.2381 -0.1423
  647MOL0     O85330   7.594   1.444   4.369 -0.0129 -0.1370  0.1918
  647MOL0     C85331   7.631   1.429   4.505 -0.1944  0.0826  0.2277
  647MOL0     C85332   7.775   1.420   4.518  0.0041 -0.2909  0.5401
  647MOL0     C85333   7.817   1.438   4.664  0.6292  0.2368  0.1403
  647MOL0     C85334   7.976   1.464   4.673  0.3294 -0.4309 -0.3136
  647MOL0     C85335   8.025   1.489   4.810  0.3275  0.2996 -0.3242
  647MOL0     C85336   8.055   1.508   4.928  0.2537  0.3714  0.2997
  647MOL0     C85337   7.438   1.525   4.211  0.1141  1.0934  0.2200
  647MOL0     C85338   7.309   1.548   4.165 -0.3156  0.4159 -0.7609
  647MOL0     H85339   6.826   1.714   4.144 -1.4080  0.7873 -0.9424
  647MOL0     H85340   6.596   1.706   4.089 -1.4969  0.0124  0.6690
  647MOL0     H85341   6.439   1.381   4.047 -2.2502 -1.5557 -0.6626
  647MOL0     H85342   6.377   1.539   3.986 -0.6574 -1.1046  0.2999
  647MOL0     H85343   6.164   1.514   4.098 -1.3974 -0.6195  0.3221
  647MOL0     H85344   6.218   1.373   4.176 -3.3703  0.6824  0.2953
  647MOL0     H85345   6.247   1.257   3.942 -1.3293 -0.9457 -1.2248
  647MOL0     H85346   6.205   1.402   3.866 -0.2909 -0.9741 -1.1408
  647MOL0     H85347   6.038   1.227   4.045 -1.2079 -0.1867  0.5348
  647MOL0     H85348   5.990   1.409   3.999  2.4754  2.2445 -1.9868
  647MOL0     H85349   6.043   1.177   3.819  3.1180  1.1615  1.3912
  647MOL0     H85350   6.030   1.339   3.758  0.6244 -0.2912  0.4401
  647MOL0     H85351   5.800   1.338   3.873  0.8323 -0.0778 -0.4184
  647MOL0     H85352   5.805   1.170   3.912 -1.4090 -0.0512 -0.7236
  647MOL0     H85353   5.674   1.223   3.708 -0.2760 -0.1286 -0.9911
  647MOL0     H85354   5.821   1.269   3.623  1.6931 -0.4910  0.2071
  647MOL0     H85355   5.714   1.010   3.669 -0.9965  0.7554 -0.3223
  647MOL0     H85356   5.862   1.016   3.762 -1.0151  3.4626  0.8337
  647MOL0     H85357   6.102   1.081   3.625 -1.1739 -0.6134  1.3209
  647MOL0     H85358   6.158   1.058   3.231 -2.2916 -1.3621  0.2692
  647MOL0     H85359   6.253   1.002   3.377  1.2145 -0.2439 -1.2764
  647MOL0     H85360   6.326   1.249   3.324  0.1933 -1.2788 -0.4816
  647MOL0     H85361   6.246   1.228   3.479 -2.3472  0.0702  0.4416
  647MOL0     H85362   6.032   1.330   3.385 -1.8986  1.4429 -3.5237
  647MOL0     H85363   6.176   1.444   3.366 -0.1812  1.7141 -3.1848
  647MOL0     H85364   6.037   1.432   3.160 -0.1420 -1.5449 -0.1288
  647MOL0     H85365   6.059   1.262   3.163  0.3716  0.6243 -1.2814
  647MOL0     H85366   6.463   1.396   3.010  1.7087  0.6572 -1.0545
  647MOL0     H85367   6.604   1.614   3.039  0.3813  0.3130  0.1290
  647MOL0     H85368   6.740   1.990   3.380  0.6053 -3.4042 -3.7886
  647MOL0     H85369   6.857   2.225   3.352  0.8641 -0.3291  0.0305
  647MOL0     H85370   6.962   2.327   3.137  0.2102 -0.4413  0.6532
  647MOL0     H85371   6.949   2.426   3.287 -1.6126  0.6154  0.4118
  647MOL0     H85372   6.908   2.623   3.145 -1.8231 -1.7513  2.4101
  647MOL0     H85373   6.931   2.536   3.004  0.7906 -0.1440 -1.3173
  647MOL0     H85374   7.171   2.501   3.042 -0.0833  1.3131 -2.5381
  647MOL0     H85375   7.143   2.549   3.214  1.7792  0.0754 -1.4137
  647MOL0     H85376   7.084   2.723   2.964 -0.2685  1.7876  1.2652
  647MOL0     H85377   7.099   2.772   3.136  0.3394 -0.9217  1.6907
  647MOL0     H85378   7.346   2.669   3.123 -0.5914  1.0711  0.7064
  647MOL0     H85379   7.318   2.826   3.051  1.2332 -0.0517  0.7597
  647MOL0     H85380   7.282   2.730   2.837  0.5523  2.6252  1.3956
  647MOL0     H85381   7.323   2.567   2.882  2.4706  0.8190 -1.1905
  647MOL0     H85382   7.515   2.797   2.950  2.2459 -0.4030  0.0426
  647MOL0     H85383   7.533   2.629   2.984  1.7595  1.5999  1.0172
  647MOL0     H85384   7.499   2.741   2.702  0.3689  1.2648 -0.0372
  647MOL0     H85385   7.570   2.580   2.735  2.4638 -0.0835  0.6792
  647MOL0     H85386   6.553   2.338   3.074 -2.5783  1.6017  1.7400
  647MOL0     H85387   6.465   2.101   3.091  0.4002  0.0009  0.0101
  647MOL0     H85388   6.297   1.808   3.232  4.5520 -0.2762  1.4187
  647MOL0     H85389   6.160   1.612   3.248  1.1970 -0.5437  1.3821
  647MOL0     H85390   6.542   1.343   4.306  2.9647 -2.7043 -0.5554
  647MOL0     H85391   6.778   1.345   4.376  2.8114 -0.3924 -1.3145
  647MOL0     H85392   7.147   1.497   4.463  1.4794 -1.9768  1.8907
  647MOL0     H85393   7.380   1.441   4.533 -0.8816 -0.7389 -0.0413
  647MOL0     H85394   7.569   1.350   4.550  1.4523 -1.3489  0.0461
  647MOL0     H85395   7.600   1.520   4.558 -3.0862  0.5225 -1.9384
  647MOL0     H85396   7.814   1.330   4.470  0.5782  0.6214 -0.7640
  647MOL0     H85397   7.812   1.498   4.451  0.6125 -0.3492  0.8070
  647MOL0     H85398   7.789   1.349   4.721  0.4862  0.5957  0.6455
  647MOL0     H85399   7.765   1.525   4.705  0.2492  1.1335 -2.0941
  647MOL0     H85400   8.027   1.374   4.637 -1.6168 -1.6036 -0.2911
  647MOL0     H85401   8.001   1.547   4.606 -2.7990  1.6929  0.9385
  647MOL0     H85402   8.077   1.508   5.033  0.8332 -6.2503  0.5868
  647MOL0     H85403   7.516   1.519   4.136 -0.9930 -2.6120 -0.8400
  647MOL0     H85404   7.285   1.583   4.065  1.6303  0.0502 -1.4021
  648MOL0     O85405   9.128   1.243   8.309 -0.6962  0.1024 -0.5796
  648MOL0     C85406   9.212   1.329   8.341 -0.3432 -1.1555 -0.6572
  648MOL0     O85407   9.204   1.465   8.310  0.0157 -0.1663 -0.8119
  648MOL0     C85408   9.093   1.504   8.248  0.0693 -0.1911  0.7637
  648MOL0     C85409   9.056   1.470   8.117 -0.4773 -0.4768 -0.5672
  648MOL0     C85410   8.937   1.500   8.056  0.5541  0.4925  0.1061
  648MOL0     C85411   8.846   1.578   8.132 -0.1444 -0.1110  0.1843
  648MOL0     O85412   8.739   1.636   8.078  0.3444  0.4336  0.2653
  648MOL0     C85413   8.680   1.601   7.953  0.0735 -0.3606 -0.8168
  648MOL0     C85414   8.616   1.463   7.961  0.2014 -0.1682  0.3910
  648MOL0     C85415   8.466   1.480   8.018  0.0481  0.0344 -0.6551
  648MOL0     C85416   8.383   1.577   7.917  0.3429 -0.0439 -0.0000
  648MOL0     C85417   8.238   1.540   7.917  0.2185 -0.6655  0.2043
  648MOL0     C85418   8.176   1.576   7.770 -0.1504 -0.0405 -1.1204
  648MOL0     C85419   8.182   1.725   7.740 -0.4739  0.2385  0.5677
  648MOL0     C85420   8.095   1.759   7.611 -0.7059 -0.2910 -0.0507
  648MOL0     N85421   7.951   1.727   7.635 -0.1846 -0.4329 -0.0042
  648MOL0     C85422   7.874   1.808   7.710 -0.5033  0.2717  0.3669
  648MOL0     C85423   7.758   1.736   7.733 -0.7515 -1.1221 -0.0160
  648MOL0     C85424   7.634   1.775   7.812 -0.3908  0.0483  0.0887
  648MOL0     C85425   7.518   1.823   7.735 -0.0231  0.6023 -0.5874
  648MOL0     C85426   7.547   1.954   7.670 -0.1407  0.6261  0.1594
  648MOL0     C85427   7.428   1.999   7.587  0.0212 -0.3649  0.4179
  648MOL0     O85428   7.330   2.047   7.676  0.2219 -0.4534  0.0292
  648MOL0     C85429   7.220   2.119   7.618 -0.0679 -0.3635 -0.9204
  648MOL0     C85430   7.235   2.230   7.537  0.0164 -0.0210  0.6403
  648MOL0     C85431   7.130   2.276   7.460 -1.0381  0.1475 -0.3766
  648MOL0     C85432   7.004   2.206   7.459  0.2981 -0.4845 -0.1441
  648MOL0     C85433   6.891   2.244   7.362  0.2743  0.3892  1.4316
  648MOL0     O85434   6.769   2.167   7.382 -0.3814  0.0190  0.3688
  648MOL0     C85435   6.660   2.197   7.303 -0.4039  0.8783 -0.1865
  648MOL0     C85436   6.660   2.216   7.160  0.2379 -0.2008 -0.5468
  648MOL0     C85437   6.535   2.254   7.097 -0.1274 -0.1595 -0.1635
  648MOL0     C85438   6.424   2.302   7.171  0.4796  0.3944 -0.2925
  648MOL0     O85439   6.310   2.358   7.113 -0.5733  0.6942 -0.6749
  648MOL0     C85440   6.325   2.489   7.078  0.2783  0.2032  0.6365
  648MOL0     C85441   6.201   2.518   6.980  0.2336 -1.2131  0.9080
  648MOL0     C85442   6.069   2.531   7.073 -0.4153 -0.5363  0.6102
  648MOL0     C85443   5.946   2.586   6.998 -0.2248 -0.5857  0.1419
  648MOL0     C85444   5.817   2.573   7.071 -0.7340  0.0182 -0.7885
  648MOL0     C85445   5.705   2.554   6.967 -0.0612 -0.1916  0.2852
  648MOL0     C85446   5.697   2.661   6.855 -0.2774  0.8635  0.0563
  648MOL0     C85447   5.560   2.663   6.788 -0.6533  0.3853 -0.4918
  648MOL0    Cl85448   5.535   2.524   6.688  0.1683  0.2015  0.3805
  648MOL0     C85449   6.426   2.270   7.311  0.0499 -0.0988  0.4182
  648MOL0     C85450   6.541   2.219   7.370 -0.6855 -0.6324  0.0828
  648MOL0     O85451   6.904   2.328   7.276  0.1082 -0.2325 -0.2775
  648MOL0     C85452   6.987   2.107   7.555  0.2773  0.3983 -1.9113
  648MOL0     C85453   7.092   2.060   7.626  0.8532  0.6113  0.7327
  648MOL0     N85454   7.774   1.623   7.652 -0.2809 -0.0184  0.7133
  648MOL0     N85455   7.885   1.620   7.590  0.7588 -0.3378  0.4180
  648MOL0     C85456   8.875   1.608   8.269 -0.4084  0.1432  0.5664
  648MOL0     C85457   8.993   1.565   8.322 -0.1733 -0.1519 -0.7371
  648MOL0     C85458   9.347   1.285   8.403  0.4081  0.2022  0.3732
  648MOL0     C85459   9.376   1.151   8.381  0.4612 -0.0348 -0.5862
  648MOL0     C85460   9.499   1.099   8.429 -0.2135 -0.2232 -0.6247
  648MOL0     C85461   9.587   1.187   8.498 -0.9933  0.4172 -0.1225
  648MOL0     O85462   9.713   1.151   8.537 -0.8225 -0.8253 -0.5921
  648MOL0     C85463   9.756   1.016   8.550  0.1354  0.1924 -0.0583
  648MOL0     C85464   9.908   0.997   8.555 -0.3750 -0.9774 -0.2484
  648MOL0     C85465   9.957   0.880   8.472  0.6749 -0.0361 -0.0458
  648MOL0     C85466  10.116   0.877   8.463  0.3113 -0.5345  0.3151
  648MOL0     C85467  10.174   0.993   8.395  0.1001  0.0064  0.7598
  648MOL0     C85468  10.247   1.084   8.359 -0.6462 -0.5480 -0.8595
  648MOL0     C85469   9.550   1.318   8.521 -0.2160  0.0980  1.0071
  648MOL0     C85470   9.435   1.377   8.470  0.2983  0.7902  0.3356
  648MOL0     H85471   9.134   1.421   8.059  2.2601  2.0611  0.7361
  648MOL0     H85472   8.922   1.472   7.952 -1.6245  0.4213  0.3911
  648MOL0     H85473   8.754   1.597   7.872  2.1551 -3.7650  1.0227
  648MOL0     H85474   8.605   1.679   7.938  0.0583  0.3807  2.3888
  648MOL0     H85475   8.680   1.398   8.021 -0.3364 -1.8056 -0.7375
  648MOL0     H85476   8.615   1.425   7.858 -0.1674  1.1603 -0.1235
  648MOL0     H85477   8.461   1.523   8.119  2.3207  0.1188 -0.5217
  648MOL0     H85478   8.422   1.380   8.014  2.4011 -1.0487 -1.2850
  648MOL0     H85479   8.384   1.679   7.957  0.8801  0.3453 -1.0044
  648MOL0     H85480   8.425   1.557   7.819  0.0258 -2.4623  0.2969
  648MOL0     H85481   8.194   1.603   7.994  2.5106  1.4315 -0.0586
  648MOL0     H85482   8.228   1.442   7.964 -0.2749  0.6472  3.0364
  648MOL0     H85483   8.074   1.539   7.757  0.3596 -1.3972 -1.3571
  648MOL0     H85484   8.235   1.527   7.693 -0.5960  0.0083 -1.5002
  648MOL0     H85485   8.150   1.783   7.827 -0.8229 -0.1512  0.7012
  648MOL0     H85486   8.287   1.743   7.715 -0.4559 -1.5242 -0.8574
  648MOL0     H85487   8.126   1.692   7.530 -4.1308 -0.4116 -1.4039
  648MOL0     H85488   8.114   1.863   7.583 -3.9034 -0.0721 -1.8597
  648MOL0     H85489   7.905   1.906   7.745 -0.2533  0.0680  0.7245
  648MOL0     H85490   7.668   1.847   7.887  0.8589 -0.0769 -0.3379
  648MOL0     H85491   7.603   1.681   7.859  1.5504 -0.9910 -0.6017
  648MOL0     H85492   7.433   1.834   7.803  0.1793  0.5140 -0.3159
  648MOL0     H85493   7.487   1.748   7.661 -1.8970 -0.0589  0.7825
  648MOL0     H85494   7.560   2.024   7.754 -1.2797  3.1954 -1.6753
  648MOL0     H85495   7.635   1.937   7.607 -0.6332 -0.0492 -0.3561
  648MOL0     H85496   7.387   1.929   7.514  1.6702  1.4724 -2.4510
  648MOL0     H85497   7.464   2.076   7.519  2.2441  0.7804  2.7416
  648MOL0     H85498   7.335   2.271   7.527  0.5995 -0.6451  3.1733
  648MOL0     H85499   7.167   2.364   7.409  1.8493 -0.7497  0.0011
  648MOL0     H85500   6.753   2.203   7.105  1.7253 -4.0105  2.3675
  648MOL0     H85501   6.524   2.266   6.990  0.2731 -0.9131 -0.2979
  648MOL0     H85502   6.411   2.522   7.018 -1.5827  1.9703 -1.2536
  648MOL0     H85503   6.320   2.546   7.171  2.5664  1.9655 -0.2169
  648MOL0     H85504   6.205   2.442   6.901  2.5235  1.3591 -1.6672
  648MOL0     H85505   6.237   2.613   6.941  3.8545 -3.3146 -1.5612
  648MOL0     H85506   6.088   2.577   7.171  1.4364  0.6156 -0.2399
  648MOL0     H85507   6.049   2.424   7.077 -2.4580 -0.7791 -5.5810
  648MOL0     H85508   5.958   2.693   6.977 -1.7796 -0.5827 -0.9920
  648MOL0     H85509   5.946   2.522   6.909 -3.4322  0.8644 -1.0621
  648MOL0     H85510   5.797   2.660   7.134  3.0346  0.1102  0.5658
  648MOL0     H85511   5.817   2.482   7.133  0.1049  0.2241 -0.4682
  648MOL0     H85512   5.610   2.546   7.021 -0.7534  2.2136 -0.4690
  648MOL0     H85513   5.724   2.458   6.918  1.9819 -1.1390  2.6815
  648MOL0     H85514   5.727   2.762   6.885 -4.3384  1.6383  2.1206
  648MOL0     H85515   5.766   2.632   6.775 -1.6496  0.3772 -0.9859
  648MOL0     H85516   5.569   2.739   6.710 -0.3900 -1.0110 -1.8896
  648MOL0     H85517   5.468   2.687   6.842  0.8769  0.9163  2.0375
  648MOL0     H85518   6.341   2.306   7.369 -0.5564 -0.1731 -0.4015
  648MOL0     H85519   6.555   2.196   7.475  0.2289 -2.0194 -0.3217
  648MOL0     H85520   6.906   2.036   7.569  0.6141  0.2144 -0.7870
  648MOL0     H85521   7.077   1.967   7.680 -1.8549 -0.5258 -1.6641
  648MOL0     H85522   8.810   1.661   8.338  0.0591  1.2494  0.1762
  648MOL0     H85523   9.006   1.595   8.425 -2.1133  2.6040 -1.1892
  648MOL0     H85524   9.306   1.082   8.335 -2.8880  1.2499  2.1226
  648MOL0     H85525   9.535   0.998   8.416  1.7803  0.2352  0.7790
  648MOL0     H85526   9.726   0.958   8.462 -0.2858 -2.0720  1.5031
  648MOL0     H85527   9.692   0.970   8.626 -2.1523  1.7797 -0.8722
  648MOL0     H85528   9.947   1.093   8.520 -0.7303 -0.1757  1.4287
  648MOL0     H85529   9.939   0.982   8.659 -2.0308 -2.6775  0.0517
  648MOL0     H85530   9.918   0.886   8.370  3.2678  0.6102 -1.0877
  648MOL0     H85531   9.925   0.791   8.527 -0.5574  0.5229  0.1710
  648MOL0     H85532  10.169   0.863   8.557  1.0394  0.9852  0.1633
  648MOL0     H85533  10.125   0.787   8.401  0.9643 -1.2196  1.3790
  648MOL0     H85534  10.307   1.167   8.327 -3.2931  1.9889  0.2741
  648MOL0     H85535   9.605   1.374   8.597 -0.7720 -1.5539  2.7040
  648MOL0     H85536   9.396   1.478   8.484 -3.2296  0.1779 -3.3126
  649MOL0     O85537   7.940   2.246   1.976  0.3399 -0.4114  0.7652
  649MOL0     C85538   7.916   2.261   2.094 -0.5475 -0.6146 -0.5393
  649MOL0     O85539   7.799   2.232   2.158 -0.1120 -0.4369  0.6111
  649MOL0     C85540   7.682   2.263   2.090  0.2621 -0.0472 -0.6642
  649MOL0     C85541   7.561   2.194   2.125  0.3949 -0.5204 -0.0730
  649MOL0     C85542   7.441   2.232   2.061  0.1751 -0.1494 -0.5072
  649MOL0     C85543   7.431   2.335   1.971 -0.4455  0.4197  0.0286
  649MOL0     O85544   7.326   2.382   1.899 -0.3435 -0.1356 -0.1752
  649MOL0     C85545   7.188   2.341   1.931 -1.3264 -0.3007  0.2217
  649MOL0     C85546   7.095   2.443   1.861 -0.0542 -0.3098  0.0152
  649MOL0     C85547   6.945   2.419   1.897 -0.4507  0.6050  0.0586
  649MOL0     C85548   6.921   2.469   2.044 -0.2027 -0.4468  0.5516
  649MOL0     C85549   6.802   2.397   2.114 -0.2445  0.7945  0.5150
  649MOL0     C85550   6.839   2.253   2.161  1.3866  0.2841  0.1393
  649MOL0     C85551   6.719   2.182   2.210  0.2286 -0.4715  0.0788
  649MOL0     C85552   6.630   2.119   2.101 -0.3935  0.5550 -0.4158
  649MOL0     N85553   6.500   2.082   2.152  0.6064 -0.3480  0.0573
  649MOL0     C85554   6.473   2.005   2.258  1.4598  0.3075  0.2480
  649MOL0     C85555   6.333   2.001   2.250 -0.3247  0.9255 -1.3634
  649MOL0     C85556   6.241   1.952   2.355  0.1383  1.4028 -0.4155
  649MOL0     C85557   6.119   1.860   2.300 -0.9984  0.0002  0.3795
  649MOL0     C85558   6.161   1.717   2.253 -1.2539 -0.4794  0.7151
  649MOL0     C85559   6.038   1.629   2.221 -0.4803 -0.3745 -0.7107
  649MOL0     O85560   6.002   1.562   2.344  0.0180 -0.4631  0.4302
  649MOL0     C85561   5.870   1.548   2.371  0.6151 -0.4700 -0.5288
  649MOL0     C85562   5.834   1.435   2.454 -1.9555 -0.6896 -0.3805
  649MOL0     C85563   5.701   1.409   2.477 -0.9726  0.3865 -0.1360
  649MOL0     C85564   5.600   1.500   2.438  0.3199 -0.2111 -0.2590
  649MOL0     C85565   5.455   1.458   2.461  0.6371 -0.1376  0.1515
  649MOL0     O85566   5.352   1.545   2.435  0.3662 -0.0056 -0.0378
  649MOL0     C85567   5.230   1.510   2.492  0.1789  0.7772  0.2931
  649MOL0     C85568   5.217   1.491   2.629 -0.0907  0.3550 -0.4586
  649MOL0     C85569   5.090   1.486   2.684  0.4433 -0.9635 -0.0966
  649MOL0     C85570   4.974   1.508   2.603 -0.1379  1.0341  0.6443
  649MOL0     O85571   4.855   1.499   2.672 -0.0065 -0.5207 -0.2728
  649MOL0     C85572   4.747   1.550   2.595  0.4868  0.0391  0.1200
  649MOL0     C85573   4.637   1.556   2.704 -0.3659  1.7214 -0.2898
  649MOL0     C85574   4.515   1.614   2.635 -0.8760  0.0430  1.0345
  649MOL0     C85575   4.385   1.619   2.714  0.2375 -0.8462  0.2496
  649MOL0     C85576   4.264   1.620   2.621  0.3454  0.4494 -0.1126
  649MOL0     C85577   4.139   1.604   2.710  0.8785  0.6232 -0.0605
  649MOL0     C85578   4.007   1.599   2.640 -0.1921 -0.6628  0.4173
  649MOL0     C85579   3.891   1.609   2.733 -0.0302  0.1216  0.5588
  649MOL0    Cl85580   3.735   1.559   2.662 -0.0709  0.7614 -0.1003
  649MOL0     C85581   4.988   1.517   2.463 -0.4534  0.0391 -0.8327
  649MOL0     C85582   5.122   1.523   2.411  0.5319 -0.4832 -0.3430
  649MOL0     O85583   5.444   1.342   2.502 -0.3054  0.1331 -0.5554
  649MOL0     C85584   5.640   1.621   2.370 -0.3290  0.6348  0.1160
  649MOL0     C85585   5.769   1.634   2.335 -0.1769 -0.6284  0.0101
  649MOL0     N85586   6.285   2.062   2.143  1.1533 -0.2295  0.2487
  649MOL0     N85587   6.390   2.106   2.077  0.7883 -0.6612 -0.0119
  649MOL0     C85588   7.546   2.400   1.930 -0.3660  0.8589 -0.2426
  649MOL0     C85589   7.670   2.368   1.994  0.0049  0.7463 -0.7813
  649MOL0     C85590   8.034   2.285   2.179  0.7568  0.5768 -0.0373
  649MOL0     C85591   8.156   2.329   2.132  0.1944  0.3541 -0.0926
  649MOL0     C85592   8.264   2.346   2.212 -0.3442 -1.1849 -1.0432
  649MOL0     C85593   8.250   2.333   2.354  0.3168 -0.4610  0.1443
  649MOL0     O85594   8.347   2.384   2.444  0.5096  0.4604  0.3347
  649MOL0     C85595   8.390   2.277   2.522 -0.5127  0.0065  0.0546
  649MOL0     C85596   8.525   2.319   2.593  0.9406  0.1045  0.2243
  649MOL0     C85597   8.641   2.351   2.500  0.2907 -0.0578 -0.2644
  649MOL0     C85598   8.775   2.341   2.573 -0.1473 -0.1329 -0.0735
  649MOL0     C85599   8.819   2.203   2.593 -0.5723  1.1932  0.6467
  649MOL0     C85600   8.860   2.089   2.605  0.1722 -0.7476  0.8937
  649MOL0     C85601   8.124   2.287   2.408  0.6228 -0.7667  0.4008
  649MOL0     C85602   8.014   2.279   2.317 -0.5476  0.2887 -0.3638
  649MOL0     H85603   7.578   2.115   2.198  3.0757  0.1079  0.1076
  649MOL0     H85604   7.353   2.175   2.089  0.3381 -0.4314 -0.5639
  649MOL0     H85605   7.182   2.330   2.040  1.3909 -0.5607  0.4190
  649MOL0     H85606   7.175   2.242   1.885  1.9997 -0.6895 -0.1554
  649MOL0     H85607   7.105   2.433   1.753 -0.5991  0.7246 -0.1454
  649MOL0     H85608   7.126   2.545   1.887  0.0810 -1.0335  2.9996
  649MOL0     H85609   6.909   2.316   1.885  1.5068 -0.1632  0.4635
  649MOL0     H85610   6.869   2.462   1.831 -0.6957 -0.4145 -0.3466
  649MOL0     H85611   7.006   2.437   2.105  1.1948  0.4727 -0.8448
  649MOL0     H85612   6.905   2.577   2.048  1.3208 -0.1880  0.2296
  649MOL0     H85613   6.722   2.394   2.039  1.6308 -0.5351 -1.6023
  649MOL0     H85614   6.761   2.460   2.193 -1.8176  0.1246  0.2808
  649MOL0     H85615   6.897   2.271   2.252 -2.2421  2.9425  2.2001
  649MOL0     H85616   6.905   2.189   2.102  1.6004 -0.7078  1.3944
  649MOL0     H85617   6.744   2.116   2.294 -1.0678 -1.3308 -0.1750
  649MOL0     H85618   6.658   2.267   2.243 -0.1694 -1.3787  1.7750
  649MOL0     H85619   6.679   2.023   2.086 -0.3939 -0.2098  3.6102
  649MOL0     H85620   6.620   2.178   2.009  1.7789 -0.0374 -1.0864
  649MOL0     H85621   6.536   1.966   2.337 -0.2346 -0.5420  1.2316
  649MOL0     H85622   6.193   2.042   2.394 -2.9309  0.4229 -1.5903
  649MOL0     H85623   6.295   1.905   2.438 -1.3950  0.5017  0.1148
  649MOL0     H85624   6.074   1.911   2.215  1.9107  2.7840  0.3469
  649MOL0     H85625   6.046   1.838   2.378 -1.6890 -0.1398 -0.2993
  649MOL0     H85626   6.220   1.723   2.161  0.3840  0.5385  1.7999
  649MOL0     H85627   6.223   1.662   2.324  0.4383 -1.1117 -1.1486
  649MOL0     H85628   6.058   1.541   2.160  0.5266  0.3077 -1.3837
  649MOL0     H85629   5.974   1.695   2.163  1.0129  1.1779 -0.6536
  649MOL0     H85630   5.899   1.374   2.516 -0.2976 -0.6145 -1.9890
  649MOL0     H85631   5.683   1.324   2.542  4.5546  0.8158  2.4626
  649MOL0     H85632   5.299   1.484   2.699  0.2855 -0.2431 -0.9512
  649MOL0     H85633   5.079   1.475   2.791 -0.5891  0.0686 -0.0834
  649MOL0     H85634   4.709   1.482   2.517  0.3262  3.1615 -2.7494
  649MOL0     H85635   4.771   1.646   2.549  0.0304 -0.0647 -0.3454
  649MOL0     H85636   4.657   1.618   2.792 -2.0267  2.2797 -0.2679
  649MOL0     H85637   4.613   1.451   2.723 -0.6070  1.1162 -3.4999
  649MOL0     H85638   4.494   1.554   2.546 -0.1901 -0.0138  0.9053
  649MOL0     H85639   4.532   1.716   2.600  0.4888 -1.0755 -1.9164
  649MOL0     H85640   4.390   1.533   2.782  0.2012 -1.3942 -0.4219
  649MOL0     H85641   4.389   1.712   2.771 -1.0497 -1.0902  0.7672
  649MOL0     H85642   4.274   1.533   2.555 -2.2336  1.6147 -2.2283
  649MOL0     H85643   4.264   1.708   2.557 -3.4618 -0.3677 -1.4886
  649MOL0     H85644   4.144   1.686   2.783 -0.1993 -0.1369  0.9027
  649MOL0     H85645   4.158   1.515   2.772  4.1636  1.6527  0.6112
  649MOL0     H85646   3.999   1.683   2.571  1.4838 -1.1785 -0.4887
  649MOL0     H85647   3.990   1.506   2.584 -2.1308  0.3947 -0.8696
  649MOL0     H85648   3.895   1.710   2.774  0.5189 -0.4012  1.8274
  649MOL0     H85649   3.918   1.548   2.819  0.4608  0.0763  0.3747
  649MOL0     H85650   4.903   1.526   2.396 -0.2703 -0.9688 -1.2124
  649MOL0     H85651   5.129   1.523   2.303  2.0242  1.1207 -0.2778
  649MOL0     H85652   5.569   1.697   2.340 -1.0761  0.5184  1.5222
  649MOL0     H85653   5.800   1.723   2.280 -0.1437 -1.3445 -1.1773
  649MOL0     H85654   7.548   2.480   1.856  2.2010  0.1323 -1.0633
  649MOL0     H85655   7.755   2.423   1.955 -0.3570  0.5008 -1.9780
  649MOL0     H85656   8.162   2.356   2.027 -1.2281 -0.0837 -0.3162
  649MOL0     H85657   8.357   2.383   2.171  0.6280 -0.5173  1.5693
  649MOL0     H85658   8.421   2.193   2.459  1.8583  0.3005  0.7450
  649MOL0     H85659   8.319   2.239   2.597 -0.7645 -0.7228 -0.5378
  649MOL0     H85660   8.502   2.404   2.658 -1.3160 -0.4607  0.2695
  649MOL0     H85661   8.558   2.240   2.661  1.1813  0.3724  0.4211
  649MOL0     H85662   8.636   2.446   2.446  3.9327  0.9194  0.8424
  649MOL0     H85663   8.636   2.269   2.427  0.2676  0.3378 -0.7104
  649MOL0     H85664   8.855   2.390   2.517  0.3929 -2.2827 -1.3054
  649MOL0     H85665   8.772   2.398   2.666  1.0207  1.1442 -0.7723
  649MOL0     H85666   8.906   1.992   2.604  3.2823  0.5810 -0.8369
  649MOL0     H85667   8.110   2.272   2.515  0.8227 -0.2668  0.4996
  649MOL0     H85668   7.923   2.242   2.362 -1.4692  3.7378  0.9589
  650MOL0     O85669  10.513   4.247   2.276  0.5162  0.0979 -0.4259
  650MOL0     C85670  10.571   4.264   2.388 -0.4222  0.3175 -0.1281
  650MOL0     O85671  10.522   4.336   2.492 -0.0931 -0.0929 -0.7310
  650MOL0     C85672  10.383   4.379   2.496 -0.0419 -0.7442 -0.4478
  650MOL0     C85673  10.298   4.401   2.386 -0.5101 -0.3067 -0.5486
  650MOL0     C85674  10.172   4.460   2.399 -0.5696 -0.4692  0.4711
  650MOL0     C85675  10.133   4.519   2.523  0.4680  0.9394  0.4103
  650MOL0     O85676  10.016   4.588   2.542 -0.9230  0.5966  0.1795
  650MOL0     C85677   9.894   4.539   2.482  0.5546  0.3544 -0.9753
  650MOL0     C85678   9.838   4.417   2.555  0.6722 -0.4642  0.4564
  650MOL0     C85679   9.766   4.463   2.684 -0.3653  0.3240  0.2219
  650MOL0     C85680   9.626   4.527   2.657 -0.9151 -1.5664  0.1399
  650MOL0     C85681   9.547   4.592   2.776  0.4188  0.2794  0.1526
  650MOL0     C85682   9.402   4.631   2.740  0.9038  0.4804  0.3618
  650MOL0     C85683   9.324   4.724   2.839 -0.1540  1.0976 -0.1976
  650MOL0     C85684   9.360   4.870   2.858 -0.0598 -0.5195  0.1937
  650MOL0     N85685   9.271   4.931   2.966  0.4423 -0.1345  0.0040
  650MOL0     C85686   9.217   5.056   2.959  0.7258  0.4449  0.2708
  650MOL0     C85687   9.132   5.065   3.061 -0.4170 -0.2464  0.0916
  650MOL0     C85688   9.055   5.182   3.105  0.0997  0.1656  0.6599
  650MOL0     C85689   8.906   5.147   3.083  0.4797  1.1483 -0.0777
  650MOL0     C85690   8.819   5.273   3.113 -0.0869 -0.7040 -0.1816
  650MOL0     C85691   8.672   5.253   3.094  0.9774  0.6217 -0.0304
  650MOL0     O85692   8.657   5.224   2.952  0.5346 -0.5830  0.4795
  650MOL0     C85693   8.527   5.220   2.904 -0.1559 -0.1702  0.7927
  650MOL0     C85694   8.401   5.192   2.976  0.3848 -0.7017  0.6327
  650MOL0     C85695   8.276   5.190   2.916  0.4709  0.5066  0.2403
  650MOL0     C85696   8.258   5.195   2.777  0.3100 -0.1728 -0.2702
  650MOL0     C85697   8.124   5.174   2.712  0.5752  0.2899  0.4134
  650MOL0     O85698   8.026   5.124   2.784 -0.2614 -0.7785 -0.1516
  650MOL0     C85699   7.900   5.172   2.753  0.7213  0.0687  0.6667
  650MOL0     C85700   7.841   5.258   2.835  0.5587  0.3510 -0.2280
  650MOL0     C85701   7.707   5.307   2.817  0.0663  0.5442  0.6845
  650MOL0     C85702   7.635   5.271   2.704  1.1784  0.6470 -0.1254
  650MOL0     O85703   7.514   5.322   2.664  0.3262 -0.0164 -0.2082
  650MOL0     C85704   7.421   5.368   2.758  0.2653  0.8004 -1.2222
  650MOL0     C85705   7.276   5.327   2.720  0.0472  0.0804 -0.3558
  650MOL0     C85706   7.175   5.410   2.803  0.6053  0.5494  0.4375
  650MOL0     C85707   7.036   5.351   2.794  0.4834 -1.0766 -0.1920
  650MOL0     C85708   7.009   5.233   2.896  0.0976  0.4456  0.3272
  650MOL0     C85709   6.896   5.152   2.867  0.1447  0.0550  0.7232
  650MOL0     C85710   6.775   5.226   2.920  0.3753 -0.4142  0.0159
  650MOL0     C85711   6.638   5.172   2.858  0.5003  0.4230  0.4324
  650MOL0    Cl85712   6.632   5.002   2.928  0.0425 -0.0425  0.0782
  650MOL0     C85713   7.697   5.193   2.609  0.5905  1.0753 -0.4945
  650MOL0     C85714   7.826   5.138   2.635  0.7267  0.1748 -0.3038
  650MOL0     O85715   8.122   5.218   2.596 -0.6480  0.1406 -0.5140
  650MOL0     C85716   8.378   5.212   2.714  0.2037 -0.4584  0.7823
  650MOL0     C85717   8.504   5.231   2.764  0.0198  0.2615  0.2128
  650MOL0     N85718   9.130   4.944   3.123 -0.5764 -0.5620 -0.4824
  650MOL0     N85719   9.232   4.873   3.082  0.8635  0.4554  0.2019
  650MOL0     C85720  10.218   4.508   2.632  0.4562  0.4590 -0.2153
  650MOL0     C85721  10.339   4.433   2.622 -0.6076 -0.1952 -0.6515
  650MOL0     C85722  10.722   4.231   2.401 -0.4739  0.2286 -0.1695
  650MOL0     C85723  10.794   4.176   2.285 -0.1963 -0.1133 -0.0326
  650MOL0     C85724  10.941   4.165   2.286  0.7349 -0.5772 -0.3756
  650MOL0     C85725  11.002   4.194   2.412 -0.2621 -0.3751  0.0928
  650MOL0     O85726  11.135   4.189   2.430  0.6902 -0.6213 -0.0875
  650MOL0     C85727  11.204   4.098   2.345  0.7909  0.4002 -0.3902
  650MOL0     C85728  11.334   4.058   2.414  0.4569 -0.4515  1.0438
  650MOL0     C85729  11.411   3.949   2.325 -0.0796  0.3810  0.2224
  650MOL0     C85730  11.545   3.906   2.394 -0.5426 -0.0370 -0.7226
  650MOL0     C85731  11.632   3.861   2.286 -0.2118  0.1689  0.6630
  650MOL0     C85732  11.691   3.812   2.192  0.4713 -0.0498  0.2672
  650MOL0     C85733  10.927   4.254   2.519  0.5511 -0.2067 -0.1131
  650MOL0     C85734  10.794   4.281   2.508  0.2535  0.2240  0.1980
  650MOL0     H85735  10.312   4.372   2.282  2.3314  1.0907 -0.6569
  650MOL0     H85736  10.110   4.484   2.313  1.0446 -0.0969 -0.6142
  650MOL0     H85737   9.891   4.523   2.374  3.0269  0.9927 -1.2193
  650MOL0     H85738   9.815   4.614   2.492 -0.7809 -0.5587 -3.7182
  650MOL0     H85739   9.924   4.358   2.590  0.9443  0.2305  0.9937
  650MOL0     H85740   9.767   4.356   2.499  1.9284 -5.3466  3.5438
  650MOL0     H85741   9.826   4.532   2.743  0.2679 -0.1432  0.1295
  650MOL0     H85742   9.737   4.368   2.729  0.9492 -0.6558 -0.9201
  650MOL0     H85743   9.625   4.602   2.577 -2.0134 -2.9233 -1.1829
  650MOL0     H85744   9.568   4.442   2.620  1.7443 -2.7490 -1.6256
  650MOL0     H85745   9.590   4.684   2.816 -3.0733  1.6544  1.1810
  650MOL0     H85746   9.554   4.515   2.854  4.9229  0.3748  0.0975
  650MOL0     H85747   9.352   4.536   2.723  1.9107  0.3474 -2.3336
  650MOL0     H85748   9.401   4.673   2.639 -0.2712 -1.5157 -0.5144
  650MOL0     H85749   9.217   4.712   2.820 -0.0064 -0.2309 -0.2741
  650MOL0     H85750   9.341   4.678   2.936 -1.1036  1.0683 -0.0409
  650MOL0     H85751   9.327   4.927   2.770  0.4488 -2.2628 -1.2041
  650MOL0     H85752   9.466   4.878   2.883 -0.3997 -0.8297  1.8605
  650MOL0     H85753   9.235   5.137   2.890 -0.5464  0.4696 -0.0678
  650MOL0     H85754   9.092   5.268   3.048 -0.6661  2.0866  2.8952
  650MOL0     H85755   9.077   5.192   3.212 -0.7011  1.3816  0.7365
  650MOL0     H85756   8.872   5.063   3.143  0.2687  2.2006  1.3309
  650MOL0     H85757   8.897   5.117   2.978 -3.0048  0.1828  0.3560
  650MOL0     H85758   8.834   5.321   3.210 -1.6247  0.7244 -0.6121
  650MOL0     H85759   8.852   5.347   3.040 -1.6936  0.9735  0.7244
  650MOL0     H85760   8.627   5.346   3.130  0.5524  0.7810 -0.9427
  650MOL0     H85761   8.633   5.169   3.152  1.2830  0.3100 -0.2625
  650MOL0     H85762   8.406   5.188   3.084 -2.2460 -0.3678  0.8394
  650MOL0     H85763   8.193   5.177   2.984  0.6603  0.1002  0.3932
  650MOL0     H85764   7.901   5.288   2.921  0.8032  1.1318 -0.6632
  650MOL0     H85765   7.673   5.377   2.893 -1.9401  1.1467 -0.6905
  650MOL0     H85766   7.434   5.476   2.774 -0.0737  0.5730  0.8244
  650MOL0     H85767   7.460   5.325   2.851  0.5156 -0.1413 -1.7484
  650MOL0     H85768   7.268   5.222   2.751 -1.3013  0.5946  1.1740
  650MOL0     H85769   7.272   5.333   2.611  3.5507 -0.3160 -0.6263
  650MOL0     H85770   7.186   5.508   2.756 -0.5673 -0.4756 -2.1867
  650MOL0     H85771   7.206   5.424   2.907  0.6966  1.2755  0.3160
  650MOL0     H85772   6.972   5.436   2.818  2.7590  0.2554  1.6709
  650MOL0     H85773   7.011   5.320   2.692  0.6501  0.5153 -0.7466
  650MOL0     H85774   6.996   5.270   2.998 -2.7519 -0.3625  0.3276
  650MOL0     H85775   7.093   5.164   2.889  0.1662  0.7174 -2.5045
  650MOL0     H85776   6.905   5.061   2.926  0.7366  0.7333  1.7124
  650MOL0     H85777   6.890   5.128   2.760  2.4225 -0.0908  0.5752
  650MOL0     H85778   6.783   5.226   3.029 -2.2140  1.6374  0.3115
  650MOL0     H85779   6.784   5.333   2.902  0.2395  0.2286  3.1789
  650MOL0     H85780   6.642   5.154   2.751  3.1862 -1.8519  0.7989
  650MOL0     H85781   6.541   5.214   2.884 -1.7961 -3.2342 -1.4187
  650MOL0     H85782   7.651   5.179   2.511 -0.4789 -4.3887  0.4669
  650MOL0     H85783   7.871   5.070   2.563  0.0388 -1.0955  0.4375
  650MOL0     H85784   8.389   5.206   2.606  1.3560  0.9600  0.7813
  650MOL0     H85785   8.593   5.227   2.702  0.8333 -1.7043  1.3876
  650MOL0     H85786  10.193   4.559   2.724  0.7781  1.9104 -0.9181
  650MOL0     H85787  10.416   4.428   2.699 -0.7870  2.6126 -0.2061
  650MOL0     H85788  10.740   4.160   2.192  0.1471  1.6795 -0.5788
  650MOL0     H85789  10.996   4.131   2.199 -0.3055 -2.3734 -0.3843
  650MOL0     H85790  11.228   4.154   2.255  0.4144 -0.8123 -1.2792
  650MOL0     H85791  11.149   4.005   2.324 -0.4612 -0.2715  4.4637
  650MOL0     H85792  11.400   4.144   2.403 -1.1083  0.4781 -2.3221
  650MOL0     H85793  11.310   4.029   2.517 -1.3961 -2.8124  0.0240
  650MOL0     H85794  11.433   3.992   2.226 -0.4019 -1.6275 -0.7781
  650MOL0     H85795  11.351   3.859   2.311 -0.6957  0.6977  0.7814
  650MOL0     H85796  11.596   3.992   2.438  3.1882 -2.5651  0.3620
  650MOL0     H85797  11.545   3.828   2.470  3.8786  0.7874  0.4462
  650MOL0     H85798  11.749   3.787   2.105 -3.4153  0.2712 -2.6982
  650MOL0     H85799  10.980   4.290   2.607 -2.4651 -1.4222  2.3650
  650MOL0     H85800  10.747   4.333   2.591 -0.6379  1.8742 -1.2628
  651MOL0     O85801   6.553  10.079  10.477  0.1168 -0.0174 -0.5739
  651MOL0     C85802   6.589  10.085  10.598  0.7404  0.2061  0.2220
  651MOL0     O85803   6.703  10.046  10.642 -0.4183 -0.0507  0.2050
  651MOL0     C85804   6.807  10.012  10.558  0.3874 -0.7718  0.0544
  651MOL0     C85805   6.858   9.885  10.563  0.4738  0.9764  1.0740
  651MOL0     C85806   6.973   9.867  10.480  1.1987 -0.0467 -0.9440
  651MOL0     C85807   7.029   9.969  10.406  0.3314  0.6310 -0.7765
  651MOL0     O85808   7.131   9.929  10.324 -0.5168 -0.3592  0.6955
  651MOL0     C85809   7.263   9.979  10.364 -0.2970  0.1753  0.4366
  651MOL0     C85810   7.386   9.891  10.333 -0.7622 -0.1050  0.3407
  651MOL0     C85811   7.516   9.972  10.365 -0.3957  0.5675  0.1038
  651MOL0     C85812   7.646   9.880  10.354  0.6811  0.1615  1.2637
  651MOL0     C85813   7.782   9.938  10.379 -0.8844  0.3079 -0.0731
  651MOL0     C85814   7.815  10.067  10.299  0.3840  0.2199  0.3655
  651MOL0     C85815   7.952  10.127  10.337 -0.6619  0.0233 -0.1530
  651MOL0     C85816   8.003  10.226  10.228  0.2497 -0.1036 -0.2458
  651MOL0     N85817   8.127  10.284  10.267 -0.8559 -0.3656 -0.1804
  651MOL0     C85818   8.251  10.221  10.280 -0.0551 -0.5201 -0.1830
  651MOL0     C85819   8.337  10.320  10.293  0.4924 -0.6605  0.0030
  651MOL0     C85820   8.479  10.302  10.318  0.5959 -0.4645  0.1648
  651MOL0     C85821   8.545  10.425  10.381  1.0481 -0.3322  0.3163
  651MOL0     C85822   8.564  10.547  10.288  0.2773 -0.7097  0.2419
  651MOL0     C85823   8.665  10.639  10.347 -0.2365  0.9907  0.0540
  651MOL0     O85824   8.660  10.780  10.301 -0.5522 -0.1994  0.2419
  651MOL0     C85825   8.713  10.813  10.179  0.1319 -0.1040  0.8773
  651MOL0     C85826   8.768  10.726  10.079  0.0060 -0.1397 -0.2085
  651MOL0     C85827   8.802  10.765   9.954 -0.3594 -0.4031  0.4223
  651MOL0     C85828   8.774  10.899   9.916 -0.3410  0.4177 -0.5534
  651MOL0     C85829   8.787  10.941   9.773 -0.2250 -1.1958 -0.2883
  651MOL0     O85830   8.814  10.857   9.672 -0.2691 -0.0767 -0.0253
  651MOL0     C85831   8.823  10.907   9.549  0.3469 -0.0572  0.4357
  651MOL0     C85832   8.937  10.953   9.493 -0.3526 -0.3621 -0.7997
  651MOL0     C85833   8.944  11.020   9.370  0.5501  0.3780 -0.6477
  651MOL0     C85834   8.828  11.011   9.286 -0.0778  1.0023 -0.5871
  651MOL0     O85835   8.818  11.055   9.154  0.0904  0.7613 -0.4590
  651MOL0     C85836   8.907  11.156   9.102  0.2275 -0.1807 -0.3715
  651MOL0     C85837   9.013  11.092   9.006  0.4299 -0.1636 -0.6702
  651MOL0     C85838   8.955  10.993   8.910  0.0148 -0.2423  0.4406
  651MOL0     C85839   9.056  10.962   8.801  0.0887  0.0588 -0.6363
  651MOL0     C85840   9.019  10.836   8.721 -0.0899  0.4855  0.0994
  651MOL0     C85841   8.892  10.835   8.641  0.4060 -1.1770 -1.0642
  651MOL0     C85842   8.875  10.715   8.551  0.5966  0.6790  0.6663
  651MOL0     C85843   8.809  10.597   8.612 -0.1592  0.4997  1.1408
  651MOL0    Cl85844   8.748  10.495   8.478 -0.3197  0.2841 -0.2131
  651MOL0     C85845   8.707  10.966   9.345  0.2736 -0.3387  0.1058
  651MOL0     C85846   8.702  10.902   9.470 -0.2156  0.6662 -0.5056
  651MOL0     O85847   8.780  11.064   9.749  0.0845  0.0476 -1.1857
  651MOL0     C85848   8.737  10.989  10.017  0.3458 -0.6568  0.1504
  651MOL0     C85849   8.711  10.948  10.149  0.6855  0.1886  0.7694
  651MOL0     N85850   8.270  10.435  10.298  0.5340 -0.3722 -0.3158
  651MOL0     N85851   8.149  10.417  10.273  0.3018  0.8293  0.1913
  651MOL0     C85852   6.979  10.094  10.407  0.2909  0.7581  0.6936
  651MOL0     C85853   6.868  10.118  10.485  0.1293 -0.0197 -0.0425
  651MOL0     C85854   6.484  10.102  10.705  0.1825 -0.1314 -1.2094
  651MOL0     C85855   6.513  10.127  10.843  1.1709  0.5126 -0.3371
  651MOL0     C85856   6.406  10.122  10.943  0.3644 -0.3540 -0.5110
  651MOL0     C85857   6.272  10.121  10.901  0.0575 -0.1066 -0.6158
  651MOL0     O85858   6.179  10.127  11.005 -0.3533 -0.3512  0.3577
  651MOL0     C85859   6.043  10.155  10.959  0.2537  0.3553  0.1568
  651MOL0     C85860   5.955  10.197  11.081 -0.9021  0.4588 -0.3489
  651MOL0     C85861   5.948  10.076  11.176  1.2184 -0.3062 -0.0293
  651MOL0     C85862   5.816  10.092  11.264 -1.1317  1.2298  0.3356
  651MOL0     C85863   5.691  10.036  11.201 -0.9972 -0.3506  0.1333
  651MOL0     C85864   5.597   9.999  11.142  0.7816 -0.8470 -0.3724
  651MOL0     C85865   6.240  10.101  10.768 -0.3940  0.7297  0.0022
  651MOL0     C85866   6.345  10.098  10.671 -0.4380  0.6370 -0.1448
  651MOL0     H85867   6.828   9.794  10.614  1.4968 -0.2457 -0.4241
  651MOL0     H85868   7.011   9.765  10.475  0.1928 -0.5693  1.2189
  651MOL0     H85869   7.268   9.992  10.473 -0.4272  2.8969  0.1719
  651MOL0     H85870   7.282  10.073  10.313  1.5419  0.2449  1.1768
  651MOL0     H85871   7.390   9.865  10.227  2.0587  1.6577 -0.1133
  651MOL0     H85872   7.377   9.808  10.404 -3.1863 -0.5057 -0.3569
  651MOL0     H85873   7.512  10.020  10.463  0.7053 -1.7951  1.3804
  651MOL0     H85874   7.534  10.053  10.293 -0.8227  2.1499  1.7175
  651MOL0     H85875   7.633   9.800  10.428 -2.9538 -2.5237 -1.8909
  651MOL0     H85876   7.643   9.830  10.257  0.1626  0.8782  0.9072
  651MOL0     H85877   7.861   9.863  10.371 -0.6549  0.1444  2.8066
  651MOL0     H85878   7.792   9.973  10.482 -3.4737 -1.4986  0.8677
  651MOL0     H85879   7.734  10.138  10.316 -1.2831 -1.7065  0.9870
  651MOL0     H85880   7.817  10.046  10.191  2.1544 -2.0238  0.7636
  651MOL0     H85881   7.921  10.175  10.431  0.2345  1.3064 -0.4796
  651MOL0     H85882   8.031  10.054  10.355  1.0313  1.5854 -0.9245
  651MOL0     H85883   7.931  10.305  10.202 -0.5534 -1.0508 -0.9989
  651MOL0     H85884   8.022  10.177  10.132 -1.8487 -0.2088 -0.6620
  651MOL0     H85885   8.278  10.116  10.290 -1.1188 -0.7988 -0.1680
  651MOL0     H85886   8.522  10.271  10.222  1.0671  0.5910  0.0108
  651MOL0     H85887   8.497  10.216  10.382  2.6807 -0.2921 -0.0887
  651MOL0     H85888   8.643  10.387  10.411  0.7856 -1.5618 -0.3007
  651MOL0     H85889   8.491  10.464  10.467 -0.1725 -1.8424  0.2739
  651MOL0     H85890   8.588  10.521  10.184 -0.5318  1.1539 -0.4649
  651MOL0     H85891   8.470  10.602  10.296 -0.5597 -2.1444  0.6241
  651MOL0     H85892   8.764  10.592  10.343 -1.8149 -3.1259  2.6027
  651MOL0     H85893   8.659  10.641  10.456  1.3423  2.0316  0.1489
  651MOL0     H85894   8.780  10.621  10.103 -1.6086 -0.3910 -0.3930
  651MOL0     H85895   8.833  10.686   9.886 -1.3538 -2.8585  2.6495
  651MOL0     H85896   9.021  10.949   9.562 -1.2318  2.0981  0.5291
  651MOL0     H85897   9.035  11.066   9.335  2.2473 -0.7628  1.9650
  651MOL0     H85898   8.958  11.220   9.175 -0.7966  1.4985 -1.0705
  651MOL0     H85899   8.843  11.229   9.051  3.6439  3.5348  0.1798
  651MOL0     H85900   9.088  11.034   9.061  0.2665 -1.6630 -1.9628
  651MOL0     H85901   9.069  11.167   8.949 -1.5214 -0.9527 -3.8535
  651MOL0     H85902   8.856  11.027   8.878  0.0445  0.0499  0.6620
  651MOL0     H85903   8.936  10.900   8.964 -1.6895  0.6878  1.5409
  651MOL0     H85904   9.066  11.044   8.729 -3.9690  2.2630  0.9584
  651MOL0     H85905   9.148  10.932   8.851 -0.9302 -2.4141 -0.0880
  651MOL0     H85906   8.999  10.761   8.797  2.0628 -0.4518 -0.1846
  651MOL0     H85907   9.106  10.804   8.662 -0.7237  0.1389 -0.6517
  651MOL0     H85908   8.891  10.926   8.581 -0.6170  0.1434  0.8735
  651MOL0     H85909   8.813  10.847   8.716 -0.4121 -1.9172 -1.7826
  651MOL0     H85910   8.815  10.733   8.462 -2.2596 -5.6074  0.7971
  651MOL0     H85911   8.971  10.688   8.507 -1.0644 -1.6419 -1.7944
  651MOL0     H85912   8.730  10.629   8.681 -0.7303 -0.3418  0.8973
  651MOL0     H85913   8.882  10.540   8.669  0.7409  1.6624  1.2038
  651MOL0     H85914   8.617  10.964   9.285  1.1695 -0.6331 -1.2779
  651MOL0     H85915   8.621  10.842   9.510  2.2720 -1.4635  1.7791
  651MOL0     H85916   8.729  11.092   9.985 -0.1347 -0.3175  1.3159
  651MOL0     H85917   8.677  11.014  10.228 -0.1149 -0.5611  1.0569
  651MOL0     H85918   7.025  10.162  10.335  0.8699 -0.6082 -0.2769
  651MOL0     H85919   6.845  10.220  10.457 -0.1573 -0.5020 -1.6931
  651MOL0     H85920   6.617  10.137  10.872  1.5680 -1.2492 -1.0438
  651MOL0     H85921   6.431  10.135  11.048 -0.9095  2.7092 -0.4796
  651MOL0     H85922   6.001  10.060  10.923  1.8473  0.1268 -1.1939
  651MOL0     H85923   6.035  10.234  10.885 -2.1748  0.6588  0.6580
  651MOL0     H85924   6.006  10.274  11.139  0.0258  1.0130 -1.8381
  651MOL0     H85925   5.855  10.222  11.043 -1.8669  1.4010  2.5648
  651MOL0     H85926   6.035  10.085  11.242  1.0619 -1.2600  0.3216
  651MOL0     H85927   5.972   9.982  11.125 -3.3520 -2.5874  1.4662
  651MOL0     H85928   5.826  10.032  11.354  0.8023  0.6725 -0.2205
  651MOL0     H85929   5.792  10.195  11.293 -2.6048  1.2335 -0.7738
  651MOL0     H85930   5.507   9.965  11.094  2.6990 -0.3753 -4.7771
  651MOL0     H85931   6.135  10.095  10.740  0.0336  1.7557 -2.0057
  651MOL0     H85932   6.319  10.094  10.565  0.8476 -2.3416 -0.4465
  652MOL0     O85933   8.996   9.326   8.925  0.8122 -0.7444  0.3697
  652MOL0     C85934   8.909   9.366   8.842  0.2636 -0.0752 -0.2330
  652MOL0     O85935   8.936   9.432   8.725  0.4079  0.1858 -0.6669
  652MOL0     C85936   9.063   9.433   8.673 -0.1815 -0.8138  0.2972
  652MOL0     C85937   9.154   9.326   8.658  0.2969  0.1182  0.1038
  652MOL0     C85938   9.284   9.335   8.603 -0.1210 -0.4930 -0.4054
  652MOL0     C85939   9.329   9.464   8.556 -0.5300  0.2760 -0.1511
  652MOL0     O85940   9.445   9.487   8.485 -0.3677  0.0090 -0.8573
  652MOL0     C85941   9.557   9.403   8.509  1.0013 -0.1051  0.7867
  652MOL0     C85942   9.611   9.429   8.655  0.2354  0.0006 -0.3267
  652MOL0     C85943   9.731   9.337   8.691 -0.5575 -0.9108 -0.3651
  652MOL0     C85944   9.793   9.399   8.803  0.3463  0.1945  0.2958
  652MOL0     C85945   9.901   9.310   8.860 -0.6579  0.0026 -0.3966
  652MOL0     C85946  10.034   9.346   8.796 -1.0153  0.5894 -0.6103
  652MOL0     C85947  10.144   9.255   8.848  0.6303 -1.1174 -0.2170
  652MOL0     C85948  10.272   9.278   8.768  0.7071 -0.0216 -0.2302
  652MOL0     N85949  10.377   9.184   8.816 -0.0591 -0.7017 -0.2474
  652MOL0     C85950  10.350   9.049   8.840  0.3161 -0.4835 -0.5256
  652MOL0     C85951  10.456   9.004   8.906  0.3315  0.8667 -0.5434
  652MOL0     C85952  10.455   8.868   8.965  0.4838  0.4266  0.5097
  652MOL0     C85953  10.434   8.756   8.862 -0.4689  0.1095  0.2488
  652MOL0     C85954  10.402   8.622   8.922  0.1546 -0.5724 -0.7018
  652MOL0     C85955  10.256   8.616   8.964  0.1053  0.0159 -0.6479
  652MOL0     O85956  10.249   8.483   9.008 -0.2105 -0.8328  0.0678
  652MOL0     C85957  10.141   8.438   9.077 -0.2057  0.2694 -0.5653
  652MOL0     C85958  10.155   8.319   9.147  0.3026  0.5089 -0.1130
  652MOL0     C85959  10.037   8.269   9.205 -0.0631 -0.2018  0.6156
  652MOL0     C85960   9.910   8.321   9.198 -0.8632 -0.3134  1.1670
  652MOL0     C85961   9.797   8.263   9.274  0.2755  0.0292 -0.8190
  652MOL0     O85962   9.832   8.206   9.400 -0.5050  0.1288  0.2893
  652MOL0     C85963   9.734   8.140   9.468  0.3049 -0.2081  0.7975
  652MOL0     C85964   9.771   8.018   9.519  0.2229  0.2711 -0.4776
  652MOL0     C85965   9.692   7.942   9.607 -0.0318  0.0696  0.5629
  652MOL0     C85966   9.564   7.990   9.636  0.3718 -0.4787 -0.8173
  652MOL0     O85967   9.497   7.900   9.713  0.2663  0.4912 -0.9646
  652MOL0     C85968   9.356   7.910   9.741  0.2549  1.2866  0.3650
  652MOL0     C85969   9.296   7.778   9.799 -0.3001 -0.0112 -0.1245
  652MOL0     C85970   9.143   7.765   9.805  0.1646 -0.4164  0.0171
  652MOL0     C85971   9.075   7.884   9.877 -0.7028  0.3649  0.0278
  652MOL0     C85972   8.918   7.858   9.898  0.1543 -0.8283 -0.2779
  652MOL0     C85973   8.833   7.853   9.767 -0.6575 -0.1222 -0.3564
  652MOL0     C85974   8.707   7.925   9.778 -0.5041 -0.2001 -0.0783
  652MOL0     C85975   8.599   7.861   9.866 -1.2321  0.5576  0.7040
  652MOL0    Cl85976   8.457   7.967   9.870 -0.7916 -0.6112 -0.1111
  652MOL0     C85977   9.520   8.120   9.596 -0.2091 -0.1764 -1.2059
  652MOL0     C85978   9.610   8.197   9.503  0.2604  0.7608 -0.4739
  652MOL0     O85979   9.691   8.256   9.223  0.7798 -0.4284  0.0079
  652MOL0     C85980   9.902   8.436   9.120 -0.1257 -0.1059  0.1401
  652MOL0     C85981  10.014   8.503   9.067  0.0914  0.8667 -0.3873
  652MOL0     N85982  10.526   9.116   8.940  0.1373 -0.2606 -0.3730
  652MOL0     N85983  10.492   9.222   8.874  0.4515  0.1861 -0.4091
  652MOL0     C85984   9.236   9.569   8.564  0.0106 -0.1644 -0.2703
  652MOL0     C85985   9.107   9.562   8.627  0.6880  0.4826  1.1189
  652MOL0     C85986   8.765   9.335   8.874 -0.2534 -0.1784  1.1963
  652MOL0     C85987   8.726   9.313   9.010 -0.7413  0.0903  0.3272
  652MOL0     C85988   8.593   9.305   9.040  0.6901  0.1509  0.1277
  652MOL0     C85989   8.487   9.314   8.944 -0.5518  0.3498 -0.1657
  652MOL0     O85990   8.362   9.285   8.990  0.4753 -0.1587 -0.2892
  652MOL0     C85991   8.247   9.296   8.901  0.4432  0.5633 -0.2250
  652MOL0     C85992   8.222   9.160   8.827  0.0306 -0.1141  0.6719
  652MOL0     C85993   8.105   9.171   8.729  0.0095 -0.2812 -0.8482
  652MOL0     C85994   8.060   9.047   8.683 -0.5258  0.3793  0.6109
  652MOL0     C85995   8.162   8.983   8.603 -0.2243 -0.4580 -0.1853
  652MOL0     C85996   8.245   8.932   8.534  0.2080 -0.1921  0.3151
  652MOL0     C85997   8.528   9.338   8.816 -1.0126 -0.7971 -0.2439
  652MOL0     C85998   8.664   9.360   8.786 -0.5808 -0.0648  0.4997
  652MOL0     H85999   9.125   9.225   8.686 -1.6073  0.4170 -0.5779
  652MOL0     H86000   9.351   9.249   8.610 -0.0175 -0.4781 -1.1319
  652MOL0     H86001   9.632   9.449   8.444  0.1497  0.7388  0.3668
  652MOL0     H86002   9.548   9.294   8.495 -1.2003  0.3666 -2.9432
  652MOL0     H86003   9.529   9.422   8.728 -0.6927  1.9277 -1.1092
  652MOL0     H86004   9.636   9.535   8.664 -0.3643  0.0522  1.0524
  652MOL0     H86005   9.799   9.339   8.605  0.1556  2.8774  0.0891
  652MOL0     H86006   9.687   9.238   8.700 -0.2557 -1.0084  0.0408
  652MOL0     H86007   9.826   9.500   8.778 -1.5204  0.9640  0.7754
  652MOL0     H86008   9.712   9.417   8.874 -0.1051 -2.2841  0.5100
  652MOL0     H86009   9.898   9.201   8.844 -2.0496 -0.2443  1.3093
  652MOL0     H86010   9.898   9.311   8.969  1.0523  0.0372 -0.3142
  652MOL0     H86011  10.057   9.451   8.816  0.9331  0.0611  0.1776
  652MOL0     H86012  10.033   9.342   8.687 -2.1107 -0.1709 -0.5851
  652MOL0     H86013  10.158   9.270   8.955 -0.1992 -1.5095 -0.0395
  652MOL0     H86014  10.110   9.151   8.845  1.0448 -1.3322  1.5854
  652MOL0     H86015  10.300   9.379   8.799  0.3359 -0.6804  2.6048
  652MOL0     H86016  10.257   9.261   8.661  0.4682 -1.9274  0.0552
  652MOL0     H86017  10.262   8.994   8.811  0.8927 -2.3541  1.0414
  652MOL0     H86018  10.376   8.863   9.041 -1.7974  2.0067 -1.6038
  652MOL0     H86019  10.546   8.841   9.019  0.0543 -1.1372  0.5154
  652MOL0     H86020  10.526   8.738   8.805 -0.2199  4.3639 -1.0245
  652MOL0     H86021  10.357   8.786   8.790  2.5542  0.2563 -3.2396
  652MOL0     H86022  10.422   8.548   8.845 -0.9375 -1.1605 -0.4444
  652MOL0     H86023  10.470   8.623   9.008  1.0123 -0.0039 -1.3776
  652MOL0     H86024  10.179   8.644   8.892  0.6284  1.7943 -0.5854
  652MOL0     H86025  10.226   8.680   9.048 -0.1779  0.9903 -1.4694
  652MOL0     H86026  10.249   8.267   9.157 -1.6878 -3.1821  1.5503
  652MOL0     H86027  10.049   8.179   9.265 -1.1042  0.7399  2.3485
  652MOL0     H86028   9.868   7.973   9.499  0.0023  0.1285 -1.2902
  652MOL0     H86029   9.729   7.848   9.646  1.4717  0.0470 -0.8184
  652MOL0     H86030   9.320   7.933   9.641  0.3012 -1.4420 -0.3499
  652MOL0     H86031   9.339   7.998   9.805  0.0896  1.7399 -0.2915
  652MOL0     H86032   9.327   7.758   9.902  1.6318 -0.4156 -0.7509
  652MOL0     H86033   9.340   7.692   9.747  1.9933  0.4127  0.9834
  652MOL0     H86034   9.110   7.676   9.861  0.3181  0.4552  1.5646
  652MOL0     H86035   9.099   7.755   9.706  0.1212  1.2787 -0.1585
  652MOL0     H86036   9.125   7.896   9.974  0.9708  2.9570 -1.0394
  652MOL0     H86037   9.103   7.970   9.815  1.3278  0.7366  1.3522
  652MOL0     H86038   8.879   7.935   9.966 -1.5971 -0.7294 -1.3491
  652MOL0     H86039   8.901   7.762   9.947  0.6155 -1.8183 -2.0035
  652MOL0     H86040   8.821   7.751   9.730 -1.9896 -1.0400  2.3787
  652MOL0     H86041   8.896   7.908   9.696  0.9823 -0.9273  0.4407
  652MOL0     H86042   8.718   8.031   9.799 -1.5171  1.2165 -5.3174
  652MOL0     H86043   8.669   7.929   9.675 -1.4042  0.1954  0.2572
  652MOL0     H86044   8.641   7.819   9.958  0.8510 -0.2443 -0.5459
  652MOL0     H86045   8.568   7.769   9.815 -1.6214  0.2549  1.4694
  652MOL0     H86046   9.430   8.165   9.635  0.0671  0.6386 -1.4801
  652MOL0     H86047   9.584   8.294   9.464  2.9903  1.1094 -1.6066
  652MOL0     H86048   9.806   8.486   9.110  0.5815  0.9402 -1.8723
  652MOL0     H86049  10.004   8.593   9.008 -0.4933  0.0861 -1.5145
  652MOL0     H86050   9.272   9.658   8.514  1.3077 -0.1543  0.6259
  652MOL0     H86051   9.046   9.650   8.645  2.8800  2.0416  1.3795
  652MOL0     H86052   8.805   9.297   9.083 -1.2760  1.0928  1.1582
  652MOL0     H86053   8.566   9.282   9.143  2.0393  1.9659  0.9489
  652MOL0     H86054   8.245   9.389   8.844  1.3255  1.5807  1.3396
  652MOL0     H86055   8.166   9.299   8.974  0.3951 -2.1828 -0.0454
  652MOL0     H86056   8.308   9.151   8.759  0.3215  4.5296  0.0809
  652MOL0     H86057   8.221   9.070   8.888  1.1067 -0.5083  0.1364
  652MOL0     H86058   8.123   9.247   8.652 -0.9617  0.8059 -0.0410
  652MOL0     H86059   8.019   9.207   8.786 -2.7116 -4.0087 -2.2274
  652MOL0     H86060   8.030   8.988   8.770  0.0708 -0.8831 -0.0191
  652MOL0     H86061   7.977   9.060   8.614  1.0150  1.2306 -1.1861
  652MOL0     H86062   8.319   8.896   8.465 -0.5980 -1.1576 -0.0738
  652MOL0     H86063   8.460   9.341   8.732  0.0805 -2.1100 -1.2039
  652MOL0     H86064   8.696   9.386   8.686 -0.4970 -1.6648  0.0807
  653MOL0     O86065   9.998   5.952  10.665  0.3432  0.2149  0.5441
  653MOL0     C86066  10.087   5.899  10.740 -0.1271 -0.5170 -0.3678
  653MOL0     O86067  10.070   5.871  10.869  0.7700 -0.0751 -0.1066
  653MOL0     C86068   9.953   5.841  10.936 -0.3022 -0.3413 -0.6830
  653MOL0     C86069   9.835   5.807  10.872 -0.1439  0.0026 -0.0287
  653MOL0     C86070   9.723   5.765  10.953  0.2435 -0.7360  0.0452
  653MOL0     C86071   9.735   5.752  11.094 -0.3170 -0.4821 -0.4011
  653MOL0     O86072   9.638   5.702  11.173  0.4841  0.2511 -0.7887
  653MOL0     C86073   9.541   5.619  11.111 -0.2385  1.0797 -0.1541
  653MOL0     C86074   9.454   5.543  11.202  0.1953  0.0518 -0.4102
  653MOL0     C86075   9.321   5.490  11.146 -1.0221 -0.7968 -0.4872
  653MOL0     C86076   9.248   5.428  11.264 -0.5484 -0.0595 -0.3685
  653MOL0     C86077   9.117   5.365  11.209  0.2748 -1.0267  0.1749
  653MOL0     C86078   9.052   5.274  11.313  0.5531 -0.2369  0.0043
  653MOL0     C86079   8.911   5.234  11.263 -0.4040 -0.6167  0.3085
  653MOL0     C86080   8.910   5.158  11.127 -0.3429  0.3979  0.1729
  653MOL0     N86081   8.773   5.113  11.092  0.2919  0.7181 -0.1157
  653MOL0     C86082   8.714   4.998  11.147  0.1164  0.0528  0.4659
  653MOL0     C86083   8.595   4.991  11.078 -0.5096 -0.2729 -0.0014
  653MOL0     C86084   8.480   4.891  11.097 -0.3272  1.2212  1.0328
  653MOL0     C86085   8.433   4.840  10.963  0.1384  0.8763  0.1120
  653MOL0     C86086   8.323   4.734  10.974 -0.1263  0.1293 -0.7596
  653MOL0     C86087   8.207   4.757  11.069  0.5741  0.2804 -0.2637
  653MOL0     O86088   8.104   4.675  11.032  0.1524 -0.0315  0.0527
  653MOL0     C86089   7.978   4.729  11.026  0.3842 -0.0604 -0.8713
  653MOL0     C86090   7.937   4.825  10.929 -0.0235 -1.2132 -0.2670
  653MOL0     C86091   7.805   4.851  10.907 -0.3652  0.4626  0.5365
  653MOL0     C86092   7.711   4.802  10.998 -0.3796  0.3523 -0.5261
  653MOL0     C86093   7.568   4.838  10.978 -0.5616  0.3256  0.3599
  653MOL0     O86094   7.470   4.786  11.055  0.4047  0.2659 -0.5344
  653MOL0     C86095   7.335   4.806  11.017 -0.5480  0.8981 -0.7004
  653MOL0     C86096   7.282   4.922  10.960 -0.3752 -0.5371  0.0390
  653MOL0     C86097   7.149   4.916  10.923 -0.5690 -0.1355  0.5965
  653MOL0     C86098   7.074   4.807  10.938  0.3193 -0.3270  0.2874
  653MOL0     O86099   6.946   4.790  10.892  0.3097  0.3067 -0.2475
  653MOL0     C86100   6.874   4.903  10.836  0.4138 -0.2667  0.3702
  653MOL0     C86101   6.827   5.003  10.939  0.6012  0.7261  0.4044
  653MOL0     C86102   6.712   4.931  11.014  0.0991 -0.1731 -0.2562
  653MOL0     C86103   6.627   5.014  11.112  0.2940 -0.2352 -0.3647
  653MOL0     C86104   6.532   4.929  11.196 -0.1525 -0.0711  0.2170
  653MOL0     C86105   6.386   4.954  11.168 -0.8459 -0.0483  0.5903
  653MOL0     C86106   6.282   4.884  11.259 -0.1987 -0.2025  1.2082
  653MOL0     C86107   6.148   4.866  11.188 -0.1726  0.6756 -0.0690
  653MOL0    Cl86108   6.089   5.017  11.132 -0.5772  0.4038  0.0197
  653MOL0     C86109   7.127   4.697  11.000 -0.4029 -0.0895 -0.4850
  653MOL0     C86110   7.258   4.689  11.042  0.6140 -0.9114 -0.0186
  653MOL0     O86111   7.554   4.924  10.891 -1.0451  0.2893 -0.2917
  653MOL0     C86112   7.746   4.713  11.099 -1.1796  0.5272 -0.8113
  653MOL0     C86113   7.888   4.681  11.120  0.4038 -0.5533  0.1094
  653MOL0     N86114   8.582   5.099  11.000 -0.8035  0.0239  0.7349
  653MOL0     N86115   8.690   5.167  11.007  1.0739 -0.5881 -0.0662
  653MOL0     C86116   9.855   5.788  11.152 -0.6224 -0.6582  0.4564
  653MOL0     C86117   9.964   5.833  11.078  0.9329 -0.0413  0.2079
  653MOL0     C86118  10.230   5.896  10.693 -0.5342  0.0373 -0.0232
  653MOL0     C86119  10.260   5.903  10.553  0.1547 -0.3115  0.3303
  653MOL0     C86120  10.399   5.904  10.519 -0.7831 -0.2926 -0.5956
  653MOL0     C86121  10.511   5.907  10.617 -0.0951 -0.4567  0.4378
  653MOL0     O86122  10.641   5.932  10.564  0.0197 -0.2162  0.2892
  653MOL0     C86123  10.656   5.986  10.431  0.3905  0.1474  0.1289
  653MOL0     C86124  10.808   6.042  10.411  0.0293 -0.1631 -0.0767
  653MOL0     C86125  10.822   6.180  10.485  0.2238  0.7453 -1.0678
  653MOL0     C86126  10.958   6.243  10.467 -0.2347 -0.3495  0.0347
  653MOL0     C86127  11.064   6.187  10.556  0.4220  0.1970  0.0538
  653MOL0     C86128  11.165   6.152  10.616  0.8553  0.8175 -0.7826
  653MOL0     C86129  10.477   5.919  10.752  0.3212  0.0792  1.0667
  653MOL0     C86130  10.344   5.901  10.786 -0.1127 -0.0830  0.1046
  653MOL0     H86131   9.833   5.804  10.763 -0.1103  0.3277 -0.0384
  653MOL0     H86132   9.631   5.736  10.905 -0.8708  2.9157 -0.2954
  653MOL0     H86133   9.588   5.545  11.046 -1.4691 -1.8321  2.0186
  653MOL0     H86134   9.475   5.693  11.064 -2.1585  2.0240  3.6147
  653MOL0     H86135   9.426   5.603  11.290 -1.1598 -1.0751 -0.0271
  653MOL0     H86136   9.514   5.465  11.249 -2.1232 -0.9145  1.1291
  653MOL0     H86137   9.357   5.410  11.082  1.4285  0.5430 -0.8939
  653MOL0     H86138   9.272   5.568  11.087 -0.7706 -0.1170  0.1818
  653MOL0     H86139   9.307   5.343  11.299 -1.9641 -0.1650  2.0453
  653MOL0     H86140   9.233   5.498  11.347 -0.4868 -3.1098  2.4259
  653MOL0     H86141   9.136   5.310  11.117  1.1643  1.0063 -0.9182
  653MOL0     H86142   9.047   5.446  11.189 -1.1721 -2.7539 -2.1530
  653MOL0     H86143   9.047   5.326  11.409 -1.1900 -1.4892  0.6569
  653MOL0     H86144   9.119   5.188  11.325  0.6843  0.0845  1.8726
  653MOL0     H86145   8.868   5.166  11.337  0.1180  0.0402  1.2307
  653MOL0     H86146   8.845   5.320  11.261  0.0034 -0.2193  2.0265
  653MOL0     H86147   8.976   5.071  11.122 -0.0826  0.6749 -2.3008
  653MOL0     H86148   8.941   5.235  11.056 -1.4792  0.2951 -0.4611
  653MOL0     H86149   8.763   4.936  11.221  0.9615 -0.2219 -0.2931
  653MOL0     H86150   8.397   4.947  11.142  0.3568  2.4470  0.8296
  653MOL0     H86151   8.519   4.805  11.152 -2.1127  0.0545  0.5620
  653MOL0     H86152   8.520   4.806  10.907 -0.4151  0.8761 -0.7596
  653MOL0     H86153   8.390   4.917  10.898  0.8314  1.8905  0.8224
  653MOL0     H86154   8.277   4.732  10.875 -1.0672 -0.4036 -0.3262
  653MOL0     H86155   8.368   4.635  10.988  1.1430  0.6682 -0.9550
  653MOL0     H86156   8.172   4.860  11.067 -2.7837 -0.7191  0.9572
  653MOL0     H86157   8.242   4.732  11.170  0.8492  3.4237  0.5069
  653MOL0     H86158   8.011   4.888  10.881  0.6087 -1.9591 -0.2915
  653MOL0     H86159   7.780   4.923  10.829  1.5199 -0.5072 -1.0567
  653MOL0     H86160   7.350   5.006  10.950  0.5614 -1.4874 -2.4676
  653MOL0     H86161   7.104   5.001  10.872  0.1301 -0.3440 -0.4003
  653MOL0     H86162   6.799   4.859  10.770  3.7187 -2.5059 -2.2006
  653MOL0     H86163   6.937   4.959  10.767 -1.9304  0.3466 -1.3938
  653MOL0     H86164   6.790   5.097  10.898 -0.3174  0.6256  0.9733
  653MOL0     H86165   6.912   5.029  11.004 -0.2709 -0.2490  2.0151
  653MOL0     H86166   6.757   4.844  11.062  3.2785  0.6169 -1.5860
  653MOL0     H86167   6.638   4.895  10.941  1.7275 -3.7070 -0.3362
  653MOL0     H86168   6.694   5.068  11.180  1.7503 -1.1100 -1.0530
  653MOL0     H86169   6.568   5.077  11.045 -0.4259 -1.0692 -0.5194
  653MOL0     H86170   6.545   4.959  11.300 -0.6059  0.2323  0.1871
  653MOL0     H86171   6.548   4.822  11.179 -2.8389 -0.7577  1.5340
  653MOL0     H86172   6.371   4.919  11.065  0.1275  0.5264  0.2371
  653MOL0     H86173   6.364   5.060  11.159  0.7685  0.4207  1.7527
  653MOL0     H86174   6.316   4.783  11.283  0.6357 -0.9767 -2.6659
  653MOL0     H86175   6.260   4.939  11.352 -1.7311 -0.1164  0.8218
  653MOL0     H86176   6.089   4.820  11.269  1.4684 -2.2586 -0.3775
  653MOL0     H86177   6.157   4.793  11.107 -0.4915 -0.7944  1.1652
  653MOL0     H86178   7.078   4.601  11.012 -0.7146  0.1381  0.1507
  653MOL0     H86179   7.295   4.596  11.084 -0.4492 -0.4122  2.1795
  653MOL0     H86180   7.671   4.668  11.164  0.0260 -0.3076  0.0593
  653MOL0     H86181   7.907   4.608  11.197 -3.4676 -0.6395  1.1677
  653MOL0     H86182   9.853   5.784  11.261  0.5773 -0.0655  0.5176
  653MOL0     H86183  10.046   5.862  11.142 -0.5133  0.1683  2.0243
  653MOL0     H86184  10.187   5.906  10.472  1.4635 -2.3884 -1.0265
  653MOL0     H86185  10.414   5.920  10.413 -0.0523 -0.5939 -0.5454
  653MOL0     H86186  10.576   6.060  10.419  0.1183  0.3748  2.6684
  653MOL0     H86187  10.639   5.904  10.360  0.1524  1.4437 -1.3568
  653MOL0     H86188  10.879   5.978  10.464  1.4659  0.1199 -1.5878
  653MOL0     H86189  10.838   6.048  10.306 -0.1756  1.1139 -0.0791
  653MOL0     H86190  10.802   6.161  10.591  1.8840 -1.6981 -1.1001
  653MOL0     H86191  10.743   6.236  10.434 -0.9290  2.2742  2.1268
  653MOL0     H86192  10.987   6.228  10.363 -0.1931  0.1817 -0.0309
  653MOL0     H86193  10.945   6.348  10.494  0.8440 -0.7087  2.2073
  653MOL0     H86194  11.248   6.116  10.673  1.9988 -0.0290 -2.8570
  653MOL0     H86195  10.546   5.930  10.835 -0.6612  0.4277  1.8641
  653MOL0     H86196  10.321   5.906  10.891 -0.3032  1.4140  0.0231
  654MOL0     O86197   8.449   3.726   1.182  0.9130  0.5595 -0.0203
  654MOL0     C86198   8.504   3.615   1.151 -0.0575 -0.0848 -0.4574
  654MOL0     O86199   8.436   3.500   1.135  0.2216  0.2147 -0.1312
  654MOL0     C86200   8.302   3.485   1.153 -0.0409 -0.3073  0.2076
  654MOL0     C86201   8.241   3.383   1.082  0.6393 -0.1951 -0.6351
  654MOL0     C86202   8.105   3.349   1.102 -0.0565 -0.1474 -0.0605
  654MOL0     C86203   8.037   3.405   1.210 -0.5339 -0.5841  0.0272
  654MOL0     O86204   7.919   3.359   1.268  0.4529 -0.2023  0.6340
  654MOL0     C86205   7.827   3.294   1.185 -0.4411  1.0242  0.3537
  654MOL0     C86206   7.695   3.270   1.260 -0.4329  0.3086  0.9876
  654MOL0     C86207   7.637   3.140   1.218  1.1202 -0.1404 -0.2185
  654MOL0     C86208   7.586   3.127   1.068  0.0347 -0.0071 -0.7701
  654MOL0     C86209   7.553   2.977   1.028 -1.0917  0.6476 -0.3130
  654MOL0     C86210   7.601   2.971   0.881  1.4883  0.0835 -0.8765
  654MOL0     C86211   7.533   3.063   0.772 -0.1668  0.3233  0.3659
  654MOL0     C86212   7.392   3.017   0.761 -0.5613  0.2275 -0.2601
  654MOL0     N86213   7.300   3.115   0.699 -0.2555  0.4541  0.1202
  654MOL0     C86214   7.195   3.172   0.761  0.8751 -0.0118  0.9274
  654MOL0     C86215   7.117   3.217   0.658  0.0082 -0.3576 -0.8850
  654MOL0     C86216   6.995   3.316   0.673  0.6120  1.3054  0.5242
  654MOL0     C86217   7.032   3.452   0.608 -0.2970  0.0763  0.5116
  654MOL0     C86218   6.903   3.527   0.565 -0.7588  0.4166  0.5914
  654MOL0     C86219   6.809   3.545   0.691 -0.2688 -1.2305  0.2519
  654MOL0     O86220   6.726   3.433   0.713  0.2445  0.2290  0.2294
  654MOL0     C86221   6.590   3.445   0.741  0.6216 -0.3426  0.3390
  654MOL0     C86222   6.514   3.560   0.741  0.0232 -0.0925 -0.7770
  654MOL0     C86223   6.376   3.557   0.760 -0.1549 -0.6145 -0.1911
  654MOL0     C86224   6.307   3.436   0.767 -0.0283 -0.4586 -0.0258
  654MOL0     C86225   6.153   3.440   0.772  0.2248  0.6043 -0.4493
  654MOL0     O86226   6.084   3.323   0.768  0.0996  0.2450  0.2316
  654MOL0     C86227   5.956   3.320   0.805  0.1780  0.0389  0.3973
  654MOL0     C86228   5.920   3.336   0.937  0.6782  0.1194 -0.1141
  654MOL0     C86229   5.795   3.291   0.982 -0.2032 -0.6358 -0.1306
  654MOL0     C86230   5.704   3.222   0.892 -0.4506  1.1536 -0.6613
  654MOL0     O86231   5.588   3.167   0.936  0.4830 -0.0875 -0.0906
  654MOL0     C86232   5.510   3.240   1.029  0.4380 -0.3226 -0.1096
  654MOL0     C86233   5.409   3.134   1.077  0.3761 -0.3454 -0.3030
  654MOL0     C86234   5.308   3.192   1.185  0.6630 -0.0600  0.1175
  654MOL0     C86235   5.236   3.070   1.255 -0.7877 -0.2025  0.3987
  654MOL0     C86236   5.162   3.111   1.379 -0.6545 -0.1534 -0.4524
  654MOL0     C86237   5.099   2.993   1.438  0.2908  0.2284 -0.3148
  654MOL0     C86238   4.998   3.016   1.556  0.5652  0.7831  0.2654
  654MOL0     C86239   5.071   3.037   1.684 -0.0163 -0.3357 -0.1742
  654MOL0    Cl86240   4.973   3.052   1.832 -0.3440  0.4399 -0.0532
  654MOL0     C86241   5.746   3.207   0.761  0.4181  0.3055  0.2455
  654MOL0     C86242   5.869   3.253   0.716  0.6683 -0.5608  0.4313
  654MOL0     O86243   6.105   3.545   0.775 -0.6086 -0.3910  0.0768
  654MOL0     C86244   6.377   3.320   0.757 -0.0349 -0.6598 -0.5683
  654MOL0     C86245   6.512   3.327   0.748 -1.6131 -0.4726  0.6287
  654MOL0     N86246   7.184   3.191   0.543  0.5026  0.4828  0.1647
  654MOL0     N86247   7.290   3.126   0.562  0.6327 -0.9566 -0.2754
  654MOL0     C86248   8.103   3.503   1.284  0.2533 -0.2274  0.0873
  654MOL0     C86249   8.230   3.549   1.252  0.6941  0.4426 -0.2794
  654MOL0     C86250   8.646   3.626   1.116  0.0061  0.2620  0.3775
  654MOL0     C86251   8.724   3.745   1.141 -0.2676  0.1491 -0.2694
  654MOL0     C86252   8.865   3.743   1.118 -0.6186 -0.3477 -0.1254
  654MOL0     C86253   8.933   3.632   1.063 -0.5439  0.0533 -0.4771
  654MOL0     O86254   9.067   3.655   1.031  0.1153 -0.0598 -0.2480
  654MOL0     C86255   9.103   3.596   0.908 -0.0901  0.3812  0.4023
  654MOL0     C86256   9.202   3.685   0.850 -0.1386 -0.3849  0.1294
  654MOL0     C86257   9.330   3.702   0.930  0.4320 -0.5743 -0.0850
  654MOL0     C86258   9.440   3.779   0.853  1.2777 -0.5600  0.8685
  654MOL0     C86259   9.380   3.888   0.771 -0.5089  0.1095 -0.5115
  654MOL0     C86260   9.343   3.980   0.704  0.0788  0.4241  0.5581
  654MOL0     C86261   8.853   3.532   1.031  0.6988 -0.0852 -0.3069
  654MOL0     C86262   8.715   3.513   1.077 -0.1505 -0.0378  0.4264
  654MOL0     H86263   8.310   3.346   1.006  1.8688  0.8188 -0.0535
  654MOL0     H86264   8.054   3.264   1.059  0.4279 -1.0481  1.0922
  654MOL0     H86265   7.876   3.197   1.170  1.8237  1.9929  1.1039
  654MOL0     H86266   7.809   3.340   1.088 -0.0156  1.9971  0.7279
  654MOL0     H86267   7.630   3.354   1.235 -0.2170  0.5672  1.2870
  654MOL0     H86268   7.714   3.265   1.367 -3.2520  0.5446  1.5806
  654MOL0     H86269   7.548   3.128   1.279  3.1745  0.6002  3.2063
  654MOL0     H86270   7.707   3.057   1.231 -2.4908 -3.3789  0.0392
  654MOL0     H86271   7.490   3.179   1.058 -1.1073 -1.6206  1.0562
  654MOL0     H86272   7.662   3.165   1.000 -1.0026 -0.3767 -2.1719
  654MOL0     H86273   7.448   2.945   1.037 -0.6960 -0.2104  1.7243
  654MOL0     H86274   7.614   2.904   1.082 -1.4241  1.1615  0.7907
  654MOL0     H86275   7.581   2.868   0.848 -2.7245 -0.7623  3.2603
  654MOL0     H86276   7.709   2.989   0.877  1.2464  3.2586  2.1913
  654MOL0     H86277   7.539   3.169   0.799 -3.8660  0.4441  1.2663
  654MOL0     H86278   7.574   3.041   0.673 -1.0676  0.3926 -0.0267
  654MOL0     H86279   7.349   2.995   0.859  0.2280 -2.2294 -0.3882
  654MOL0     H86280   7.394   2.922   0.707  1.9500  0.6912 -1.1510
  654MOL0     H86281   7.183   3.186   0.868  3.0693 -0.7404  1.3219
  654MOL0     H86282   6.953   3.315   0.774 -1.7918 -0.8444 -0.3870
  654MOL0     H86283   6.924   3.267   0.605  2.7335 -0.5033 -0.5060
  654MOL0     H86284   7.079   3.432   0.511 -3.7024 -0.7203 -1.1446
  654MOL0     H86285   7.093   3.512   0.676  0.8728 -1.3349  0.7672
  654MOL0     H86286   6.922   3.628   0.528  2.2308  0.7293  2.6755
  654MOL0     H86287   6.857   3.469   0.484  0.6498 -1.0331  0.7871
  654MOL0     H86288   6.751   3.635   0.667  2.3220 -0.0220 -1.9723
  654MOL0     H86289   6.864   3.550   0.785 -0.2897  1.5172  0.1923
  654MOL0     H86290   6.555   3.661   0.735 -1.7663  0.6171 -1.8324
  654MOL0     H86291   6.327   3.653   0.772 -1.2259 -1.0020 -1.2611
  654MOL0     H86292   5.988   3.379   1.009  0.0418  1.6266 -0.3778
  654MOL0     H86293   5.785   3.302   1.089  4.1061 -1.2002  0.4949
  654MOL0     H86294   5.463   3.331   0.989 -1.3286 -0.3346  1.7444
  654MOL0     H86295   5.571   3.273   1.114  0.3048 -2.1879  0.7737
  654MOL0     H86296   5.468   3.047   1.106  1.5170  0.8984  1.2513
  654MOL0     H86297   5.339   3.105   0.997 -2.3268  1.7121  1.1252
  654MOL0     H86298   5.233   3.252   1.133 -0.2677 -1.6406 -0.4488
  654MOL0     H86299   5.366   3.250   1.257 -0.3704  1.6785 -0.4010
  654MOL0     H86300   5.163   3.029   1.184  0.0561 -2.6658  0.8319
  654MOL0     H86301   5.317   3.001   1.281 -0.6174 -1.2551 -2.5415
  654MOL0     H86302   5.096   3.197   1.361  1.0938  1.4417  0.3363
  654MOL0     H86303   5.241   3.150   1.444  2.3479 -1.2308 -3.2229
  654MOL0     H86304   5.175   2.916   1.456 -0.4161 -0.6479 -1.0155
  654MOL0     H86305   5.040   2.955   1.354  1.5463  0.7128 -1.4523
  654MOL0     H86306   4.935   3.102   1.533 -1.1772 -0.7619 -1.0085
  654MOL0     H86307   4.940   2.925   1.569 -0.5195  1.0994 -1.9118
  654MOL0     H86308   5.145   3.117   1.674  0.5488 -0.7304  0.6732
  654MOL0     H86309   5.141   2.955   1.706  1.7007  0.1932 -3.1736
  654MOL0     H86310   5.672   3.163   0.695 -0.8940  1.9703  0.5385
  654MOL0     H86311   5.903   3.242   0.614 -0.1220  2.3233 -0.2359
  654MOL0     H86312   6.323   3.226   0.754 -0.7851 -0.5226  3.0234
  654MOL0     H86313   6.569   3.235   0.741  0.6259  0.7894  1.5318
  654MOL0     H86314   8.045   3.553   1.361 -2.4334 -1.3269 -1.1295
  654MOL0     H86315   8.277   3.615   1.324  0.6677  0.6659 -0.4693
  654MOL0     H86316   8.666   3.829   1.177 -1.1304  0.1142 -1.5219
  654MOL0     H86317   8.919   3.833   1.143 -0.4012 -0.2891 -0.8134
  654MOL0     H86318   9.020   3.587   0.838  2.3912 -2.6058 -2.5080
  654MOL0     H86319   9.152   3.499   0.921 -3.5050 -2.1832 -3.4856
  654MOL0     H86320   9.222   3.667   0.744  2.1977  2.0534  0.0318
  654MOL0     H86321   9.151   3.781   0.852  1.5916  0.5776  1.9525
  654MOL0     H86322   9.363   3.600   0.951  1.6000 -0.2531 -0.3038
  654MOL0     H86323   9.304   3.753   1.023  0.4576  4.9063 -2.7184
  654MOL0     H86324   9.522   3.818   0.913  2.2355  1.2610 -1.4536
  654MOL0     H86325   9.482   3.707   0.782 -0.3118 -1.4324  0.7577
  654MOL0     H86326   9.318   4.067   0.645 -0.1626  0.8043  1.2131
  654MOL0     H86327   8.904   3.452   0.979  0.5598  0.7136 -1.7178
  654MOL0     H86328   8.678   3.413   1.061  1.7733 -0.7110 -0.0658
  655MOL0     O86329   0.010  10.077  10.645 -0.1859 -0.6641  0.4526
  655MOL0     C86330   0.087  10.133  10.565 -0.0513 -0.3715  0.1179
  655MOL0     O86331   0.051  10.215  10.462 -0.1694 -0.5377  0.2852
  655MOL0     C86332  -0.073  10.231  10.407 -0.0521  0.9217  0.4156
  655MOL0     C86333  -0.116  10.362  10.379  0.1303  0.8775  0.0698
  655MOL0     C86334  -0.243  10.386  10.340 -0.5237  0.2428  0.2133
  655MOL0     C86335  -0.340  10.286  10.319 -0.3918  0.6317  0.4042
  655MOL0     O86336  -0.469  10.320  10.298 -0.2954 -0.0839 -0.0896
  655MOL0     C86337  -0.562  10.211  10.272 -0.2975 -0.1783  0.1160
  655MOL0     C86338  -0.698  10.261  10.217 -0.6439  0.0573 -0.4282
  655MOL0     C86339  -0.828  10.189  10.258  0.1329 -0.1709 -0.2779
  655MOL0     C86340  -0.953  10.252  10.192 -0.3476  0.6119  0.1398
  655MOL0     C86341  -1.097  10.213  10.240 -0.1864  0.2520 -0.7526
  655MOL0     C86342  -1.139  10.070  10.211 -0.1650 -0.2194 -0.0028
  655MOL0     C86343  -1.287  10.045  10.250 -0.4619  0.0610 -0.0226
  655MOL0     C86344  -1.338   9.920  10.165 -0.1851 -0.3198  0.4394
  655MOL0     N86345  -1.480   9.911  10.153 -0.6719  0.0978  0.0250
  655MOL0     C86346  -1.567   9.959  10.055  0.1744 -0.0517 -0.6453
  655MOL0     C86347  -1.697   9.923  10.097  0.2526 -0.1828 -0.3391
  655MOL0     C86348  -1.831   9.961  10.033 -0.9205 -0.2053  0.8666
  655MOL0     C86349  -1.822   9.929   9.882  0.7144 -0.4180  0.8847
  655MOL0     C86350  -1.958   9.974   9.820 -0.4627  0.5253  0.5038
  655MOL0     C86351  -2.081   9.907   9.879 -0.2982 -0.3797  0.6736
  655MOL0     O86352  -2.174   9.941   9.779 -0.5191 -0.3437 -0.2664
  655MOL0     C86353  -2.299   9.894   9.786 -0.0885  0.5249  1.2762
  655MOL0     C86354  -2.384   9.963   9.707  0.4994  0.2198  0.0759
  655MOL0     C86355  -2.519   9.926   9.707 -0.5492  0.6785  0.0294
  655MOL0     C86356  -2.560   9.822   9.792 -0.3101  0.0334 -0.1021
  655MOL0     C86357  -2.704   9.773   9.808  0.2237 -0.3278  0.4393
  655MOL0     O86358  -2.722   9.641   9.837  0.6348  0.6995  0.2696
  655MOL0     C86359  -2.850   9.583   9.844 -0.2652 -0.1470  0.4957
  655MOL0     C86360  -2.920   9.558   9.958  0.2673  0.2282 -0.0069
  655MOL0     C86361  -3.059   9.522   9.944 -0.1459 -0.3238 -0.1422
  655MOL0     C86362  -3.134   9.527   9.825  0.0841  0.4999  0.6082
  655MOL0     O86363  -3.270   9.512   9.831 -0.4045  0.9380  0.7390
  655MOL0     C86364  -3.335   9.441   9.723 -0.0043  0.1234 -0.5014
  655MOL0     C86365  -3.289   9.293   9.720  1.6381  0.6195  0.7492
  655MOL0     C86366  -3.372   9.209   9.622  0.2268 -0.2058 -0.1578
  655MOL0     C86367  -3.338   9.060   9.647  0.8324 -0.1108 -0.4009
  655MOL0     C86368  -3.426   8.978   9.549 -0.1846  0.3820 -0.4533
  655MOL0     C86369  -3.380   8.829   9.541  0.3587  0.5070  0.7449
  655MOL0     C86370  -3.432   8.766   9.412  0.3178  0.9588  0.7058
  655MOL0     C86371  -3.354   8.651   9.348  0.0810 -0.6444 -0.2007
  655MOL0    Cl86372  -3.344   8.512   9.468 -0.6799 -0.0060  0.0634
  655MOL0     C86373  -3.065   9.555   9.711 -0.6415  0.1652 -0.1890
  655MOL0     C86374  -2.922   9.584   9.724  0.1743  0.0896  1.0762
  655MOL0     O86375  -2.797   9.846   9.767 -0.4064  0.1986 -0.1360
  655MOL0     C86376  -2.465   9.751   9.868  0.3960 -0.6303  0.7430
  655MOL0     C86377  -2.336   9.796   9.874 -0.3689 -0.7343  0.4550
  655MOL0     N86378  -1.682   9.842  10.207  0.8944  1.2955  0.0907
  655MOL0     N86379  -1.556   9.848  10.243  0.0851  0.5527  0.1312
  655MOL0     C86380  -0.298  10.152  10.335  0.6937 -0.0287  0.2498
  655MOL0     C86381  -0.161  10.127  10.371  0.8476  0.2538  0.3211
  655MOL0     C86382   0.235  10.120  10.597  0.0202  0.4195 -0.5444
  655MOL0     C86383   0.331  10.152  10.501 -0.2490  0.3188  0.1310
  655MOL0     C86384   0.469  10.150  10.528 -0.3184  0.4656  0.8050
  655MOL0     C86385   0.509  10.122  10.664  0.6226 -0.7702  0.6627
  655MOL0     O86386   0.645  10.124  10.689  0.0545  0.1870 -0.1014
  655MOL0     C86387   0.695  10.043  10.794 -0.4646 -0.1387 -0.1575
  655MOL0     C86388   0.846  10.062  10.788  0.1548 -0.0185  0.0136
  655MOL0     C86389   0.911   9.947  10.859  0.1056 -0.4704  0.0878
  655MOL0     C86390   1.059   9.939  10.829 -1.3385 -0.4014 -0.4803
  655MOL0     C86391   1.130  10.070  10.845 -0.4457 -0.5897  0.1056
  655MOL0     C86392   1.178  10.185  10.852  0.4544  0.6092 -0.0131
  655MOL0     C86393   0.407  10.098  10.756  0.1964  0.8049 -0.3778
  655MOL0     C86394   0.273  10.095  10.719 -1.6892  0.3729 -0.2736
  655MOL0     H86395  -0.052  10.447  10.403 -0.6930  1.5609 -0.1231
  655MOL0     H86396  -0.289  10.484  10.342 -3.2026 -0.9475  2.3163
  655MOL0     H86397  -0.579  10.154  10.363  0.2372  0.4572  0.6190
  655MOL0     H86398  -0.528  10.137  10.199  0.9093 -4.1543  4.2559
  655MOL0     H86399  -0.691  10.267  10.108 -0.2860 -1.7143 -0.5416
  655MOL0     H86400  -0.698  10.360  10.264 -1.8938 -0.0468 -0.1909
  655MOL0     H86401  -0.818  10.191  10.367  0.1969  0.0638 -0.2876
  655MOL0     H86402  -0.812  10.084  10.233  0.4005 -0.3918  0.7633
  655MOL0     H86403  -0.939  10.360  10.195  1.8427  0.3505  1.9989
  655MOL0     H86404  -0.954  10.232  10.084 -3.6746  3.3815 -0.5146
  655MOL0     H86405  -1.165  10.276  10.183 -0.7749 -0.3965 -0.7895
  655MOL0     H86406  -1.106  10.223  10.349 -0.0478 -3.9714 -0.1573
  655MOL0     H86407  -1.068  10.000  10.256 -1.6292 -1.1756  0.8979
  655MOL0     H86408  -1.128  10.067  10.102  3.7691  3.1357  0.0439
  655MOL0     H86409  -1.287  10.020  10.357  0.6790  5.0409  1.4472
  655MOL0     H86410  -1.345  10.135  10.226  2.7139  2.5771  0.8731
  655MOL0     H86411  -1.292   9.830  10.206 -0.1140 -0.7785 -0.5983
  655MOL0     H86412  -1.298   9.925  10.063 -0.2959 -4.1157  0.0598
  655MOL0     H86413  -1.537  10.020   9.970 -1.8840  0.9474 -0.7267
  655MOL0     H86414  -1.831  10.070  10.024 -0.4290 -0.1657  1.3139
  655MOL0     H86415  -1.919   9.917  10.079 -1.2136 -1.1012 -0.4817
  655MOL0     H86416  -1.800   9.823   9.867  0.0172 -0.3238 -1.0914
  655MOL0     H86417  -1.746   9.993   9.835  0.0177  1.6164  2.3648
  655MOL0     H86418  -1.978  10.081   9.836 -1.5561  0.4257 -0.0934
  655MOL0     H86419  -1.955   9.953   9.713 -2.0934 -2.6044  0.9716
  655MOL0     H86420  -2.102   9.951   9.977 -0.6737  0.2113  0.3381
  655MOL0     H86421  -2.064   9.800   9.884  2.4454 -0.0277  0.0796
  655MOL0     H86422  -2.339  10.041   9.647  1.0501 -0.8302 -0.9132
  655MOL0     H86423  -2.594   9.981   9.651 -1.3248  0.0570  0.4372
  655MOL0     H86424  -2.890   9.580  10.061 -0.8938  0.4137  0.2989
  655MOL0     H86425  -3.122   9.508  10.031  0.3581 -1.0507  0.1112
  655MOL0     H86426  -3.332   9.502   9.632 -0.3798  1.3125  0.2549
  655MOL0     H86427  -3.443   9.440   9.742 -0.3643 -1.0864 -2.3165
  655MOL0     H86428  -3.295   9.242   9.816  1.3073 -1.8541 -0.5095
  655MOL0     H86429  -3.185   9.279   9.688  0.6691 -1.2258 -1.9926
  655MOL0     H86430  -3.330   9.244   9.527  0.4675  1.2125  0.4543
  655MOL0     H86431  -3.479   9.232   9.627  0.5018  1.1497 -0.1528
  655MOL0     H86432  -3.230   9.041   9.640  0.9884  1.2495 -2.7286
  655MOL0     H86433  -3.380   9.043   9.746  0.3188  1.6026 -0.2926
  655MOL0     H86434  -3.420   9.027   9.452  1.6416  1.9192  0.3947
  655MOL0     H86435  -3.523   9.004   9.592  0.8867  1.8797  1.2060
  655MOL0     H86436  -3.402   8.762   9.625 -0.7696  1.6294  1.3891
  655MOL0     H86437  -3.271   8.835   9.529  0.0554  2.5806 -1.8891
  655MOL0     H86438  -3.534   8.731   9.431  0.4019  0.5204  0.3713
  655MOL0     H86439  -3.427   8.843   9.334  1.1622 -0.0612 -0.2833
  655MOL0     H86440  -3.254   8.687   9.319 -1.4054  1.8434 -2.8931
  655MOL0     H86441  -3.410   8.625   9.258 -1.2485 -2.2602  1.0402
  655MOL0     H86442  -3.118   9.558   9.617  0.4846 -0.2568 -0.8650
  655MOL0     H86443  -2.866   9.602   9.633  1.5948  0.2708  1.9644
  655MOL0     H86444  -2.509   9.680   9.937 -1.1190  0.0683  0.5449
  655MOL0     H86445  -2.262   9.740   9.930  0.0349 -0.7578 -0.0952
  655MOL0     H86446  -0.364  10.068  10.317 -0.5731  0.9639  0.1740
  655MOL0     H86447  -0.133  10.023  10.381  1.6129  0.4208 -0.0158
  655MOL0     H86448   0.296  10.175  10.401 -0.4130 -1.7816 -0.3438
  655MOL0     H86449   0.544  10.183  10.457 -0.0493 -2.3868 -0.3805
  655MOL0     H86450   0.670   9.940  10.766 -1.3095 -0.2796  1.0072
  655MOL0     H86451   0.650  10.066  10.891 -0.8423  1.7073 -0.7250
  655MOL0     H86452   0.875  10.059  10.682  3.4184 -2.2655  0.8068
  655MOL0     H86453   0.871  10.162  10.824 -2.1711  0.9890 -0.9223
  655MOL0     H86454   0.859   9.863  10.811  0.1183  0.6130 -1.9219
  655MOL0     H86455   0.896   9.954  10.967  2.9160 -1.1312  0.5918
  655MOL0     H86456   1.108   9.868  10.896 -0.5599  0.7707  0.2165
  655MOL0     H86457   1.081   9.908  10.726  0.8230 -4.1458  0.8796
  655MOL0     H86458   1.207  10.288  10.854  0.4932  0.6021 -0.2614
  655MOL0     H86459   0.449  10.088  10.856 -1.9966  1.3823  0.6612
  655MOL0     H86460   0.205  10.089  10.804 -0.7809  2.0849  0.6343
  656MOL0     O86461   7.804  10.330   8.429  0.6605 -0.0080  0.6112
  656MOL0     C86462   7.802  10.436   8.491  0.2637 -0.1052 -0.3488
  656MOL0     O86463   7.909  10.497   8.552 -0.2486 -0.1113 -0.0760
  656MOL0     C86464   8.031  10.447   8.572 -0.1355  0.6384 -0.0646
  656MOL0     C86465   8.056  10.309   8.587 -0.2967 -0.0898 -0.2929
  656MOL0     C86466   8.183  10.254   8.617  0.0645  0.3034  0.2178
  656MOL0     C86467   8.296  10.343   8.644 -0.0333  0.2949  0.1648
  656MOL0     O86468   8.428  10.312   8.673 -0.9721  0.4058  0.6257
  656MOL0     C86469   8.456  10.174   8.697  0.0658  0.0030  0.6522
  656MOL0     C86470   8.596  10.146   8.761  0.0102 -0.1903  0.3676
  656MOL0     C86471   8.698  10.122   8.651  0.9457  0.6501 -0.0227
  656MOL0     C86472   8.838  10.078   8.686 -0.0746  0.1081 -0.0033
  656MOL0     C86473   8.933  10.058   8.567 -0.3278 -0.0030  0.0194
  656MOL0     C86474   9.082  10.078   8.604 -0.0880 -0.3751  0.9566
  656MOL0     C86475   9.129   9.953   8.686  0.5221  1.0318  0.3703
  656MOL0     C86476   9.190   9.987   8.831  0.7530  0.3196 -0.0729
  656MOL0     N86477   9.318  10.059   8.808  0.3923  0.0644 -0.0198
  656MOL0     C86478   9.425  10.017   8.736  0.2654 -0.4723  1.3444
  656MOL0     C86479   9.515  10.122   8.729 -0.2708  1.1022  0.5356
  656MOL0     C86480   9.649  10.122   8.662 -0.5258  0.2857  0.3200
  656MOL0     C86481   9.747  10.010   8.725  0.3069  0.8959 -0.2950
  656MOL0     C86482   9.896  10.038   8.691  0.5251 -0.0513  0.3143
  656MOL0     C86483   9.973   9.932   8.770  0.2548  0.1695 -0.5590
  656MOL0     O86484  10.116   9.936   8.748 -0.0862  0.3026  0.4252
  656MOL0     C86485  10.198   9.997   8.842  0.5795 -0.2292 -0.1113
  656MOL0     C86486  10.162  10.037   8.971 -0.6353  0.0979 -0.4684
  656MOL0     C86487  10.255  10.084   9.062 -0.2454 -0.2172  0.4670
  656MOL0     C86488  10.386  10.104   9.014 -0.4118  0.1325  0.6939
  656MOL0     C86489  10.494  10.143   9.107  0.0754  0.6271  0.4482
  656MOL0     O86490  10.464  10.225   9.213  0.0504 -0.5983  0.1609
  656MOL0     C86491  10.366  10.323   9.212 -0.7090  0.5327  0.5235
  656MOL0     C86492  10.363  10.411   9.106 -0.5086  0.5276 -0.3646
  656MOL0     C86493  10.274  10.518   9.101  0.1249  0.0417  0.2475
  656MOL0     C86494  10.192  10.546   9.207  0.2485  0.0051  0.7320
  656MOL0     O86495  10.103  10.653   9.207 -1.0219 -0.4022  0.3885
  656MOL0     C86496  10.075  10.734   9.094  0.4831 -1.3249 -0.1377
  656MOL0     C86497   9.979  10.843   9.138 -0.2458  0.5050 -0.3934
  656MOL0     C86498   9.978  10.961   9.038 -0.1444  0.0764 -0.2496
  656MOL0     C86499   9.902  11.088   9.091  0.7456 -0.0346 -0.6878
  656MOL0     C86500   9.862  11.187   8.988 -0.0758 -0.6432  0.0874
  656MOL0     C86501   9.767  11.293   9.043  0.1513 -0.4270 -0.7416
  656MOL0     C86502   9.699  11.368   8.927 -0.5883  0.0077  0.2864
  656MOL0     C86503   9.615  11.475   8.967  0.1361 -0.2893  0.4187
  656MOL0    Cl86504   9.540  11.554   8.820  0.4614 -0.4987 -0.0785
  656MOL0     C86505  10.220  10.471   9.322  0.2746 -0.3090 -0.5365
  656MOL0     C86506  10.299  10.353   9.324 -0.5147  0.3867  0.0539
  656MOL0     O86507  10.605  10.084   9.091  0.1815 -0.1335  0.2524
  656MOL0     C86508  10.427  10.073   8.883  0.6263 -0.4763 -0.4265
  656MOL0     C86509  10.328  10.011   8.803 -0.6431  0.0766 -0.1132
  656MOL0     N86510   9.469  10.220   8.808  0.7048 -0.5127  0.1628
  656MOL0     N86511   9.358  10.182   8.860  0.0156 -0.8461 -0.3399
  656MOL0     C86512   8.270  10.474   8.623  0.8412  0.1036 -0.2602
  656MOL0     C86513   8.142  10.528   8.582  0.4652 -0.0946  1.1895
  656MOL0     C86514   7.674  10.508   8.495 -0.5609 -0.6687 -0.4375
  656MOL0     C86515   7.665  10.633   8.558  0.1045 -0.5600  0.6841
  656MOL0     C86516   7.549  10.705   8.556 -0.6321  0.7569 -0.0788
  656MOL0     C86517   7.431  10.663   8.481 -0.4888 -0.8897 -0.1382
  656MOL0     O86518   7.316  10.744   8.495  0.5739  0.1322 -0.3127
  656MOL0     C86519   7.187  10.680   8.480 -0.0139 -0.4072  0.0037
  656MOL0     C86520   7.091  10.754   8.560  0.6859 -1.3798 -0.5742
  656MOL0     C86521   6.943  10.750   8.504 -0.5566 -0.0130 -0.0478
  656MOL0     C86522   6.846  10.817   8.602  0.0298  0.5171  0.4522
  656MOL0     C86523   6.707  10.816   8.537 -0.9082 -0.4438  0.8599
  656MOL0     C86524   6.596  10.838   8.493  0.7189  0.1395  0.2010
  656MOL0     C86525   7.444  10.537   8.419  0.0210  0.4054 -0.2917
  656MOL0     C86526   7.564  10.464   8.421  0.6409 -0.3215 -0.3587
  656MOL0     H86527   7.970  10.246   8.567 -0.8340  0.8568 -1.0664
  656MOL0     H86528   8.189  10.146   8.616 -0.4804  0.2716 -0.1249
  656MOL0     H86529   8.438  10.118   8.605  1.5918  0.6803 -0.0942
  656MOL0     H86530   8.386  10.137   8.772 -0.3475 -3.9997 -1.4691
  656MOL0     H86531   8.584  10.053   8.817 -0.7676  0.5631  1.5285
  656MOL0     H86532   8.632  10.224   8.829  0.3519 -1.4024  1.6239
  656MOL0     H86533   8.692  10.200   8.574  4.6571 -2.2094 -3.6756
  656MOL0     H86534   8.662  10.043   8.585 -1.1081  1.1024  0.4762
  656MOL0     H86535   8.878  10.171   8.727 -0.3477  0.0181  0.4764
  656MOL0     H86536   8.833  10.006   8.768  2.3065 -0.3489 -0.1753
  656MOL0     H86537   8.908  10.133   8.491  4.5276  2.8183  0.8061
  656MOL0     H86538   8.922   9.957   8.527  2.2808 -0.6405  0.7316
  656MOL0     H86539   9.099  10.172   8.657 -1.3393 -0.0286  0.7730
  656MOL0     H86540   9.132  10.074   8.506  2.3880  0.3099  2.1046
  656MOL0     H86541   9.052   9.877   8.704  1.6285  0.3775  2.7856
  656MOL0     H86542   9.209   9.902   8.632  1.9658  1.3433  2.1282
  656MOL0     H86543   9.201   9.902   8.900  0.4131  0.3249 -0.0118
  656MOL0     H86544   9.117  10.050   8.882  0.9379 -0.8089  1.6996
  656MOL0     H86545   9.432   9.925   8.680  1.3626  0.3466  0.0612
  656MOL0     H86546   9.689  10.223   8.676  1.8008 -0.3426 -1.3468
  656MOL0     H86547   9.637  10.102   8.555  0.1624  1.6041 -0.0177
  656MOL0     H86548   9.725   9.909   8.690 -1.9552  1.7879 -1.6732
  656MOL0     H86549   9.741  10.016   8.835  2.9899 -2.7821  0.2343
  656MOL0     H86550   9.921  10.019   8.586 -0.4248 -1.8923  0.3724
  656MOL0     H86551   9.925  10.138   8.722 -0.3854  0.9651 -1.9042
  656MOL0     H86552   9.934   9.835   8.736 -0.1012  1.0226 -2.7440
  656MOL0     H86553   9.939   9.940   8.873  1.2128 -0.8581 -0.1443
  656MOL0     H86554  10.069  10.034   9.026  1.4882 -0.0610  3.4901
  656MOL0     H86555  10.224  10.109   9.163 -0.3629  1.8750 -0.0235
  656MOL0     H86556  10.427  10.387   9.023 -0.1647  0.6028 -0.1225
  656MOL0     H86557  10.257  10.572   9.008 -1.9164  1.7739  1.5503
  656MOL0     H86558  10.034  10.678   9.009  0.6642  1.3643 -2.1459
  656MOL0     H86559  10.163  10.790   9.061 -0.8087  1.0877  0.3083
  656MOL0     H86560   9.997  10.871   9.243  3.2909 -1.6433 -0.2802
  656MOL0     H86561   9.875  10.808   9.130 -0.7796  0.7523  3.3525
  656MOL0     H86562   9.919  10.927   8.952 -0.1600  1.6926 -0.9205
  656MOL0     H86563  10.082  10.983   9.011  0.6957 -2.7755  0.3224
  656MOL0     H86564   9.811  11.062   9.146  0.5149  2.9962  0.5734
  656MOL0     H86565   9.967  11.143   9.159 -0.0079  1.4746 -1.1364
  656MOL0     H86566   9.806  11.137   8.909 -1.2110  1.0540 -0.2506
  656MOL0     H86567   9.951  11.227   8.938  0.7017 -0.3080  1.6813
  656MOL0     H86568   9.824  11.352   9.115 -1.7752  0.1941  0.3361
  656MOL0     H86569   9.687  11.246   9.101  1.5672 -1.9596  0.0615
  656MOL0     H86570   9.765  11.412   8.852 -0.5713 -0.7016 -0.1241
  656MOL0     H86571   9.648  11.292   8.867  1.9808 -0.0949 -1.9478
  656MOL0     H86572   9.676  11.544   9.025 -0.1188  2.6919 -2.6053
  656MOL0     H86573   9.541  11.442   9.041 -0.7040  1.4278  0.3846
  656MOL0     H86574  10.168  10.487   9.416 -0.9439  2.9859 -1.6580
  656MOL0     H86575  10.310  10.297   9.417 -0.1244  0.8968  0.3199
  656MOL0     H86576  10.532  10.074   8.857  0.3205  0.0322 -1.7532
  656MOL0     H86577  10.372   9.967   8.714  3.0995 -1.2953  2.1716
  656MOL0     H86578   8.350  10.547   8.634 -0.0331  0.9742  0.4458
  656MOL0     H86579   8.121  10.633   8.568  1.6412 -0.0113 -0.1894
  656MOL0     H86580   7.744  10.685   8.612  0.5721  2.1738 -2.3683
  656MOL0     H86581   7.545  10.792   8.621 -0.9585  1.1456 -0.6078
  656MOL0     H86582   7.189  10.579   8.521 -0.4425 -1.0125 -1.4143
  656MOL0     H86583   7.166  10.676   8.373 -2.0650  0.1738  0.3424
  656MOL0     H86584   7.090  10.708   8.660  0.6743  0.6044  0.3926
  656MOL0     H86585   7.125  10.858   8.570  0.3520 -1.5011  3.5384
  656MOL0     H86586   6.915  10.644   8.505 -0.3092 -0.0955  1.7968
  656MOL0     H86587   6.931  10.792   8.403 -2.1015 -1.8541 -0.6946
  656MOL0     H86588   6.839  10.760   8.695  0.0997 -0.7714 -0.3095
  656MOL0     H86589   6.878  10.920   8.618 -0.3375  0.8968 -1.1595
  656MOL0     H86590   6.498  10.852   8.451  1.1184 -1.8975 -1.5582
  656MOL0     H86591   7.351  10.516   8.369 -0.3754  1.7442 -0.1604
  656MOL0     H86592   7.563  10.368   8.369  1.3753  0.0280 -1.0342
  657MOL0     O86593   7.000   9.273   4.873  0.2688 -0.3966 -0.7512
  657MOL0     C86594   7.011   9.328   4.766  0.4157 -0.1755 -0.4325
  657MOL0     O86595   6.931   9.420   4.714  0.3708  0.8626  0.0673
  657MOL0     C86596   6.803   9.449   4.767 -0.4168  0.0584 -1.0162
  657MOL0     C86597   6.700   9.488   4.684 -0.7549 -0.2556  0.3000
  657MOL0     C86598   6.581   9.531   4.727  0.3085  0.2482 -0.4870
  657MOL0     C86599   6.547   9.546   4.859 -0.4061  0.2332 -1.1062
  657MOL0     O86600   6.427   9.595   4.900  0.0735 -0.0772  0.2904
  657MOL0     C86601   6.327   9.492   4.895  0.1459 -0.5044 -0.1764
  657MOL0     C86602   6.192   9.544   4.960 -0.9776  0.0949 -0.5248
  657MOL0     C86603   6.208   9.550   5.114 -0.1811  0.6199  0.1762
  657MOL0     C86604   6.091   9.640   5.184 -0.4283  0.8328 -0.0921
  657MOL0     C86605   5.950   9.590   5.149 -0.2755 -0.1422 -0.3626
  657MOL0     C86606   5.849   9.671   5.230 -0.3654  0.4849 -0.3938
  657MOL0     C86607   5.838   9.817   5.198  0.0630  0.5429 -0.6060
  657MOL0     C86608   5.721   9.852   5.105  0.8672 -0.4270  0.0631
  657MOL0     N86609   5.602   9.858   5.178  0.4831 -0.7917 -0.3300
  657MOL0     C86610   5.492   9.781   5.152 -0.2650  0.4692 -0.6875
  657MOL0     C86611   5.387   9.842   5.212 -0.7731  0.2562 -0.7571
  657MOL0     C86612   5.245   9.787   5.240  0.3395 -0.5545  0.2050
  657MOL0     C86613   5.158   9.826   5.123  1.2525 -0.0477  0.3059
  657MOL0     C86614   5.019   9.759   5.159 -0.3714  0.5873 -0.5608
  657MOL0     C86615   4.899   9.790   5.074  0.3704 -0.0508 -0.2052
  657MOL0     O86616   4.785   9.720   5.113  0.0967  0.2775  0.4275
  657MOL0     C86617   4.659   9.763   5.074 -0.9464 -0.4154  0.2396
  657MOL0     C86618   4.641   9.876   4.994  0.7459 -0.1650 -1.1024
  657MOL0     C86619   4.516   9.921   4.968  0.5861  0.3699 -0.5379
  657MOL0     C86620   4.403   9.855   5.024 -0.1069  0.9127  0.0272
  657MOL0     C86621   4.262   9.902   4.997 -0.7058  0.5968 -0.6698
  657MOL0     O86622   4.248  10.016   4.927  1.1290  0.7642 -0.2162
  657MOL0     C86623   4.124  10.044   4.885  0.5448 -0.6931 -0.6908
  657MOL0     C86624   4.109  10.084   4.756 -0.6186  1.4734  0.5348
  657MOL0     C86625   3.985  10.118   4.701  0.3253 -0.2089 -0.6112
  657MOL0     C86626   3.879  10.126   4.787 -0.0736  0.9900 -0.1307
  657MOL0     O86627   3.758  10.148   4.730  0.5159 -0.3683 -0.3977
  657MOL0     C86628   3.647  10.085   4.792  0.2701  0.3715 -0.4739
  657MOL0     C86629   3.516  10.123   4.709 -1.1651 -0.3604 -0.2097
  657MOL0     C86630   3.393  10.052   4.762 -0.2571 -0.4554  0.0638
  657MOL0     C86631   3.278  10.032   4.659  0.3767 -0.0965 -0.1188
  657MOL0     C86632   3.234  10.164   4.600  0.4731  0.5563 -0.0874
  657MOL0     C86633   3.106  10.160   4.521  0.5863  0.1837  0.3979
  657MOL0     C86634   2.984  10.155   4.611 -0.3966  0.4643 -0.0503
  657MOL0     C86635   2.865  10.198   4.539 -0.1438  0.2804  0.1836
  657MOL0    Cl86636   2.872  10.160   4.362 -0.1187 -0.3713 -0.3532
  657MOL0     C86637   3.895  10.107   4.921 -0.0671 -0.9358  0.5781
  657MOL0     C86638   4.021  10.073   4.971  0.1669 -0.3967  0.1705
  657MOL0     O86639   4.175   9.839   5.045  0.2099 -0.1920  0.5958
  657MOL0     C86640   4.430   9.743   5.108 -0.3117 -0.0126  0.5948
  657MOL0     C86641   4.554   9.693   5.127 -0.6916 -0.6368 -0.0969
  657MOL0     N86642   5.435   9.963   5.259 -0.5162  0.2626 -0.6815
  657MOL0     N86643   5.566   9.971   5.241  0.1211 -1.0421  0.4951
  657MOL0     C86644   6.645   9.501   4.946 -0.4592  0.2715 -0.4072
  657MOL0     C86645   6.773   9.462   4.904 -0.9360  1.0525  1.2923
  657MOL0     C86646   7.137   9.291   4.685  0.2295 -0.2329  0.6229
  657MOL0     C86647   7.154   9.323   4.543 -0.8181  0.0227 -0.3305
  657MOL0     C86648   7.273   9.285   4.476  0.3158 -0.3499  0.3599
  657MOL0     C86649   7.373   9.211   4.537 -0.0830  0.0640 -1.1779
  657MOL0     O86650   7.482   9.191   4.459  0.0598 -0.2475  0.8167
  657MOL0     C86651   7.548   9.065   4.471 -0.2259  0.0224  0.3305
  657MOL0     C86652   7.477   8.954   4.380 -0.3832  0.9410 -0.6080
  657MOL0     C86653   7.344   8.904   4.445  0.2164 -1.1928  0.1935
  657MOL0     C86654   7.291   8.769   4.396 -0.3825  0.7972  0.5654
  657MOL0     C86655   7.272   8.760   4.250 -0.4274 -0.1130 -0.6188
  657MOL0     C86656   7.242   8.742   4.136  0.0050  0.4025  0.2872
  657MOL0     C86657   7.353   9.172   4.671 -0.0980 -0.3359 -0.2257
  657MOL0     C86658   7.241   9.218   4.746 -0.5062  0.4434  1.0070
  657MOL0     H86659   6.711   9.464   4.579 -0.6365 -2.1938  0.7176
  657MOL0     H86660   6.497   9.546   4.660 -1.0521  1.9141  1.4467
  657MOL0     H86661   6.369   9.403   4.944 -0.6875 -0.9891 -0.3278
  657MOL0     H86662   6.305   9.461   4.792 -0.7118 -0.3450 -0.0425
  657MOL0     H86663   6.125   9.459   4.940  0.4632 -1.3096  0.4312
  657MOL0     H86664   6.159   9.640   4.918 -1.4745 -0.1585 -0.7219
  657MOL0     H86665   6.302   9.593   5.149  0.2607 -0.4275  0.2974
  657MOL0     H86666   6.198   9.450   5.156  0.4107  1.0483  1.3656
  657MOL0     H86667   6.099   9.641   5.293 -2.9762  3.3205  0.1946
  657MOL0     H86668   6.106   9.739   5.139  0.2095  0.3351 -1.0062
  657MOL0     H86669   5.950   9.486   5.182 -1.3192  0.0580  0.3377
  657MOL0     H86670   5.922   9.587   5.043 -2.1841  1.9876 -0.0082
  657MOL0     H86671   5.879   9.674   5.335  0.8979  3.1529 -0.7566
  657MOL0     H86672   5.756   9.614   5.227 -0.1652 -0.1513  2.7323
  657MOL0     H86673   5.831   9.882   5.286 -1.9863 -0.2064 -0.1676
  657MOL0     H86674   5.928   9.846   5.144 -0.6539  2.4899 -0.8503
  657MOL0     H86675   5.713   9.779   5.024  0.0462  1.3932 -1.5965
  657MOL0     H86676   5.743   9.954   5.071 -1.5685 -0.2114 -1.1097
  657MOL0     H86677   5.499   9.678   5.119 -5.1023 -0.6348  0.8167
  657MOL0     H86678   5.209   9.825   5.336  0.2032 -0.1402 -0.0065
  657MOL0     H86679   5.244   9.678   5.240 -4.8023 -0.7920 -1.5278
  657MOL0     H86680   5.188   9.782   5.028 -1.4301 -0.2454 -0.5321
  657MOL0     H86681   5.145   9.934   5.108 -0.5381 -0.2670  0.0045
  657MOL0     H86682   5.042   9.653   5.173  4.4778  1.0132 -3.0202
  657MOL0     H86683   4.983   9.794   5.256  2.9538  3.4059 -0.1393
  657MOL0     H86684   4.920   9.747   4.975  1.6504 -3.7488  1.4820
  657MOL0     H86685   4.886   9.898   5.078  1.4460  0.3763 -4.1987
  657MOL0     H86686   4.714   9.942   4.947 -2.4778  1.8530 -3.7957
  657MOL0     H86687   4.502  10.021   4.928 -1.4759  0.3441 -0.0058
  657MOL0     H86688   4.204  10.081   4.703 -0.3889  0.9667  0.9699
  657MOL0     H86689   3.978  10.133   4.594  0.8875  0.1575 -0.5998
  657MOL0     H86690   3.617  10.118   4.892 -2.0201  0.6889 -1.2085
  657MOL0     H86691   3.664   9.977   4.800 -0.0180  0.3876  0.5871
  657MOL0     H86692   3.526  10.096   4.604 -1.1384  0.6001 -0.4668
  657MOL0     H86693   3.499  10.231   4.720 -2.1161 -0.3928 -1.2087
  657MOL0     H86694   3.356  10.102   4.852 -1.0817  0.6251 -0.8446
  657MOL0     H86695   3.422   9.951   4.792  0.5165 -0.2268  0.0915
  657MOL0     H86696   3.322   9.969   4.582 -2.0415 -1.9780 -0.0854
  657MOL0     H86697   3.197   9.975   4.706  3.2238 -1.2723  3.9597
  657MOL0     H86698   3.322  10.206   4.551 -0.2431  2.5207  0.1931
  657MOL0     H86699   3.221  10.233   4.684 -0.4782  0.1028  0.1494
  657MOL0     H86700   3.107  10.085   4.440  3.0241 -0.8716  1.3025
  657MOL0     H86701   3.099  10.248   4.456  1.4964  0.6783  0.9593
  657MOL0     H86702   2.973  10.052   4.644 -2.1521  0.8440  0.6571
  657MOL0     H86703   2.998  10.216   4.700  3.1257 -0.3323  0.0988
  657MOL0     H86704   2.860  10.307   4.550  1.5508  0.9607 -4.0063
  657MOL0     H86705   2.774  10.156   4.584  0.7539 -1.0249  0.8342
  657MOL0     H86706   3.810  10.121   4.988 -1.5055  2.9286 -1.6815
  657MOL0     H86707   4.034  10.075   5.078  2.0891 -0.9970 -0.0167
  657MOL0     H86708   4.350   9.697   5.166  0.3173  0.6473  2.0492
  657MOL0     H86709   4.571   9.610   5.195 -2.1045 -1.3733 -0.6042
  657MOL0     H86710   6.611   9.535   5.044 -2.8754 -0.0907 -1.0616
  657MOL0     H86711   6.850   9.437   4.976 -0.6302 -0.0896  0.5895
  657MOL0     H86712   7.075   9.375   4.490  0.1631  1.9410  0.0107
  657MOL0     H86713   7.276   9.311   4.371 -0.6082 -0.5069  0.2854
  657MOL0     H86714   7.536   9.026   4.572  0.3972  1.3523  0.9550
  657MOL0     H86715   7.654   9.076   4.445 -0.4834  0.6163 -0.5404
  657MOL0     H86716   7.453   8.996   4.282  0.4155  0.8562 -0.8396
  657MOL0     H86717   7.541   8.866   4.372 -0.3900  1.0485 -2.0417
  657MOL0     H86718   7.266   8.978   4.424  0.9730 -0.3419  0.3348
  657MOL0     H86719   7.367   8.894   4.551 -0.2774  0.6068  0.4913
  657MOL0     H86720   7.354   8.685   4.426 -2.8652 -1.6901 -0.6409
  657MOL0     H86721   7.197   8.759   4.451 -0.3267 -0.3385  0.4714
  657MOL0     H86722   7.224   8.725   4.032  0.3933  1.3831  0.0491
  657MOL0     H86723   7.435   9.128   4.727  0.3432 -1.4121 -1.6484
  657MOL0     H86724   7.245   9.205   4.853 -0.1745  1.4219  1.1169
  658MOL0     O86725   9.786   7.490   6.154  0.2450  0.0664  0.3271
  658MOL0     C86726   9.877   7.567   6.178 -0.0047 -0.2490  0.5537
  658MOL0     O86727   9.909   7.683   6.108 -0.1126  0.0232 -0.2634
  658MOL0     C86728   9.855   7.706   5.984  0.2982 -0.6879  1.0969
  658MOL0     C86729   9.719   7.687   5.949 -0.3856 -0.0256  0.3564
  658MOL0     C86730   9.670   7.725   5.823  0.1185  0.2996  0.2976
  658MOL0     C86731   9.752   7.778   5.722 -1.1635 -0.0778 -0.2171
  658MOL0     O86732   9.710   7.800   5.594  0.5838 -0.5159  0.4793
  658MOL0     C86733   9.621   7.910   5.578 -0.4072  0.1175  0.6051
  658MOL0     C86734   9.476   7.864   5.597 -0.3390 -0.5751 -0.0368
  658MOL0     C86735   9.363   7.915   5.508 -0.5000  0.4463 -0.0265
  658MOL0     C86736   9.363   8.072   5.502  0.0073  0.6481  0.1812
  658MOL0     C86737   9.248   8.120   5.424  0.6534  0.0262 -0.0834
  658MOL0     C86738   9.199   8.250   5.480  0.4490 -0.3081 -0.7192
  658MOL0     C86739   9.124   8.330   5.374 -0.0477 -0.2824 -0.2225
  658MOL0     C86740   9.020   8.245   5.289 -0.8591  0.4117 -0.3457
  658MOL0     N86741   8.888   8.231   5.357 -0.1175 -0.2588 -0.1444
  658MOL0     C86742   8.786   8.317   5.338  0.7126 -0.2857  0.0074
  658MOL0     C86743   8.685   8.287   5.428  0.0768 -0.6232  0.0544
  658MOL0     C86744   8.541   8.347   5.422 -0.1147 -0.2912 -0.8645
  658MOL0     C86745   8.415   8.259   5.452 -0.2781 -0.1447  0.7161
  658MOL0     C86746   8.402   8.135   5.352 -0.2237 -0.0478 -0.0514
  658MOL0     C86747   8.277   8.049   5.383 -0.2786 -0.0920  0.3018
  658MOL0     O86748   8.221   7.965   5.279 -0.2050  0.5278  0.2917
  658MOL0     C86749   8.117   8.026   5.213 -0.5445  0.3423  0.0590
  658MOL0     C86750   8.152   8.124   5.106 -0.8271  0.8679  0.0164
  658MOL0     C86751   8.062   8.222   5.055  0.3865  0.2159 -0.1322
  658MOL0     C86752   7.926   8.198   5.087  0.3957  0.2099  0.0987
  658MOL0     C86753   7.811   8.278   5.021 -0.9596  0.8563 -0.5005
  658MOL0     O86754   7.705   8.275   5.109 -0.2328 -0.3353 -0.2827
  658MOL0     C86755   7.585   8.344   5.086  0.3052 -0.4080  0.5706
  658MOL0     C86756   7.535   8.440   5.179  0.1443  0.9824  0.4878
  658MOL0     C86757   7.406   8.491   5.164 -0.2210  0.8883  0.2872
  658MOL0     C86758   7.329   8.445   5.056 -1.1407 -0.9825  0.4373
  658MOL0     O86759   7.203   8.479   5.035 -0.1312 -0.6585 -0.1286
  658MOL0     C86760   7.127   8.543   5.140 -0.6087 -0.3172 -0.6062
  658MOL0     C86761   6.975   8.537   5.101  0.3581  0.0168  0.8467
  658MOL0     C86762   6.882   8.596   5.203 -0.1268  0.5908  0.0126
  658MOL0     C86763   6.734   8.592   5.162  0.5007 -0.2112 -0.5316
  658MOL0     C86764   6.633   8.678   5.249 -0.4941  0.0698 -0.3164
  658MOL0     C86765   6.489   8.671   5.192 -0.0245 -0.1673 -0.5847
  658MOL0     C86766   6.397   8.737   5.293  0.1033 -0.5718  0.1226
  658MOL0     C86767   6.288   8.835   5.230 -0.0116  0.0026  0.6250
  658MOL0    Cl86768   6.121   8.799   5.291  0.6905  0.1249 -0.5240
  658MOL0     C86769   7.378   8.368   4.955  0.6452  0.0980  0.3640
  658MOL0     C86770   7.504   8.309   4.968 -0.9187 -0.5636 -0.9646
  658MOL0     O86771   7.814   8.334   4.907 -0.0979  0.2946 -0.1297
  658MOL0     C86772   7.892   8.092   5.182  0.1627  0.0612  0.9505
  658MOL0     C86773   7.985   8.010   5.245  0.1640 -0.0725 -0.0531
  658MOL0     N86774   8.726   8.164   5.488 -0.2310 -0.3169  0.7705
  658MOL0     N86775   8.852   8.146   5.449  0.0296 -0.1664 -0.4237
  658MOL0     C86776   9.890   7.779   5.752 -0.9361  0.0014  0.1710
  658MOL0     C86777   9.941   7.747   5.882 -0.1503 -0.3012  0.2892
  658MOL0     C86778   9.972   7.519   6.284 -0.3627 -0.9031 -0.4891
  658MOL0     C86779   9.984   7.384   6.325 -0.3446 -0.3419  0.9876
  658MOL0     C86780  10.089   7.334   6.408 -0.3618  0.3669  0.0409
  658MOL0     C86781  10.163   7.427   6.478 -0.3722  0.1729 -0.2392
  658MOL0     O86782  10.261   7.389   6.573  0.0386 -0.3322 -0.2589
  658MOL0     C86783  10.230   7.270   6.651 -0.0884  0.3160  0.0805
  658MOL0     C86784  10.317   7.233   6.770 -0.3042  0.0154 -0.5677
  658MOL0     C86785  10.469   7.240   6.750 -1.0345  0.5161  0.6964
  658MOL0     C86786  10.535   7.161   6.857 -0.5536  0.4469 -1.1030
  658MOL0     C86787  10.682   7.160   6.853  0.2255 -0.9427 -0.4890
  658MOL0     C86788  10.799   7.152   6.878 -0.1437  0.4579  0.5381
  658MOL0     C86789  10.148   7.565   6.446 -0.2197 -0.8077  0.0784
  658MOL0     C86790  10.056   7.609   6.345 -0.6502  0.3209 -0.7637
  658MOL0     H86791   9.644   7.656   6.021  0.4366  2.9525  2.6989
  658MOL0     H86792   9.566   7.703   5.802  0.5337  0.5109 -2.3202
  658MOL0     H86793   9.619   7.942   5.473 -0.7506 -0.7564  0.3356
  658MOL0     H86794   9.653   7.993   5.641  2.3665  0.9744 -1.6836
  658MOL0     H86795   9.456   7.901   5.698  2.7413  2.5532 -0.4047
  658MOL0     H86796   9.476   7.754   5.596  0.9281 -0.5872 -0.1722
  658MOL0     H86797   9.276   7.875   5.561 -0.6613 -1.2299 -1.4580
  658MOL0     H86798   9.375   7.871   5.409 -0.4493  0.4295 -0.0125
  658MOL0     H86799   9.365   8.116   5.602  2.3419  2.6595 -0.6343
  658MOL0     H86800   9.460   8.099   5.458  1.3097 -2.7538  0.6637
  658MOL0     H86801   9.169   8.044   5.425 -0.9894  1.6447 -0.6564
  658MOL0     H86802   9.277   8.133   5.319  1.5115  0.4727  0.2013
  658MOL0     H86803   9.283   8.309   5.519 -0.4671  0.4848  0.1015
  658MOL0     H86804   9.143   8.240   5.573  2.5083  1.8867  0.9079
  658MOL0     H86805   9.081   8.414   5.430 -2.0421 -0.7602 -0.9489
  658MOL0     H86806   9.194   8.372   5.301 -0.2650 -4.7459 -3.4119
  658MOL0     H86807   9.063   8.149   5.259 -3.6410 -0.6956 -1.0715
  658MOL0     H86808   9.008   8.293   5.192  1.7514 -1.3313 -1.6445
  658MOL0     H86809   8.785   8.393   5.260  1.1540 -2.7421 -2.5608
  658MOL0     H86810   8.528   8.392   5.323  4.0608  2.2814 -0.4659
  658MOL0     H86811   8.547   8.429   5.494  0.7842 -0.8678 -0.2599
  658MOL0     H86812   8.332   8.325   5.425 -1.2697 -2.1293 -1.4756
  658MOL0     H86813   8.393   8.224   5.553 -2.4177  0.7415  0.6119
  658MOL0     H86814   8.390   8.169   5.248 -2.0160  0.5709  0.3148
  658MOL0     H86815   8.486   8.067   5.366  0.2642  0.2699 -1.2963
  658MOL0     H86816   8.203   8.115   5.429 -1.0006 -2.2886  2.5219
  658MOL0     H86817   8.310   7.986   5.465 -0.2301  0.5399  0.7748
  658MOL0     H86818   8.249   8.138   5.060 -0.4103 -0.5769  0.3874
  658MOL0     H86819   8.100   8.289   4.979  2.9742  0.2821  1.1214
  658MOL0     H86820   7.597   8.460   5.266 -0.6147 -2.0586  1.8652
  658MOL0     H86821   7.359   8.545   5.245 -1.0087 -0.7550  0.9753
  658MOL0     H86822   7.169   8.644   5.141 -1.3219  0.1147 -3.7057
  658MOL0     H86823   7.138   8.496   5.238 -1.5870 -0.1230 -0.3975
  658MOL0     H86824   6.948   8.431   5.094 -0.2346  0.2760 -2.2593
  658MOL0     H86825   6.960   8.582   5.002  3.2364 -1.4381 -0.3723
  658MOL0     H86826   6.916   8.698   5.224 -0.1613  0.6038  0.0045
  658MOL0     H86827   6.898   8.541   5.296 -0.2789 -1.8464 -1.3191
  658MOL0     H86828   6.729   8.636   5.062 -3.3616  0.2313 -0.2934
  658MOL0     H86829   6.704   8.487   5.156 -1.4069  0.1938  0.7996
  658MOL0     H86830   6.667   8.781   5.261 -1.8297  0.3448  1.5359
  658MOL0     H86831   6.640   8.632   5.348  0.1293 -1.4378 -1.0375
  658MOL0     H86832   6.461   8.566   5.182 -2.3339  0.3526 -0.1576
  658MOL0     H86833   6.490   8.734   5.103 -0.9791  0.6731 -0.0190
  658MOL0     H86834   6.341   8.658   5.344 -1.3495 -0.0030 -0.5455
  658MOL0     H86835   6.448   8.793   5.373 -1.8318 -1.5997  2.2103
  658MOL0     H86836   6.277   8.813   5.124 -0.6775 -1.2611  0.9287
  658MOL0     H86837   6.306   8.941   5.249  0.4168  0.1692 -0.6398
  658MOL0     H86838   7.324   8.350   4.863  0.1685  1.7009  0.3074
  658MOL0     H86839   7.538   8.252   4.882 -1.7922 -0.9285 -1.0741
  658MOL0     H86840   7.789   8.080   5.213 -0.0472  1.4372  0.8194
  658MOL0     H86841   7.954   7.953   5.332 -0.6395 -4.7773 -3.0586
  658MOL0     H86842   9.950   7.810   5.668 -1.0663  2.3854  0.8618
  658MOL0     H86843  10.046   7.760   5.904 -0.0666  3.1974 -1.4023
  658MOL0     H86844   9.910   7.315   6.285 -0.5919  0.1244  0.6238
  658MOL0     H86845  10.113   7.229   6.422 -0.1499  0.2622 -1.0167
  658MOL0     H86846  10.237   7.178   6.592 -0.8447  0.5508 -0.3931
  658MOL0     H86847  10.123   7.284   6.669 -0.7571  0.2377 -3.1734
  658MOL0     H86848  10.277   7.294   6.852 -0.1827  0.3650 -0.7671
  658MOL0     H86849  10.303   7.130   6.804 -1.6870  1.3055  3.3308
  658MOL0     H86850  10.497   7.345   6.763  0.8583  0.0444  0.6969
  658MOL0     H86851  10.504   7.212   6.651 -1.6236  1.9578  0.0542
  658MOL0     H86852  10.493   7.189   6.954 -1.9945 -1.3790 -1.1277
  658MOL0     H86853  10.493   7.060   6.850 -3.2324  1.4534 -0.7111
  658MOL0     H86854  10.906   7.152   6.886 -0.1657 -2.3999  2.6502
  658MOL0     H86855  10.212   7.629   6.506  1.3156 -2.5790  0.4165
  658MOL0     H86856  10.060   7.715   6.319  1.0396 -0.3885 -3.8028
  659MOL0     O86857   0.305   2.839   6.716  0.1739 -0.1440  0.0887
  659MOL0     C86858   0.291   2.723   6.738  0.1534  0.2179  0.7178
  659MOL0     O86859   0.394   2.630   6.754 -0.5171 -0.3715  0.0765
  659MOL0     C86860   0.517   2.687   6.722  0.5852 -1.0708 -0.0093
  659MOL0     C86861   0.601   2.741   6.832  0.8181 -0.7932  0.6138
  659MOL0     C86862   0.729   2.797   6.803 -0.5626 -0.1705 -0.2644
  659MOL0     C86863   0.781   2.802   6.673  1.5349 -0.6640  0.9075
  659MOL0     O86864   0.903   2.854   6.642 -0.2969  0.1774  0.7714
  659MOL0     C86865   1.006   2.783   6.714 -0.1417  0.4756 -0.0693
  659MOL0     C86866   1.128   2.790   6.628 -0.1502  0.1056  1.1288
  659MOL0     C86867   1.241   2.700   6.692  0.3608 -0.2826  0.8448
  659MOL0     C86868   1.376   2.700   6.630 -0.3415 -0.3870  0.3988
  659MOL0     C86869   1.460   2.585   6.693 -0.1568  0.2085  0.4330
  659MOL0     C86870   1.419   2.459   6.625  0.3874  0.4567  0.3113
  659MOL0     C86871   1.490   2.338   6.699 -0.6249 -0.6176  0.2169
  659MOL0     C86872   1.464   2.203   6.638 -0.1323  0.2783 -0.6966
  659MOL0     N86873   1.321   2.173   6.656 -0.3580 -0.1991 -0.5981
  659MOL0     C86874   1.230   2.194   6.762 -0.1470  0.7022 -0.9865
  659MOL0     C86875   1.116   2.123   6.725  0.0430  1.0128 -0.0555
  659MOL0     C86876   1.000   2.091   6.824 -0.3623  0.2572  0.2795
  659MOL0     C86877   0.903   2.201   6.863  0.0728 -0.5584  0.9313
  659MOL0     C86878   0.789   2.236   6.764 -0.0066 -0.3654  0.2962
  659MOL0     C86879   0.734   2.372   6.755 -0.5400  0.0596 -0.1211
  659MOL0     O86880   0.671   2.411   6.872 -0.3994  0.3650 -1.1814
  659MOL0     C86881   0.549   2.361   6.916  0.0930 -0.3866  0.5581
  659MOL0     C86882   0.519   2.357   7.053 -0.3170 -0.4251 -0.2426
  659MOL0     C86883   0.400   2.290   7.101  0.2743  0.2804 -0.4138
  659MOL0     C86884   0.305   2.236   7.010 -0.2027  0.2581 -0.2341
  659MOL0     C86885   0.176   2.198   7.060  0.7856 -0.0102 -0.1151
  659MOL0     O86886   0.155   2.224   7.196  0.2487  0.3114 -0.0797
  659MOL0     C86887   0.034   2.197   7.265 -0.1311 -0.1511  0.6433
  659MOL0     C86888  -0.056   2.087   7.231 -0.1552  0.0340 -0.4669
  659MOL0     C86889  -0.171   2.066   7.310  0.6458 -0.2884  0.9241
  659MOL0     C86890  -0.201   2.144   7.425  0.1101  0.3946 -0.7847
  659MOL0     O86891  -0.316   2.150   7.494 -0.2230 -0.0079 -0.5450
  659MOL0     C86892  -0.393   2.028   7.478 -0.1761  0.6169 -0.4721
  659MOL0     C86893  -0.478   2.003   7.603 -0.0154 -0.0525 -0.6845
  659MOL0     C86894  -0.574   2.122   7.617  0.3854 -0.7674  0.6284
  659MOL0     C86895  -0.672   2.101   7.731 -0.5257  0.2734 -0.3801
  659MOL0     C86896  -0.769   2.223   7.757 -0.0275  0.2284  0.2482
  659MOL0     C86897  -0.876   2.176   7.851 -0.5007 -0.1881  0.4951
  659MOL0     C86898  -0.976   2.289   7.887 -0.1465  0.4397 -0.5394
  659MOL0     C86899  -1.057   2.242   8.010 -0.0782  0.6226  0.1739
  659MOL0    Cl86900  -0.943   2.229   8.151  0.3459 -0.1824 -0.1087
  659MOL0     C86901  -0.105   2.233   7.462  0.8113 -0.0331  0.1265
  659MOL0     C86902   0.010   2.265   7.391  0.8599 -0.0752  0.7484
  659MOL0     O86903   0.088   2.159   6.978 -0.0328 -0.1265  0.0831
  659MOL0     C86904   0.341   2.239   6.870 -0.4200 -0.3406 -0.6763
  659MOL0     C86905   0.452   2.310   6.832 -0.6526  0.1496  0.2360
  659MOL0     N86906   1.125   2.076   6.597  0.1290 -0.7699  0.1718
  659MOL0     N86907   1.244   2.116   6.561  0.4961  0.3353  0.3871
  659MOL0     C86908   0.702   2.744   6.568 -0.2120  0.1610  0.4173
  659MOL0     C86909   0.578   2.691   6.593  0.7870 -0.0388  0.4879
  659MOL0     C86910   0.151   2.674   6.765  0.0808 -0.7306 -0.4309
  659MOL0     C86911   0.134   2.555   6.832  0.0111  0.2928  0.9077
  659MOL0     C86912   0.016   2.499   6.858  0.0883 -0.2765 -0.0232
  659MOL0     C86913  -0.105   2.566   6.830  0.8636 -0.0721  0.6593
  659MOL0     O86914  -0.238   2.527   6.859  0.0635  0.8026 -0.6352
  659MOL0     C86915  -0.250   2.400   6.915  0.4464  0.3426 -0.2888
  659MOL0     C86916  -0.394   2.377   6.968  0.3629  0.2204 -0.3247
  659MOL0     C86917  -0.413   2.229   6.985  0.8866 -0.3954 -0.3653
  659MOL0     C86918  -0.561   2.209   7.024  1.3476  0.1967  0.5735
  659MOL0     C86919  -0.648   2.122   6.941 -0.1305  1.2189  0.0276
  659MOL0     C86920  -0.732   2.043   6.905 -0.3946 -0.2455 -0.7344
  659MOL0     C86921  -0.090   2.694   6.769  0.2115  0.7699  1.0629
  659MOL0     C86922   0.039   2.751   6.729 -0.2836  1.1004 -0.3061
  659MOL0     H86923   0.564   2.736   6.934 -0.9356  2.2656  0.2343
  659MOL0     H86924   0.791   2.823   6.887 -1.0841 -0.3647  0.1867
  659MOL0     H86925   0.994   2.675   6.729  0.8630 -0.0017 -2.2693
  659MOL0     H86926   1.024   2.820   6.815  0.1814  2.8921 -0.9549
  659MOL0     H86927   1.176   2.888   6.631  2.0509 -0.8999  0.5133
  659MOL0     H86928   1.107   2.767   6.523  3.1093 -0.5121  0.5283
  659MOL0     H86929   1.204   2.598   6.702 -0.2102  0.1121  3.7868
  659MOL0     H86930   1.239   2.746   6.791  0.3057  3.2805 -0.6430
  659MOL0     H86931   1.365   2.684   6.523  1.0319 -0.7720  0.2901
  659MOL0     H86932   1.410   2.803   6.644  0.8100 -0.8437  1.1267
  659MOL0     H86933   1.447   2.581   6.801  0.7593 -2.4425  0.5286
  659MOL0     H86934   1.568   2.595   6.678 -0.3008 -0.8704 -1.8426
  659MOL0     H86935   1.466   2.443   6.527  0.6126 -4.6049  0.9539
  659MOL0     H86936   1.311   2.443   6.621  0.5559 -0.5733 -1.1046
  659MOL0     H86937   1.598   2.355   6.690 -0.8785  0.3513 -1.2466
  659MOL0     H86938   1.455   2.344   6.803 -0.2872  0.0998  0.2936
  659MOL0     H86939   1.523   2.143   6.708 -3.1840 -1.8182  0.3064
  659MOL0     H86940   1.505   2.198   6.537  2.2715 -1.0887  0.2691
  659MOL0     H86941   1.242   2.239   6.860 -0.7547  0.3660 -0.7501
  659MOL0     H86942   1.041   2.056   6.918 -1.3750 -0.6382  0.4088
  659MOL0     H86943   0.944   2.006   6.785  0.8581 -0.7984  0.7821
  659MOL0     H86944   0.960   2.291   6.890  0.5182 -0.7564  0.6748
  659MOL0     H86945   0.852   2.163   6.952 -0.1707 -2.6252 -0.0463
  659MOL0     H86946   0.825   2.215   6.663 -1.9412  1.2969 -0.8167
  659MOL0     H86947   0.701   2.178   6.792 -1.2408  0.2213 -2.1334
  659MOL0     H86948   0.659   2.377   6.676 -1.2953 -0.4159  0.5543
  659MOL0     H86949   0.810   2.443   6.719 -1.2024  0.6841 -0.2954
  659MOL0     H86950   0.593   2.387   7.127  0.2195 -1.4445 -0.3325
  659MOL0     H86951   0.382   2.285   7.208 -0.4370 -0.4683 -0.5600
  659MOL0     H86952  -0.057   2.029   7.139 -2.0630 -0.1051 -0.4017
  659MOL0     H86953  -0.249   1.998   7.279 -1.7081  1.1711  3.2536
  659MOL0     H86954  -0.327   1.941   7.475 -1.3236 -0.4449  2.0146
  659MOL0     H86955  -0.462   2.031   7.393  0.2933  3.1782 -0.8392
  659MOL0     H86956  -0.409   1.993   7.687 -1.5602 -0.0547  0.6333
  659MOL0     H86957  -0.547   1.919   7.591 -2.8169  2.0762 -0.4897
  659MOL0     H86958  -0.625   2.144   7.522  0.1156 -0.7434  0.7773
  659MOL0     H86959  -0.509   2.209   7.626  1.3284 -1.0435 -2.2869
  659MOL0     H86960  -0.745   2.023   7.712 -0.1982 -0.4206  1.0671
  659MOL0     H86961  -0.629   2.059   7.823 -0.9034 -0.8743 -0.7172
  659MOL0     H86962  -0.808   2.260   7.661 -1.6422  0.4451  0.9629
  659MOL0     H86963  -0.711   2.305   7.800 -0.9869  0.7985  0.4889
  659MOL0     H86964  -0.821   2.132   7.934  1.9739  1.3041 -0.2414
  659MOL0     H86965  -0.945   2.105   7.803 -0.9446 -0.1447  1.0551
  659MOL0     H86966  -0.917   2.378   7.914  1.7364 -1.1196  0.7982
  659MOL0     H86967  -1.054   2.304   7.812 -1.2804  2.4510  0.9409
  659MOL0     H86968  -1.092   2.142   7.984 -0.5404  0.6801  0.5717
  659MOL0     H86969  -1.138   2.311   8.035  0.8300  1.3995  1.0661
  659MOL0     H86970  -0.131   2.291   7.549  3.4630 -0.5647  1.3772
  659MOL0     H86971   0.076   2.342   7.431  0.2416  2.1656 -2.1789
  659MOL0     H86972   0.274   2.197   6.795 -0.5989  2.5947 -2.2907
  659MOL0     H86973   0.469   2.304   6.725  0.3687  1.6248  0.2907
  659MOL0     H86974   0.741   2.736   6.467  2.4473  1.0253  1.2883
  659MOL0     H86975   0.518   2.659   6.508 -0.6634  3.3001  0.1112
  659MOL0     H86976   0.221   2.503   6.871 -0.3266 -1.0101 -0.0003
  659MOL0     H86977   0.017   2.398   6.898  1.8306 -0.5472 -0.6888
  659MOL0     H86978  -0.182   2.391   7.001  0.5244 -0.8188 -0.4496
  659MOL0     H86979  -0.236   2.310   6.854 -1.3435 -1.0601  1.2393
  659MOL0     H86980  -0.413   2.436   7.058 -1.4386 -0.4877 -0.1909
  659MOL0     H86981  -0.467   2.399   6.890 -1.7515 -1.6172  0.9885
  659MOL0     H86982  -0.349   2.190   7.064  1.8899  0.0580 -0.9319
  659MOL0     H86983  -0.398   2.167   6.896 -1.4314 -0.9622 -0.4405
  659MOL0     H86984  -0.570   2.178   7.129  0.6767 -1.0594  0.1684
  659MOL0     H86985  -0.609   2.307   7.030 -0.2785 -0.6155  1.3419
  659MOL0     H86986  -0.801   1.963   6.889 -1.1801  0.2095  0.2762
  659MOL0     H86987  -0.178   2.756   6.757 -1.3280 -1.7285 -2.4712
  659MOL0     H86988   0.056   2.851   6.690  1.5956  0.1163 -2.1945
  660MOL0     O86989   8.172   6.306   9.771  0.3011  0.0230 -0.2460
  660MOL0     C86990   8.244   6.317   9.870  0.0956 -0.2455  0.2668
  660MOL0     O86991   8.203   6.372   9.987  0.4692 -0.5247  0.1434
  660MOL0     C86992   8.068   6.358  10.023 -0.2891 -0.2617  0.4951
  660MOL0     C86993   8.012   6.461  10.094  0.0786 -1.1632  0.4416
  660MOL0     C86994   7.878   6.463  10.127 -0.2019  0.2023 -0.4763
  660MOL0     C86995   7.789   6.355  10.099  0.6142 -0.5237 -0.8213
  660MOL0     O86996   7.664   6.373  10.145 -0.4916  0.3385 -0.4634
  660MOL0     C86997   7.561   6.296  10.081 -0.5394 -0.6231 -0.6884
  660MOL0     C86998   7.522   6.352   9.947 -0.5510 -0.9179 -0.1640
  660MOL0     C86999   7.405   6.291   9.881 -0.0914 -0.2213 -0.3533
  660MOL0     C87000   7.396   6.336   9.735  0.0163 -0.4259 -1.1278
  660MOL0     C87001   7.261   6.374   9.680  0.2707 -0.3958  0.1745
  660MOL0     C87002   7.151   6.268   9.699 -0.1182  0.9836 -0.0436
  660MOL0     C87003   7.006   6.296   9.668 -0.1984  0.4809 -0.4042
  660MOL0     C87004   6.963   6.286   9.525  0.4983  0.4037  0.6572
  660MOL0     N87005   6.832   6.340   9.502  0.4405 -0.1508  0.5273
  660MOL0     C87006   6.770   6.356   9.379 -0.1971 -0.1287 -1.2461
  660MOL0     C87007   6.658   6.428   9.402 -0.4313  0.1701 -0.1671
  660MOL0     C87008   6.569   6.462   9.282 -0.1850  0.2540 -0.0586
  660MOL0     C87009   6.530   6.608   9.281  0.0843 -0.5422  0.3498
  660MOL0     C87010   6.466   6.647   9.147 -0.5720  0.5602  0.6876
  660MOL0     C87011   6.395   6.782   9.149  0.4374 -0.3278 -0.3606
  660MOL0     O87012   6.262   6.770   9.088  0.1723  0.3893 -1.0513
  660MOL0     C87013   6.159   6.719   9.164  0.0033 -0.3092  0.2610
  660MOL0     C87014   6.037   6.745   9.100 -0.8620 -0.2015 -0.9979
  660MOL0     C87015   5.915   6.698   9.157 -0.5258 -0.7201  0.5334
  660MOL0     C87016   5.918   6.623   9.274  1.1645 -0.9515  0.1229
  660MOL0     C87017   5.791   6.572   9.343 -0.3119 -0.5616 -0.0015
  660MOL0     O87018   5.676   6.592   9.279 -0.2662  0.7656 -0.4435
  660MOL0     C87019   5.551   6.553   9.330 -0.0691  0.0306  0.3874
  660MOL0     C87020   5.471   6.487   9.236  0.1572  0.9365  0.1927
  660MOL0     C87021   5.344   6.448   9.262  0.0679  0.0174  0.4148
  660MOL0     C87022   5.283   6.495   9.387  0.3364  0.8495  0.1645
  660MOL0     O87023   5.158   6.453   9.435  0.0048 -0.2901  0.1096
  660MOL0     C87024   5.074   6.367   9.355  0.0509 -1.3952 -0.2565
  660MOL0     C87025   4.934   6.364   9.409 -0.3157 -0.4773 -0.7258
  660MOL0     C87026   4.848   6.311   9.295 -0.3537 -0.5423  0.0354
  660MOL0     C87027   4.709   6.320   9.331  0.5262  0.1700 -0.4267
  660MOL0     C87028   4.633   6.212   9.270  0.5246  0.6171 -1.0860
  660MOL0     C87029   4.481   6.227   9.287  0.5440 -0.7252  0.0014
  660MOL0     C87030   4.412   6.105   9.213 -0.7398 -0.1796  0.2016
  660MOL0     C87031   4.298   6.053   9.308 -0.5901  0.6227  1.0596
  660MOL0    Cl87032   4.151   6.160   9.343 -0.2804 -0.0558 -0.2022
  660MOL0     C87033   5.361   6.557   9.485 -0.0533  0.2379  0.5407
  660MOL0     C87034   5.495   6.587   9.451  0.5389  0.0431 -0.0471
  660MOL0     O87035   5.805   6.514   9.450  0.0677  0.5483  0.5268
  660MOL0     C87036   6.042   6.605   9.335  0.0482  0.1767  0.1758
  660MOL0     C87037   6.160   6.652   9.280 -0.3794 -0.1143 -0.2082
  660MOL0     N87038   6.632   6.428   9.538  0.2549  0.6984 -0.7429
  660MOL0     N87039   6.735   6.377   9.595 -0.5702 -0.4482  0.8330
  660MOL0     C87040   7.845   6.246  10.032  0.0432  0.0008 -0.2048
  660MOL0     C87041   7.978   6.250   9.990 -0.0149  1.1266  0.3093
  660MOL0     C87042   8.385   6.288   9.853  0.3259  0.5425  0.4969
  660MOL0     C87043   8.479   6.356   9.929 -0.3434 -0.9645 -0.5909
  660MOL0     C87044   8.615   6.339   9.895  1.0864  0.1066 -0.0850
  660MOL0     C87045   8.658   6.253   9.786  0.2445  0.1674  0.2507
  660MOL0     O87046   8.795   6.236   9.764  0.6121  0.1009 -0.6069
  660MOL0     C87047   8.847   6.144   9.668  0.2698 -0.0959  0.0348
  660MOL0     C87048   8.996   6.171   9.636  0.2896 -0.3225 -0.2319
  660MOL0     C87049   9.031   6.095   9.514  0.3183 -1.3075 -0.0007
  660MOL0     C87050   9.165   6.148   9.455  0.3140  0.1192  0.1096
  660MOL0     C87051   9.195   6.076   9.329  0.3148 -0.3596 -0.4202
  660MOL0     C87052   9.205   6.004   9.238  0.3636 -0.6773  0.4647
  660MOL0     C87053   8.556   6.174   9.728 -0.4271 -0.1657 -0.4059
  660MOL0     C87054   8.426   6.187   9.761  0.2444  0.4743 -0.3128
  660MOL0     H87055   8.082   6.536  10.130 -1.2013  0.0840  0.4516
  660MOL0     H87056   7.835   6.545  10.184 -0.8513 -0.0969 -0.5184
  660MOL0     H87057   7.474   6.306  10.147 -1.1726 -3.3503 -0.9692
  660MOL0     H87058   7.566   6.187  10.077 -2.9812 -0.8639  0.4767
  660MOL0     H87059   7.611   6.326   9.888  2.1162 -0.8297  3.4512
  660MOL0     H87060   7.507   6.460   9.956 -1.9384 -1.1917  1.0962
  660MOL0     H87061   7.316   6.320   9.938 -0.8434  2.0710 -2.5131
  660MOL0     H87062   7.420   6.183   9.883 -0.8385 -0.4424 -3.1446
  660MOL0     H87063   7.457   6.426   9.719 -1.3626  1.1269  1.6210
  660MOL0     H87064   7.431   6.256   9.669 -1.8260 -1.1714 -1.2517
  660MOL0     H87065   7.273   6.406   9.576 -0.5408 -0.3148  0.0968
  660MOL0     H87066   7.223   6.462   9.733  1.5475 -0.0588  0.5658
  660MOL0     H87067   7.158   6.240   9.805  0.2221  1.6699  0.1219
  660MOL0     H87068   7.183   6.182   9.639 -0.5990 -0.9344  2.2674
  660MOL0     H87069   6.957   6.223   9.734  1.3775  0.7778  1.1799
  660MOL0     H87070   6.991   6.397   9.707  0.4199 -0.0074  1.1714
  660MOL0     H87071   6.961   6.185   9.482 -2.7342  1.7965 -3.0509
  660MOL0     H87072   7.037   6.342   9.469  0.8213 -1.6600 -1.1182
  660MOL0     H87073   6.807   6.319   9.284 -0.0622  0.7832 -1.5514
  660MOL0     H87074   6.482   6.396   9.291  0.0304 -0.4892 -2.6467
  660MOL0     H87075   6.609   6.432   9.185 -1.4550 -0.1806 -0.4768
  660MOL0     H87076   6.621   6.665   9.299 -0.6909  1.3401 -1.4177
  660MOL0     H87077   6.464   6.626   9.367  2.9543  1.6895  2.2453
  660MOL0     H87078   6.543   6.641   9.070  0.6669 -2.5618  1.9874
  660MOL0     H87079   6.386   6.575   9.130 -1.2692  2.1581 -4.3466
  660MOL0     H87080   6.457   6.852   9.092  0.8427  0.5763  1.1085
  660MOL0     H87081   6.385   6.814   9.254 -0.4526 -0.3495 -0.4343
  660MOL0     H87082   6.041   6.801   9.007  0.1507  0.6512 -0.4679
  660MOL0     H87083   5.817   6.721   9.119  0.9248  2.8965 -1.4469
  660MOL0     H87084   5.524   6.461   9.145 -2.2173  0.8645 -1.2520
  660MOL0     H87085   5.295   6.382   9.191  1.2374 -0.8187  0.3480
  660MOL0     H87086   5.120   6.268   9.357  3.5342  0.0995  1.6701
  660MOL0     H87087   5.072   6.411   9.255  0.6010  0.2141  0.4088
  660MOL0     H87088   4.898   6.466   9.423 -2.4687 -1.1438 -1.0260
  660MOL0     H87089   4.920   6.304   9.500  1.0685 -0.8478 -0.7448
  660MOL0     H87090   4.877   6.206   9.290 -3.6855 -1.6493  1.1752
  660MOL0     H87091   4.870   6.362   9.201  1.0082 -0.1537  0.5362
  660MOL0     H87092   4.697   6.314   9.440  0.9068  0.7942 -0.3408
  660MOL0     H87093   4.664   6.416   9.302 -0.3967 -0.0319  0.3161
  660MOL0     H87094   4.658   6.116   9.316 -2.9175  0.3802  0.6355
  660MOL0     H87095   4.647   6.209   9.162 -0.9423 -1.9798 -1.2988
  660MOL0     H87096   4.455   6.322   9.239  0.5693 -0.4546  0.5243
  660MOL0     H87097   4.448   6.228   9.391  0.0461  0.1312 -0.1588
  660MOL0     H87098   4.367   6.138   9.119  0.7563  3.3693  0.5555
  660MOL0     H87099   4.479   6.025   9.179  0.5821  1.5806 -1.5958
  660MOL0     H87100   4.338   6.020   9.405 -1.9063 -1.7361  0.8647
  660MOL0     H87101   4.270   5.959   9.259  0.1272  0.5407  0.7868
  660MOL0     H87102   5.315   6.584   9.580  2.4471  0.7942  1.6844
  660MOL0     H87103   5.553   6.635   9.529 -0.3036 -2.0084  1.9689
  660MOL0     H87104   6.044   6.544   9.424 -0.6401  0.4752  0.3988
  660MOL0     H87105   6.256   6.634   9.329  1.0154 -0.8453 -3.0045
  660MOL0     H87106   7.798   6.149  10.013  2.1425 -0.7972 -1.6211
  660MOL0     H87107   8.021   6.165   9.938 -1.4014 -0.8483  2.2256
  660MOL0     H87108   8.449   6.425  10.008  0.9918 -0.7454 -0.2342
  660MOL0     H87109   8.681   6.403   9.953  0.3353  3.0572 -2.2324
  660MOL0     H87110   8.792   6.169   9.576  1.2205  2.2038  0.0344
  660MOL0     H87111   8.826   6.040   9.695 -0.0239 -0.4062 -1.3296
  660MOL0     H87112   9.010   6.278   9.621  1.2579 -0.1998  1.2872
  660MOL0     H87113   9.056   6.137   9.721 -1.7287  1.1468  1.9265
  660MOL0     H87114   8.951   6.115   9.442 -1.1840 -0.0264  1.9299
  660MOL0     H87115   9.038   5.990   9.543 -2.7241 -0.6892  3.6992
  660MOL0     H87116   9.169   6.256   9.437  0.0948 -0.0799 -1.2778
  660MOL0     H87117   9.244   6.126   9.528  1.6635 -1.0563 -1.6174
  660MOL0     H87118   9.223   5.967   9.139  2.0646  2.7235 -0.6282
  660MOL0     H87119   8.588   6.098   9.658  0.8646 -0.0610  0.0329
  660MOL0     H87120   8.347   6.133   9.710 -0.1503  0.0918  0.6613
  661MOL0     O87121   3.669   7.320   2.525  0.0803 -0.3794  0.0767
  661MOL0     C87122   3.715   7.411   2.597 -0.9716  0.2355  0.4506
  661MOL0     O87123   3.644   7.514   2.656  0.7791 -0.5018  0.8209
  661MOL0     C87124   3.506   7.512   2.656 -0.0906  0.3589  1.0078
  661MOL0     C87125   3.435   7.601   2.566  0.2893  0.5339  0.7687
  661MOL0     C87126   3.293   7.590   2.535  0.1030  0.1951  0.0385
  661MOL0     C87127   3.225   7.500   2.613  0.0411 -0.1803 -0.0983
  661MOL0     O87128   3.087   7.471   2.598  0.1487  0.1396 -0.0149
  661MOL0     C87129   3.006   7.565   2.535 -0.0570 -0.2315  0.2807
  661MOL0     C87130   2.858   7.539   2.569  1.1694  0.5086 -0.0243
  661MOL0     C87131   2.825   7.383   2.569  0.3182  0.3135  0.4974
  661MOL0     C87132   2.677   7.357   2.563  0.0110  0.2158 -0.2843
  661MOL0     C87133   2.645   7.218   2.502  0.5032 -0.4022 -0.1786
  661MOL0     C87134   2.623   7.217   2.348  0.3322  0.3005 -0.3599
  661MOL0     C87135   2.517   7.309   2.296 -0.3458 -0.8010  0.6883
  661MOL0     C87136   2.371   7.263   2.335  0.5962 -0.4408  0.0060
  661MOL0     N87137   2.273   7.373   2.326 -0.2090 -0.6609  0.7352
  661MOL0     C87138   2.269   7.484   2.406 -0.6419  0.6061  0.0330
  661MOL0     C87139   2.171   7.559   2.350 -0.2576 -0.4273 -0.1754
  661MOL0     C87140   2.104   7.682   2.409  0.7854  0.1642  0.0960
  661MOL0     C87141   2.020   7.643   2.532  0.7952  0.2624 -0.4887
  661MOL0     C87142   1.922   7.747   2.563  0.4074 -0.0145  0.6470
  661MOL0     C87143   1.835   7.731   2.689  0.8202  0.0308  0.2723
  661MOL0     O87144   1.745   7.619   2.684 -0.5354  0.2514 -0.5307
  661MOL0     C87145   1.625   7.627   2.627  0.3178 -0.0404  0.6703
  661MOL0     C87146   1.544   7.512   2.643 -0.0906 -0.3724  0.4309
  661MOL0     C87147   1.422   7.510   2.592  1.0299  0.0203  0.4851
  661MOL0     C87148   1.366   7.621   2.520 -0.2161 -0.4273 -0.1687
  661MOL0     C87149   1.222   7.620   2.481  0.6114  0.6204 -0.8889
  661MOL0     O87150   1.159   7.738   2.468 -0.3749 -0.3893  0.9604
  661MOL0     C87151   1.026   7.734   2.439  0.3567 -0.3869 -0.6925
  661MOL0     C87152   0.941   7.824   2.507 -0.3277  0.5494 -0.7777
  661MOL0     C87153   0.805   7.831   2.468 -0.0791 -0.0340  0.2019
  661MOL0     C87154   0.752   7.749   2.372  0.5409 -0.1084  0.0654
  661MOL0     O87155   0.618   7.757   2.369  0.2205 -0.1252 -0.5750
  661MOL0     C87156   0.545   7.658   2.283  0.2351 -0.3112 -0.2364
  661MOL0     C87157   0.401   7.665   2.307 -0.2747 -0.3462 -0.3525
  661MOL0     C87158   0.334   7.540   2.257 -0.2163  0.7280  0.6363
  661MOL0     C87159   0.191   7.532   2.317 -0.5268 -0.4152  0.0327
  661MOL0     C87160   0.128   7.398   2.303  0.5771 -1.0102 -0.1285
  661MOL0     C87161  -0.022   7.430   2.353  0.2083  0.0969 -0.4214
  661MOL0     C87162  -0.097   7.295   2.326  0.5271 -0.0575 -0.0718
  661MOL0     C87163  -0.245   7.286   2.377 -0.6347  0.2331  0.3849
  661MOL0    Cl87164  -0.340   7.415   2.301  0.1480  0.3169  0.3683
  661MOL0     C87165   0.836   7.661   2.301  0.0548  0.1719  1.4258
  661MOL0     C87166   0.973   7.657   2.332  0.0849 -0.1508 -0.9100
  661MOL0     O87167   1.164   7.509   2.476  0.1606 -0.1899  0.1110
  661MOL0     C87168   1.444   7.742   2.498  0.8796  0.3020 -0.3613
  661MOL0     C87169   1.573   7.736   2.553  0.0168  0.0762 -0.1342
  661MOL0     N87170   2.134   7.499   2.235 -0.0080  0.0125 -0.3768
  661MOL0     N87171   2.199   7.393   2.216 -1.0405  0.0584 -0.6269
  661MOL0     C87172   3.294   7.416   2.697  0.1596  0.1034 -0.5519
  661MOL0     C87173   3.430   7.421   2.715  0.6152  0.5914  0.9429
  661MOL0     C87174   3.852   7.388   2.637 -0.5384 -0.3174 -0.0353
  661MOL0     C87175   3.945   7.309   2.565  0.2706 -0.2948  0.4987
  661MOL0     C87176   4.071   7.285   2.620 -0.5891 -0.2684  0.2566
  661MOL0     C87177   4.113   7.328   2.741 -0.8053 -0.8170 -0.1984
  661MOL0     O87178   4.241   7.294   2.786 -0.0504  0.6389  0.1533
  661MOL0     C87179   4.293   7.346   2.909 -0.0531 -0.1295  0.4453
  661MOL0     C87180   4.441   7.290   2.925 -1.4777  0.1998 -0.2610
  661MOL0     C87181   4.515   7.344   3.042 -0.5063  0.5313 -1.5049
  661MOL0     C87182   4.557   7.492   3.024  0.1650 -0.3500 -0.1193
  661MOL0     C87183   4.619   7.541   3.147 -0.3465  0.0115 -0.4965
  661MOL0     C87184   4.679   7.574   3.249  0.6483 -0.3596  0.1524
  661MOL0     C87185   4.016   7.406   2.815  0.3039 -0.8005  0.1210
  661MOL0     C87186   3.894   7.444   2.761  0.4944 -0.3418  0.2065
  661MOL0     H87187   3.484   7.675   2.504  1.3596 -2.2687 -2.0560
  661MOL0     H87188   3.237   7.660   2.474  1.9470  1.7670  0.0541
  661MOL0     H87189   3.017   7.541   2.429 -0.1954 -1.7787  0.5869
  661MOL0     H87190   3.028   7.670   2.556  0.1403  0.0416 -1.1895
  661MOL0     H87191   2.801   7.588   2.489  0.1558  1.8744  1.4773
  661MOL0     H87192   2.831   7.594   2.660  1.7671 -1.5770  1.4953
  661MOL0     H87193   2.861   7.331   2.659 -1.2358 -0.4714  0.7036
  661MOL0     H87194   2.880   7.334   2.488  2.2815  1.8386  0.8296
  661MOL0     H87195   2.635   7.356   2.665 -0.2082  1.6999 -0.3460
  661MOL0     H87196   2.628   7.437   2.508  0.1896 -0.3200 -1.2486
  661MOL0     H87197   2.552   7.167   2.529 -0.8193 -0.6052 -4.4275
  661MOL0     H87198   2.722   7.145   2.526 -0.1416 -0.7573  0.8809
  661MOL0     H87199   2.590   7.119   2.312 -1.0756  0.0275  1.5436
  661MOL0     H87200   2.716   7.234   2.293 -0.0648 -3.4858 -2.4921
  661MOL0     H87201   2.537   7.414   2.319  2.2329 -0.8363 -1.0283
  661MOL0     H87202   2.528   7.313   2.187  0.7060 -2.6884  0.6697
  661MOL0     H87203   2.384   7.243   2.442 -1.5352 -2.6483 -0.0603
  661MOL0     H87204   2.335   7.178   2.277 -1.5550 -0.6913  1.5805
  661MOL0     H87205   2.330   7.500   2.494 -0.5767  0.3684  0.0317
  661MOL0     H87206   2.044   7.736   2.336 -0.9850 -0.3073  1.1282
  661MOL0     H87207   2.177   7.761   2.431 -0.0497  1.4419 -1.5014
  661MOL0     H87208   2.081   7.654   2.622 -0.7269  4.0877  0.2651
  661MOL0     H87209   1.971   7.545   2.528  2.8680 -0.9043  0.7576
  661MOL0     H87210   1.969   7.843   2.589  1.4061 -0.5246  0.7955
  661MOL0     H87211   1.850   7.761   2.482 -0.5045 -0.4024  1.3762
  661MOL0     H87212   1.787   7.827   2.707  1.6000  0.3865  0.5003
  661MOL0     H87213   1.901   7.718   2.775  0.0876 -0.0576  0.8282
  661MOL0     H87214   1.589   7.425   2.688  0.2351  0.1268  1.0920
  661MOL0     H87215   1.358   7.422   2.599  1.9894 -1.4687 -4.9184
  661MOL0     H87216   0.967   7.896   2.583  0.9304 -0.3967 -0.2760
  661MOL0     H87217   0.747   7.909   2.517 -1.4486  0.9593 -2.8027
  661MOL0     H87218   0.571   7.554   2.299  3.3101 -0.2106 -3.3251
  661MOL0     H87219   0.559   7.680   2.177  1.8077 -1.9855 -0.4140
  661MOL0     H87220   0.363   7.756   2.260  1.1696  1.6081  2.0562
  661MOL0     H87221   0.384   7.681   2.414 -1.3510 -3.7827  0.1085
  661MOL0     H87222   0.380   7.444   2.279 -0.6402  0.2606 -0.4368
  661MOL0     H87223   0.332   7.539   2.148  1.7988  1.3941  0.5588
  661MOL0     H87224   0.201   7.539   2.425  1.2922 -3.0196  0.1146
  661MOL0     H87225   0.119   7.606   2.281 -0.1048  0.2193  0.4643
  661MOL0     H87226   0.178   7.322   2.364  1.7999 -1.5013 -1.6578
  661MOL0     H87227   0.120   7.375   2.196  1.9673  0.1218 -0.5152
  661MOL0     H87228  -0.078   7.500   2.291 -1.4921 -1.7986 -1.1535
  661MOL0     H87229  -0.010   7.451   2.460  3.6947 -0.4237 -0.6126
  661MOL0     H87230  -0.100   7.264   2.222  1.3277 -1.2251  0.2275
  661MOL0     H87231  -0.045   7.209   2.371 -2.0331 -2.6508 -1.7331
  661MOL0     H87232  -0.256   7.300   2.485  0.0353  1.2371  0.3344
  661MOL0     H87233  -0.288   7.190   2.348  0.2727  0.2705 -1.2459
  661MOL0     H87234   0.805   7.586   2.229 -0.3801  0.5164  1.2526
  661MOL0     H87235   1.025   7.574   2.284 -0.3756 -1.3702  0.6147
  661MOL0     H87236   1.432   7.838   2.449 -1.1869 -0.0977 -0.6968
  661MOL0     H87237   1.634   7.822   2.527 -0.0459  1.4358  3.6168
  661MOL0     H87238   3.245   7.325   2.729  2.1996 -0.6167  0.7554
  661MOL0     H87239   3.470   7.363   2.797 -0.2722  0.4433  1.2785
  661MOL0     H87240   3.916   7.258   2.473  3.6029  2.1978 -2.1605
  661MOL0     H87241   4.137   7.216   2.568 -0.6661 -1.9399  2.2656
  661MOL0     H87242   4.232   7.320   2.996  0.2281  0.1130  0.7162
  661MOL0     H87243   4.303   7.454   2.899  0.8338 -0.2143  0.3797
  661MOL0     H87244   4.443   7.181   2.927 -0.7385  0.1444 -2.1228
  661MOL0     H87245   4.501   7.329   2.842 -0.7645  1.8264  0.9422
  661MOL0     H87246   4.609   7.292   3.059  0.2883  2.3584  0.1093
  661MOL0     H87247   4.446   7.327   3.125  0.5374  2.0369 -0.2561
  661MOL0     H87248   4.620   7.497   2.934  1.6154 -2.8470  0.6723
  661MOL0     H87249   4.468   7.554   3.010 -0.5356 -1.0218  1.2123
  661MOL0     H87250   4.722   7.606   3.342 -0.9227 -1.4071  1.3001
  661MOL0     H87251   4.048   7.441   2.912 -0.5599 -0.9680  0.4806
  661MOL0     H87252   3.828   7.509   2.818  0.8541 -0.3425  0.6291
  662MOL0     O87253   0.313   5.938   8.894  0.2120 -0.6123 -0.3671
  662MOL0     C87254   0.344   5.842   8.821 -0.1009 -0.1677 -0.3661
  662MOL0     O87255   0.256   5.771   8.743 -0.5979  0.2153  0.1639
  662MOL0     C87256   0.121   5.809   8.722  0.5405 -0.4065 -0.4279
  662MOL0     C87257   0.040   5.913   8.770  0.1545 -0.5971 -0.3892
  662MOL0     C87258  -0.097   5.927   8.744  0.0216  0.4356  0.2743
  662MOL0     C87259  -0.157   5.828   8.664  0.0347 -0.0247 -0.3245
  662MOL0     O87260  -0.293   5.848   8.638 -0.1318  0.0546 -0.0574
  662MOL0     C87261  -0.376   5.731   8.612  0.0014  0.0856  0.9471
  662MOL0     C87262  -0.492   5.774   8.528 -0.1498  0.1503 -0.1037
  662MOL0     C87263  -0.612   5.677   8.537 -0.5196  0.3313 -0.9688
  662MOL0     C87264  -0.741   5.741   8.482  0.3550 -0.7498 -0.4943
  662MOL0     C87265  -0.866   5.684   8.545 -0.3873 -0.5101  0.8496
  662MOL0     C87266  -0.983   5.772   8.536 -0.0043 -0.3619 -0.0163
  662MOL0     C87267  -1.109   5.722   8.602  0.5762 -0.2453 -0.3905
  662MOL0     C87268  -1.187   5.849   8.635 -0.1752 -0.6238  1.1597
  662MOL0     N87269  -1.308   5.804   8.707 -0.7121 -0.1271 -0.1160
  662MOL0     C87270  -1.321   5.777   8.842 -0.3735 -0.8984  0.0917
  662MOL0     C87271  -1.458   5.737   8.858  0.5033  0.2554  0.3496
  662MOL0     C87272  -1.522   5.687   8.990 -1.1673 -0.1829 -0.6805
  662MOL0     C87273  -1.667   5.647   8.990 -0.3817 -0.0755 -0.2685
  662MOL0     C87274  -1.770   5.766   9.009  0.7987 -0.1784  0.4171
  662MOL0     C87275  -1.802   5.826   8.862 -0.1799 -0.8767 -0.2657
  662MOL0     O87276  -1.907   5.924   8.848 -0.3129  0.5098  0.0477
  662MOL0     C87277  -2.032   5.900   8.880  0.2038 -0.4198  0.1237
  662MOL0     C87278  -2.113   6.012   8.865  0.0700 -0.0567 -0.2096
  662MOL0     C87279  -2.249   6.007   8.899  0.3004 -0.0471  0.4562
  662MOL0     C87280  -2.304   5.889   8.947  0.8928 -0.8958  0.3284
  662MOL0     C87281  -2.434   5.904   9.017 -0.0675  0.8067 -0.4914
  662MOL0     O87282  -2.477   6.029   9.040  0.3668 -0.7253 -0.2184
  662MOL0     C87283  -2.586   6.049   9.128 -0.0851 -0.6114  0.0223
  662MOL0     C87284  -2.710   6.003   9.088  0.6239 -0.8739 -0.5198
  662MOL0     C87285  -2.829   6.040   9.165 -0.3214  0.7062 -0.6970
  662MOL0     C87286  -2.806   6.122   9.282  0.1757  0.3571 -0.4783
  662MOL0     O87287  -2.900   6.146   9.381  0.4165  0.5604 -0.2044
  662MOL0     C87288  -3.038   6.131   9.365  0.0455  0.6043  0.8178
  662MOL0     C87289  -3.096   6.248   9.287  0.1189  0.3264 -0.2191
  662MOL0     C87290  -3.244   6.271   9.298 -0.0744 -0.3029 -0.6797
  662MOL0     C87291  -3.292   6.315   9.441 -0.5036  0.4756  0.3999
  662MOL0     C87292  -3.444   6.311   9.454  0.3964 -0.4826  0.8786
  662MOL0     C87293  -3.511   6.424   9.374  0.5293  0.2142 -0.1292
  662MOL0     C87294  -3.673   6.420   9.387 -0.1910 -0.3944  1.0380
  662MOL0     C87295  -3.737   6.291   9.351 -0.1799  0.2747 -0.5642
  662MOL0    Cl87296  -3.913   6.308   9.324  0.6241 -0.4521 -0.2547
  662MOL0     C87297  -2.682   6.162   9.319 -0.1152  0.5445 -0.1134
  662MOL0     C87298  -2.570   6.126   9.242 -0.7055 -0.4596  0.4679
  662MOL0     O87299  -2.483   5.799   9.068  0.2212 -0.2085  0.1947
  662MOL0     C87300  -2.225   5.770   8.954 -0.1397  0.0558  0.5023
  662MOL0     C87301  -2.084   5.784   8.934  1.0215 -1.9820 -0.5852
  662MOL0     N87302  -1.519   5.742   8.729 -0.2919 -0.9972 -0.5275
  662MOL0     N87303  -1.423   5.780   8.647  0.5004  0.1173 -0.2010
  662MOL0     C87304  -0.070   5.727   8.595  0.2845 -0.2710 -0.1628
  662MOL0     C87305   0.062   5.711   8.642  0.2745  0.3514  0.2518
  662MOL0     C87306   0.471   5.772   8.854  0.1839 -1.0292  0.1061
  662MOL0     C87307   0.495   5.642   8.813 -0.4467  0.2152 -0.2898
  662MOL0     C87308   0.622   5.580   8.830  0.2609  0.0963  0.6592
  662MOL0     C87309   0.721   5.641   8.910  0.3711 -0.0904  0.1150
  662MOL0     O87310   0.833   5.563   8.938  0.2022  0.2759 -0.2640
  662MOL0     C87311   0.896   5.595   9.057 -0.3079  0.0140 -0.7945
  662MOL0     C87312   1.018   5.499   9.103  0.0086  0.1819 -0.1450
  662MOL0     C87313   0.972   5.378   9.187 -0.5394  0.8528 -0.3646
  662MOL0     C87314   1.099   5.302   9.218  0.5467  0.6237 -0.6603
  662MOL0     C87315   1.141   5.237   9.091  0.5185 -0.2060  0.0352
  662MOL0     C87316   1.187   5.194   8.992  0.4050 -0.0993 -0.3531
  662MOL0     C87317   0.691   5.769   8.959 -0.1390 -0.0289  0.1435
  662MOL0     C87318   0.574   5.834   8.929 -0.1785  0.3824  0.3345
  662MOL0     H87319   0.092   5.982   8.836  0.1748  1.4400 -2.4300
  662MOL0     H87320  -0.164   6.002   8.784 -2.4416 -1.5330  0.1487
  662MOL0     H87321  -0.420   5.701   8.707 -0.0513  0.7899  1.1484
  662MOL0     H87322  -0.321   5.648   8.566 -0.2240  0.3957  0.0911
  662MOL0     H87323  -0.444   5.780   8.430  1.5597  0.4468  0.7089
  662MOL0     H87324  -0.530   5.873   8.554  0.1367  0.2804 -0.1766
  662MOL0     H87325  -0.620   5.655   8.643  2.3634  1.7372 -0.3256
  662MOL0     H87326  -0.589   5.578   8.497 -1.2036 -1.4097  2.5864
  662MOL0     H87327  -0.733   5.848   8.504 -1.0902 -0.9971  1.4318
  662MOL0     H87328  -0.750   5.723   8.374 -1.4786 -1.1864 -0.3065
  662MOL0     H87329  -0.843   5.664   8.650 -0.3179 -0.8416  0.7723
  662MOL0     H87330  -0.889   5.588   8.497 -2.0249  1.2759 -2.3202
  662MOL0     H87331  -1.009   5.782   8.431 -0.7998 -1.3585  0.0722
  662MOL0     H87332  -0.943   5.867   8.572  1.4698 -0.2651 -1.7780
  662MOL0     H87333  -1.173   5.659   8.540 -0.5854  0.6509 -0.1560
  662MOL0     H87334  -1.097   5.664   8.694 -0.8687 -3.6681 -2.1707
  662MOL0     H87335  -1.205   5.907   8.544  0.4757  1.3356  2.2278
  662MOL0     H87336  -1.127   5.915   8.699 -0.6028 -1.8934  2.9460
  662MOL0     H87337  -1.235   5.791   8.907  0.4362  1.2801 -1.3113
  662MOL0     H87338  -1.499   5.768   9.059 -0.0296  0.3002 -1.6123
  662MOL0     H87339  -1.460   5.601   9.017  1.6599  1.9844  0.1382
  662MOL0     H87340  -1.679   5.580   9.075 -4.4262  1.5710  0.7111
  662MOL0     H87341  -1.693   5.585   8.904  2.8974 -2.8650  0.5535
  662MOL0     H87342  -1.862   5.736   9.060 -0.6989  1.7499 -1.0439
  662MOL0     H87343  -1.731   5.852   9.063 -2.2510  3.1391 -2.1981
  662MOL0     H87344  -1.830   5.736   8.807 -0.3497 -2.8006  2.7445
  662MOL0     H87345  -1.711   5.864   8.816 -0.4246 -0.7288 -0.6352
  662MOL0     H87346  -2.069   6.105   8.832 -1.9087  0.8329 -0.4681
  662MOL0     H87347  -2.302   6.102   8.905  1.8782  1.0022 -0.9633
  662MOL0     H87348  -2.708   5.945   8.996 -1.9479 -1.6252 -0.1752
  662MOL0     H87349  -2.923   5.993   9.137 -0.9758  1.4772  0.1252
  662MOL0     H87350  -3.080   6.129   9.466  1.2839  0.3789  1.3514
  662MOL0     H87351  -3.061   6.030   9.329  2.2240  0.8136 -1.4247
  662MOL0     H87352  -3.064   6.247   9.182 -0.3007  3.2379 -0.4763
  662MOL0     H87353  -3.050   6.337   9.332 -1.3768  0.4997  1.0303
  662MOL0     H87354  -3.292   6.182   9.256  0.9991 -0.1957 -2.2167
  662MOL0     H87355  -3.278   6.352   9.233  0.7424 -0.1948 -0.9759
  662MOL0     H87356  -3.247   6.248   9.515 -0.0665  1.9007  1.4732
  662MOL0     H87357  -3.247   6.410   9.471  0.4693 -0.7783  3.2916
  662MOL0     H87358  -3.468   6.334   9.559  1.4273  2.2928  0.5985
  662MOL0     H87359  -3.480   6.210   9.434 -0.5505 -0.6010  2.9037
  662MOL0     H87360  -3.477   6.425   9.270  2.5989  3.4740  0.4260
  662MOL0     H87361  -3.476   6.518   9.419  0.3884 -0.0608  0.5615
  662MOL0     H87362  -3.702   6.441   9.490 -1.0210  0.4935  0.6429
  662MOL0     H87363  -3.706   6.505   9.328  2.0500 -0.2540 -0.1093
  662MOL0     H87364  -3.727   6.219   9.433  1.6912  1.5054  0.3647
  662MOL0     H87365  -3.701   6.248   9.257 -0.0819  0.8839 -0.8080
  662MOL0     H87366  -2.670   6.224   9.407  1.2924  2.2594 -1.4250
  662MOL0     H87367  -2.472   6.168   9.262 -0.9703  0.8734 -0.8333
  662MOL0     H87368  -2.265   5.672   8.979  0.6410 -0.9387 -1.8450
  662MOL0     H87369  -2.021   5.696   8.947 -0.0762 -2.3477  3.6652
  662MOL0     H87370  -0.107   5.645   8.534  2.7702  0.1160 -2.3734
  662MOL0     H87371   0.111   5.619   8.613  0.8350 -0.2200  2.7958
  662MOL0     H87372   0.414   5.590   8.762 -0.4281 -0.0399 -0.0612
  662MOL0     H87373   0.636   5.478   8.795  0.8257  0.0160  1.0877
  662MOL0     H87374   0.820   5.602   9.135  1.3348  3.0033  0.7535
  662MOL0     H87375   0.938   5.696   9.052 -0.3135  0.0664  0.0445
  662MOL0     H87376   1.066   5.462   9.013  2.7451 -0.3364  1.3995
  662MOL0     H87377   1.099   5.551   9.156  1.4050 -1.8482 -0.1990
  662MOL0     H87378   0.901   5.310   9.139 -0.5152  0.7188 -0.2101
  662MOL0     H87379   0.924   5.407   9.280 -0.4250 -0.3667  0.0985
  662MOL0     H87380   1.178   5.374   9.242 -1.1564  3.0603 -1.8929
  662MOL0     H87381   1.084   5.232   9.300 -0.3374  0.5311 -0.8887
  662MOL0     H87382   1.214   5.138   8.905 -0.2472 -0.3384 -0.4068
  662MOL0     H87383   0.769   5.811   9.022 -0.5793  0.3134  0.4612
  662MOL0     H87384   0.563   5.940   8.949 -0.4512  0.9208 -2.3207
  663MOL0     O87385   4.230   3.267   1.902  0.9453 -0.4302 -0.4186
  663MOL0     C87386   4.245   3.391   1.886 -0.1241  0.4561  0.1526
  663MOL0     O87387   4.372   3.452   1.876 -0.1023 -0.7998 -0.4467
  663MOL0     C87388   4.469   3.391   1.948 -0.4292  0.9415 -0.3830
  663MOL0     C87389   4.597   3.365   1.893 -0.3538 -0.1533  0.1087
  663MOL0     C87390   4.701   3.310   1.979 -0.4328 -0.4022  0.3357
  663MOL0     C87391   4.676   3.292   2.117  0.2101  0.6146 -0.2879
  663MOL0     O87392   4.768   3.260   2.209 -0.2922  0.5258 -0.4323
  663MOL0     C87393   4.869   3.158   2.161 -0.4874  0.6004  0.3731
  663MOL0     C87394   4.901   3.069   2.281  0.2632  0.1286 -0.2684
  663MOL0     C87395   4.781   3.012   2.349  0.7778  0.2375  0.5051
  663MOL0     C87396   4.690   2.903   2.277 -0.0672 -0.2119  0.0303
  663MOL0     C87397   4.533   2.930   2.259 -0.0570  0.1845 -0.0444
  663MOL0     C87398   4.446   2.959   2.386  0.1188  1.0813 -0.2353
  663MOL0     C87399   4.303   2.969   2.335 -1.0685  0.6921  0.7213
  663MOL0     C87400   4.275   3.113   2.284 -0.7754  0.0290 -0.3974
  663MOL0     N87401   4.135   3.122   2.287  1.2390  0.5237 -0.0310
  663MOL0     C87402   4.054   3.228   2.316  0.2441 -0.3006 -0.0291
  663MOL0     C87403   3.926   3.187   2.297 -0.1039 -0.0132 -0.1299
  663MOL0     C87404   3.801   3.262   2.327 -0.5045 -0.1607 -0.2462
  663MOL0     C87405   3.784   3.243   2.481 -0.0741  0.1557 -0.4550
  663MOL0     C87406   3.784   3.094   2.520  0.8041  0.5557 -0.6868
  663MOL0     C87407   3.764   3.056   2.668  0.2707 -0.3136  0.0401
  663MOL0     O87408   3.857   3.118   2.758 -0.5408  0.2585 -0.3507
  663MOL0     C87409   3.977   3.057   2.762  0.9784 -0.2925 -0.3295
  663MOL0     C87410   4.000   2.946   2.852  0.2733  0.0632 -0.2997
  663MOL0     C87411   4.129   2.891   2.853  0.7107 -1.0382 -0.4578
  663MOL0     C87412   4.236   2.943   2.778  0.3899 -0.6081  0.3458
  663MOL0     C87413   4.373   2.885   2.779 -0.6366 -0.0256 -0.7815
  663MOL0     O87414   4.481   2.951   2.729  0.3199  0.0466 -0.2806
  663MOL0     C87415   4.603   2.908   2.773 -0.8470  0.5181  0.0690
  663MOL0     C87416   4.663   2.983   2.878  0.3583 -0.1139  0.1749
  663MOL0     C87417   4.781   2.945   2.931 -0.1115  0.5816 -0.3794
  663MOL0     C87418   4.853   2.836   2.881  0.3430  0.4500  0.7325
  663MOL0     O87419   4.977   2.794   2.928  0.7068 -0.2228  0.1697
  663MOL0     C87420   5.029   2.656   2.896 -0.4299 -0.5179 -0.1009
  663MOL0     C87421   5.163   2.639   2.971  1.0567 -0.0285  0.0444
  663MOL0     C87422   5.275   2.718   2.905 -0.1210  1.3796 -0.1577
  663MOL0     C87423   5.404   2.667   2.966 -0.4487 -0.4714  0.5895
  663MOL0     C87424   5.531   2.729   2.896 -0.0630  0.2183  0.7408
  663MOL0     C87425   5.577   2.870   2.952 -0.3205  0.1041 -0.2430
  663MOL0     C87426   5.643   2.866   3.096 -0.3302 -0.3518  0.4748
  663MOL0     C87427   5.673   3.010   3.148 -0.2459 -0.1906  0.1725
  663MOL0    Cl87428   5.711   3.129   3.022  0.2547  0.2197 -0.0898
  663MOL0     C87429   4.797   2.758   2.775  0.3503  0.5123  0.1120
  663MOL0     C87430   4.668   2.796   2.727  0.4209  0.3084  0.4651
  663MOL0     O87431   4.385   2.780   2.837  0.2183  0.8974 -0.7424
  663MOL0     C87432   4.213   3.051   2.688 -0.0789  0.4932 -1.0812
  663MOL0     C87433   4.080   3.098   2.686  0.1711 -0.1444 -0.0971
  663MOL0     N87434   3.929   3.064   2.236 -0.0873 -0.3966 -0.3547
  663MOL0     N87435   4.053   3.020   2.238 -0.6992 -0.5629  0.3257
  663MOL0     C87436   4.545   3.316   2.163  0.6076 -0.8235 -0.4766
  663MOL0     C87437   4.449   3.367   2.086  0.0532 -0.2766 -0.2744
  663MOL0     C87438   4.132   3.482   1.857  0.7383  1.3928 -1.4112
  663MOL0     C87439   4.146   3.593   1.777  0.8201 -0.7452  0.7501
  663MOL0     C87440   4.022   3.666   1.755  0.4255  0.1144 -0.2304
  663MOL0     C87441   3.902   3.631   1.831 -0.0048 -0.5198  0.2843
  663MOL0     O87442   3.805   3.723   1.807  0.4823 -0.0289  0.0906
  663MOL0     C87443   3.674   3.672   1.783 -0.0285 -0.3913  0.1726
  663MOL0     C87444   3.600   3.756   1.682  1.0076 -0.5401  0.8610
  663MOL0     C87445   3.463   3.696   1.665  0.0855  0.2527  0.2535
  663MOL0     C87446   3.415   3.723   1.519  0.1379  0.4325 -0.6311
  663MOL0     C87447   3.271   3.700   1.510 -0.5103  0.0966  0.1390
  663MOL0     C87448   3.150   3.682   1.523  0.0573 -1.1276 -0.1654
  663MOL0     C87449   3.892   3.518   1.909 -0.1689 -0.9887  0.5463
  663MOL0     C87450   4.008   3.434   1.911  0.0437 -1.2511 -0.2335
  663MOL0     H87451   4.614   3.378   1.787 -0.1234 -1.6823 -0.0585
  663MOL0     H87452   4.803   3.286   1.948 -0.6263  1.0095 -1.5501
  663MOL0     H87453   4.962   3.215   2.149  1.4488 -1.9400  2.0850
  663MOL0     H87454   4.841   3.098   2.075 -1.1302  1.2050  0.1497
  663MOL0     H87455   4.951   3.129   2.358  0.6901  2.0383 -1.9420
  663MOL0     H87456   4.961   2.987   2.239 -0.0043 -0.4292  0.4169
  663MOL0     H87457   4.713   3.097   2.363  0.3470 -0.3056  1.8988
  663MOL0     H87458   4.788   2.970   2.450 -1.4543 -0.8095  0.2990
  663MOL0     H87459   4.735   2.891   2.178 -1.2349 -2.5046 -0.2876
  663MOL0     H87460   4.702   2.803   2.322 -0.9777 -0.8063 -1.0013
  663MOL0     H87461   4.493   2.843   2.205 -0.5486  0.5584 -0.2959
  663MOL0     H87462   4.527   3.014   2.189 -0.9378 -0.1024 -0.3348
  663MOL0     H87463   4.472   3.050   2.441  0.2016  0.3490  0.9754
  663MOL0     H87464   4.453   2.878   2.459  1.9233  1.9734  0.6402
  663MOL0     H87465   4.281   2.888   2.264 -1.9847  0.5090  1.2004
  663MOL0     H87466   4.240   2.948   2.422 -2.1186  0.2989 -0.1145
  663MOL0     H87467   4.313   3.130   2.183 -2.2567 -1.0491 -1.1726
  663MOL0     H87468   4.332   3.187   2.343 -2.9426  0.3267  1.4589
  663MOL0     H87469   4.085   3.329   2.341  2.1104 -0.7674 -0.2838
  663MOL0     H87470   3.714   3.235   2.266 -0.0214 -0.7777 -0.6821
  663MOL0     H87471   3.811   3.369   2.310 -0.7255  0.1286  1.3081
  663MOL0     H87472   3.696   3.286   2.528  1.2045  0.1515  2.1113
  663MOL0     H87473   3.863   3.295   2.535 -1.2585  1.1316  0.3736
  663MOL0     H87474   3.730   3.025   2.454 -1.4714  1.0182  0.5696
  663MOL0     H87475   3.887   3.061   2.502 -0.4748 -3.2763 -2.1576
  663MOL0     H87476   3.766   2.947   2.685 -1.7811 -0.4202 -0.1266
  663MOL0     H87477   3.662   3.079   2.701  0.2682 -0.6387  0.2661
  663MOL0     H87478   3.916   2.921   2.916  1.6367 -0.6728  1.2771
  663MOL0     H87479   4.155   2.804   2.912  5.7655  0.9669  0.8032
  663MOL0     H87480   4.614   3.069   2.924  1.5903  0.2128  0.9127
  663MOL0     H87481   4.814   2.996   3.022  1.6628 -1.6495  0.3238
  663MOL0     H87482   5.042   2.644   2.788  0.2967  2.3081 -0.4139
  663MOL0     H87483   4.948   2.590   2.926 -2.2337  1.5634 -0.0852
  663MOL0     H87484   5.172   2.531   2.956 -0.0566  0.0995 -2.0018
  663MOL0     H87485   5.156   2.657   3.078 -0.4412 -0.6185  0.0615
  663MOL0     H87486   5.260   2.823   2.933  0.2165  0.8086  2.5028
  663MOL0     H87487   5.283   2.703   2.797  0.2282  2.6605 -0.3230
  663MOL0     H87488   5.411   2.694   3.072  1.1426  1.3681  0.0739
  663MOL0     H87489   5.404   2.558   2.959  0.3854 -0.4326 -0.2437
  663MOL0     H87490   5.506   2.729   2.790 -3.0202 -3.0229  1.2328
  663MOL0     H87491   5.613   2.657   2.903 -0.2892  0.1354  3.8997
  663MOL0     H87492   5.489   2.936   2.951 -0.6650 -0.3114  1.3033
  663MOL0     H87493   5.652   2.907   2.882 -0.1073 -1.6769 -1.0217
  663MOL0     H87494   5.581   2.809   3.164 -2.1549 -1.8612 -2.2612
  663MOL0     H87495   5.743   2.821   3.095  0.9777  1.9269  4.9370
  663MOL0     H87496   5.757   3.001   3.218  1.0991 -0.6099 -1.4312
  663MOL0     H87497   5.588   3.052   3.202  1.6886  1.1503  2.3830
  663MOL0     H87498   4.832   2.676   2.714 -2.1474  0.0704 -0.8686
  663MOL0     H87499   4.614   2.743   2.648  2.2954  0.0653 -0.7133
  663MOL0     H87500   4.288   3.094   2.622 -1.7845  1.6237 -2.3511
  663MOL0     H87501   4.058   3.178   2.616 -0.5661 -0.3759 -0.1431
  663MOL0     H87502   4.520   3.294   2.267 -0.5708  1.7080 -0.1509
  663MOL0     H87503   4.354   3.390   2.133  0.9715  1.0020  1.0506
  663MOL0     H87504   4.237   3.633   1.734  0.4885 -1.4545 -0.6749
  663MOL0     H87505   4.018   3.762   1.703  3.1004 -0.4467 -1.6428
  663MOL0     H87506   3.622   3.669   1.879  1.5750 -3.7637  1.0544
  663MOL0     H87507   3.683   3.569   1.748  0.4288 -0.2641 -0.0867
  663MOL0     H87508   3.594   3.863   1.705  1.8918  0.2768 -2.2740
  663MOL0     H87509   3.659   3.759   1.590  1.9054  2.3544  1.4270
  663MOL0     H87510   3.400   3.748   1.737 -0.1888  0.6231 -0.2469
  663MOL0     H87511   3.461   3.587   1.667 -0.6113 -0.2222 -5.8278
  663MOL0     H87512   3.445   3.826   1.498  1.1170 -0.2867 -3.1580
  663MOL0     H87513   3.465   3.652   1.451  0.7486  0.3866 -0.1466
  663MOL0     H87514   3.044   3.666   1.527 -1.0060  4.2172  3.1284
  663MOL0     H87515   3.797   3.497   1.956  1.0552 -1.0811  3.1873
  663MOL0     H87516   3.981   3.357   1.983 -3.0236 -0.1754 -0.0729
  664MOL0     O87517   4.671   5.754   7.856  0.2248 -0.3303 -0.0744
  664MOL0     C87518   4.625   5.863   7.842  0.1237  0.3504  0.3930
  664MOL0     O87519   4.693   5.982   7.841  0.4672 -0.0403  0.6747
  664MOL0     C87520   4.824   5.975   7.882 -0.4934 -0.0598  0.0249
  664MOL0     C87521   4.855   5.959   8.013 -0.1667 -1.0237 -0.4870
  664MOL0     C87522   4.984   5.982   8.070 -0.6178 -0.7820  0.0852
  664MOL0     C87523   5.091   6.000   7.975 -0.9341 -0.4877 -0.1463
  664MOL0     O87524   5.221   5.999   8.030  0.6251 -0.4156  0.2013
  664MOL0     C87525   5.332   6.049   7.956  1.2312  0.0089  0.0375
  664MOL0     C87526   5.454   5.986   8.021  0.8373  0.5587 -1.6663
  664MOL0     C87527   5.580   6.068   7.984  0.5441  0.0872  0.2504
  664MOL0     C87528   5.712   6.000   8.030  0.3959  0.2825  0.6529
  664MOL0     C87529   5.840   6.076   8.006 -0.2843 -0.1942  0.0240
  664MOL0     C87530   5.890   6.036   7.867 -0.1917 -0.2431 -0.2011
  664MOL0     C87531   6.017   6.118   7.821  0.0082 -0.0963  0.6832
  664MOL0     C87532   6.117   6.149   7.931  0.7542 -0.0159  0.0645
  664MOL0     N87533   6.234   6.214   7.872  0.0311  0.8158 -0.0126
  664MOL0     C87534   6.255   6.339   7.835  0.5057 -0.2565 -0.1354
  664MOL0     C87535   6.384   6.359   7.826 -0.5330 -0.0608  0.1698
  664MOL0     C87536   6.464   6.489   7.813  0.1366 -0.6810  0.2367
  664MOL0     C87537   6.564   6.470   7.695  0.9704  0.3909 -0.1190
  664MOL0     C87538   6.657   6.592   7.681 -0.1237  0.4903  0.7599
  664MOL0     C87539   6.757   6.625   7.794 -0.5225  0.9497 -0.3038
  664MOL0     O87540   6.854   6.519   7.804 -1.1319  0.1692 -0.4907
  664MOL0     C87541   6.989   6.534   7.833  0.5252  0.7056 -0.0916
  664MOL0     C87542   7.064   6.410   7.842  0.5402  0.6299  0.6435
  664MOL0     C87543   7.195   6.419   7.871  0.0613 -0.1128  0.3862
  664MOL0     C87544   7.261   6.543   7.886  0.4538 -0.3808 -0.2044
  664MOL0     C87545   7.402   6.546   7.924 -0.1735  0.2203  0.4372
  664MOL0     O87546   7.463   6.427   7.954  1.1475  0.3389  0.0282
  664MOL0     C87547   7.605   6.426   7.953  0.1040 -0.0790 -0.1223
  664MOL0     C87548   7.683   6.398   8.066  0.5335  0.4382  0.3682
  664MOL0     C87549   7.819   6.383   8.055 -0.4984 -0.2797  0.8479
  664MOL0     C87550   7.887   6.391   7.930 -0.7271 -0.2322 -0.2909
  664MOL0     O87551   8.011   6.346   7.898 -0.5404  0.7410  0.8991
  664MOL0     C87552   8.106   6.332   8.004 -0.6986  0.1192 -0.4006
  664MOL0     C87553   8.241   6.322   7.943 -0.6009  0.4708  0.2959
  664MOL0     C87554   8.275   6.429   7.834 -0.0098  1.1041 -0.1753
  664MOL0     C87555   8.417   6.416   7.776 -0.0612 -0.0576 -0.1099
  664MOL0     C87556   8.515   6.515   7.847 -0.3483 -0.6085 -0.2107
  664MOL0     C87557   8.660   6.495   7.807 -0.4401 -0.3655 -0.8667
  664MOL0     C87558   8.720   6.367   7.859  0.6918 -0.4832 -0.2072
  664MOL0     C87559   8.837   6.319   7.772 -0.3070  0.2751  0.0246
  664MOL0    Cl87560   8.861   6.154   7.835  0.0972 -0.0768 -0.1921
  664MOL0     C87561   7.811   6.415   7.817 -0.3607 -0.3228 -0.6333
  664MOL0     C87562   7.672   6.435   7.825  0.7955  0.4175  0.7951
  664MOL0     O87563   7.452   6.655   7.934  0.6382  0.2984 -0.8443
  664MOL0     C87564   7.189   6.663   7.883 -0.6671  0.0159 -0.2625
  664MOL0     C87565   7.053   6.654   7.865  0.3998 -0.2236  0.7309
  664MOL0     N87566   6.441   6.238   7.863 -0.6691 -0.0700  0.1182
  664MOL0     N87567   6.353   6.148   7.885 -0.3729 -1.0751 -0.6786
  664MOL0     C87568   5.061   6.015   7.839 -0.4119  0.4956 -0.3286
  664MOL0     C87569   4.927   6.005   7.792 -0.1739 -0.5139 -0.4562
  664MOL0     C87570   4.483   5.855   7.814  0.3013 -0.0432  0.2766
  664MOL0     C87571   4.400   5.968   7.812 -0.1071 -0.4664  0.2678
  664MOL0     C87572   4.262   5.956   7.778 -0.8239 -0.0762  1.0747
  664MOL0     C87573   4.202   5.834   7.743 -0.0822  1.7140 -0.8181
  664MOL0     O87574   4.071   5.831   7.705  0.2621  0.4470 -0.5544
  664MOL0     C87575   3.989   5.713   7.726 -0.0453  0.3112 -0.7986
  664MOL0     C87576   3.848   5.758   7.695 -0.5990 -0.5311  0.3379
  664MOL0     C87577   3.795   5.886   7.764 -0.6032  1.5219  0.6059
  664MOL0     C87578   3.646   5.889   7.753  0.2734  0.4637 -1.3259
  664MOL0     C87579   3.591   5.993   7.853  1.0109 -0.4571  0.0357
  664MOL0     C87580   3.549   6.084   7.928 -0.2835  0.3135 -0.0738
  664MOL0     C87581   4.288   5.720   7.751  0.3458 -0.3165 -0.2106
  664MOL0     C87582   4.423   5.731   7.790 -0.8627  0.3172 -0.4583
  664MOL0     H87583   4.776   5.929   8.082 -0.8249 -2.6136 -1.8507
  664MOL0     H87584   5.000   5.979   8.178  2.1200 -1.7369 -0.2635
  664MOL0     H87585   5.343   6.158   7.958  1.0707  0.0732 -1.3823
  664MOL0     H87586   5.332   6.014   7.853  1.0570 -0.0553  0.0600
  664MOL0     H87587   5.462   5.878   8.007 -0.1004  0.2974 -0.4368
  664MOL0     H87588   5.445   5.976   8.130  2.7270 -1.6820 -1.6405
  664MOL0     H87589   5.576   6.168   8.028 -1.8279  0.6215 -1.0084
  664MOL0     H87590   5.575   6.082   7.875 -3.6125 -2.9234 -0.2013
  664MOL0     H87591   5.711   5.982   8.138  1.1556 -3.4794  0.1763
  664MOL0     H87592   5.724   5.900   7.986  0.2941  1.4185 -2.1421
  664MOL0     H87593   5.916   6.046   8.079  1.9990  0.4651 -1.9756
  664MOL0     H87594   5.818   6.183   8.007 -1.4849 -0.3246 -2.9102
  664MOL0     H87595   5.801   6.054   7.807 -1.5434 -2.7940  0.8694
  664MOL0     H87596   5.903   5.927   7.858  1.5446 -0.4651  3.1597
  664MOL0     H87597   6.067   6.060   7.743 -0.8865  0.7239 -0.5478
  664MOL0     H87598   5.991   6.211   7.769  1.6763 -1.0056 -2.0224
  664MOL0     H87599   6.149   6.060   7.986  2.3628  0.3732 -0.2140
  664MOL0     H87600   6.075   6.220   8.003  2.2434  1.4988 -0.5085
  664MOL0     H87601   6.177   6.413   7.818  1.9526  1.4633  0.3614
  664MOL0     H87602   6.524   6.505   7.903  1.1563  0.4140 -0.6255
  664MOL0     H87603   6.399   6.577   7.805  1.2926  0.1213 -0.4734
  664MOL0     H87604   6.495   6.461   7.611 -0.9387  0.3704  1.3782
  664MOL0     H87605   6.631   6.383   7.700 -0.1560 -0.4469  1.2016
  664MOL0     H87606   6.719   6.573   7.593 -1.3606  0.2489 -0.0913
  664MOL0     H87607   6.602   6.684   7.663 -3.1418 -1.4555 -0.9309
  664MOL0     H87608   6.710   6.644   7.891  1.2369  0.1274  0.7785
  664MOL0     H87609   6.808   6.718   7.767 -0.0914  0.7494 -0.1898
  664MOL0     H87610   7.024   6.315   7.809 -0.8491  0.8939  1.5100
  664MOL0     H87611   7.252   6.328   7.884 -0.8411 -0.5836  1.1052
  664MOL0     H87612   7.635   6.366   8.158  1.4386 -0.9635  0.3974
  664MOL0     H87613   7.881   6.337   8.132  1.4311 -3.1837 -2.1342
  664MOL0     H87614   8.113   6.246   8.071  0.6221  1.4785  1.2775
  664MOL0     H87615   8.099   6.415   8.074 -1.8007 -0.8908  0.7248
  664MOL0     H87616   8.261   6.224   7.898  1.6561  0.0958  1.9052
  664MOL0     H87617   8.313   6.332   8.025  1.4106  1.6278 -1.4851
  664MOL0     H87618   8.257   6.527   7.880 -0.3202  0.3871  1.2811
  664MOL0     H87619   8.208   6.410   7.750  2.2964 -0.0930 -1.8842
  664MOL0     H87620   8.464   6.317   7.780  1.3002  0.6054  1.3685
  664MOL0     H87621   8.415   6.436   7.668  1.1334 -1.6414 -0.4533
  664MOL0     H87622   8.497   6.507   7.954  0.8453  0.5098  0.1032
  664MOL0     H87623   8.474   6.611   7.813 -1.6032 -1.2403 -0.5286
  664MOL0     H87624   8.723   6.579   7.840  0.5788 -0.5248 -2.3298
  664MOL0     H87625   8.661   6.493   7.698  1.3444 -0.1800 -0.8902
  664MOL0     H87626   8.765   6.384   7.957  2.2632 -2.6126 -0.5000
  664MOL0     H87627   8.648   6.287   7.876 -1.5132  1.6471  1.0838
  664MOL0     H87628   8.932   6.371   7.761 -0.4623  0.5561 -0.0198
  664MOL0     H87629   8.798   6.314   7.669 -1.8214 -0.8792  0.6166
  664MOL0     H87630   7.855   6.436   7.720 -1.6281 -0.3671 -1.2350
  664MOL0     H87631   7.624   6.454   7.730  0.0965 -0.1494  1.0252
  664MOL0     H87632   7.223   6.758   7.921  2.5017 -0.7379 -0.9332
  664MOL0     H87633   7.003   6.750   7.861  1.2656  0.2826  1.6082
  664MOL0     H87634   5.145   6.043   7.776 -0.1225  1.2753  0.3860
  664MOL0     H87635   4.909   5.996   7.686  1.6956 -2.1229 -0.6815
  664MOL0     H87636   4.429   6.072   7.826 -0.8881  0.0026 -1.4355
  664MOL0     H87637   4.195   6.041   7.788 -1.9001 -0.8021  0.3783
  664MOL0     H87638   3.986   5.676   7.829  0.8987  2.1868 -0.0394
  664MOL0     H87639   4.013   5.638   7.651  0.7430  0.7251 -0.9770
  664MOL0     H87640   3.848   5.761   7.586  3.5067 -1.8190  0.1055
  664MOL0     H87641   3.786   5.672   7.722 -3.2516  1.1769  0.0546
  664MOL0     H87642   3.838   5.977   7.721  2.0566  1.2015  2.3163
  664MOL0     H87643   3.838   5.885   7.864  1.2714  4.6744 -0.0257
  664MOL0     H87644   3.619   5.935   7.657  0.7257  0.7479 -1.3188
  664MOL0     H87645   3.595   5.793   7.764  0.8455  0.1623 -1.2856
  664MOL0     H87646   3.516   6.169   7.985  3.9666  3.7254 -2.1505
  664MOL0     H87647   4.245   5.622   7.730 -1.7102  0.5788 -0.4391
  664MOL0     H87648   4.480   5.639   7.794  0.1329  0.9003  3.6392
  665MOL0     O87649   3.775   2.456   8.605  0.1530  0.0757 -1.1053
  665MOL0     C87650   3.781   2.561   8.675 -0.0551  0.4426 -0.7877
  665MOL0     O87651   3.684   2.611   8.758 -0.2441 -0.2025  0.0130
  665MOL0     C87652   3.563   2.565   8.728  0.8424  0.9934 -0.6467
  665MOL0     C87653   3.509   2.437   8.770 -0.5851  0.6917  0.1605
  665MOL0     C87654   3.386   2.386   8.727  0.0645  0.3503 -0.9606
  665MOL0     C87655   3.305   2.473   8.649 -0.4739 -0.5121  0.5808
  665MOL0     O87656   3.177   2.447   8.608  0.8441  0.3852 -0.1510
  665MOL0     C87657   3.110   2.341   8.683  0.8183 -0.2531 -0.4572
  665MOL0     C87658   2.965   2.386   8.686 -0.2244 -0.0734  1.0958
  665MOL0     C87659   2.877   2.292   8.763 -0.1019  0.5875  0.3606
  665MOL0     C87660   2.893   2.323   8.910 -0.0985 -0.8787 -0.3709
  665MOL0     C87661   2.819   2.227   9.000 -1.4860  0.2705 -0.2957
  665MOL0     C87662   2.816   2.283   9.139 -0.2930 -0.3654 -0.5654
  665MOL0     C87663   2.743   2.200   9.247 -0.4333 -0.8343  0.2492
  665MOL0     C87664   2.606   2.167   9.211  0.1546  0.6970 -0.9356
  665MOL0     N87665   2.531   2.143   9.342 -0.0707  0.8415 -0.4786
  665MOL0     C87666   2.430   2.050   9.364 -0.0892 -0.5521 -0.4405
  665MOL0     C87667   2.383   2.088   9.490 -0.3655  0.2255  0.6832
  665MOL0     C87668   2.258   2.027   9.558  1.2170 -0.2782 -0.0510
  665MOL0     C87669   2.139   2.125   9.581 -0.3220  0.4685  0.1635
  665MOL0     C87670   2.094   2.213   9.464 -0.3210 -0.5852 -0.0904
  665MOL0     C87671   1.973   2.307   9.503 -0.2543 -0.0633  0.8598
  665MOL0     O87672   1.867   2.289   9.406  0.4723  0.2181  1.0385
  665MOL0     C87673   1.734   2.301   9.440  1.1404 -0.1402  0.0107
  665MOL0     C87674   1.697   2.370   9.554  0.7395 -0.6760  0.1574
  665MOL0     C87675   1.558   2.386   9.573  0.1531 -1.0820 -1.3782
  665MOL0     C87676   1.452   2.336   9.489 -0.8376 -0.9273  0.2311
  665MOL0     C87677   1.306   2.362   9.509  0.5341  0.5858  0.2734
  665MOL0     O87678   1.219   2.282   9.437  0.3136  0.3370  0.1129
  665MOL0     C87679   1.085   2.284   9.470  0.4484  0.4687  0.0210
  665MOL0     C87680   0.989   2.304   9.366 -0.6299  0.7293 -0.0742
  665MOL0     C87681   0.850   2.298   9.391  0.4963  0.1695 -0.8718
  665MOL0     C87682   0.805   2.280   9.525  0.3490  0.2698  0.1739
  665MOL0     O87683   0.675   2.273   9.565 -0.6058  0.8685 -0.1182
  665MOL0     C87684   0.604   2.149   9.536 -0.2437 -0.0350 -0.5228
  665MOL0     C87685   0.487   2.136   9.636 -0.3890 -0.4637  0.5033
  665MOL0     C87686   0.413   2.012   9.596  1.0460  0.7998  0.1587
  665MOL0     C87687   0.274   2.003   9.666  0.1877  0.1510 -0.4425
  665MOL0     C87688   0.294   1.997   9.818  0.2080  0.0850 -0.9902
  665MOL0     C87689   0.168   1.949   9.894  0.6448  0.1124  0.6513
  665MOL0     C87690   0.169   2.022  10.028 -0.7252 -0.2756  0.0365
  665MOL0     C87691   0.289   1.984  10.111 -0.0346  0.4035 -0.1136
  665MOL0    Cl87692   0.272   2.095  10.257  0.3481  0.0101 -0.6611
  665MOL0     C87693   0.901   2.273   9.627 -0.0879  0.5324 -0.0605
  665MOL0     C87694   1.035   2.284   9.604  0.3583  0.4170 -0.0693
  665MOL0     O87695   1.280   2.440   9.599  0.3425  0.0871 -0.5578
  665MOL0     C87696   1.499   2.256   9.389 -0.4547 -0.2865  0.4325
  665MOL0     C87697   1.640   2.236   9.363  1.0272  0.2620  0.2604
  665MOL0     N87698   2.451   2.195   9.539 -0.2981  0.4224  0.0851
  665MOL0     N87699   2.539   2.229   9.451 -0.5176 -1.0232 -0.5293
  665MOL0     C87700   3.355   2.603   8.614  0.3037 -0.5075  0.6547
  665MOL0     C87701   3.486   2.647   8.650 -0.0868 -0.4194 -0.4573
  665MOL0     C87702   3.907   2.639   8.660 -0.4459  0.1285 -0.1974
  665MOL0     C87703   3.958   2.723   8.762 -0.2701 -0.4741 -0.9535
  665MOL0     C87704   4.078   2.781   8.753 -0.7706 -0.3199  0.5596
  665MOL0     C87705   4.166   2.761   8.640  0.0508 -0.0140 -0.9228
  665MOL0     O87706   4.282   2.835   8.618  0.2673  0.3893 -0.3877
  665MOL0     C87707   4.372   2.843   8.727 -0.2190 -0.2822  0.2657
  665MOL0     C87708   4.503   2.834   8.651 -0.2075  0.0658 -0.0212
  665MOL0     C87709   4.623   2.830   8.745  0.2069 -0.5962  0.7691
  665MOL0     C87710   4.741   2.900   8.661  0.0145  0.6634 -0.1247
  665MOL0     C87711   4.863   2.866   8.736 -1.1873 -0.3416  0.4155
  665MOL0     C87712   4.965   2.837   8.798  0.2123  0.2921  0.1760
  665MOL0     C87713   4.118   2.675   8.546  0.0392 -0.0595 -0.4269
  665MOL0     C87714   3.992   2.614   8.550 -0.9243 -1.0955  0.4079
  665MOL0     H87715   3.568   2.382   8.842 -0.1202  1.5893  0.4840
  665MOL0     H87716   3.364   2.285   8.762 -1.4873  0.5469 -1.3032
  665MOL0     H87717   3.150   2.325   8.783 -0.7098  2.6872  0.7534
  665MOL0     H87718   3.119   2.243   8.635  2.4494 -0.0313 -0.6768
  665MOL0     H87719   2.927   2.385   8.584  1.0748 -1.6134  0.6047
  665MOL0     H87720   2.958   2.484   8.735  3.0201  0.4281  0.7204
  665MOL0     H87721   2.908   2.188   8.751 -0.0981  0.5669  0.5485
  665MOL0     H87722   2.776   2.300   8.721 -0.5722 -1.7307  0.9294
  665MOL0     H87723   2.999   2.312   8.932  0.0342  1.6178  0.5469
  665MOL0     H87724   2.866   2.428   8.924 -0.8536 -0.9613 -1.0919
  665MOL0     H87725   2.880   2.137   9.012 -1.4961  0.3689  0.5428
  665MOL0     H87726   2.726   2.210   8.945  0.1646 -2.8952 -2.4136
  665MOL0     H87727   2.766   2.380   9.142  0.6892  0.1303  0.0302
  665MOL0     H87728   2.913   2.311   9.180 -2.3197  2.3632  3.0150
  665MOL0     H87729   2.801   2.108   9.260 -1.7728 -1.3890  2.9559
  665MOL0     H87730   2.750   2.264   9.335  0.9325  1.4709 -1.3895
  665MOL0     H87731   2.611   2.079   9.146  1.3230 -2.0112  2.5023
  665MOL0     H87732   2.556   2.247   9.157 -1.0450  1.2931  0.9621
  665MOL0     H87733   2.382   1.978   9.298 -0.2968  1.1341 -2.2544
  665MOL0     H87734   2.287   1.976   9.650  3.0246  3.4566  1.6576
  665MOL0     H87735   2.215   1.948   9.495 -2.2777  2.0668 -0.8770
  665MOL0     H87736   2.164   2.198   9.659 -0.5205  1.9872 -1.1528
  665MOL0     H87737   2.049   2.072   9.613 -0.1041 -1.3003 -1.9610
  665MOL0     H87738   2.180   2.262   9.419 -0.9141  0.5381 -0.0416
  665MOL0     H87739   2.049   2.154   9.384 -2.8498 -0.0917  0.8729
  665MOL0     H87740   2.003   2.411   9.493 -2.1260  0.3083 -2.3345
  665MOL0     H87741   1.940   2.288   9.606  0.2098  2.0308  1.4272
  665MOL0     H87742   1.766   2.431   9.611  1.2609  0.1255 -1.2724
  665MOL0     H87743   1.534   2.453   9.654 -0.4548 -0.4727 -2.0465
  665MOL0     H87744   1.029   2.299   9.265  1.3660 -1.2017  0.7415
  665MOL0     H87745   0.785   2.306   9.304  1.3916  0.4939 -1.5175
  665MOL0     H87746   0.666   2.059   9.543 -2.1374 -1.7019 -3.1965
  665MOL0     H87747   0.576   2.161   9.431  0.2586  3.2942 -0.3806
  665MOL0     H87748   0.428   2.228   9.638  0.1029 -0.1339  0.0592
  665MOL0     H87749   0.529   2.137   9.737 -0.9362  2.1560  0.7951
  665MOL0     H87750   0.468   1.921   9.620 -0.6181 -0.8447 -1.8999
  665MOL0     H87751   0.395   2.009   9.489  0.8738 -2.4847  0.1807
  665MOL0     H87752   0.206   2.083   9.634 -1.6161 -1.1209  0.0338
  665MOL0     H87753   0.224   1.912   9.633 -0.9720  0.0263  1.4477
  665MOL0     H87754   0.325   2.096   9.854 -3.0796  1.0885 -0.6168
  665MOL0     H87755   0.377   1.927   9.836  1.0131  0.8855 -1.4711
  665MOL0     H87756   0.165   1.842   9.914  2.3755 -0.4473 -1.6675
  665MOL0     H87757   0.079   1.985   9.842 -0.8079  0.1783  3.0280
  665MOL0     H87758   0.163   2.131  10.023 -0.7406  0.0706  4.1019
  665MOL0     H87759   0.080   1.985  10.080 -0.3321 -3.3104 -1.2180
  665MOL0     H87760   0.379   2.023  10.062 -0.5222  1.7061 -0.0205
  665MOL0     H87761   0.294   1.877  10.132  0.4089  0.1042 -1.6467
  665MOL0     H87762   0.856   2.256   9.725 -0.4270 -0.3539 -0.3607
  665MOL0     H87763   1.101   2.295   9.690  0.1129  1.8144 -0.0346
  665MOL0     H87764   1.431   2.200   9.326 -0.4787 -2.8797  2.5528
  665MOL0     H87765   1.662   2.170   9.280 -0.5416 -1.2081  0.9566
  665MOL0     H87766   3.298   2.659   8.541  1.4570 -1.2025 -0.8518
  665MOL0     H87767   3.528   2.742   8.619 -1.3089 -0.8254 -3.8512
  665MOL0     H87768   3.906   2.727   8.857  0.5801  0.4449 -0.5135
  665MOL0     H87769   4.111   2.843   8.836  0.9972  0.8340 -0.9097
  665MOL0     H87770   4.360   2.754   8.790  0.2627 -0.8829 -0.4647
  665MOL0     H87771   4.365   2.932   8.789  1.7650 -1.3877  2.2253
  665MOL0     H87772   4.505   2.743   8.591  2.0419  1.1129 -1.6378
  665MOL0     H87773   4.512   2.922   8.588 -0.2163 -0.0314 -0.1590
  665MOL0     H87774   4.650   2.726   8.762  1.4282 -0.4100  0.0720
  665MOL0     H87775   4.620   2.890   8.837 -0.1504  2.7372 -1.2401
  665MOL0     H87776   4.740   2.861   8.559 -1.8402 -2.6639  0.9811
  665MOL0     H87777   4.723   3.007   8.673 -2.9193  0.1950  0.4090
  665MOL0     H87778   5.046   2.807   8.861  0.1090 -0.7125 -0.1522
  665MOL0     H87779   4.179   2.665   8.456 -1.8213  0.4284 -1.8089
  665MOL0     H87780   3.982   2.549   8.463  1.2674 -0.9733  0.0104
  666MOL0     O87781   9.190   7.832   1.425 -0.4785 -0.7293  0.8948
  666MOL0     C87782   9.238   7.868   1.533  0.0827 -0.5534  0.0737
  666MOL0     O87783   9.167   7.906   1.640 -0.0671  0.6866 -0.1042
  666MOL0     C87784   9.027   7.925   1.642 -0.6467  0.2572 -0.6939
  666MOL0     C87785   8.950   7.964   1.537  0.7838  0.3168  0.1221
  666MOL0     C87786   8.814   7.990   1.561 -0.4900 -0.4785  0.5921
  666MOL0     C87787   8.749   7.962   1.684  0.2199 -0.6207  0.1088
  666MOL0     O87788   8.618   7.960   1.724  0.3635 -0.2333  0.5099
  666MOL0     C87789   8.519   7.961   1.617 -0.2501  0.1224 -0.0692
  666MOL0     C87790   8.372   7.942   1.660 -0.5423 -0.4891  0.2181
  666MOL0     C87791   8.323   7.805   1.672  1.0288 -0.2247 -0.2732
  666MOL0     C87792   8.183   7.798   1.729  0.0366 -0.4160 -0.1795
  666MOL0     C87793   8.074   7.853   1.635  0.5968  0.7598  0.6426
  666MOL0     C87794   7.928   7.841   1.685  0.6388 -0.5781  0.3473
  666MOL0     C87795   7.826   7.915   1.595  0.1639  0.3936 -0.0753
  666MOL0     C87796   7.684   7.922   1.654 -0.4461 -0.7889 -1.5209
  666MOL0     N87797   7.611   7.794   1.657 -0.6304  0.3410 -0.2227
  666MOL0     C87798   7.582   7.710   1.765  0.1858 -0.2490  0.3002
  666MOL0     C87799   7.534   7.599   1.718  0.4603  0.7209  1.0543
  666MOL0     C87800   7.478   7.487   1.789  0.0818 -0.0984  0.0242
  666MOL0     C87801   7.327   7.496   1.795  0.2746  0.2326 -0.2923
  666MOL0     C87802   7.270   7.386   1.886  0.6497 -1.0470  0.7691
  666MOL0     C87803   7.113   7.387   1.905  0.0295  0.7338 -0.4156
  666MOL0     O87804   7.052   7.504   1.957  0.1804 -0.3007 -0.2056
  666MOL0     C87805   6.917   7.502   1.975  0.1742  0.2091  0.2106
  666MOL0     C87806   6.833   7.384   1.948 -0.3414  0.1086  0.9676
  666MOL0     C87807   6.698   7.400   1.956  0.0756 -0.9796  0.2433
  666MOL0     C87808   6.638   7.525   1.996  1.0288  0.3051  0.2284
  666MOL0     C87809   6.489   7.530   1.994 -0.2867  0.1130 -0.8809
  666MOL0     O87810   6.447   7.639   2.065  0.0924  0.4276  0.5165
  666MOL0     C87811   6.310   7.667   2.054  0.9893  0.5291  0.2175
  666MOL0     C87812   6.211   7.602   2.135  0.1707 -0.4741  0.2552
  666MOL0     C87813   6.079   7.629   2.121 -0.0725  0.1259 -0.1248
  666MOL0     C87814   6.035   7.708   2.012  0.5064 -1.2115 -0.0163
  666MOL0     O87815   5.906   7.714   1.977 -0.4671 -0.5498  0.5666
  666MOL0     C87816   5.880   7.626   1.869  0.1790 -0.3602 -0.2977
  666MOL0     C87817   5.731   7.592   1.862  0.2196 -0.0796  1.2569
  666MOL0     C87818   5.711   7.444   1.806 -0.6552  0.3918 -0.9263
  666MOL0     C87819   5.555   7.418   1.817 -0.1488 -0.4388  0.9168
  666MOL0     C87820   5.510   7.276   1.770 -0.1267  0.4879  0.1105
  666MOL0     C87821   5.358   7.266   1.780 -0.3593 -0.3090  0.4936
  666MOL0     C87822   5.290   7.134   1.732 -0.2157 -0.8052 -0.4241
  666MOL0     C87823   5.143   7.161   1.706 -0.3669  0.1475  0.5218
  666MOL0    Cl87824   5.063   7.208   1.853  0.3412 -0.4420 -0.2554
  666MOL0     C87825   6.128   7.770   1.937  0.4686 -1.1778  0.8327
  666MOL0     C87826   6.267   7.753   1.955  0.2790 -0.2193 -0.7525
  666MOL0     O87827   6.421   7.450   1.932  0.1865  0.0143  0.1427
  666MOL0     C87828   6.716   7.645   2.003  0.6446 -0.2240 -0.0559
  666MOL0     C87829   6.857   7.618   2.009  0.1027 -0.7034  0.5418
  666MOL0     N87830   7.509   7.610   1.585  0.1869 -0.4154  0.7570
  666MOL0     N87831   7.575   7.722   1.553 -0.2309 -0.7915  0.4457
  666MOL0     C87832   8.841   7.944   1.792  1.2027  0.3281  0.9551
  666MOL0     C87833   8.977   7.918   1.775 -0.7060  0.4800 -0.4001
  666MOL0     C87834   9.382   7.884   1.545 -0.5051 -0.1082  0.2478
  666MOL0     C87835   9.479   7.836   1.457  0.1990 -0.9664  0.0206
  666MOL0     C87836   9.621   7.847   1.483  1.4215  1.2402  0.1074
  666MOL0     C87837   9.666   7.919   1.594  0.7112 -0.0313  0.3918
  666MOL0     O87838   9.797   7.936   1.603 -0.5518  0.4475  0.1141
  666MOL0     C87839   9.844   7.997   1.726  0.2353 -0.0989  0.5378
  666MOL0     C87840  10.000   7.984   1.724  1.0706 -0.1437  0.2294
  666MOL0     C87841  10.061   8.102   1.652  1.3542 -0.2170 -0.0401
  666MOL0     C87842  10.199   8.079   1.606  0.0768 -0.1622 -0.7046
  666MOL0     C87843  10.252   8.201   1.550  0.4093 -0.3789  0.7856
  666MOL0     C87844  10.299   8.302   1.510  0.1039  0.4025 -1.3131
  666MOL0     C87845   9.572   7.968   1.680 -0.0804  0.1748 -0.3420
  666MOL0     C87846   9.430   7.948   1.660 -0.2623 -0.4668 -0.2352
  666MOL0     H87847   9.002   7.980   1.443 -0.2061 -0.3027 -0.5460
  666MOL0     H87848   8.764   8.021   1.470 -0.8694 -0.6993  0.7211
  666MOL0     H87849   8.546   7.876   1.553 -0.7413  1.1260 -1.6606
  666MOL0     H87850   8.532   8.054   1.561 -1.1436  2.4951  3.3614
  666MOL0     H87851   8.315   7.998   1.585 -0.9555  0.7614  1.4289
  666MOL0     H87852   8.362   7.999   1.753 -1.6809 -1.6716  0.8558
  666MOL0     H87853   8.389   7.741   1.731 -0.2288  0.2634  1.7958
  666MOL0     H87854   8.318   7.778   1.567 -0.4375  2.9054 -1.1472
  666MOL0     H87855   8.157   7.693   1.748 -0.6924 -0.3497 -0.7727
  666MOL0     H87856   8.186   7.850   1.825  2.5693  0.0612 -0.4470
  666MOL0     H87857   8.081   7.809   1.535 -2.2364  0.6708  0.4194
  666MOL0     H87858   8.093   7.958   1.610 -3.9874  1.4145 -0.9810
  666MOL0     H87859   7.930   7.890   1.783 -1.0094 -0.4389  0.3354
  666MOL0     H87860   7.892   7.738   1.698 -0.6395 -0.2442 -0.4664
  666MOL0     H87861   7.870   8.015   1.582 -0.8636  0.9121  0.3010
  666MOL0     H87862   7.838   7.873   1.495 -0.8873  0.6011 -0.2995
  666MOL0     H87863   7.625   7.986   1.588 -0.1249 -0.3124 -1.3528
  666MOL0     H87864   7.693   7.971   1.751 -0.8855 -0.4862 -1.6295
  666MOL0     H87865   7.623   7.722   1.865  0.4408 -0.7038  0.2545
  666MOL0     H87866   7.506   7.484   1.895  1.8905 -2.4895 -0.4256
  666MOL0     H87867   7.524   7.393   1.758  1.8273 -0.0349  2.1391
  666MOL0     H87868   7.276   7.480   1.699  0.1745 -1.1287 -0.0351
  666MOL0     H87869   7.287   7.594   1.824 -1.2267 -0.3516 -0.2481
  666MOL0     H87870   7.281   7.294   1.828 -0.8605 -1.2688  0.7821
  666MOL0     H87871   7.328   7.386   1.979 -0.5893  0.5656  1.6102
  666MOL0     H87872   7.088   7.305   1.973  0.5854  1.9560  1.3459
  666MOL0     H87873   7.071   7.371   1.806 -1.0902  1.8004 -0.1367
  666MOL0     H87874   6.875   7.291   1.909 -0.5791  0.9441 -1.4246
  666MOL0     H87875   6.634   7.312   1.947 -1.8225 -0.0101  2.8566
  666MOL0     H87876   6.241   7.549   2.224  1.3041 -0.2197  0.0372
  666MOL0     H87877   6.003   7.579   2.180  0.8012 -0.5035  0.4927
  666MOL0     H87878   5.927   7.528   1.879  1.5982 -0.0423 -2.8248
  666MOL0     H87879   5.914   7.661   1.771  2.6188  0.2664  0.7052
  666MOL0     H87880   5.685   7.665   1.794  0.7306 -1.5169 -0.7180
  666MOL0     H87881   5.680   7.587   1.959 -1.3514  0.3450  0.4851
  666MOL0     H87882   5.764   7.367   1.862  1.9282  2.0563 -0.9102
  666MOL0     H87883   5.744   7.435   1.702 -0.3150 -2.9538 -0.6097
  666MOL0     H87884   5.529   7.439   1.921  0.3034  2.2500  0.5407
  666MOL0     H87885   5.508   7.496   1.756  0.4755  0.2668  1.3363
  666MOL0     H87886   5.556   7.191   1.821 -4.2840 -2.6070 -0.7320
  666MOL0     H87887   5.540   7.269   1.665 -1.4530  1.1177 -0.3399
  666MOL0     H87888   5.318   7.345   1.716  1.3776 -0.7573 -1.2306
  666MOL0     H87889   5.339   7.276   1.888  0.7868  0.0503  0.6716
  666MOL0     H87890   5.349   7.094   1.650 -0.6128 -1.1744 -0.5269
  666MOL0     H87891   5.297   7.061   1.813  1.8996 -0.9034 -0.6466
  666MOL0     H87892   5.109   7.072   1.652  2.8967  0.0991 -1.7286
  666MOL0     H87893   5.135   7.242   1.633  1.3689 -0.6073 -0.5761
  666MOL0     H87894   6.091   7.837   1.860 -3.6872 -4.5429 -0.5244
  666MOL0     H87895   6.330   7.798   1.880 -1.3954  3.0696 -0.3569
  666MOL0     H87896   6.675   7.745   2.017  1.1711 -0.2455  2.0358
  666MOL0     H87897   6.917   7.709   2.011  2.3837 -2.1048 -0.6144
  666MOL0     H87898   8.790   7.931   1.888 -0.5331  0.0148  0.0347
  666MOL0     H87899   9.043   7.899   1.859 -1.5257  0.3117  0.2208
  666MOL0     H87900   9.434   7.787   1.371 -3.0554  0.7324  0.5769
  666MOL0     H87901   9.693   7.804   1.414 -0.3517 -3.1158  0.6536
  666MOL0     H87902   9.802   7.940   1.809 -1.3145  1.5819  0.9655
  666MOL0     H87903   9.812   8.100   1.741  1.0243  0.5256 -1.6878
  666MOL0     H87904  10.037   7.987   1.826 -0.5707  2.7610  0.8493
  666MOL0     H87905  10.025   7.887   1.680 -0.1894 -2.0791  3.5043
  666MOL0     H87906  10.072   8.189   1.717 -1.3848  0.1014  0.1278
  666MOL0     H87907   9.994   8.136   1.572  2.7540  0.5604 -0.9183
  666MOL0     H87908  10.261   8.048   1.691 -4.4395 -2.1928  2.2284
  666MOL0     H87909  10.199   7.998   1.532  1.6507 -1.4345  0.6053
  666MOL0     H87910  10.313   8.403   1.478 -3.2883  1.4329  0.0875
  666MOL0     H87911   9.595   8.032   1.765 -1.9626  1.0609 -0.4349
  666MOL0     H87912   9.363   8.007   1.721  0.9684  3.1431 -2.0581
  667MOL0     O87913  10.352   3.579   8.640  0.7494 -0.7839 -0.7446
  667MOL0     C87914  10.396   3.515   8.544  0.5002  0.6979  0.1810
  667MOL0     O87915  10.331   3.425   8.462  0.3859 -0.3874  0.3385
  667MOL0     C87916  10.194   3.428   8.461  0.0353 -0.0108 -0.0204
  667MOL0     C87917  10.139   3.424   8.338 -0.3367  0.6368  0.3445
  667MOL0     C87918  10.000   3.402   8.320 -0.1024  0.0373  0.5359
  667MOL0     C87919   9.916   3.386   8.433  0.2546  0.2832 -0.7429
  667MOL0     O87920   9.779   3.390   8.436 -0.3978  0.6864  0.2451
  667MOL0     C87921   9.712   3.397   8.312  0.6343 -0.7529 -0.2625
  667MOL0     C87922   9.566   3.423   8.330  0.0867  0.3389 -0.3603
  667MOL0     C87923   9.489   3.389   8.198 -0.0213 -0.3443 -0.5825
  667MOL0     C87924   9.443   3.243   8.193 -0.1818 -0.7043  0.8873
  667MOL0     C87925   9.372   3.199   8.062 -0.5104 -0.1246 -0.0455
  667MOL0     C87926   9.468   3.171   7.940  0.6609  0.0111 -0.1450
  667MOL0     C87927   9.368   3.175   7.815 -0.3753 -0.1391 -1.1442
  667MOL0     C87928   9.438   3.137   7.686 -0.0678  0.6612 -0.2608
  667MOL0     N87929   9.349   3.119   7.573  0.4387 -0.2899 -0.1119
  667MOL0     C87930   9.349   3.007   7.496  0.1719  0.7533 -0.9381
  667MOL0     C87931   9.238   3.020   7.415  0.6129 -0.1888  0.0805
  667MOL0     C87932   9.174   2.915   7.318 -1.2956 -0.8884  0.2077
  667MOL0     C87933   9.100   2.803   7.396 -0.1756 -0.7340  0.3102
  667MOL0     C87934   9.022   2.719   7.308 -0.2906  0.2084  0.6736
  667MOL0     C87935   8.902   2.784   7.249 -0.8795 -0.0467  0.3130
  667MOL0     O87936   8.796   2.773   7.346 -0.0818  0.1734 -0.3372
  667MOL0     C87937   8.688   2.861   7.337  0.8931 -0.6291 -0.1600
  667MOL0     C87938   8.600   2.863   7.447 -0.8904  0.3639  0.0022
  667MOL0     C87939   8.491   2.951   7.451 -0.6451 -0.5012 -0.5946
  667MOL0     C87940   8.470   3.052   7.351 -0.4597 -0.2807 -0.3393
  667MOL0     C87941   8.335   3.121   7.352  0.1527 -0.6699  0.6451
  667MOL0     O87942   8.252   3.123   7.457  0.6139  0.9533 -0.6531
  667MOL0     C87943   8.119   3.142   7.417 -0.0601  0.2755 -0.5451
  667MOL0     C87944   8.038   3.042   7.361 -0.8563  0.1349 -0.8436
  667MOL0     C87945   7.924   3.072   7.289  0.8557 -0.3141 -0.3815
  667MOL0     C87946   7.880   3.197   7.281  0.6703 -0.6069 -0.7691
  667MOL0     O87947   7.764   3.218   7.212 -0.7051 -0.1392 -0.2940
  667MOL0     C87948   7.682   3.339   7.224 -0.7438  0.5933 -0.1634
  667MOL0     C87949   7.625   3.351   7.363 -0.1617 -0.2100  0.1269
  667MOL0     C87950   7.517   3.458   7.379 -0.4503  0.4967 -0.6655
  667MOL0     C87951   7.439   3.430   7.510  0.6062  0.5456 -1.1437
  667MOL0     C87952   7.322   3.518   7.531  0.5158 -0.2031  0.4261
  667MOL0     C87953   7.210   3.473   7.631 -0.2044  0.2196  0.4577
  667MOL0     C87954   7.100   3.579   7.644 -0.6132 -0.9056 -0.3135
  667MOL0     C87955   6.962   3.519   7.615  0.3191  0.1598 -0.1594
  667MOL0    Cl87956   6.902   3.405   7.746 -0.0573  0.0049  0.3342
  667MOL0     C87957   7.958   3.303   7.337  0.4696 -0.0206  0.6153
  667MOL0     C87958   8.074   3.272   7.409  0.3283 -0.2564  0.1351
  667MOL0     O87959   8.323   3.175   7.244  0.1680  0.0401 -0.7055
  667MOL0     C87960   8.568   3.051   7.251  0.6233 -0.1285 -0.1110
  667MOL0     C87961   8.675   2.960   7.236  0.2560  0.0335 -0.2218
  667MOL0     N87962   9.189   3.146   7.442 -0.9542  0.7581 -0.7077
  667MOL0     N87963   9.254   3.205   7.531 -0.2900  0.5607 -0.4721
  667MOL0     C87964   9.975   3.388   8.563  0.2970  0.7595 -0.2153
  667MOL0     C87965  10.117   3.404   8.578  0.1004  0.4090 -0.2951
  667MOL0     C87966  10.535   3.545   8.494 -0.2039 -0.9173 -0.2760
  667MOL0     C87967  10.607   3.469   8.400 -0.2286  0.6084 -0.9274
  667MOL0     C87968  10.735   3.506   8.358  0.4567  0.2589  0.5290
  667MOL0     C87969  10.789   3.628   8.389 -0.4348 -0.9940 -0.3406
  667MOL0     O87970  10.914   3.645   8.335  0.2519 -0.5174 -0.2441
  667MOL0     C87971  10.993   3.762   8.384  0.1117  0.7394 -0.3048
  667MOL0     C87972  11.123   3.777   8.294  0.4540 -0.1327 -0.9249
  667MOL0     C87973  11.186   3.908   8.342 -0.0610  0.2280  0.6119
  667MOL0     C87974  11.311   3.940   8.266  0.1913  0.1615  0.1727
  667MOL0     C87975  11.345   4.080   8.283 -0.4986 -0.4388  0.0230
  667MOL0     C87976  11.373   4.199   8.293 -0.6107  0.2534 -0.8379
  667MOL0     C87977  10.724   3.706   8.486 -0.4427  0.7715  0.2885
  667MOL0     C87978  10.596   3.669   8.536 -0.4142 -0.5630 -1.0881
  667MOL0     H87979  10.212   3.463   8.267  0.1121  0.7425  0.8567
  667MOL0     H87980   9.953   3.398   8.222 -0.9716  1.2568  0.8763
  667MOL0     H87981   9.735   3.316   8.241  0.3866  0.0112 -1.2444
  667MOL0     H87982   9.748   3.486   8.260  0.3950  0.7923  2.1039
  667MOL0     H87983   9.551   3.527   8.360  0.6593  0.0283  1.0831
  667MOL0     H87984   9.523   3.367   8.413  0.7682  1.1584  0.5765
  667MOL0     H87985   9.545   3.415   8.107  1.4852  1.3901  0.7606
  667MOL0     H87986   9.398   3.448   8.198 -1.3694 -2.2851  0.8732
  667MOL0     H87987   9.526   3.177   8.218  1.1403  1.1838  1.7015
  667MOL0     H87988   9.363   3.231   8.267 -1.2541 -0.6966 -0.2163
  667MOL0     H87989   9.316   3.288   8.032  1.4535  0.8105 -1.1369
  667MOL0     H87990   9.304   3.116   8.080 -0.8087 -0.1412 -1.1946
  667MOL0     H87991   9.504   3.069   7.952  0.3461 -0.1969 -0.9468
  667MOL0     H87992   9.546   3.247   7.925 -1.2182  2.2438  0.7559
  667MOL0     H87993   9.279   3.118   7.845 -0.3899  0.8717  0.9890
  667MOL0     H87994   9.327   3.276   7.806  0.3971  0.1438 -1.5833
  667MOL0     H87995   9.495   3.045   7.705  0.1123  0.4780 -1.6101
  667MOL0     H87996   9.500   3.225   7.673 -1.7421  2.2940  1.8815
  667MOL0     H87997   9.403   2.916   7.523  1.0478  1.3303 -0.7061
  667MOL0     H87998   9.251   2.872   7.255 -0.9654 -0.1757  0.1146
  667MOL0     H87999   9.110   2.972   7.249  1.1714 -1.0693 -2.3775
  667MOL0     H88000   9.028   2.836   7.470  0.4199 -0.9321  0.9875
  667MOL0     H88001   9.165   2.743   7.461  0.7706  1.0218  1.0592
  667MOL0     H88002   9.083   2.689   7.222 -1.0391  3.1534 -1.0391
  667MOL0     H88003   8.991   2.636   7.372  0.0187 -2.1922 -2.0629
  667MOL0     H88004   8.877   2.727   7.159 -4.4948 -0.4571  1.3987
  667MOL0     H88005   8.929   2.888   7.231 -0.3766 -0.4331 -1.3117
  667MOL0     H88006   8.605   2.788   7.525 -1.0458  2.2525  1.9139
  667MOL0     H88007   8.411   2.931   7.521  0.5429 -0.3683  0.8581
  667MOL0     H88008   8.069   2.939   7.371  1.0324  0.7393  0.0946
  667MOL0     H88009   7.866   2.991   7.247  0.3103  1.2056 -2.6775
  667MOL0     H88010   7.607   3.337   7.145 -1.8206  0.5454  0.8378
  667MOL0     H88011   7.746   3.419   7.186 -0.7387  0.5643 -0.2168
  667MOL0     H88012   7.700   3.372   7.440 -1.5568 -2.0286  2.0827
  667MOL0     H88013   7.571   3.257   7.376  0.2014 -0.5632 -0.7990
  667MOL0     H88014   7.445   3.466   7.297 -3.0376 -0.0870  1.4018
  667MOL0     H88015   7.554   3.560   7.395 -1.5719  0.8099  0.0990
  667MOL0     H88016   7.392   3.331   7.508  0.3961  0.5714  0.7070
  667MOL0     H88017   7.505   3.439   7.596 -2.6358 -2.5648  1.9912
  667MOL0     H88018   7.269   3.541   7.438  1.6878 -1.0279 -0.4750
  667MOL0     H88019   7.369   3.611   7.564 -0.9961  0.9725 -0.5757
  667MOL0     H88020   7.252   3.439   7.726 -1.0657 -0.5031  0.5882
  667MOL0     H88021   7.167   3.381   7.592 -1.6477  0.0496  2.2918
  667MOL0     H88022   7.100   3.627   7.742 -0.2134 -0.1248 -0.6890
  667MOL0     H88023   7.118   3.666   7.580 -3.8059 -0.2090 -0.4122
  667MOL0     H88024   6.957   3.469   7.518 -1.1820 -0.1433  0.0509
  667MOL0     H88025   6.889   3.600   7.612  0.2192  0.0957  0.4890
  667MOL0     H88026   7.928   3.407   7.336  0.6619  0.1531  3.5437
  667MOL0     H88027   8.136   3.351   7.449 -0.4084 -0.0818  0.9671
  667MOL0     H88028   8.572   3.126   7.172  2.4455  0.7619  0.7617
  667MOL0     H88029   8.739   2.984   7.152  1.0825 -1.1817  0.0302
  667MOL0     H88030   9.919   3.384   8.655 -2.5425 -4.1242 -1.8035
  667MOL0     H88031  10.153   3.386   8.679  0.6464 -1.2672 -0.7657
  667MOL0     H88032  10.566   3.381   8.351 -1.9169  1.0790 -0.4161
  667MOL0     H88033  10.804   3.437   8.311 -0.5612 -2.7469  3.0942
  667MOL0     H88034  11.022   3.761   8.489 -1.3668  2.8112  0.1859
  667MOL0     H88035  10.927   3.849   8.373 -0.1786  0.3451 -2.0257
  667MOL0     H88036  11.175   3.682   8.312 -0.9436 -0.5548  1.3318
  667MOL0     H88037  11.083   3.787   8.193 -5.3797  2.5488  1.2258
  667MOL0     H88038  11.213   3.912   8.448  2.4510  0.0795  0.0373
  667MOL0     H88039  11.112   3.985   8.321  1.0570  1.9225  2.5145
  667MOL0     H88040  11.391   3.878   8.308  1.0149  1.1565  0.1250
  667MOL0     H88041  11.309   3.921   8.158  1.3546  0.9930 -0.0192
  667MOL0     H88042  11.399   4.302   8.302  0.7376 -0.1537  0.1957
  667MOL0     H88043  10.771   3.798   8.519 -3.4086  2.6933 -0.4013
  667MOL0     H88044  10.556   3.740   8.609 -1.8794 -1.6132 -0.8266
  668MOL0     O88045   4.871   2.503   9.407 -0.6565  0.0273 -0.0294
  668MOL0     C88046   4.932   2.589   9.472 -0.3682  0.1054  0.3631
  668MOL0     O88047   4.877   2.688   9.547  0.1895  0.0225 -0.5591
  668MOL0     C88048   4.746   2.705   9.552  0.2494  0.2240  0.2831
  668MOL0     C88049   4.685   2.800   9.472 -0.7753  0.5559  0.5908
  668MOL0     C88050   4.546   2.817   9.478  0.0860  0.0876 -0.4614
  668MOL0     C88051   4.470   2.743   9.574 -0.1981  0.5407  0.3679
  668MOL0     O88052   4.329   2.761   9.592  0.2695 -0.4670  0.7580
  668MOL0     C88053   4.256   2.757   9.469 -0.0410 -0.2678 -0.3111
  668MOL0     C88054   4.104   2.794   9.491  0.0735  0.1965 -0.1641
  668MOL0     C88055   4.042   2.687   9.575  0.7491 -0.2953 -0.4307
  668MOL0     C88056   3.895   2.711   9.604 -0.3805  0.5780  0.3808
  668MOL0     C88057   3.837   2.599   9.685 -0.2989 -0.2616  0.6868
  668MOL0     C88058   3.685   2.612   9.710 -0.9635  0.3148 -0.3390
  668MOL0     C88059   3.592   2.576   9.591  0.0824 -0.2388 -0.1808
  668MOL0     C88060   3.447   2.588   9.627  0.7925 -0.0709 -0.1255
  668MOL0     N88061   3.390   2.470   9.696 -0.5338  0.2246  1.1505
  668MOL0     C88062   3.350   2.479   9.828  0.3312 -0.1409  0.3308
  668MOL0     C88063   3.318   2.349   9.859  0.0369 -0.3420  0.2506
  668MOL0     C88064   3.280   2.288   9.989 -0.0528  0.2784  0.6000
  668MOL0     C88065   3.142   2.322  10.028  0.0844  0.3786 -0.1888
  668MOL0     C88066   3.091   2.236  10.143 -0.0493  0.2337 -0.3035
  668MOL0     C88067   2.941   2.246  10.151 -0.3030 -0.1564 -0.4835
  668MOL0     O88068   2.884   2.121  10.102 -0.3618  0.0124  0.1892
  668MOL0     C88069   2.748   2.113  10.112  0.3025 -0.6198 -0.0239
  668MOL0     C88070   2.682   2.080  10.229  0.0334  0.8128 -0.3458
  668MOL0     C88071   2.542   2.067  10.241  0.3892 -0.2576 -0.3475
  668MOL0     C88072   2.462   2.094  10.125 -0.8789  0.0114  0.5096
  668MOL0     C88073   2.312   2.106  10.131  0.0669 -0.3621 -0.2571
  668MOL0     O88074   2.244   2.166  10.030 -0.1165  0.5159  0.3693
  668MOL0     C88075   2.111   2.141  10.019 -0.2341  0.5372 -0.2787
  668MOL0     C88076   2.058   2.062   9.912 -0.5690 -0.0811 -0.7558
  668MOL0     C88077   1.917   2.053   9.888 -0.5487 -0.1035 -0.3326
  668MOL0     C88078   1.830   2.116   9.974  0.1437 -0.1180 -0.1711
  668MOL0     O88079   1.695   2.112   9.962 -0.3397  1.2680 -0.8376
  668MOL0     C88080   1.648   2.034   9.852 -0.2582 -0.2750  1.2383
  668MOL0     C88081   1.495   2.027   9.868 -0.0573 -0.2629  0.3208
  668MOL0     C88082   1.419   2.163   9.824 -0.2639  0.6161  0.2975
  668MOL0     C88083   1.280   2.170   9.892  0.0615 -0.1641  0.1826
  668MOL0     C88084   1.181   2.068   9.846 -0.3312 -0.8413  0.6307
  668MOL0     C88085   1.039   2.072   9.911 -1.0719  0.2111  0.2837
  668MOL0     C88086   0.977   1.951   9.844 -0.5061 -0.1192 -0.2028
  668MOL0     C88087   0.837   1.938   9.904 -0.5718  0.0854  0.5596
  668MOL0    Cl88088   0.761   1.784   9.844  0.0827  0.3140  0.0577
  668MOL0     C88089   1.880   2.197  10.077  0.1000  0.6489  0.1702
  668MOL0     C88090   2.021   2.206  10.104 -0.1056 -0.2840  0.1018
  668MOL0     O88091   2.263   2.049  10.226  0.1477 -0.1448 -0.0759
  668MOL0     C88092   2.525   2.126  10.001 -0.2329  0.8765 -0.1613
  668MOL0     C88093   2.670   2.137   9.999  0.1129  0.3076 -0.0111
  668MOL0     N88094   3.346   2.269   9.749 -0.4738 -0.6888  0.3361
  668MOL0     N88095   3.395   2.333   9.652  0.1650  0.0967  0.3455
  668MOL0     C88096   4.532   2.644   9.650 -0.3381  0.1312  0.1267
  668MOL0     C88097   4.671   2.619   9.638  0.3147  0.3020  0.4270
  668MOL0     C88098   5.079   2.591   9.441 -0.7336 -0.2430  0.0527
  668MOL0     C88099   5.154   2.493   9.369  0.3895  0.7775 -0.2030
  668MOL0     C88100   5.290   2.506   9.333  0.6890 -0.2745 -0.4684
  668MOL0     C88101   5.359   2.620   9.381  0.8301  0.3681  1.0186
  668MOL0     O88102   5.483   2.628   9.333 -0.5835  0.2192 -0.3703
  668MOL0     C88103   5.544   2.755   9.335 -0.0229 -0.5192  0.1366
  668MOL0     C88104   5.673   2.750   9.256  0.3699 -1.0766 -0.3270
  668MOL0     C88105   5.783   2.670   9.322  0.4281 -0.5909 -0.0342
  668MOL0     C88106   5.903   2.659   9.232  0.2933 -0.4971  0.1424
  668MOL0     C88107   5.986   2.779   9.229  0.1593 -0.3805 -0.4827
  668MOL0     C88108   6.052   2.879   9.230  0.3274  0.0885 -1.0291
  668MOL0     C88109   5.290   2.712   9.460  0.0711  0.8847 -0.0660
  668MOL0     C88110   5.152   2.702   9.474 -0.4778 -0.1301  0.5553
  668MOL0     H88111   4.731   2.878   9.412  0.5648 -1.2318 -0.8092
  668MOL0     H88112   4.502   2.886   9.406 -0.3591 -1.3595 -1.6385
  668MOL0     H88113   4.260   2.657   9.424  5.3558  0.3254 -1.8754
  668MOL0     H88114   4.299   2.830   9.400  3.4958 -2.4573 -0.6916
  668MOL0     H88115   4.063   2.802   9.390  0.8007  2.4423 -0.3352
  668MOL0     H88116   4.091   2.894   9.533 -1.3357  0.2140 -0.5954
  668MOL0     H88117   4.079   2.695   9.677 -0.7863 -1.1123  0.2193
  668MOL0     H88118   4.052   2.583   9.544  0.1461 -1.2024  2.2490
  668MOL0     H88119   3.876   2.803   9.660  1.6440  0.6452  1.0450
  668MOL0     H88120   3.835   2.712   9.512 -0.9434 -1.4058  0.6730
  668MOL0     H88121   3.886   2.591   9.783  1.0056 -2.4256 -0.0788
  668MOL0     H88122   3.850   2.499   9.643  0.8266 -0.4818  1.5190
  668MOL0     H88123   3.673   2.714   9.748  1.9255  0.4715  0.3681
  668MOL0     H88124   3.665   2.539   9.788 -2.3218 -1.5365 -2.3238
  668MOL0     H88125   3.604   2.647   9.508 -2.9103 -1.0044 -1.4272
  668MOL0     H88126   3.614   2.480   9.543  0.2768 -0.9044  1.2104
  668MOL0     H88127   3.383   2.603   9.540  2.7968  0.2515 -1.6098
  668MOL0     H88128   3.428   2.675   9.691  1.8401 -0.4340  0.7139
  668MOL0     H88129   3.364   2.568   9.888 -0.5282  0.2326 -0.0027
  668MOL0     H88130   3.346   2.338  10.060 -2.6510  3.1911  1.1469
  668MOL0     H88131   3.297   2.180   9.984 -2.1406 -0.0363 -0.7413
  668MOL0     H88132   3.076   2.304   9.942 -0.1859  2.1257 -0.3908
  668MOL0     H88133   3.141   2.430  10.049  3.2584  0.0914  2.0496
  668MOL0     H88134   3.128   2.133  10.139  0.9443  0.5501  0.2661
  668MOL0     H88135   3.129   2.274  10.238 -2.5571 -2.1753  1.8059
  668MOL0     H88136   2.897   2.334  10.105  2.4668  1.0945 -0.9531
  668MOL0     H88137   2.911   2.252  10.256 -3.4742 -0.9315 -1.2402
  668MOL0     H88138   2.750   2.067  10.313 -0.2512  0.9129 -0.0980
  668MOL0     H88139   2.493   2.069  10.337 -1.3966 -0.5422 -1.2127
  668MOL0     H88140   2.121   2.005   9.845  1.5391  0.6656  0.4984
  668MOL0     H88141   1.887   1.993   9.803 -2.6862  3.5430 -2.4247
  668MOL0     H88142   1.682   1.931   9.863  2.1577  0.1378 -1.3596
  668MOL0     H88143   1.669   2.074   9.752 -3.1393 -2.4663 -0.4139
  668MOL0     H88144   1.460   2.009   9.970 -1.4408  2.4936  0.4018
  668MOL0     H88145   1.462   1.934   9.821 -1.0539 -1.3833  3.0370
  668MOL0     H88146   1.400   2.183   9.718 -4.8102  2.9306  1.3117
  668MOL0     H88147   1.474   2.244   9.871  0.9567 -0.0224  0.0131
  668MOL0     H88148   1.295   2.164  10.000 -2.0418  0.9830  0.6078
  668MOL0     H88149   1.251   2.274   9.871  3.5616  0.6003 -1.6806
  668MOL0     H88150   1.220   1.967   9.862 -1.1557 -2.1626 -4.0706
  668MOL0     H88151   1.184   2.076   9.737 -2.0272 -1.4815  0.5025
  668MOL0     H88152   0.979   2.159   9.881 -2.7858 -0.8987  0.3787
  668MOL0     H88153   1.035   2.073  10.020 -0.9855  1.9946  0.2984
  668MOL0     H88154   0.958   1.975   9.739  1.0606 -2.3745 -1.0750
  668MOL0     H88155   1.043   1.865   9.855  1.0093  0.7110 -2.1709
  668MOL0     H88156   0.767   2.019   9.879 -0.5517 -0.9789 -3.5392
  668MOL0     H88157   0.850   1.925  10.012  0.7997  0.4822  0.4673
  668MOL0     H88158   1.807   2.252  10.137 -0.4161  2.1708 -1.7636
  668MOL0     H88159   2.064   2.258  10.189  0.8438 -0.5185 -0.2225
  668MOL0     H88160   2.470   2.160   9.914  1.3301  1.6866 -0.8736
  668MOL0     H88161   2.727   2.157   9.909 -3.1249  0.6480 -2.1782
  668MOL0     H88162   4.473   2.583   9.718  0.0798 -0.8726 -0.3998
  668MOL0     H88163   4.709   2.547   9.710 -4.6680 -4.3720 -0.9607
  668MOL0     H88164   5.100   2.405   9.336 -1.3745  1.4394  0.7919
  668MOL0     H88165   5.342   2.429   9.276 -0.6866 -2.0299  0.5290
  668MOL0     H88166   5.579   2.776   9.436  1.5028 -1.7145 -0.1088
  668MOL0     H88167   5.484   2.843   9.311  1.7396  0.5275 -0.6192
  668MOL0     H88168   5.654   2.709   9.156 -1.2851 -1.6538  0.1870
  668MOL0     H88169   5.714   2.851   9.251 -4.3330  1.4439  3.3867
  668MOL0     H88170   5.749   2.570   9.350 -0.0217  0.3982  3.4515
  668MOL0     H88171   5.820   2.716   9.414  1.6995  0.7067 -1.1382
  668MOL0     H88172   5.954   2.577   9.284  0.8068 -0.5965 -0.5007
  668MOL0     H88173   5.889   2.627   9.128 -1.3309  0.0414  0.1817
  668MOL0     H88174   6.110   2.969   9.239  1.7589 -0.9551  1.1786
  668MOL0     H88175   5.336   2.801   9.499  1.8690  0.5188 -1.2459
  668MOL0     H88176   5.123   2.783   9.541  2.3137  1.4113  0.0864
  669MOL0     O88177   4.304   9.029   5.496 -0.2587 -0.3747  0.2724
  669MOL0     C88178   4.197   9.075   5.440  0.3576 -0.6787  0.1588
  669MOL0     O88179   4.083   9.124   5.503  0.4807  0.5076  0.1564
  669MOL0     C88180   4.086   9.167   5.628 -0.1724  0.5450  0.1011
  669MOL0     C88181   3.968   9.151   5.703  0.2960  0.4821  0.2607
  669MOL0     C88182   3.970   9.189   5.841  0.0953 -0.2676  0.3079
  669MOL0     C88183   4.082   9.248   5.908 -0.2635 -0.3386 -0.4256
  669MOL0     O88184   4.088   9.280   6.038 -0.2408 -0.3739 -0.0884
  669MOL0     C88185   4.208   9.254   6.118 -0.4648  0.3293  1.4797
  669MOL0     C88186   4.191   9.283   6.270 -0.1139  0.4092 -0.6811
  669MOL0     C88187   4.121   9.412   6.289 -0.5108  0.6357 -0.3717
  669MOL0     C88188   4.106   9.449   6.440  0.2547  0.1311  0.2582
  669MOL0     C88189   4.021   9.576   6.444  0.7367  0.6117 -0.2720
  669MOL0     C88190   4.082   9.693   6.378  0.6215 -0.4816 -0.1388
  669MOL0     C88191   3.993   9.824   6.360  0.1610 -0.4723  0.1278
  669MOL0     C88192   3.881   9.813   6.263 -0.7443 -0.3873  0.0568
  669MOL0     N88193   3.941   9.822   6.129  0.0163 -0.1477  0.3859
  669MOL0     C88194   3.950   9.708   6.051 -0.5194  0.7133 -0.4024
  669MOL0     C88195   3.970   9.761   5.923  0.3375  0.9184 -0.7164
  669MOL0     C88196   3.999   9.672   5.804  0.2346 -0.4467  0.7747
  669MOL0     C88197   3.882   9.580   5.774 -0.4281  0.2127 -1.1198
  669MOL0     C88198   3.750   9.663   5.777  0.6615 -0.0248 -0.7322
  669MOL0     C88199   3.642   9.587   5.709  0.5716  0.0080  0.2556
  669MOL0     O88200   3.513   9.627   5.756  0.2546 -0.7872  0.3356
  669MOL0     C88201   3.397   9.563   5.721  0.1438  0.4372 -0.1633
  669MOL0     C88202   3.391   9.435   5.668 -0.6976 -0.5629 -1.0847
  669MOL0     C88203   3.271   9.386   5.623 -0.1518  0.3259  0.3421
  669MOL0     C88204   3.149   9.459   5.629 -0.2452 -0.5263  0.2090
  669MOL0     C88205   3.025   9.418   5.568 -0.6006 -0.2808  0.6153
  669MOL0     O88206   2.916   9.494   5.586 -0.4188 -0.3970 -0.5036
  669MOL0     C88207   2.801   9.459   5.526 -0.2617  0.0733  0.4669
  669MOL0     C88208   2.778   9.411   5.396 -0.0477 -0.4055  0.1036
  669MOL0     C88209   2.650   9.362   5.367 -0.2014  0.4508  0.3200
  669MOL0     C88210   2.544   9.356   5.449 -0.0834 -0.5243  0.5624
  669MOL0     O88211   2.431   9.291   5.397 -0.1772  0.3805 -0.0257
  669MOL0     C88212   2.303   9.311   5.473  0.4953 -0.0400  0.6981
  669MOL0     C88213   2.194   9.255   5.381  0.1131  0.0280  0.8150
  669MOL0     C88214   2.069   9.235   5.468 -0.3217 -0.2861 -0.5852
  669MOL0     C88215   1.957   9.164   5.394  0.9659 -0.0215 -0.9391
  669MOL0     C88216   1.831   9.133   5.474  0.3659 -0.2619  0.4592
  669MOL0     C88217   1.727   9.061   5.389  0.8817 -0.0824  0.7176
  669MOL0     C88218   1.588   9.082   5.452 -0.7134 -0.1107  0.6400
  669MOL0     C88219   1.564   9.004   5.579  0.2296 -0.7927 -0.3433
  669MOL0    Cl88220   1.533   8.828   5.554 -0.4033 -0.5059 -0.2883
  669MOL0     C88221   2.570   9.410   5.575 -0.3539 -0.0168 -0.1308
  669MOL0     C88222   2.691   9.469   5.613 -0.5141 -0.9170 -0.4356
  669MOL0     O88223   3.024   9.307   5.516 -0.2609  0.1722  0.3692
  669MOL0     C88224   3.151   9.585   5.694 -0.8065  1.0508 -0.1548
  669MOL0     C88225   3.274   9.632   5.730 -0.5793 -0.6695 -0.0553
  669MOL0     N88226   3.972   9.898   5.927  0.7310  0.2872 -0.7108
  669MOL0     N88227   3.963   9.929   6.054 -0.2254 -1.1575 -0.7424
  669MOL0     C88228   4.194   9.271   5.822  1.3091 -0.2359 -0.1225
  669MOL0     C88229   4.196   9.237   5.684 -0.2377 -0.1911 -0.0087
  669MOL0     C88230   4.189   9.046   5.296 -0.2271  0.1553 -0.2461
  669MOL0     C88231   4.304   9.045   5.220  0.0200  0.1995  1.0280
  669MOL0     C88232   4.299   8.997   5.087  0.1096  0.3209  1.3005
  669MOL0     C88233   4.184   8.950   5.022 -0.1581 -0.1702 -0.0160
  669MOL0     O88234   4.182   8.903   4.899  0.2063  0.0100  0.8491
  669MOL0     C88235   4.068   8.931   4.808  0.0669 -0.0759  0.1556
  669MOL0     C88236   4.135   8.925   4.672  0.8352 -0.1232  0.8218
  669MOL0     C88237   4.223   9.054   4.668 -0.2826 -0.6738 -0.9699
  669MOL0     C88238   4.278   9.076   4.526  0.5058  0.9293 -0.0544
  669MOL0     C88239   4.354   9.203   4.524 -0.6908  0.4801 -0.2799
  669MOL0     C88240   4.413   9.309   4.521  1.1540 -0.9314  0.2572
  669MOL0     C88241   4.066   8.971   5.094 -0.7968  0.9278  0.1393
  669MOL0     C88242   4.063   9.010   5.229  0.2402  0.8955 -0.4563
  669MOL0     H88243   3.880   9.099   5.667  0.2035  2.0314 -2.0010
  669MOL0     H88244   3.879   9.168   5.896 -2.7168  1.9834 -3.0790
  669MOL0     H88245   4.292   9.320   6.093  0.5296  0.1765  4.1400
  669MOL0     H88246   4.248   9.154   6.099 -0.3649 -0.3219  4.6414
  669MOL0     H88247   4.284   9.292   6.328 -0.6230  1.1832  0.0319
  669MOL0     H88248   4.140   9.198   6.317 -1.2688  0.4973 -1.7245
  669MOL0     H88249   4.026   9.420   6.236 -0.1173 -1.0571 -1.4111
  669MOL0     H88250   4.195   9.481   6.247  0.6640  0.8335  1.8631
  669MOL0     H88251   4.058   9.369   6.496 -0.6771  2.1420  2.5330
  669MOL0     H88252   4.207   9.472   6.475  0.7537 -0.9721 -0.4132
  669MOL0     H88253   3.993   9.611   6.543  0.9798  4.0927 -1.3022
  669MOL0     H88254   3.930   9.560   6.385  0.1261 -0.3303  0.8946
  669MOL0     H88255   4.107   9.665   6.275  2.2332  0.1728  0.0419
  669MOL0     H88256   4.173   9.723   6.431  0.7658 -2.9189  1.1131
  669MOL0     H88257   3.948   9.837   6.458 -0.3290 -4.7386  0.6533
  669MOL0     H88258   4.058   9.912   6.350  1.6534 -1.1891  2.6783
  669MOL0     H88259   3.820   9.904   6.271  0.3884  0.7064 -2.6615
  669MOL0     H88260   3.818   9.726   6.284  1.1178 -1.3488  2.0245
  669MOL0     H88261   3.931   9.612   6.098 -2.1130  1.5629  0.7810
  669MOL0     H88262   4.084   9.603   5.816 -0.3488 -1.6494 -1.3737
  669MOL0     H88263   4.022   9.744   5.724 -1.9805  0.4360  0.8818
  669MOL0     H88264   3.890   9.495   5.842  3.1591  2.0483  1.0757
  669MOL0     H88265   3.895   9.536   5.675  1.9973  1.0534 -1.2378
  669MOL0     H88266   3.732   9.683   5.883  0.0783 -2.0250 -0.4111
  669MOL0     H88267   3.764   9.757   5.722  0.5585 -0.6445 -1.8585
  669MOL0     H88268   3.658   9.481   5.733  1.5773  0.4754  1.8211
  669MOL0     H88269   3.649   9.599   5.601  3.9361 -1.0448  0.2294
  669MOL0     H88270   3.480   9.372   5.673 -0.0696  0.3661  0.1670
  669MOL0     H88271   3.265   9.289   5.575 -1.0858  0.7706 -0.4745
  669MOL0     H88272   2.858   9.406   5.323 -2.4832 -2.3792 -2.6723
  669MOL0     H88273   2.643   9.312   5.271 -0.0571 -1.1663  1.1137
  669MOL0     H88274   2.277   9.415   5.490 -0.2666 -0.4154  1.9735
  669MOL0     H88275   2.309   9.269   5.574 -1.0687 -1.5744  0.1996
  669MOL0     H88276   2.220   9.157   5.341 -3.7197 -0.6885 -0.3453
  669MOL0     H88277   2.180   9.318   5.292 -3.2397 -1.1576  0.3721
  669MOL0     H88278   2.024   9.324   5.514  0.4541 -0.5609  0.7376
  669MOL0     H88279   2.090   9.176   5.558 -0.0621  1.8773  0.8472
  669MOL0     H88280   1.926   9.235   5.316 -0.0379 -0.8814 -1.3474
  669MOL0     H88281   2.001   9.077   5.345  1.2688  0.5588 -1.7239
  669MOL0     H88282   1.808   9.231   5.516  1.1954  1.0600 -2.0115
  669MOL0     H88283   1.848   9.067   5.560  0.8792  2.1818  2.3562
  669MOL0     H88284   1.751   8.954   5.391 -0.1173 -0.3147  0.7987
  669MOL0     H88285   1.723   9.095   5.285 -1.2078 -2.9474 -0.2706
  669MOL0     H88286   1.569   9.186   5.481 -0.2047 -0.3790  2.0288
  669MOL0     H88287   1.513   9.045   5.382 -0.3061  0.0647  0.1018
  669MOL0     H88288   1.469   9.044   5.616  1.4056  0.8537  1.0457
  669MOL0     H88289   1.637   9.032   5.656 -1.7881 -0.9128  1.7245
  669MOL0     H88290   2.507   9.420   5.663  1.1295 -0.2918  1.0042
  669MOL0     H88291   2.707   9.500   5.715 -1.5993 -1.2753 -0.1455
  669MOL0     H88292   3.058   9.639   5.707 -2.0131 -0.5971 -1.4093
  669MOL0     H88293   3.270   9.727   5.782 -0.9295 -1.2748  1.0681
  669MOL0     H88294   4.279   9.320   5.868 -0.3495  2.1102  0.6348
  669MOL0     H88295   4.293   9.249   5.636 -0.2671  3.3829  0.5098
  669MOL0     H88296   4.397   9.070   5.270 -0.1171  0.6964  1.0335
  669MOL0     H88297   4.390   8.989   5.029 -0.4831 -2.0170  0.5875
  669MOL0     H88298   4.020   9.027   4.827  0.7083  0.7101 -1.9198
  669MOL0     H88299   3.996   8.849   4.806  0.7808 -0.7159 -0.9658
  669MOL0     H88300   4.193   8.832   4.664  0.1840 -0.3669 -1.6582
  669MOL0     H88301   4.056   8.933   4.598  0.7721 -2.3028  0.5721
  669MOL0     H88302   4.311   9.059   4.733  0.1110  2.8343 -1.5732
  669MOL0     H88303   4.168   9.144   4.696  2.2949  1.2384 -1.6430
  669MOL0     H88304   4.330   8.986   4.492 -2.4647 -0.4842 -1.1630
  669MOL0     H88305   4.196   9.094   4.456  1.5500 -3.2575 -2.7171
  669MOL0     H88306   4.469   9.399   4.506 -0.7473 -0.1434 -3.2594
  669MOL0     H88307   3.970   8.941   5.054 -0.2657  0.5743 -0.9087
  669MOL0     H88308   3.974   9.029   5.288  0.5253  1.8908 -0.3347
  670MOL0     O88309   2.745   9.622   5.034 -0.2298 -0.0655 -0.4624
  670MOL0     C88310   2.762   9.504   5.038 -0.5126 -0.5350  0.3002
  670MOL0     O88311   2.667   9.415   5.017 -0.5593  0.4864 -0.1814
  670MOL0     C88312   2.536   9.452   4.980 -0.9971 -0.4578 -0.3049
  670MOL0     C88313   2.437   9.394   5.050  0.0951  0.2629 -0.1724
  670MOL0     C88314   2.299   9.407   5.020 -0.3077 -0.1568 -0.6322
  670MOL0     C88315   2.259   9.508   4.941  0.3363  0.1740 -1.0286
  670MOL0     O88316   2.126   9.534   4.928 -0.1431 -0.0022  0.5728
  670MOL0     C88317   2.076   9.621   4.826  0.3680  0.8024 -0.9870
  670MOL0     C88318   1.924   9.629   4.847 -0.9666  0.2011 -0.2252
  670MOL0     C88319   1.856   9.728   4.752  0.0345  0.2608 -0.6435
  670MOL0     C88320   1.905   9.866   4.747 -0.5370  0.4626 -0.0475
  670MOL0     C88321   1.893   9.931   4.877  0.1080  0.1166 -0.8553
  670MOL0     C88322   2.008  10.028   4.911  0.2515  0.6190 -0.7350
  670MOL0     C88323   2.022  10.154   4.810 -0.8642  0.1484 -0.4212
  670MOL0     C88324   2.102  10.268   4.883  0.3069  0.3006 -0.3361
  670MOL0     N88325   2.229  10.220   4.943 -0.2083 -0.0610  0.0438
  670MOL0     C88326   2.348  10.214   4.875  0.7879 -0.6254  0.2529
  670MOL0     C88327   2.429  10.131   4.947 -0.1329 -0.2649  0.0742
  670MOL0     C88328   2.555  10.079   4.909 -0.0445  0.3411 -0.0711
  670MOL0     C88329   2.665  10.090   5.028  0.4042 -0.8765 -0.5714
  670MOL0     C88330   2.773   9.986   5.018  0.7457 -0.4233 -0.5728
  670MOL0     C88331   2.912  10.025   5.066  0.9009  0.6010 -0.6388
  670MOL0     O88332   2.949  10.141   4.993 -0.1914  0.2116 -1.3438
  670MOL0     C88333   3.075  10.190   5.019 -0.3546 -0.5388 -0.4914
  670MOL0     C88334   3.179  10.124   5.083  1.3048  0.3134 -1.2533
  670MOL0     C88335   3.301  10.189   5.101  0.1520 -0.1386  0.1764
  670MOL0     C88336   3.321  10.321   5.049 -0.4228  0.7181 -0.1444
  670MOL0     C88337   3.459  10.382   5.061 -0.3697 -0.0553  0.2238
  670MOL0     O88338   3.551  10.327   5.148 -0.0064 -0.0812 -0.5430
  670MOL0     C88339   3.678  10.377   5.152 -0.0270 -1.2286  0.1433
  670MOL0     C88340   3.764  10.432   5.049  0.0225  1.1081  0.2813
  670MOL0     C88341   3.905  10.450   5.074 -0.0490  0.6142  0.0607
  670MOL0     C88342   3.952  10.438   5.204  0.0896 -0.8396 -0.2699
  670MOL0     O88343   4.080  10.461   5.243 -0.3599 -0.0456  0.3999
  670MOL0     C88344   4.178  10.401   5.153 -0.2437  0.1686  0.3447
  670MOL0     C88345   4.325  10.425   5.206 -0.2498 -0.4727  0.3563
  670MOL0     C88346   4.426  10.359   5.116 -0.0512  0.4064 -0.6614
  670MOL0     C88347   4.572  10.356   5.151 -0.0455 -0.7318  0.3576
  670MOL0     C88348   4.615  10.335   5.292 -0.6777 -0.2652  0.0964
  670MOL0     C88349   4.768  10.360   5.310 -0.5015  0.4842 -0.1994
  670MOL0     C88350   4.806  10.323   5.450  0.1818 -0.1050 -0.0707
  670MOL0     C88351   4.877  10.191   5.471 -0.1085 -0.8225  0.1897
  670MOL0    Cl88352   4.798  10.069   5.359 -0.4655  0.1878 -0.3210
  670MOL0     C88353   3.863  10.427   5.305  0.4541 -0.0325 -0.4665
  670MOL0     C88354   3.731  10.386   5.282 -0.5656  0.4738  0.0955
  670MOL0     O88355   3.481  10.483   4.998 -0.5032 -0.0772 -0.4262
  670MOL0     C88356   3.218  10.387   4.988  0.3736  0.7039 -0.0716
  670MOL0     C88357   3.095  10.325   4.971 -1.1221 -0.3900  0.0429
  670MOL0     N88358   2.367  10.095   5.064 -0.2736  0.1300 -0.5560
  670MOL0     N88359   2.242  10.147   5.057  0.5063  1.0427 -0.0028
  670MOL0     C88360   2.355   9.567   4.865 -1.3099  0.2038  0.8776
  670MOL0     C88361   2.496   9.550   4.887  0.3481 -0.3533  0.1494
  670MOL0     C88362   2.898   9.452   5.083  0.3656  0.7777 -1.2469
  670MOL0     C88363   2.918   9.318   5.062 -0.7490 -0.1179  0.0887
  670MOL0     C88364   3.031   9.248   5.119  0.8310 -0.4401 -0.0111
  670MOL0     C88365   3.132   9.328   5.183 -0.0947 -0.8080 -0.3966
  670MOL0     O88366   3.248   9.284   5.228  0.0357  0.1757  0.3295
  670MOL0     C88367   3.379   9.326   5.176  0.2770  0.6013  0.2477
  670MOL0     C88368   3.472   9.396   5.279 -0.0092  0.2514 -0.6564
  670MOL0     C88369   3.620   9.408   5.222  0.0162 -0.1639  0.5087
  670MOL0     C88370   3.710   9.285   5.238  0.4484  0.5699  0.5411
  670MOL0     C88371   3.727   9.211   5.110 -0.5926  0.2632  0.1387
  670MOL0     C88372   3.751   9.125   5.024 -0.3346 -0.3574 -0.1591
  670MOL0     C88373   3.107   9.464   5.196 -0.3253  0.3783 -0.7185
  670MOL0     C88374   2.994   9.533   5.157  0.5596 -0.8544 -0.4097
  670MOL0     H88375   2.476   9.315   5.114 -0.0791 -1.4674 -2.1334
  670MOL0     H88376   2.215   9.354   5.064 -0.7083  1.6304  0.9024
  670MOL0     H88377   2.097   9.584   4.725 -0.0060 -0.9813 -0.4545
  670MOL0     H88378   2.113   9.723   4.836  1.4383  0.3372  0.0997
  670MOL0     H88379   1.915   9.638   4.955 -0.8632 -0.5459 -0.1457
  670MOL0     H88380   1.899   9.527   4.816 -0.4386 -0.2473  0.7945
  670MOL0     H88381   1.754   9.727   4.792  0.0090  1.2653 -0.6796
  670MOL0     H88382   1.857   9.684   4.651  1.5531 -2.3454  0.3906
  670MOL0     H88383   2.012   9.857   4.727 -0.5862 -1.4128  0.3199
  670MOL0     H88384   1.851   9.926   4.673 -1.6173  0.0631  0.3868
  670MOL0     H88385   1.894   9.862   4.962 -0.6086  1.5547  0.3510
  670MOL0     H88386   1.798   9.985   4.872  1.2272  2.0880 -2.5027
  670MOL0     H88387   2.095   9.965   4.931 -0.1846 -0.8102 -2.9986
  670MOL0     H88388   1.975  10.074   5.005 -0.3507 -0.5092 -0.3639
  670MOL0     H88389   2.076  10.122   4.720 -3.9879  0.5748 -2.5895
  670MOL0     H88390   1.928  10.199   4.776 -0.3825  1.3403 -0.2473
  670MOL0     H88391   2.037  10.300   4.965 -1.3158  0.0895 -1.4871
  670MOL0     H88392   2.119  10.353   4.816 -0.2066  1.3650  0.8381
  670MOL0     H88393   2.374  10.243   4.774 -0.4833  0.2304  0.1611
  670MOL0     H88394   2.586  10.112   4.809 -0.8351 -0.1705 -0.5007
  670MOL0     H88395   2.545   9.970   4.907 -0.4111  0.3663 -2.1999
  670MOL0     H88396   2.625  10.092   5.130 -0.5906 -3.4001 -0.8367
  670MOL0     H88397   2.706  10.191   5.024 -0.6480 -0.2678  1.8945
  670MOL0     H88398   2.735   9.896   5.067 -2.0557  0.6870 -0.5315
  670MOL0     H88399   2.772   9.948   4.915 -1.3306 -2.3786  0.0753
  670MOL0     H88400   2.980   9.944   5.039  0.0764 -0.3932  0.1737
  670MOL0     H88401   2.914  10.025   5.176 -2.9594 -2.8462 -0.3048
  670MOL0     H88402   3.181  10.019   5.110  1.1715  1.1000  2.2879
  670MOL0     H88403   3.375  10.130   5.155 -1.4795 -1.8159  0.6950
  670MOL0     H88404   3.741  10.415   4.944 -1.1327 -0.5240  0.7486
  670MOL0     H88405   3.966  10.469   4.986  0.6238  2.3140  0.8360
  670MOL0     H88406   4.162  10.442   5.052 -2.1625 -0.8232  0.2000
  670MOL0     H88407   4.162  10.293   5.146  0.8576 -0.2304  2.8627
  670MOL0     H88408   4.320  10.390   5.310 -0.5190 -1.0615  0.1517
  670MOL0     H88409   4.349  10.531   5.208  0.8420 -0.6912 -0.5525
  670MOL0     H88410   4.418  10.426   5.030 -1.7823  2.6265  1.1180
  670MOL0     H88411   4.398  10.257   5.088  0.9073 -0.0792  0.0729
  670MOL0     H88412   4.629  10.286   5.089  0.4361 -0.0474  0.0146
  670MOL0     H88413   4.619  10.452   5.128 -0.9513 -0.7405 -1.8289
  670MOL0     H88414   4.585  10.237   5.330 -2.2464  0.5736  1.1685
  670MOL0     H88415   4.566  10.407   5.359  2.8246  0.1691  2.4646
  670MOL0     H88416   4.798  10.462   5.284  4.8787 -0.9371 -0.6934
  670MOL0     H88417   4.819  10.293   5.241 -2.2528  0.5463 -1.6278
  670MOL0     H88418   4.861  10.406   5.495 -4.6791  2.3265  2.1565
  670MOL0     H88419   4.720  10.312   5.517  0.9567  0.9351  1.1323
  670MOL0     H88420   4.865  10.160   5.575  0.0925  1.7443  1.0503
  670MOL0     H88421   4.982  10.198   5.441 -0.1545 -1.2750 -0.0939
  670MOL0     H88422   3.889  10.425   5.411 -0.3304  1.3770 -0.2189
  670MOL0     H88423   3.672  10.359   5.370  2.5823 -1.6952  1.7316
  670MOL0     H88424   3.236  10.488   4.952  1.7520 -0.2771 -2.3759
  670MOL0     H88425   3.015  10.381   4.924 -1.3388  1.1091  2.0807
  670MOL0     H88426   2.321   9.644   4.796 -2.9990  0.7441  2.2484
  670MOL0     H88427   2.561   9.615   4.828  0.7389  1.8051  2.7714
  670MOL0     H88428   2.853   9.257   5.000 -2.4008  0.9185  0.7270
  670MOL0     H88429   3.037   9.140   5.109 -2.6615 -0.6416 -1.0543
  670MOL0     H88430   3.369   9.407   5.103 -0.4065  0.5625  0.2933
  670MOL0     H88431   3.423   9.240   5.126 -0.9221  0.9732 -1.5365
  670MOL0     H88432   3.429   9.493   5.305  2.1196  0.8374  1.0468
  670MOL0     H88433   3.474   9.341   5.374  0.9069 -2.6180 -2.2201
  670MOL0     H88434   3.681   9.491   5.259  5.7813 -3.9083  0.8189
  670MOL0     H88435   3.604   9.424   5.115 -1.1721 -1.5910  0.4441
  670MOL0     H88436   3.810   9.312   5.272  1.4708  1.7908 -2.9322
  670MOL0     H88437   3.663   9.212   5.304  1.6214 -0.6915  0.0103
  670MOL0     H88438   3.760   9.058   4.941 -3.1826 -0.4823 -0.4692
  670MOL0     H88439   3.186   9.519   5.247 -1.1953 -0.9282  2.2218
  670MOL0     H88440   2.971   9.634   5.191  1.6745 -1.7628  3.6188
  671MOL0     O88441   4.208   0.465   6.546  0.3053 -0.5744  0.8957
  671MOL0     C88442   4.248   0.398   6.641  0.2287 -0.0826  0.4144
  671MOL0     O88443   4.236   0.425   6.774 -0.8761 -0.1237  0.4742
  671MOL0     C88444   4.153   0.526   6.810 -0.4320 -0.5765 -0.2039
  671MOL0     C88445   4.219   0.630   6.878 -0.2419 -0.3512  0.2247
  671MOL0     C88446   4.143   0.745   6.902  0.9981 -0.2010 -0.3216
  671MOL0     C88447   4.010   0.752   6.892 -0.2079 -0.0146  0.0291
  671MOL0     O88448   3.930   0.853   6.935 -0.1912  0.9548 -0.2793
  671MOL0     C88449   3.977   0.986   6.934  0.8243 -0.8062  0.8695
  671MOL0     C88450   3.854   1.076   6.961 -0.6433 -0.1225  0.7013
  671MOL0     C88451   3.899   1.227   6.979  0.3841  1.1176 -0.7107
  671MOL0     C88452   3.781   1.320   7.013 -0.2241 -0.0355 -0.1515
  671MOL0     C88453   3.702   1.287   7.139 -0.3241 -0.5895 -0.7037
  671MOL0     C88454   3.589   1.199   7.117  1.1922 -0.4656  0.3940
  671MOL0     C88455   3.509   1.189   7.248 -0.7548  0.5628  1.0476
  671MOL0     C88456   3.412   1.082   7.218  0.2284 -0.6708 -0.4643
  671MOL0     N88457   3.329   1.057   7.347 -0.0462 -0.7551 -0.7765
  671MOL0     C88458   3.364   0.983   7.462 -0.3154 -0.6689 -1.0861
  671MOL0     C88459   3.257   1.022   7.551  0.8019 -0.1132 -0.0832
  671MOL0     C88460   3.238   0.963   7.688 -0.5898 -0.8174 -0.1817
  671MOL0     C88461   3.371   0.997   7.769  0.2867 -0.0038  0.1756
  671MOL0     C88462   3.468   0.876   7.760 -0.0009 -0.6511 -0.0464
  671MOL0     C88463   3.614   0.917   7.786  0.0810 -0.0458 -0.3299
  671MOL0     O88464   3.698   0.803   7.780  0.1936 -0.2838 -0.3137
  671MOL0     C88465   3.830   0.828   7.771 -0.5135 -0.1723 -0.6103
  671MOL0     C88466   3.907   0.954   7.770 -0.3439  0.2607  0.5622
  671MOL0     C88467   4.051   0.956   7.740 -0.6564  0.1434  0.6739
  671MOL0     C88468   4.119   0.838   7.709 -0.0023  0.4825  0.1447
  671MOL0     C88469   4.268   0.835   7.661 -0.3448 -0.1551 -0.6226
  671MOL0     O88470   4.327   0.960   7.637  0.1057  0.2549 -0.4510
  671MOL0     C88471   4.461   0.958   7.610  0.2339 -0.2858 -0.0070
  671MOL0     C88472   4.564   0.908   7.689 -0.6202  0.2646 -0.3791
  671MOL0     C88473   4.700   0.928   7.655  0.6557 -0.5412  0.1388
  671MOL0     C88474   4.733   0.978   7.533 -0.4620  1.5495 -0.4890
  671MOL0     O88475   4.868   0.959   7.511  0.3204 -0.3362  0.3660
  671MOL0     C88476   4.916   0.997   7.375 -0.7619  0.1170  0.2511
  671MOL0     C88477   5.068   0.997   7.378 -0.5137  0.2506 -0.4447
  671MOL0     C88478   5.136   0.860   7.386  0.7034 -0.0572 -0.9548
  671MOL0     C88479   5.278   0.879   7.377 -0.9400  0.3862  0.2955
  671MOL0     C88480   5.336   0.749   7.322 -0.8531  0.3935  0.8885
  671MOL0     C88481   5.483   0.712   7.340 -0.2850 -0.3268  0.0708
  671MOL0     C88482   5.523   0.564   7.327 -0.2343  0.4297 -0.9238
  671MOL0     C88483   5.535   0.534   7.184  0.6870 -0.0772  0.1392
  671MOL0    Cl88484   5.642   0.391   7.149 -0.1369  0.0705  0.4582
  671MOL0     C88485   4.636   1.026   7.451 -0.1600 -0.1349 -0.6315
  671MOL0     C88486   4.504   1.022   7.489 -0.8156 -0.0210 -0.5044
  671MOL0     O88487   4.326   0.726   7.649  1.2715  0.0880  0.6860
  671MOL0     C88488   4.047   0.717   7.705 -0.5662 -0.0350 -0.4810
  671MOL0     C88489   3.904   0.712   7.737  0.3066  1.0019 -0.1416
  671MOL0     N88490   3.175   1.107   7.484 -0.0801 -0.4562 -0.8691
  671MOL0     N88491   3.215   1.135   7.368 -0.4573 -0.2898  0.4231
  671MOL0     C88492   3.936   0.642   6.848  0.3070 -0.7331 -0.0043
  671MOL0     C88493   4.007   0.532   6.799  0.2314  0.9969 -0.2320
  671MOL0     C88494   4.315   0.271   6.603  0.0723 -0.5856  0.0483
  671MOL0     C88495   4.399   0.203   6.694  0.8077 -0.8770 -0.1976
  671MOL0     C88496   4.472   0.087   6.648  0.4934 -0.7395  0.1145
  671MOL0     C88497   4.476   0.043   6.513  0.2850  0.1056 -0.6335
  671MOL0     O88498   4.531  -0.077   6.471  0.2122 -0.5923 -0.5776
  671MOL0     C88499   4.571  -0.101   6.339 -0.7164 -0.0525  0.4610
  671MOL0     C88500   4.654  -0.231   6.339  1.1192 -0.6105  0.4073
  671MOL0     C88501   4.738  -0.240   6.466  0.7376 -1.4664  0.4034
  671MOL0     C88502   4.847  -0.137   6.500  0.0824  0.7227 -0.6649
  671MOL0     C88503   4.970  -0.177   6.432  1.1865  0.0853  0.3630
  671MOL0     C88504   5.075  -0.188   6.370 -0.3960  0.1318  0.4623
  671MOL0     C88505   4.373   0.108   6.432  0.4770 -0.2086  0.6004
  671MOL0     C88506   4.309   0.224   6.475  0.7562  0.1820  0.2229
  671MOL0     H88507   4.321   0.617   6.914  0.0855  0.4688 -0.3792
  671MOL0     H88508   4.190   0.824   6.960  1.5467 -1.6066  1.2273
  671MOL0     H88509   4.029   1.015   6.842  1.0102 -0.1823  1.1647
  671MOL0     H88510   4.045   0.994   7.019 -0.4520  3.8697  1.7652
  671MOL0     H88511   3.812   1.040   7.055  1.1489 -0.0532  1.5894
  671MOL0     H88512   3.783   1.083   6.879 -2.8205  1.7570  2.5858
  671MOL0     H88513   3.946   1.257   6.885 -0.7397  0.3545 -1.5300
  671MOL0     H88514   3.972   1.236   7.061 -0.8260 -4.0543  1.3658
  671MOL0     H88515   3.817   1.423   7.027  1.1146 -0.6670  1.3202
  671MOL0     H88516   3.716   1.333   6.926  2.4987  1.1347 -2.1928
  671MOL0     H88517   3.685   1.382   7.190 -1.7227 -1.6688  1.0009
  671MOL0     H88518   3.763   1.241   7.218  0.0936  2.1040  0.6643
  671MOL0     H88519   3.619   1.101   7.078  3.4970  0.6575 -0.8811
  671MOL0     H88520   3.523   1.240   7.039 -0.6979 -1.1356  1.5794
  671MOL0     H88521   3.575   1.168   7.333  0.7722 -0.7133 -0.3719
  671MOL0     H88522   3.463   1.285   7.273 -0.0893  1.0998  0.2401
  671MOL0     H88523   3.462   0.991   7.183  1.7813  0.0483 -0.2257
  671MOL0     H88524   3.349   1.113   7.134  1.7155 -2.0366 -2.1620
  671MOL0     H88525   3.450   0.919   7.483 -0.6326 -0.4269  1.1861
  671MOL0     H88526   3.207   0.858   7.694 -1.9790 -0.3561  3.1492
  671MOL0     H88527   3.153   1.013   7.736  0.0525 -1.8913  2.2722
  671MOL0     H88528   3.344   1.023   7.872  1.7875  2.2192  0.0804
  671MOL0     H88529   3.419   1.087   7.729 -3.9918  1.7938 -1.5621
  671MOL0     H88530   3.431   0.805   7.835 -1.1512 -1.8446 -1.6569
  671MOL0     H88531   3.467   0.819   7.666  2.0602 -1.5193  0.3967
  671MOL0     H88532   3.614   0.974   7.880 -2.3484  1.9961 -1.4428
  671MOL0     H88533   3.634   0.988   7.705 -1.2839 -0.2626 -0.8779
  671MOL0     H88534   3.865   1.054   7.769  0.6142  0.6752  0.0615
  671MOL0     H88535   4.111   1.046   7.737  0.5426 -0.6404  0.3078
  671MOL0     H88536   4.528   0.847   7.772 -0.5946 -0.0461 -0.5963
  671MOL0     H88537   4.773   0.885   7.723 -1.0774 -0.6990  2.0065
  671MOL0     H88538   4.887   1.099   7.349  0.0488  0.4074  0.4849
  671MOL0     H88539   4.872   0.926   7.304 -0.6394 -1.4808  1.7224
  671MOL0     H88540   5.094   1.058   7.465 -1.5201 -1.6710  1.2918
  671MOL0     H88541   5.109   1.043   7.287  2.2647 -0.7133  0.2025
  671MOL0     H88542   5.115   0.802   7.296 -0.3474  3.0453 -2.8428
  671MOL0     H88543   5.101   0.803   7.473 -1.6270  2.9050  0.2209
  671MOL0     H88544   5.303   0.961   7.309  1.1744  0.3101  0.9312
  671MOL0     H88545   5.329   0.896   7.472 -1.4662 -3.3338  1.4045
  671MOL0     H88546   5.316   0.736   7.216  0.7198  1.5482  0.4097
  671MOL0     H88547   5.282   0.668   7.372  0.9135 -2.3764 -1.4093
  671MOL0     H88548   5.508   0.736   7.444  1.0225 -1.8152  0.1307
  671MOL0     H88549   5.544   0.779   7.278  1.2295 -1.6191  0.1141
  671MOL0     H88550   5.622   0.550   7.371  1.5271  3.8961 -3.2308
  671MOL0     H88551   5.448   0.499   7.372 -2.5399  3.5812  0.2090
  671MOL0     H88552   5.576   0.617   7.124 -2.1487 -0.0641 -1.9944
  671MOL0     H88553   5.439   0.512   7.137  1.6590 -3.6661 -0.4236
  671MOL0     H88554   4.667   1.049   7.349 -2.8937 -0.2717 -1.5695
  671MOL0     H88555   4.435   1.068   7.419  0.1137  4.4873  1.1699
  671MOL0     H88556   4.102   0.629   7.674 -1.0174  0.4473 -2.8682
  671MOL0     H88557   3.844   0.623   7.721  1.5322 -0.2282  1.7503
  671MOL0     H88558   3.828   0.645   6.835  0.4060  0.0823 -0.7456
  671MOL0     H88559   3.963   0.445   6.753  2.8504 -0.7777  0.4230
  671MOL0     H88560   4.409   0.228   6.799  0.1161 -0.0501 -0.3168
  671MOL0     H88561   4.544   0.039   6.713  1.0217  1.4492  1.2349
  671MOL0     H88562   4.634  -0.020   6.301  1.8427 -1.4293  1.5152
  671MOL0     H88563   4.490  -0.115   6.266  1.2035 -2.0930 -1.4384
  671MOL0     H88564   4.575  -0.305   6.349 -0.5977  1.1717  0.7188
  671MOL0     H88565   4.719  -0.236   6.251  0.6185  1.2772 -0.1328
  671MOL0     H88566   4.781  -0.340   6.468  0.4249 -1.6018  2.1010
  671MOL0     H88567   4.679  -0.254   6.557  1.6781  0.6890  1.4045
  671MOL0     H88568   4.825  -0.032   6.478  0.5004  1.2115  1.0627
  671MOL0     H88569   4.865  -0.130   6.608  0.7250 -1.9202 -0.5415
  671MOL0     H88570   5.173  -0.213   6.333 -0.1156 -1.1039  1.9447
  671MOL0     H88571   4.345   0.076   6.332  0.6803  0.1424  0.4308
  671MOL0     H88572   4.242   0.273   6.404 -0.7939 -1.1436  0.7031
  672MOL0     O88573   8.281   7.171   1.068  0.3311  0.2663  0.2154
  672MOL0     C88574   8.369   7.176   0.987 -0.4896  0.5216 -0.0131
  672MOL0     O88575   8.350   7.169   0.857  0.1362 -0.4081  0.0350
  672MOL0     C88576   8.221   7.175   0.809 -0.1025 -1.0536  0.4341
  672MOL0     C88577   8.129   7.286   0.834 -0.3560 -0.2480  0.1093
  672MOL0     C88578   7.996   7.288   0.796 -0.3041 -0.5747 -0.4103
  672MOL0     C88579   7.946   7.175   0.727  0.4246  0.1549  0.0294
  672MOL0     O88580   7.810   7.168   0.702  0.2474  1.1572 -0.4693
  672MOL0     C88581   7.768   7.180   0.565  0.1945 -0.0226  1.2303
  672MOL0     C88582   7.679   7.065   0.530 -1.0947  0.7125  0.3373
  672MOL0     C88583   7.541   7.118   0.568  0.9241  0.5309  0.2794
  672MOL0     C88584   7.434   7.039   0.498 -0.6100  0.9396  0.0952
  672MOL0     C88585   7.298   7.101   0.528 -0.1079 -0.2019  0.4834
  672MOL0     C88586   7.174   7.019   0.474 -0.2743 -0.0677  0.0184
  672MOL0     C88587   7.047   7.034   0.555  0.1342 -0.7420 -0.0012
  672MOL0     C88588   6.929   6.970   0.487  0.0198  0.3181 -0.2463
  672MOL0     N88589   6.798   6.985   0.554  0.2649  0.2615 -0.0650
  672MOL0     C88590   6.686   6.905   0.536  0.1001 -0.4275  0.9005
  672MOL0     C88591   6.584   6.974   0.591 -0.1088 -0.5174 -0.5185
  672MOL0     C88592   6.448   6.953   0.565  0.1084 -0.3399 -0.0571
  672MOL0     C88593   6.400   6.868   0.684 -0.0943 -0.1530 -0.1461
  672MOL0     C88594   6.260   6.813   0.649 -0.0138 -0.5786  0.1888
  672MOL0     C88595   6.188   6.749   0.760  0.4690 -0.7004 -0.7183
  672MOL0     O88596   6.072   6.693   0.692 -0.6347 -0.0564 -0.3306
  672MOL0     C88597   5.973   6.641   0.775  0.1861 -0.0763  0.7986
  672MOL0     C88598   5.949   6.672   0.910  0.9131  0.7265  0.3149
  672MOL0     C88599   5.846   6.615   0.981 -0.4987  0.7418  0.3761
  672MOL0     C88600   5.748   6.536   0.923  0.3848  0.1117  0.7811
  672MOL0     C88601   5.633   6.479   0.993 -0.2800  0.5842  0.5467
  672MOL0     O88602   5.565   6.557   1.089 -0.2271 -0.2901 -0.7076
  672MOL0     C88603   5.452   6.484   1.143 -0.1592  1.3741 -0.0510
  672MOL0     C88604   5.466   6.360   1.210  0.7791 -0.2008  0.4596
  672MOL0     C88605   5.356   6.294   1.268  0.5346  0.8435  0.0465
  672MOL0     C88606   5.229   6.352   1.251 -1.3488 -1.1023 -0.4671
  672MOL0     O88607   5.129   6.299   1.321  0.0642  0.2434 -0.2221
  672MOL0     C88608   5.091   6.164   1.285  0.1341 -0.2527  0.7121
  672MOL0     C88609   4.948   6.167   1.215  0.3085  0.2431 -0.0211
  672MOL0     C88610   4.832   6.232   1.303 -0.6981  0.6053 -0.1179
  672MOL0     C88611   4.698   6.251   1.231 -0.1459  0.1114 -0.2670
  672MOL0     C88612   4.590   6.303   1.326 -0.6905  0.7421  0.2249
  672MOL0     C88613   4.612   6.451   1.357  0.1471 -0.4996 -0.1505
  672MOL0     C88614   4.476   6.515   1.409 -0.2620  0.2444  0.7814
  672MOL0     C88615   4.376   6.541   1.297 -0.6452 -0.4165  0.0360
  672MOL0    Cl88616   4.221   6.594   1.367 -0.0056 -0.3140  0.0345
  672MOL0     C88617   5.215   6.470   1.187  0.8190 -1.2645 -0.1409
  672MOL0     C88618   5.321   6.536   1.123 -0.0177 -0.7230 -0.2519
  672MOL0     O88619   5.593   6.376   0.941 -0.0065  0.5976  0.4662
  672MOL0     C88620   5.774   6.497   0.788 -0.3828  0.0159  0.9964
  672MOL0     C88621   5.876   6.562   0.721  0.7694  0.1530  0.0791
  672MOL0     N88622   6.642   7.082   0.664 -0.1376  0.2348 -0.7651
  672MOL0     N88623   6.772   7.084   0.648 -0.1967  0.1742  0.9079
  672MOL0     C88624   8.038   7.074   0.686  0.1466 -0.3471  0.1675
  672MOL0     C88625   8.171   7.071   0.730  0.7473  0.0190  0.2550
  672MOL0     C88626   8.514   7.182   1.031 -0.1578 -0.3202  0.6220
  672MOL0     C88627   8.624   7.163   0.944  0.1448 -0.3814 -0.7055
  672MOL0     C88628   8.754   7.174   0.997 -0.0084  0.6044  0.5083
  672MOL0     C88629   8.783   7.183   1.130 -0.3259 -0.1047 -0.0549
  672MOL0     O88630   8.916   7.171   1.177 -0.0998 -0.5124  0.3703
  672MOL0     C88631   9.007   7.093   1.099  0.3411 -0.4775 -0.1135
  672MOL0     C88632   9.095   7.016   1.192 -0.3024 -0.9341  0.2875
  672MOL0     C88633   9.014   6.899   1.261  0.3076  0.2075 -0.3751
  672MOL0     C88634   9.096   6.837   1.373  0.2062  0.3838  1.3572
  672MOL0     C88635   9.095   6.919   1.500  0.8339  0.2940 -0.3275
  672MOL0     C88636   9.091   6.991   1.592  0.4961 -0.7036 -0.2021
  672MOL0     C88637   8.672   7.204   1.214  0.5245  0.7806 -0.2482
  672MOL0     C88638   8.541   7.196   1.167  0.4480  0.1108 -0.6628
  672MOL0     H88639   8.171   7.355   0.906  1.1298 -0.0977 -0.8650
  672MOL0     H88640   7.935   7.374   0.820  0.9892 -0.2417  2.0533
  672MOL0     H88641   7.848   7.172   0.491 -1.7127  1.8400 -1.1710
  672MOL0     H88642   7.735   7.283   0.551  1.3170  0.4271  1.7970
  672MOL0     H88643   7.710   6.978   0.590 -1.6303  2.1639  2.8626
  672MOL0     H88644   7.692   7.041   0.424  1.0985  2.2493  0.1992
  672MOL0     H88645   7.519   7.220   0.536 -2.7611  0.0727  0.8696
  672MOL0     H88646   7.530   7.127   0.677  0.3978  1.5985  0.1555
  672MOL0     H88647   7.460   7.045   0.392 -0.6483 -0.0317  0.0158
  672MOL0     H88648   7.438   6.933   0.527 -1.1043  0.7732 -0.4405
  672MOL0     H88649   7.296   7.205   0.494  1.8778  0.9200  3.3968
  672MOL0     H88650   7.286   7.105   0.637  0.0350  0.4096  0.4783
  672MOL0     H88651   7.199   6.912   0.480  4.3392  0.8440  0.6950
  672MOL0     H88652   7.148   7.048   0.372 -2.6306  0.3832  0.6718
  672MOL0     H88653   7.054   6.978   0.649  0.3860 -1.1659 -0.2657
  672MOL0     H88654   7.036   7.143   0.562  3.3545 -0.1443 -1.9924
  672MOL0     H88655   6.944   6.865   0.462 -1.9289  0.2856 -1.4515
  672MOL0     H88656   6.914   7.010   0.386 -0.6285 -1.0446 -0.7073
  672MOL0     H88657   6.676   6.812   0.480  2.2685  0.1101 -0.4531
  672MOL0     H88658   6.451   6.895   0.472  5.5160 -0.8512  0.0898
  672MOL0     H88659   6.388   7.042   0.546  0.4398 -0.4747 -1.9532
  672MOL0     H88660   6.370   6.924   0.774  0.6242 -2.4349  1.6113
  672MOL0     H88661   6.461   6.781   0.711  1.8905  1.8478  2.3365
  672MOL0     H88662   6.188   6.886   0.611 -1.7112  0.8809  5.3657
  672MOL0     H88663   6.279   6.739   0.570 -2.9191  0.5728 -1.7601
  672MOL0     H88664   6.158   6.832   0.825  1.6443 -2.5518  2.3623
  672MOL0     H88665   6.246   6.672   0.810 -1.8541 -2.0032  0.1378
  672MOL0     H88666   6.016   6.740   0.961  3.0837  0.2022 -1.7157
  672MOL0     H88667   5.829   6.634   1.087  1.4468  0.0642  0.8483
  672MOL0     H88668   5.563   6.315   1.223  0.7388 -0.9921 -1.5164
  672MOL0     H88669   5.370   6.200   1.320  0.2318 -0.2761 -1.8281
  672MOL0     H88670   5.093   6.110   1.380  1.1106  0.5721  1.1807
  672MOL0     H88671   5.164   6.110   1.223  0.0044  1.0893 -0.6560
  672MOL0     H88672   4.915   6.068   1.182 -1.7370  0.5827  0.8125
  672MOL0     H88673   4.957   6.209   1.115 -3.8000 -2.2394 -1.6871
  672MOL0     H88674   4.874   6.326   1.339  0.2281 -1.1069  3.7738
  672MOL0     H88675   4.806   6.168   1.388  0.9454  0.0741  0.0211
  672MOL0     H88676   4.718   6.303   1.137  1.0319 -0.0131 -0.1044
  672MOL0     H88677   4.670   6.151   1.196 -0.5416  0.0114  0.3130
  672MOL0     H88678   4.585   6.252   1.422 -2.7963  1.3687  0.5211
  672MOL0     H88679   4.497   6.279   1.274  1.1130  0.9288 -3.3700
  672MOL0     H88680   4.639   6.499   1.262  1.0309 -1.2730 -0.2993
  672MOL0     H88681   4.694   6.462   1.428  0.9868  0.1735 -1.1871
  672MOL0     H88682   4.429   6.452   1.485 -1.7342 -1.0980 -1.1514
  672MOL0     H88683   4.495   6.613   1.455 -0.9402  1.2879 -1.0281
  672MOL0     H88684   4.356   6.443   1.255  2.9472 -0.5173 -1.8210
  672MOL0     H88685   4.415   6.601   1.214 -0.1696 -0.4947  0.1988
  672MOL0     H88686   5.119   6.520   1.191  0.8812 -1.2165  1.0545
  672MOL0     H88687   5.312   6.631   1.071  1.0763  0.2169  1.1796
  672MOL0     H88688   5.719   6.429   0.724  2.0800 -0.8249 -0.3559
  672MOL0     H88689   5.879   6.566   0.613 -1.9640 -1.9235 -0.1853
  672MOL0     H88690   7.995   6.997   0.623  0.6955 -1.6969  1.3928
  672MOL0     H88691   8.228   6.980   0.709 -1.6003 -1.3069 -0.7350
  672MOL0     H88692   8.616   7.139   0.839  2.7684  0.1796 -1.1083
  672MOL0     H88693   8.835   7.161   0.925  0.5642  1.9665  0.8825
  672MOL0     H88694   9.082   7.151   1.043  1.4939 -1.2377  0.5941
  672MOL0     H88695   8.961   7.025   1.026  1.6984  2.9349 -4.6048
  672MOL0     H88696   9.187   6.981   1.146  0.2694  2.9085 -1.9233
  672MOL0     H88697   9.133   7.084   1.269  1.9635 -1.3357 -0.4068
  672MOL0     H88698   8.986   6.822   1.188  0.1478  0.5326 -0.6623
  672MOL0     H88699   8.918   6.924   1.307 -1.8065 -4.3423 -1.7697
  672MOL0     H88700   9.075   6.732   1.395 -0.9568  0.6290  1.4599
  672MOL0     H88701   9.198   6.832   1.334 -0.0888 -0.8821  0.6927
  672MOL0     H88702   9.074   7.062   1.671  0.3470  1.2683 -1.9438
  672MOL0     H88703   8.694   7.229   1.318 -2.1700  3.1114 -0.1349
  672MOL0     H88704   8.462   7.217   1.238 -0.8585 -3.2319 -0.9457
  673MOL0     O88705   7.469   0.425   2.230  0.2844  0.2671 -0.3676
  673MOL0     C88706   7.533   0.532   2.233  0.9025  0.0369  0.0213
  673MOL0     O88707   7.486   0.657   2.270  0.1427 -0.3328  0.2388
  673MOL0     C88708   7.357   0.655   2.327 -0.4576  0.1973 -0.1770
  673MOL0     C88709   7.329   0.561   2.423  0.3255 -0.1443 -0.4932
  673MOL0     C88710   7.198   0.554   2.477  0.2974  0.0554 -0.4589
  673MOL0     C88711   7.088   0.629   2.418 -0.2244  0.6544  0.4746
  673MOL0     O88712   6.955   0.617   2.458  0.9954  0.0785 -0.6414
  673MOL0     C88713   6.895   0.743   2.514  0.0777  0.7112 -0.9205
  673MOL0     C88714   6.877   0.733   2.668  0.1702 -0.2165 -1.0187
  673MOL0     C88715   6.828   0.865   2.738 -0.4022  0.8890  0.4718
  673MOL0     C88716   6.817   0.839   2.891  0.2773 -0.2762  1.1885
  673MOL0     C88717   6.769   0.959   2.977 -0.0418  0.3271  0.4216
  673MOL0     C88718   6.887   1.061   3.019  0.3772 -0.0063 -0.4697
  673MOL0     C88719   6.820   1.162   3.108 -0.6115 -0.2108  0.2189
  673MOL0     C88720   6.913   1.283   3.152 -0.4994 -0.4712 -0.7916
  673MOL0     N88721   6.937   1.370   3.032  0.0047 -0.2924 -0.0856
  673MOL0     C88722   7.047   1.355   2.951 -0.1361 -0.4707  0.2563
  673MOL0     C88723   7.045   1.468   2.874 -0.1410  0.3668  0.6081
  673MOL0     C88724   7.136   1.503   2.768 -0.0625 -0.3306 -0.6386
  673MOL0     C88725   7.216   1.625   2.812  0.1810 -0.4684  0.0532
  673MOL0     C88726   7.329   1.582   2.910 -0.0089  0.0292  0.2154
  673MOL0     C88727   7.439   1.694   2.926  0.6959  0.2873  0.0507
  673MOL0     O88728   7.493   1.737   2.802  0.3698 -0.5949 -0.5083
  673MOL0     C88729   7.591   1.833   2.810  0.2789  0.8957  1.4713
  673MOL0     C88730   7.638   1.884   2.688 -0.5633 -0.9470  0.1164
  673MOL0     C88731   7.743   1.977   2.692  0.4029  0.3486 -0.2491
  673MOL0     C88732   7.804   2.011   2.811 -0.2364 -0.2058 -0.3352
  673MOL0     C88733   7.908   2.117   2.814 -0.8009  0.1046 -0.7860
  673MOL0     O88734   7.937   2.184   2.928 -0.9426 -0.1489  0.1779
  673MOL0     C88735   8.024   2.286   2.917  0.0703 -0.3126  0.1973
  673MOL0     C88736   8.165   2.269   2.904 -0.7281 -0.5247  0.5465
  673MOL0     C88737   8.256   2.378   2.896 -0.2461  0.2768  0.2487
  673MOL0     C88738   8.203   2.505   2.894  0.1403  0.9266 -0.1259
  673MOL0     O88739   8.282   2.617   2.905  1.2064 -0.1406 -0.9447
  673MOL0     C88740   8.412   2.616   2.846 -0.0291 -0.6885  0.2053
  673MOL0     C88741   8.459   2.757   2.833 -0.3204 -0.2297  0.0184
  673MOL0     C88742   8.607   2.768   2.791  1.1117 -0.0441  1.3011
  673MOL0     C88743   8.612   2.766   2.630 -0.4161 -0.4227  0.0805
  673MOL0     C88744   8.757   2.779   2.572 -0.2171 -0.5288  0.1618
  673MOL0     C88745   8.726   2.817   2.416  0.3867  0.5911 -0.4694
  673MOL0     C88746   8.860   2.793   2.335  0.0637 -0.4181 -0.4119
  673MOL0     C88747   8.854   2.835   2.193 -0.7310  0.3947  0.4748
  673MOL0    Cl88748   9.020   2.849   2.116 -0.0311 -0.2070  0.1606
  673MOL0     C88749   8.066   2.524   2.899 -1.0578 -0.6691  0.2562
  673MOL0     C88750   7.978   2.419   2.909  0.3289 -0.3904  0.3516
  673MOL0     O88751   7.966   2.131   2.707  0.4813 -0.1126 -0.2686
  673MOL0     C88752   7.749   1.969   2.933  0.3589  0.2287  0.7927
  673MOL0     C88753   7.654   1.873   2.921 -0.4978  0.1111  0.6373
  673MOL0     N88754   6.933   1.551   2.900 -0.5001  0.1877  0.6422
  673MOL0     N88755   6.869   1.487   2.990  0.0534 -0.8683 -0.1025
  673MOL0     C88756   7.126   0.719   2.318 -0.4411  0.4734 -0.5875
  673MOL0     C88757   7.258   0.743   2.288 -0.1791 -0.0917  0.3673
  673MOL0     C88758   7.668   0.521   2.171  0.0086 -0.4526 -0.5949
  673MOL0     C88759   7.711   0.428   2.074 -0.0420  0.0252 -0.5698
  673MOL0     C88760   7.837   0.434   2.022  0.2134 -0.0804 -0.2473
  673MOL0     C88761   7.922   0.536   2.037  0.1815 -0.1984 -1.4200
  673MOL0     O88762   8.038   0.529   1.970 -0.3285  0.4344 -0.0871
  673MOL0     C88763   8.142   0.618   2.004  0.3072  0.3223 -0.0687
  673MOL0     C88764   8.232   0.580   2.116 -0.3800  0.9431 -0.4225
  673MOL0     C88765   8.314   0.450   2.086 -0.6473 -0.4223 -0.0978
  673MOL0     C88766   8.343   0.370   2.209 -0.2359  0.7927 -0.5104
  673MOL0     C88767   8.464   0.420   2.275 -0.4864 -0.6169  0.8080
  673MOL0     C88768   8.555   0.468   2.344  0.7867 -0.4110 -0.0496
  673MOL0     C88769   7.884   0.629   2.131  0.4609 -0.6136 -0.9476
  673MOL0     C88770   7.763   0.624   2.197 -0.0258 -0.2171 -0.7693
  673MOL0     H88771   7.401   0.497   2.473 -1.1621 -1.6490 -0.1458
  673MOL0     H88772   7.169   0.472   2.542  1.9579  0.4407  0.8323
  673MOL0     H88773   6.793   0.754   2.474 -0.7098  2.5781  1.3687
  673MOL0     H88774   6.958   0.828   2.487 -1.1393  1.4516 -1.5146
  673MOL0     H88775   6.976   0.719   2.713 -0.5482  2.4162  1.7926
  673MOL0     H88776   6.811   0.647   2.684  0.1891 -0.0241  0.2099
  673MOL0     H88777   6.729   0.899   2.707 -0.3215  2.1206  1.4531
  673MOL0     H88778   6.902   0.944   2.720  0.4453  0.0681  0.2815
  673MOL0     H88779   6.737   0.767   2.907 -0.1076 -0.0616  0.2550
  673MOL0     H88780   6.907   0.805   2.944  0.0478  1.7286  2.9939
  673MOL0     H88781   6.727   0.916   3.069 -2.9235  0.6352 -0.6544
  673MOL0     H88782   6.690   1.009   2.922 -0.1946 -1.1376 -0.7566
  673MOL0     H88783   6.916   1.115   2.928 -3.9226  3.9684  0.0756
  673MOL0     H88784   6.972   1.012   3.066  2.6401  1.8325 -2.3545
  673MOL0     H88785   6.741   1.209   3.049  0.9546 -0.5993 -2.3396
  673MOL0     H88786   6.784   1.106   3.195  0.9016 -2.3874 -0.4762
  673MOL0     H88787   7.009   1.246   3.189 -0.0617 -1.6633 -2.9715
  673MOL0     H88788   6.872   1.348   3.230  2.6342  1.6607 -0.7155
  673MOL0     H88789   7.115   1.271   2.941  1.0885  0.5729 -0.4685
  673MOL0     H88790   7.081   1.534   2.679  0.6229  1.3471 -0.5118
  673MOL0     H88791   7.201   1.419   2.743  1.3092  0.2754  0.7025
  673MOL0     H88792   7.144   1.692   2.860 -0.1895  2.2339 -3.8079
  673MOL0     H88793   7.251   1.679   2.723 -5.2442  2.2753 -0.8638
  673MOL0     H88794   7.286   1.562   3.009  0.5978 -0.8637  0.3074
  673MOL0     H88795   7.382   1.499   2.863  1.0721  0.6327  0.3249
  673MOL0     H88796   7.520   1.647   2.981  0.3978  0.2255  0.4368
  673MOL0     H88797   7.385   1.771   2.982  1.1283 -0.9067  2.1814
  673MOL0     H88798   7.595   1.844   2.596  3.2881 -1.0235 -1.8710
  673MOL0     H88799   7.787   2.016   2.601 -3.0223  1.0299 -1.7889
  673MOL0     H88800   8.201   2.167   2.917  0.3712 -0.1217  0.7534
  673MOL0     H88801   8.363   2.361   2.899 -0.2726  0.0113 -0.1497
  673MOL0     H88802   8.399   2.573   2.746 -1.5161 -0.2490  0.1943
  673MOL0     H88803   8.479   2.555   2.908  1.8297  1.7724  0.7690
  673MOL0     H88804   8.449   2.796   2.934  0.4642 -0.4083  0.1724
  673MOL0     H88805   8.394   2.808   2.762  1.6552 -0.1694 -1.8691
  673MOL0     H88806   8.660   2.684   2.836 -1.6121 -2.1922  0.7412
  673MOL0     H88807   8.644   2.861   2.835 -0.1109 -0.3692  3.1116
  673MOL0     H88808   8.567   2.669   2.606  1.2453 -1.3235  0.4878
  673MOL0     H88809   8.547   2.842   2.586  0.0644  0.4818  0.8968
  673MOL0     H88810   8.814   2.687   2.591  1.8519  0.5287 -0.6093
  673MOL0     H88811   8.819   2.858   2.615  0.9857 -1.1264 -0.4317
  673MOL0     H88812   8.686   2.918   2.410 -1.3718 -0.1387 -1.9961
  673MOL0     H88813   8.649   2.746   2.384  0.1394  0.3966  0.5273
  673MOL0     H88814   8.943   2.852   2.376 -0.3818 -0.4276  0.5182
  673MOL0     H88815   8.902   2.693   2.344  2.1871  0.1790 -2.5834
  673MOL0     H88816   8.800   2.929   2.189 -0.7312  0.3718 -0.0529
  673MOL0     H88817   8.797   2.766   2.131 -0.2454 -0.9925  1.5002
  673MOL0     H88818   8.028   2.625   2.907  2.4860  0.8877 -0.6121
  673MOL0     H88819   7.876   2.454   2.914  0.0974 -0.5048 -2.3695
  673MOL0     H88820   7.779   1.994   3.034  0.0161  1.9447  0.5004
  673MOL0     H88821   7.638   1.833   3.021 -0.5910  2.8793  1.8403
  673MOL0     H88822   7.048   0.770   2.262 -0.9360  0.8152  0.3897
  673MOL0     H88823   7.277   0.821   2.216 -1.2983 -0.1122  0.0298
  673MOL0     H88824   7.641   0.354   2.036 -1.4078  0.5621  0.8151
  673MOL0     H88825   7.857   0.355   1.951 -2.1503  1.1085 -2.3869
  673MOL0     H88826   8.098   0.717   2.019 -1.8739 -0.9491  3.1034
  673MOL0     H88827   8.205   0.613   1.915  1.5903 -0.0782  0.8354
  673MOL0     H88828   8.307   0.656   2.139  0.8142 -0.2132 -0.3822
  673MOL0     H88829   8.163   0.567   2.200 -0.7610  1.6629 -0.6181
  673MOL0     H88830   8.407   0.475   2.034  0.2239 -0.3295  1.4478
  673MOL0     H88831   8.252   0.377   2.032  0.1545 -0.6544 -0.7360
  673MOL0     H88832   8.256   0.370   2.276  1.7147  0.5722  2.2003
  673MOL0     H88833   8.363   0.268   2.176 -0.6127  0.0088  1.5391
  673MOL0     H88834   8.632   0.518   2.399 -0.9120  4.1323 -1.3357
  673MOL0     H88835   7.954   0.708   2.159 -3.3519  2.7379  0.0720
  673MOL0     H88836   7.732   0.710   2.257  1.3474 -0.5672  0.4983
  674MOL0     O88837   9.254   6.708  11.011  0.2576 -0.3917  0.5288
  674MOL0     C88838   9.200   6.801  10.944 -0.3581 -0.2948  0.4309
  674MOL0     O88839   9.083   6.873  10.972 -0.6580  0.4030 -1.4641
  674MOL0     C88840   9.018   6.806  11.082  0.1701  0.4795 -0.7433
  674MOL0     C88841   8.925   6.700  11.064  0.2217 -0.9599 -0.2159
  674MOL0     C88842   8.859   6.654  11.178  0.0051 -0.0296  0.1285
  674MOL0     C88843   8.885   6.696  11.307  0.1104 -0.4750  0.3608
  674MOL0     O88844   8.805   6.631  11.400  0.3618  0.3837  0.6228
  674MOL0     C88845   8.858   6.596  11.525  0.3696 -0.5658  1.1421
  674MOL0     C88846   8.752   6.577  11.628 -0.3482  0.1298 -0.1061
  674MOL0     C88847   8.656   6.464  11.584  0.4606  0.0713  0.6369
  674MOL0     C88848   8.543   6.442  11.688 -1.1733 -0.4968 -0.7489
  674MOL0     C88849   8.463   6.316  11.677  0.1349  0.2770 -0.1766
  674MOL0     C88850   8.314   6.335  11.684  0.0344  0.2447 -0.1637
  674MOL0     C88851   8.229   6.218  11.630 -0.2501  0.4181  0.3034
  674MOL0     C88852   8.228   6.091  11.727  0.6366  0.2463  0.3805
  674MOL0     N88853   8.129   6.107  11.831 -0.3891 -0.2470  0.4073
  674MOL0     C88854   8.114   6.199  11.935  0.2855  0.7044 -0.1237
  674MOL0     C88855   7.994   6.180  11.981 -0.2286  0.6312  0.1054
  674MOL0     C88856   7.939   6.264  12.092  0.2534  1.4646  0.7847
  674MOL0     C88857   7.830   6.352  12.034  0.1442  0.0532 -0.5764
  674MOL0     C88858   7.716   6.381  12.134  0.0233  0.3640 -0.2262
  674MOL0     C88859   7.608   6.462  12.064 -0.4030  0.8695 -0.2687
  674MOL0     O88860   7.485   6.459  12.144 -0.6091  0.0975  0.0104
  674MOL0     C88861   7.365   6.470  12.080  1.5447  0.0926 -0.0457
  674MOL0     C88862   7.250   6.454  12.157 -0.2942 -0.2142  0.0744
  674MOL0     C88863   7.120   6.480  12.114  0.5052 -0.4375  0.4271
  674MOL0     C88864   7.104   6.522  11.975 -0.7659  0.4374 -0.1239
  674MOL0     C88865   6.959   6.547  11.931 -0.3673 -0.2351 -0.0196
  674MOL0     O88866   6.859   6.505  12.011 -1.2372  0.5576 -0.2312
  674MOL0     C88867   6.725   6.491  11.974 -0.2831 -0.5549  0.1578
  674MOL0     C88868   6.650   6.560  11.875 -0.0936  0.2328 -0.7638
  674MOL0     C88869   6.533   6.512  11.816 -1.3577  0.1597  0.3071
  674MOL0     C88870   6.485   6.399  11.866 -0.9375  0.8318 -0.2645
  674MOL0     O88871   6.391   6.316  11.805  0.1202 -0.9058  0.1834
  674MOL0     C88872   6.257   6.365  11.791 -0.6763 -0.6205 -0.4083
  674MOL0     C88873   6.156   6.293  11.698 -0.2483  1.1882 -0.3966
  674MOL0     C88874   6.020   6.352  11.721 -0.3024  0.2047 -0.5879
  674MOL0     C88875   5.908   6.318  11.624 -1.1081  1.0788  0.0919
  674MOL0     C88876   5.771   6.384  11.644 -0.3528  0.0264  0.6598
  674MOL0     C88877   5.664   6.304  11.570  0.4550  0.8664 -0.2699
  674MOL0     C88878   5.517   6.351  11.608 -0.0243 -0.1618 -0.7969
  674MOL0     C88879   5.418   6.284  11.510  0.0378  0.5369 -0.6025
  674MOL0    Cl88880   5.427   6.335  11.341 -0.0845  0.0644 -0.1502
  674MOL0     C88881   6.549   6.328  11.972  0.1473 -0.5517  0.0948
  674MOL0     C88882   6.672   6.372  12.020  0.2275 -0.1528  1.0599
  674MOL0     O88883   6.944   6.589  11.814 -0.5277  0.0628 -0.6340
  674MOL0     C88884   7.214   6.528  11.888 -0.4516 -0.5800  0.5316
  674MOL0     C88885   7.348   6.503  11.944  0.5534 -0.7827  0.0995
  674MOL0     N88886   7.930   6.082  11.908 -0.4479  0.1786 -0.5564
  674MOL0     N88887   8.014   6.041  11.813  0.4679  0.3888 -0.9269
  674MOL0     C88888   8.985   6.783  11.322 -0.4990 -1.3032 -0.4943
  674MOL0     C88889   9.061   6.835  11.212 -0.2839 -0.8196 -0.3736
  674MOL0     C88890   9.276   6.834  10.819  0.1097  0.2924 -0.6815
  674MOL0     C88891   9.402   6.781  10.792 -0.6955 -0.0811  0.2724
  674MOL0     C88892   9.468   6.788  10.662  0.1875  1.3387  0.1187
  674MOL0     C88893   9.407   6.860  10.561  0.4727  0.2082 -0.2810
  674MOL0     O88894   9.468   6.885  10.444  0.0263 -0.4022  0.7043
  674MOL0     C88895   9.517   6.769  10.382 -0.0952  0.1285  0.3659
  674MOL0     C88896   9.561   6.795  10.238  0.5242 -0.5419  0.0319
  674MOL0     C88897   9.581   6.674  10.137 -0.5402  0.0983  0.0919
  674MOL0     C88898   9.618   6.711   9.999 -0.0008 -0.5226  1.0189
  674MOL0     C88899   9.517   6.796   9.924  0.3446  0.4946 -0.6445
  674MOL0     C88900   9.426   6.844   9.867  0.8937 -0.1760 -0.1089
  674MOL0     C88901   9.282   6.921  10.586 -0.3103  0.5361  0.3148
  674MOL0     C88902   9.219   6.911  10.713  0.0448 -1.2018 -0.4807
  674MOL0     H88903   8.888   6.665  10.968 -1.3859 -0.5744  0.2302
  674MOL0     H88904   8.786   6.573  11.177  0.5124 -0.4914 -0.3908
  674MOL0     H88905   8.924   6.680  11.548  0.3355 -0.0770 -0.4541
  674MOL0     H88906   8.921   6.506  11.525  3.9442  1.7088  0.6061
  674MOL0     H88907   8.697   6.671  11.643 -1.0141  0.1344 -2.2258
  674MOL0     H88908   8.795   6.538  11.720 -3.0837 -2.3523  0.2614
  674MOL0     H88909   8.724   6.378  11.574  0.5607  0.2221 -0.0230
  674MOL0     H88910   8.609   6.473  11.486 -1.4341  0.8818  1.5720
  674MOL0     H88911   8.588   6.429  11.787 -0.2369  2.1686 -0.7290
  674MOL0     H88912   8.484   6.534  11.679 -1.2778 -0.6648 -2.0453
  674MOL0     H88913   8.502   6.238  11.742 -0.6412  1.3380  1.6560
  674MOL0     H88914   8.475   6.289  11.572 -2.8438  1.2305 -0.8567
  674MOL0     H88915   8.292   6.424  11.625 -0.5928 -0.9759 -1.8280
  674MOL0     H88916   8.301   6.361  11.790  2.7900  1.5749 -0.0527
  674MOL0     H88917   8.123   6.244  11.629 -0.7544 -1.1281  3.2139
  674MOL0     H88918   8.261   6.188  11.529  0.4765  1.7874  0.0998
  674MOL0     H88919   8.322   6.088  11.782  0.1647 -0.3781  1.1722
  674MOL0     H88920   8.201   5.996  11.680  2.8300 -1.8858  3.1204
  674MOL0     H88921   8.184   6.275  11.968 -0.5781  0.7247  1.7713
  674MOL0     H88922   8.021   6.324  12.132  1.4562  2.1202 -2.3683
  674MOL0     H88923   7.903   6.194  12.168 -1.1155  1.3531  0.0645
  674MOL0     H88924   7.783   6.301  11.949 -1.9162 -0.8561  1.0148
  674MOL0     H88925   7.875   6.444  11.994 -0.7080  0.6352 -0.2261
  674MOL0     H88926   7.686   6.280  12.161 -3.2084  1.0668 -0.7343
  674MOL0     H88927   7.743   6.445  12.218 -0.7472 -0.3695  0.6011
  674MOL0     H88928   7.593   6.421  11.964 -6.2152 -1.5998  1.1836
  674MOL0     H88929   7.650   6.562  12.051  1.9708  0.0228  0.4355
  674MOL0     H88930   7.260   6.439  12.264 -1.5797 -0.0013  0.2430
  674MOL0     H88931   7.042   6.468  12.189  2.2597  1.0352  2.6237
  674MOL0     H88932   6.699   6.639  11.819  0.1221 -0.1591 -1.1248
  674MOL0     H88933   6.482   6.544  11.726  2.7277 -1.1556 -2.7660
  674MOL0     H88934   6.253   6.470  11.760 -0.7079 -0.3616  0.4479
  674MOL0     H88935   6.223   6.358  11.895 -1.8081 -1.3749 -0.8002
  674MOL0     H88936   6.151   6.187  11.726  0.4093  1.6680  1.7185
  674MOL0     H88937   6.187   6.313  11.595  2.9283  0.2003  0.2355
  674MOL0     H88938   6.036   6.460  11.722 -0.5221  0.2387  0.7294
  674MOL0     H88939   5.977   6.334  11.820  3.2816  0.2307  1.1522
  674MOL0     H88940   5.932   6.325  11.518 -1.3419 -0.9029 -0.1344
  674MOL0     H88941   5.914   6.209  11.635 -0.0969  0.4709 -4.5971
  674MOL0     H88942   5.763   6.485  11.603 -4.0988 -1.4429 -2.9475
  674MOL0     H88943   5.755   6.392  11.752  2.5647 -1.6913  1.3249
  674MOL0     H88944   5.659   6.198  11.598  3.1980  0.7292 -0.1260
  674MOL0     H88945   5.680   6.314  11.462 -2.8749 -0.3829 -1.0189
  674MOL0     H88946   5.499   6.329  11.714  2.7360  2.1261  0.2936
  674MOL0     H88947   5.518   6.457  11.581  6.1539 -0.3197 -2.6392
  674MOL0     H88948   5.317   6.310  11.544 -0.3247 -0.1376 -1.1480
  674MOL0     H88949   5.425   6.176  11.518  1.7331  0.6527 -0.2020
  674MOL0     H88950   6.508   6.240  12.020  0.7633  0.2066  2.1187
  674MOL0     H88951   6.728   6.315  12.093 -0.4098  0.2593  1.8969
  674MOL0     H88952   7.190   6.542  11.783 -0.5729 -0.7491  0.5363
  674MOL0     H88953   7.436   6.543  11.895  1.2879  2.7485  3.7483
  674MOL0     H88954   9.011   6.816  11.422 -0.2029  0.6785 -1.1817
  674MOL0     H88955   9.144   6.904  11.226 -0.3779 -0.6717 -0.5378
  674MOL0     H88956   9.449   6.717  10.866 -2.1285 -1.2105  0.2446
  674MOL0     H88957   9.553   6.726  10.638 -0.5232  1.0700 -1.9316
  674MOL0     H88958   9.440   6.691  10.382 -1.5298  1.4819  1.2394
  674MOL0     H88959   9.605   6.736  10.438 -0.5764  0.8444  1.5674
  674MOL0     H88960   9.480   6.855  10.195 -1.7693 -3.7948 -0.4832
  674MOL0     H88961   9.654   6.853  10.250  1.1286 -1.7403  1.4999
  674MOL0     H88962   9.493   6.609  10.128  0.8878 -2.4221  2.8063
  674MOL0     H88963   9.658   6.609  10.180 -1.0597 -0.5493  0.0691
  674MOL0     H88964   9.700   6.782  10.018  0.2289 -0.0408 -1.4494
  674MOL0     H88965   9.649   6.621   9.945 -1.0304  0.2740 -1.0181
  674MOL0     H88966   9.329   6.875   9.833 -0.1573 -2.1545  0.9054
  674MOL0     H88967   9.246   6.987  10.507  1.9145 -2.3381 -3.4516
  674MOL0     H88968   9.121   6.958  10.715  0.4927 -0.2382 -0.9083
  675MOL0     O88969   8.920   1.719   3.373  0.0025  0.5608  0.5951
  675MOL0     C88970   8.929   1.843   3.372 -0.1832 -0.4562 -0.0725
  675MOL0     O88971   9.045   1.907   3.410 -0.6616 -1.1348  0.3967
  675MOL0     C88972   9.152   1.834   3.452  1.3888  1.3998  0.6690
  675MOL0     C88973   9.201   1.730   3.369  0.1105  0.2471  0.6871
  675MOL0     C88974   9.315   1.661   3.411  0.3142  1.0971  0.4206
  675MOL0     C88975   9.385   1.701   3.526 -0.0497 -0.3955  0.1883
  675MOL0     O88976   9.501   1.631   3.547  0.1486  0.1298 -0.2985
  675MOL0     C88977   9.572   1.648   3.674  0.7104 -0.5347  0.0050
  675MOL0     C88978   9.497   1.593   3.802 -0.2260 -0.0519  0.4253
  675MOL0     C88979   9.472   1.442   3.814  0.1776 -0.2834  0.3015
  675MOL0     C88980   9.595   1.353   3.847  0.8742 -0.2058  0.5900
  675MOL0     C88981   9.551   1.211   3.810  0.0865  1.1018  0.4960
  675MOL0     C88982   9.674   1.123   3.829 -0.1254  0.2078  0.2053
  675MOL0     C88983   9.629   0.967   3.822  0.5291 -0.6824 -1.0290
  675MOL0     C88984   9.549   0.924   3.943  0.5329 -0.0158  0.2865
  675MOL0     N88985   9.452   0.810   3.914 -0.1592  0.1835 -0.3874
  675MOL0     C88986   9.334   0.809   3.838 -0.4042 -0.3882 -0.0091
  675MOL0     C88987   9.309   0.680   3.805  0.7039  0.5786  0.4051
  675MOL0     C88988   9.178   0.634   3.730  0.2574 -0.2998 -0.3253
  675MOL0     C88989   9.059   0.615   3.819 -0.9472 -0.0436  0.7666
  675MOL0     C88990   9.077   0.494   3.911 -0.8315  0.4345 -0.0535
  675MOL0     C88991   8.962   0.450   3.995 -0.0465  0.5744  0.5532
  675MOL0     O88992   8.935   0.546   4.093 -0.3262  0.5157 -0.5826
  675MOL0     C88993   8.805   0.555   4.140 -0.1006  0.1123 -0.2241
  675MOL0     C88994   8.716   0.450   4.142 -0.1235  0.6602 -0.0633
  675MOL0     C88995   8.585   0.477   4.188  0.2577  0.5002 -1.1543
  675MOL0     C88996   8.541   0.598   4.244  0.1292  1.2811  0.2537
  675MOL0     C88997   8.408   0.620   4.291  0.3764  0.2308 -0.3493
  675MOL0     O88998   8.330   0.508   4.314 -0.0227  0.0935 -0.0960
  675MOL0     C88999   8.201   0.514   4.362 -0.7344 -0.2916  0.0308
  675MOL0     C89000   8.153   0.600   4.460  0.0226  0.3539  0.1977
  675MOL0     C89001   8.024   0.590   4.508 -0.4141 -0.6592 -0.0919
  675MOL0     C89002   7.933   0.511   4.449  0.7022  0.6205 -0.3379
  675MOL0     O89003   7.805   0.508   4.499 -0.1779  0.5793 -0.7331
  675MOL0     C89004   7.707   0.557   4.406 -0.3848  0.0827  0.2141
  675MOL0     C89005   7.588   0.584   4.492  1.0076 -0.6287 -0.3718
  675MOL0     C89006   7.474   0.637   4.403  0.2679  0.7222  0.4126
  675MOL0     C89007   7.347   0.582   4.474  0.7199  0.9674 -0.1030
  675MOL0     C89008   7.224   0.653   4.438 -0.4359 -0.1032  0.0627
  675MOL0     C89009   7.100   0.598   4.519 -0.4921 -0.0344  0.7009
  675MOL0     C89010   6.972   0.664   4.470  0.5684 -1.0187 -0.8758
  675MOL0     C89011   6.972   0.817   4.471 -0.0354  0.6287  0.1566
  675MOL0    Cl89012   6.801   0.879   4.462 -0.3063 -0.1023 -0.2478
  675MOL0     C89013   7.973   0.423   4.351  0.3587  0.3604  0.6360
  675MOL0     C89014   8.109   0.429   4.309 -0.0006 -0.9670  1.1864
  675MOL0     O89015   8.365   0.738   4.284  0.5704  1.2605 -0.5112
  675MOL0     C89016   8.632   0.704   4.237  0.2799  0.7995  0.4641
  675MOL0     C89017   8.768   0.680   4.182 -0.1778 -0.0631  0.7198
  675MOL0     N89018   9.406   0.600   3.864  0.4347  0.3570  0.9849
  675MOL0     N89019   9.480   0.677   3.929 -0.8964  0.2556  0.0003
  675MOL0     C89020   9.345   1.809   3.602  1.4491 -0.5547  0.4995
  675MOL0     C89021   9.223   1.865   3.566  0.0024  0.1645 -0.2793
  675MOL0     C89022   8.813   1.920   3.322 -0.3503  0.6287 -0.9304
  675MOL0     C89023   8.702   1.858   3.271  0.3770  0.0472 -0.7921
  675MOL0     C89024   8.590   1.941   3.251  0.4865  0.0632  0.0848
  675MOL0     C89025   8.578   2.079   3.275  0.6585 -0.8295 -0.5927
  675MOL0     O89026   8.462   2.154   3.251  0.0692  0.2287  0.5204
  675MOL0     C89027   8.480   2.275   3.177 -0.0890 -1.2069  0.6922
  675MOL0     C89028   8.370   2.374   3.224  0.6665  0.3392  1.0895
  675MOL0     C89029   8.388   2.432   3.360 -0.6351 -0.4092  0.2502
  675MOL0     C89030   8.285   2.553   3.378 -0.9021  0.0552  0.3391
  675MOL0     C89031   8.316   2.644   3.484 -0.0927 -0.4109 -1.9497
  675MOL0     C89032   8.348   2.714   3.585  0.6290 -0.2244  0.5677
  675MOL0     C89033   8.683   2.133   3.342 -0.3974  0.0485  0.6140
  675MOL0     C89034   8.804   2.056   3.359  0.5271 -0.3342  0.2331
  675MOL0     H89035   9.160   1.698   3.274 -1.0195 -0.7602  1.4923
  675MOL0     H89036   9.352   1.583   3.345 -0.1217  0.2242  1.1784
  675MOL0     H89037   9.600   1.751   3.695  2.4013 -0.6214 -1.5698
  675MOL0     H89038   9.670   1.598   3.672  1.1701  0.3292  0.4910
  675MOL0     H89039   9.402   1.643   3.823 -0.0728  1.2804 -1.7445
  675MOL0     H89040   9.566   1.621   3.882 -0.3306  0.1721  0.4381
  675MOL0     H89041   9.428   1.417   3.717 -3.2663  0.1289  1.6298
  675MOL0     H89042   9.400   1.431   3.896  1.3977 -0.4135  1.3811
  675MOL0     H89043   9.680   1.395   3.792 -0.7598  0.6052 -1.4831
  675MOL0     H89044   9.609   1.356   3.955 -1.3470 -1.9866  0.9988
  675MOL0     H89045   9.516   1.201   3.707 -2.3294 -2.2658  1.4683
  675MOL0     H89046   9.473   1.177   3.879  0.5807 -1.5931 -0.1286
  675MOL0     H89047   9.703   1.119   3.935 -0.6828 -1.4933  0.3265
  675MOL0     H89048   9.754   1.154   3.762 -1.2823 -1.0639 -1.8647
  675MOL0     H89049   9.558   0.949   3.740  0.0245 -1.4800 -0.4279
  675MOL0     H89050   9.727   0.919   3.818 -0.1778 -2.4304  0.8809
  675MOL0     H89051   9.500   1.012   3.984 -1.1558 -0.6483 -0.2861
  675MOL0     H89052   9.616   0.902   4.027 -2.2577  0.1927  2.7213
  675MOL0     H89053   9.269   0.893   3.815  0.9364  0.2657 -1.5792
  675MOL0     H89054   9.187   0.544   3.668 -1.2969 -1.9662  1.6947
  675MOL0     H89055   9.142   0.716   3.668  2.2589 -0.6581 -2.0718
  675MOL0     H89056   8.968   0.608   3.759  0.2674 -1.0075 -1.0466
  675MOL0     H89057   9.052   0.713   3.867 -2.3330  0.6996 -0.8235
  675MOL0     H89058   9.100   0.410   3.845  2.2460  0.4536  0.8410
  675MOL0     H89059   9.169   0.516   3.966 -2.1347  3.8087  1.0167
  675MOL0     H89060   8.978   0.352   4.041  1.5639  0.4880 -0.1278
  675MOL0     H89061   8.876   0.446   3.926  2.6383  1.3580 -3.1349
  675MOL0     H89062   8.736   0.345   4.124  1.3026  0.4767  2.2070
  675MOL0     H89063   8.515   0.394   4.186  0.3981  0.3246  0.2057
  675MOL0     H89064   8.226   0.667   4.506  0.8272  0.6987 -1.4997
  675MOL0     H89065   7.995   0.650   4.593  2.3375  0.4484  0.1735
  675MOL0     H89066   7.685   0.485   4.327  3.9875 -1.7372  0.3565
  675MOL0     H89067   7.745   0.644   4.351 -0.3133 -0.4073 -0.5316
  675MOL0     H89068   7.617   0.655   4.570 -0.2400  1.0540 -1.3753
  675MOL0     H89069   7.565   0.485   4.533 -0.8521  0.2373  0.8475
  675MOL0     H89070   7.477   0.609   4.298  0.6977  0.0248  0.6066
  675MOL0     H89071   7.474   0.746   4.403 -0.6454  0.7352  0.0412
  675MOL0     H89072   7.340   0.474   4.459 -3.1840  0.8210  1.4510
  675MOL0     H89073   7.355   0.603   4.581 -0.2018  0.4530  0.0821
  675MOL0     H89074   7.209   0.655   4.330  2.4767  0.2224 -0.4003
  675MOL0     H89075   7.243   0.757   4.462  1.6568 -0.8954  2.2335
  675MOL0     H89076   7.121   0.611   4.625  1.7841 -1.3793  0.4751
  675MOL0     H89077   7.085   0.490   4.505  4.3005 -0.9893  1.0812
  675MOL0     H89078   6.961   0.634   4.365  1.0123 -1.6301 -0.7556
  675MOL0     H89079   6.895   0.626   4.539 -1.2154  0.9246 -1.6617
  675MOL0     H89080   7.019   0.847   4.377  1.5513 -0.7583  0.4450
  675MOL0     H89081   7.028   0.872   4.546 -1.2071  1.5035  0.4168
  675MOL0     H89082   7.895   0.364   4.303  0.1591 -0.3223  1.7769
  675MOL0     H89083   8.142   0.363   4.229 -0.1439 -2.3017  2.1822
  675MOL0     H89084   8.592   0.803   4.257 -3.9294 -0.0293 -2.5385
  675MOL0     H89085   8.832   0.766   4.162 -0.2307  0.1420  1.3963
  675MOL0     H89086   9.401   1.850   3.686  1.6261 -0.3529  0.2849
  675MOL0     H89087   9.183   1.952   3.618 -2.4838 -0.8854 -0.2937
  675MOL0     H89088   8.702   1.752   3.246  1.8244  0.3994 -2.5313
  675MOL0     H89089   8.504   1.886   3.214  0.1551 -0.5428  1.6813
  675MOL0     H89090   8.472   2.263   3.069 -0.5893  3.6708 -0.0387
  675MOL0     H89091   8.579   2.307   3.209 -1.0149 -1.6176  4.4841
  675MOL0     H89092   8.362   2.458   3.155 -2.4558  0.2927  1.2615
  675MOL0     H89093   8.282   2.310   3.218  1.9620 -1.3513 -3.3272
  675MOL0     H89094   8.489   2.464   3.387 -1.0687 -0.5305  2.2350
  675MOL0     H89095   8.360   2.353   3.431  2.0153 -0.7408  1.0401
  675MOL0     H89096   8.272   2.614   3.288  3.1742 -1.3553 -1.4686
  675MOL0     H89097   8.189   2.511   3.412 -0.6339 -1.6746 -0.9165
  675MOL0     H89098   8.382   2.771   3.670 -0.3770  1.7302 -0.2708
  675MOL0     H89099   8.672   2.240   3.359 -2.1425  0.4178 -2.1348
  675MOL0     H89100   8.892   2.104   3.401  0.0304  1.3576 -0.5436
  676MOL0     O89101   1.967   2.416   2.595 -0.5149 -0.0543  0.6667
  676MOL0     C89102   2.043   2.402   2.497 -0.3146  0.6930 -0.8374
  676MOL0     O89103   2.018   2.455   2.372 -0.1201  0.4122  1.0609
  676MOL0     C89104   1.908   2.532   2.342 -0.5683  0.6352  0.1059
  676MOL0     C89105   1.845   2.622   2.437 -0.2873  0.0336  0.8321
  676MOL0     C89106   1.738   2.706   2.392  0.3065 -0.7607 -0.0728
  676MOL0     C89107   1.676   2.684   2.273 -0.2290 -0.6617  0.4493
  676MOL0     O89108   1.582   2.770   2.234  0.0121  0.1483 -0.1922
  676MOL0     C89109   1.448   2.751   2.282 -0.3260 -0.2302 -0.4426
  676MOL0     C89110   1.359   2.827   2.190  0.4020  0.7305 -0.4332
  676MOL0     C89111   1.212   2.812   2.242 -0.8718  0.1350 -0.0421
  676MOL0     C89112   1.111   2.910   2.181  0.8212 -0.7071  0.3466
  676MOL0     C89113   0.965   2.893   2.229 -0.3872 -0.8664  0.0690
  676MOL0     C89114   0.875   2.797   2.146  0.5804 -0.1101 -0.4975
  676MOL0     C89115   0.739   2.809   2.200  0.0361 -0.1647  0.2493
  676MOL0     C89116   0.638   2.739   2.111 -0.0544 -0.1756  0.1267
  676MOL0     N89117   0.506   2.716   2.177  0.0064 -0.0577  0.8131
  676MOL0     C89118   0.465   2.609   2.255 -0.3271 -0.5162 -0.8783
  676MOL0     C89119   0.341   2.650   2.312  0.1803 -0.2238  0.9413
  676MOL0     C89120   0.273   2.586   2.435 -0.4673 -0.4800 -0.3247
  676MOL0     C89121   0.130   2.548   2.409 -0.0090 -0.3492  0.2252
  676MOL0     C89122   0.046   2.668   2.364  0.2406  0.7809 -0.3945
  676MOL0     C89123  -0.105   2.643   2.380 -0.7704 -0.4497 -0.6606
  676MOL0     O89124  -0.142   2.674   2.510 -0.0002  0.2444 -0.3636
  676MOL0     C89125  -0.278   2.708   2.526  0.1484 -0.7547 -1.0714
  676MOL0     C89126  -0.390   2.664   2.448 -0.0099  1.6840  0.2271
  676MOL0     C89127  -0.523   2.693   2.468  0.1745  0.1198  0.1834
  676MOL0     C89128  -0.562   2.773   2.578 -0.8276 -0.0477  0.1960
  676MOL0     C89129  -0.703   2.815   2.608 -0.2011 -1.0503  0.9169
  676MOL0     O89130  -0.802   2.782   2.514 -0.5864  0.1565  0.9978
  676MOL0     C89131  -0.930   2.835   2.531 -0.2294 -0.6103 -0.1399
  676MOL0     C89132  -0.965   2.958   2.591  0.2541  1.1346  0.6611
  676MOL0     C89133  -1.102   2.990   2.600 -0.3728  0.5294  0.6077
  676MOL0     C89134  -1.199   2.917   2.535  0.0213  0.4772  1.2289
  676MOL0     O89135  -1.334   2.951   2.516 -0.6198 -0.7701 -0.1193
  676MOL0     C89136  -1.392   3.057   2.590 -1.3787 -0.2217 -0.7605
  676MOL0     C89137  -1.539   3.078   2.557 -0.1874  0.0769 -0.1179
  676MOL0     C89138  -1.594   3.183   2.658 -0.7393  0.0954  0.7665
  676MOL0     C89139  -1.751   3.175   2.662  1.2543  0.3863 -0.3008
  676MOL0     C89140  -1.809   3.220   2.800 -0.5311  0.0058 -0.9575
  676MOL0     C89141  -1.961   3.193   2.827 -0.6079 -0.0725 -0.2019
  676MOL0     C89142  -1.998   3.224   2.968  0.7561 -0.0117 -0.1822
  676MOL0     C89143  -2.139   3.179   3.008 -0.9155 -0.8387  0.5602
  676MOL0    Cl89144  -2.192   3.198   3.186 -0.3306 -0.0085  0.0277
  676MOL0     C89145  -1.161   2.803   2.465  0.9553 -0.1301 -0.3258
  676MOL0     C89146  -1.028   2.758   2.470  0.2425  0.5464  0.2474
  676MOL0     O89147  -0.721   2.878   2.713 -0.4062  0.0962  0.3724
  676MOL0     C89148  -0.450   2.817   2.664 -0.3835  0.0423  0.9424
  676MOL0     C89149  -0.316   2.794   2.633 -0.5832  1.2461  0.0940
  676MOL0     N89150   0.313   2.769   2.247  0.4378  0.0817 -0.5081
  676MOL0     N89151   0.414   2.811   2.181 -0.4701  0.6939  0.4381
  676MOL0     C89152   1.728   2.595   2.181  0.1555 -0.5233 -0.7500
  676MOL0     C89153   1.851   2.528   2.214 -0.4378  0.2055  0.7725
  676MOL0     C89154   2.160   2.306   2.493 -0.3679 -0.2945  0.3801
  676MOL0     C89155   2.242   2.283   2.380  0.4662  1.3021 -0.8399
  676MOL0     C89156   2.357   2.206   2.390  0.3014  0.4912  0.3399
  676MOL0     C89157   2.403   2.148   2.508 -0.6717  0.0072  0.0699
  676MOL0     O89158   2.518   2.074   2.513  0.1433 -0.0345  0.9760
  676MOL0     C89159   2.577   2.018   2.396  0.4398  0.3023 -0.0753
  676MOL0     C89160   2.637   1.893   2.440 -0.9844  0.4513 -0.3705
  676MOL0     C89161   2.554   1.764   2.455 -0.1200  0.0967 -0.1467
  676MOL0     C89162   2.554   1.667   2.340 -0.8144  0.0202  0.1854
  676MOL0     C89163   2.684   1.653   2.277 -0.9390 -0.2769 -0.5513
  676MOL0     C89164   2.793   1.636   2.234 -0.3731  0.7855  0.0164
  676MOL0     C89165   2.328   2.177   2.625 -1.0504 -0.9274  0.8007
  676MOL0     C89166   2.219   2.266   2.618 -0.5522 -0.0394 -0.7421
  676MOL0     H89167   1.878   2.633   2.540 -0.7482 -1.3324  1.1390
  676MOL0     H89168   1.690   2.780   2.456 -1.5802 -0.3557 -1.8259
  676MOL0     H89169   1.440   2.775   2.388 -1.1335 -3.7466  0.4321
  676MOL0     H89170   1.415   2.647   2.280 -3.2483  0.5140  1.8227
  676MOL0     H89171   1.369   2.773   2.095  3.4315 -1.0063  0.7338
  676MOL0     H89172   1.389   2.930   2.168  2.1344  0.1790 -0.8670
  676MOL0     H89173   1.214   2.828   2.350  2.1356  0.9397 -0.1303
  676MOL0     H89174   1.182   2.712   2.210  1.5400 -1.0591  1.1725
  676MOL0     H89175   1.155   3.007   2.208  0.9889 -1.4735  3.2067
  676MOL0     H89176   1.122   2.906   2.073  3.5590  0.7908  0.4723
  676MOL0     H89177   0.927   2.995   2.215 -1.3534 -0.9993  1.5030
  676MOL0     H89178   0.955   2.876   2.336 -0.3950 -3.9659 -0.3351
  676MOL0     H89179   0.913   2.695   2.161  3.6976  0.9066 -0.7213
  676MOL0     H89180   0.876   2.808   2.037 -1.1374 -1.4701 -0.6950
  676MOL0     H89181   0.742   2.782   2.306  3.5677 -1.9935 -0.1650
  676MOL0     H89182   0.703   2.912   2.210  1.6722  0.3734  1.0426
  676MOL0     H89183   0.676   2.640   2.083  0.3004 -0.1333  0.4474
  676MOL0     H89184   0.624   2.798   2.020 -0.8437 -0.4127  0.0838
  676MOL0     H89185   0.524   2.532   2.305 -1.8818  0.5503  3.0305
  676MOL0     H89186   0.269   2.643   2.528 -0.7269 -1.8670  0.5397
  676MOL0     H89187   0.320   2.490   2.458  2.2224  0.8718  0.2428
  676MOL0     H89188   0.090   2.483   2.487 -2.4951  0.2808 -0.4343
  676MOL0     H89189   0.136   2.473   2.330  0.6704  0.2601 -0.3078
  676MOL0     H89190   0.093   2.757   2.406  4.1189 -1.5869  0.8140
  676MOL0     H89191   0.065   2.658   2.257 -0.4610 -2.4045 -0.3185
  676MOL0     H89192  -0.133   2.538   2.363  0.6241 -1.1298  0.9319
  676MOL0     H89193  -0.162   2.702   2.308 -1.6029 -1.5126 -0.9034
  676MOL0     H89194  -0.362   2.584   2.380  2.9109  0.0457  3.0995
  676MOL0     H89195  -0.595   2.654   2.397 -2.0075 -2.4011  3.4738
  676MOL0     H89196  -0.892   3.014   2.648  0.7503  0.7183  0.4416
  676MOL0     H89197  -1.136   3.085   2.641  2.1112  2.3020 -1.1575
  676MOL0     H89198  -1.340   3.148   2.559  0.5792  0.1395  3.0134
  676MOL0     H89199  -1.378   3.031   2.695 -2.0871  1.2020 -0.2891
  676MOL0     H89200  -1.598   2.987   2.570  2.1587 -1.3145  1.6247
  676MOL0     H89201  -1.552   3.108   2.453  1.4424 -2.9831 -1.3132
  676MOL0     H89202  -1.568   3.285   2.629  1.1319 -0.4577  0.3550
  676MOL0     H89203  -1.550   3.166   2.757 -1.1368  0.5994  1.0379
  676MOL0     H89204  -1.782   3.238   2.578 -0.9762 -1.9330 -1.3663
  676MOL0     H89205  -1.791   3.075   2.644 -0.1660  0.8809 -0.0325
  676MOL0     H89206  -1.781   3.325   2.816 -1.4438 -0.0576  1.5364
  676MOL0     H89207  -1.749   3.158   2.866 -0.7567  0.4502 -0.3188
  676MOL0     H89208  -1.979   3.086   2.817  0.9858 -0.1556 -3.6379
  676MOL0     H89209  -2.016   3.244   2.747 -1.3052 -1.7381 -0.8086
  676MOL0     H89210  -1.931   3.155   3.021 -0.8916 -0.2966  1.6394
  676MOL0     H89211  -1.990   3.327   3.004 -1.8068 -0.0178  0.5966
  676MOL0     H89212  -2.176   3.081   2.976  0.6218 -2.0199  2.1886
  676MOL0     H89213  -2.207   3.248   2.958  0.3663  0.1369  0.1151
  676MOL0     H89214  -1.238   2.749   2.410  0.0318  1.4522 -0.6514
  676MOL0     H89215  -1.006   2.663   2.422  0.9134  0.0656  1.4645
  676MOL0     H89216  -0.481   2.878   2.748  2.0003  0.0596  1.8915
  676MOL0     H89217  -0.246   2.839   2.702 -0.2241 -2.3064  2.2905
  676MOL0     H89218   1.665   2.578   2.094  0.2745 -0.6894 -0.8048
  676MOL0     H89219   1.898   2.469   2.137  0.5185  0.1269  1.3955
  676MOL0     H89220   2.220   2.333   2.287 -0.9122  2.1371 -0.0991
  676MOL0     H89221   2.394   2.173   2.294  1.1893 -4.1670  2.0022
  676MOL0     H89222   2.651   2.086   2.354  0.4085  0.3192 -0.1021
  676MOL0     H89223   2.509   1.995   2.314  0.1196  0.5201  0.1266
  676MOL0     H89224   2.733   1.880   2.390 -0.1260  0.0507  1.3436
  676MOL0     H89225   2.674   1.912   2.541  1.9660 -2.7086 -0.6609
  676MOL0     H89226   2.451   1.783   2.488 -2.1446 -3.1197 -3.7560
  676MOL0     H89227   2.597   1.713   2.541 -1.7516  1.7647  1.7642
  676MOL0     H89228   2.525   1.572   2.385 -0.3126  0.3214  1.1830
  676MOL0     H89229   2.492   1.700   2.256 -1.1200 -0.1241  0.3554
  676MOL0     H89230   2.891   1.612   2.197 -1.2727 -0.1615 -1.8903
  676MOL0     H89231   2.363   2.129   2.716  0.7606  4.0709  3.0613
  676MOL0     H89232   2.181   2.288   2.718  1.7603 -1.4237  0.5338
  677MOL0     O89233   9.498   6.037   5.264 -0.4615 -0.2109 -0.4813
  677MOL0     C89234   9.549   5.967   5.190 -0.3785  0.0886 -0.1324
  677MOL0     O89235   9.483   5.891   5.093  0.1857 -0.1418  0.2795
  677MOL0     C89236   9.344   5.896   5.085  0.0189  0.0262  0.9541
  677MOL0     C89237   9.285   5.778   5.054  1.0178 -0.1281 -0.2453
  677MOL0     C89238   9.147   5.776   5.029 -0.0455  0.5432 -0.1051
  677MOL0     C89239   9.069   5.892   5.035 -0.4842  0.4432 -0.6314
  677MOL0     O89240   8.935   5.882   5.024  0.4974 -0.5329 -0.5570
  677MOL0     C89241   8.846   5.955   5.105  0.3545  0.0171  0.2430
  677MOL0     C89242   8.709   5.880   5.116 -0.2939  0.1673  0.6318
  677MOL0     C89243   8.601   5.971   5.174  0.9285 -0.0736 -0.6110
  677MOL0     C89244   8.460   5.908   5.169 -0.4348 -0.6189 -0.3166
  677MOL0     C89245   8.363   6.004   5.220 -0.3290 -0.2971  0.4776
  677MOL0     C89246   8.227   5.928   5.238 -0.3301 -0.1562  0.4115
  677MOL0     C89247   8.125   6.040   5.281  0.3573  0.1267 -0.3018
  677MOL0     C89248   7.983   5.997   5.294 -1.1210 -0.0812 -0.1668
  677MOL0     N89249   7.916   5.983   5.164 -0.2288 -0.2291 -0.7110
  677MOL0     C89250   7.925   5.880   5.078 -0.9054 -0.1021 -0.2282
  677MOL0     C89251   7.828   5.879   4.994 -0.0275 -0.5663  0.2995
  677MOL0     C89252   7.808   5.779   4.882  0.2757 -0.5072  0.1173
  677MOL0     C89253   7.881   5.826   4.760  0.0790 -0.1647  0.2767
  677MOL0     C89254   7.870   5.704   4.660  0.4401  0.5281  0.1040
  677MOL0     C89255   7.733   5.670   4.613  0.2093 -0.8022  0.2076
  677MOL0     O89256   7.738   5.561   4.521  0.1043 -0.1838 -0.1606
  677MOL0     C89257   7.641   5.538   4.427  0.5811  0.2029 -0.6093
  677MOL0     C89258   7.519   5.607   4.416  0.1311 -0.0584  0.4381
  677MOL0     C89259   7.419   5.569   4.328  0.4401 -0.1120 -0.5702
  677MOL0     C89260   7.439   5.456   4.246  0.3459 -0.0272 -0.1612
  677MOL0     C89261   7.338   5.417   4.145  0.3458 -0.1393 -0.1527
  677MOL0     O89262   7.380   5.325   4.054  0.0345 -0.3603  0.0758
  677MOL0     C89263   7.295   5.253   3.979  0.8079  0.2437 -0.1289
  677MOL0     C89264   7.182   5.185   4.046  0.6842 -0.3008  0.5927
  677MOL0     C89265   7.075   5.125   3.975  0.3171 -0.2883  0.7128
  677MOL0     C89266   7.089   5.110   3.839 -0.2508 -0.6120 -0.3583
  677MOL0     O89267   6.994   5.059   3.755  0.1492  0.1246 -0.2952
  677MOL0     C89268   6.859   5.081   3.784 -0.8890 -0.1237  0.4715
  677MOL0     C89269   6.777   5.057   3.652  0.0587 -0.6405 -0.1294
  677MOL0     C89270   6.629   5.083   3.674 -0.5790 -0.0939 -0.6282
  677MOL0     C89271   6.566   5.063   3.535  0.7185 -0.4042 -0.3682
  677MOL0     C89272   6.415   5.063   3.553 -0.2769  0.8152 -0.1676
  677MOL0     C89273   6.353   5.202   3.571 -0.3471  0.4288 -0.2297
  677MOL0     C89274   6.380   5.308   3.468  0.8625  0.5077 -0.6050
  677MOL0     C89275   6.297   5.434   3.503 -0.0376 -1.1521  0.0512
  677MOL0    Cl89276   6.119   5.408   3.515  0.4257 -0.0484  0.1486
  677MOL0     C89277   7.201   5.172   3.772  0.3512 -0.0491 -0.3783
  677MOL0     C89278   7.296   5.250   3.840  0.0659  0.0828  0.1996
  677MOL0     O89279   7.222   5.473   4.151 -0.0829 -0.0057  0.5506
  677MOL0     C89280   7.556   5.372   4.270  0.1335 -0.2339 -0.2974
  677MOL0     C89281   7.657   5.417   4.357 -0.3288 -0.2345 -0.4024
  677MOL0     N89282   7.739   5.976   5.035  0.1163 -0.8266 -0.3621
  677MOL0     N89283   7.796   6.034   5.135 -0.1615 -0.6410 -0.6009
  677MOL0     C89284   9.129   6.016   5.065  0.0530 -0.3148 -0.1032
  677MOL0     C89285   9.266   6.017   5.082 -0.5813  0.0382  0.1416
  677MOL0     C89286   9.697   5.948   5.185 -0.4794  0.2208 -0.4416
  677MOL0     C89287   9.773   5.859   5.105  0.9364 -0.2820  0.1750
  677MOL0     C89288   9.907   5.847   5.127 -0.2828  0.6883  0.4166
  677MOL0     C89289   9.983   5.921   5.221  0.1072  0.1012 -0.1240
  677MOL0     O89290  10.114   5.908   5.241 -0.0876 -0.0325  0.0200
  677MOL0     C89291  10.195   5.799   5.178  0.2199 -0.7891 -0.2882
  677MOL0     C89292  10.222   5.844   5.041 -0.6345 -0.0475  1.0123
  677MOL0     C89293  10.291   5.740   4.945 -0.1084 -0.2358  0.0327
  677MOL0     C89294  10.439   5.709   4.996  0.2770 -0.3039 -0.5832
  677MOL0     C89295  10.533   5.806   4.935  0.0390  0.3288 -0.2257
  677MOL0     C89296  10.612   5.871   4.877 -0.4308  0.0342 -0.6594
  677MOL0     C89297   9.918   6.019   5.287  0.2565 -0.1834  1.0540
  677MOL0     C89298   9.776   6.029   5.272  0.0875 -0.8644 -0.3230
  677MOL0     H89299   9.338   5.683   5.051 -2.4835 -2.2042 -1.4025
  677MOL0     H89300   9.101   5.681   5.005  0.0719  0.5260 -0.2549
  677MOL0     H89301   8.845   6.058   5.067 -0.0712 -0.4909 -1.1597
  677MOL0     H89302   8.878   5.962   5.209 -0.1618  0.4789  0.3788
  677MOL0     H89303   8.730   5.787   5.169  1.1983  0.4469  0.5828
  677MOL0     H89304   8.670   5.842   5.021  0.8798 -2.5808  1.1675
  677MOL0     H89305   8.592   6.056   5.105  0.1584  0.1720 -0.2136
  677MOL0     H89306   8.634   6.006   5.273  2.0564  0.5818 -1.1961
  677MOL0     H89307   8.425   5.894   5.066 -0.4084  1.3235 -0.6208
  677MOL0     H89308   8.459   5.814   5.225 -1.4956 -1.9781 -2.4800
  677MOL0     H89309   8.339   6.075   5.140 -1.2841 -0.5673  0.5041
  677MOL0     H89310   8.397   6.071   5.300  0.9408  0.6954 -0.8405
  677MOL0     H89311   8.222   5.857   5.322  1.0071  1.5988  2.0625
  677MOL0     H89312   8.196   5.883   5.144 -1.0773  2.0794 -0.4799
  677MOL0     H89313   8.161   6.089   5.372 -2.5100 -0.6895  1.3959
  677MOL0     H89314   8.122   6.117   5.204 -1.9520 -0.6431 -1.0553
  677MOL0     H89315   7.926   6.068   5.354 -0.9284 -0.9223  1.0536
  677MOL0     H89316   7.979   5.900   5.345  1.8233  0.3081  0.9800
  677MOL0     H89317   8.007   5.809   5.067 -2.8735 -2.2184 -2.1828
  677MOL0     H89318   7.703   5.758   4.864  0.4999 -0.3140 -1.5183
  677MOL0     H89319   7.845   5.679   4.905 -4.1969 -2.4630 -0.1755
  677MOL0     H89320   7.983   5.849   4.791 -0.2940  1.5963  0.2966
  677MOL0     H89321   7.845   5.921   4.719  1.1794  0.7583  1.3757
  677MOL0     H89322   7.927   5.728   4.570 -0.8508  3.6890  0.0159
  677MOL0     H89323   7.911   5.608   4.694 -1.5946 -0.4532 -0.0331
  677MOL0     H89324   7.702   5.763   4.565  1.1315 -0.9969 -0.8165
  677MOL0     H89325   7.661   5.648   4.693  0.4331  1.7438  1.1858
  677MOL0     H89326   7.503   5.690   4.484 -0.4568 -1.8272  2.5747
  677MOL0     H89327   7.334   5.637   4.324  1.9290  1.7904 -0.9518
  677MOL0     H89328   7.182   5.183   4.155 -1.6911  0.2215  0.6652
  677MOL0     H89329   6.989   5.089   4.032 -1.5272  0.7126 -1.3222
  677MOL0     H89330   6.827   5.180   3.817 -0.1510  0.3605 -0.2183
  677MOL0     H89331   6.817   5.009   3.854 -1.2661 -1.2039 -0.8222
  677MOL0     H89332   6.792   4.955   3.615 -3.3625 -0.4009 -2.6192
  677MOL0     H89333   6.818   5.130   3.582 -1.4361 -0.2608 -0.6471
  677MOL0     H89334   6.616   5.187   3.708 -0.6776 -0.1358 -0.5377
  677MOL0     H89335   6.583   5.018   3.749 -0.8509  1.9462  1.0926
  677MOL0     H89336   6.592   5.135   3.456  0.0283  2.1664  1.6213
  677MOL0     H89337   6.587   4.960   3.506 -1.9469 -2.0132  2.7899
  677MOL0     H89338   6.380   4.994   3.630  2.1387 -1.9604 -1.3888
  677MOL0     H89339   6.365   5.028   3.462 -0.0828  1.0617 -0.3732
  677MOL0     H89340   6.393   5.238   3.666 -0.5906 -0.2463  0.1336
  677MOL0     H89341   6.246   5.182   3.577 -0.3473 -0.2516 -1.7308
  677MOL0     H89342   6.488   5.323   3.460  0.6198  2.2999 -0.9922
  677MOL0     H89343   6.348   5.269   3.371 -0.4328  0.7628 -0.2924
  677MOL0     H89344   6.308   5.505   3.421 -0.8858 -2.4680 -1.2527
  677MOL0     H89345   6.342   5.489   3.585 -0.1282  0.3596 -0.8797
  677MOL0     H89346   7.207   5.166   3.664  2.7396 -0.4867 -0.2868
  677MOL0     H89347   7.376   5.294   3.780  0.6981  0.6226  1.4093
  677MOL0     H89348   7.574   5.278   4.218  0.9058  0.8733 -2.1630
  677MOL0     H89349   7.755   5.372   4.357 -0.7669 -1.2178 -1.1360
  677MOL0     H89350   9.064   6.103   5.061  0.3340 -0.0553  0.7416
  677MOL0     H89351   9.307   6.115   5.101 -2.9873  0.4449  4.6990
  677MOL0     H89352   9.723   5.788   5.041  0.6295 -0.9402  1.1200
  677MOL0     H89353   9.943   5.762   5.069 -3.5097 -0.1912 -0.5285
  677MOL0     H89354  10.135   5.707   5.183  0.2236 -0.7941 -0.3350
  677MOL0     H89355  10.282   5.778   5.241  2.7834  3.2305 -2.0857
  677MOL0     H89356  10.132   5.883   4.993 -0.7238  4.1933  4.0407
  677MOL0     H89357  10.287   5.931   5.041  0.0085 -0.4184 -1.9778
  677MOL0     H89358  10.290   5.784   4.846 -1.9649  0.4841  0.3275
  677MOL0     H89359  10.225   5.653   4.933 -3.3614  1.7043  2.3265
  677MOL0     H89360  10.448   5.711   5.105  1.6277 -2.8065 -0.5631
  677MOL0     H89361  10.466   5.606   4.968 -0.1007 -0.3093 -0.9378
  677MOL0     H89362  10.695   5.903   4.818 -2.4525 -1.1945 -4.4693
  677MOL0     H89363   9.981   6.083   5.347  0.7587  1.6075 -1.2193
  677MOL0     H89364   9.728   6.103   5.335 -2.2392 -1.5327 -1.2334
  678MOL0     O89365   7.556   0.121   2.050  0.2615 -0.6402  0.0862
  678MOL0     C89366   7.519   0.070   2.155  1.1697  1.0227 -0.4599
  678MOL0     O89367   7.610   0.013   2.249  0.4884  0.0384 -0.4525
  678MOL0     C89368   7.740   0.035   2.222  0.0868 -0.5678 -0.7317
  678MOL0     C89369   7.798   0.160   2.260 -0.3196 -0.6791  0.2444
  678MOL0     C89370   7.930   0.180   2.219 -0.4040 -0.8660  0.3248
  678MOL0     C89371   8.004   0.091   2.142  0.1179  0.4540 -0.4115
  678MOL0     O89372   8.138   0.133   2.116 -0.0903 -0.2090 -0.6501
  678MOL0     C89373   8.228   0.046   2.037 -0.6255 -0.1866  0.0629
  678MOL0     C89374   8.288  -0.091   2.093  0.6766  0.7560 -0.6551
  678MOL0     C89375   8.309  -0.084   2.251 -0.1081  0.0354 -0.0729
  678MOL0     C89376   8.415  -0.174   2.306 -0.0147  0.9828 -0.7558
  678MOL0     C89377   8.557  -0.105   2.297  0.3303  0.0895 -0.3478
  678MOL0     C89378   8.663  -0.191   2.373  0.2271  0.2880  0.1248
  678MOL0     C89379   8.799  -0.133   2.353 -0.5703 -0.7131 -0.3420
  678MOL0     C89380   8.908  -0.214   2.430  0.5056 -0.2762 -0.4645
  678MOL0     N89381   9.035  -0.152   2.467  0.5635  0.4358  0.0058
  678MOL0     C89382   9.057  -0.018   2.462  0.2991  0.2009 -0.2085
  678MOL0     C89383   9.169   0.004   2.536  0.3247 -0.6263 -0.0667
  678MOL0     C89384   9.231   0.134   2.569 -0.0208 -0.7228 -1.0002
  678MOL0     C89385   9.206   0.178   2.718  0.3922 -0.7782  0.9442
  678MOL0     C89386   9.190   0.068   2.828 -0.4369  0.2175  0.4414
  678MOL0     C89387   9.213   0.120   2.964  0.4150 -0.3867  0.7181
  678MOL0     O89388   9.099   0.201   2.994  0.5825 -0.0944  0.2835
  678MOL0     C89389   8.994   0.142   3.061  1.2464  0.0584 -0.4968
  678MOL0     C89390   8.974   0.013   3.115 -0.9302 -0.0250 -0.5044
  678MOL0     C89391   8.857  -0.025   3.176  0.6064 -0.4027 -0.1629
  678MOL0     C89392   8.741   0.065   3.186 -0.4184 -0.4794  0.4382
  678MOL0     C89393   8.614   0.030   3.258  0.4732 -0.2602 -0.5938
  678MOL0     O89394   8.512   0.112   3.255 -0.0472  0.3137  0.1538
  678MOL0     C89395   8.397   0.060   3.310 -0.0568 -0.6539 -0.0164
  678MOL0     C89396   8.305   0.006   3.234 -0.6766  0.3147 -0.1495
  678MOL0     C89397   8.193  -0.064   3.276  0.5984  0.0275 -0.4137
  678MOL0     C89398   8.165  -0.066   3.417  0.7264 -0.6219  0.4967
  678MOL0     O89399   8.071  -0.138   3.479  0.8926  0.1373 -0.0706
  678MOL0     C89400   7.985  -0.238   3.415 -1.2284 -1.0228 -0.2943
  678MOL0     C89401   7.912  -0.311   3.533  0.0010 -0.3170  0.9265
  678MOL0     C89402   7.821  -0.413   3.477  0.1529 -0.0593  0.0792
  678MOL0     C89403   7.736  -0.476   3.593 -0.8234 -0.6665  0.2120
  678MOL0     C89404   7.657  -0.584   3.524  0.2926 -0.5928 -0.6000
  678MOL0     C89405   7.551  -0.624   3.632 -0.2624 -0.0589  0.0850
  678MOL0     C89406   7.488  -0.764   3.590 -0.3760  0.2001  0.2578
  678MOL0     C89407   7.435  -0.851   3.712 -0.3123 -0.2903  0.6928
  678MOL0    Cl89408   7.305  -0.763   3.792  0.3755 -0.4665 -0.2048
  678MOL0     C89409   8.248   0.016   3.495  1.2897 -0.2954 -0.5409
  678MOL0     C89410   8.364   0.073   3.447  0.5150 -0.8578 -0.2279
  678MOL0     O89411   8.611  -0.088   3.295 -0.1033  0.2625  0.9009
  678MOL0     C89412   8.755   0.191   3.135 -0.2944 -0.4730  0.0574
  678MOL0     C89413   8.887   0.230   3.075 -0.0993  1.1257  0.9365
  678MOL0     N89414   9.227  -0.124   2.562 -0.8352  0.8065  0.1105
  678MOL0     N89415   9.145  -0.214   2.520  0.0828 -0.5128  0.4344
  678MOL0     C89416   7.951  -0.036   2.108  0.2953 -0.2503  0.0028
  678MOL0     C89417   7.812  -0.063   2.151  0.3087 -0.4271 -0.7669
  678MOL0     C89418   7.376   0.087   2.210 -0.2386  0.0870 -0.3099
  678MOL0     C89419   7.355   0.055   2.349 -0.6139 -0.0150 -0.7861
  678MOL0     C89420   7.218   0.069   2.391 -0.7202  0.2147 -0.2052
  678MOL0     C89421   7.116   0.096   2.303 -0.8971 -0.4544  0.2491
  678MOL0     O89422   6.992   0.116   2.359  0.4480 -0.1102  0.2127
  678MOL0     C89423   6.899   0.219   2.321  0.0305  0.0294 -0.9655
  678MOL0     C89424   6.792   0.141   2.229  0.8823 -0.3278 -0.8127
  678MOL0     C89425   6.640   0.172   2.229 -0.5157 -0.1813  0.2278
  678MOL0     C89426   6.542   0.052   2.236 -0.0835  1.2325 -0.0220
  678MOL0     C89427   6.414   0.116   2.258 -0.0892 -0.3814  0.5475
  678MOL0     C89428   6.291   0.150   2.262  0.2601  0.0323  0.3778
  678MOL0     C89429   7.144   0.112   2.169  0.9595 -0.2792  0.3970
  678MOL0     C89430   7.272   0.124   2.121  0.7637  0.0592  1.1095
  678MOL0     H89431   7.738   0.242   2.299  1.6996  1.7990 -1.5195
  678MOL0     H89432   7.966   0.282   2.226  1.1185 -1.4005  0.6481
  678MOL0     H89433   8.315   0.106   2.008 -0.9843 -0.1795 -1.0405
  678MOL0     H89434   8.181   0.032   1.940 -3.3009  0.7956  1.1321
  678MOL0     H89435   8.374  -0.124   2.034 -1.2905 -0.5026 -3.0409
  678MOL0     H89436   8.219  -0.174   2.071  0.9834  0.4060 -0.3200
  678MOL0     H89437   8.211  -0.113   2.290  0.8401 -2.4838  0.6419
  678MOL0     H89438   8.328   0.020   2.281  1.3838 -0.8627  2.4829
  678MOL0     H89439   8.394  -0.194   2.411  1.3909 -0.2651 -0.6723
  678MOL0     H89440   8.423  -0.270   2.254  1.3972 -0.3942  1.8164
  678MOL0     H89441   8.564  -0.004   2.337 -0.7659 -0.2847  0.8317
  678MOL0     H89442   8.588  -0.111   2.192  0.2071 -0.8153 -0.3382
  678MOL0     H89443   8.661  -0.291   2.329  1.1105  0.9182 -1.4196
  678MOL0     H89444   8.638  -0.195   2.480 -0.0120  1.7891  0.1444
  678MOL0     H89445   8.829  -0.121   2.249  1.3973  2.9980  0.4815
  678MOL0     H89446   8.804  -0.031   2.392  0.5952 -1.2711  1.0827
  678MOL0     H89447   8.927  -0.313   2.387  2.0621  0.3650 -1.3759
  678MOL0     H89448   8.862  -0.221   2.528  1.5408  1.6035  0.2026
  678MOL0     H89449   8.983   0.057   2.435 -0.7479 -0.8348 -0.2906
  678MOL0     H89450   9.195   0.209   2.498 -0.6879 -1.3955 -1.3929
  678MOL0     H89451   9.338   0.113   2.558  0.4526  0.4560  0.9572
  678MOL0     H89452   9.119   0.244   2.725  0.5044 -0.5177 -0.0094
  678MOL0     H89453   9.286   0.246   2.748  2.9805 -2.1413 -2.2906
  678MOL0     H89454   9.088   0.029   2.831 -1.5027  2.8573  2.7377
  678MOL0     H89455   9.261  -0.012   2.804  0.2776  1.7045 -2.8654
  678MOL0     H89456   9.300   0.185   2.959 -0.2831  0.6041  1.1671
  678MOL0     H89457   9.244   0.048   3.041  0.3516 -1.6346 -0.3888
  678MOL0     H89458   9.056  -0.056   3.098 -0.5756  0.2165  0.1793
  678MOL0     H89459   8.842  -0.125   3.217  0.4057  1.1155  3.8348
  678MOL0     H89460   8.317  -0.000   3.126  0.8844 -0.3515  0.0304
  678MOL0     H89461   8.121  -0.120   3.217 -1.2950  0.5788  1.2378
  678MOL0     H89462   8.046  -0.309   3.358 -0.6743 -0.2264 -0.7238
  678MOL0     H89463   7.919  -0.190   3.342  2.2233 -1.2040 -3.9251
  678MOL0     H89464   7.856  -0.242   3.597 -0.7247 -1.1240  1.1699
  678MOL0     H89465   7.990  -0.364   3.589  1.0797 -2.1913 -2.0953
  678MOL0     H89466   7.881  -0.481   3.416 -1.1544  0.0182 -1.3359
  678MOL0     H89467   7.755  -0.356   3.411  1.7055  0.9904 -0.6360
  678MOL0     H89468   7.805  -0.517   3.667  4.4427  1.1879 -3.0647
  678MOL0     H89469   7.672  -0.400   3.639 -0.4797  0.5705 -1.2638
  678MOL0     H89470   7.720  -0.670   3.498  0.6616 -0.8371  1.0229
  678MOL0     H89471   7.596  -0.554   3.438 -2.2882  1.5859  1.7867
  678MOL0     H89472   7.474  -0.549   3.652  0.1034  0.2818  0.2197
  678MOL0     H89473   7.601  -0.638   3.729  1.0205 -1.4109 -0.7328
  678MOL0     H89474   7.406  -0.758   3.518 -0.3207 -0.2637  0.1551
  678MOL0     H89475   7.558  -0.833   3.542  1.0395  0.4542  1.8579
  678MOL0     H89476   7.514  -0.870   3.785  1.5667 -1.4124 -1.4742
  678MOL0     H89477   7.398  -0.946   3.672  0.7705 -1.8115  3.1028
  678MOL0     H89478   8.218   0.024   3.599  0.2263  0.0936 -0.8637
  678MOL0     H89479   8.432   0.116   3.520 -0.6623 -1.5340  1.3225
  678MOL0     H89480   8.669   0.257   3.139 -1.0360 -1.1610 -2.6961
  678MOL0     H89481   8.904   0.328   3.031 -0.4620  0.6174 -0.3823
  678MOL0     H89482   7.996  -0.112   2.046  0.1590 -0.5338  0.2485
  678MOL0     H89483   7.770  -0.158   2.119 -0.7333 -0.8943  1.7642
  678MOL0     H89484   7.440   0.047   2.416  2.7669  2.3575 -4.3425
  678MOL0     H89485   7.191   0.047   2.494  4.1450  0.3592  1.3552
  678MOL0     H89486   6.947   0.301   2.267  0.1079  0.1972 -0.6451
  678MOL0     H89487   6.853   0.252   2.414 -2.6305 -3.6421 -0.7317
  678MOL0     H89488   6.824   0.152   2.125 -1.0686 -1.0264 -1.5346
  678MOL0     H89489   6.801   0.034   2.252  3.3609  0.3494  2.1330
  678MOL0     H89490   6.622   0.231   2.139  2.2617 -0.7510 -0.8156
  678MOL0     H89491   6.622   0.236   2.316  1.2506 -1.4552  1.5993
  678MOL0     H89492   6.554   0.005   2.138  0.1656 -0.0372  0.5978
  678MOL0     H89493   6.568  -0.023   2.311 -2.4269 -0.6301 -0.9180
  678MOL0     H89494   6.187   0.174   2.250  0.3702  1.1231  1.3863
  678MOL0     H89495   7.065   0.114   2.095  1.3726 -0.6231 -0.0609
  678MOL0     H89496   7.284   0.160   2.019  3.2606 -1.3600  0.8151
  679MOL0     O89497   1.908   7.713   9.920 -0.1976 -0.1836  0.0267
  679MOL0     C89498   1.841   7.747   9.825 -0.2432 -0.4379 -0.8848
  679MOL0     O89499   1.706   7.793   9.824 -0.2510 -0.1492 -0.5582
  679MOL0     C89500   1.640   7.806   9.943 -0.2202  0.3187  0.4714
  679MOL0     C89501   1.529   7.726   9.966  0.0827 -0.6044  0.1348
  679MOL0     C89502   1.467   7.717  10.087 -0.1735 -0.0504 -0.1394
  679MOL0     C89503   1.498   7.803  10.191 -0.5146 -0.4216 -0.3797
  679MOL0     O89504   1.437   7.799  10.314  0.0991 -0.3578 -0.4401
  679MOL0     C89505   1.303   7.745  10.332  0.2960 -0.6984 -0.3398
  679MOL0     C89506   1.237   7.773  10.469 -0.1978 -0.0164  0.2429
  679MOL0     C89507   1.091   7.720  10.472  0.2891 -0.0640  0.2584
  679MOL0     C89508   1.036   7.755  10.607 -0.3285 -0.1017  0.1647
  679MOL0     C89509   0.878   7.747  10.619  0.3384 -0.6066 -0.1639
  679MOL0     C89510   0.830   7.792  10.756  0.8486  0.2715  0.0209
  679MOL0     C89511   0.677   7.778  10.778 -0.8964  0.3524  0.4664
  679MOL0     C89512   0.631   7.790  10.924  0.0922 -1.1882  0.7469
  679MOL0     N89513   0.597   7.919  10.965 -0.3397  0.1534 -0.5589
  679MOL0     C89514   0.482   7.979  10.939 -0.2807 -0.0075  0.1905
  679MOL0     C89515   0.478   8.081  11.042 -0.3766 -0.4751 -0.3017
  679MOL0     C89516   0.379   8.199  11.060 -0.0390 -0.9759  0.6298
  679MOL0     C89517   0.241   8.156  11.032  0.6805 -1.4112  0.1204
  679MOL0     C89518   0.155   8.275  11.061  0.5978  0.0877  0.2829
  679MOL0     C89519   0.003   8.254  11.033  0.2335 -0.0711 -0.1573
  679MOL0     O89520  -0.040   8.152  11.119  0.2971  0.7773  0.2537
  679MOL0     C89521  -0.164   8.149  11.168 -1.5571  0.1267  0.0276
  679MOL0     C89522  -0.187   8.140  11.306  0.5178  0.4919  0.3689
  679MOL0     C89523  -0.312   8.141  11.355  0.6951 -0.7003 -0.8075
  679MOL0     C89524  -0.428   8.143  11.265 -0.5064  0.7455 -1.3170
  679MOL0     C89525  -0.557   8.132  11.325  0.4899  0.2242  0.9365
  679MOL0     O89526  -0.569   8.135  11.461  0.0546  0.0081  0.0840
  679MOL0     C89527  -0.699   8.166  11.510 -0.3993  1.1704 -0.0411
  679MOL0     C89528  -0.771   8.051  11.561 -0.7705 -0.3227  0.1742
  679MOL0     C89529  -0.904   8.067  11.597 -0.6827  0.4443  0.4414
  679MOL0     C89530  -0.963   8.193  11.584  0.6978 -0.0702  0.7078
  679MOL0     O89531  -1.101   8.194  11.615 -0.1256  0.4472  0.3595
  679MOL0     C89532  -1.184   8.302  11.567  0.0947 -0.7027 -0.1185
  679MOL0     C89533  -1.244   8.384  11.685  0.7439 -0.2124  0.8107
  679MOL0     C89534  -1.363   8.299  11.741 -0.8015 -0.3249  0.1088
  679MOL0     C89535  -1.419   8.381  11.849  0.1734  1.0637 -0.3396
  679MOL0     C89536  -1.525   8.299  11.932 -0.0634  0.1181  0.6065
  679MOL0     C89537  -1.596   8.404  12.016  0.3213  0.5326 -0.3776
  679MOL0     C89538  -1.730   8.361  12.067  0.0808  0.6490  0.2354
  679MOL0     C89539  -1.786   8.473  12.164 -0.5737  1.1591 -0.0344
  679MOL0    Cl89540  -1.963   8.451  12.190 -0.3176 -0.3150 -0.1971
  679MOL0     C89541  -0.887   8.299  11.540 -0.3504 -0.5321 -0.0315
  679MOL0     C89542  -0.758   8.287  11.503 -0.2120  0.4469  0.3215
  679MOL0     O89543  -0.655   8.129  11.248 -0.2754 -0.0575  0.0209
  679MOL0     C89544  -0.407   8.144  11.120 -0.2797  0.1043 -0.3525
  679MOL0     C89545  -0.271   8.152  11.078 -0.3933  0.2460  0.2633
  679MOL0     N89546   0.593   8.074  11.118  0.0880 -0.1092  0.3463
  679MOL0     N89547   0.664   7.977  11.067 -0.3768 -0.2847 -0.5397
  679MOL0     C89548   1.604   7.893  10.162  0.1782 -0.0258  0.8355
  679MOL0     C89549   1.676   7.887  10.049  0.1558  0.0365 -0.6091
  679MOL0     C89550   1.907   7.748   9.696 -0.4492  0.5326 -0.1608
  679MOL0     C89551   2.042   7.709   9.676 -0.8861 -0.1670  1.0331
  679MOL0     C89552   2.095   7.707   9.541 -0.5221  0.1243  0.0558
  679MOL0     C89553   2.018   7.756   9.430 -0.5287 -0.8723 -0.7790
  679MOL0     O89554   2.071   7.757   9.305 -0.0272 -0.4286 -0.5028
  679MOL0     C89555   2.033   7.856   9.213  0.5982 -0.1877 -0.0195
  679MOL0     C89556   2.124   7.850   9.089 -0.1268  0.0051 -0.2829
  679MOL0     C89557   2.091   7.949   8.984 -0.1477 -0.1154  1.5070
  679MOL0     C89558   2.215   7.984   8.895 -0.4440  0.3349  0.7725
  679MOL0     C89559   2.262   7.868   8.823  0.4925 -0.0576 -0.0012
  679MOL0     C89560   2.299   7.786   8.744  0.8523 -0.5129  0.5584
  679MOL0     C89561   1.886   7.797   9.457 -0.1244  0.0926  0.5983
  679MOL0     C89562   1.833   7.789   9.580  0.2428  0.0503 -0.2586
  679MOL0     H89563   1.497   7.652   9.893  0.0619  0.7615 -1.2777
  679MOL0     H89564   1.391   7.643  10.108 -0.7370 -0.9586 -4.4222
  679MOL0     H89565   1.329   7.640  10.318  0.7360 -0.6878  0.3503
  679MOL0     H89566   1.241   7.770  10.246 -1.4835 -1.1386  0.7572
  679MOL0     H89567   1.245   7.879  10.495  2.1355  0.1610 -0.9630
  679MOL0     H89568   1.293   7.714  10.543  0.0024  1.1491  1.0463
  679MOL0     H89569   1.073   7.612  10.459 -0.2229 -0.4776  3.6064
  679MOL0     H89570   1.033   7.770  10.393  2.0606 -0.6480 -1.4886
  679MOL0     H89571   1.065   7.678  10.679 -1.9974 -0.5957  0.3449
  679MOL0     H89572   1.081   7.851  10.633 -0.1532  0.1046 -0.8497
  679MOL0     H89573   0.850   7.643  10.597  2.5707 -1.8554  2.3057
  679MOL0     H89574   0.838   7.818  10.546  1.6741  1.5927  1.1247
  679MOL0     H89575   0.854   7.897  10.772 -2.5887  1.1134  0.4571
  679MOL0     H89576   0.888   7.746  10.837  1.9153  4.5316  1.9960
  679MOL0     H89577   0.632   7.847  10.706  0.8610  1.2010  0.1172
  679MOL0     H89578   0.646   7.682  10.737 -1.6353  1.3406 -1.4369
  679MOL0     H89579   0.714   7.752  10.985  0.2474 -0.0580  1.2526
  679MOL0     H89580   0.544   7.725  10.937  0.5849 -1.4840  2.9747
  679MOL0     H89581   0.400   7.953  10.873 -0.5135 -0.6220  0.7069
  679MOL0     H89582   0.402   8.289  11.002 -0.2720 -3.2026 -3.2245
  679MOL0     H89583   0.389   8.224  11.167  1.5363 -1.3179  0.5939
  679MOL0     H89584   0.201   8.085  11.105 -2.4263  0.2217  0.1883
  679MOL0     H89585   0.222   8.123  10.929 -1.1208  1.2046 -0.4793
  679MOL0     H89586   0.175   8.306  11.164  3.8163  0.9340 -0.5053
  679MOL0     H89587   0.181   8.354  10.989 -0.4520 -0.9393 -1.3031
  679MOL0     H89588  -0.020   8.223  10.931 -0.9797  2.5400 -0.7601
  679MOL0     H89589  -0.049   8.350  11.043 -2.4181 -1.0923 -2.9549
  679MOL0     H89590  -0.107   8.147  11.379  2.0973 -0.4819 -1.1613
  679MOL0     H89591  -0.329   8.139  11.463  0.0513 -2.2725 -0.9133
  679MOL0     H89592  -0.717   7.958  11.577 -0.4876 -0.0001  1.1216
  679MOL0     H89593  -0.965   7.981  11.625 -2.5304  1.2205 -0.9583
  679MOL0     H89594  -1.263   8.259  11.505 -1.6684  2.7839 -0.5621
  679MOL0     H89595  -1.119   8.364  11.505  1.4487 -0.8540  1.0944
  679MOL0     H89596  -1.301   8.469  11.647  0.1152 -1.3506 -0.9386
  679MOL0     H89597  -1.175   8.406  11.767 -2.5641 -0.4558  3.9411
  679MOL0     H89598  -1.327   8.205  11.784 -0.8211 -1.2844 -1.8548
  679MOL0     H89599  -1.434   8.278  11.660 -1.0580 -1.4611  0.6081
  679MOL0     H89600  -1.343   8.426  11.914  1.9271 -0.8997 -0.9152
  679MOL0     H89601  -1.467   8.462  11.793  0.1415 -1.1997 -3.8924
  679MOL0     H89602  -1.483   8.229  12.006 -0.4325 -1.0643 -0.2791
  679MOL0     H89603  -1.590   8.247  11.861  0.0077  0.9528 -0.0772
  679MOL0     H89604  -1.615   8.492  11.954  1.2488 -0.1236 -1.6528
  679MOL0     H89605  -1.524   8.424  12.096 -0.6034 -0.4591  0.7537
  679MOL0     H89606  -1.793   8.368  11.977  2.5881 -0.3642 -1.7391
  679MOL0     H89607  -1.719   8.266  12.121  1.7082  1.3431  1.1729
  679MOL0     H89608  -1.758   8.566  12.114  0.4765  0.9045  0.0409
  679MOL0     H89609  -1.737   8.454  12.260  0.6608 -1.7702 -1.1221
  679MOL0     H89610  -0.920   8.401  11.522  1.0264 -0.1369 -0.3913
  679MOL0     H89611  -0.703   8.380  11.496 -1.7634  1.6486  2.8634
  679MOL0     H89612  -0.487   8.151  11.047  1.7301  1.9279 -2.5117
  679MOL0     H89613  -0.249   8.149  10.972  1.9090 -1.0644  0.6980
  679MOL0     H89614   1.638   7.962  10.239 -0.1851  1.6178 -0.4227
  679MOL0     H89615   1.765   7.949  10.045 -0.1655  0.6879  1.3598
  679MOL0     H89616   2.103   7.669   9.757 -0.2562  0.0972  0.6983
  679MOL0     H89617   2.193   7.666   9.519 -1.3826 -1.1708 -1.6398
  679MOL0     H89618   2.046   7.953   9.263 -0.8884 -0.1749  0.3839
  679MOL0     H89619   1.930   7.855   9.175  0.3400  0.1614  0.6514
  679MOL0     H89620   2.228   7.871   9.117  0.2067 -0.3383 -1.2207
  679MOL0     H89621   2.111   7.751   9.045 -1.9716  0.0389  0.1188
  679MOL0     H89622   2.032   8.036   9.014 -3.4817 -1.1826 -1.2156
  679MOL0     H89623   2.018   7.896   8.921 -1.2210  3.0039 -0.1137
  679MOL0     H89624   2.190   8.055   8.816  1.8188  0.1624 -0.1797
  679MOL0     H89625   2.298   8.021   8.956  0.6818 -1.9073  0.7161
  679MOL0     H89626   2.334   7.701   8.689  1.0590  0.2802 -0.5772
  679MOL0     H89627   1.825   7.826   9.372  1.3777  0.9485 -0.2198
  679MOL0     H89628   1.727   7.810   9.582  0.2416 -0.0455  0.7327
  680MOL0     O89629   9.463   7.847  10.653 -0.3344 -0.7867 -0.6020
  680MOL0     C89630   9.516   7.748  10.700  0.1632  0.3220 -0.6129
  680MOL0     O89631   9.501   7.698  10.830 -0.7933 -0.3276  0.1288
  680MOL0     C89632   9.422   7.770  10.918 -0.2168  0.7126 -0.0754
  680MOL0     C89633   9.448   7.898  10.962  0.4195 -0.6697  0.4144
  680MOL0     C89634   9.358   7.967  11.051 -1.0017 -0.2647  0.8589
  680MOL0     C89635   9.247   7.903  11.100  1.0456  0.0689 -0.9583
  680MOL0     O89636   9.170   7.968  11.189 -0.2353  0.0058 -0.1949
  680MOL0     C89637   9.093   7.902  11.292 -0.4163 -0.2951 -0.1620
  680MOL0     C89638   9.028   7.995  11.392 -0.1132  0.1995 -0.3257
  680MOL0     C89639   8.944   8.100  11.323  0.1866 -0.5186  0.0134
  680MOL0     C89640   8.808   8.123  11.387 -0.3896  0.3347 -0.7982
  680MOL0     C89641   8.823   8.186  11.527  0.1686 -1.1266 -0.0785
  680MOL0     C89642   8.926   8.300  11.534 -0.1100  0.2806 -0.0147
  680MOL0     C89643   8.898   8.409  11.634 -0.3516  0.2910  0.2726
  680MOL0     C89644   8.798   8.513  11.586 -0.1972 -1.0682  0.7805
  680MOL0     N89645   8.653   8.489  11.632  0.4274  1.1332 -0.3031
  680MOL0     C89646   8.603   8.500  11.758 -0.1464  0.3769  0.7874
  680MOL0     C89647   8.468   8.494  11.743 -0.0158  0.5800 -0.9251
  680MOL0     C89648   8.386   8.514  11.864  0.0770 -0.2972  0.5322
  680MOL0     C89649   8.261   8.584  11.827 -0.3194 -0.1935 -0.0647
  680MOL0     C89650   8.291   8.734  11.773 -0.8529  0.5505  0.5226
  680MOL0     C89651   8.335   8.824  11.895  0.5851  0.2690  0.8871
  680MOL0     O89652   8.249   8.841  12.008  0.0049  0.2110  0.1326
  680MOL0     C89653   8.130   8.907  11.973  0.3844  0.3703 -0.1105
  680MOL0     C89654   8.025   8.910  12.071 -0.2247  0.4245  0.4763
  680MOL0     C89655   7.914   8.985  12.054  1.0654 -0.5705 -0.0389
  680MOL0     C89656   7.891   9.061  11.934  0.0744 -0.5730  0.2811
  680MOL0     C89657   7.753   9.125  11.914  0.0249  0.4287  0.4191
  680MOL0     O89658   7.665   9.113  12.017  0.2622 -0.1342  1.3759
  680MOL0     C89659   7.545   9.169  12.001  0.3891  0.2068  0.1095
  680MOL0     C89660   7.489   9.256  12.104 -0.4234  0.4864 -0.7202
  680MOL0     C89661   7.369   9.320  12.087  0.2652  0.4427 -0.2113
  680MOL0     C89662   7.293   9.298  11.973 -0.7063 -0.4501  0.3980
  680MOL0     O89663   7.172   9.364  11.955  0.2821 -0.1121 -0.7157
  680MOL0     C89664   7.104   9.347  11.831  0.8853 -0.1051 -0.2010
  680MOL0     C89665   6.963   9.419  11.852 -0.4963 -0.2413 -0.5608
  680MOL0     C89666   6.876   9.402  11.725 -0.7357 -0.0287  0.2013
  680MOL0     C89667   6.734   9.462  11.750 -0.9340 -0.0381  0.0944
  680MOL0     C89668   6.675   9.507  11.623  0.0983  0.3508 -0.0371
  680MOL0     C89669   6.545   9.424  11.602 -0.6196  0.7270  0.4099
  680MOL0     C89670   6.479   9.434  11.462  1.0005 -0.4182  0.3118
  680MOL0     C89671   6.331   9.387  11.459  0.3118  0.4562 -0.3070
  680MOL0    Cl89672   6.329   9.209  11.468  0.0390 -0.0840 -0.2004
  680MOL0     C89673   7.337   9.204  11.874 -0.5757 -1.0854  0.3112
  680MOL0     C89674   7.458   9.136  11.895  0.5483 -0.4179  0.5283
  680MOL0     O89675   7.733   9.192  11.808  0.0334  0.1577  0.4179
  680MOL0     C89676   7.999   9.071  11.843 -0.8857 -0.0697 -1.1596
  680MOL0     C89677   8.113   8.994  11.865 -0.6229  0.1047 -0.0608
  680MOL0     N89678   8.433   8.468  11.621  0.0631  0.1096  0.4578
  680MOL0     N89679   8.542   8.468  11.550  0.0317  0.3459  0.4190
  680MOL0     C89680   9.217   7.785  11.038 -0.1755  0.7389  0.8681
  680MOL0     C89681   9.302   7.718  10.952  0.7251 -0.2165 -0.8623
  680MOL0     C89682   9.592   7.662  10.612 -0.8109  0.2647 -0.4052
  680MOL0     C89683   9.581   7.692  10.471 -0.2042  0.9024 -0.3240
  680MOL0     C89684   9.658   7.605  10.389 -0.8487  0.3502  0.0849
  680MOL0     C89685   9.746   7.507  10.434  1.0410 -0.4869  0.4544
  680MOL0     O89686   9.822   7.444  10.342  0.0333  0.3307  0.7446
  680MOL0     C89687   9.941   7.366  10.378 -0.2998  0.6540 -0.5826
  680MOL0     C89688  10.012   7.327  10.258  0.2978  0.6587  0.2547
  680MOL0     C89689   9.931   7.238  10.166  0.5784  0.1049  0.2063
  680MOL0     C89690  10.002   7.234  10.024 -0.4326  0.1484 -0.8005
  680MOL0     C89691   9.935   7.156   9.930 -0.0310  0.4730  0.2430
  680MOL0     C89692   9.901   7.063   9.866  0.1151  0.5101  0.8191
  680MOL0     C89693   9.747   7.480  10.567  0.4787  0.0765  0.2758
  680MOL0     C89694   9.675   7.557  10.661  0.0292  0.5703  0.6452
  680MOL0     H89695   9.543   7.937  10.926  0.3321 -1.7319 -1.0256
  680MOL0     H89696   9.387   8.063  11.091  3.4318 -0.9566 -0.1991
  680MOL0     H89697   9.157   7.841  11.356 -0.8018  0.5742  1.1060
  680MOL0     H89698   9.019   7.837  11.243  1.3581 -0.3055 -3.0850
  680MOL0     H89699   9.105   8.037  11.457 -0.1868  4.0749 -2.4436
  680MOL0     H89700   8.960   7.942  11.460  2.0719  1.8671  3.4416
  680MOL0     H89701   8.926   8.069  11.220 -1.9912 -1.2033  0.5601
  680MOL0     H89702   8.998   8.195  11.311 -0.3948 -0.2115 -0.2085
  680MOL0     H89703   8.741   8.185  11.326 -1.0751 -0.7181 -1.1451
  680MOL0     H89704   8.761   8.024  11.394 -5.3427  2.4626  0.6452
  680MOL0     H89705   8.851   8.107  11.597  1.0168 -0.3468  0.4893
  680MOL0     H89706   8.728   8.233  11.555  1.0920  1.4629 -1.0166
  680MOL0     H89707   8.939   8.341  11.433 -1.3254  0.2779 -0.1904
  680MOL0     H89708   9.017   8.245  11.558 -1.1044 -2.9223 -2.6950
  680MOL0     H89709   8.871   8.368  11.732  2.5520  0.5050  1.2583
  680MOL0     H89710   8.994   8.459  11.649 -0.7771  0.8234  1.3307
  680MOL0     H89711   8.805   8.512  11.477  0.0756 -0.9644  0.7967
  680MOL0     H89712   8.831   8.611  11.621  0.7115 -0.7861 -0.8083
  680MOL0     H89713   8.669   8.511  11.843  2.3988 -3.8429 -0.3448
  680MOL0     H89714   8.435   8.567  11.946 -2.2740 -0.0220  1.8386
  680MOL0     H89715   8.358   8.412  11.894 -2.9596 -0.2760 -1.7983
  680MOL0     H89716   8.192   8.588  11.912  0.1148  1.3543  0.2402
  680MOL0     H89717   8.213   8.524  11.749  2.8463 -2.0003 -0.8085
  680MOL0     H89718   8.378   8.747  11.708 -0.4340  3.0279  1.4659
  680MOL0     H89719   8.203   8.770  11.720 -0.6358  1.6552  0.8830
  680MOL0     H89720   8.370   8.915  11.846  1.3616 -0.2671  0.4311
  680MOL0     H89721   8.428   8.777  11.929  1.1366  2.4973  2.7453
  680MOL0     H89722   8.031   8.856  12.165 -2.3648  0.6097  0.7588
  680MOL0     H89723   7.842   8.977  12.135  0.8672 -0.6379 -0.2218
  680MOL0     H89724   7.543   9.278  12.196 -0.7007  1.4795 -0.7760
  680MOL0     H89725   7.318   9.380  12.161 -2.9461 -0.9200 -1.1450
  680MOL0     H89726   7.083   9.244  11.800 -0.4524  0.5856 -1.7561
  680MOL0     H89727   7.159   9.392  11.748 -0.4933  1.3545 -0.3550
  680MOL0     H89728   6.981   9.524  11.877  1.0065 -1.0787  2.3596
  680MOL0     H89729   6.926   9.372  11.944  4.6208 -5.0016 -0.3550
  680MOL0     H89730   6.867   9.295  11.705 -0.7010  0.1407 -0.8070
  680MOL0     H89731   6.931   9.446  11.641  0.6742  2.8058  2.4322
  680MOL0     H89732   6.676   9.390  11.808  0.2635  0.2511  1.7190
  680MOL0     H89733   6.739   9.547  11.820  2.4017 -1.3793  1.6937
  680MOL0     H89734   6.736   9.491  11.535 -0.3982 -0.3158 -0.2736
  680MOL0     H89735   6.636   9.609  11.635  1.0763  0.8390 -0.9729
  680MOL0     H89736   6.464   9.466  11.662 -0.5840  0.4710  0.6437
  680MOL0     H89737   6.557   9.318  11.626  1.1254 -0.3583 -4.1150
  680MOL0     H89738   6.510   9.524  11.408 -0.2521 -0.4353 -0.4672
  680MOL0     H89739   6.532   9.364  11.397 -0.3597 -0.0978 -1.1962
  680MOL0     H89740   6.275   9.399  11.366 -2.8488 -3.8206  0.7149
  680MOL0     H89741   6.266   9.425  11.539 -0.4239 -3.5943  1.2548
  680MOL0     H89742   7.287   9.182  11.780 -1.2532 -0.9711  0.6377
  680MOL0     H89743   7.488   9.057  11.827 -0.4234 -1.4066  1.2039
  680MOL0     H89744   7.969   9.136  11.761  2.4535  1.3675 -1.3970
  680MOL0     H89745   8.195   9.017  11.798  0.5666 -0.2806  1.2173
  680MOL0     H89746   9.119   7.747  11.065  0.3020 -0.0377  1.5456
  680MOL0     H89747   9.272   7.623  10.910 -1.3340 -0.0204  0.0157
  680MOL0     H89748   9.506   7.754  10.425 -1.3464  0.7561  1.2723
  680MOL0     H89749   9.650   7.602  10.280  2.0673  1.1377 -0.2370
  680MOL0     H89750   9.918   7.275  10.434 -5.7118  1.2504 -1.3179
  680MOL0     H89751  10.006   7.418  10.448  0.8437 -1.8427  0.3234
  680MOL0     H89752  10.051   7.420  10.215  1.5488 -0.6236 -1.4742
  680MOL0     H89753  10.102   7.273  10.290  0.2963 -1.1746 -2.5249
  680MOL0     H89754   9.833   7.282  10.145  0.6566  0.1295 -0.1168
  680MOL0     H89755   9.929   7.142  10.219  1.2010  2.2865  4.7087
  680MOL0     H89756  10.022   7.336   9.991 -0.5128 -0.5582 -3.1923
  680MOL0     H89757  10.101   7.189  10.040  0.3772  2.8583  3.0500
  680MOL0     H89758   9.871   6.985   9.798 -2.4313  1.8069  0.3233
  680MOL0     H89759   9.810   7.396  10.596 -0.5720 -0.9145 -0.2120
  680MOL0     H89760   9.702   7.551  10.766  0.6720  0.5276  0.4841
  681MOL0     O89761   2.611   3.795   5.359 -0.3717 -0.0247  0.2799
  681MOL0     C89762   2.663   3.694   5.308 -0.0148  0.0883  0.2366
  681MOL0     O89763   2.624   3.563   5.330  0.2449 -0.2349  0.1484
  681MOL0     C89764   2.501   3.534   5.378  0.2530 -0.3346  0.6035
  681MOL0     C89765   2.447   3.579   5.499 -0.3271 -0.9451  0.7204
  681MOL0     C89766   2.318   3.543   5.537 -0.3029 -0.1266 -0.2964
  681MOL0     C89767   2.248   3.444   5.468  0.0468 -0.6815  0.1365
  681MOL0     O89768   2.121   3.416   5.520  0.7270  0.3392 -0.0069
  681MOL0     C89769   2.022   3.362   5.425  0.0131 -0.9400  0.7233
  681MOL0     C89770   1.887   3.354   5.493 -0.4867 -0.6303 -0.2408
  681MOL0     C89771   1.765   3.305   5.417  0.0850  0.0323  0.6915
  681MOL0     C89772   1.637   3.302   5.505  0.3188  0.1373 -0.4882
  681MOL0     C89773   1.528   3.226   5.430 -0.1110 -0.3855 -0.2311
  681MOL0     C89774   1.398   3.244   5.499 -0.1266  0.5589 -0.7856
  681MOL0     C89775   1.279   3.184   5.420  0.8375  0.3800  0.2749
  681MOL0     C89776   1.142   3.245   5.451  0.8526  0.2311 -0.7975
  681MOL0     N89777   1.112   3.270   5.593 -0.3511 -0.4942  0.8397
  681MOL0     C89778   1.057   3.191   5.686  0.3526  0.7067 -0.4441
  681MOL0     C89779   1.058   3.258   5.800  0.4119  0.6036 -0.1807
  681MOL0     C89780   1.005   3.189   5.926 -0.3504 -0.2087 -0.5107
  681MOL0     C89781   0.846   3.163   5.925 -0.7694  0.5540 -0.5047
  681MOL0     C89782   0.759   3.287   5.955  0.0023  0.4720 -0.4851
  681MOL0     C89783   0.626   3.266   6.027  0.7796 -0.0707  0.2568
  681MOL0     O89784   0.573   3.396   6.049 -0.2181  0.1563 -0.7507
  681MOL0     C89785   0.458   3.398   6.119  0.3440 -0.9749 -0.2331
  681MOL0     C89786   0.381   3.283   6.151 -0.0976  0.8275 -0.7625
  681MOL0     C89787   0.242   3.300   6.192  0.0891  0.8218  0.2174
  681MOL0     C89788   0.190   3.429   6.230 -0.5167 -0.2766  0.4539
  681MOL0     C89789   0.057   3.451   6.280  0.2290 -0.7428 -0.3149
  681MOL0     O89790  -0.026   3.341   6.261 -0.1451 -0.7501 -0.4924
  681MOL0     C89791  -0.155   3.356   6.304 -1.0920 -0.6333 -0.4452
  681MOL0     C89792  -0.252   3.440   6.243  0.3735  0.0538  0.1203
  681MOL0     C89793  -0.374   3.449   6.288  1.1756  0.7663 -0.2285
  681MOL0     C89794  -0.419   3.374   6.391  0.7758 -0.6276 -0.8370
  681MOL0     O89795  -0.553   3.385   6.425 -0.1453 -0.1052 -0.4096
  681MOL0     C89796  -0.638   3.283   6.373  0.0898  0.8764 -0.2149
  681MOL0     C89797  -0.775   3.343   6.367  0.3329  1.3216 -0.1933
  681MOL0     C89798  -0.785   3.458   6.266 -1.6905  0.0650  0.0125
  681MOL0     C89799  -0.921   3.532   6.286 -0.1974  0.4742  0.4573
  681MOL0     C89800  -1.036   3.443   6.253  0.3102 -0.3027 -0.7930
  681MOL0     C89801  -1.162   3.536   6.222 -0.0705  0.2384 -0.6277
  681MOL0     C89802  -1.277   3.469   6.154  0.1428  0.4590  0.5449
  681MOL0     C89803  -1.370   3.399   6.260  0.3271  0.3408  0.2091
  681MOL0    Cl89804  -1.492   3.294   6.168 -0.2838 -0.6510 -0.3284
  681MOL0     C89805  -0.335   3.289   6.455 -0.0683 -0.0845  0.3027
  681MOL0     C89806  -0.196   3.285   6.418  0.6133  0.0280 -0.5460
  681MOL0     O89807   0.022   3.557   6.328  0.8815 -0.6434  0.0139
  681MOL0     C89808   0.273   3.539   6.209  0.6485  0.7869 -0.2113
  681MOL0     C89809   0.399   3.523   6.145 -0.4324 -0.2504  0.6734
  681MOL0     N89810   1.112   3.384   5.777  0.0812 -0.0910 -0.4521
  681MOL0     N89811   1.140   3.393   5.651 -0.5273  0.2464 -0.2219
  681MOL0     C89812   2.305   3.389   5.353 -1.1433 -0.3933 -0.5729
  681MOL0     C89813   2.435   3.432   5.316 -0.6026 -0.4100 -0.2084
  681MOL0     C89814   2.790   3.713   5.228 -0.8253 -0.3863  0.4317
  681MOL0     C89815   2.841   3.601   5.165  1.0594 -0.2808 -0.0472
  681MOL0     C89816   2.967   3.609   5.098  0.4475  0.3079  0.4375
  681MOL0     C89817   3.036   3.724   5.107 -0.5328  0.3054 -0.6372
  681MOL0     O89818   3.167   3.717   5.076 -0.5933  0.1000  0.0474
  681MOL0     C89819   3.191   3.826   4.983 -0.7665 -0.1792  0.3562
  681MOL0     C89820   3.315   3.780   4.899 -0.4825  0.4643 -0.7230
  681MOL0     C89821   3.453   3.792   4.959 -0.1137 -0.6253  0.9500
  681MOL0     C89822   3.475   3.924   5.033  0.0854  0.2159  0.0077
  681MOL0     C89823   3.603   3.946   5.101  0.0721 -0.4057  1.1293
  681MOL0     C89824   3.698   3.973   5.168 -0.4812  0.2270  0.3192
  681MOL0     C89825   2.980   3.837   5.157 -0.2234  0.0842  0.5548
  681MOL0     C89826   2.858   3.830   5.229 -0.1373 -0.3521  0.1366
  681MOL0     H89827   2.506   3.655   5.550  0.2815 -1.4795  0.8241
  681MOL0     H89828   2.271   3.581   5.627 -0.2388 -0.8405  0.0503
  681MOL0     H89829   2.048   3.264   5.383 -0.1493 -0.2131 -1.1849
  681MOL0     H89830   2.015   3.433   5.342 -0.4733  0.0148  1.5587
  681MOL0     H89831   1.867   3.457   5.523 -3.5073 -0.6934 -1.7216
  681MOL0     H89832   1.893   3.296   5.586 -1.9823  2.1381  1.7352
  681MOL0     H89833   1.769   3.205   5.371 -1.8316 -0.5383  1.6488
  681MOL0     H89834   1.751   3.384   5.342 -2.4244 -0.7348  0.2617
  681MOL0     H89835   1.655   3.243   5.595 -0.4087  0.9535  0.2105
  681MOL0     H89836   1.604   3.404   5.525 -0.7765 -0.6469  2.2303
  681MOL0     H89837   1.549   3.119   5.440 -0.5871 -0.6021 -1.3245
  681MOL0     H89838   1.523   3.253   5.324  0.0699  0.1108 -0.1130
  681MOL0     H89839   1.369   3.349   5.515  0.0460  0.7496 -1.6836
  681MOL0     H89840   1.395   3.203   5.600 -1.0586  1.6607 -0.3414
  681MOL0     H89841   1.300   3.187   5.312 -0.1114  1.8530  0.1092
  681MOL0     H89842   1.270   3.077   5.438  2.5893  0.0767 -0.3824
  681MOL0     H89843   1.065   3.175   5.419 -0.1968  1.2880 -0.6553
  681MOL0     H89844   1.125   3.331   5.387  0.0484 -0.6583 -1.8170
  681MOL0     H89845   1.023   3.089   5.668 -0.9038  1.4404 -2.4986
  681MOL0     H89846   1.038   3.241   6.016 -0.0022  2.5066 -2.0761
  681MOL0     H89847   1.055   3.092   5.936  0.3276  0.2212  0.4187
  681MOL0     H89848   0.824   3.099   6.011 -2.5929  1.7649 -0.0158
  681MOL0     H89849   0.806   3.102   5.844 -3.9799 -1.0566  2.0433
  681MOL0     H89850   0.818   3.358   6.013  1.5765 -1.1845  0.0085
  681MOL0     H89851   0.748   3.343   5.861  1.1618  0.4375 -0.6564
  681MOL0     H89852   0.636   3.223   6.126 -1.8968  1.1348  1.1514
  681MOL0     H89853   0.566   3.203   5.960  2.6339  0.2072 -1.7838
  681MOL0     H89854   0.417   3.182   6.134 -2.6865 -0.3886  0.2951
  681MOL0     H89855   0.191   3.207   6.215 -2.6189  2.4186  1.1691
  681MOL0     H89856  -0.235   3.506   6.158 -0.3925  1.8701  1.3197
  681MOL0     H89857  -0.439   3.514   6.232  1.4197  0.1122 -1.2944
  681MOL0     H89858  -0.640   3.194   6.436 -0.0963  2.4690  2.1620
  681MOL0     H89859  -0.605   3.251   6.274  1.0062 -1.8642  0.8812
  681MOL0     H89860  -0.810   3.380   6.464 -0.8663  0.1543 -0.1431
  681MOL0     H89861  -0.841   3.264   6.331  2.4841 -0.0577 -1.3134
  681MOL0     H89862  -0.783   3.420   6.164  1.8997 -0.0005 -0.0180
  681MOL0     H89863  -0.704   3.530   6.281 -1.8413 -0.1353  2.0819
  681MOL0     H89864  -0.928   3.553   6.393  0.1982 -1.0348  0.7990
  681MOL0     H89865  -0.917   3.629   6.237  2.4940  0.0922 -0.2475
  681MOL0     H89866  -1.067   3.388   6.343 -1.2641  2.8632  0.7586
  681MOL0     H89867  -1.027   3.377   6.167  1.9760 -1.8066  0.4548
  681MOL0     H89868  -1.135   3.615   6.151  3.4482 -1.0013 -0.8642
  681MOL0     H89869  -1.193   3.578   6.318 -1.4510  1.4456 -1.5647
  681MOL0     H89870  -1.341   3.534   6.094 -0.9718 -0.7733  0.3514
  681MOL0     H89871  -1.246   3.391   6.085  0.1118 -0.5558  1.6492
  681MOL0     H89872  -1.422   3.467   6.328  2.3873 -0.2215  2.4610
  681MOL0     H89873  -1.306   3.337   6.323 -1.4373 -0.1085  1.6311
  681MOL0     H89874  -0.374   3.231   6.538 -1.7416  2.4538  1.4306
  681MOL0     H89875  -0.136   3.213   6.472  0.2297 -0.2302 -0.4591
  681MOL0     H89876   0.231   3.634   6.243  0.8414  0.5523  0.7114
  681MOL0     H89877   0.446   3.611   6.103 -1.0229 -1.2305 -2.2950
  681MOL0     H89878   2.270   3.305   5.294  2.8732 -2.5613 -0.2275
  681MOL0     H89879   2.472   3.392   5.222 -0.1002  1.5066 -0.8717
  681MOL0     H89880   2.790   3.506   5.150  0.9260 -0.2337  0.1086
  681MOL0     H89881   3.015   3.529   5.042 -3.2311  0.1288 -2.9469
  681MOL0     H89882   3.193   3.922   5.035  1.1868 -0.6274  1.2133
  681MOL0     H89883   3.112   3.833   4.909  0.8380  2.5930 -1.2803
  681MOL0     H89884   3.294   3.680   4.860 -0.1112  1.1198 -2.6823
  681MOL0     H89885   3.316   3.844   4.810  1.7481  1.6816  0.0984
  681MOL0     H89886   3.532   3.778   4.885 -0.4503 -0.0505  0.4667
  681MOL0     H89887   3.473   3.703   5.018  0.3251 -1.1910 -0.0310
  681MOL0     H89888   3.476   4.006   4.961  2.5945  1.5644  1.4399
  681MOL0     H89889   3.393   3.944   5.103 -1.7038 -2.6407 -1.0606
  681MOL0     H89890   3.779   4.013   5.225 -0.6867  1.0127  0.0732
  681MOL0     H89891   3.036   3.927   5.179  1.4198 -0.4745 -1.1305
  681MOL0     H89892   2.825   3.919   5.282 -0.0533  0.0627 -0.4890
  682MOL0     O89893  10.437   8.203   3.375  0.8544 -0.2925 -0.4149
  682MOL0     C89894  10.463   8.114   3.465  0.7343 -0.5382  0.5666
  682MOL0     O89895  10.370   8.031   3.519 -0.0825 -0.5311  0.6056
  682MOL0     C89896  10.237   8.041   3.495  0.3282 -0.1141  0.4202
  682MOL0     C89897  10.169   8.091   3.378 -0.5782  0.1400  0.9549
  682MOL0     C89898  10.036   8.088   3.357 -0.3633  0.1268  0.4285
  682MOL0     C89899   9.963   8.027   3.459  0.1271  0.7615 -0.4108
  682MOL0     O89900   9.826   8.002   3.440 -0.3606  0.8170  0.1724
  682MOL0     C89901   9.740   7.984   3.556 -0.3732  0.3293  0.2338
  682MOL0     C89902   9.598   7.969   3.501  0.2419 -0.0470 -0.2017
  682MOL0     C89903   9.503   7.927   3.602 -0.2405  0.3134 -0.3977
  682MOL0     C89904   9.369   7.901   3.546 -0.5772  0.4516 -0.2596
  682MOL0     C89905   9.274   7.888   3.668  0.4825  0.2902 -0.3848
  682MOL0     C89906   9.122   7.912   3.625  0.7299 -0.3386  0.0258
  682MOL0     C89907   9.090   7.852   3.489  0.5576  1.3113  0.2164
  682MOL0     C89908   9.094   7.699   3.477  1.0166 -0.1578  0.2401
  682MOL0     N89909   8.960   7.647   3.501 -0.1772 -0.3772  0.1352
  682MOL0     C89910   8.895   7.638   3.621  0.1773 -0.1677  0.8932
  682MOL0     C89911   8.780   7.563   3.599  0.5521  0.0420 -1.7163
  682MOL0     C89912   8.677   7.524   3.700  0.2191  0.4602 -0.0047
  682MOL0     C89913   8.547   7.604   3.689 -0.0904 -0.0565  0.0454
  682MOL0     C89914   8.438   7.542   3.776  0.2346  0.1306  0.4590
  682MOL0     C89915   8.293   7.599   3.741  0.5923 -0.1479 -0.5302
  682MOL0     O89916   8.216   7.571   3.856 -0.1845 -1.2266  0.5630
  682MOL0     C89917   8.079   7.602   3.862  0.0918  0.1047  1.1664
  682MOL0     C89918   8.004   7.659   3.758  0.4034  0.3520 -0.0288
  682MOL0     C89919   7.870   7.683   3.778 -0.3294  0.6017  0.4301
  682MOL0     C89920   7.801   7.655   3.898  0.6300 -0.5907  0.0292
  682MOL0     C89921   7.655   7.699   3.907 -0.0362  0.3546  0.0987
  682MOL0     O89922   7.584   7.691   3.784  0.5851 -0.3688  0.1080
  682MOL0     C89923   7.459   7.738   3.777  0.4312  0.0071  0.0721
  682MOL0     C89924   7.382   7.674   3.687 -0.0992  0.2135 -0.6337
  682MOL0     C89925   7.251   7.709   3.662  0.5620 -0.6960  0.2274
  682MOL0     C89926   7.192   7.813   3.732 -0.7216  0.4988  0.4035
  682MOL0     O89927   7.068   7.867   3.690 -0.1931 -0.4716 -0.2199
  682MOL0     C89928   6.977   7.872   3.801  0.6701  0.1181  0.1427
  682MOL0     C89929   6.836   7.892   3.750  0.0083 -0.4620  0.7938
  682MOL0     C89930   6.769   7.762   3.686  0.0890 -0.2410 -0.1202
  682MOL0     C89931   6.622   7.779   3.652  0.3581  0.2992  0.0618
  682MOL0     C89932   6.549   7.645   3.630 -0.2363  0.6245 -0.0177
  682MOL0     C89933   6.596   7.570   3.503  0.1830  0.1175  0.4887
  682MOL0     C89934   6.515   7.439   3.475 -0.1520 -0.3274  0.2190
  682MOL0     C89935   6.481   7.416   3.320  0.5198  0.5711  0.9555
  682MOL0    Cl89936   6.629   7.369   3.245 -0.3618 -0.3751  0.7452
  682MOL0     C89937   7.268   7.876   3.826 -0.3853 -0.0338 -0.5857
  682MOL0     C89938   7.404   7.846   3.853 -0.0235  0.9968 -0.6674
  682MOL0     O89939   7.607   7.704   4.021  0.3259  0.4626 -0.3125
  682MOL0     C89940   7.886   7.608   4.006  0.1913 -0.4382  0.3426
  682MOL0     C89941   8.019   7.574   3.986  0.3420  1.5476  0.7568
  682MOL0     N89942   8.765   7.538   3.468  0.5990 -0.1651  0.0269
  682MOL0     N89943   8.870   7.591   3.414  0.0874  0.2761  0.0579
  682MOL0     C89944  10.024   7.980   3.578  0.1020  0.2171  0.7155
  682MOL0     C89945  10.157   7.993   3.596  0.6758  0.0729  0.1012
  682MOL0     C89946  10.586   8.121   3.543 -0.7300 -0.4586 -1.1126
  682MOL0     C89947  10.597   8.088   3.676 -0.2518 -0.1925 -0.5980
  682MOL0     C89948  10.725   8.113   3.736  0.2836  0.4789  0.2997
  682MOL0     C89949  10.836   8.168   3.673 -0.4771  0.8589  0.1655
  682MOL0     O89950  10.964   8.174   3.728  0.0304 -0.0524 -0.1723
  682MOL0     C89951  10.976   8.089   3.840 -0.6456 -0.5192 -0.5608
  682MOL0     C89952  11.119   8.120   3.888 -0.7828 -0.0599 -0.5148
  682MOL0     C89953  11.148   8.068   4.021 -0.1826  0.0424 -0.3262
  682MOL0     C89954  11.285   8.087   4.080 -0.9274  0.5651 -0.3163
  682MOL0     C89955  11.383   8.012   4.006 -0.7347  0.6705 -0.5601
  682MOL0     C89956  11.467   7.957   3.932  0.0175  0.0450 -0.1011
  682MOL0     C89957  10.822   8.201   3.541  1.0655  0.3331 -0.3115
  682MOL0     C89958  10.696   8.182   3.484 -0.8138  0.0150  1.1033
  682MOL0     H89959  10.221   8.142   3.297 -2.8663  2.6701  0.9154
  682MOL0     H89960   9.987   8.115   3.264  1.2281  0.3993 -0.3739
  682MOL0     H89961   9.750   8.073   3.619  1.9625  0.4388 -0.1950
  682MOL0     H89962   9.754   7.893   3.615 -0.8852 -0.0633 -0.2402
  682MOL0     H89963   9.598   7.893   3.422  3.2239  0.6485 -1.0063
  682MOL0     H89964   9.568   8.061   3.450 -1.0812 -0.9191 -1.0516
  682MOL0     H89965   9.499   8.015   3.668  0.7071 -2.2103  3.3809
  682MOL0     H89966   9.541   7.845   3.663 -0.9612  1.0409  1.0917
  682MOL0     H89967   9.335   7.986   3.487 -0.6621  0.8398  0.3458
  682MOL0     H89968   9.380   7.805   3.494  0.2253  1.1889 -1.4721
  682MOL0     H89969   9.306   7.951   3.752  2.3371 -3.3454  1.8663
  682MOL0     H89970   9.267   7.783   3.699 -4.1794 -0.0080 -1.5880
  682MOL0     H89971   9.112   8.021   3.620  3.7606  0.0330  0.0923
  682MOL0     H89972   9.055   7.874   3.702 -0.7203 -1.3951 -1.6728
  682MOL0     H89973   8.985   7.877   3.470  0.9298  2.1333 -0.8594
  682MOL0     H89974   9.148   7.904   3.413 -0.6533  0.2085 -1.5638
  682MOL0     H89975   9.168   7.657   3.546  1.9441  1.4581  0.2789
  682MOL0     H89976   9.121   7.675   3.374 -1.8718 -0.5284 -0.5306
  682MOL0     H89977   8.925   7.668   3.721  0.3774 -1.3048  1.1886
  682MOL0     H89978   8.723   7.518   3.799 -0.3163 -0.3489  0.2034
  682MOL0     H89979   8.644   7.425   3.668 -2.6962  1.4800 -0.4462
  682MOL0     H89980   8.514   7.620   3.586  1.1978 -2.5575 -0.8416
  682MOL0     H89981   8.568   7.707   3.721  0.2570 -0.4848  1.2494
  682MOL0     H89982   8.444   7.437   3.746 -0.8932  0.3195 -0.5335
  682MOL0     H89983   8.462   7.552   3.882 -1.0859 -0.5559  0.8545
  682MOL0     H89984   8.245   7.548   3.657  3.2661 -0.3574 -2.0545
  682MOL0     H89985   8.295   7.707   3.726 -2.0145  0.0448  0.0669
  682MOL0     H89986   8.054   7.686   3.666 -0.2080 -0.0264 -0.4786
  682MOL0     H89987   7.818   7.734   3.697  0.5270  1.4685  0.4054
  682MOL0     H89988   7.430   7.588   3.639 -1.4228 -0.8824 -0.0489
  682MOL0     H89989   7.195   7.653   3.588 -0.6129 -2.4679  2.3454
  682MOL0     H89990   7.003   7.956   3.865  1.8704 -1.4099  1.7767
  682MOL0     H89991   6.975   7.778   3.858  1.1689  1.0562  1.7604
  682MOL0     H89992   6.828   7.970   3.674 -3.4700  0.4575  1.9311
  682MOL0     H89993   6.770   7.933   3.827  1.4579  1.8141  0.9118
  682MOL0     H89994   6.787   7.677   3.753  0.9342 -0.4798 -0.6338
  682MOL0     H89995   6.815   7.745   3.588  3.1732 -2.3373  1.5400
  682MOL0     H89996   6.576   7.830   3.737 -1.3177 -1.2773  0.1632
  682MOL0     H89997   6.605   7.843   3.564 -2.6121 -0.7880 -0.2861
  682MOL0     H89998   6.440   7.641   3.627 -0.3501  3.0099 -1.9850
  682MOL0     H89999   6.576   7.578   3.713  2.8535 -1.3160 -2.3710
  682MOL0     H90000   6.703   7.548   3.508  0.6026  2.0821  5.0237
  682MOL0     H90001   6.576   7.635   3.417  0.9838 -2.0462 -1.4503
  682MOL0     H90002   6.560   7.351   3.522 -0.8899  0.1782  1.9291
  682MOL0     H90003   6.416   7.436   3.520 -0.3421  1.1754 -0.0481
  682MOL0     H90004   6.439   7.509   3.282  0.3399 -0.6514 -2.0728
  682MOL0     H90005   6.408   7.336   3.303  0.5511  0.0030  3.1749
  682MOL0     H90006   7.226   7.954   3.889 -2.3090 -3.0695  2.2118
  682MOL0     H90007   7.451   7.897   3.936 -0.2130 -0.3689  0.3196
  682MOL0     H90008   7.842   7.600   4.105 -0.2373  0.4756  0.2348
  682MOL0     H90009   8.079   7.524   4.062 -2.0176 -0.1872  1.5835
  682MOL0     H90010   9.967   7.917   3.645 -0.7152  0.5598  0.3566
  682MOL0     H90011  10.199   7.936   3.678  0.0138 -0.6807 -0.0747
  682MOL0     H90012  10.511   8.041   3.722 -0.2145  2.0657  2.0536
  682MOL0     H90013  10.724   8.087   3.842  0.3860  2.1882  0.7459
  682MOL0     H90014  10.968   7.982   3.821  3.1452 -1.1003  0.2200
  682MOL0     H90015  10.912   8.124   3.922  1.5824  0.0172  1.0653
  682MOL0     H90016  11.192   8.087   3.813 -2.3909  0.1491 -2.2545
  682MOL0     H90017  11.131   8.229   3.895  0.9006 -0.3071  0.8242
  682MOL0     H90018  11.127   7.960   4.020 -0.3759  0.0472  1.0935
  682MOL0     H90019  11.070   8.116   4.081 -0.4723 -0.6087 -0.1709
  682MOL0     H90020  11.318   8.191   4.075  0.8534  0.3214  3.1179
  682MOL0     H90021  11.295   8.060   4.186 -0.3648 -0.0318 -0.5119
  682MOL0     H90022  11.540   7.924   3.861 -1.1849 -1.1078 -0.8576
  682MOL0     H90023  10.902   8.243   3.481 -0.2949  0.8784 -1.8065
  682MOL0     H90024  10.695   8.225   3.384  3.2128 -4.5919 -1.3544
  683MOL0     O90025   2.613   6.732   9.433 -0.0587  0.5632  0.2788
  683MOL0     C90026   2.709   6.675   9.392  0.3977  0.0239 -0.4037
  683MOL0     O90027   2.723   6.538   9.363 -0.2742 -1.0109 -0.0371
  683MOL0     C90028   2.623   6.462   9.405 -0.3499 -0.2353 -0.3136
  683MOL0     C90029   2.497   6.452   9.343  0.2796  0.1551  0.2678
  683MOL0     C90030   2.413   6.354   9.378 -0.5011 -0.0422 -0.1734
  683MOL0     C90031   2.444   6.259   9.476  0.1255 -0.1619  0.2664
  683MOL0     O90032   2.364   6.157   9.522 -0.9201  0.1396  0.1575
  683MOL0     C90033   2.228   6.180   9.518 -0.8991  0.0636 -0.1499
  683MOL0     C90034   2.156   6.063   9.591 -0.0335 -0.3482  0.0286
  683MOL0     C90035   2.149   5.942   9.493 -0.6468 -0.0986  0.6231
  683MOL0     C90036   2.074   5.815   9.521  0.3826  0.0863 -0.2249
  683MOL0     C90037   1.921   5.834   9.546  0.2291  0.3023 -0.7175
  683MOL0     C90038   1.857   5.696   9.575 -0.3858 -0.2330 -0.8334
  683MOL0     C90039   1.708   5.685   9.593 -0.3165 -0.4898 -0.5083
  683MOL0     C90040   1.642   5.687   9.454  0.2647 -0.5184  0.2293
  683MOL0     N90041   1.508   5.650   9.473 -0.1345 -0.0483  0.9072
  683MOL0     C90042   1.399   5.735   9.476 -0.1815  0.5058 -0.0715
  683MOL0     C90043   1.292   5.648   9.483  0.3391  0.2835 -0.2308
  683MOL0     C90044   1.153   5.682   9.460  0.9150 -0.8532  0.6078
  683MOL0     C90045   1.058   5.665   9.581  0.4420  0.3052  0.3687
  683MOL0     C90046   1.064   5.527   9.628 -0.7094  0.1803 -0.2469
  683MOL0     C90047   0.936   5.484   9.698  0.3313  0.2548  0.1038
  683MOL0     O90048   0.899   5.582   9.792 -0.1880  0.0464 -0.3796
  683MOL0     C90049   0.760   5.603   9.794  0.0654 -0.3320  0.2364
  683MOL0     C90050   0.673   5.526   9.873 -0.0156  0.2909 -0.0323
  683MOL0     C90051   0.533   5.531   9.879  0.2059  0.2294 -0.1792
  683MOL0     C90052   0.474   5.623   9.791  0.4017 -0.4130 -0.2066
  683MOL0     C90053   0.328   5.636   9.767 -0.1694 -1.3666 -0.1109
  683MOL0     O90054   0.286   5.725   9.679  0.7202 -0.0701 -0.3902
  683MOL0     C90055   0.158   5.757   9.658 -0.2982  0.3478 -0.0908
  683MOL0     C90056   0.069   5.809   9.752  0.2072 -0.3035 -0.1909
  683MOL0     C90057  -0.067   5.837   9.720 -0.0263  0.8625 -1.0928
  683MOL0     C90058  -0.114   5.801   9.596  1.0364 -1.0705  0.4999
  683MOL0     O90059  -0.245   5.805   9.563  0.5648 -0.7884 -0.1189
  683MOL0     C90060  -0.329   5.914   9.591 -0.1914 -0.3568 -0.1729
  683MOL0     C90061  -0.288   6.039   9.512 -0.5480  1.2338 -0.0634
  683MOL0     C90062  -0.302   6.031   9.360  0.5687  1.4511  0.1533
  683MOL0     C90063  -0.279   6.162   9.287  0.5701 -0.8848 -0.6065
  683MOL0     C90064  -0.136   6.218   9.283  0.6309  0.2325  0.2594
  683MOL0     C90065  -0.047   6.125   9.218  0.3501  0.4188 -0.1524
  683MOL0     C90066   0.089   6.193   9.200 -0.1806 -0.4793  0.1164
  683MOL0     C90067   0.199   6.092   9.155 -0.1249  0.3689  0.4140
  683MOL0    Cl90068   0.210   5.959   9.275  0.0457 -0.2420  0.0511
  683MOL0     C90069  -0.023   5.753   9.497  0.4522 -0.0091  0.2238
  683MOL0     C90070   0.111   5.735   9.528  0.0845  0.0702 -0.2976
  683MOL0     O90071   0.258   5.557   9.829  0.1227 -1.1435  0.5565
  683MOL0     C90072   0.561   5.708   9.719 -0.4699  0.3147  0.2911
  683MOL0     C90073   0.696   5.701   9.721 -0.1075 -0.2882 -1.2223
  683MOL0     N90074   1.340   5.512   9.493 -0.2634  0.0299  0.8818
  683MOL0     N90075   1.467   5.517   9.482 -0.9780  0.3334 -0.0764
  683MOL0     C90076   2.563   6.274   9.546 -0.8670  0.1529 -0.3408
  683MOL0     C90077   2.655   6.370   9.504  0.6779 -0.2583  1.0203
  683MOL0     C90078   2.836   6.749   9.382 -0.0791 -0.2131 -0.8745
  683MOL0     C90079   2.940   6.695   9.309 -0.3871  0.1479  0.4201
  683MOL0     C90080   3.061   6.762   9.291  0.0742  0.4362 -0.5931
  683MOL0     C90081   3.078   6.885   9.349 -0.0693  0.0647 -0.4731
  683MOL0     O90082   3.207   6.929   9.344  0.7871  0.4943 -0.0649
  683MOL0     C90083   3.238   7.054   9.405 -0.8960 -0.4019  0.0743
  683MOL0     C90084   3.385   7.096   9.379  0.0255  0.6767  0.9760
  683MOL0     C90085   3.390   7.133   9.229  0.1188 -0.8242 -0.0709
  683MOL0     C90086   3.524   7.171   9.182 -0.6800  0.3682  0.5639
  683MOL0     C90087   3.589   7.279   9.259  0.8745 -0.6808 -0.5767
  683MOL0     C90088   3.648   7.375   9.316 -0.2179 -0.6448 -0.4768
  683MOL0     C90089   2.980   6.954   9.425  0.0250 -0.1138 -0.3094
  683MOL0     C90090   2.857   6.880   9.444 -0.4327  0.2652 -0.4143
  683MOL0     H90091   2.466   6.522   9.265  2.9817  2.1113  0.8085
  683MOL0     H90092   2.318   6.355   9.325 -1.4659 -0.7089  1.4823
  683MOL0     H90093   2.217   6.189   9.410  0.0144 -2.0243 -0.4658
  683MOL0     H90094   2.221   6.275   9.572  3.6842 -0.8550  2.5985
  683MOL0     H90095   2.055   6.087   9.626 -0.0526 -0.6382  0.1777
  683MOL0     H90096   2.222   6.029   9.671  4.2995  0.7479 -2.7609
  683MOL0     H90097   2.256   5.924   9.483 -0.7045 -0.9548  1.4609
  683MOL0     H90098   2.108   5.976   9.397 -3.8627 -1.1249  1.5042
  683MOL0     H90099   2.081   5.753   9.431  0.4979 -3.9661  2.3001
  683MOL0     H90100   2.120   5.765   9.607  1.6191  0.5214 -0.6209
  683MOL0     H90101   1.883   5.869   9.450  1.9997  0.4077 -1.4183
  683MOL0     H90102   1.890   5.901   9.627 -2.2068 -0.5342 -0.8920
  683MOL0     H90103   1.898   5.663   9.670  0.0399  0.3604 -0.8041
  683MOL0     H90104   1.898   5.632   9.495  1.2706  0.1504 -0.3368
  683MOL0     H90105   1.695   5.591   9.647  3.6101  0.1253  1.9672
  683MOL0     H90106   1.676   5.772   9.652  0.5449  2.2851 -3.7904
  683MOL0     H90107   1.690   5.606   9.397  0.1749  0.1901 -0.8619
  683MOL0     H90108   1.659   5.777   9.396 -0.2659 -0.3240  0.3746
  683MOL0     H90109   1.407   5.840   9.450  1.9184 -0.0359 -2.0235
  683MOL0     H90110   1.117   5.629   9.372 -3.0444  3.0877 -0.5524
  683MOL0     H90111   1.144   5.782   9.416 -3.9323 -0.9543  0.7614
  683MOL0     H90112   0.957   5.681   9.543  1.3115  1.4137 -1.6466
  683MOL0     H90113   1.079   5.728   9.667  0.2770  0.5436  0.2336
  683MOL0     H90114   1.087   5.458   9.545 -0.4234 -0.7962  0.6187
  683MOL0     H90115   1.146   5.500   9.696 -0.5834 -1.2546 -0.9201
  683MOL0     H90116   0.952   5.387   9.746 -2.8563  0.2163  1.3559
  683MOL0     H90117   0.856   5.480   9.623  1.8770  0.4757 -1.6290
  683MOL0     H90118   0.732   5.455   9.931  3.4225  3.1864  0.3356
  683MOL0     H90119   0.471   5.457   9.928  1.8789 -0.9617  0.2190
  683MOL0     H90120   0.111   5.836   9.848 -0.0822  0.5172 -0.2867
  683MOL0     H90121  -0.132   5.880   9.796 -1.3937 -0.1877 -1.6194
  683MOL0     H90122  -0.323   5.932   9.698 -2.0213  2.1884 -0.4196
  683MOL0     H90123  -0.432   5.884   9.570 -0.7666  2.2249 -1.4434
  683MOL0     H90124  -0.188   6.066   9.547 -0.2877  1.3762 -0.8824
  683MOL0     H90125  -0.352   6.123   9.539 -1.0310  0.5943  0.7916
  683MOL0     H90126  -0.396   5.984   9.332  3.2028 -3.4680 -1.7307
  683MOL0     H90127  -0.238   5.950   9.323  0.8314  0.7905  1.9718
  683MOL0     H90128  -0.313   6.138   9.186  1.9282  1.2319 -1.6438
  683MOL0     H90129  -0.343   6.247   9.316  0.8324 -0.1155 -2.1924
  683MOL0     H90130  -0.100   6.229   9.385  0.9991  0.1428  0.1396
  683MOL0     H90131  -0.129   6.314   9.231 -1.6565  1.8058  2.5614
  683MOL0     H90132  -0.083   6.101   9.117  1.0846  3.9052 -1.4026
  683MOL0     H90133  -0.039   6.043   9.289  1.4628  2.0703  1.7323
  683MOL0     H90134   0.078   6.275   9.129  0.4552  0.5569  1.1882
  683MOL0     H90135   0.123   6.231   9.297 -2.4031 -0.1815  0.8442
  683MOL0     H90136   0.292   6.148   9.143 -0.3094  1.2547  2.6611
  683MOL0     H90137   0.167   6.052   9.058  0.0642  4.1052 -1.3831
  683MOL0     H90138  -0.057   5.720   9.400  0.5693  1.1888 -0.2442
  683MOL0     H90139   0.189   5.697   9.463 -1.3865  0.0132 -2.1076
  683MOL0     H90140   0.525   5.790   9.658  2.3872  2.3471  1.1412
  683MOL0     H90141   0.759   5.759   9.655  0.8009  0.1276 -0.0303
  683MOL0     H90142   2.597   6.210   9.626  1.6817 -0.9270 -2.1477
  683MOL0     H90143   2.756   6.376   9.542  0.9922  0.0888  0.1493
  683MOL0     H90144   2.947   6.605   9.249 -0.5084 -0.4858  1.3361
  683MOL0     H90145   3.143   6.716   9.237  0.1024  1.0867 -1.1242
  683MOL0     H90146   3.223   7.042   9.513  3.1439  0.5306  0.8988
  683MOL0     H90147   3.175   7.134   9.366  1.7025  1.2243 -1.0610
  683MOL0     H90148   3.403   7.183   9.444  0.5754  1.9496 -0.7950
  683MOL0     H90149   3.457   7.017   9.401  1.9447  2.4016  1.2003
  683MOL0     H90150   3.323   7.218   9.217  1.3883  0.2198  0.0963
  683MOL0     H90151   3.352   7.048   9.171 -0.1045  1.8666 -4.2891
  683MOL0     H90152   3.578   7.076   9.190 -4.6402 -2.0584  1.5060
  683MOL0     H90153   3.531   7.204   9.078 -5.2007  1.7618  0.4930
  683MOL0     H90154   3.700   7.462   9.351 -2.0571  0.8914 -1.3628
  683MOL0     H90155   2.990   7.056   9.459 -0.6749  0.1976 -1.0030
  683MOL0     H90156   2.775   6.927   9.496 -0.6980 -0.3015 -0.3124
  684MOL0     O90157   5.717  11.024  10.673 -0.0714  0.2041  0.6752
  684MOL0     C90158   5.738  11.144  10.663  0.0463  0.9761 -0.5344
  684MOL0     O90159   5.847  11.206  10.608 -0.0063  0.3439 -0.2402
  684MOL0     C90160   5.961  11.138  10.572 -0.3853 -0.0844 -0.2986
  684MOL0     C90161   6.013  11.022  10.630 -0.1316 -0.2347  0.2280
  684MOL0     C90162   6.132  10.964  10.577  0.2059 -0.4300  0.5344
  684MOL0     C90163   6.203  11.019  10.474  0.4547  0.5094 -0.2132
  684MOL0     O90164   6.308  10.941  10.430  0.2350 -0.8156  1.2883
  684MOL0     C90165   6.399  11.010  10.343  0.1679  0.3797 -0.1710
  684MOL0     C90166   6.510  10.913  10.308 -0.4626 -0.7223  0.5700
  684MOL0     C90167   6.563  10.955  10.170 -0.4343  0.2438 -0.0586
  684MOL0     C90168   6.680  10.865  10.130 -0.3931  0.0004  0.0623
  684MOL0     C90169   6.757  10.916  10.007  0.1954  0.1327 -0.0750
  684MOL0     C90170   6.867  10.808   9.962 -0.1453  1.4334 -0.1271
  684MOL0     C90171   6.983  10.795  10.064  1.2029 -0.4302  0.2820
  684MOL0     C90172   7.072  10.672  10.028  0.5228  0.0776 -0.1066
  684MOL0     N90173   7.183  10.641  10.122 -0.5945 -0.0122 -0.5902
  684MOL0     C90174   7.154  10.587  10.244  0.2109  0.4391 -0.1339
  684MOL0     C90175   7.275  10.538  10.293  0.3232 -0.0940  0.5987
  684MOL0     C90176   7.288  10.432  10.402 -0.2784  0.5394  0.4424
  684MOL0     C90177   7.368  10.484  10.524 -0.1652  0.4566  0.0190
  684MOL0     C90178   7.390  10.372  10.632  0.7277  0.4558 -0.3065
  684MOL0     C90179   7.258  10.312  10.682  1.2154  0.8863 -0.7639
  684MOL0     O90180   7.283  10.220  10.786  0.3772  0.8330  0.3190
  684MOL0     C90181   7.179  10.168  10.860  0.8468 -0.3479 -0.4126
  684MOL0     C90182   7.040  10.168  10.820 -0.2404 -0.6760  0.3388
  684MOL0     C90183   6.930  10.116  10.897 -0.0525  0.4921  0.2037
  684MOL0     C90184   6.971  10.049  11.019  0.7939 -0.4822 -0.2747
  684MOL0     C90185   6.867   9.988  11.109  0.4967 -0.4595  0.4821
  684MOL0     O90186   6.748   9.964  11.057  0.2304  0.1812  0.4102
  684MOL0     C90187   6.645   9.911  11.128 -0.3676  0.1850  0.3568
  684MOL0     C90188   6.630   9.919  11.270  0.4945 -0.0647 -0.1946
  684MOL0     C90189   6.514   9.861  11.327 -0.5633 -0.9528 -0.5283
  684MOL0     C90190   6.408   9.802  11.248 -0.5374 -0.4010 -0.2073
  684MOL0     O90191   6.299   9.751  11.310  0.0481 -0.4804 -0.4074
  684MOL0     C90192   6.235   9.831  11.414 -1.0348 -0.2671  0.2324
  684MOL0     C90193   6.125   9.759  11.486  0.0729 -0.3353 -0.0957
  684MOL0     C90194   6.003   9.735  11.400 -0.2318 -0.3349 -0.7422
  684MOL0     C90195   5.904   9.634  11.475 -1.0753  0.2153 -0.0893
  684MOL0     C90196   5.778   9.616  11.390 -1.1010 -0.3415  0.3945
  684MOL0     C90197   5.809   9.573  11.249 -0.2446  0.4459 -0.2598
  684MOL0     C90198   5.708   9.475  11.208 -0.0770  0.2198 -0.4798
  684MOL0     C90199   5.754   9.433  11.065 -0.2407 -0.9334  0.3650
  684MOL0    Cl90200   5.703   9.557  10.943  0.1596  0.0800 -0.0739
  684MOL0     C90201   6.430   9.804  11.115  0.2503 -0.5681 -0.2137
  684MOL0     C90202   6.543   9.848  11.048 -0.6609 -0.7736 -0.0601
  684MOL0     O90203   6.913   9.952  11.213 -0.0727  0.2394 -0.3003
  684MOL0     C90204   7.109  10.049  11.058  0.0818  0.3338 -0.1028
  684MOL0     C90205   7.209  10.108  10.979  0.1498 -0.0634 -0.0494
  684MOL0     N90206   7.369  10.589  10.215  0.6153 -0.2549 -0.1167
  684MOL0     N90207   7.318  10.633  10.108  0.9044 -0.4205  0.3291
  684MOL0     C90208   6.160  11.137  10.425 -0.6450 -0.6573 -0.1714
  684MOL0     C90209   6.041  11.199  10.472  0.0644  0.2384 -0.1094
  684MOL0     C90210   5.638  11.239  10.717  0.8150 -0.3619 -0.2519
  684MOL0     C90211   5.671  11.374  10.753 -0.1384  0.5843 -0.3712
  684MOL0     C90212   5.576  11.465  10.786  0.2388  0.0476  0.3164
  684MOL0     C90213   5.442  11.423  10.800 -0.4746 -0.1714 -0.1115
  684MOL0     O90214   5.360  11.511  10.857 -0.2564  0.0878  0.6372
  684MOL0     C90215   5.219  11.517  10.825  0.3374 -0.1321  0.7024
  684MOL0     C90216   5.164  11.650  10.887  0.6196  0.5372 -0.3127
  684MOL0     C90217   5.013  11.645  10.879  0.1626 -0.1456 -0.1193
  684MOL0     C90218   4.952  11.768  10.935 -0.3852  0.3674 -0.5000
  684MOL0     C90219   4.803  11.776  10.913 -0.3561 -0.2493 -0.1423
  684MOL0     C90220   4.689  11.796  10.905  0.1953  0.1717  1.3325
  684MOL0     C90221   5.408  11.294  10.777  0.0461 -0.9569 -0.0991
  684MOL0     C90222   5.502  11.205  10.728 -0.2752 -0.7259 -0.4103
  684MOL0     H90223   5.964  10.977  10.715  0.8966 -1.9244 -0.0232
  684MOL0     H90224   6.172  10.876  10.625  0.2856  0.1508  1.5677
  684MOL0     H90225   6.442  11.101  10.386  0.1292  0.5066 -0.3998
  684MOL0     H90226   6.347  11.035  10.249  1.0684 -0.0588 -0.7992
  684MOL0     H90227   6.477  10.810  10.290 -1.1947 -0.4802  0.4625
  684MOL0     H90228   6.588  10.925  10.383  1.2545 -1.4234 -1.0100
  684MOL0     H90229   6.604  11.056  10.171  2.4030 -0.8322  0.0472
  684MOL0     H90230   6.483  10.946  10.095 -2.2139 -0.2975  1.8042
  684MOL0     H90231   6.758  10.855  10.206 -0.2843  0.1932 -0.0235
  684MOL0     H90232   6.637  10.766  10.111  0.1955  0.1338 -2.3304
  684MOL0     H90233   6.802  11.013  10.029 -2.6542  1.3897  0.6304
  684MOL0     H90234   6.685  10.923   9.925  0.0656  0.0043  0.0272
  684MOL0     H90235   6.907  10.829   9.862 -0.8410 -3.3808 -1.7072
  684MOL0     H90236   6.823  10.709   9.945  2.2520 -0.1189  1.9290
  684MOL0     H90237   7.043  10.887  10.058 -1.4859  1.4355  0.4538
  684MOL0     H90238   6.941  10.785  10.165 -0.8301 -0.2143 -0.5037
  684MOL0     H90239   7.107  10.704   9.930 -1.6974  1.7359 -0.4538
  684MOL0     H90240   7.009  10.583  10.020 -1.3361  1.3638 -0.4036
  684MOL0     H90241   7.052  10.574  10.278 -0.1995  0.9708 -1.1150
  684MOL0     H90242   7.348  10.350  10.360  1.9412  2.3630 -0.1874
  684MOL0     H90243   7.185  10.403  10.424 -0.8867  1.2276 -1.2680
  684MOL0     H90244   7.312  10.565  10.571  1.1659  0.0897  2.3894
  684MOL0     H90245   7.466  10.526  10.502 -1.3349  3.1660 -0.3676
  684MOL0     H90246   7.456  10.298  10.585  0.6362  0.0917  0.1207
  684MOL0     H90247   7.455  10.403  10.715  2.4095 -1.9270 -0.6036
  684MOL0     H90248   7.213  10.260  10.597 -0.6328  1.1999 -0.0181
  684MOL0     H90249   7.194  10.390  10.725  0.1582 -0.6798  0.5895
  684MOL0     H90250   7.017  10.222  10.729  2.0460  1.0661  0.6942
  684MOL0     H90251   6.827  10.139  10.869  0.5765  3.8647  0.1663
  684MOL0     H90252   6.713   9.950  11.332 -0.6890 -0.2748  1.5786
  684MOL0     H90253   6.506   9.855  11.435 -1.0942  4.9796  0.0547
  684MOL0     H90254   6.195   9.922  11.368 -2.7849  0.0361  2.1944
  684MOL0     H90255   6.307   9.870  11.487 -0.0658  0.3065 -0.9969
  684MOL0     H90256   6.088   9.812  11.573  0.2481  0.2843 -0.3950
  684MOL0     H90257   6.168   9.669  11.533 -1.5976 -1.3859 -0.4978
  684MOL0     H90258   6.037   9.681  11.311 -0.6958  0.6579 -1.5393
  684MOL0     H90259   5.956   9.832  11.383  2.3086  1.6209  2.2459
  684MOL0     H90260   5.946   9.535  11.496 -2.5604  0.2594  4.0634
  684MOL0     H90261   5.880   9.671  11.576 -1.9955 -3.4446  1.2059
  684MOL0     H90262   5.727   9.712  11.391  0.6757  0.7290 -2.0813
  684MOL0     H90263   5.706   9.556  11.447 -2.6884  0.7524 -0.3959
  684MOL0     H90264   5.913   9.538  11.244 -0.4079  0.0956 -3.1960
  684MOL0     H90265   5.802   9.664  11.189  0.1021 -0.4970 -1.7915
  684MOL0     H90266   5.705   9.381  11.264  0.0954  0.8289  0.5691
  684MOL0     H90267   5.607   9.518  11.200 -0.1563  0.4111  1.2276
  684MOL0     H90268   5.713   9.333  11.046  0.1006 -1.4448  2.0991
  684MOL0     H90269   5.864   9.425  11.063 -0.1096  0.6487  0.1077
  684MOL0     H90270   6.339   9.777  11.063  0.0537  1.3774 -0.9933
  684MOL0     H90271   6.543   9.844  10.939 -0.4203  1.7216 -0.2210
  684MOL0     H90272   7.149   9.998  11.145 -1.2047 -1.6177 -0.6057
  684MOL0     H90273   7.314  10.111  11.008  0.2621  1.3008 -0.5055
  684MOL0     H90274   6.202  11.188  10.339 -1.7334 -3.0100 -2.2275
  684MOL0     H90275   6.003  11.294  10.434  3.1541  1.3750 -0.7008
  684MOL0     H90276   5.777  11.399  10.754  0.0167  0.0870  1.9213
  684MOL0     H90277   5.605  11.569  10.791  0.1102  0.0645  0.7818
  684MOL0     H90278   5.170  11.429  10.867  1.8416  0.1422  3.1822
  684MOL0     H90279   5.203  11.514  10.716 -2.6395 -1.4384  1.0803
  684MOL0     H90280   5.201  11.665  10.989  0.1103 -3.1708  0.5670
  684MOL0     H90281   5.184  11.724  10.809  2.9526  0.0632 -0.2437
  684MOL0     H90282   4.974  11.561  10.937 -1.0447  1.5530  1.6466
  684MOL0     H90283   4.988  11.634  10.773  2.9252  0.6261 -0.9339
  684MOL0     H90284   4.980  11.767  11.041 -2.1446  0.8980  0.0059
  684MOL0     H90285   4.992  11.863  10.900  0.6241 -0.1950 -0.8976
  684MOL0     H90286   4.582  11.798  10.905 -0.1255 -1.5565 -3.6811
  684MOL0     H90287   5.308  11.260  10.803 -0.9755  0.1346 -2.3656
  684MOL0     H90288   5.458  11.109  10.703 -1.2216 -0.3304 -0.3142
  685MOL0     O90289   7.599   2.894   1.953 -0.3908 -0.3251 -0.1300
  685MOL0     C90290   7.569   2.800   2.027  0.0420  0.4937 -0.8625
  685MOL0     O90291   7.649   2.698   2.050 -0.2301  0.5374  0.8126
  685MOL0     C90292   7.774   2.695   1.988 -0.7245  0.6770  0.0601
  685MOL0     C90293   7.809   2.700   1.848  0.3936 -0.2562 -0.2811
  685MOL0     C90294   7.934   2.668   1.798 -0.0932 -0.0870 -0.1236
  685MOL0     C90295   8.037   2.639   1.888  0.2545 -0.4172 -0.1618
  685MOL0     O90296   8.166   2.624   1.847 -0.2575 -0.1467 -0.2000
  685MOL0     C90297   8.196   2.549   1.729  0.3549  0.2504 -0.0423
  685MOL0     C90298   8.344   2.532   1.723 -0.9307 -0.8060  0.4207
  685MOL0     C90299   8.387   2.431   1.602  0.5426 -0.4857  0.0437
  685MOL0     C90300   8.536   2.418   1.581  0.0504 -0.2887 -0.0633
  685MOL0     C90301   8.560   2.306   1.483 -0.3556  0.2362  0.3518
  685MOL0     C90302   8.705   2.295   1.437 -0.3822 -0.6953 -0.8792
  685MOL0     C90303   8.809   2.260   1.546  0.2624 -0.1147 -0.0071
  685MOL0     C90304   8.791   2.127   1.618  0.4841  0.2796 -0.5632
  685MOL0     N90305   8.799   2.018   1.522 -0.3708  0.4949  0.9409
  685MOL0     C90306   8.911   1.956   1.483 -0.0348 -0.8432  0.0389
  685MOL0     C90307   8.879   1.862   1.395  0.8008  0.1657  0.6247
  685MOL0     C90308   8.965   1.775   1.318 -0.6255 -0.9582 -0.2046
  685MOL0     C90309   9.067   1.853   1.235 -0.1488 -1.3168  0.1631
  685MOL0     C90310   9.109   1.774   1.109 -1.1369  1.2747  0.3125
  685MOL0     C90311   9.131   1.629   1.139  0.4509 -0.0632  0.0189
  685MOL0     O90312   9.185   1.563   1.022 -0.3326  0.0561 -0.4563
  685MOL0     C90313   9.311   1.508   1.043  1.0168 -0.3697  0.1496
  685MOL0     C90314   9.326   1.419   1.146 -0.3108  1.1254  0.5668
  685MOL0     C90315   9.448   1.352   1.168  0.4026  0.2248 -0.5732
  685MOL0     C90316   9.562   1.379   1.090 -1.0473 -0.2052  0.5313
  685MOL0     C90317   9.687   1.312   1.130  0.7111  0.5358  0.1657
  685MOL0     O90318   9.681   1.215   1.232 -0.0671 -0.5976  0.1682
  685MOL0     C90319   9.804   1.150   1.245  0.9052 -0.6577 -0.1115
  685MOL0     C90320   9.809   1.011   1.253  1.0642 -0.2245  0.1455
  685MOL0     C90321   9.928   0.943   1.291 -0.3245 -0.2906  0.1222
  685MOL0     C90322  10.045   1.026   1.319  0.1395 -0.9421 -1.0354
  685MOL0     O90323  10.175   0.980   1.337 -0.3224  0.1237 -0.0341
  685MOL0     C90324  10.207   0.843   1.351  0.3086  0.3384 -0.7399
  685MOL0     C90325  10.356   0.817   1.338  0.5430  0.9280  0.2851
  685MOL0     C90326  10.401   0.675   1.361 -0.7290 -0.3802  0.4410
  685MOL0     C90327  10.551   0.663   1.306 -0.6121  1.1573  0.1677
  685MOL0     C90328  10.612   0.530   1.335  1.2386 -0.4649 -0.4987
  685MOL0     C90329  10.718   0.493   1.231  0.5960  0.2600  0.6955
  685MOL0     C90330  10.834   0.592   1.215  0.2106 -0.7763 -0.5520
  685MOL0     C90331  10.965   0.537   1.177  0.3258  0.3535 -0.8238
  685MOL0    Cl90332  11.089   0.648   1.211 -0.4253 -0.0804  0.4850
  685MOL0     C90333  10.029   1.164   1.323  0.0851  0.0962 -0.0111
  685MOL0     C90334   9.912   1.220   1.288 -0.8339 -0.0120 -0.1246
  685MOL0     O90335   9.784   1.358   1.077  0.0648  0.7833 -0.5412
  685MOL0     C90336   9.544   1.461   0.979 -0.1152 -0.0195  0.3529
  685MOL0     C90337   9.423   1.530   0.961  0.5042  0.0770  0.2894
  685MOL0     N90338   8.746   1.874   1.369 -0.5007 -0.0887 -0.4336
  685MOL0     N90339   8.695   1.969   1.450 -0.1741  0.3714  0.3938
  685MOL0     C90340   8.004   2.624   2.031  0.2341 -0.5486  1.2397
  685MOL0     C90341   7.877   2.650   2.074  0.0448 -0.0097  0.2503
  685MOL0     C90342   7.420   2.783   2.070 -0.9518  0.0919 -0.1516
  685MOL0     C90343   7.372   2.657   2.106  0.5326 -0.5209 -0.4952
  685MOL0     C90344   7.239   2.638   2.143  0.0928  0.0351  0.5974
  685MOL0     C90345   7.159   2.747   2.161  1.0729  0.1821 -0.0889
  685MOL0     O90346   7.035   2.732   2.214 -0.1039 -1.0699  0.0176
  685MOL0     C90347   7.047   2.720   2.356 -1.4241  0.5861 -1.0895
  685MOL0     C90348   7.021   2.574   2.390 -0.1129 -0.6131 -0.5845
  685MOL0     C90349   7.033   2.557   2.544  0.5997 -0.4814  0.6029
  685MOL0     C90350   7.049   2.414   2.595 -0.0933 -0.3669 -0.4504
  685MOL0     C90351   6.939   2.321   2.558  0.2129 -0.4504  0.1415
  685MOL0     C90352   6.848   2.246   2.532  0.5234 -0.0493 -1.4223
  685MOL0     C90353   7.207   2.881   2.120  0.3696  0.0928 -0.6429
  685MOL0     C90354   7.337   2.893   2.069  0.3220 -0.0655  0.3392
  685MOL0     H90355   7.729   2.719   1.777  0.2135  1.0685  0.2609
  685MOL0     H90356   7.955   2.679   1.692  3.5169 -1.0426  0.3817
  685MOL0     H90357   8.156   2.594   1.638 -0.8803  0.8770  0.7735
  685MOL0     H90358   8.156   2.448   1.740  0.0348 -0.0498 -3.0468
  685MOL0     H90359   8.389   2.506   1.819  1.0067  2.8865  0.6876
  685MOL0     H90360   8.392   2.625   1.690 -2.9933 -0.1461 -1.0011
  685MOL0     H90361   8.348   2.473   1.509 -1.5646 -1.3040  0.4969
  685MOL0     H90362   8.343   2.332   1.619 -1.6516  0.6439  1.4229
  685MOL0     H90363   8.576   2.516   1.552 -0.3702  1.2112  3.8645
  685MOL0     H90364   8.580   2.401   1.680  0.4938 -0.0573 -0.2163
  685MOL0     H90365   8.512   2.339   1.390 -0.4440  1.5586  0.8495
  685MOL0     H90366   8.526   2.209   1.520 -0.2772 -0.5402 -1.4656
  685MOL0     H90367   8.730   2.393   1.397 -0.4486 -1.2529 -2.3357
  685MOL0     H90368   8.710   2.224   1.354 -0.2636 -2.5007  0.5878
  685MOL0     H90369   8.907   2.259   1.497  0.0417 -0.4138 -0.4511
  685MOL0     H90370   8.813   2.345   1.614 -0.2537  2.2093 -2.6932
  685MOL0     H90371   8.695   2.136   1.670  1.8694  0.7615  2.1446
  685MOL0     H90372   8.864   2.121   1.700 -1.3897  0.5066  1.2109
  685MOL0     H90373   9.002   1.981   1.536 -0.4908  3.4317 -0.8269
  685MOL0     H90374   8.896   1.709   1.264 -2.1093 -0.1641  0.6449
  685MOL0     H90375   9.022   1.706   1.381 -1.4857 -0.5056  1.1118
  685MOL0     H90376   9.155   1.886   1.291 -0.1009  0.0345 -0.6595
  685MOL0     H90377   9.020   1.941   1.190 -1.2916  1.1929  5.4613
  685MOL0     H90378   9.038   1.785   1.026 -2.5585  0.2475  1.3388
  685MOL0     H90379   9.204   1.813   1.071  0.8982 -2.2687  1.3441
  685MOL0     H90380   9.035   1.576   1.130  1.0315 -0.8703 -1.9820
  685MOL0     H90381   9.174   1.608   1.237 -2.9189  1.5625  2.0189
  685MOL0     H90382   9.240   1.399   1.209  1.4794 -1.4245  2.3899
  685MOL0     H90383   9.454   1.296   1.261 -1.5188 -1.6135 -1.4806
  685MOL0     H90384   9.720   0.951   1.236  1.4643 -1.1035  1.0473
  685MOL0     H90385   9.936   0.836   1.308  0.2376 -0.1705  0.6121
  685MOL0     H90386  10.161   0.780   1.274  0.6732 -1.8988  0.7687
  685MOL0     H90387  10.169   0.812   1.449  0.1914  1.2247 -0.4931
  685MOL0     H90388  10.410   0.887   1.403  0.2254  1.0280  0.4443
  685MOL0     H90389  10.384   0.845   1.236 -3.9684 -0.1673 -1.5039
  685MOL0     H90390  10.345   0.600   1.305 -0.4459  0.3542 -0.8597
  685MOL0     H90391  10.409   0.650   1.467  0.3701 -2.0126  0.0192
  685MOL0     H90392  10.538   0.657   1.197 -0.4215 -3.2234  0.1914
  685MOL0     H90393  10.622   0.740   1.337  1.9327 -0.5032 -1.1546
  685MOL0     H90394  10.533   0.455   1.325 -1.6300  2.6603 -3.4901
  685MOL0     H90395  10.664   0.524   1.431 -0.9084 -1.1919  0.6855
  685MOL0     H90396  10.678   0.476   1.130  0.3024 -1.0498  1.0163
  685MOL0     H90397  10.761   0.396   1.257  0.1024 -0.1135  0.1596
  685MOL0     H90398  10.811   0.666   1.138  3.1781  1.1442  0.2107
  685MOL0     H90399  10.849   0.651   1.306  1.0175  3.9131 -3.4269
  685MOL0     H90400  10.947   0.519   1.070 -0.9236 -0.2788 -0.5192
  685MOL0     H90401  11.008   0.448   1.223  3.5036  0.9192 -2.3421
  685MOL0     H90402  10.107   1.237   1.343 -1.6814  1.2507  3.4311
  685MOL0     H90403   9.899   1.326   1.309 -3.9402 -0.3759  0.2372
  685MOL0     H90404   9.627   1.474   0.910 -0.3138 -1.2214 -0.1354
  685MOL0     H90405   9.400   1.576   0.866  0.4903  1.7779  1.0708
  685MOL0     H90406   8.082   2.596   2.101 -0.0912  0.3692  2.0043
  685MOL0     H90407   7.857   2.628   2.178  2.8220  0.8006  1.0334
  685MOL0     H90408   7.440   2.573   2.113 -0.3148 -1.1147  1.1617
  685MOL0     H90409   7.189   2.545   2.169  0.2389 -0.5994 -1.2457
  685MOL0     H90410   6.973   2.789   2.398  0.5015  0.6785  2.5497
  685MOL0     H90411   7.141   2.756   2.400 -1.4101 -2.1696  1.4290
  685MOL0     H90412   6.913   2.555   2.380 -0.9910  1.7014  2.7672
  685MOL0     H90413   7.090   2.502   2.346 -0.5414 -0.0349 -2.2592
  685MOL0     H90414   6.941   2.590   2.593 -0.3222 -2.9409  0.7005
  685MOL0     H90415   7.118   2.618   2.575 -0.2479  2.2397 -1.9515
  685MOL0     H90416   7.142   2.368   2.558 -0.9808 -2.2886 -0.4082
  685MOL0     H90417   7.055   2.418   2.704  2.7717  1.6081 -0.5797
  685MOL0     H90418   6.774   2.172   2.509  1.9418 -1.5589 -1.3196
  685MOL0     H90419   7.128   2.955   2.112 -1.7332 -2.1399 -2.3003
  685MOL0     H90420   7.389   2.964   2.006  1.4731 -1.5758 -0.4827
  686MOL0     O90421   3.422   7.605   3.139 -0.2449 -0.4551  0.0675
  686MOL0     C90422   3.471   7.697   3.071  0.6663 -0.2547  0.5375
  686MOL0     O90423   3.390   7.793   3.011  0.2427  0.0178  0.3934
  686MOL0     C90424   3.254   7.750   3.003  0.1063  0.1371 -0.6736
  686MOL0     C90425   3.161   7.851   3.035  0.8337  0.6851 -0.6000
  686MOL0     C90426   3.026   7.827   3.016 -0.4667  0.1368  0.0404
  686MOL0     C90427   2.978   7.701   2.978 -0.4775 -0.3728 -0.0968
  686MOL0     O90428   2.843   7.677   2.954  0.0043  0.4539 -0.2521
  686MOL0     C90429   2.788   7.556   3.006 -0.5433 -0.1361  1.0793
  686MOL0     C90430   2.639   7.573   3.006  0.5717  0.3695 -0.5277
  686MOL0     C90431   2.568   7.440   3.004  0.3037  0.3666  0.3194
  686MOL0     C90432   2.413   7.464   2.985 -0.8481  0.4146  0.2118
  686MOL0     C90433   2.338   7.336   2.972  0.9124 -0.2645 -0.9272
  686MOL0     C90434   2.187   7.373   2.998  0.5693 -1.1421  0.7860
  686MOL0     C90435   2.127   7.481   2.904  0.2607  0.6718 -1.0195
  686MOL0     C90436   1.971   7.452   2.884 -0.4185  0.6422  0.4172
  686MOL0     N90437   1.880   7.467   2.998 -0.0849 -0.6277  0.3570
  686MOL0     C90438   1.775   7.393   3.030  0.0936 -1.2968 -0.6606
  686MOL0     C90439   1.752   7.430   3.158  0.2612 -0.8629  0.1069
  686MOL0     C90440   1.653   7.380   3.254  0.3950  0.9340 -0.1463
  686MOL0     C90441   1.559   7.487   3.308  0.2874 -0.3423 -0.5038
  686MOL0     C90442   1.453   7.538   3.209  0.7984  0.2315 -0.6745
  686MOL0     C90443   1.352   7.622   3.275  0.3392 -0.2845 -0.5305
  686MOL0     O90444   1.259   7.539   3.350 -0.0451  0.3319  0.0990
  686MOL0     C90445   1.139   7.506   3.291 -0.6060 -0.7684 -0.4359
  686MOL0     C90446   1.127   7.460   3.167  0.0348  0.0188  0.9336
  686MOL0     C90447   1.004   7.441   3.105 -0.8176 -0.5358 -0.2647
  686MOL0     C90448   0.881   7.454   3.175  0.4803 -0.6897 -0.3919
  686MOL0     C90449   0.751   7.432   3.111 -0.7635 -0.5063  0.4019
  686MOL0     O90450   0.652   7.460   3.194  0.4819  0.6072  0.1571
  686MOL0     C90451   0.526   7.440   3.157  0.4662 -0.2461 -0.6482
  686MOL0     C90452   0.468   7.499   3.041 -0.6647  0.7530  0.6444
  686MOL0     C90453   0.329   7.499   3.016  0.1684  0.3900  0.0111
  686MOL0     C90454   0.247   7.433   3.114 -1.9725  0.3986  0.7632
  686MOL0     O90455   0.113   7.420   3.084 -0.4450  0.0059 -0.9422
  686MOL0     C90456   0.017   7.447   3.185  0.3947 -0.1134  0.6932
  686MOL0     C90457  -0.127   7.435   3.122 -0.4354 -0.3817  0.1744
  686MOL0     C90458  -0.246   7.446   3.223 -0.7217 -0.7848 -0.1136
  686MOL0     C90459  -0.379   7.424   3.139  0.3643 -0.4768  1.0059
  686MOL0     C90460  -0.454   7.299   3.184  0.1164 -0.1954  0.1126
  686MOL0     C90461  -0.592   7.282   3.112  0.9036 -0.4694  1.1031
  686MOL0     C90462  -0.664   7.169   3.157  0.1186  0.4913  0.5259
  686MOL0     C90463  -0.795   7.138   3.071 -0.4611  0.0980 -0.2851
  686MOL0    Cl90464  -0.908   7.281   3.060 -0.5073  0.2260 -0.1585
  686MOL0     C90465   0.310   7.362   3.226  0.7540 -0.3391  0.5954
  686MOL0     C90466   0.441   7.368   3.239 -0.0948 -0.7580 -0.6945
  686MOL0     O90467   0.750   7.386   2.994 -0.3977  1.1547 -1.3286
  686MOL0     C90468   0.894   7.485   3.312 -0.1411 -0.1538 -0.5478
  686MOL0     C90469   1.026   7.515   3.366  0.3175 -0.4866  0.4448
  686MOL0     N90470   1.840   7.535   3.190  0.9743  0.1541 -0.7568
  686MOL0     N90471   1.910   7.560   3.090 -0.4963 -0.1729  0.1096
  686MOL0     C90472   3.070   7.599   2.944  0.0725  0.8201 -0.0723
  686MOL0     C90473   3.209   7.625   2.954 -0.4191 -0.5021  0.4327
  686MOL0     C90474   3.619   7.713   3.061 -0.1956  0.4308 -0.6972
  686MOL0     C90475   3.671   7.837   3.018 -0.1728  0.1128 -0.9247
  686MOL0     C90476   3.807   7.852   2.992  0.2965 -0.0684  0.5843
  686MOL0     C90477   3.898   7.744   3.011 -0.3478 -0.7517 -0.1017
  686MOL0     O90478   4.036   7.747   2.999  0.2040 -0.2930  0.4657
  686MOL0     C90479   4.084   7.845   2.907  1.2540  0.0535  0.3069
  686MOL0     C90480   4.227   7.809   2.884  0.3124  0.2297 -0.2252
  686MOL0     C90481   4.301   7.833   3.024 -0.3577  0.0107  0.7239
  686MOL0     C90482   4.353   7.975   3.039 -0.0414  0.1678 -0.4828
  686MOL0     C90483   4.477   8.003   2.966 -0.3956 -0.2904 -0.3378
  686MOL0     C90484   4.576   8.035   2.901 -0.2886  0.1512 -0.5123
  686MOL0     C90485   3.851   7.629   3.064  0.6179  0.2267 -0.0296
  686MOL0     C90486   3.714   7.605   3.085  0.1981 -0.0473 -0.8398
  686MOL0     H90487   3.193   7.946   3.075 -1.4209  0.8235  1.0739
  686MOL0     H90488   2.963   7.915   3.012  1.6074  1.6903 -0.4133
  686MOL0     H90489   2.802   7.532   3.112 -1.2389 -2.5360  0.6849
  686MOL0     H90490   2.816   7.467   2.949 -2.3102 -0.0168 -0.0334
  686MOL0     H90491   2.622   7.621   2.908  0.0352 -1.4431 -1.3561
  686MOL0     H90492   2.606   7.638   3.087 -0.4731 -1.4696  0.5817
  686MOL0     H90493   2.565   7.393   3.103  2.4185 -0.6587 -0.0586
  686MOL0     H90494   2.603   7.381   2.919 -0.3694  1.8731 -1.0487
  686MOL0     H90495   2.379   7.513   3.077  2.2458  0.6717  1.3545
  686MOL0     H90496   2.394   7.537   2.907 -2.9267 -2.0766 -1.7917
  686MOL0     H90497   2.380   7.269   3.049  1.7880  2.6054  1.2682
  686MOL0     H90498   2.357   7.299   2.871 -1.8779 -0.4483 -1.4678
  686MOL0     H90499   2.177   7.414   3.099 -2.2015 -1.0369  0.5275
  686MOL0     H90500   2.125   7.284   2.989 -0.5990 -0.2092 -1.0186
  686MOL0     H90501   2.136   7.580   2.949 -0.3306  0.3412 -0.1340
  686MOL0     H90502   2.177   7.486   2.807 -0.6482  0.0784 -1.5316
  686MOL0     H90503   1.952   7.355   2.838 -4.1444  1.5938 -0.3613
  686MOL0     H90504   1.937   7.518   2.804  2.7991 -0.8668 -2.4635
  686MOL0     H90505   1.718   7.328   2.965 -2.2825  0.2927 -0.2959
  686MOL0     H90506   1.707   7.337   3.338 -2.6165  0.2072  1.5661
  686MOL0     H90507   1.589   7.306   3.205 -0.6796  0.4824  1.8480
  686MOL0     H90508   1.619   7.575   3.332 -0.8032  0.2295  0.2455
  686MOL0     H90509   1.522   7.439   3.399  0.9177  1.2354  0.6395
  686MOL0     H90510   1.499   7.591   3.125  2.8814  0.8185  0.7379
  686MOL0     H90511   1.404   7.445   3.181 -0.2739  1.0251 -1.5004
  686MOL0     H90512   1.295   7.680   3.201  0.1108 -2.2159 -1.9574
  686MOL0     H90513   1.396   7.692   3.347 -3.2781 -2.2112  4.0090
  686MOL0     H90514   1.205   7.445   3.093  0.1701 -0.4340  1.1623
  686MOL0     H90515   0.997   7.405   3.003 -1.8976 -1.6801  0.1895
  686MOL0     H90516   0.529   7.543   2.963  0.6168  0.3133  1.3784
  686MOL0     H90517   0.277   7.543   2.931 -0.8974 -1.4995 -0.3741
  686MOL0     H90518   0.023   7.549   3.224 -1.3498  0.9061 -1.5117
  686MOL0     H90519   0.026   7.373   3.265 -2.3143 -1.4571 -0.1064
  686MOL0     H90520  -0.143   7.348   3.059 -0.8644 -1.6217  1.9053
  686MOL0     H90521  -0.131   7.518   3.051  1.8548 -0.5980 -0.2782
  686MOL0     H90522  -0.244   7.540   3.278  1.1263  0.4074 -2.0309
  686MOL0     H90523  -0.241   7.368   3.300 -1.7329  0.6462  1.4695
  686MOL0     H90524  -0.444   7.512   3.156 -2.3333 -2.4652  1.7696
  686MOL0     H90525  -0.353   7.411   3.034  0.7787  0.4909  0.9751
  686MOL0     H90526  -0.471   7.301   3.291  1.4939  1.0933  0.3482
  686MOL0     H90527  -0.394   7.213   3.151  0.1929  0.3644 -1.2965
  686MOL0     H90528  -0.574   7.273   3.004  0.5224  1.6381  0.8235
  686MOL0     H90529  -0.639   7.380   3.129 -1.6489 -1.6106  1.1311
  686MOL0     H90530  -0.597   7.082   3.157 -0.3036  0.1615  1.6562
  686MOL0     H90531  -0.687   7.171   3.264  1.1235  2.6054  0.7716
  686MOL0     H90532  -0.849   7.045   3.093 -2.4609 -0.0997 -4.9512
  686MOL0     H90533  -0.766   7.101   2.972  2.4350 -1.8501  1.1330
  686MOL0     H90534   0.250   7.306   3.298  0.4454  0.8778  1.3204
  686MOL0     H90535   0.478   7.333   3.335 -0.2361  2.0571  0.4814
  686MOL0     H90536   0.809   7.489   3.379  1.3950 -2.4950  1.7396
  686MOL0     H90537   1.039   7.539   3.471  1.3915  4.3751 -0.5959
  686MOL0     H90538   3.034   7.501   2.914  1.7382  0.1440  0.0142
  686MOL0     H90539   3.283   7.549   2.928  1.9198  1.6447  0.4261
  686MOL0     H90540   3.612   7.927   3.005  2.1792  1.9522  0.3542
  686MOL0     H90541   3.838   7.955   2.976 -2.0356  0.7334  0.8531
  686MOL0     H90542   4.085   7.941   2.959  0.6242  2.7813 -4.2181
  686MOL0     H90543   4.026   7.841   2.814  2.2546 -0.5336 -0.3150
  686MOL0     H90544   4.229   7.706   2.846  2.9674 -0.3261  1.1422
  686MOL0     H90545   4.274   7.869   2.806 -0.7287  0.7494 -0.4695
  686MOL0     H90546   4.388   7.766   3.027 -1.1969 -1.1575 -0.3277
  686MOL0     H90547   4.248   7.799   3.114  1.6929  0.6611  2.2776
  686MOL0     H90548   4.274   8.039   3.000 -0.3853  0.3177  0.4545
  686MOL0     H90549   4.378   8.003   3.141  0.0949 -0.4304 -0.3443
  686MOL0     H90550   4.665   8.047   2.842  0.6140  1.5659  1.0723
  686MOL0     H90551   3.926   7.551   3.077  1.4745  1.0924  0.3065
  686MOL0     H90552   3.690   7.507   3.125  1.7469 -0.2549 -0.3344
  687MOL0     O90553   5.732   8.978   9.850  0.3492 -0.1597  0.7768
  687MOL0     C90554   5.773   9.091   9.866  0.6791 -0.6116 -0.0502
  687MOL0     O90555   5.703   9.199   9.915 -0.0706  0.2277 -0.0330
  687MOL0     C90556   5.588   9.188   9.994 -0.3311 -0.6143 -0.6572
  687MOL0     C90557   5.551   9.079  10.067  0.7773  0.1131 -0.0897
  687MOL0     C90558   5.430   9.081  10.145  0.3421 -1.2375  0.4458
  687MOL0     C90559   5.351   9.199  10.150 -0.8899 -0.8916 -0.6897
  687MOL0     O90560   5.228   9.192  10.220 -0.2927  0.2436 -0.6682
  687MOL0     C90561   5.123   9.285  10.196  0.2673  0.4597  0.4576
  687MOL0     C90562   5.005   9.247  10.285  0.0631  0.5616  0.4565
  687MOL0     C90563   4.888   9.343  10.274 -0.2223 -0.0011  0.2967
  687MOL0     C90564   4.763   9.268  10.331  0.1127 -1.1038 -0.4570
  687MOL0     C90565   4.635   9.360  10.324 -0.4487 -0.4611 -0.5014
  687MOL0     C90566   4.539   9.310  10.430  0.3557 -0.0455  0.6246
  687MOL0     C90567   4.414   9.398  10.445 -0.0158 -0.7797 -0.9948
  687MOL0     C90568   4.309   9.371  10.337 -0.2388 -0.7986  1.1228
  687MOL0     N90569   4.223   9.251  10.331  0.0740 -0.0442  0.1315
  687MOL0     C90570   4.125   9.216  10.411  0.2443 -0.0136 -0.3239
  687MOL0     C90571   4.060   9.116  10.348  0.4494 -0.0959 -0.8463
  687MOL0     C90572   3.932   9.056  10.397  0.0078  0.2991  0.6653
  687MOL0     C90573   3.811   9.140  10.361  0.1493  0.7795  0.1672
  687MOL0     C90574   3.696   9.094  10.449 -0.0781 -0.0574  0.8032
  687MOL0     C90575   3.565   9.110  10.379 -0.3446  0.7567  0.3296
  687MOL0     O90576   3.470   9.068  10.475 -0.6770  0.2565 -0.6227
  687MOL0     C90577   3.340   9.096  10.442  0.2770 -0.4748 -0.0188
  687MOL0     C90578   3.296   9.226  10.460 -0.0619  0.1308 -0.9043
  687MOL0     C90579   3.167   9.262  10.414 -0.6787  0.1153  0.4643
  687MOL0     C90580   3.079   9.169  10.349  0.3818 -0.6589 -0.2173
  687MOL0     C90581   2.941   9.207  10.304 -0.3887 -0.4708  0.0922
  687MOL0     O90582   2.905   9.326  10.351 -0.3889  0.2920 -0.2839
  687MOL0     C90583   2.792   9.382  10.306  0.3644  0.9093 -0.2719
  687MOL0     C90584   2.784   9.452  10.191 -0.0679  0.5247  0.0991
  687MOL0     C90585   2.665   9.510  10.149  1.2269 -0.6596 -0.0894
  687MOL0     C90586   2.547   9.481  10.220 -0.1497  0.6309 -0.3567
  687MOL0     O90587   2.434   9.533  10.166 -0.5793 -0.0975  0.9511
  687MOL0     C90588   2.327   9.567  10.257 -0.0195  0.5796 -0.1900
  687MOL0     C90589   2.220   9.659  10.192 -0.4580 -0.0439  0.3392
  687MOL0     C90590   2.100   9.652  10.285 -0.0884 -0.0748 -0.3849
  687MOL0     C90591   1.989   9.729  10.234  0.8799 -0.0472 -0.8884
  687MOL0     C90592   1.875   9.748  10.346  0.2611 -0.0939  0.4522
  687MOL0     C90593   1.754   9.822  10.300  0.2903  0.6182  0.1558
  687MOL0     C90594   1.662   9.734  10.207 -0.3635  0.1259  0.3116
  687MOL0     C90595   1.524   9.798  10.195 -0.6851  0.2935 -0.3630
  687MOL0    Cl90596   1.397   9.673  10.124 -0.3423 -0.4081 -0.1377
  687MOL0     C90597   2.554   9.393  10.332 -0.3074 -0.6418  0.8963
  687MOL0     C90598   2.677   9.354  10.383  0.6290 -0.4559 -0.4938
  687MOL0     O90599   2.879   9.134  10.228 -0.6538  0.0631  0.4292
  687MOL0     C90600   3.140   9.039  10.325  0.6065  0.1824  0.5922
  687MOL0     C90601   3.265   9.001  10.372 -0.6073  0.0627 -0.2712
  687MOL0     N90602   4.113   9.083  10.230  0.0712 -0.0185 -0.1873
  687MOL0     N90603   4.213   9.169  10.217 -1.0511 -0.1516  0.0472
  687MOL0     C90604   5.401   9.307  10.087  0.5506 -0.9564  0.1757
  687MOL0     C90605   5.520   9.310  10.013 -0.4170  1.0933 -0.5370
  687MOL0     C90606   5.913   9.112   9.830  0.1457  0.0072 -0.5262
  687MOL0     C90607   5.997   9.012   9.787  0.1357  0.0083 -0.0815
  687MOL0     C90608   6.135   9.033   9.754  0.2456 -0.6573  0.1892
  687MOL0     C90609   6.202   9.156   9.785 -0.1574 -0.6436 -0.3691
  687MOL0     O90610   6.338   9.198   9.775 -0.3456  0.8160  0.2653
  687MOL0     C90611   6.452   9.100   9.780  0.5273 -0.1699 -0.4342
  687MOL0     C90612   6.518   9.065   9.640 -0.7805  0.3421 -0.3059
  687MOL0     C90613   6.568   9.190   9.570 -0.1172 -1.1121  0.2624
  687MOL0     C90614   6.667   9.276   9.648 -1.3054 -0.3396 -0.8801
  687MOL0     C90615   6.792   9.205   9.692  1.0558 -0.1627 -0.6023
  687MOL0     C90616   6.886   9.133   9.720  0.0319  0.2615  0.5501
  687MOL0     C90617   6.107   9.251   9.834 -0.2430 -0.4382  0.4228
  687MOL0     C90618   5.970   9.233   9.849  0.0611  0.3102 -0.5425
  687MOL0     H90619   5.601   8.984  10.052  0.2999  0.2183 -2.9967
  687MOL0     H90620   5.397   8.981  10.172 -1.0242 -1.2093 -1.0005
  687MOL0     H90621   5.107   9.288  10.088 -0.3200 -3.5625  0.2659
  687MOL0     H90622   5.162   9.379  10.235 -2.3928  1.7974  0.1090
  687MOL0     H90623   5.035   9.247  10.390  3.3674  1.9558 -0.3838
  687MOL0     H90624   4.977   9.145  10.256 -0.3431  1.0104 -0.8015
  687MOL0     H90625   4.873   9.356  10.166 -0.3854  0.0958  0.3309
  687MOL0     H90626   4.909   9.443  10.315  2.5118  0.1759 -1.3268
  687MOL0     H90627   4.753   9.175  10.273  1.1450 -0.9400 -0.9392
  687MOL0     H90628   4.791   9.244  10.434  1.9160  0.4175 -0.5270
  687MOL0     H90629   4.598   9.354  10.221  1.7395  1.7821 -1.5367
  687MOL0     H90630   4.656   9.466  10.338 -3.0078 -0.0469  0.8393
  687MOL0     H90631   4.582   9.304  10.531  0.0082 -0.8011  0.7392
  687MOL0     H90632   4.505   9.209  10.405  2.3176 -0.6664  0.3046
  687MOL0     H90633   4.364   9.367  10.538  1.9318 -1.1901 -0.0324
  687MOL0     H90634   4.438   9.505  10.449 -2.1637 -0.2703  0.7495
  687MOL0     H90635   4.358   9.361  10.240 -0.8581  1.5304  0.5081
  687MOL0     H90636   4.237   9.452  10.328  0.3509 -0.2719  1.0348
  687MOL0     H90637   4.101   9.249  10.512  0.8365 -2.1376  0.5715
  687MOL0     H90638   3.935   9.052  10.507  1.8177 -1.4058  0.6116
  687MOL0     H90639   3.941   8.958  10.349 -1.1132  0.4673  0.0737
  687MOL0     H90640   3.791   9.129  10.254 -0.7956  0.0478  0.4023
  687MOL0     H90641   3.827   9.246  10.383 -1.1704  0.9488  0.4119
  687MOL0     H90642   3.704   8.996  10.497  0.3670  0.4613  1.8292
  687MOL0     H90643   3.691   9.170  10.528  0.2108  0.8218 -0.0051
  687MOL0     H90644   3.549   9.041  10.295 -0.2386  2.6458 -1.3215
  687MOL0     H90645   3.545   9.208  10.335 -1.4092 -0.1044 -1.2100
  687MOL0     H90646   3.362   9.294  10.513  1.3316 -1.5820 -0.3464
  687MOL0     H90647   3.125   9.359  10.440  0.8985  0.8764  0.2475
  687MOL0     H90648   2.875   9.472  10.135 -0.0510  1.1484  0.3381
  687MOL0     H90649   2.660   9.566  10.055 -2.3995  0.3192  0.5545
  687MOL0     H90650   2.364   9.619  10.345 -0.3570 -1.3104  1.1090
  687MOL0     H90651   2.285   9.473  10.293  1.1621  1.4579  3.9804
  687MOL0     H90652   2.187   9.620  10.095  0.4187 -1.6295  0.6412
  687MOL0     H90653   2.266   9.755  10.171 -0.1284  0.3162  2.4749
  687MOL0     H90654   2.128   9.691  10.382 -1.7426  0.3030 -0.0195
  687MOL0     H90655   2.067   9.548  10.299  1.0956 -0.5051 -0.6539
  687MOL0     H90656   2.036   9.822  10.200 -0.7056 -0.6260 -5.3086
  687MOL0     H90657   1.956   9.672  10.147  0.4665  0.0937 -0.8268
  687MOL0     H90658   1.931   9.803  10.422 -1.5048  0.8025  1.1433
  687MOL0     H90659   1.849   9.646  10.374  2.4500 -0.3910  1.6020
  687MOL0     H90660   1.777   9.912  10.243 -1.7080  1.5803  0.7701
  687MOL0     H90661   1.706   9.844  10.396  0.5105 -1.7492  0.8813
  687MOL0     H90662   1.714   9.718  10.111 -0.6495 -0.8403  0.3035
  687MOL0     H90663   1.642   9.633  10.245 -2.4384  0.9374  1.5358
  687MOL0     H90664   1.519   9.885  10.129  0.7289 -1.1361 -2.4722
  687MOL0     H90665   1.483   9.824  10.293 -0.0752  0.1656 -0.0692
  687MOL0     H90666   2.460   9.394  10.386  0.5114  1.8247  2.4461
  687MOL0     H90667   2.675   9.299  10.476  2.0515 -0.1575 -0.2690
  687MOL0     H90668   3.084   8.962  10.273  1.1209 -1.2017  1.9973
  687MOL0     H90669   3.321   8.909  10.356  0.7537  1.1703 -2.1881
  687MOL0     H90670   5.337   9.394  10.096  0.7483 -0.9990  2.6269
  687MOL0     H90671   5.553   9.401   9.963 -1.8951  3.0868  1.8877
  687MOL0     H90672   5.953   8.914   9.771 -2.3822  0.9853  0.2887
  687MOL0     H90673   6.190   8.945   9.722  1.1778  0.5292 -1.6596
  687MOL0     H90674   6.418   9.003   9.816  2.5205 -0.1518  1.7050
  687MOL0     H90675   6.523   9.137   9.854  0.9689  1.4528 -1.5881
  687MOL0     H90676   6.603   8.998   9.648 -2.2932 -1.7936 -1.0893
  687MOL0     H90677   6.440   9.012   9.583  1.7434 -2.9677 -0.9687
  687MOL0     H90678   6.478   9.247   9.545  0.1604 -1.8284 -2.8375
  687MOL0     H90679   6.606   9.181   9.467  0.1313  0.0585  0.2336
  687MOL0     H90680   6.709   9.352   9.582 -2.4288  1.3757  0.3030
  687MOL0     H90681   6.616   9.317   9.735  0.3054  1.2279 -0.6217
  687MOL0     H90682   6.967   9.081   9.766 -2.3104 -2.3954  2.0139
  687MOL0     H90683   6.152   9.345   9.865  0.2137 -1.5333  3.4180
  687MOL0     H90684   5.912   9.314   9.892 -0.7983 -0.8560  0.5909
  688MOL0     O90685   2.307   0.234   0.306 -0.2093 -0.4854 -0.9302
  688MOL0     C90686   2.352   0.286   0.209  0.2669 -0.5910  0.1175
  688MOL0     O90687   2.284   0.325   0.104  0.5488 -0.0126  0.8982
  688MOL0     C90688   2.145   0.308   0.107 -0.3711  0.1258 -0.3431
  688MOL0     C90689   2.075   0.192   0.143  0.1612 -0.2298  0.4858
  688MOL0     C90690   1.936   0.178   0.140  0.2913  0.4355  0.3611
  688MOL0     C90691   1.860   0.282   0.082 -0.1404 -0.1019 -0.8749
  688MOL0     O90692   1.725   0.281   0.076 -0.0268 -0.0307 -0.5219
  688MOL0     C90693   1.654   0.147   0.074  0.0225 -0.6585  0.2888
  688MOL0     C90694   1.498   0.148   0.091 -0.2543 -0.1346 -0.0015
  688MOL0     C90695   1.433   0.221   0.208  0.5385 -0.0007 -0.2781
  688MOL0     C90696   1.279   0.219   0.194  0.8421  0.0948 -0.3805
  688MOL0     C90697   1.189   0.311   0.275  0.2638  0.3783 -0.3220
  688MOL0     C90698   1.208   0.293   0.427  0.7731  0.4750 -0.7124
  688MOL0     C90699   1.126   0.390   0.504  0.6161  0.6253 -1.1835
  688MOL0     C90700   1.133   0.382   0.653 -0.3641 -0.1860  0.3089
  688MOL0     N90701   1.078   0.501   0.711  0.0891  0.3976 -0.4636
  688MOL0     C90702   1.143   0.577   0.806  0.3563 -0.2599  1.4149
  688MOL0     C90703   1.048   0.662   0.851  0.6996  0.2564 -0.0793
  688MOL0     C90704   1.065   0.768   0.958  0.4302  0.3241  0.1517
  688MOL0     C90705   1.117   0.903   0.903 -0.5127 -0.5129 -0.0973
  688MOL0     C90706   1.110   1.011   1.003 -0.1059  0.4761 -0.4538
  688MOL0     C90707   1.068   1.149   0.952 -0.5283 -0.4169  0.9461
  688MOL0     O90708   1.051   1.246   1.052 -0.0886  0.7250 -0.1015
  688MOL0     C90709   0.966   1.223   1.149 -0.0568 -0.1863 -0.7344
  688MOL0     C90710   1.014   1.242   1.282 -0.4320  0.4603  0.0927
  688MOL0     C90711   0.930   1.217   1.389  0.5213 -0.0678 -0.5178
  688MOL0     C90712   0.795   1.176   1.378 -0.7347  0.1259  0.1024
  688MOL0     C90713   0.709   1.142   1.496 -0.2046  0.2096 -0.3243
  688MOL0     O90714   0.582   1.093   1.478 -0.6050 -0.0524  0.1144
  688MOL0     C90715   0.502   1.063   1.594  0.9187  0.1122  0.5087
  688MOL0     C90716   0.492   1.131   1.713 -0.4231  0.3463  0.1756
  688MOL0     C90717   0.409   1.089   1.815  0.4507 -0.7720 -0.4516
  688MOL0     C90718   0.337   0.970   1.800  0.5399  0.9014  0.6608
  688MOL0     O90719   0.263   0.911   1.890 -0.4752 -0.3006  0.8213
  688MOL0     C90720   0.178   0.989   1.967  0.4861  0.4020 -0.4947
  688MOL0     C90721   0.108   0.895   2.068  0.5042  0.8294 -0.1833
  688MOL0     C90722   0.046   0.964   2.189 -0.0960  0.0204  0.1217
  688MOL0     C90723  -0.079   1.037   2.139  0.3794  0.4883 -0.4533
  688MOL0     C90724  -0.149   1.124   2.237 -0.0989 -0.7847  0.3255
  688MOL0     C90725  -0.259   1.207   2.169 -0.9350 -0.2651  0.5645
  688MOL0     C90726  -0.336   1.289   2.261  0.6905  0.0343 -0.0262
  688MOL0     C90727  -0.428   1.218   2.360  0.2770  0.4959  0.3437
  688MOL0    Cl90728  -0.584   1.290   2.407 -1.0127  0.0933 -0.2490
  688MOL0     C90729   0.328   0.915   1.670  0.1779 -0.0681  0.2920
  688MOL0     C90730   0.408   0.963   1.565 -0.0736 -0.1067 -0.4899
  688MOL0     O90731   0.769   1.156   1.604  0.3667 -0.1046 -0.3527
  688MOL0     C90732   0.749   1.158   1.244 -0.5843  0.6582 -0.0444
  688MOL0     C90733   0.832   1.187   1.137  0.0743  1.0490 -0.5320
  688MOL0     N90734   0.932   0.639   0.783 -0.1503  0.2551  0.0592
  688MOL0     N90735   0.949   0.540   0.703  0.0225  0.0563  0.4393
  688MOL0     C90736   1.925   0.390   0.036 -1.1655 -0.0247 -0.5214
  688MOL0     C90737   2.066   0.409   0.060 -0.6478  0.4840 -0.5197
  688MOL0     C90738   2.496   0.322   0.216  0.1454  0.6363  0.3515
  688MOL0     C90739   2.574   0.335   0.330  0.3919 -0.1439 -0.4375
  688MOL0     C90740   2.710   0.364   0.321  0.3143  1.0681 -0.2236
  688MOL0     C90741   2.770   0.386   0.203  0.3517 -0.0531 -0.6919
  688MOL0     O90742   2.907   0.420   0.213 -0.2469  0.4085  0.3777
  688MOL0     C90743   2.979   0.435   0.087 -0.4471 -0.0496 -0.0543
  688MOL0     C90744   3.111   0.513   0.117 -0.5226  0.3141  0.3222
  688MOL0     C90745   3.197   0.442   0.220  1.1907  0.7559  0.3511
  688MOL0     C90746   3.222   0.525   0.344 -0.1073  0.1398  0.5307
  688MOL0     C90747   3.301   0.447   0.434  0.6392 -0.4317 -0.5753
  688MOL0     C90748   3.379   0.407   0.519  0.3543  0.3312 -0.8943
  688MOL0     C90749   2.697   0.387   0.087  1.0149  0.5935 -0.4647
  688MOL0     C90750   2.556   0.348   0.093 -0.4222 -0.2861  0.6494
  688MOL0     H90751   2.138   0.113   0.183 -1.0175 -0.3070  2.3177
  688MOL0     H90752   1.880   0.094   0.177 -3.1272  1.5676 -1.8040
  688MOL0     H90753   1.690   0.079   0.152 -0.2831  0.0134  1.0425
  688MOL0     H90754   1.671   0.110  -0.027 -2.7897 -1.6315  0.0799
  688MOL0     H90755   1.467   0.044   0.088  2.7905 -1.1491  0.2451
  688MOL0     H90756   1.460   0.188  -0.004  0.4270 -0.5507 -0.4577
  688MOL0     H90757   1.457   0.328   0.202  2.8730 -0.2339  2.4376
  688MOL0     H90758   1.462   0.186   0.308  2.0527 -0.7526 -0.9438
  688MOL0     H90759   1.252   0.233   0.089  1.2429  1.2204 -0.3465
  688MOL0     H90760   1.261   0.119   0.234 -0.7912  0.8178  0.7953
  688MOL0     H90761   1.089   0.287   0.239  0.1515  1.5145 -0.7991
  688MOL0     H90762   1.215   0.414   0.249  2.9868 -0.7552 -2.6686
  688MOL0     H90763   1.312   0.314   0.453  1.2473 -4.0251  2.0610
  688MOL0     H90764   1.190   0.189   0.454  1.4095 -0.2645 -2.9240
  688MOL0     H90765   1.159   0.490   0.474 -0.9223  2.3502  2.3693
  688MOL0     H90766   1.023   0.380   0.470  0.4657 -1.1178 -0.3430
  688MOL0     H90767   1.235   0.356   0.682 -0.2751 -0.4147 -0.1865
  688MOL0     H90768   1.069   0.301   0.689  1.3608 -2.3401 -1.2071
  688MOL0     H90769   1.245   0.571   0.840  1.0147  3.2963  0.3842
  688MOL0     H90770   1.142   0.739   1.030  0.2267  2.8045  1.4567
  688MOL0     H90771   0.972   0.783   1.012 -1.3439 -1.6734 -2.0963
  688MOL0     H90772   1.050   0.926   0.819  1.9764  1.4012 -1.6836
  688MOL0     H90773   1.218   0.895   0.862 -1.9056  1.9174 -4.7850
  688MOL0     H90774   1.028   0.975   1.065  1.7192  0.1486  1.9135
  688MOL0     H90775   1.200   1.017   1.065 -0.2424 -0.1173 -0.1937
  688MOL0     H90776   0.981   1.138   0.888  0.3067 -0.5562 -0.1998
  688MOL0     H90777   1.152   1.189   0.894 -1.1091  1.5360  1.3853
  688MOL0     H90778   1.120   1.261   1.298 -0.5630 -0.0192  1.6241
  688MOL0     H90779   0.983   1.223   1.483  1.5832 -0.5163 -1.0749
  688MOL0     H90780   0.565   1.211   1.726 -0.9035  0.7130  0.6967
  688MOL0     H90781   0.410   1.141   1.910  2.3490  0.6924 -1.2064
  688MOL0     H90782   0.104   1.039   1.903 -0.3017 -0.5651 -0.3677
  688MOL0     H90783   0.241   1.060   2.023  2.8413 -0.9886 -1.2662
  688MOL0     H90784   0.175   0.815   2.100 -1.0290 -1.5464 -2.4752
  688MOL0     H90785   0.029   0.851   2.005 -0.1648  1.3890  0.2536
  688MOL0     H90786   0.104   1.039   2.243 -2.4407 -0.7617  4.1795
  688MOL0     H90787   0.013   0.903   2.274 -0.7392  0.3717  0.1350
  688MOL0     H90788  -0.058   1.105   2.057 -0.8486  3.3960  1.4642
  688MOL0     H90789  -0.143   0.953   2.111  0.5894 -0.2471  1.1359
  688MOL0     H90790  -0.078   1.191   2.288 -1.5289 -0.3638  1.8618
  688MOL0     H90791  -0.186   1.072   2.326  1.5817  1.4120  2.4743
  688MOL0     H90792  -0.314   1.131   2.113  4.7058 -2.2290 -3.1465
  688MOL0     H90793  -0.220   1.275   2.093 -1.6938  0.7131  1.0348
  688MOL0     H90794  -0.268   1.345   2.325  0.8394 -1.3108  1.0304
  688MOL0     H90795  -0.398   1.358   2.203 -0.6758 -0.3444  0.9303
  688MOL0     H90796  -0.357   1.191   2.439  1.9727 -0.5569 -1.4239
  688MOL0     H90797  -0.456   1.119   2.323 -0.0559  0.5394  0.4809
  688MOL0     H90798   0.253   0.840   1.648 -0.1644  0.8750 -2.0714
  688MOL0     H90799   0.396   0.916   1.468  0.2798  0.0011 -0.5860
  688MOL0     H90800   0.645   1.127   1.236 -0.4223  0.5080 -2.4239
  688MOL0     H90801   0.798   1.172   1.035  0.2649 -2.5896 -0.1952
  688MOL0     H90802   1.863   0.464  -0.013 -1.7820 -1.8290 -2.6067
  688MOL0     H90803   2.111   0.504   0.031  2.2515 -0.7263 -0.2988
  688MOL0     H90804   2.522   0.312   0.423  0.1043 -1.5455 -0.9211
  688MOL0     H90805   2.776   0.363   0.408 -1.3319  1.2028  1.0689
  688MOL0     H90806   2.934   0.480  -0.002 -2.6366  1.1971  1.6038
  688MOL0     H90807   3.000   0.329   0.066  1.2905 -0.2655  2.2730
  688MOL0     H90808   3.160   0.516   0.020 -1.9406 -2.9729 -0.6314
  688MOL0     H90809   3.088   0.614   0.150  1.3516  0.4348  1.3734
  688MOL0     H90810   3.295   0.416   0.179  0.9371  0.5097 -0.0982
  688MOL0     H90811   3.167   0.342   0.250  2.3665  0.8553  2.0237
  688MOL0     H90812   3.272   0.620   0.323  0.4191 -0.1727  0.3464
  688MOL0     H90813   3.125   0.554   0.386 -0.9256  0.3030 -1.3669
  688MOL0     H90814   3.433   0.350   0.593 -1.2206 -0.9887 -0.6834
  688MOL0     H90815   2.736   0.413  -0.011  0.0350 -2.6157 -1.8156
  688MOL0     H90816   2.496   0.346   0.002  0.2689 -0.8968  0.1895
  689MOL0     O90817  10.152   6.087   2.133  0.7621 -0.4805  0.8777
  689MOL0     C90818  10.254   6.120   2.193  1.2657  0.0212 -0.2963
  689MOL0     O90819  10.261   6.233   2.273  0.2387  0.0475 -0.1324
  689MOL0     C90820  10.150   6.303   2.321  0.0673 -0.9660 -0.0767
  689MOL0     C90821  10.023   6.312   2.265  0.3471  0.4708  0.2008
  689MOL0     C90822   9.924   6.387   2.327 -0.0794  0.5617  0.2244
  689MOL0     C90823   9.940   6.443   2.450  0.0249  0.2797 -0.1802
  689MOL0     O90824   9.855   6.541   2.497  0.6914  0.3651 -0.2034
  689MOL0     C90825   9.881   6.621   2.615 -0.9123 -0.7961 -0.1811
  689MOL0     C90826   9.754   6.688   2.667 -0.9111  0.2626 -0.5162
  689MOL0     C90827   9.680   6.767   2.563  0.1229  0.5251  0.0864
  689MOL0     C90828   9.547   6.824   2.620  0.5851  0.0464 -0.4771
  689MOL0     C90829   9.438   6.718   2.600 -0.4007  0.0721 -0.1054
  689MOL0     C90830   9.334   6.718   2.713 -0.0234  0.0303 -0.1706
  689MOL0     C90831   9.215   6.613   2.697  0.0206 -0.0152  0.1519
  689MOL0     C90832   9.119   6.627   2.819  0.1218  0.0462  0.1443
  689MOL0     N90833   9.006   6.528   2.821 -0.2009 -0.3106  0.6671
  689MOL0     C90834   8.899   6.534   2.740  0.8813  0.7674 -0.3964
  689MOL0     C90835   8.823   6.426   2.774  0.2439 -0.4559  0.2307
  689MOL0     C90836   8.700   6.381   2.707  0.0517  0.0752  0.3325
  689MOL0     C90837   8.576   6.376   2.786  0.5553 -0.3140 -0.3876
  689MOL0     C90838   8.518   6.513   2.789 -0.1482 -0.0278  0.1409
  689MOL0     C90839   8.376   6.498   2.844 -0.3703 -0.3642  1.0415
  689MOL0     O90840   8.281   6.417   2.754 -0.2813 -0.0460  0.0271
  689MOL0     C90841   8.140   6.429   2.768 -0.4626  0.1902  0.5612
  689MOL0     C90842   8.069   6.350   2.683 -0.4631 -0.7349 -0.5517
  689MOL0     C90843   7.931   6.353   2.681 -0.8406 -0.1276  0.0295
  689MOL0     C90844   7.860   6.436   2.769  0.1517 -0.8113  0.4244
  689MOL0     C90845   7.710   6.426   2.771  0.0848  0.7025  0.2000
  689MOL0     O90846   7.642   6.501   2.860  0.3201 -0.7773  0.0299
  689MOL0     C90847   7.502   6.507   2.857  0.0509  0.5211  1.2628
  689MOL0     C90848   7.430   6.425   2.950 -0.2543 -0.3960 -0.6502
  689MOL0     C90849   7.292   6.444   2.942 -0.3758  0.2024  0.4420
  689MOL0     C90850   7.230   6.530   2.848  0.0399 -0.0834 -0.2014
  689MOL0     O90851   7.093   6.546   2.834 -0.3204 -0.2513  0.2711
  689MOL0     C90852   7.011   6.502   2.946  0.4221 -0.5846 -0.3775
  689MOL0     C90853   7.029   6.576   3.078  0.1818  0.0311 -0.4611
  689MOL0     C90854   7.010   6.727   3.061  0.6483 -0.1034  0.2170
  689MOL0     C90855   6.878   6.789   2.999  0.1437 -0.0396 -0.3033
  689MOL0     C90856   6.761   6.750   3.078  1.1069  0.0226 -0.3220
  689MOL0     C90857   6.634   6.780   3.003  0.3070  0.2947 -0.1910
  689MOL0     C90858   6.519   6.732   3.080  0.6183  0.0625  0.5524
  689MOL0     C90859   6.395   6.771   3.006  0.1401 -0.2353 -0.0873
  689MOL0    Cl90860   6.269   6.738   3.135  0.4310 -0.0188  0.6329
  689MOL0     C90861   7.309   6.597   2.756 -0.2399 -0.4077 -0.0927
  689MOL0     C90862   7.445   6.588   2.764  0.1019 -0.2311  0.0595
  689MOL0     O90863   7.654   6.338   2.705 -0.5568  0.5568 -0.1851
  689MOL0     C90864   7.942   6.519   2.850 -0.1647  0.0972  0.4033
  689MOL0     C90865   8.078   6.519   2.851  0.1569 -0.2108 -0.3214
  689MOL0     N90866   8.876   6.369   2.890  0.0888  0.7978  0.1734
  689MOL0     N90867   8.988   6.435   2.917  0.9889 -0.3068 -0.5179
  689MOL0     C90868  10.073   6.439   2.502  0.9339  0.1369 -1.0076
  689MOL0     C90869  10.169   6.365   2.443 -0.1395 -0.1053 -0.2423
  689MOL0     C90870  10.365   6.029   2.161  0.0391  0.0740  0.5095
  689MOL0     C90871  10.350   5.896   2.114 -0.3561 -0.1773  0.2503
  689MOL0     C90872  10.458   5.807   2.080 -0.1934  0.7491 -0.0231
  689MOL0     C90873  10.585   5.855   2.104  1.1482 -0.6059 -0.6619
  689MOL0     O90874  10.700   5.788   2.103  0.4109 -0.5767 -0.1416
  689MOL0     C90875  10.717   5.659   2.040 -0.3800 -0.3115  0.2495
  689MOL0     C90876  10.668   5.545   2.127  0.2462  1.5401  0.0190
  689MOL0     C90877  10.621   5.416   2.042 -0.0575  0.5992  0.9821
  689MOL0     C90878  10.541   5.320   2.133 -0.7033 -0.2220  0.2859
  689MOL0     C90879  10.632   5.259   2.232 -0.5811  0.1527  0.0740
  689MOL0     C90880  10.701   5.205   2.317  0.2477  0.0846  0.1498
  689MOL0     C90881  10.597   5.978   2.159 -0.0757  0.0661 -0.7550
  689MOL0     C90882  10.497   6.072   2.184  0.6916  0.5515  0.5104
  689MOL0     H90883  10.013   6.265   2.168  0.9953 -0.5188  0.6001
  689MOL0     H90884   9.826   6.401   2.283  0.7105  2.0765 -1.1822
  689MOL0     H90885   9.948   6.700   2.579 -1.0265 -1.0512 -0.9891
  689MOL0     H90886   9.921   6.562   2.698 -0.0002 -0.3833 -0.3157
  689MOL0     H90887   9.774   6.759   2.748 -1.6837  1.0018 -0.9566
  689MOL0     H90888   9.697   6.604   2.710  0.5366 -0.5735 -0.1863
  689MOL0     H90889   9.661   6.705   2.475 -0.0888 -1.9038  1.7206
  689MOL0     H90890   9.734   6.858   2.537 -2.4910  1.9115 -0.7847
  689MOL0     H90891   9.550   6.839   2.728  0.7160 -0.6517 -0.3787
  689MOL0     H90892   9.536   6.926   2.580  2.7180  0.6705  0.3816
  689MOL0     H90893   9.480   6.616   2.600 -0.2937  0.1049  0.9524
  689MOL0     H90894   9.395   6.726   2.500 -1.9064 -2.0035  0.3022
  689MOL0     H90895   9.298   6.819   2.735  0.1081 -0.3296  1.8491
  689MOL0     H90896   9.383   6.702   2.809 -1.8287  0.9386  0.9556
  689MOL0     H90897   9.158   6.632   2.606  1.0438  2.0805 -0.1088
  689MOL0     H90898   9.254   6.511   2.689  0.6365  0.3738 -3.5010
  689MOL0     H90899   9.075   6.727   2.813  0.1411 -0.0256 -2.3684
  689MOL0     H90900   9.188   6.616   2.903 -0.1912 -0.6410  0.3166
  689MOL0     H90901   8.887   6.602   2.656 -0.7972  3.7568  2.0499
  689MOL0     H90902   8.727   6.283   2.665  0.1333  1.0295 -1.9606
  689MOL0     H90903   8.681   6.443   2.619 -0.1865  1.9668  1.6588
  689MOL0     H90904   8.605   6.352   2.889 -1.7031 -0.2379  0.3131
  689MOL0     H90905   8.506   6.308   2.736  1.2877  0.3002 -2.3498
  689MOL0     H90906   8.577   6.574   2.858 -0.0465  1.8475 -1.5063
  689MOL0     H90907   8.521   6.564   2.692  0.4443 -0.4513 -0.0696
  689MOL0     H90908   8.344   6.602   2.839  0.4806 -0.1554 -1.1138
  689MOL0     H90909   8.366   6.474   2.950  0.5881  3.5917  2.1928
  689MOL0     H90910   8.115   6.277   2.617 -0.7147 -1.9014  0.5149
  689MOL0     H90911   7.886   6.281   2.613  1.4615 -1.2386 -0.4047
  689MOL0     H90912   7.463   6.358   3.029 -1.3370  0.8606  0.9452
  689MOL0     H90913   7.230   6.388   3.012 -1.1612  1.1718  0.5356
  689MOL0     H90914   7.029   6.395   2.958 -1.4988 -0.7522  1.5219
  689MOL0     H90915   6.909   6.518   2.910  0.8013  0.4348 -1.0771
  689MOL0     H90916   7.126   6.551   3.123 -0.1178 -2.1383 -0.9079
  689MOL0     H90917   6.955   6.539   3.149 -2.6269  3.8719 -1.0554
  689MOL0     H90918   7.092   6.763   2.998  0.5716  4.5941  2.3282
  689MOL0     H90919   7.030   6.781   3.155 -2.0086  0.7240  0.4094
  689MOL0     H90920   6.897   6.897   3.005 -0.0323 -0.0864  2.3108
  689MOL0     H90921   6.865   6.766   2.893  2.0796 -0.0114 -0.5824
  689MOL0     H90922   6.771   6.804   3.173  3.4868 -0.6022 -0.1421
  689MOL0     H90923   6.757   6.642   3.096 -0.8900  0.0017 -0.6205
  689MOL0     H90924   6.637   6.727   2.907 -0.4914 -2.0280  0.9882
  689MOL0     H90925   6.625   6.889   2.990  1.8842  0.5404  0.6012
  689MOL0     H90926   6.517   6.623   3.094  0.8060 -0.1494 -0.9037
  689MOL0     H90927   6.516   6.777   3.180 -0.5025 -0.3825  0.7273
  689MOL0     H90928   6.382   6.701   2.923 -0.6007 -1.6913  1.2109
  689MOL0     H90929   6.385   6.877   2.979  0.0048  0.9202  3.8415
  689MOL0     H90930   7.278   6.671   2.683  0.0501 -0.6948 -0.5195
  689MOL0     H90931   7.500   6.647   2.692  0.4164 -0.2423  0.2910
  689MOL0     H90932   7.904   6.580   2.931  2.7921  1.2530  1.0275
  689MOL0     H90933   8.129   6.582   2.923 -1.2803 -0.3600  0.8706
  689MOL0     H90934  10.100   6.481   2.598  2.4082  0.5848 -1.5885
  689MOL0     H90935  10.273   6.362   2.475  0.0374  0.9725 -0.6494
  689MOL0     H90936  10.253   5.855   2.089  1.2546 -2.5377 -2.7295
  689MOL0     H90937  10.429   5.710   2.041 -0.8899  1.6591 -1.8973
  689MOL0     H90938  10.826   5.658   2.033 -0.2266  1.5846  1.4832
  689MOL0     H90939  10.681   5.649   1.937 -1.0721 -2.4169  0.6506
  689MOL0     H90940  10.740   5.513   2.202  0.4644  2.3499  0.1699
  689MOL0     H90941  10.587   5.586   2.189 -0.7626  0.0271 -0.2289
  689MOL0     H90942  10.705   5.355   2.008 -2.1731 -2.2054  0.4242
  689MOL0     H90943  10.555   5.434   1.957  0.5114 -0.1172  0.3747
  689MOL0     H90944  10.466   5.377   2.189 -1.5478  1.3390 -2.2693
  689MOL0     H90945  10.502   5.246   2.062 -3.4321 -2.0603  3.4306
  689MOL0     H90946  10.743   5.137   2.388 -0.1123 -1.0576 -0.6884
  689MOL0     H90947  10.694   6.018   2.186 -1.1727  2.0839  0.3860
  689MOL0     H90948  10.527   6.164   2.233  0.4739 -0.7294  3.2189
  690MOL0     O90949   0.950   2.368   0.450  0.5105 -0.3352 -0.5737
  690MOL0     C90950   1.035   2.317   0.516  0.4591 -0.4002 -1.2083
  690MOL0     O90951   1.015   2.212   0.606  0.0770 -0.3264 -0.7550
  690MOL0     C90952   0.912   2.125   0.591  0.7956  0.0958 -0.6962
  690MOL0     C90953   0.860   2.088   0.471  0.5616 -0.8196 -0.1280
  690MOL0     C90954   0.738   2.025   0.451 -0.3918 -0.2455  0.3961
  690MOL0     C90955   0.665   1.984   0.567  0.1630 -0.8654 -0.2012
  690MOL0     O90956   0.545   1.918   0.573 -0.2390 -0.1434  0.3358
  690MOL0     C90957   0.499   1.877   0.448  0.1423  0.3034 -0.0931
  690MOL0     C90958   0.369   1.801   0.487  0.7846  0.1756  0.2839
  690MOL0     C90959   0.301   1.764   0.350 -0.1364 -0.2194  0.3193
  690MOL0     C90960   0.200   1.653   0.351  0.3161  0.0666  1.1012
  690MOL0     C90961   0.068   1.709   0.281  0.0277 -0.4393  0.8477
  690MOL0     C90962  -0.010   1.819   0.353  0.1305 -0.4658  0.7138
  690MOL0     C90963  -0.073   1.906   0.233  0.4236  0.3621 -0.3500
  690MOL0     C90964  -0.136   2.036   0.295 -0.3601  0.0026  0.0487
  690MOL0     N90965  -0.253   1.993   0.373  0.1374  0.2017  0.2675
  690MOL0     C90966  -0.364   1.907   0.342  0.5273 -0.4211 -0.2159
  690MOL0     C90967  -0.438   1.897   0.456  0.1521 -0.1080 -0.4023
  690MOL0     C90968  -0.563   1.814   0.473  0.2132  0.2055 -0.7239
  690MOL0     C90969  -0.697   1.868   0.425  0.5818  0.0345 -0.2180
  690MOL0     C90970  -0.797   1.908   0.535  0.2135  0.1339  0.3504
  690MOL0     C90971  -0.916   1.973   0.466  0.2922  0.1107 -0.2628
  690MOL0     O90972  -0.986   2.036   0.572 -0.0238  0.1546  0.0891
  690MOL0     C90973  -1.121   2.051   0.555  0.4612  0.2724  0.7946
  690MOL0     C90974  -1.184   2.074   0.440  0.7437  0.2925  0.4058
  690MOL0     C90975  -1.320   2.081   0.433  0.0884  0.3673 -0.0664
  690MOL0     C90976  -1.404   2.086   0.551 -1.0093 -0.0329 -0.1934
  690MOL0     C90977  -1.549   2.118   0.546  0.2805 -0.5758  0.0330
  690MOL0     O90978  -1.626   2.137   0.667  0.7172 -0.4067  0.7861
  690MOL0     C90979  -1.764   2.120   0.649  0.7198  0.3648 -0.7170
  690MOL0     C90980  -1.817   1.992   0.644 -0.5625  0.0100  0.4845
  690MOL0     C90981  -1.953   1.965   0.632  0.2079 -0.7108 -0.1939
  690MOL0     C90982  -2.047   2.060   0.594  0.6067 -0.8761 -0.7236
  690MOL0     O90983  -2.179   2.042   0.569 -0.0930  0.8837 -0.6710
  690MOL0     C90984  -2.249   1.986   0.686  0.1565 -0.7321  0.5485
  690MOL0     C90985  -2.400   2.022   0.664  0.0846  0.1123 -0.7856
  690MOL0     C90986  -2.467   1.926   0.575 -0.2362  0.2490 -0.0283
  690MOL0     C90987  -2.618   1.942   0.544 -0.4358 -0.2411 -0.6948
  690MOL0     C90988  -2.655   1.853   0.418  0.3043  0.1904  0.3993
  690MOL0     C90989  -2.800   1.872   0.393 -0.7779  0.0944  0.4364
  690MOL0     C90990  -2.850   1.769   0.287 -0.3941 -0.7552  0.4083
  690MOL0     C90991  -2.864   1.630   0.339  0.6991 -0.2535  0.1279
  690MOL0    Cl90992  -3.028   1.558   0.307 -0.2336 -0.9854 -0.3288
  690MOL0     C90993  -1.990   2.189   0.621 -0.0506  0.2691  0.1946
  690MOL0     C90994  -1.856   2.223   0.647  0.5315  0.4995  0.0977
  690MOL0     O90995  -1.596   2.115   0.432  0.7461  0.1846 -0.6545
  690MOL0     C90996  -1.339   2.073   0.675 -0.0192 -0.6778 -0.1402
  690MOL0     C90997  -1.193   2.062   0.675  0.1512  0.7305  0.0384
  690MOL0     N90998  -0.364   1.964   0.555 -0.2867  0.6673 -0.1582
  690MOL0     N90999  -0.259   2.021   0.505 -0.0061 -0.1668  0.3074
  690MOL0     C91000   0.715   2.026   0.694 -0.3076 -0.2789 -0.4882
  690MOL0     C91001   0.841   2.091   0.707  0.3053  0.2576  0.4022
  690MOL0     C91002   1.165   2.372   0.521 -0.5496  0.5602 -0.6176
  690MOL0     C91003   1.256   2.359   0.630 -1.3092 -0.4914  0.0279
  690MOL0     C91004   1.384   2.425   0.620 -0.0708 -0.0644 -0.1286
  690MOL0     C91005   1.417   2.514   0.511 -0.3225 -0.6417 -0.0481
  690MOL0     O91006   1.539   2.583   0.497  0.1747 -0.2663  0.7703
  690MOL0     C91007   1.646   2.567   0.590  0.2827  0.5117 -0.2748
  690MOL0     C91008   1.787   2.629   0.554  1.0086  0.6373 -0.3071
  690MOL0     C91009   1.849   2.581   0.426  0.7783 -0.0788 -0.5603
  690MOL0     C91010   1.840   2.423   0.382  0.2343  0.2422  0.3324
  690MOL0     C91011   1.904   2.409   0.253  0.6563  0.5349  0.2169
  690MOL0     C91012   1.974   2.398   0.159  0.9118 -0.6202 -0.3584
  690MOL0     C91013   1.328   2.520   0.408  0.6101 -0.5526  0.4386
  690MOL0     C91014   1.202   2.461   0.417 -1.0338  0.5416  0.4132
  690MOL0     H91015   0.909   2.126   0.382 -0.1346 -1.2419 -0.7057
  690MOL0     H91016   0.700   2.016   0.350 -0.8902  0.8564  0.4750
  690MOL0     H91017   0.567   1.818   0.385  3.9020  1.3261  2.6304
  690MOL0     H91018   0.471   1.968   0.393 -0.4604 -0.3577 -0.9195
  690MOL0     H91019   0.297   1.867   0.536 -1.7903 -0.8675 -1.8089
  690MOL0     H91020   0.383   1.705   0.538  2.2378 -1.2532 -2.5438
  690MOL0     H91021   0.377   1.729   0.279 -1.1279 -2.1529  0.1504
  690MOL0     H91022   0.271   1.856   0.301  0.5165 -0.3367 -0.3232
  690MOL0     H91023   0.236   1.561   0.304  0.3950  0.0478  1.1976
  690MOL0     H91024   0.162   1.631   0.451 -3.2316  2.0880  0.3525
  690MOL0     H91025   0.007   1.622   0.255 -1.2934  1.1672 -1.8468
  690MOL0     H91026   0.095   1.750   0.183 -0.4598  2.0271  1.6752
  690MOL0     H91027   0.062   1.877   0.411  0.7094 -1.1876  0.7275
  690MOL0     H91028  -0.095   1.776   0.407 -0.9178 -0.3334 -0.7715
  690MOL0     H91029   0.010   1.926   0.163  0.3932  0.9842 -0.2084
  690MOL0     H91030  -0.147   1.847   0.178  2.0801 -0.5665 -1.6883
  690MOL0     H91031  -0.170   2.107   0.218  3.4518  0.0986 -1.8028
  690MOL0     H91032  -0.069   2.092   0.361 -0.0302 -2.2585  1.7389
  690MOL0     H91033  -0.396   1.853   0.253 -4.0751  0.7693  0.4383
  690MOL0     H91034  -0.583   1.807   0.580  0.7850  3.6533 -0.2641
  690MOL0     H91035  -0.555   1.718   0.421  0.8979 -1.1030  1.6331
  690MOL0     H91036  -0.748   1.794   0.362  0.3017  0.5311 -0.5831
  690MOL0     H91037  -0.677   1.959   0.367 -0.5303  1.2068  1.1755
  690MOL0     H91038  -0.831   1.833   0.607 -0.3619 -1.4156 -1.4433
  690MOL0     H91039  -0.736   1.983   0.585  1.8594  0.0200 -1.3895
  690MOL0     H91040  -0.965   1.891   0.413  1.8806 -0.9788 -0.1067
  690MOL0     H91041  -0.879   2.051   0.399  1.9533 -0.5241 -0.1276
  690MOL0     H91042  -1.124   2.084   0.350  0.8579  2.7485  0.7031
  690MOL0     H91043  -1.356   2.095   0.331 -0.0043  1.7058  0.1303
  690MOL0     H91044  -1.746   1.910   0.652 -0.1592  0.4575  1.5804
  690MOL0     H91045  -1.987   1.862   0.631  0.2849 -0.7340 -1.0396
  690MOL0     H91046  -2.218   2.038   0.777 -0.5205 -0.6836  0.7552
  690MOL0     H91047  -2.231   1.878   0.695 -0.8519 -0.8466  1.3875
  690MOL0     H91048  -2.416   2.126   0.636  0.2755  0.3660  0.0326
  690MOL0     H91049  -2.447   2.011   0.763 -0.1611  3.1110 -0.4735
  690MOL0     H91050  -2.459   1.821   0.605 -0.3236 -0.9485 -3.6772
  690MOL0     H91051  -2.426   1.926   0.474 -0.9612 -0.1642 -0.3349
  690MOL0     H91052  -2.671   1.917   0.636  0.2836 -1.9773 -0.7283
  690MOL0     H91053  -2.640   2.047   0.519 -0.4969  0.0891  0.6453
  690MOL0     H91054  -2.643   1.746   0.436 -2.2099  0.2485  3.1507
  690MOL0     H91055  -2.608   1.880   0.323  0.1407  3.5758  1.1652
  690MOL0     H91056  -2.820   1.972   0.353 -2.2478 -0.1733  0.4335
  690MOL0     H91057  -2.852   1.862   0.489  0.0294  0.3823  0.9144
  690MOL0     H91058  -2.938   1.804   0.232 -0.3575 -2.3052 -0.7152
  690MOL0     H91059  -2.768   1.779   0.215 -0.0284  1.3017  1.0641
  690MOL0     H91060  -2.851   1.632   0.447 -1.5579  1.6993  0.4436
  690MOL0     H91061  -2.797   1.561   0.287  0.2281 -0.0193 -0.8192
  690MOL0     H91062  -2.064   2.268   0.623 -2.3118 -1.7204 -0.8190
  690MOL0     H91063  -1.822   2.325   0.657  3.0848 -0.0058 -2.1820
  690MOL0     H91064  -1.405   2.085   0.761 -0.3376  2.1487 -0.6527
  690MOL0     H91065  -1.149   2.065   0.774 -1.5793 -1.1756  0.9367
  690MOL0     H91066   0.661   1.990   0.781 -1.1495 -1.4578 -1.4566
  690MOL0     H91067   0.868   2.123   0.807 -0.9480 -1.9052  1.5201
  690MOL0     H91068   1.240   2.296   0.717  3.3238 -0.2634  1.3518
  690MOL0     H91069   1.452   2.406   0.703 -1.3194 -0.7145  0.7803
  690MOL0     H91070   1.662   2.462   0.615 -0.4895 -0.1432 -2.3137
  690MOL0     H91071   1.617   2.609   0.686  2.3176  0.6265  0.3497
  690MOL0     H91072   1.765   2.736   0.546 -1.7853  0.1111 -0.9596
  690MOL0     H91073   1.857   2.619   0.637 -0.6754 -1.9193  0.9749
  690MOL0     H91074   1.957   2.599   0.435  1.2091 -2.7491  0.6662
  690MOL0     H91075   1.810   2.649   0.349  2.8394  3.3876  1.1789
  690MOL0     H91076   1.882   2.356   0.457 -0.0041  0.7829  0.9594
  690MOL0     H91077   1.736   2.391   0.375 -0.0611 -0.3364  4.5929
  690MOL0     H91078   2.049   2.372   0.087  0.6554 -0.1937 -0.7862
  690MOL0     H91079   1.359   2.581   0.323 -0.4977  2.3189  1.9860
  690MOL0     H91080   1.136   2.479   0.333  0.2758  0.3506 -0.6903
  691MOL0     O91081  10.627   1.819   1.869  0.2687 -0.8452 -0.1042
  691MOL0     C91082  10.615   1.942   1.860  0.4074  0.0086 -0.3184
  691MOL0     O91083  10.496   2.004   1.881  0.1702 -0.5198 -0.3298
  691MOL0     C91084  10.382   1.936   1.918  0.0711  0.2386  0.0231
  691MOL0     C91085  10.365   1.875   2.041 -0.5066 -0.4210  0.4013
  691MOL0     C91086  10.244   1.797   2.067 -0.1783 -0.5457  0.7444
  691MOL0     C91087  10.144   1.793   1.964  0.0430  0.5591  0.9386
  691MOL0     O91088  10.014   1.735   1.977 -0.0946 -0.4716 -0.3939
  691MOL0     C91089   9.980   1.699   2.118  0.3188 -0.4692 -0.1893
  691MOL0     C91090   9.830   1.674   2.130  0.8968  0.5308  0.1490
  691MOL0     C91091   9.748   1.803   2.136  0.4045 -0.1379  0.0049
  691MOL0     C91092   9.605   1.750   2.108 -0.3750 -0.2931  0.2331
  691MOL0     C91093   9.514   1.879   2.124 -0.0110  0.1366  0.2510
  691MOL0     C91094   9.379   1.846   2.072 -0.7131  0.0117 -0.5486
  691MOL0     C91095   9.274   1.949   2.094 -0.1503 -0.2431  0.4221
  691MOL0     C91096   9.296   2.076   2.009  0.0940  0.0123  0.8163
  691MOL0     N91097   9.185   2.174   2.020 -0.0550  0.5236 -0.5005
  691MOL0     C91098   9.144   2.245   2.134 -0.4588 -0.5876  0.5040
  691MOL0     C91099   9.051   2.324   2.079 -0.2514 -1.2470 -0.5998
  691MOL0     C91100   8.962   2.414   2.170  0.4227 -0.0132  0.7822
  691MOL0     C91101   8.824   2.347   2.178 -0.2777  0.3272 -1.1249
  691MOL0     C91102   8.746   2.322   2.045 -0.4660  0.3068  1.1364
  691MOL0     C91103   8.615   2.258   2.050  0.0217 -1.2773 -1.3633
  691MOL0     O91104   8.589   2.160   1.949  0.1633  0.0261  0.4490
  691MOL0     C91105   8.465   2.104   1.952 -0.2680  0.2330 -0.0710
  691MOL0     C91106   8.429   1.999   2.034 -0.5847  1.2099  0.4479
  691MOL0     C91107   8.302   1.937   2.027  1.0751 -1.1988 -0.7030
  691MOL0     C91108   8.210   1.990   1.933 -0.3619 -0.0453  0.3113
  691MOL0     C91109   8.073   1.928   1.924 -0.7655  0.7469  0.9084
  691MOL0     O91110   7.999   1.963   1.810  0.8826 -0.0554 -0.9120
  691MOL0     C91111   7.866   1.922   1.810  0.5579  0.0633  0.6454
  691MOL0     C91112   7.785   1.960   1.914  0.1717  0.2632  0.0074
  691MOL0     C91113   7.653   1.924   1.918 -0.2688  0.6521  0.8048
  691MOL0     C91114   7.595   1.861   1.803  0.6807 -0.7951 -0.5139
  691MOL0     O91115   7.460   1.837   1.787 -0.3585 -0.5267  0.1673
  691MOL0     C91116   7.374   1.921   1.861  0.2591 -0.3036 -0.4003
  691MOL0     C91117   7.230   1.919   1.805  0.8457 -0.5296 -0.1324
  691MOL0     C91118   7.135   1.833   1.891 -0.8935 -0.5599 -0.7331
  691MOL0     C91119   7.159   1.686   1.860 -0.3105  0.6644 -0.1419
  691MOL0     C91120   7.091   1.590   1.951 -1.5436  0.1761 -0.5620
  691MOL0     C91121   7.118   1.444   1.899  0.1379  0.9628  0.5720
  691MOL0     C91122   7.083   1.339   2.005 -0.2516 -0.9433 -0.0761
  691MOL0     C91123   7.103   1.195   1.962 -0.3905 -0.0370  0.0912
  691MOL0    Cl91124   7.090   1.085   2.108 -0.6258 -0.0587  0.0492
  691MOL0     C91125   7.667   1.844   1.696  1.1159  0.5931 -0.4344
  691MOL0     C91126   7.802   1.873   1.694 -0.5446 -0.5501 -0.2941
  691MOL0     O91127   8.028   1.856   2.016 -0.4895 -0.0689  0.3548
  691MOL0     C91128   8.241   2.095   1.854  0.6470 -0.2090  0.0536
  691MOL0     C91129   8.367   2.153   1.865  0.3050 -0.1858 -0.5011
  691MOL0     N91130   9.048   2.324   1.937  0.5544 -0.0898  0.0918
  691MOL0     N91131   9.121   2.222   1.907  0.1219  0.2670  0.7592
  691MOL0     C91132  10.162   1.858   1.838  0.2055  0.5589 -0.1841
  691MOL0     C91133  10.284   1.922   1.815  0.5006  0.3415 -0.2558
  691MOL0     C91134  10.729   2.018   1.810 -0.4484 -0.1623  0.6263
  691MOL0     C91135  10.826   1.939   1.749 -0.2635 -0.3765  1.1668
  691MOL0     C91136  10.944   2.005   1.696  0.2100  0.2203 -0.7490
  691MOL0     C91137  10.965   2.144   1.708  0.6382 -0.1308  0.4239
  691MOL0     O91138  11.075   2.204   1.640 -0.1327  0.2151  0.7009
  691MOL0     C91139  11.127   2.335   1.684 -0.0090 -0.6315 -0.0394
  691MOL0     C91140  11.216   2.323   1.811 -0.4393  0.2484 -0.2058
  691MOL0     C91141  11.364   2.300   1.768  0.3303 -0.0620  0.9589
  691MOL0     C91142  11.459   2.259   1.884  0.1851 -0.8822  0.6719
  691MOL0     C91143  11.598   2.213   1.848 -0.5856  0.8553  0.1600
  691MOL0     C91144  11.709   2.174   1.808 -0.5765 -0.4061  0.0217
  691MOL0     C91145  10.877   2.219   1.793 -0.0649  0.2419 -0.5967
  691MOL0     C91146  10.758   2.157   1.838  0.3271 -0.0072  1.1284
  691MOL0     H91147  10.447   1.892   2.110 -1.2951 -0.8226  1.4700
  691MOL0     H91148  10.221   1.749   2.161  1.0223  0.0483  1.3645
  691MOL0     H91149  10.012   1.783   2.180  1.7895 -1.4286  0.3925
  691MOL0     H91150  10.035   1.617   2.164  1.4999  1.7846  2.7028
  691MOL0     H91151   9.806   1.612   2.216 -0.6390  0.8089 -0.0526
  691MOL0     H91152   9.805   1.621   2.038  1.2738  0.2454  0.2113
  691MOL0     H91153   9.777   1.876   2.060 -0.5148 -0.9244 -1.1350
  691MOL0     H91154   9.756   1.857   2.231 -2.3394  0.5256 -0.0521
  691MOL0     H91155   9.608   1.713   2.005  1.9441  2.5714 -0.8724
  691MOL0     H91156   9.570   1.678   2.182 -1.2453  0.1964  0.3027
  691MOL0     H91157   9.554   1.966   2.073  0.7183 -1.3416 -1.8546
  691MOL0     H91158   9.507   1.903   2.230 -1.9468 -0.1958  0.2394
  691MOL0     H91159   9.353   1.751   2.120  1.6169 -1.3980 -1.8604
  691MOL0     H91160   9.378   1.818   1.966 -0.3626  0.3619 -0.6456
  691MOL0     H91161   9.176   1.903   2.076  0.5955 -1.7792  0.1106
  691MOL0     H91162   9.266   1.986   2.197 -4.0941  0.2421  0.1124
  691MOL0     H91163   9.310   2.035   1.908  2.2058 -0.5392  1.2902
  691MOL0     H91164   9.385   2.136   2.031 -0.2778  1.2147 -0.7382
  691MOL0     H91165   9.167   2.230   2.239  0.9002 -2.1011  0.0323
  691MOL0     H91166   8.955   2.512   2.122  2.0072 -0.5882 -0.7249
  691MOL0     H91167   9.011   2.431   2.266 -0.5586 -0.3470  1.3672
  691MOL0     H91168   8.744   2.405   2.226  0.2440 -1.2746  1.9454
  691MOL0     H91169   8.842   2.252   2.228  0.0436  0.5808 -0.7557
  691MOL0     H91170   8.734   2.418   1.993 -0.5681 -0.6830 -0.7260
  691MOL0     H91171   8.802   2.259   1.976 -0.0913  1.6514  0.1736
  691MOL0     H91172   8.534   2.332   2.049 -0.5978 -1.9520 -2.0904
  691MOL0     H91173   8.611   2.221   2.153  2.0807 -0.3257 -0.8972
  691MOL0     H91174   8.512   1.973   2.099 -0.2710  0.3195 -0.2879
  691MOL0     H91175   8.274   1.859   2.096 -2.8448  0.6841  0.1374
  691MOL0     H91176   7.834   2.008   1.999  1.1501 -1.3590  0.4015
  691MOL0     H91177   7.599   1.952   2.008 -0.9563 -1.4983  1.1170
  691MOL0     H91178   7.400   2.027   1.855  0.1139 -0.3473 -2.5377
  691MOL0     H91179   7.372   1.895   1.967  5.2877 -2.2185 -0.5045
  691MOL0     H91180   7.223   1.880   1.703 -1.8890 -1.1138  0.1891
  691MOL0     H91181   7.190   2.021   1.808 -0.7085 -0.8943 -3.7789
  691MOL0     H91182   7.030   1.845   1.865 -0.9837 -1.4916 -0.8173
  691MOL0     H91183   7.138   1.856   1.998 -3.5405 -4.4158  0.3729
  691MOL0     H91184   7.120   1.670   1.759 -1.5136  1.4060  0.1920
  691MOL0     H91185   7.264   1.665   1.836 -0.6238 -1.2134 -0.0043
  691MOL0     H91186   6.985   1.612   1.963 -1.9133 -2.3821  2.3336
  691MOL0     H91187   7.134   1.604   2.051  0.1142  0.2563 -1.2501
  691MOL0     H91188   7.221   1.425   1.867 -0.6982 -1.0040 -1.1582
  691MOL0     H91189   7.045   1.426   1.820  1.1434 -1.3070  0.0962
  691MOL0     H91190   7.151   1.354   2.088  1.1687 -3.1348 -0.7672
  691MOL0     H91191   6.982   1.361   2.041  0.5701  1.2302  1.0277
  691MOL0     H91192   7.204   1.181   1.923 -0.6168 -1.7439  0.0442
  691MOL0     H91193   7.029   1.177   1.884 -1.2500  1.7582  0.4466
  691MOL0     H91194   7.628   1.807   1.602  0.8102  0.2598 -0.1787
  691MOL0     H91195   7.860   1.864   1.603 -0.4444  1.6196 -0.4974
  691MOL0     H91196   8.173   2.142   1.784  0.2051 -0.6762  0.1599
  691MOL0     H91197   8.398   2.244   1.814  1.5206 -0.8995 -1.0887
  691MOL0     H91198  10.082   1.856   1.765 -1.2986 -0.3144  1.4076
  691MOL0     H91199  10.298   1.971   1.719  0.8714  1.5096  0.3767
  691MOL0     H91200  10.816   1.833   1.728 -3.0422  0.2023 -0.9920
  691MOL0     H91201  11.006   1.941   1.633 -0.5275  1.8696 -3.3314
  691MOL0     H91202  11.045   2.403   1.707  0.7536 -0.6268  3.0617
  691MOL0     H91203  11.185   2.383   1.605 -1.7257  0.5986 -0.5884
  691MOL0     H91204  11.216   2.417   1.867  0.5100  0.0566  0.1332
  691MOL0     H91205  11.190   2.238   1.875  0.1222  1.2150  1.3484
  691MOL0     H91206  11.407   2.389   1.722  0.5390 -0.9412 -0.6297
  691MOL0     H91207  11.365   2.218   1.695 -0.3885  1.0345 -0.3335
  691MOL0     H91208  11.479   2.349   1.943 -0.2076  0.3943 -1.0739
  691MOL0     H91209  11.422   2.178   1.947 -0.6361 -0.4896  0.7034
  691MOL0     H91210  11.808   2.140   1.784 -0.9458 -0.2928 -1.8668
  691MOL0     H91211  10.871   2.326   1.804 -1.4783  0.1674 -0.4409
  691MOL0     H91212  10.683   2.221   1.883 -2.4820 -1.5492 -1.0092
  692MOL0     O91213   9.469   1.198   2.187  0.3358 -0.3122 -0.0038
  692MOL0     C91214   9.567   1.210   2.258 -0.4714  0.2562  0.0819
  692MOL0     O91215   9.574   1.204   2.392 -0.4895 -0.6040  0.4573
  692MOL0     C91216   9.462   1.166   2.462  0.1803 -0.2685 -0.3049
  692MOL0     C91217   9.426   1.223   2.591 -0.6345 -0.2619 -0.8690
  692MOL0     C91218   9.299   1.196   2.655 -0.0149  0.0032 -0.0868
  692MOL0     C91219   9.219   1.093   2.610  1.0509  0.0409  0.0912
  692MOL0     O91220   9.095   1.047   2.654 -0.0908 -0.0037 -0.5823
  692MOL0     C91221   9.037   1.112   2.763  0.2632  0.0541 -0.2963
  692MOL0     C91222   8.911   1.031   2.770  0.0474  0.3133  0.3122
  692MOL0     C91223   8.812   1.082   2.870  0.1816  0.2374  0.9567
  692MOL0     C91224   8.674   1.005   2.846 -0.4859  0.0571 -0.0211
  692MOL0     C91225   8.564   1.059   2.939 -0.0396 -0.5440  0.1788
  692MOL0     C91226   8.499   0.962   3.031 -0.4472  0.3047 -0.0374
  692MOL0     C91227   8.401   1.022   3.141  0.1365  0.0313  0.4908
  692MOL0     C91228   8.332   0.904   3.196 -0.0299 -0.0575 -0.5466
  692MOL0     N91229   8.257   0.928   3.318 -0.7070 -0.0406 -0.7277
  692MOL0     C91230   8.148   1.012   3.341 -0.3063  0.6765 -0.1827
  692MOL0     C91231   8.116   0.997   3.468 -0.4625 -1.3468 -0.3380
  692MOL0     C91232   8.017   1.092   3.542 -0.1064 -0.7946 -0.4338
  692MOL0     C91233   7.881   1.016   3.568  0.4635 -0.4721 -0.4374
  692MOL0     C91234   7.781   1.103   3.648 -0.1242 -1.3057  0.2586
  692MOL0     C91235   7.653   1.037   3.697 -0.3906 -0.7266  0.6255
  692MOL0     O91236   7.581   1.130   3.781  0.5710 -0.1625 -0.1595
  692MOL0     C91237   7.448   1.099   3.805  0.2889 -0.0213 -0.5889
  692MOL0     C91238   7.368   1.197   3.854  0.6009  0.9349  0.2156
  692MOL0     C91239   7.230   1.174   3.882  0.6684  0.1441 -0.6141
  692MOL0     C91240   7.183   1.045   3.874 -0.0537  0.2887  0.4784
  692MOL0     C91241   7.040   1.015   3.882  0.6410  0.2693 -0.2738
  692MOL0     O91242   6.981   1.073   3.993 -0.2169  0.5401 -0.0490
  692MOL0     C91243   6.851   1.067   4.012  0.2754  0.2369  0.6133
  692MOL0     C91244   6.749   1.091   3.916 -0.4259 -0.8625  0.2677
  692MOL0     C91245   6.607   1.090   3.953 -0.9395  0.2371  0.5138
  692MOL0     C91246   6.571   1.053   4.084 -0.5881 -0.2816 -0.2957
  692MOL0     O91247   6.435   1.064   4.111 -0.0788  0.7901  0.1480
  692MOL0     C91248   6.385   1.026   4.238  0.3553  0.7428 -0.1049
  692MOL0     C91249   6.391   0.873   4.266  0.4563 -0.0227  0.0703
  692MOL0     C91250   6.372   0.848   4.412  0.1050  0.6136 -0.1669
  692MOL0     C91251   6.390   0.705   4.463 -0.2800 -0.4654 -0.4364
  692MOL0     C91252   6.276   0.603   4.432  0.1135 -0.4660 -0.7883
  692MOL0     C91253   6.299   0.467   4.497  0.3738  1.0322 -0.5741
  692MOL0     C91254   6.234   0.471   4.641  0.3443  0.2477  0.0922
  692MOL0     C91255   6.080   0.485   4.658  0.2915 -0.4954 -0.3410
  692MOL0    Cl91256   6.045   0.459   4.830 -0.2809  0.4257  0.2645
  692MOL0     C91257   6.674   1.025   4.179  0.0607 -0.0917  0.1834
  692MOL0     C91258   6.813   1.033   4.143  1.1815  0.1607  0.2082
  692MOL0     O91259   6.985   0.935   3.806  0.2746 -0.7525 -0.1308
  692MOL0     C91260   7.268   0.937   3.832 -0.9815 -0.6189 -0.4470
  692MOL0     C91261   7.400   0.966   3.799 -0.2676 -1.0593 -0.8812
  692MOL0     N91262   8.202   0.910   3.533 -0.8385 -0.0393 -0.5362
  692MOL0     N91263   8.287   0.866   3.439  0.1370 -0.5688 -0.3277
  692MOL0     C91264   9.260   1.031   2.491  0.0502 -0.6566  0.2426
  692MOL0     C91265   9.381   1.057   2.426  0.2204 -0.6311  1.0958
  692MOL0     C91266   9.688   1.253   2.186  0.1358  0.1808  0.2989
  692MOL0     C91267   9.693   1.271   2.051 -0.6946  0.2744  0.9552
  692MOL0     C91268   9.808   1.309   1.988  0.1790 -0.2486 -0.2799
  692MOL0     C91269   9.924   1.335   2.060 -0.0147 -0.1089  0.3011
  692MOL0     O91270  10.037   1.353   1.979 -0.6590 -0.1466  0.1354
  692MOL0     C91271  10.170   1.374   2.038  0.7765 -0.5095  1.0747
  692MOL0     C91272  10.267   1.291   1.946  0.5988  0.4849 -0.3165
  692MOL0     C91273  10.404   1.308   2.002 -0.3977  0.1578 -1.1668
  692MOL0     C91274  10.501   1.211   1.930  0.2360  0.4749  0.7883
  692MOL0     C91275  10.631   1.273   1.956  0.4204  0.0744  0.1213
  692MOL0     C91276  10.735   1.326   1.974  0.2746  0.1298 -1.0440
  692MOL0     C91277   9.928   1.304   2.192  0.8761  0.5982 -1.4072
  692MOL0     C91278   9.808   1.273   2.257  0.1049 -0.4227  0.2027
  692MOL0     H91279   9.493   1.303   2.624 -1.4393  0.5228 -1.1006
  692MOL0     H91280   9.259   1.255   2.737 -1.0247 -2.3412  1.1884
  692MOL0     H91281   9.010   1.216   2.739  2.8168  0.4862 -1.6963
  692MOL0     H91282   9.094   1.102   2.856  0.5944  1.2885 -0.3373
  692MOL0     H91283   8.936   0.925   2.779 -2.9429 -0.6626 -1.4086
  692MOL0     H91284   8.856   1.032   2.675 -2.2996  0.4960  1.5901
  692MOL0     H91285   8.804   1.188   2.846  1.4810  0.0408 -0.4823
  692MOL0     H91286   8.851   1.060   2.969 -0.5763 -3.7198  0.5631
  692MOL0     H91287   8.647   1.010   2.740  0.1614 -2.0833 -0.3405
  692MOL0     H91288   8.688   0.900   2.873  3.6403  0.6098  0.7512
  692MOL0     H91289   8.485   1.098   2.874  1.8495 -3.9372 -4.7827
  692MOL0     H91290   8.611   1.136   3.000 -1.3343 -0.8926  1.6893
  692MOL0     H91291   8.582   0.919   3.087 -0.2393  0.8213  0.0560
  692MOL0     H91292   8.448   0.881   2.978  3.9516 -2.9061  0.1278
  692MOL0     H91293   8.466   1.065   3.218  3.3544 -0.8115 -1.5137
  692MOL0     H91294   8.334   1.099   3.102 -1.4379 -1.8775 -0.7799
  692MOL0     H91295   8.399   0.818   3.205  1.2038  0.9033 -0.3169
  692MOL0     H91296   8.259   0.880   3.118  1.1633 -0.2849 -1.6206
  692MOL0     H91297   8.104   1.080   3.268  2.0031  1.4268 -0.9676
  692MOL0     H91298   8.006   1.187   3.489 -0.8953 -2.1495 -2.9066
  692MOL0     H91299   8.070   1.118   3.634 -1.3226  3.4313 -0.7255
  692MOL0     H91300   7.894   0.929   3.633 -0.0502 -0.7733 -0.7344
  692MOL0     H91301   7.837   0.992   3.471  0.3282 -0.8576 -0.2846
  692MOL0     H91302   7.822   1.155   3.735 -0.6400 -0.9222  0.2780
  692MOL0     H91303   7.749   1.187   3.587  1.5219 -1.0861 -0.3415
  692MOL0     H91304   7.659   0.937   3.740  0.0359 -1.7985 -1.7379
  692MOL0     H91305   7.598   1.022   3.603  0.6518 -1.1057  0.0623
  692MOL0     H91306   7.405   1.294   3.887 -0.0409 -0.3592  5.6425
  692MOL0     H91307   7.173   1.251   3.933  0.9537 -0.9910  1.5066
  692MOL0     H91308   6.772   1.124   3.815  1.1524 -0.0860  0.8416
  692MOL0     H91309   6.520   1.133   3.905 -1.4358  1.9102  2.7433
  692MOL0     H91310   6.283   1.066   4.242 -0.1482  0.6655 -5.3633
  692MOL0     H91311   6.445   1.068   4.319 -0.1594  0.9535  0.1754
  692MOL0     H91312   6.483   0.830   4.225 -0.0691  0.6021 -1.8894
  692MOL0     H91313   6.312   0.811   4.223 -0.2654  0.6692  0.3758
  692MOL0     H91314   6.274   0.882   4.446 -1.0342 -2.5385  0.0309
  692MOL0     H91315   6.447   0.907   4.465  0.1475  1.4573 -1.1387
  692MOL0     H91316   6.476   0.655   4.418  0.7419 -0.4405  1.3518
  692MOL0     H91317   6.409   0.705   4.571 -0.5638 -1.8166 -0.3687
  692MOL0     H91318   6.270   0.577   4.326 -0.6026 -3.6025 -0.0923
  692MOL0     H91319   6.189   0.655   4.473  1.7221  0.7775  1.1879
  692MOL0     H91320   6.404   0.439   4.499  0.0942 -0.3376 -2.5876
  692MOL0     H91321   6.248   0.390   4.439  2.7049  0.5798 -2.1500
  692MOL0     H91322   6.269   0.378   4.687  1.7405  0.8461  0.2668
  692MOL0     H91323   6.286   0.550   4.696 -0.2109  2.1908 -2.0055
  692MOL0     H91324   6.031   0.408   4.599  0.9799 -0.1684 -1.3637
  692MOL0     H91325   6.055   0.589   4.636  0.9178 -0.0981  0.7087
  692MOL0     H91326   6.648   1.005   4.282 -0.0263  0.8404  0.3476
  692MOL0     H91327   6.882   1.015   4.226 -1.2393 -1.3020  2.0217
  692MOL0     H91328   7.230   0.840   3.801 -1.9661 -0.8463  1.3591
  692MOL0     H91329   7.456   0.890   3.747 -1.1015 -0.8623 -2.0990
  692MOL0     H91330   9.197   0.956   2.445 -0.7823  0.5876 -0.7398
  692MOL0     H91331   9.411   1.007   2.335 -2.4444  2.6755 -1.9139
  692MOL0     H91332   9.605   1.267   1.987  1.5551  2.6306 -2.6715
  692MOL0     H91333   9.807   1.323   1.881 -0.2687 -2.4099 -0.6126
  692MOL0     H91334  10.186   1.348   2.143 -0.9199  0.7909  1.6986
  692MOL0     H91335  10.180   1.482   2.030  1.3008 -0.6920 -3.8870
  692MOL0     H91336  10.244   1.184   1.945  3.2768 -0.1618 -0.2746
  692MOL0     H91337  10.255   1.319   1.841 -0.8674 -1.6522 -0.7780
  692MOL0     H91338  10.405   1.284   2.109  1.2792  0.6446 -1.0519
  692MOL0     H91339  10.432   1.412   1.985 -4.0171  1.5082  0.0251
  692MOL0     H91340  10.486   1.106   1.956  0.8463 -0.1375 -1.1560
  692MOL0     H91341  10.478   1.225   1.824  0.5454  0.7531  0.7574
  692MOL0     H91342  10.834   1.369   1.975 -0.0853  0.9900  0.8657
  692MOL0     H91343  10.013   1.324   2.256  0.6021 -0.3425 -0.7236
  692MOL0     H91344   9.819   1.266   2.365  2.4063  2.1523  0.2406
  693MOL0     O91345   1.299   8.781   8.988 -0.5311 -0.4144 -1.0469
  693MOL0     C91346   1.332   8.793   8.869  0.3748 -0.4034  0.5157
  693MOL0     O91347   1.241   8.788   8.772 -0.3413  0.2160  0.4937
  693MOL0     C91348   1.110   8.771   8.803 -0.5185  0.2156  0.7947
  693MOL0     C91349   1.060   8.641   8.827 -0.0479 -0.2274 -0.5731
  693MOL0     C91350   0.925   8.623   8.855 -0.0416  1.2927 -0.8061
  693MOL0     C91351   0.839   8.735   8.854  0.3203  0.2742 -0.7855
  693MOL0     O91352   0.706   8.734   8.879  0.4072 -0.0544  0.2363
  693MOL0     C91353   0.646   8.606   8.927 -0.1309  0.6206  0.5599
  693MOL0     C91354   0.506   8.645   8.981 -0.5846 -0.7672  0.2814
  693MOL0     C91355   0.428   8.526   9.024 -0.2224 -0.2267 -0.4335
  693MOL0     C91356   0.296   8.556   9.095  0.3660 -0.3412 -0.4221
  693MOL0     C91357   0.233   8.441   9.150  0.5383  0.4033 -0.6937
  693MOL0     C91358   0.290   8.399   9.284  0.3814 -0.1577 -0.8287
  693MOL0     C91359   0.187   8.306   9.355  0.0781  0.0795 -0.3179
  693MOL0     C91360   0.240   8.273   9.499 -0.2028 -0.0639  0.8315
  693MOL0     N91361   0.146   8.185   9.574 -0.4836 -0.4689  0.5837
  693MOL0     C91362   0.151   8.050   9.563  0.6709  0.5869  0.3202
  693MOL0     C91363   0.048   8.006   9.642 -0.8333 -0.1344 -0.5605
  693MOL0     C91364   0.034   7.858   9.677 -0.2587  0.2809 -0.6919
  693MOL0     C91365  -0.079   7.814   9.777 -0.5105 -1.0057 -0.9116
  693MOL0     C91366  -0.211   7.840   9.718 -0.3060  0.7962 -0.5696
  693MOL0     C91367  -0.320   7.734   9.756 -0.3783 -0.6105 -0.2590
  693MOL0     O91368  -0.453   7.786   9.708 -0.6810 -0.1727 -0.9589
  693MOL0     C91369  -0.570   7.729   9.764 -0.0410 -0.6214  0.6619
  693MOL0     C91370  -0.685   7.762   9.702  0.0923 -0.0484 -0.8495
  693MOL0     C91371  -0.804   7.714   9.741  0.6429  0.0216  0.3330
  693MOL0     C91372  -0.822   7.627   9.848 -0.5845  0.1848  0.6437
  693MOL0     C91373  -0.957   7.587   9.896  0.4625 -0.6141  0.0537
  693MOL0     O91374  -1.055   7.665   9.845  0.1133  0.0826 -0.2624
  693MOL0     C91375  -1.185   7.628   9.859  0.1109  0.6472 -0.0373
  693MOL0     C91376  -1.263   7.626   9.746 -0.3817  1.0567 -0.5196
  693MOL0     C91377  -1.391   7.579   9.744  0.2395  0.1907 -0.6646
  693MOL0     C91378  -1.455   7.556   9.863 -1.1402 -0.2479 -0.8773
  693MOL0     O91379  -1.582   7.516   9.859  0.7608 -0.0313  0.4016
  693MOL0     C91380  -1.634   7.435   9.968 -0.2833 -0.0358  0.6624
  693MOL0     C91381  -1.761   7.367   9.919  0.8030  0.3155 -0.5279
  693MOL0     C91382  -1.834   7.285  10.031 -0.1466  1.2685  0.6325
  693MOL0     C91383  -1.957   7.206   9.967  0.2554  0.4314 -0.2500
  693MOL0     C91384  -1.996   7.101  10.069  0.1133  0.7219  0.6768
  693MOL0     C91385  -2.096   7.172  10.168 -0.8133  0.4702  0.1368
  693MOL0     C91386  -2.171   7.073  10.264 -0.2949 -0.0479  0.9756
  693MOL0     C91387  -2.295   7.130  10.339  0.0702  0.3503 -0.0940
  693MOL0    Cl91388  -2.327   7.027  10.481 -0.3842 -0.2675 -0.5154
  693MOL0     C91389  -1.380   7.569   9.984  1.5693 -0.1991  0.1671
  693MOL0     C91390  -1.246   7.603   9.980 -0.2563 -0.3292 -0.2706
  693MOL0     O91391  -0.973   7.488   9.971 -0.3951  0.1535 -0.5248
  693MOL0     C91392  -0.703   7.585   9.916  0.2672 -0.0078  0.0955
  693MOL0     C91393  -0.571   7.635   9.873  0.5086 -0.0281  0.1237
  693MOL0     N91394  -0.019   8.111   9.697 -0.3475 -0.6774 -0.4695
  693MOL0     N91395   0.052   8.219   9.668 -0.2173 -0.1563  1.0216
  693MOL0     C91396   0.894   8.861   8.835 -0.3867  0.5841  0.1087
  693MOL0     C91397   1.029   8.887   8.816  0.0680 -0.2638 -0.2965
  693MOL0     C91398   1.470   8.838   8.835 -0.1325 -0.4696 -0.0324
  693MOL0     C91399   1.498   8.883   8.700 -0.3110  0.2734  0.1034
  693MOL0     C91400   1.632   8.926   8.669  0.5884 -0.3450 -0.7148
  693MOL0     C91401   1.718   8.958   8.775  0.8715 -0.1141 -0.2805
  693MOL0     O91402   1.844   9.007   8.758  0.3937 -0.6875  0.3213
  693MOL0     C91403   1.893   9.020   8.621 -0.3586  0.2140 -0.2587
  693MOL0     C91404   2.038   9.077   8.632 -0.2002 -0.2383  0.0181
  693MOL0     C91405   2.104   9.133   8.509 -0.4272 -0.5548  0.7901
  693MOL0     C91406   2.223   9.238   8.529  0.0966 -0.1892  0.2972
  693MOL0     C91407   2.341   9.175   8.583 -0.1990 -0.0289  0.7575
  693MOL0     C91408   2.445   9.135   8.626  0.1854  0.4654 -0.3717
  693MOL0     C91409   1.690   8.929   8.902 -0.3434  0.0414  0.7710
  693MOL0     C91410   1.573   8.865   8.932  0.7168  0.4047 -0.0721
  693MOL0     H91411   1.130   8.558   8.824  3.5204  2.2766  2.6543
  693MOL0     H91412   0.874   8.529   8.875 -0.4957  1.8511  0.8623
  693MOL0     H91413   0.710   8.568   9.007 -0.2704  1.5383  1.1305
  693MOL0     H91414   0.634   8.528   8.851  1.8885 -1.2717  2.0440
  693MOL0     H91415   0.443   8.695   8.907 -3.3602 -2.7846  1.1205
  693MOL0     H91416   0.530   8.719   9.058  2.8908 -0.6152 -0.7723
  693MOL0     H91417   0.490   8.470   9.095 -2.0369 -0.8738  0.7004
  693MOL0     H91418   0.423   8.450   8.945  1.0463  0.1905 -0.9413
  693MOL0     H91419   0.323   8.630   9.170  0.0691  2.2454 -2.7067
  693MOL0     H91420   0.229   8.607   9.025  0.4952 -0.7823 -0.8727
  693MOL0     H91421   0.217   8.359   9.080 -0.4855  0.3824 -0.4561
  693MOL0     H91422   0.135   8.475   9.184 -0.9615 -3.0097 -1.1328
  693MOL0     H91423   0.291   8.491   9.344 -1.4558 -0.0007 -0.9908
  693MOL0     H91424   0.389   8.353   9.277  0.0461 -0.8409 -1.1015
  693MOL0     H91425   0.093   8.357   9.377 -0.2197 -0.7467  0.3548
  693MOL0     H91426   0.166   8.218   9.293 -1.2759  1.3658 -1.7839
  693MOL0     H91427   0.257   8.360   9.564  0.6012  0.6086 -0.2394
  693MOL0     H91428   0.333   8.217   9.487 -2.7175 -4.7315  1.0127
  693MOL0     H91429   0.229   7.986   9.523  1.6219  1.3936  0.8628
  693MOL0     H91430   0.133   7.814   9.697  0.3493  0.6326 -2.7449
  693MOL0     H91431   0.014   7.807   9.582  0.9477  1.4186 -1.5917
  693MOL0     H91432  -0.057   7.874   9.866  0.0032  0.4578 -1.9822
  693MOL0     H91433  -0.066   7.707   9.798 -3.2149 -1.1420  0.4930
  693MOL0     H91434  -0.247   7.934   9.760  1.4972 -0.0183  3.1804
  693MOL0     H91435  -0.206   7.845   9.608  1.0563  1.4147 -0.4905
  693MOL0     H91436  -0.339   7.728   9.863 -4.0431 -0.2271 -0.7583
  693MOL0     H91437  -0.308   7.636   9.710 -2.6866  0.0316 -2.5318
  693MOL0     H91438  -0.684   7.820   9.611 -1.8054 -0.9618 -1.5035
  693MOL0     H91439  -0.885   7.753   9.680  1.3370  2.1934  0.6919
  693MOL0     H91440  -1.206   7.649   9.656 -1.6176  2.4364 -1.0026
  693MOL0     H91441  -1.448   7.565   9.653  1.0753 -3.1597 -0.8187
  693MOL0     H91442  -1.655   7.493  10.058 -1.3148 -1.4500  1.3807
  693MOL0     H91443  -1.575   7.349  10.002  0.6676  0.9396  1.5778
  693MOL0     H91444  -1.742   7.299   9.836 -0.7087 -2.1329  1.0010
  693MOL0     H91445  -1.831   7.441   9.878 -1.0096 -1.7778 -1.4303
  693MOL0     H91446  -1.866   7.354  10.109  1.8347  2.8365  0.1547
  693MOL0     H91447  -1.754   7.225  10.076 -0.2338  1.6699  1.3245
  693MOL0     H91448  -2.038   7.275   9.940 -1.0719 -0.2688  1.7133
  693MOL0     H91449  -1.918   7.147   9.883 -1.7513 -1.8644  0.3447
  693MOL0     H91450  -1.908   7.062  10.122  0.7610  0.6459 -0.4263
  693MOL0     H91451  -2.048   7.018  10.020  0.2717  1.6412 -1.1315
  693MOL0     H91452  -2.169   7.238  10.121 -0.6277  0.2206 -0.5154
  693MOL0     H91453  -2.037   7.240  10.230 -2.1517  1.5852  0.2499
  693MOL0     H91454  -2.200   6.981  10.213  0.6713 -0.7748  1.7228
  693MOL0     H91455  -2.090   7.043  10.331 -1.8049 -1.3592  2.3161
  693MOL0     H91456  -2.375   7.120  10.266 -1.2458 -3.7098  1.6088
  693MOL0     H91457  -2.284   7.230  10.381  0.5232 -0.9625  3.2799
  693MOL0     H91458  -1.427   7.555  10.081  1.3420  0.8793  0.2253
  693MOL0     H91459  -1.183   7.600  10.068  0.8015 -1.2759 -1.0355
  693MOL0     H91460  -0.719   7.518  10.000  1.9966  1.3556  1.5985
  693MOL0     H91461  -0.478   7.610   9.922  1.5273  1.8392 -0.7506
  693MOL0     H91462   0.822   8.942   8.844 -3.1321 -1.5224 -1.2825
  693MOL0     H91463   1.057   8.990   8.800  2.7201 -1.1727 -2.4060
  693MOL0     H91464   1.418   8.879   8.627 -1.1258 -1.8070  1.0098
  693MOL0     H91465   1.657   8.946   8.565 -2.4220 -0.1025 -1.4856
  693MOL0     H91466   1.841   9.105   8.575 -0.5514  0.8561  1.0821
  693MOL0     H91467   1.885   8.932   8.557  0.3396  0.9053 -1.3432
  693MOL0     H91468   2.031   9.163   8.699 -1.6893  1.4909 -2.2156
  693MOL0     H91469   2.106   8.995   8.660 -0.6644 -0.5129  0.3492
  693MOL0     H91470   2.024   9.192   8.464  0.7871 -0.8491 -2.0098
  693MOL0     H91471   2.134   9.047   8.447 -2.5877  0.0608 -1.2479
  693MOL0     H91472   2.231   9.284   8.430 -1.5382 -0.8332 -0.1619
  693MOL0     H91473   2.195   9.321   8.594  2.2864  0.7662  0.0953
  693MOL0     H91474   2.543   9.099   8.651 -0.1058  0.3402  0.6195
  693MOL0     H91475   1.760   8.953   8.981 -1.0116  1.6507  0.9106
  693MOL0     H91476   1.545   8.847   9.035  0.8813 -0.8236 -0.2296
  694MOL0     O91477   0.273   0.728   6.709  0.1408  0.0160  0.3715
  694MOL0     C91478   0.260   0.681   6.820 -0.8109 -0.4305 -0.2460
  694MOL0     O91479   0.154   0.612   6.869  0.4550 -0.4364  0.9401
  694MOL0     C91480   0.053   0.595   6.785 -0.6655  0.3519  0.5456
  694MOL0     C91481   0.057   0.500   6.677  0.5073 -0.3085  0.4503
  694MOL0     C91482  -0.060   0.487   6.605 -0.9883  0.4254 -0.0645
  694MOL0     C91483  -0.177   0.556   6.631  0.0868 -0.5016  0.0394
  694MOL0     O91484  -0.287   0.548   6.549 -0.4946  0.0166  0.4482
  694MOL0     C91485  -0.338   0.426   6.520 -0.6228 -0.1848  0.2400
  694MOL0     C91486  -0.446   0.388   6.633 -0.2133  0.2200  0.9762
  694MOL0     C91487  -0.540   0.511   6.673  0.1620  0.9113  0.9106
  694MOL0     C91488  -0.629   0.551   6.555 -0.8908 -0.9621 -0.1277
  694MOL0     C91489  -0.758   0.615   6.609  0.5786 -0.2940 -0.0983
  694MOL0     C91490  -0.856   0.508   6.648 -1.1539  0.4539  0.8608
  694MOL0     C91491  -0.975   0.552   6.739  0.3083 -0.1500 -0.3786
  694MOL0     C91492  -1.097   0.610   6.660 -0.5119  0.7199 -0.1961
  694MOL0     N91493  -1.069   0.745   6.609  0.6582  0.3366  0.1971
  694MOL0     C91494  -1.033   0.853   6.690 -0.3255 -0.0961 -0.1721
  694MOL0     C91495  -1.017   0.957   6.607 -0.0901 -0.6508  0.0773
  694MOL0     C91496  -0.974   1.099   6.637  1.0297 -0.7507 -0.0254
  694MOL0     C91497  -0.823   1.122   6.593  0.7170 -0.9262  1.4983
  694MOL0     C91498  -0.785   1.265   6.620  0.0713  0.2870 -0.2112
  694MOL0     C91499  -0.636   1.275   6.613  0.0550 -1.1339 -0.2388
  694MOL0     O91500  -0.602   1.405   6.645 -0.1671  0.1914  0.4154
  694MOL0     C91501  -0.468   1.433   6.643  0.2430 -0.1762 -0.1933
  694MOL0     C91502  -0.364   1.343   6.606  0.3206 -0.3073 -0.6253
  694MOL0     C91503  -0.231   1.381   6.601 -0.2191 -0.4084 -0.9512
  694MOL0     C91504  -0.196   1.513   6.608  0.1379  0.3226  0.1171
  694MOL0     C91505  -0.070   1.559   6.561  0.0941 -0.4477  0.6318
  694MOL0     O91506   0.037   1.478   6.576 -0.6626 -0.2160 -0.4217
  694MOL0     C91507   0.168   1.513   6.538  0.9130 -0.1291  0.2683
  694MOL0     C91508   0.206   1.597   6.434  0.6006 -0.5944  0.8826
  694MOL0     C91509   0.343   1.625   6.398  0.1874 -0.2529 -0.1716
  694MOL0     C91510   0.446   1.580   6.494  0.7422  0.9343  0.2530
  694MOL0     O91511   0.576   1.628   6.465 -0.5946 -0.2894  0.0902
  694MOL0     C91512   0.693   1.578   6.532 -0.2354  0.7347 -0.2761
  694MOL0     C91513   0.811   1.666   6.501  0.3921  0.3439  0.2270
  694MOL0     C91514   0.941   1.588   6.522 -0.9160 -0.3598  0.8267
  694MOL0     C91515   1.052   1.691   6.506 -0.4382  0.4728 -0.1876
  694MOL0     C91516   1.176   1.599   6.469 -0.3168 -0.2054 -0.4297
  694MOL0     C91517   1.317   1.664   6.475  0.6812 -0.0466  0.4980
  694MOL0     C91518   1.352   1.751   6.357 -0.3002  0.0456  0.0397
  694MOL0     C91519   1.504   1.767   6.335 -0.0362  0.5284 -0.3586
  694MOL0    Cl91520   1.538   1.863   6.182  0.0879  0.2235  0.0903
  694MOL0     C91521   0.404   1.500   6.604  0.3147  0.2576  0.0967
  694MOL0     C91522   0.271   1.456   6.611  0.0063 -0.6026  0.1485
  694MOL0     O91523  -0.078   1.671   6.503 -0.9478  0.0756 -0.4389
  694MOL0     C91524  -0.294   1.604   6.645 -0.0083 -0.2983 -0.4455
  694MOL0     C91525  -0.427   1.567   6.670  0.1960 -1.0094  0.5937
  694MOL0     N91526  -1.048   0.912   6.479 -0.4640 -0.0978  0.6948
  694MOL0     N91527  -1.067   0.783   6.473 -0.3429 -0.7296 -0.4502
  694MOL0     C91528  -0.172   0.656   6.726 -0.4421 -0.3463  0.2234
  694MOL0     C91529  -0.061   0.676   6.810  0.2800 -0.3332 -0.7798
  694MOL0     C91530   0.376   0.694   6.910 -0.7434 -0.4574 -0.0355
  694MOL0     C91531   0.372   0.634   7.041  0.0470  0.6284  0.3567
  694MOL0     C91532   0.479   0.659   7.137  0.2253 -0.0682  0.4609
  694MOL0     C91533   0.584   0.747   7.109  0.1897 -0.3316 -0.8515
  694MOL0     O91534   0.698   0.775   7.188 -0.2995 -0.5825 -0.1981
  694MOL0     C91535   0.686   0.733   7.328 -0.3774 -0.3961 -0.3884
  694MOL0     C91536   0.792   0.799   7.419 -0.4787 -0.7369  1.0445
  694MOL0     C91537   0.775   0.794   7.569 -0.2384  1.0819 -0.1092
  694MOL0     C91538   0.793   0.657   7.620  0.8317  0.4343  0.2880
  694MOL0     C91539   0.922   0.588   7.618 -0.7121  0.0720 -1.2793
  694MOL0     C91540   1.025   0.528   7.608 -0.0080  0.5431 -0.0223
  694MOL0     C91541   0.585   0.802   6.983  0.0757 -0.0613  1.2417
  694MOL0     C91542   0.491   0.774   6.886 -1.1337 -0.2805 -0.8447
  694MOL0     H91543   0.144   0.449   6.637 -0.6672  0.7246 -3.9600
  694MOL0     H91544  -0.060   0.425   6.516  1.4574  2.7818 -1.8441
  694MOL0     H91545  -0.260   0.349   6.514  1.3477  1.6110  1.3425
  694MOL0     H91546  -0.380   0.426   6.420  0.7350  1.5445 -0.3784
  694MOL0     H91547  -0.395   0.351   6.723 -0.2229 -0.7450  0.5902
  694MOL0     H91548  -0.515   0.312   6.597 -1.8857  2.2417 -0.3311
  694MOL0     H91549  -0.481   0.601   6.694 -2.3142  2.8314  0.2389
  694MOL0     H91550  -0.595   0.483   6.763  1.5252  1.6703  2.0255
  694MOL0     H91551  -0.574   0.628   6.500  0.0319 -0.1786  1.8112
  694MOL0     H91552  -0.639   0.472   6.480  3.0184  0.7690 -2.8172
  694MOL0     H91553  -0.810   0.663   6.526 -3.7199  1.5963  3.2865
  694MOL0     H91554  -0.739   0.691   6.685 -0.8439  1.4090 -1.3651
  694MOL0     H91555  -0.805   0.423   6.695 -1.8417 -0.7983 -0.5400
  694MOL0     H91556  -0.899   0.469   6.555  0.6099 -0.9737  0.5912
  694MOL0     H91557  -1.019   0.465   6.788  0.4099 -0.0797 -0.1618
  694MOL0     H91558  -0.942   0.629   6.809 -2.6866 -0.1897  1.2548
  694MOL0     H91559  -1.175   0.621   6.735  1.4947  1.4784  1.8679
  694MOL0     H91560  -1.128   0.541   6.581 -0.8353  0.5676  0.0630
  694MOL0     H91561  -1.018   0.856   6.797 -1.4403 -3.3880  0.2084
  694MOL0     H91562  -0.979   1.131   6.742 -0.0365  0.1149 -0.3198
  694MOL0     H91563  -1.038   1.168   6.581  0.6631 -0.5880  0.5804
  694MOL0     H91564  -0.809   1.101   6.487 -0.9471  1.3028  0.7527
  694MOL0     H91565  -0.762   1.051   6.650  0.5072 -0.9527  1.6897
  694MOL0     H91566  -0.834   1.331   6.548  2.2555 -0.2867 -2.3650
  694MOL0     H91567  -0.816   1.284   6.724 -1.0159 -1.6556 -0.1351
  694MOL0     H91568  -0.607   1.247   6.512 -1.0253 -1.4216 -0.4864
  694MOL0     H91569  -0.591   1.201   6.680  1.8419 -0.7828 -0.9853
  694MOL0     H91570  -0.399   1.242   6.589  0.1283 -0.4435  0.5422
  694MOL0     H91571  -0.160   1.300   6.588  1.0436  0.3457  0.6923
  694MOL0     H91572   0.132   1.637   6.366 -1.3479 -3.1829  1.3469
  694MOL0     H91573   0.373   1.696   6.322  2.7375 -0.2921  0.6756
  694MOL0     H91574   0.714   1.480   6.488 -1.1453  0.6694 -0.5800
  694MOL0     H91575   0.670   1.564   6.639  1.6906  2.3464  0.4222
  694MOL0     H91576   0.805   1.749   6.572 -0.1753  1.6006 -1.2188
  694MOL0     H91577   0.809   1.706   6.399 -0.1694 -0.7475 -0.2052
  694MOL0     H91578   0.957   1.500   6.459 -0.4460  2.1322 -2.8280
  694MOL0     H91579   0.942   1.563   6.629 -3.0925  1.4348  1.3437
  694MOL0     H91580   1.025   1.755   6.421 -0.4740 -0.8931 -1.2430
  694MOL0     H91581   1.057   1.747   6.600 -0.4817 -2.4678  1.6845
  694MOL0     H91582   1.168   1.564   6.366 -1.1603 -0.2217 -0.3661
  694MOL0     H91583   1.181   1.508   6.530  1.8006 -0.0648 -0.3097
  694MOL0     H91584   1.396   1.589   6.488 -0.2201 -0.6739  2.9758
  694MOL0     H91585   1.329   1.723   6.566  2.0336 -0.2804  0.5006
  694MOL0     H91586   1.319   1.701   6.266 -1.1204  0.3027  0.1883
  694MOL0     H91587   1.308   1.851   6.356  1.2817  0.8422 -3.0934
  694MOL0     H91588   1.543   1.666   6.325 -2.3949 -0.7126  1.9890
  694MOL0     H91589   1.549   1.816   6.422  1.2712 -1.6908  0.2998
  694MOL0     H91590   0.474   1.458   6.676  0.7232  0.1872 -0.3390
  694MOL0     H91591   0.243   1.380   6.683 -0.8216  0.3430  0.8375
  694MOL0     H91592  -0.265   1.708   6.662 -0.9635 -0.2839  1.3678
  694MOL0     H91593  -0.498   1.646   6.694  0.8593  0.3853 -1.7268
  694MOL0     H91594  -0.258   0.718   6.747 -0.1932 -0.9518  3.5096
  694MOL0     H91595  -0.047   0.747   6.891  2.2251 -3.4256  1.8189
  694MOL0     H91596   0.295   0.566   7.075  1.3052 -0.3457  1.3650
  694MOL0     H91597   0.472   0.619   7.238  0.8167  0.2584  0.6366
  694MOL0     H91598   0.701   0.625   7.326  0.9442 -0.3211 -4.1824
  694MOL0     H91599   0.582   0.744   7.361 -1.1036 -3.5897 -1.3016
  694MOL0     H91600   0.892   0.765   7.390 -1.2597  0.5661 -4.4981
  694MOL0     H91601   0.788   0.906   7.396 -2.4684 -0.8232  0.7781
  694MOL0     H91602   0.673   0.827   7.589 -0.0777  1.0696  0.7855
  694MOL0     H91603   0.854   0.850   7.619  1.0517 -2.0072  1.5703
  694MOL0     H91604   0.761   0.655   7.724  3.7884 -1.3373  1.3010
  694MOL0     H91605   0.730   0.597   7.554  1.2623 -0.2859  0.5163
  694MOL0     H91606   1.119   0.478   7.621 -0.7011 -0.9546 -0.5431
  694MOL0     H91607   0.671   0.863   6.954  0.8661 -1.6147  0.2052
  694MOL0     H91608   0.501   0.822   6.789  0.8015  1.8658  0.3204
  695MOL0     O91609   8.825   2.999   9.625  0.2713  0.3915 -0.7369
  695MOL0     C91610   8.887   2.955   9.530  0.0540 -0.3484 -0.9448
  695MOL0     O91611   8.838   2.918   9.411  0.2270  0.6462 -0.1700
  695MOL0     C91612   8.703   2.895   9.401 -0.1077  0.1144 -0.2033
  695MOL0     C91613   8.656   2.762   9.419 -0.1696 -0.2508 -0.3656
  695MOL0     C91614   8.519   2.735   9.396 -0.1738 -0.0778 -0.2048
  695MOL0     C91615   8.427   2.834   9.371  0.9161 -0.7449 -1.1633
  695MOL0     O91616   8.295   2.807   9.339  0.0926 -0.2408 -0.1602
  695MOL0     C91617   8.190   2.893   9.394 -0.2102  0.2155  0.8794
  695MOL0     C91618   8.062   2.821   9.435 -0.6421  0.1668 -0.3398
  695MOL0     C91619   7.967   2.906   9.504  0.4254 -0.2075  0.1743
  695MOL0     C91620   7.998   2.951   9.652  0.8250  0.2345 -0.5489
  695MOL0     C91621   7.874   3.019   9.715  0.2982 -0.1049 -0.6345
  695MOL0     C91622   7.907   3.097   9.841  0.2267  0.2145 -0.6347
  695MOL0     C91623   7.787   3.180   9.901  0.0615  0.0595  0.9349
  695MOL0     C91624   7.721   3.272   9.798  0.4242 -0.4862  0.9182
  695MOL0     N91625   7.630   3.363   9.871  0.4581  0.0632  0.0402
  695MOL0     C91626   7.535   3.324   9.964 -0.8927 -0.6178 -0.8861
  695MOL0     C91627   7.512   3.429  10.049 -0.7241 -0.4952  1.3176
  695MOL0     C91628   7.418   3.425  10.164 -0.0624 -0.3194  0.6792
  695MOL0     C91629   7.286   3.483  10.128  1.1374  0.1822  0.4394
  695MOL0     C91630   7.188   3.415  10.032  0.3493 -0.2894  0.2757
  695MOL0     C91631   7.069   3.508  10.000 -0.0310 -0.5795 -0.4403
  695MOL0     O91632   7.000   3.547  10.120  0.5405  0.3075 -0.1753
  695MOL0     C91633   6.873   3.612  10.108  0.1828 -0.3904 -0.2947
  695MOL0     C91634   6.804   3.620   9.986  0.1428  0.6199  0.1077
  695MOL0     C91635   6.675   3.658   9.974 -0.7055  0.6940 -0.3350
  695MOL0     C91636   6.607   3.706  10.086 -0.1118  0.1768  0.5091
  695MOL0     C91637   6.470   3.766  10.077 -0.4847  0.1758 -0.0853
  695MOL0     O91638   6.433   3.795   9.951  0.7814  0.0210  0.1007
  695MOL0     C91639   6.304   3.840   9.928  0.5574  0.4424 -0.6173
  695MOL0     C91640   6.293   3.955   9.856  0.3102 -0.3071  0.2319
  695MOL0     C91641   6.166   4.015   9.833 -0.5169 -0.0181 -1.6127
  695MOL0     C91642   6.045   3.945   9.872 -1.1202 -1.0891  0.5370
  695MOL0     O91643   5.933   3.993   9.822  0.0110 -0.4996  0.5201
  695MOL0     C91644   5.808   3.967   9.883 -0.1301  0.3295 -0.3471
  695MOL0     C91645   5.734   4.095   9.903 -0.0442  0.7833  0.0851
  695MOL0     C91646   5.650   4.133   9.775 -0.1517 -0.0001 -0.8484
  695MOL0     C91647   5.568   4.267   9.799 -0.1060 -0.2442  0.4612
  695MOL0     C91648   5.484   4.314   9.679 -0.3659 -0.1542 -0.6520
  695MOL0     C91649   5.350   4.248   9.668  0.3396 -0.2757  0.3107
  695MOL0     C91650   5.285   4.262   9.541  0.3504  0.6007 -0.0626
  695MOL0     C91651   5.236   4.405   9.510  0.9142 -1.1307 -0.0980
  695MOL0    Cl91652   5.167   4.489   9.651 -0.0716  0.2543 -0.1119
  695MOL0     C91653   6.063   3.831   9.945 -0.1477  0.6268  0.4278
  695MOL0     C91654   6.190   3.770   9.969  0.2447 -1.2545 -0.9097
  695MOL0     O91655   6.403   3.781  10.182 -0.4111  0.5668 -0.0853
  695MOL0     C91656   6.678   3.711  10.205 -0.8258  0.9681  0.3454
  695MOL0     C91657   6.811   3.678  10.214 -0.4035  0.9678 -0.1596
  695MOL0     N91658   7.594   3.531  10.006 -0.6458 -1.1373 -0.1005
  695MOL0     N91659   7.668   3.487   9.908  0.0992  1.0420 -0.6217
  695MOL0     C91660   8.477   2.965   9.346  1.1324  0.3479 -0.1454
  695MOL0     C91661   8.612   2.999   9.369 -0.8800 -0.1221 -0.1523
  695MOL0     C91662   9.033   2.936   9.540  0.0806 -0.1936  1.0688
  695MOL0     C91663   9.100   2.819   9.501 -0.4354 -0.3679  0.0625
  695MOL0     C91664   9.239   2.828   9.517 -0.1974  0.1602 -0.2489
  695MOL0     C91665   9.315   2.943   9.560 -0.2323 -0.5216  0.0892
  695MOL0     O91666   9.454   2.950   9.565  0.2869 -0.0094 -0.1782
  695MOL0     C91667   9.523   3.072   9.535  1.0633 -0.6178 -0.1199
  695MOL0     C91668   9.669   3.034   9.532 -0.4785  0.0022 -0.0213
  695MOL0     C91669   9.729   2.997   9.668 -0.8385 -0.0654  0.4145
  695MOL0     C91670   9.680   3.090   9.791 -0.7703  0.5094  0.2089
  695MOL0     C91671   9.763   3.043   9.904  0.1316  1.1038 -0.4202
  695MOL0     C91672   9.824   2.989   9.992 -0.7067 -0.1466  0.4682
  695MOL0     C91673   9.235   3.052   9.594 -0.0828  0.4871  2.2676
  695MOL0     C91674   9.095   3.045   9.602  0.1404  0.0668 -0.3411
  695MOL0     H91675   8.726   2.680   9.428 -0.6903 -0.4841  2.0447
  695MOL0     H91676   8.500   2.628   9.404 -0.8528 -0.0832 -1.6274
  695MOL0     H91677   8.157   2.956   9.310  0.8790  0.8421  0.8952
  695MOL0     H91678   8.229   2.954   9.476  0.5394 -0.0186  0.7105
  695MOL0     H91679   8.092   2.737   9.498  0.7955  0.9598  0.0807
  695MOL0     H91680   8.023   2.771   9.346  0.6702 -0.8901 -0.3608
  695MOL0     H91681   7.877   2.847   9.487  1.1123 -0.4982 -3.0848
  695MOL0     H91682   7.940   2.987   9.435 -2.4022 -1.0685  0.1299
  695MOL0     H91683   8.029   2.864   9.710 -1.4236 -0.3032 -0.0570
  695MOL0     H91684   8.083   3.021   9.645  1.7907 -0.9925 -1.5065
  695MOL0     H91685   7.797   2.946   9.738 -0.7305  0.3248 -2.5261
  695MOL0     H91686   7.836   3.093   9.645  2.6448  3.2294  1.2864
  695MOL0     H91687   7.995   3.162   9.837  0.3538  0.0084 -1.3673
  695MOL0     H91688   7.943   3.018   9.907  2.7972  1.2149 -0.7020
  695MOL0     H91689   7.713   3.116   9.950 -1.0028  1.0100  0.6104
  695MOL0     H91690   7.839   3.238   9.978 -0.9924 -0.8429  2.3905
  695MOL0     H91691   7.661   3.226   9.719 -0.7874  0.0194  1.5105
  695MOL0     H91692   7.797   3.337   9.754  1.0762 -0.9532  1.3379
  695MOL0     H91693   7.490   3.225   9.975  0.7005 -1.4232 -1.2796
  695MOL0     H91694   7.465   3.466  10.254 -0.0434 -0.3214  0.6697
  695MOL0     H91695   7.402   3.318  10.175 -1.6995 -0.1322  0.3581
  695MOL0     H91696   7.311   3.577  10.079 -1.6337  0.6868 -0.1903
  695MOL0     H91697   7.241   3.499  10.227  2.3706  0.4191  0.9843
  695MOL0     H91698   7.246   3.397   9.941  1.7848  2.8030  0.4598
  695MOL0     H91699   7.168   3.316  10.074 -0.4824 -0.3661 -0.2891
  695MOL0     H91700   6.999   3.459   9.931 -2.1349  1.1773  0.3242
  695MOL0     H91701   7.107   3.593   9.943 -1.1521 -0.1212 -0.5433
  695MOL0     H91702   6.840   3.583   9.891  3.5373 -1.5212  2.0134
  695MOL0     H91703   6.622   3.661   9.879 -0.2717 -0.1367 -0.6074
  695MOL0     H91704   6.380   4.009   9.819 -0.7614  2.0630  0.9776
  695MOL0     H91705   6.148   4.111   9.786  2.7526  1.8115  0.5171
  695MOL0     H91706   5.825   3.913   9.976 -0.9115  0.4482 -0.1275
  695MOL0     H91707   5.747   3.900   9.821 -0.4437  1.9216 -1.8556
  695MOL0     H91708   5.810   4.173   9.915  2.0576 -0.6314 -2.8244
  695MOL0     H91709   5.661   4.092   9.984 -2.8356  1.1060 -2.2463
  695MOL0     H91710   5.577   4.056   9.748 -1.0113  0.3464  0.4004
  695MOL0     H91711   5.722   4.142   9.693  0.7664  0.2049 -0.0466
  695MOL0     H91712   5.497   4.242   9.879 -0.4238  0.3063  0.3599
  695MOL0     H91713   5.630   4.352   9.830 -0.0215 -0.6108  1.3424
  695MOL0     H91714   5.547   4.310   9.589  1.6709  0.9511  0.6704
  695MOL0     H91715   5.466   4.421   9.691 -0.0634 -0.1507 -0.2378
  695MOL0     H91716   5.288   4.278   9.753  0.2700  1.2387 -0.2458
  695MOL0     H91717   5.369   4.140   9.678  0.4117 -0.3420 -0.4703
  695MOL0     H91718   5.352   4.233   9.459  0.3406  2.0816 -0.6283
  695MOL0     H91719   5.193   4.203   9.535 -0.9343  2.6326 -3.5859
  695MOL0     H91720   5.155   4.399   9.436 -0.2534  0.3229  0.9956
  695MOL0     H91721   5.315   4.468   9.469  0.1216  1.7434  2.4607
  695MOL0     H91722   5.968   3.797   9.986  0.2873 -1.8618 -0.4656
  695MOL0     H91723   6.198   3.693  10.045  1.1304 -1.3021 -1.0386
  695MOL0     H91724   6.631   3.718  10.303 -1.8540 -1.9200  0.1717
  695MOL0     H91725   6.850   3.679  10.315  0.3523  1.4694 -0.4496
  695MOL0     H91726   8.395   3.035   9.333  2.3074  2.2323  1.8669
  695MOL0     H91727   8.651   3.098   9.347  0.3566  0.0078  2.2611
  695MOL0     H91728   9.048   2.729   9.468 -1.0461 -0.5210  1.3580
  695MOL0     H91729   9.299   2.747   9.477  2.5141  2.3189 -0.8477
  695MOL0     H91730   9.504   3.155   9.604 -1.9419 -2.4482  1.5110
  695MOL0     H91731   9.489   3.108   9.438 -2.3248 -0.9218  0.8034
  695MOL0     H91732   9.685   2.956   9.457  0.4204 -0.1243  0.2943
  695MOL0     H91733   9.719   3.122   9.491 -1.2918  0.3167 -0.3732
  695MOL0     H91734   9.838   2.990   9.666 -0.8611 -0.3937 -1.4465
  695MOL0     H91735   9.691   2.900   9.701 -2.4702  0.8497  1.3960
  695MOL0     H91736   9.689   3.198   9.779 -3.0837  1.1354  2.8786
  695MOL0     H91737   9.576   3.068   9.820 -1.1625  0.9138 -0.8223
  695MOL0     H91738   9.883   2.933  10.061 -2.4174 -1.7036  0.7528
  695MOL0     H91739   9.291   3.138   9.631  0.6721  0.0634  2.1291
  695MOL0     H91740   9.044   3.133   9.639 -0.8358 -0.4007 -0.5461
  696MOL0     O91741   4.541   2.006   7.869 -0.3762  0.0937 -0.2647
  696MOL0     C91742   4.504   1.970   7.754 -0.2804 -0.4534 -0.2028
  696MOL0     O91743   4.382   1.994   7.697  0.5100 -0.3248 -0.5868
  696MOL0     C91744   4.268   2.025   7.771 -0.1219  0.3252 -1.3675
  696MOL0     C91745   4.182   2.116   7.721  0.3187 -0.6670 -0.0040
  696MOL0     C91746   4.071   2.147   7.795 -0.8074  0.0378  0.6820
  696MOL0     C91747   4.041   2.101   7.925 -0.9712  0.0564  0.3094
  696MOL0     O91748   3.928   2.152   7.986 -0.5032 -0.4670  0.5869
  696MOL0     C91749   3.909   2.137   8.127  0.1614  0.8551  0.8687
  696MOL0     C91750   3.777   2.217   8.149  0.7275 -0.0655 -0.2237
  696MOL0     C91751   3.741   2.239   8.298 -0.7482 -0.1549 -0.4534
  696MOL0     C91752   3.587   2.268   8.322 -0.3553 -0.8834 -0.8331
  696MOL0     C91753   3.497   2.147   8.300  0.3521  0.3426  0.9210
  696MOL0     C91754   3.538   2.005   8.354  0.1393 -0.0991  0.2243
  696MOL0     C91755   3.442   1.897   8.323 -0.7678 -0.9325 -0.6341
  696MOL0     C91756   3.427   1.795   8.429 -0.5297 -0.8948  0.1147
  696MOL0     N91757   3.347   1.828   8.546 -0.2142 -0.4947 -0.2271
  696MOL0     C91758   3.219   1.886   8.551 -0.2134  0.0229 -0.2945
  696MOL0     C91759   3.180   1.866   8.673  0.7187  0.8310 -0.0737
  696MOL0     C91760   3.066   1.929   8.743 -0.3022  0.7106 -0.9177
  696MOL0     C91761   2.940   1.840   8.753  0.0392  0.2577  0.3526
  696MOL0     C91762   2.821   1.890   8.666  0.8804  0.0890  0.8608
  696MOL0     C91763   2.708   1.792   8.694  0.5999  0.3553  0.2011
  696MOL0     O91764   2.595   1.823   8.609 -0.5863 -0.2264 -0.3492
  696MOL0     C91765   2.475   1.755   8.628 -0.2860  0.6928 -0.2230
  696MOL0     C91766   2.367   1.773   8.543  1.0406 -0.2191  0.2254
  696MOL0     C91767   2.241   1.712   8.567  0.4828 -0.5367  0.5454
  696MOL0     C91768   2.215   1.636   8.675  0.1712 -0.0295 -0.3617
  696MOL0     C91769   2.082   1.573   8.682  0.2995  0.0498 -1.0001
  696MOL0     O91770   2.011   1.547   8.571 -0.4131 -0.5878  0.8307
  696MOL0     C91771   1.880   1.508   8.586 -0.0517 -0.0945  0.0020
  696MOL0     C91772   1.782   1.590   8.536 -0.1110 -0.7250 -0.0125
  696MOL0     C91773   1.646   1.553   8.543  0.2980  0.1383 -0.5910
  696MOL0     C91774   1.606   1.441   8.622 -0.2118 -0.6156  0.7197
  696MOL0     O91775   1.466   1.418   8.633 -0.4100 -0.3893  0.1517
  696MOL0     C91776   1.419   1.296   8.679 -0.5090 -0.7219 -0.2078
  696MOL0     C91777   1.275   1.274   8.629 -0.0761  0.2636 -0.0245
  696MOL0     C91778   1.217   1.136   8.647  0.1285 -0.1614  0.4292
  696MOL0     C91779   1.209   1.092   8.800 -0.5640  0.2456 -0.3281
  696MOL0     C91780   1.103   1.165   8.887  0.0317 -0.5658  0.5764
  696MOL0     C91781   0.963   1.124   8.821 -0.5494  0.5781  1.2379
  696MOL0     C91782   0.851   1.198   8.884 -0.2481 -0.2153  0.7743
  696MOL0     C91783   0.703   1.173   8.823  0.2338  0.0261  0.2107
  696MOL0    Cl91784   0.692   1.228   8.645 -0.1520  0.4280 -0.5164
  696MOL0     C91785   1.710   1.352   8.670 -0.1079  0.4606 -0.0393
  696MOL0     C91786   1.842   1.394   8.662  0.4169  0.3269  0.5841
  696MOL0     O91787   2.046   1.540   8.798  0.6876  0.0723  0.1787
  696MOL0     C91788   2.323   1.625   8.766 -0.0154  1.0934  0.4796
  696MOL0     C91789   2.447   1.675   8.745 -0.5300 -0.2734  1.0112
  696MOL0     N91790   3.273   1.789   8.743  0.4129 -0.1224  0.2002
  696MOL0     N91791   3.378   1.776   8.668 -0.3455  0.6469 -0.5210
  696MOL0     C91792   4.136   2.022   7.985 -0.1543 -0.3487 -0.4255
  696MOL0     C91793   4.249   1.980   7.908 -0.5160  0.1469  0.3347
  696MOL0     C91794   4.601   1.895   7.669 -0.3077 -0.5919  0.3393
  696MOL0     C91795   4.694   1.809   7.724 -0.5824  0.7961 -0.5858
  696MOL0     C91796   4.796   1.744   7.656  0.4932 -0.2339  0.1309
  696MOL0     C91797   4.787   1.746   7.513  0.7793 -0.4963  0.5450
  696MOL0     O91798   4.888   1.672   7.461 -0.0418 -0.1221  0.0065
  696MOL0     C91799   4.904   1.670   7.317  0.5177  0.3846  0.8014
  696MOL0     C91800   4.979   1.791   7.254  0.8897 -0.9585 -0.4682
  696MOL0     C91801   5.116   1.823   7.309 -0.0100 -0.4446  0.9031
  696MOL0     C91802   5.187   1.943   7.238  0.8098 -0.2116  0.1862
  696MOL0     C91803   5.098   2.060   7.246  0.1831 -0.0730  0.0835
  696MOL0     C91804   5.032   2.159   7.274  1.0326  1.1880  0.6802
  696MOL0     C91805   4.688   1.828   7.450 -0.6612 -0.4085  0.9758
  696MOL0     C91806   4.601   1.910   7.525 -0.1226  0.3810 -0.4186
  696MOL0     H91807   4.199   2.161   7.623  0.1950  0.3767  0.4419
  696MOL0     H91808   4.007   2.224   7.754  0.3831  0.7215  0.0413
  696MOL0     H91809   4.001   2.172   8.174  3.7779 -1.8865 -3.4111
  696MOL0     H91810   3.905   2.036   8.167  1.8490 -0.1356 -1.2329
  696MOL0     H91811   3.695   2.155   8.110 -1.1472  1.8968  0.3934
  696MOL0     H91812   3.788   2.316   8.103  0.8365 -0.1451 -0.3670
  696MOL0     H91813   3.797   2.325   8.335  1.3763 -1.8147  0.3838
  696MOL0     H91814   3.765   2.155   8.363  3.5614  0.2528 -1.1996
  696MOL0     H91815   3.567   2.283   8.429 -0.2962 -0.7955 -0.8347
  696MOL0     H91816   3.546   2.357   8.274 -2.0762 -0.9313  0.4429
  696MOL0     H91817   3.492   2.142   8.191  3.3615  0.3954  0.6934
  696MOL0     H91818   3.395   2.170   8.330  0.4184 -1.1524  2.3913
  696MOL0     H91819   3.559   2.019   8.461 -1.8133 -1.5596  0.8470
  696MOL0     H91820   3.631   1.971   8.309  2.4506  0.7210  3.8850
  696MOL0     H91821   3.343   1.935   8.297 -2.7691 -4.4663  1.2376
  696MOL0     H91822   3.475   1.844   8.233 -0.8349  0.7938 -1.7320
  696MOL0     H91823   3.530   1.780   8.464  0.0796  0.3708 -1.0347
  696MOL0     H91824   3.400   1.698   8.387  2.7988 -2.3163  0.9043
  696MOL0     H91825   3.183   1.954   8.475  0.9419 -0.2887 -1.1594
  696MOL0     H91826   3.045   2.029   8.704  1.4975  1.2208 -0.6368
  696MOL0     H91827   3.086   1.945   8.849 -1.3088  2.4318 -0.9448
  696MOL0     H91828   2.907   1.823   8.856  0.1272  0.4573  0.4133
  696MOL0     H91829   2.960   1.744   8.704  1.0312 -0.1151  1.4244
  696MOL0     H91830   2.794   1.995   8.678 -0.6405 -0.0796 -0.6118
  696MOL0     H91831   2.845   1.883   8.559  2.3344 -0.4010  1.2021
  696MOL0     H91832   2.673   1.798   8.798  0.4650  0.2813  0.1605
  696MOL0     H91833   2.733   1.688   8.670 -1.7219 -0.3116  0.3724
  696MOL0     H91834   2.377   1.834   8.454  0.4151 -0.5720 -0.0882
  696MOL0     H91835   2.163   1.734   8.495 -0.7197  1.4863  2.3381
  696MOL0     H91836   1.798   1.669   8.463  0.9545 -2.8398 -2.2176
  696MOL0     H91837   1.555   1.606   8.520 -1.3631 -0.0820  4.2198
  696MOL0     H91838   1.420   1.306   8.788  1.9046  4.0038 -0.4052
  696MOL0     H91839   1.486   1.214   8.653  0.4928  0.6315 -2.1874
  696MOL0     H91840   1.274   1.295   8.522  0.7534  1.8044  0.2395
  696MOL0     H91841   1.207   1.344   8.679 -2.5133 -0.5689 -1.9577
  696MOL0     H91842   1.271   1.070   8.578 -2.9118 -1.7021 -0.6579
  696MOL0     H91843   1.120   1.130   8.596  1.2503 -0.7447 -1.7799
  696MOL0     H91844   1.182   0.986   8.792  0.9263 -0.4021  1.9248
  696MOL0     H91845   1.307   1.100   8.849 -0.2365 -0.0831 -0.9178
  696MOL0     H91846   1.115   1.274   8.894  1.5305 -0.7908  2.1988
  696MOL0     H91847   1.120   1.133   8.990  3.0881  1.7416  0.9482
  696MOL0     H91848   0.948   1.016   8.834 -2.4059  0.8418  1.5242
  696MOL0     H91849   0.961   1.150   8.715  0.0105 -0.2042  1.0271
  696MOL0     H91850   0.836   1.175   8.990  0.0960 -2.2735  0.4045
  696MOL0     H91851   0.876   1.305   8.878  1.5492 -0.6821 -2.5608
  696MOL0     H91852   0.623   1.231   8.871 -0.5758  1.1448 -2.3466
  696MOL0     H91853   0.677   1.069   8.841 -1.8067  0.8208  2.4615
  696MOL0     H91854   1.678   1.265   8.726 -1.1804 -0.7065 -2.3262
  696MOL0     H91855   1.924   1.332   8.697 -0.7816 -1.0344  1.0425
  696MOL0     H91856   2.310   1.565   8.856  1.9803  0.5130  0.4158
  696MOL0     H91857   2.528   1.649   8.813  1.4590 -1.2413 -1.5613
  696MOL0     H91858   4.132   1.980   8.085  1.3806 -3.7963 -1.6558
  696MOL0     H91859   4.312   1.910   7.960  1.0400  0.2100 -1.3543
  696MOL0     H91860   4.700   1.808   7.832  1.7287 -1.9385 -0.6289
  696MOL0     H91861   4.870   1.683   7.706  0.7245 -1.3816 -1.5009
  696MOL0     H91862   4.809   1.656   7.265 -0.1873 -2.9223  2.6556
  696MOL0     H91863   4.966   1.582   7.299 -0.7875 -0.6926  1.3798
  696MOL0     H91864   4.975   1.772   7.147 -1.8840 -1.8437 -0.3056
  696MOL0     H91865   4.910   1.877   7.257 -1.1802 -2.5411  1.1015
  696MOL0     H91866   5.179   1.738   7.282  3.3168  1.8381  0.9326
  696MOL0     H91867   5.115   1.831   7.418 -2.2979 -0.9406  0.9719
  696MOL0     H91868   5.273   1.960   7.304  0.6269  2.0689 -0.0689
  696MOL0     H91869   5.213   1.911   7.137  0.4158 -0.6121  0.2098
  696MOL0     H91870   4.965   2.236   7.306 -0.2776  0.1457  0.5395
  696MOL0     H91871   4.704   1.840   7.343  1.6527 -1.4989  1.1508
  696MOL0     H91872   4.524   1.971   7.479  0.4628  0.0473 -1.8673
  697MOL0     O91873   4.078   3.830   3.686  0.7272 -0.0103 -0.2423
  697MOL0     C91874   4.109   3.768   3.788  0.1126 -0.1451  0.8486
  697MOL0     O91875   4.025   3.712   3.876  0.1412 -0.1630 -0.5447
  697MOL0     C91876   3.886   3.720   3.870 -0.2841  1.0925 -0.2137
  697MOL0     C91877   3.818   3.704   3.988  0.5743 -0.6914 -0.1530
  697MOL0     C91878   3.681   3.686   3.994 -0.2373  0.4279  0.5104
  697MOL0     C91879   3.600   3.685   3.885  0.0223 -0.0839  0.1259
  697MOL0     O91880   3.464   3.665   3.891  0.1063  0.4465  0.3520
  697MOL0     C91881   3.394   3.680   3.767  0.1761 -0.2398  1.0294
  697MOL0     C91882   3.243   3.670   3.775 -0.5685 -0.2998 -0.0495
  697MOL0     C91883   3.178   3.679   3.640 -1.0347  0.5313 -0.4296
  697MOL0     C91884   3.025   3.688   3.664 -0.2482  0.3821 -0.4729
  697MOL0     C91885   2.942   3.737   3.538  0.4731 -1.2050  0.1248
  697MOL0     C91886   2.789   3.751   3.580 -0.6632 -0.1179 -0.1029
  697MOL0     C91887   2.719   3.839   3.479 -0.7415  0.3162 -0.0047
  697MOL0     C91888   2.574   3.847   3.521  0.3946  0.1557  1.1177
  697MOL0     N91889   2.506   3.931   3.424 -0.1686  1.1272  0.3667
  697MOL0     C91890   2.522   4.070   3.434  0.5513  0.2896 -0.7250
  697MOL0     C91891   2.427   4.124   3.352 -0.5141  0.9747 -0.2506
  697MOL0     C91892   2.391   4.271   3.342  0.3376  0.0875  0.4020
  697MOL0     C91893   2.497   4.375   3.326 -0.1941  1.1304 -0.2777
  697MOL0     C91894   2.425   4.504   3.331 -1.4068 -0.6676 -0.8805
  697MOL0     C91895   2.515   4.619   3.288 -0.0206 -0.3956 -0.6246
  697MOL0     O91896   2.634   4.625   3.363  0.5474  0.0688  0.3052
  697MOL0     C91897   2.758   4.600   3.301 -0.9503 -0.6567 -0.4132
  697MOL0     C91898   2.791   4.581   3.163  0.9418  0.2866  0.2552
  697MOL0     C91899   2.923   4.571   3.112  0.2387 -0.2518 -0.0322
  697MOL0     C91900   3.030   4.573   3.201 -0.4870 -0.1108  0.0820
  697MOL0     C91901   3.172   4.564   3.149 -0.1726  0.0145  0.8802
  697MOL0     O91902   3.270   4.572   3.247 -0.5728  0.4470  0.1952
  697MOL0     C91903   3.402   4.580   3.210  0.3739  0.3109  0.1080
  697MOL0     C91904   3.445   4.659   3.093  0.1393 -0.0884 -0.2934
  697MOL0     C91905   3.587   4.664   3.073 -0.1027  0.2331  0.6388
  697MOL0     C91906   3.679   4.611   3.171  0.6551  0.0939  0.6446
  697MOL0     O91907   3.822   4.636   3.167  0.0978 -0.0309  0.1391
  697MOL0     C91908   3.877   4.722   3.064 -0.1419  0.0186  0.4129
  697MOL0     C91909   4.029   4.718   3.077  0.6959 -0.2654  0.4172
  697MOL0     C91910   4.085   4.567   3.046 -0.2064 -0.1491 -0.2598
  697MOL0     C91911   4.243   4.571   3.038  0.1058 -0.0336 -0.3783
  697MOL0     C91912   4.314   4.635   3.164  0.1053 -0.0642  0.6926
  697MOL0     C91913   4.467   4.635   3.162  0.0757  0.0128 -0.4446
  697MOL0     C91914   4.544   4.507   3.134  1.0417 -0.5613 -0.0755
  697MOL0     C91915   4.691   4.532   3.162  0.3445  0.5268 -0.8183
  697MOL0    Cl91916   4.780   4.384   3.139  0.4756  0.3357 -0.1261
  697MOL0     C91917   3.634   4.541   3.282 -0.0218  0.5729  0.9256
  697MOL0     C91918   3.500   4.523   3.295 -0.4785 -0.1002  0.2702
  697MOL0     O91919   3.197   4.541   3.031  0.4552  0.1839  0.0466
  697MOL0     C91920   3.003   4.582   3.339  0.7621 -0.6721  0.0963
  697MOL0     C91921   2.867   4.593   3.384  0.4776 -0.7083 -0.5402
  697MOL0     N91922   2.372   4.020   3.283  0.7896 -0.5842 -0.1077
  697MOL0     N91923   2.417   3.905   3.323  0.7989  0.5828  0.2407
  697MOL0     C91924   3.666   3.722   3.765 -0.2277  0.2288  0.0575
  697MOL0     C91925   3.806   3.734   3.751  0.7940 -0.0224 -0.0068
  697MOL0     C91926   4.246   3.770   3.831 -0.2008 -0.4030  0.1017
  697MOL0     C91927   4.298   3.665   3.911 -0.4794  0.5682 -0.3197
  697MOL0     C91928   4.431   3.662   3.944 -0.9370 -0.0227 -0.5996
  697MOL0     C91929   4.526   3.754   3.893  0.6019 -0.6871 -0.0860
  697MOL0     O91930   4.662   3.750   3.901  0.7207  0.0225 -0.2618
  697MOL0     C91931   4.722   3.638   3.967  0.1379  0.2702  0.0520
  697MOL0     C91932   4.870   3.667   3.968 -0.3095  1.2091  0.0925
  697MOL0     C91933   4.937   3.587   4.076  0.0220 -1.0128  0.5551
  697MOL0     C91934   5.082   3.608   4.099 -0.1257  0.4222 -1.2052
  697MOL0     C91935   5.114   3.731   4.180  0.3460  0.2426  0.0420
  697MOL0     C91936   5.127   3.840   4.241 -0.0500  0.6244 -0.3726
  697MOL0     C91937   4.466   3.858   3.810  0.3577 -0.1557 -0.7684
  697MOL0     C91938   4.329   3.866   3.776  0.0377  0.0308 -0.2529
  697MOL0     H91939   3.874   3.694   4.080 -2.5619 -0.9121  1.8727
  697MOL0     H91940   3.632   3.662   4.088 -0.1583 -2.0648 -0.0052
  697MOL0     H91941   3.418   3.603   3.693 -2.3688  0.1779 -0.3689
  697MOL0     H91942   3.407   3.784   3.735 -0.1569  0.6286  3.5209
  697MOL0     H91943   3.210   3.757   3.831 -1.9259 -2.0269  1.9930
  697MOL0     H91944   3.208   3.577   3.822  1.0679 -1.0329 -0.1891
  697MOL0     H91945   3.193   3.590   3.578 -0.1890  0.9846 -0.8850
  697MOL0     H91946   3.224   3.759   3.581 -0.2838 -0.4920 -1.2784
  697MOL0     H91947   2.985   3.591   3.697 -0.3670  0.3047 -0.8397
  697MOL0     H91948   2.996   3.747   3.751 -0.8194  1.4315 -1.3527
  697MOL0     H91949   2.952   3.665   3.457 -0.6309 -0.3142 -0.8394
  697MOL0     H91950   2.983   3.829   3.495 -2.3973 -0.5737 -1.5491
  697MOL0     H91951   2.778   3.783   3.684  1.8212 -4.6860  1.8613
  697MOL0     H91952   2.743   3.652   3.585 -1.4756  0.2351 -0.3662
  697MOL0     H91953   2.742   3.946   3.475 -0.9362  0.3398 -0.5078
  697MOL0     H91954   2.730   3.796   3.379 -2.2813 -0.5926  0.1744
  697MOL0     H91955   2.571   3.893   3.620 -0.4830  2.7161  0.0027
  697MOL0     H91956   2.524   3.750   3.512 -0.1628  0.4639  0.8264
  697MOL0     H91957   2.576   4.124   3.512 -1.6063 -0.8063  1.6933
  697MOL0     H91958   2.319   4.295   3.421  0.4482  1.8003  0.0158
  697MOL0     H91959   2.326   4.278   3.254  2.1897  0.9370 -0.9573
  697MOL0     H91960   2.535   4.352   3.226  1.4323 -1.1982  0.7795
  697MOL0     H91961   2.570   4.363   3.407  2.0619 -1.5224 -2.4907
  697MOL0     H91962   2.331   4.496   3.275 -0.2078 -2.6229 -2.7560
  697MOL0     H91963   2.410   4.525   3.437  2.5171 -0.2749 -0.2650
  697MOL0     H91964   2.466   4.717   3.297  0.1782 -0.3564  0.0185
  697MOL0     H91965   2.536   4.604   3.181  3.8890  2.6592 -0.5091
  697MOL0     H91966   2.711   4.568   3.091  1.1103  0.3025  0.0651
  697MOL0     H91967   2.943   4.545   3.009  3.8971  1.0650  0.2334
  697MOL0     H91968   3.382   4.709   3.020  0.7003  1.9044  0.5372
  697MOL0     H91969   3.628   4.726   2.995  0.9169  2.0834  2.5472
  697MOL0     H91970   3.834   4.823   3.069 -1.0937 -0.3446 -0.2224
  697MOL0     H91971   3.848   4.675   2.970 -3.6979  0.2464  1.2362
  697MOL0     H91972   4.057   4.752   3.178  0.2204 -1.8111  1.1026
  697MOL0     H91973   4.071   4.786   3.003  0.7113  1.3276  1.8224
  697MOL0     H91974   4.052   4.534   2.946  1.3812 -1.5246 -0.3837
  697MOL0     H91975   4.046   4.503   3.126 -2.4227  1.2026 -0.1681
  697MOL0     H91976   4.283   4.471   3.019  1.9965  0.9063 -1.6022
  697MOL0     H91977   4.278   4.632   2.954 -2.6738  1.4019 -0.6055
  697MOL0     H91978   4.292   4.580   3.256  2.1183 -0.9247  0.7144
  697MOL0     H91979   4.266   4.731   3.187 -3.3597 -1.4561  0.0159
  697MOL0     H91980   4.492   4.666   3.264 -1.6593  4.1062 -1.0908
  697MOL0     H91981   4.511   4.708   3.094  2.1676  0.1779  0.9928
  697MOL0     H91982   4.499   4.438   3.206 -0.4414  0.4136 -0.0236
  697MOL0     H91983   4.519   4.474   3.033 -3.4491  0.0841  0.6430
  697MOL0     H91984   4.705   4.572   3.263 -0.1948 -0.9974 -0.1051
  697MOL0     H91985   4.723   4.612   3.095  0.0820  0.5336 -0.9362
  697MOL0     H91986   3.713   4.513   3.350 -0.6954 -1.2051  1.0109
  697MOL0     H91987   3.459   4.470   3.380 -1.9305 -1.5044 -1.2382
  697MOL0     H91988   3.088   4.587   3.406  2.2077 -1.5546 -1.5564
  697MOL0     H91989   2.851   4.612   3.489  0.1487  2.4644 -1.0650
  697MOL0     H91990   3.620   3.735   3.668 -0.3627  0.8254  0.1970
  697MOL0     H91991   3.843   3.741   3.649  3.0807  2.4188  0.8898
  697MOL0     H91992   4.236   3.590   3.959 -0.5565  0.6218 -0.3350
  697MOL0     H91993   4.462   3.578   4.006 -0.7068  1.4068  1.2838
  697MOL0     H91994   4.693   3.545   3.919 -1.9241  0.4377  0.8589
  697MOL0     H91995   4.685   3.628   4.070  0.3725  1.9430  0.3378
  697MOL0     H91996   4.915   3.651   3.870 -2.8037 -3.4633 -0.5671
  697MOL0     H91997   4.887   3.770   4.000  4.4556  0.0292  2.2873
  697MOL0     H91998   4.917   3.484   4.043 -1.2836 -0.4758 -0.4043
  697MOL0     H91999   4.877   3.609   4.165 -1.7397  0.0601 -0.8226
  697MOL0     H92000   5.112   3.517   4.151 -0.6111  0.6862 -0.4525
  697MOL0     H92001   5.136   3.624   4.005 -2.5438  1.6069 -2.4734
  697MOL0     H92002   5.140   3.932   4.294  0.3741 -0.1053  0.8234
  697MOL0     H92003   4.523   3.947   3.785 -1.4388  0.7133 -1.9167
  697MOL0     H92004   4.299   3.957   3.726  1.9064  0.7827 -0.1065
  698MOL0     O92005   4.190   0.639   1.187  0.3985  0.0203 -0.0731
  698MOL0     C92006   4.187   0.716   1.089 -0.7210  0.5424  0.7559
  698MOL0     O92007   4.082   0.790   1.049 -0.3078  0.0059  0.2855
  698MOL0     C92008   3.975   0.794   1.136  0.3124 -0.2171  0.1128
  698MOL0     C92009   3.920   0.912   1.194  0.0629 -0.3371 -0.7135
  698MOL0     C92010   3.803   0.908   1.275  0.3913  0.1548 -0.1564
  698MOL0     C92011   3.726   0.790   1.284  0.4820  0.3961  0.0920
  698MOL0     O92012   3.600   0.785   1.337  0.3398  0.4452 -0.1804
  698MOL0     C92013   3.570   0.868   1.456  0.6681  0.8057 -0.0930
  698MOL0     C92014   3.431   0.813   1.499  0.7990  0.2662  0.4682
  698MOL0     C92015   3.446   0.670   1.549 -0.6726 -0.6007  0.5657
  698MOL0     C92016   3.315   0.593   1.549  0.6211 -0.1493 -1.1634
  698MOL0     C92017   3.225   0.639   1.674  0.1632  0.2132  0.7033
  698MOL0     C92018   3.109   0.730   1.631  0.4372 -0.2663  0.7107
  698MOL0     C92019   3.018   0.773   1.747  0.1301  0.7785  0.2192
  698MOL0     C92020   2.873   0.807   1.695 -0.5374  0.2146  0.4540
  698MOL0     N92021   2.864   0.952   1.666 -0.7867 -0.1205  0.3625
  698MOL0     C92022   2.869   1.047   1.762  0.1659  0.4601  0.0121
  698MOL0     C92023   2.860   1.160   1.683 -0.2912 -0.2277 -0.3173
  698MOL0     C92024   2.869   1.303   1.734  0.5758  0.0028  0.4902
  698MOL0     C92025   2.728   1.347   1.763 -0.7424 -0.4696  0.3674
  698MOL0     C92026   2.729   1.486   1.801 -0.0088 -0.1473  0.2283
  698MOL0     C92027   2.586   1.547   1.825 -0.9288 -0.0657 -0.2165
  698MOL0     O92028   2.528   1.512   1.946 -0.6330  0.0191 -0.4486
  698MOL0     C92029   2.392   1.530   1.965  0.1995  0.5469  0.1187
  698MOL0     C92030   2.310   1.597   1.874 -0.1699  0.1189 -0.1200
  698MOL0     C92031   2.171   1.612   1.893  0.4448  0.1083  0.1647
  698MOL0     C92032   2.109   1.565   2.003  0.4705  0.3088 -1.2083
  698MOL0     C92033   1.962   1.561   2.030  0.1700 -0.6075  1.0768
  698MOL0     O92034   1.901   1.548   1.921  0.7502 -0.2788  0.1923
  698MOL0     C92035   1.768   1.515   1.926  0.0577 -0.3466 -0.4193
  698MOL0     C92036   1.715   1.391   1.959  0.3269 -0.3768 -0.5607
  698MOL0     C92037   1.579   1.370   1.931  0.2548 -0.1295  0.1451
  698MOL0     C92038   1.500   1.468   1.876  0.0144 -0.6891  0.5585
  698MOL0     O92039   1.371   1.427   1.848 -0.9865  1.5945  0.2853
  698MOL0     C92040   1.275   1.536   1.839  0.0180  0.7733  0.8187
  698MOL0     C92041   1.145   1.466   1.811  0.8245  0.0678  0.2994
  698MOL0     C92042   1.027   1.558   1.770  0.4097  1.2151 -0.3497
  698MOL0     C92043   0.895   1.476   1.753 -0.6998 -0.4629  0.4537
  698MOL0     C92044   0.784   1.555   1.686 -0.1618  0.1828  0.8265
  698MOL0     C92045   0.709   1.651   1.771  0.3230  0.3824 -0.4212
  698MOL0     C92046   0.634   1.578   1.881 -0.7879 -0.2090  0.1610
  698MOL0     C92047   0.548   1.678   1.966 -1.0815 -0.4320  0.1108
  698MOL0    Cl92048   0.661   1.802   2.030  0.0202 -0.3676 -0.2669
  698MOL0     C92049   1.559   1.594   1.838 -0.4437  0.6684  0.5819
  698MOL0     C92050   1.688   1.615   1.877 -0.5947 -0.4676 -0.2238
  698MOL0     O92051   1.914   1.569   2.141 -0.3654 -0.1031 -0.2871
  698MOL0     C92052   2.189   1.493   2.091 -0.3486 -0.4469  0.5988
  698MOL0     C92053   2.327   1.476   2.078 -1.0610 -0.8686 -0.6540
  698MOL0     N92054   2.847   1.127   1.551 -0.1233  0.2947  0.7160
  698MOL0     N92055   2.855   0.998   1.540 -0.2734 -0.6230  0.1888
  698MOL0     C92056   3.770   0.678   1.215  0.3908 -1.2599  0.0155
  698MOL0     C92057   3.892   0.678   1.155  0.1024 -0.8136  0.1337
  698MOL0     C92058   4.304   0.716   0.995 -0.9948 -0.2938  0.0808
  698MOL0     C92059   4.382   0.603   0.976 -0.5758  0.1909  0.4547
  698MOL0     C92060   4.492   0.597   0.882  0.3408  0.6411 -0.0120
  698MOL0     C92061   4.519   0.721   0.817 -0.1364  0.3499 -0.2056
  698MOL0     O92062   4.632   0.729   0.735  0.4214 -0.5281 -0.5705
  698MOL0     C92063   4.722   0.834   0.766  0.1710 -1.1772  0.6249
  698MOL0     C92064   4.867   0.824   0.714  0.2356 -0.5124  0.3686
  698MOL0     C92065   4.919   0.686   0.724 -0.1188  0.8762 -0.2453
  698MOL0     C92066   5.073   0.657   0.695 -0.6308 -0.3345  0.7894
  698MOL0     C92067   5.099   0.654   0.550  0.3738  0.6634 -0.4656
  698MOL0     C92068   5.120   0.653   0.429 -0.1726 -0.5789  0.2708
  698MOL0     C92069   4.436   0.834   0.833 -0.3370  0.4227  0.0451
  698MOL0     C92070   4.319   0.828   0.912 -0.1427  0.9074  0.9959
  698MOL0     H92071   3.965   1.005   1.160  0.3861 -1.0645 -2.4026
  698MOL0     H92072   3.754   0.996   1.315  1.3370 -0.3517  2.2906
  698MOL0     H92073   3.559   0.975   1.434 -0.4724  0.6231 -0.4942
  698MOL0     H92074   3.632   0.856   1.545 -1.8131 -0.6187  1.5595
  698MOL0     H92075   3.355   0.833   1.423 -0.6225  2.6457  2.3826
  698MOL0     H92076   3.392   0.873   1.581 -0.7128  1.8811 -1.3231
  698MOL0     H92077   3.491   0.671   1.649  0.6502 -0.4477 -0.0135
  698MOL0     H92078   3.523   0.616   1.493  1.3826  2.1680  0.5174
  698MOL0     H92079   3.270   0.613   1.451  0.6475  4.2216 -0.5050
  698MOL0     H92080   3.336   0.486   1.557  1.5071  0.1425  2.2986
  698MOL0     H92081   3.283   0.685   1.755 -1.3612 -0.9100  2.4964
  698MOL0     H92082   3.190   0.545   1.717 -0.4569 -0.2372 -0.7353
  698MOL0     H92083   3.054   0.673   1.556  2.9642  0.0849 -1.5359
  698MOL0     H92084   3.149   0.816   1.577  2.6593  0.7574  3.6923
  698MOL0     H92085   3.020   0.691   1.821  0.3775  1.1523  0.6317
  698MOL0     H92086   3.059   0.854   1.808 -3.5592  1.1499  2.5089
  698MOL0     H92087   2.803   0.770   1.770 -0.6926  1.7425  1.1113
  698MOL0     H92088   2.860   0.751   1.603  2.4705  1.3916 -0.8276
  698MOL0     H92089   2.885   1.041   1.869  0.1788  2.4177  0.1596
  698MOL0     H92090   2.903   1.362   1.648  1.3373  1.4496  1.7306
  698MOL0     H92091   2.951   1.302   1.806  1.8931  0.8713 -0.9329
  698MOL0     H92092   2.680   1.291   1.843  0.2635  0.3306  1.5815
  698MOL0     H92093   2.661   1.326   1.679 -0.0277  1.5781 -0.8042
  698MOL0     H92094   2.793   1.497   1.890  0.6001  1.2803 -0.3640
  698MOL0     H92095   2.772   1.538   1.716 -0.9848  1.6752  0.7980
  698MOL0     H92096   2.533   1.510   1.737 -0.2017  1.2068 -1.2362
  698MOL0     H92097   2.590   1.656   1.815 -0.0154  0.0139  0.7996
  698MOL0     H92098   2.361   1.657   1.800 -0.0825  1.8459  1.2632
  698MOL0     H92099   2.131   1.660   1.804  2.2804  2.1010  0.3403
  698MOL0     H92100   1.771   1.306   1.994 -0.5906  0.2356  2.7375
  698MOL0     H92101   1.530   1.274   1.942  1.8474 -1.0222 -0.2876
  698MOL0     H92102   1.300   1.602   1.756  0.8471  0.1157  0.5218
  698MOL0     H92103   1.266   1.599   1.928  3.2894  0.2653  1.6589
  698MOL0     H92104   1.109   1.416   1.902 -0.8045  0.3533 -0.1518
  698MOL0     H92105   1.160   1.416   1.714  2.3378  4.2317 -1.8719
  698MOL0     H92106   1.061   1.607   1.678  2.3253 -2.0088 -1.5669
  698MOL0     H92107   1.021   1.630   1.852  2.3496 -0.1150  1.0502
  698MOL0     H92108   0.923   1.388   1.695 -0.0022  1.6525 -2.6557
  698MOL0     H92109   0.865   1.432   1.848 -0.4561 -2.0171 -0.1658
  698MOL0     H92110   0.719   1.481   1.639  1.6304 -0.4217 -0.8363
  698MOL0     H92111   0.833   1.612   1.607  1.2093 -1.9686  0.0531
  698MOL0     H92112   0.641   1.708   1.707  0.6403  0.2086 -0.9208
  698MOL0     H92113   0.775   1.723   1.819  1.1449 -0.8986  0.3950
  698MOL0     H92114   0.563   1.503   1.847 -3.2510  1.1729  1.8833
  698MOL0     H92115   0.709   1.534   1.948  1.5384  1.5936 -1.0857
  698MOL0     H92116   0.500   1.619   2.045  0.5062 -2.5140 -0.3922
  698MOL0     H92117   0.483   1.730   1.894  1.2207 -0.0203 -1.7769
  698MOL0     H92118   1.511   1.677   1.786  2.2127  0.5131 -2.3748
  698MOL0     H92119   1.727   1.708   1.836 -0.7123 -0.1451  0.3714
  698MOL0     H92120   2.146   1.448   2.181  1.3467 -1.1085  1.1098
  698MOL0     H92121   2.378   1.423   2.158  2.5265  0.6157 -1.7638
  698MOL0     H92122   3.711   0.588   1.232 -1.2222 -0.0436  1.2798
  698MOL0     H92123   3.921   0.575   1.135 -2.2134 -0.9906 -3.1237
  698MOL0     H92124   4.371   0.518   1.043 -2.6370 -1.9698 -2.3605
  698MOL0     H92125   4.567   0.520   0.888 -0.0032  0.3424  0.5055
  698MOL0     H92126   4.721   0.838   0.875  1.7964  0.8181  0.6242
  698MOL0     H92127   4.689   0.927   0.721 -3.1244 -2.0349  1.0535
  698MOL0     H92128   4.875   0.853   0.609  0.0978 -1.5518  0.0600
  698MOL0     H92129   4.939   0.885   0.769 -0.1560  0.7950 -0.5286
  698MOL0     H92130   4.861   0.623   0.656  0.4155 -0.9045  0.8816
  698MOL0     H92131   4.891   0.645   0.822  0.0367 -2.3616 -1.4361
  698MOL0     H92132   5.142   0.732   0.735  0.8571 -1.1106 -0.1885
  698MOL0     H92133   5.099   0.559   0.736  0.7712  0.6708  2.4570
  698MOL0     H92134   5.124   0.656   0.322 -0.7765 -0.3827  0.2453
  698MOL0     H92135   4.455   0.929   0.784 -0.9206  0.4009 -0.2301
  698MOL0     H92136   4.255   0.915   0.917  0.8746  1.8242 -0.8110
  699MOL0     O92137   9.225   9.639   0.140 -0.3585  0.5683  0.4944
  699MOL0     C92138   9.235   9.631   0.014 -0.4821  0.4696 -0.2359
  699MOL0     O92139   9.135   9.632  -0.076  0.0152  0.6535  0.0086
  699MOL0     C92140   9.019   9.689  -0.034  0.0835 -0.2607  0.2549
  699MOL0     C92141   8.901   9.663  -0.109 -0.7414 -0.5774  0.5266
  699MOL0     C92142   8.783   9.735  -0.081 -0.5056  0.0781  0.7630
  699MOL0     C92143   8.766   9.828   0.020  0.1181  0.5685  0.9560
  699MOL0     O92144   8.649   9.888   0.058 -0.4588  0.0164  0.4462
  699MOL0     C92145   8.520   9.819   0.026 -0.5151 -0.3618  0.2086
  699MOL0     C92146   8.414   9.890   0.111  0.1651 -0.4848  0.3607
  699MOL0     C92147   8.276   9.823   0.072 -0.5343 -0.1762  0.2941
  699MOL0     C92148   8.151   9.905   0.133 -0.3650 -0.0127  0.1357
  699MOL0     C92149   8.035   9.849   0.057 -0.1187  0.3353 -0.5889
  699MOL0     C92150   7.996   9.704   0.097  0.3409  0.3753  0.4526
  699MOL0     C92151   7.844   9.681   0.073 -0.7905 -0.1481 -1.2208
  699MOL0     C92152   7.785   9.690  -0.079 -1.6123 -0.6753 -0.1814
  699MOL0     N92153   7.870   9.617  -0.175  0.0671 -0.1186  0.0499
  699MOL0     C92154   7.897   9.647  -0.302  0.5499 -0.0405  0.1404
  699MOL0     C92155   7.932   9.526  -0.363  0.2700  0.2802 -0.2315
  699MOL0     C92156   7.976   9.506  -0.507 -0.6600  0.2835  0.5085
  699MOL0     C92157   8.077   9.623  -0.546  0.2194  0.4456  0.1828
  699MOL0     C92158   8.006   9.739  -0.602 -0.3602 -0.3311 -0.3793
  699MOL0     C92159   8.100   9.855  -0.628 -0.7666  0.0015 -0.6773
  699MOL0     O92160   8.217   9.800  -0.692 -0.5507 -0.2109  0.1999
  699MOL0     C92161   8.333   9.858  -0.657  0.0638 -0.0752 -0.2727
  699MOL0     C92162   8.392   9.955  -0.733  0.0487 -0.7397 -0.2730
  699MOL0     C92163   8.516  10.014  -0.689 -0.2725  1.0504  0.9508
  699MOL0     C92164   8.574   9.984  -0.569 -1.1101  0.2836  0.3617
  699MOL0     C92165   8.712  10.027  -0.523 -0.1772  0.7157 -0.5857
  699MOL0     O92166   8.752   9.993  -0.398  0.2704  0.0741  0.0368
  699MOL0     C92167   8.873  10.034  -0.360 -0.0305 -0.1941 -0.3168
  699MOL0     C92168   8.967   9.940  -0.317 -0.1988 -0.2475 -0.2514
  699MOL0     C92169   9.093   9.993  -0.267  0.5587  0.2475 -0.2394
  699MOL0     C92170   9.121  10.132  -0.246  0.9357 -0.3574  0.7686
  699MOL0     O92171   9.233  10.196  -0.210 -0.1116  0.3990 -0.3621
  699MOL0     C92172   9.357  10.129  -0.220  0.7575  0.3826  0.9348
  699MOL0     C92173   9.455  10.245  -0.230  0.5419  0.0944 -0.4894
  699MOL0     C92174   9.592  10.199  -0.269  0.4200 -0.1034 -0.0910
  699MOL0     C92175   9.618  10.147  -0.408  0.0240 -1.1806  0.5303
  699MOL0     C92176   9.742  10.212  -0.476 -0.2147 -0.5501  0.8841
  699MOL0     C92177   9.785  10.141  -0.605 -0.1395 -0.0994  0.1791
  699MOL0     C92178   9.674  10.107  -0.704  0.1781 -0.9085  1.0796
  699MOL0     C92179   9.636  10.236  -0.786 -0.4739 -0.2009  0.1466
  699MOL0    Cl92180   9.554  10.185  -0.933 -0.6305  0.0720  0.2706
  699MOL0     C92181   9.013  10.220  -0.273  0.2275  0.5646 -0.3012
  699MOL0     C92182   8.896  10.172  -0.334  0.8231  0.8627 -0.6407
  699MOL0     O92183   8.778  10.087  -0.606 -0.0453 -0.5437  0.2575
  699MOL0     C92184   8.495   9.908  -0.477 -1.4874 -1.3647  0.2048
  699MOL0     C92185   8.379   9.851  -0.522  0.1847  0.2838  0.3204
  699MOL0     N92186   7.925   9.428  -0.263 -0.6694 -0.2201  0.0375
  699MOL0     N92187   7.892   9.491  -0.157  0.4174  0.4825  0.8210
  699MOL0     C92188   8.884   9.849   0.087  0.3171 -0.2973  0.3297
  699MOL0     C92189   9.006   9.793   0.057  0.4031 -0.6901 -1.2417
  699MOL0     C92190   9.366   9.629  -0.039  0.4516  0.0084 -0.4083
  699MOL0     C92191   9.395   9.696  -0.162  0.2983  0.5722 -0.2038
  699MOL0     C92192   9.531   9.736  -0.194  0.0169  0.2396  0.2304
  699MOL0     C92193   9.637   9.689  -0.112  0.6744 -0.4103 -0.8400
  699MOL0     O92194   9.769   9.712  -0.143 -0.4429  0.0435  1.3737
  699MOL0     C92195   9.806   9.744  -0.277 -0.0952  0.8469  0.8703
  699MOL0     C92196   9.872   9.892  -0.268  0.3826  0.0196  0.8336
  699MOL0     C92197  10.002   9.917  -0.181  1.0404 -0.2291  0.2853
  699MOL0     C92198  10.061  10.055  -0.184 -0.1115 -0.1380  0.6444
  699MOL0     C92199   9.978  10.142  -0.107  0.4896 -0.0272  0.4029
  699MOL0     C92200   9.905  10.205  -0.036 -0.0770 -1.4730 -0.4781
  699MOL0     C92201   9.605   9.619   0.007  0.3741  0.0937  0.1216
  699MOL0     C92202   9.472   9.586   0.041 -0.1126 -1.1368 -0.1911
  699MOL0     H92203   8.914   9.580  -0.178  1.1074  0.0414  0.0869
  699MOL0     H92204   8.702   9.708  -0.147  0.9069 -0.8389 -0.6651
  699MOL0     H92205   8.539   9.717   0.063  1.3413  0.1202  0.6539
  699MOL0     H92206   8.505   9.809  -0.081  0.7479 -1.4407  0.1013
  699MOL0     H92207   8.421   9.997   0.090  2.8372 -1.0145 -2.0230
  699MOL0     H92208   8.426   9.874   0.219 -2.8512  1.1490  1.0711
  699MOL0     H92209   8.289   9.719   0.102  1.2122  0.0215  0.3822
  699MOL0     H92210   8.285   9.823  -0.037  1.6521 -0.2356  0.4185
  699MOL0     H92211   8.135   9.882   0.239 -1.4315 -0.0989 -0.0390
  699MOL0     H92212   8.166  10.012   0.116  1.3127  0.4147  3.3485
  699MOL0     H92213   8.049   9.861  -0.051  1.6852  2.0379 -0.2158
  699MOL0     H92214   7.952   9.912   0.093  0.2231 -0.3414  1.5431
  699MOL0     H92215   8.014   9.697   0.205  0.8484  1.5389  0.4623
  699MOL0     H92216   8.053   9.634   0.037  0.2250 -1.1942  2.0864
  699MOL0     H92217   7.824   9.581   0.113  3.6981 -0.0084  2.1630
  699MOL0     H92218   7.782   9.756   0.122 -2.9787 -0.8351 -2.8126
  699MOL0     H92219   7.774   9.794  -0.112 -0.9395 -0.3703  0.5039
  699MOL0     H92220   7.683   9.653  -0.077 -1.5942 -0.9144 -2.2184
  699MOL0     H92221   7.885   9.747  -0.343  0.2685 -0.0155  0.2784
  699MOL0     H92222   7.890   9.501  -0.574 -1.4605  0.8341  1.4725
  699MOL0     H92223   8.029   9.410  -0.510  2.6421  1.7960  3.2004
  699MOL0     H92224   8.130   9.581  -0.633 -2.2433  2.7550 -2.6599
  699MOL0     H92225   8.142   9.656  -0.464  1.5471  1.4281 -1.2045
  699MOL0     H92226   7.974   9.705  -0.701 -0.5986 -1.7421  0.1578
  699MOL0     H92227   7.911   9.766  -0.555 -0.7311  1.3375 -1.9846
  699MOL0     H92228   8.132   9.908  -0.538 -2.5988  1.2047 -0.6875
  699MOL0     H92229   8.051   9.928  -0.693 -0.1104 -0.4528 -1.7024
  699MOL0     H92230   8.352   9.990  -0.828  1.9402  2.1677 -0.1409
  699MOL0     H92231   8.578  10.072  -0.757  3.2197 -2.8248  0.3849
  699MOL0     H92232   8.941   9.835  -0.329 -1.2387  0.1799 -2.1495
  699MOL0     H92233   9.173   9.924  -0.238  0.9379  0.6320 -0.3557
  699MOL0     H92234   9.357  10.080  -0.318  1.9974  2.3094 -0.0712
  699MOL0     H92235   9.373  10.058  -0.138 -2.6900 -0.9979  0.5925
  699MOL0     H92236   9.455  10.309  -0.141  0.9144  3.6955 -2.8788
  699MOL0     H92237   9.415  10.309  -0.309  4.2672  1.0281 -1.8057
  699MOL0     H92238   9.626  10.137  -0.185  1.2162  1.2557  0.6198
  699MOL0     H92239   9.632  10.300  -0.259 -0.3100  0.2173 -0.3327
  699MOL0     H92240   9.628  10.038  -0.401 -1.0239 -1.2212  1.6341
  699MOL0     H92241   9.526  10.170  -0.462 -0.0633 -3.1671 -0.2396
  699MOL0     H92242   9.827  10.206  -0.408 -0.0376 -0.8460  0.6425
  699MOL0     H92243   9.718  10.314  -0.509 -0.5974 -0.5205  1.2454
  699MOL0     H92244   9.828  10.045  -0.574 -1.2953 -0.2541  1.4018
  699MOL0     H92245   9.875  10.184  -0.649 -0.3120 -1.8914 -2.1861
  699MOL0     H92246   9.718  10.043  -0.781  0.5390 -1.5320  1.7905
  699MOL0     H92247   9.587  10.065  -0.653 -2.3800 -0.5672 -2.5701
  699MOL0     H92248   9.725  10.296  -0.807  1.2732 -1.8620  2.2023
  699MOL0     H92249   9.564  10.297  -0.732  2.4864  1.5781  2.4202
  699MOL0     H92250   9.024  10.327  -0.261  1.0155  0.4750 -0.2028
  699MOL0     H92251   8.818  10.240  -0.366  0.4333  1.4799  1.4518
  699MOL0     H92252   8.523   9.897  -0.372 -0.0109  1.0538  0.1300
  699MOL0     H92253   8.329   9.780  -0.455 -0.3851  0.8705  0.5250
  699MOL0     H92254   8.877   9.915   0.173 -2.1709  0.9398 -0.7324
  699MOL0     H92255   9.086   9.829   0.121 -0.9005 -0.5893  0.4148
  699MOL0     H92256   9.308   9.734  -0.215 -0.0951  0.3855  0.2982
  699MOL0     H92257   9.550   9.798  -0.281  1.5736 -3.1934 -2.1061
  699MOL0     H92258   9.734   9.749  -0.359  2.3754  1.0821 -1.4222
  699MOL0     H92259   9.879   9.674  -0.319  0.1491  1.8249 -0.3785
  699MOL0     H92260   9.889   9.921  -0.372 -0.9956  0.9240  0.8289
  699MOL0     H92261   9.799   9.953  -0.214 -0.3350  0.1195 -0.2290
  699MOL0     H92262  10.078   9.849  -0.220 -0.2017 -0.7622 -1.2839
  699MOL0     H92263   9.968   9.896  -0.079  2.7195 -1.7636  0.5809
  699MOL0     H92264  10.164  10.055  -0.146 -1.1395 -2.6831  3.9132
  699MOL0     H92265  10.066  10.091  -0.287 -1.3756 -1.0021  0.2644
  699MOL0     H92266   9.839  10.264   0.024  0.0597  0.4863 -2.1387
  699MOL0     H92267   9.693   9.592   0.064  1.0919  1.8342 -0.0826
  699MOL0     H92268   9.450   9.538   0.135 -3.5386  0.9960  0.2881
  700MOL0     O92269   3.030   2.361   2.225  1.2983 -0.6264  0.1265
  700MOL0     C92270   3.143   2.366   2.171  0.1346 -0.0158  0.6240
  700MOL0     O92271   3.157   2.384   2.036 -0.0335 -0.1153 -0.0801
  700MOL0     C92272   3.048   2.406   1.954 -0.7273  0.7003  0.2313
  700MOL0     C92273   3.006   2.537   1.941  0.3524 -0.6062  0.0366
  700MOL0     C92274   2.904   2.570   1.865  1.2030  0.0335 -0.0609
  700MOL0     C92275   2.819   2.469   1.806 -0.1735  0.9537  0.3391
  700MOL0     O92276   2.708   2.488   1.732 -0.2891 -0.4134  0.3909
  700MOL0     C92277   2.680   2.623   1.686  0.0311  0.2906  0.0031
  700MOL0     C92278   2.579   2.691   1.776 -0.3978 -0.0546 -0.3661
  700MOL0     C92279   2.450   2.604   1.793 -0.6558 -0.4612  0.4593
  700MOL0     C92280   2.366   2.685   1.882  0.4337 -0.0248 -0.7323
  700MOL0     C92281   2.237   2.604   1.917 -0.1844 -0.5460 -0.3089
  700MOL0     C92282   2.148   2.566   1.800 -1.0626  0.0092  0.5877
  700MOL0     C92283   2.020   2.496   1.841 -0.6003 -1.1154 -0.2445
  700MOL0     C92284   1.915   2.507   1.740  1.2419  0.1182 -0.9554
  700MOL0     N92285   1.785   2.492   1.799  0.7822 -0.0343  0.4308
  700MOL0     C92286   1.734   2.369   1.854 -0.2407 -0.3599  0.6573
  700MOL0     C92287   1.605   2.402   1.883 -0.5137  0.1929 -0.0688
  700MOL0     C92288   1.510   2.301   1.945  0.2342  0.0458 -0.0032
  700MOL0     C92289   1.431   2.363   2.068  0.8212  1.1391  0.4390
  700MOL0     C92290   1.358   2.258   2.149 -0.5976 -0.5816  0.5798
  700MOL0     C92291   1.305   2.321   2.279  0.4468 -0.2474  0.4770
  700MOL0     O92292   1.202   2.423   2.241 -0.4722  0.3336 -0.0381
  700MOL0     C92293   1.120   2.453   2.343  0.8433  0.1259  1.0171
  700MOL0     C92294   0.988   2.482   2.307 -0.4337  0.0727  0.4918
  700MOL0     C92295   0.904   2.535   2.407 -0.4319  0.6444 -0.0932
  700MOL0     C92296   0.940   2.550   2.538 -0.1524  0.0075 -0.4879
  700MOL0     C92297   0.855   2.607   2.644  0.4424 -0.9609  0.1095
  700MOL0     O92298   0.725   2.637   2.605 -0.4227  0.1529 -0.9165
  700MOL0     C92299   0.630   2.664   2.707 -0.4297 -0.3550  0.0491
  700MOL0     C92300   0.649   2.753   2.816  0.0207 -0.4699  0.7557
  700MOL0     C92301   0.542   2.766   2.913 -1.0188  0.0632 -0.0040
  700MOL0     C92302   0.422   2.696   2.905 -0.0194  0.0787 -0.0216
  700MOL0     O92303   0.329   2.704   3.001  0.6774  0.5006  0.3531
  700MOL0     C92304   0.192   2.727   2.968  0.5726 -0.4161  0.0610
  700MOL0     C92305   0.099   2.665   3.071  0.9564 -0.5201  0.0757
  700MOL0     C92306  -0.048   2.646   3.028 -0.0456  0.0740 -1.3399
  700MOL0     C92307  -0.143   2.767   3.022 -0.0421 -0.3876 -0.3487
  700MOL0     C92308  -0.303   2.750   3.022 -0.5854  0.0772  0.5111
  700MOL0     C92309  -0.373   2.882   3.034  1.7536 -0.1657 -0.6788
  700MOL0     C92310  -0.521   2.852   3.027 -0.5739  0.2856 -0.6182
  700MOL0     C92311  -0.606   2.980   3.022 -0.0123  0.6251 -0.4346
  700MOL0    Cl92312  -0.580   3.090   3.170 -0.0609  0.4493 -0.2174
  700MOL0     C92313   0.408   2.596   2.803 -0.5260  0.3355  0.2921
  700MOL0     C92314   0.512   2.585   2.710 -0.2017 -0.2355  0.5848
  700MOL0     O92315   0.912   2.638   2.750  0.8113  0.1077 -0.3956
  700MOL0     C92316   1.080   2.523   2.558  0.4390  0.0165  0.1745
  700MOL0     C92317   1.166   2.470   2.468 -0.0539  0.2033  0.1312
  700MOL0     N92318   1.588   2.542   1.866  0.2813 -0.2715 -0.0358
  700MOL0     N92319   1.694   2.591   1.812  0.5768 -0.6588  0.1157
  700MOL0     C92320   2.856   2.332   1.817  0.1345 -0.1791  0.1965
  700MOL0     C92321   2.971   2.300   1.896  0.0646 -0.4681  0.3168
  700MOL0     C92322   3.260   2.360   2.255 -0.1913  0.2764  0.8272
  700MOL0     C92323   3.396   2.349   2.215  0.3261 -0.2385  0.0494
  700MOL0     C92324   3.506   2.342   2.302 -0.5022 -0.3041  1.4499
  700MOL0     C92325   3.482   2.353   2.436  1.2848 -0.5580 -0.3784
  700MOL0     O92326   3.592   2.344   2.525 -0.4645  0.0305  0.1825
  700MOL0     C92327   3.574   2.352   2.669 -0.9195 -0.0544  0.0029
  700MOL0     C92328   3.715   2.343   2.736  0.4133  0.3312 -0.0991
  700MOL0     C92329   3.723   2.388   2.886 -0.5994  0.0033  0.0315
  700MOL0     C92330   3.613   2.326   2.969  0.0043 -1.0700 -0.3386
  700MOL0     C92331   3.477   2.382   2.960  0.3587  0.2411 -0.6694
  700MOL0     C92332   3.363   2.435   2.953  0.9903 -0.5628  0.3340
  700MOL0     C92333   3.355   2.384   2.482 -0.3178  1.0016  0.5292
  700MOL0     C92334   3.243   2.385   2.399 -0.8085  0.9393  0.3442
  700MOL0     H92335   3.061   2.612   1.997 -0.9343 -1.3708  2.4467
  700MOL0     H92336   2.874   2.674   1.868 -2.1385 -0.8157  1.7813
  700MOL0     H92337   2.625   2.615   1.592 -1.1621  0.3942  0.6700
  700MOL0     H92338   2.777   2.671   1.676  0.4430 -0.9668 -3.0308
  700MOL0     H92339   2.555   2.790   1.737 -1.7343 -0.2377 -0.0623
  700MOL0     H92340   2.627   2.708   1.873  3.3679 -1.9165 -1.6839
  700MOL0     H92341   2.469   2.506   1.839  1.0508 -0.3597  0.0331
  700MOL0     H92342   2.398   2.583   1.699  0.9863 -3.2098  0.0433
  700MOL0     H92343   2.413   2.702   1.979 -1.8433  1.2506  0.2405
  700MOL0     H92344   2.342   2.783   1.841 -2.7416  0.3033  1.5390
  700MOL0     H92345   2.190   2.658   2.000  1.7310 -1.5259  1.4815
  700MOL0     H92346   2.280   2.513   1.959 -0.2441 -0.4471 -0.0317
  700MOL0     H92347   2.195   2.495   1.732 -0.2691  0.6267  0.4792
  700MOL0     H92348   2.127   2.652   1.737  1.5331  0.0225 -0.3573
  700MOL0     H92349   2.024   2.388   1.856 -1.1928 -1.1894 -0.5889
  700MOL0     H92350   1.986   2.527   1.941  0.7148 -1.6225  0.3834
  700MOL0     H92351   1.936   2.425   1.670  2.6765  0.4922 -0.9886
  700MOL0     H92352   1.921   2.608   1.697 -0.2321  0.9450  0.6466
  700MOL0     H92353   1.774   2.268   1.852 -0.6383 -0.5428  1.5989
  700MOL0     H92354   1.576   2.230   1.995 -0.8409 -1.7783 -1.0728
  700MOL0     H92355   1.437   2.256   1.878 -3.8400  1.9647  2.7684
  700MOL0     H92356   1.361   2.442   2.038  0.4137  1.6570  2.6024
  700MOL0     H92357   1.499   2.411   2.139  2.0771 -1.4991  1.1533
  700MOL0     H92358   1.263   2.222   2.109 -1.2559 -0.4314  1.9669
  700MOL0     H92359   1.424   2.173   2.169  0.3592  0.2738  1.1833
  700MOL0     H92360   1.387   2.365   2.335 -0.3906 -1.7366  3.0144
  700MOL0     H92361   1.265   2.242   2.343 -0.1875 -0.0935  0.2825
  700MOL0     H92362   0.977   2.464   2.201  2.3428 -1.1158  0.3373
  700MOL0     H92363   0.800   2.548   2.377  0.4316  0.5541 -3.5447
  700MOL0     H92364   0.743   2.799   2.847  0.3755 -1.6960  1.5613
  700MOL0     H92365   0.566   2.820   3.004  2.0834 -0.7636 -0.2178
  700MOL0     H92366   0.171   2.688   2.868  0.0972 -2.1288  0.8096
  700MOL0     H92367   0.174   2.835   2.961 -1.7057 -0.6607  1.2874
  700MOL0     H92368   0.082   2.725   3.161 -1.3865  0.7698 -1.1436
  700MOL0     H92369   0.143   2.571   3.105  0.6675 -1.6158 -2.3874
  700MOL0     H92370  -0.097   2.577   3.098 -0.4491  0.4399 -1.2620
  700MOL0     H92371  -0.046   2.573   2.947  3.7055 -3.0012  1.1169
  700MOL0     H92372  -0.105   2.834   3.099  3.6406 -1.8372 -0.7093
  700MOL0     H92373  -0.117   2.818   2.929  0.5939 -2.8791 -1.6239
  700MOL0     H92374  -0.326   2.685   3.107  1.2403 -1.2101  0.0700
  700MOL0     H92375  -0.342   2.713   2.927  0.4394  1.0482 -0.3179
  700MOL0     H92376  -0.351   2.955   2.955 -1.8868 -2.1090 -3.8190
  700MOL0     H92377  -0.341   2.911   3.134  0.4990 -4.4636  1.1860
  700MOL0     H92378  -0.553   2.784   2.948 -1.2889 -0.2743  0.1395
  700MOL0     H92379  -0.537   2.789   3.115 -1.1974 -1.1039 -1.6982
  700MOL0     H92380  -0.707   2.937   3.023  0.4121 -0.3808 -0.2764
  700MOL0     H92381  -0.597   3.035   2.928  0.7194 -0.6738 -1.1481
  700MOL0     H92382   0.324   2.529   2.790  0.3549 -0.6382 -0.5588
  700MOL0     H92383   0.504   2.515   2.628 -2.4204 -0.2055  0.7184
  700MOL0     H92384   1.134   2.546   2.650  0.8411  4.3063 -0.8837
  700MOL0     H92385   1.267   2.454   2.507 -0.3957 -0.1164  0.9127
  700MOL0     H92386   2.806   2.250   1.767  0.0989  0.0273 -0.1117
  700MOL0     H92387   3.002   2.199   1.921  0.6897 -0.4853 -0.4925
  700MOL0     H92388   3.410   2.330   2.109 -1.1065 -1.9669  0.1176
  700MOL0     H92389   3.603   2.312   2.262 -0.2998 -0.0689  1.7666
  700MOL0     H92390   3.508   2.269   2.696 -0.9074  0.0128  0.2413
  700MOL0     H92391   3.524   2.444   2.700 -0.9674  0.6070 -1.8954
  700MOL0     H92392   3.754   2.241   2.725  1.8025  0.9162 -0.8753
  700MOL0     H92393   3.778   2.410   2.678 -1.7184  2.4235 -0.1351
  700MOL0     H92394   3.712   2.496   2.898  2.9731  0.2558  2.8796
  700MOL0     H92395   3.818   2.358   2.930  0.4170  1.8062 -0.8242
  700MOL0     H92396   3.620   2.221   2.939 -0.1568 -0.7262 -1.6807
  700MOL0     H92397   3.640   2.346   3.073  0.3141 -0.1055 -0.5972
  700MOL0     H92398   3.268   2.480   2.937  1.1136 -0.2803  0.3974
  700MOL0     H92399   3.334   2.405   2.587 -2.9592  1.3939 -0.0146
  700MOL0     H92400   3.144   2.409   2.436 -0.9820  0.6238  0.0989
  701MOL0     O92401   2.840   0.147   9.074  0.0059  0.8287 -0.2261
  701MOL0     C92402   2.960   0.144   9.060  0.3353 -0.5589 -0.8234
  701MOL0     O92403   3.025   0.104   8.943  0.4971  0.1846  0.4911
  701MOL0     C92404   2.951   0.072   8.836  0.6022  0.5128 -0.6882
  701MOL0     C92405   2.998  -0.035   8.772 -0.3226 -0.5593  0.4753
  701MOL0     C92406   2.935  -0.073   8.650  0.2750  0.9519 -0.5097
  701MOL0     C92407   2.814  -0.021   8.613 -0.6167  0.3803 -0.4572
  701MOL0     O92408   2.754  -0.065   8.497 -0.4480 -0.6018  0.0742
  701MOL0     C92409   2.626  -0.123   8.512  0.4299 -0.1686 -0.0590
  701MOL0     C92410   2.607  -0.262   8.465  1.1095  0.3241  0.1214
  701MOL0     C92411   2.464  -0.295   8.413 -0.2327 -0.2541 -0.6239
  701MOL0     C92412   2.459  -0.438   8.346 -0.3774 -0.0836 -0.4372
  701MOL0     C92413   2.323  -0.508   8.347 -0.5958  0.4448 -0.3659
  701MOL0     C92414   2.223  -0.441   8.258  0.0916  0.5888  0.3244
  701MOL0     C92415   2.089  -0.516   8.259  0.3787  0.5447  0.3264
  701MOL0     C92416   1.997  -0.462   8.149  0.6981  0.4008  0.4964
  701MOL0     N92417   1.879  -0.547   8.121  0.3771 -0.0823 -0.1762
  701MOL0     C92418   1.830  -0.565   7.988  0.2065 -0.6053 -0.1149
  701MOL0     C92419   1.707  -0.613   8.001  0.4524  0.9098  0.2951
  701MOL0     C92420   1.605  -0.634   7.888  0.8616 -0.0435 -0.3629
  701MOL0     C92421   1.538  -0.773   7.894  0.5391 -0.6779  0.0783
  701MOL0     C92422   1.475  -0.826   7.767 -0.1073  0.3005 -0.1381
  701MOL0     C92423   1.361  -0.920   7.776  0.5883  0.3378  0.0761
  701MOL0     O92424   1.400  -1.028   7.862 -0.7687  0.3790  0.0697
  701MOL0     C92425   1.297  -1.120   7.896 -0.2900 -1.0787 -0.2748
  701MOL0     C92426   1.161  -1.088   7.886 -0.2735  0.2376  0.6243
  701MOL0     C92427   1.067  -1.183   7.933 -0.4562  0.1099 -0.7328
  701MOL0     C92428   1.106  -1.300   8.003 -0.3393  0.2506 -0.9998
  701MOL0     C92429   1.007  -1.407   8.059  0.2293 -0.4667  0.0974
  701MOL0     O92430   1.064  -1.516   8.121  0.0363  0.3638  1.4348
  701MOL0     C92431   0.974  -1.614   8.155  0.7142 -0.5473  0.4632
  701MOL0     C92432   0.891  -1.677   8.058 -0.3858  0.5408  0.6409
  701MOL0     C92433   0.795  -1.766   8.093 -0.1778  0.0104 -0.7807
  701MOL0     C92434   0.756  -1.789   8.226 -0.4087 -0.3925  0.3771
  701MOL0     O92435   0.661  -1.882   8.247 -0.1885 -0.0563  0.3071
  701MOL0     C92436   0.598  -1.892   8.378  0.0771  0.3240  0.6286
  701MOL0     C92437   0.480  -1.986   8.376 -0.2974  0.7949 -0.1819
  701MOL0     C92438   0.385  -1.925   8.266  0.5817  0.2124  0.2408
  701MOL0     C92439   0.256  -2.012   8.278 -0.8917  0.6717  0.5071
  701MOL0     C92440   0.166  -1.986   8.160  0.1821 -0.6338 -0.3524
  701MOL0     C92441   0.030  -2.053   8.164 -0.8435 -0.2531 -0.9428
  701MOL0     C92442  -0.032  -2.064   8.024  0.0162  0.3369 -0.9743
  701MOL0     C92443  -0.169  -2.136   8.035  0.3083 -0.8117  0.8057
  701MOL0    Cl92444  -0.210  -2.186   7.870 -0.1805  0.0581  0.3254
  701MOL0     C92445   0.836  -1.732   8.326  0.3542 -0.5301 -0.3594
  701MOL0     C92446   0.953  -1.648   8.291  0.1636 -0.0249 -0.2787
  701MOL0     O92447   0.885  -1.385   8.040  0.0039  0.1228 -1.1704
  701MOL0     C92448   1.241  -1.321   8.007  0.8560  0.2990  0.4116
  701MOL0     C92449   1.337  -1.236   7.952 -0.2361  0.4172 -1.0260
  701MOL0     N92450   1.683  -0.633   8.137 -0.8289  0.3745 -0.5091
  701MOL0     N92451   1.787  -0.600   8.207  0.2908  0.4175  0.3714
  701MOL0     C92452   2.763   0.086   8.682  0.9912  0.3257 -0.3175
  701MOL0     C92453   2.836   0.140   8.793 -1.3123  0.3468  0.4017
  701MOL0     C92454   3.036   0.189   9.182 -0.0189  0.8062 -0.5545
  701MOL0     C92455   3.169   0.205   9.183 -0.4808  0.0076  0.3163
  701MOL0     C92456   3.245   0.262   9.293  0.2189  0.0014  0.3663
  701MOL0     C92457   3.172   0.296   9.407  0.1274  0.0312  0.4368
  701MOL0     O92458   3.256   0.354   9.496 -0.7442  0.8557  0.3384
  701MOL0     C92459   3.255   0.296   9.621  0.3729 -0.6829 -0.8899
  701MOL0     C92460   3.399   0.283   9.677  0.2341  0.6654  0.5456
  701MOL0     C92461   3.400   0.243   9.826 -0.1608  0.2364  0.6891
  701MOL0     C92462   3.537   0.175   9.855  0.4436  0.1494 -1.0892
  701MOL0     C92463   3.535   0.027   9.852  0.1015  0.2856 -0.0983
  701MOL0     C92464   3.512  -0.095   9.847 -0.0450  0.1101 -0.9474
  701MOL0     C92465   3.033   0.278   9.410 -0.3684 -0.0383 -0.0622
  701MOL0     C92466   2.963   0.223   9.299 -0.5178 -1.1974  0.3580
  701MOL0     H92467   3.092  -0.084   8.795 -0.4935 -0.9909  0.2699
  701MOL0     H92468   2.970  -0.153   8.586 -1.5152 -1.3482  1.2140
  701MOL0     H92469   2.547  -0.064   8.464 -1.4702 -1.3025  1.5135
  701MOL0     H92470   2.596  -0.131   8.617 -0.1225 -1.4665 -0.2894
  701MOL0     H92471   2.639  -0.331   8.543 -0.5347 -1.7411 -0.9096
  701MOL0     H92472   2.679  -0.275   8.384  1.3589  0.5485  0.3080
  701MOL0     H92473   2.431  -0.219   8.341 -0.8939  0.2943  0.2410
  701MOL0     H92474   2.398  -0.297   8.500 -0.8150  1.1176 -1.0034
  701MOL0     H92475   2.504  -0.419   8.248  1.3253 -0.3339  0.2600
  701MOL0     H92476   2.534  -0.494   8.402  0.6468  2.5153  0.9330
  701MOL0     H92477   2.291  -0.494   8.451 -0.7673 -0.2644 -0.3195
  701MOL0     H92478   2.326  -0.617   8.338 -2.0749  0.2082  1.4180
  701MOL0     H92479   2.271  -0.440   8.159  2.5617  2.1601  1.4430
  701MOL0     H92480   2.213  -0.335   8.282  1.4104  0.9061 -0.3805
  701MOL0     H92481   2.104  -0.621   8.233 -0.6135  0.3675  0.4173
  701MOL0     H92482   2.048  -0.522   8.360 -0.2178  0.8713  0.1089
  701MOL0     H92483   2.047  -0.445   8.053 -0.2063 -0.3095 -0.1175
  701MOL0     H92484   1.955  -0.364   8.174 -3.1352 -0.2607 -2.4873
  701MOL0     H92485   1.877  -0.542   7.893 -0.7122 -1.1908 -0.7377
  701MOL0     H92486   1.651  -0.631   7.788 -2.6472 -1.3919 -2.2094
  701MOL0     H92487   1.529  -0.556   7.897 -0.0967 -0.3816 -3.8267
  701MOL0     H92488   1.460  -0.775   7.971 -0.6561  1.1896 -0.9842
  701MOL0     H92489   1.623  -0.832   7.929  1.2502  0.6919  0.7736
  701MOL0     H92490   1.446  -0.746   7.698 -1.3734 -1.9416 -2.3348
  701MOL0     H92491   1.562  -0.872   7.719  0.7221  1.7342 -0.0790
  701MOL0     H92492   1.342  -0.956   7.675 -0.7276 -2.3079  1.1609
  701MOL0     H92493   1.268  -0.874   7.811  0.6586  1.6692 -1.3566
  701MOL0     H92494   1.115  -0.997   7.847  0.7718  1.3676  1.9673
  701MOL0     H92495   0.961  -1.163   7.921 -0.9620 -0.9723  1.3608
  701MOL0     H92496   0.893  -1.650   7.953  0.5254 -4.1740 -0.8019
  701MOL0     H92497   0.731  -1.818   8.023  1.2459 -4.2695  0.7943
  701MOL0     H92498   0.564  -1.793   8.409  0.2076  0.6137 -0.1364
  701MOL0     H92499   0.673  -1.928   8.449  0.2927  2.6524  1.6848
  701MOL0     H92500   0.434  -1.981   8.475 -0.0854  0.6230 -0.0737
  701MOL0     H92501   0.510  -2.089   8.354 -2.9604 -0.1596  0.3354
  701MOL0     H92502   0.427  -1.945   8.167 -1.5514 -1.8675 -0.3510
  701MOL0     H92503   0.347  -1.824   8.287  1.3842  0.4932  0.3799
  701MOL0     H92504   0.291  -2.116   8.282  1.5495  1.2725 -1.8711
  701MOL0     H92505   0.204  -1.992   8.372  0.6284  0.1467  1.4980
  701MOL0     H92506   0.215  -2.025   8.071 -1.7264 -2.2950 -0.7560
  701MOL0     H92507   0.153  -1.878   8.149  2.3077 -0.5160 -2.3846
  701MOL0     H92508  -0.030  -1.985   8.224 -0.4578  0.0374 -0.8870
  701MOL0     H92509   0.037  -2.149   8.215 -2.1483  1.6062  3.1483
  701MOL0     H92510  -0.044  -1.967   7.976  1.5794 -0.0461 -2.2297
  701MOL0     H92511   0.028  -2.139   7.971  1.5594 -1.7011  3.1759
  701MOL0     H92512  -0.244  -2.067   8.075  0.5361 -0.2153  0.2131
  701MOL0     H92513  -0.155  -2.215   8.109  2.0119 -0.7001  0.6538
  701MOL0     H92514   0.807  -1.745   8.430 -0.5688 -2.4016 -0.8072
  701MOL0     H92515   1.011  -1.592   8.363  0.9111  1.3033 -1.8412
  701MOL0     H92516   1.280  -1.412   8.050 -3.2760 -0.0540  4.0457
  701MOL0     H92517   1.442  -1.264   7.956 -0.6343 -1.3358 -1.7985
  701MOL0     H92518   2.672   0.128   8.640  0.0657  0.7982  1.9907
  701MOL0     H92519   2.803   0.224   8.853 -1.2442  0.0911  0.8039
  701MOL0     H92520   3.222   0.177   9.092  0.4228  2.1481  0.1189
  701MOL0     H92521   3.351   0.286   9.289  1.0056 -3.0909 -0.9209
  701MOL0     H92522   3.207   0.198   9.613 -1.7032  0.2997 -1.1352
  701MOL0     H92523   3.191   0.354   9.687 -1.8992 -3.7743 -0.1543
  701MOL0     H92524   3.445   0.207   9.612 -1.3286 -1.1279  1.4139
  701MOL0     H92525   3.455   0.376   9.667 -1.6410  1.8716  0.6432
  701MOL0     H92526   3.315   0.179   9.851 -0.2882  0.6535  1.3387
  701MOL0     H92527   3.384   0.333   9.885 -0.1668  0.7176 -0.0299
  701MOL0     H92528   3.610   0.216   9.784  0.9251  2.8427  0.8335
  701MOL0     H92529   3.565   0.211   9.954  0.3430  0.4757 -1.1784
  701MOL0     H92530   3.498  -0.201   9.847  1.3567 -0.1397  1.2993
  701MOL0     H92531   2.981   0.322   9.494  1.8855  1.4293  0.6698
  701MOL0     H92532   2.855   0.213   9.302 -0.9639  2.4938  1.6397
  702MOL0     O92533   6.385   1.081   2.540 -0.5286 -0.2668 -0.8352
  702MOL0     C92534   6.441   1.130   2.638 -0.3700 -0.2291 -0.6757
  702MOL0     O92535   6.380   1.153   2.756  0.8364 -1.5961  0.1410
  702MOL0     C92536   6.249   1.132   2.776 -0.2667 -0.5347 -0.0825
  702MOL0     C92537   6.149   1.156   2.676  0.0627  0.3798 -0.5161
  702MOL0     C92538   6.014   1.125   2.712  0.6209 -0.1701  0.4554
  702MOL0     C92539   5.980   1.081   2.844  0.0392 -0.7275  0.3139
  702MOL0     O92540   5.844   1.062   2.863  0.0594 -0.9157  0.2017
  702MOL0     C92541   5.797   1.015   2.992 -0.2767  0.1596 -1.2168
  702MOL0     C92542   5.641   1.010   2.984  0.7060  0.3663 -0.3719
  702MOL0     C92543   5.582   0.950   3.107  0.7296  0.5372 -0.6899
  702MOL0     C92544   5.426   0.971   3.118  0.8578  0.1659  0.0337
  702MOL0     C92545   5.364   0.921   3.251 -0.5569  0.0058 -0.1349
  702MOL0     C92546   5.211   0.900   3.234 -0.5940 -0.5306  0.3930
  702MOL0     C92547   5.140   0.929   3.355 -0.7094  1.5217  0.2587
  702MOL0     C92548   4.983   0.903   3.326 -0.9312 -0.1646 -0.9350
  702MOL0     N92549   4.910   0.932   3.450  0.2223 -0.4040 -0.2450
  702MOL0     C92550   4.768   0.939   3.453 -0.1534  0.6001  0.3930
  702MOL0     C92551   4.739   0.969   3.583 -0.4065  0.9561  0.1840
  702MOL0     C92552   4.597   0.997   3.634  0.9755  1.2160  0.3502
  702MOL0     C92553   4.585   0.984   3.786  0.8988 -0.1390 -0.4350
  702MOL0     C92554   4.443   1.028   3.830  0.2385  0.5893 -0.6776
  702MOL0     C92555   4.421   0.992   3.977 -0.5436 -0.2227  0.1303
  702MOL0     O92556   4.343   0.870   3.989 -0.4442  0.1322  0.3862
  702MOL0     C92557   4.209   0.869   3.964  0.1385 -0.1451 -0.6361
  702MOL0     C92558   4.143   0.983   3.911  1.3768  0.3226  0.0069
  702MOL0     C92559   4.002   0.970   3.886 -0.5518 -0.8030 -1.0845
  702MOL0     C92560   3.941   0.851   3.907  0.7335 -0.9888 -0.8525
  702MOL0     C92561   3.799   0.839   3.881 -0.4589  1.4682  0.6101
  702MOL0     O92562   3.733   0.721   3.905  0.6823  0.5005 -0.0177
  702MOL0     C92563   3.599   0.704   3.883  0.1446  0.4153 -0.6175
  702MOL0     C92564   3.512   0.753   3.973  0.4304 -0.5013 -0.3228
  702MOL0     C92565   3.372   0.737   3.956 -0.7752  0.4504  0.2841
  702MOL0     C92566   3.322   0.677   3.835  0.3095  0.2504 -0.5120
  702MOL0     O92567   3.186   0.691   3.821 -0.4584  0.4870  0.1376
  702MOL0     C92568   3.123   0.606   3.717 -0.3347 -0.0355 -0.0889
  702MOL0     C92569   2.969   0.609   3.747 -0.2343 -0.1145  0.5520
  702MOL0     C92570   2.914   0.742   3.783 -0.9057 -0.1388 -0.3839
  702MOL0     C92571   2.762   0.727   3.805  0.8000  0.3836  0.1503
  702MOL0     C92572   2.701   0.865   3.804  0.3813  0.5116  0.9089
  702MOL0     C92573   2.553   0.858   3.817  0.2789 -0.0261  0.6414
  702MOL0     C92574   2.493   0.991   3.796  0.5871 -0.1238 -0.4741
  702MOL0     C92575   2.543   1.100   3.894 -0.3169 -0.1427  0.4053
  702MOL0    Cl92576   2.419   1.232   3.880  0.2712  0.0748 -0.2336
  702MOL0     C92577   3.410   0.632   3.742 -0.0097 -0.3546 -0.1623
  702MOL0     C92578   3.555   0.636   3.760 -0.3578 -0.4519 -0.8801
  702MOL0     O92579   3.741   0.944   3.857 -0.3274 -0.3429  0.1462
  702MOL0     C92580   4.003   0.750   3.970 -0.3728  0.8058  0.3055
  702MOL0     C92581   4.138   0.754   4.003 -0.4926  0.2097  0.8223
  702MOL0     N92582   4.864   0.975   3.649 -0.2653 -0.8916 -0.3251
  702MOL0     N92583   4.963   0.952   3.569 -0.1028 -0.2773 -0.1079
  702MOL0     C92584   6.076   1.076   2.946 -0.9269  0.1588 -0.4839
  702MOL0     C92585   6.215   1.100   2.911  0.1893 -0.1533 -0.2040
  702MOL0     C92586   6.579   1.172   2.620  0.1080  0.7251 -0.3811
  702MOL0     C92587   6.656   1.246   2.714 -0.1698  1.1178 -0.0056
  702MOL0     C92588   6.788   1.269   2.695  0.0413  0.0729  0.0973
  702MOL0     C92589   6.857   1.217   2.586 -0.2448  0.0349  0.3046
  702MOL0     O92590   6.989   1.261   2.573 -0.0976 -0.0427 -0.2900
  702MOL0     C92591   7.071   1.185   2.477  0.5443  0.4883 -0.2300
  702MOL0     C92592   7.222   1.195   2.510  0.1655 -0.9900 -0.3816
  702MOL0     C92593   7.259   1.137   2.647 -0.1049 -0.7349 -0.2687
  702MOL0     C92594   7.172   1.017   2.677 -0.1618  0.6080 -0.6894
  702MOL0     C92595   7.214   0.972   2.809 -0.1195 -0.5646  0.1990
  702MOL0     C92596   7.231   0.934   2.922  0.6945  0.7482  0.3645
  702MOL0     C92597   6.790   1.144   2.491 -0.4874 -0.1074  0.3496
  702MOL0     C92598   6.658   1.128   2.506  0.0589 -0.2491  0.1562
  702MOL0     H92599   6.186   1.198   2.583  2.4724  0.3007  0.3440
  702MOL0     H92600   5.926   1.142   2.650 -0.8605  1.0610  2.7598
  702MOL0     H92601   5.826   1.084   3.072 -0.0156 -2.2937  0.9010
  702MOL0     H92602   5.834   0.914   3.006 -1.3734  0.0704  1.5466
  702MOL0     H92603   5.621   0.950   2.895 -0.8295  0.3949 -0.0822
  702MOL0     H92604   5.601   1.111   2.970 -1.1574 -0.4762 -1.5250
  702MOL0     H92605   5.625   0.983   3.202  0.7512  1.1797 -0.9175
  702MOL0     H92606   5.607   0.844   3.113  0.3408  0.5158  3.3172
  702MOL0     H92607   5.406   1.078   3.107  0.0868  0.2453  1.8423
  702MOL0     H92608   5.387   0.922   3.029  1.5565 -1.5315  0.6207
  702MOL0     H92609   5.395   0.991   3.330 -2.0728  1.2615 -0.5935
  702MOL0     H92610   5.408   0.825   3.277 -0.4197 -0.0848 -0.6947
  702MOL0     H92611   5.197   0.793   3.211 -3.8761 -0.3710  1.2754
  702MOL0     H92612   5.176   0.951   3.144  1.0556  2.1202  1.1264
  702MOL0     H92613   5.184   0.870   3.435 -0.8865  0.2223 -0.5695
  702MOL0     H92614   5.150   1.032   3.388 -1.7110  2.3530 -1.8032
  702MOL0     H92615   4.968   0.799   3.295 -2.4021  0.1542 -1.3946
  702MOL0     H92616   4.944   0.952   3.237  1.2894 -0.0503 -1.9075
  702MOL0     H92617   4.695   0.923   3.374 -1.4797 -0.4938  1.7838
  702MOL0     H92618   4.526   0.923   3.594  1.4258  1.6925 -1.4321
  702MOL0     H92619   4.558   1.093   3.599 -2.2344 -0.5742 -1.4363
  702MOL0     H92620   4.655   1.050   3.839  0.5334  0.4896 -0.7237
  702MOL0     H92621   4.595   0.879   3.814 -0.9375 -0.8758 -2.3504
  702MOL0     H92622   4.424   1.136   3.819 -4.9727  0.0637  0.4584
  702MOL0     H92623   4.364   0.982   3.769 -0.2531 -2.1575  1.8489
  702MOL0     H92624   4.362   1.074   4.018 -0.9794 -0.5777  0.2171
  702MOL0     H92625   4.514   0.994   4.034 -1.0452  1.1305  0.9345
  702MOL0     H92626   4.182   1.082   3.891 -0.0936  0.7329 -1.0154
  702MOL0     H92627   3.938   1.054   3.861 -0.9691  0.0861  2.4298
  702MOL0     H92628   3.552   0.816   4.052 -0.2467  1.0722 -1.2003
  702MOL0     H92629   3.298   0.780   4.024 -3.6896 -1.8799 -1.2102
  702MOL0     H92630   3.170   0.507   3.722  0.8920  0.3183 -2.6840
  702MOL0     H92631   3.147   0.658   3.624 -1.6461  1.7130  0.5028
  702MOL0     H92632   2.933   0.533   3.818  0.8875 -1.6940 -0.4783
  702MOL0     H92633   2.919   0.579   3.655  0.6922  0.1487 -0.0454
  702MOL0     H92634   2.941   0.814   3.706  1.4733  0.3904  0.8482
  702MOL0     H92635   2.944   0.783   3.880 -0.6903 -2.4556  0.5891
  702MOL0     H92636   2.722   0.685   3.712  2.7759  1.6317 -1.3535
  702MOL0     H92637   2.736   0.664   3.891  0.4223 -0.4549 -0.5670
  702MOL0     H92638   2.708   0.909   3.704 -0.0234  0.5390  0.8929
  702MOL0     H92639   2.749   0.937   3.871  1.9350 -0.2817  0.7031
  702MOL0     H92640   2.513   0.831   3.915  0.1375 -0.7548  0.3906
  702MOL0     H92641   2.508   0.775   3.763  1.7892 -0.2854 -0.2897
  702MOL0     H92642   2.488   1.036   3.696 -0.8472  0.5704 -0.1162
  702MOL0     H92643   2.384   0.982   3.799  0.0323  2.6184 -4.5740
  702MOL0     H92644   2.639   1.129   3.851 -1.1764  0.3631 -1.2869
  702MOL0     H92645   2.563   1.055   3.991 -0.1725 -1.5396 -0.2558
  702MOL0     H92646   3.363   0.595   3.651 -2.8019  0.4456  0.8492
  702MOL0     H92647   3.614   0.591   3.681  1.7076  0.3183  0.1528
  702MOL0     H92648   3.956   0.658   4.005  0.8904  1.3024  3.7444
  702MOL0     H92649   4.179   0.665   4.050  0.3356  1.2159  2.0500
  702MOL0     H92650   6.052   1.054   3.050  0.8831  0.8033  0.1065
  702MOL0     H92651   6.294   1.108   2.986  0.8752  0.2807 -0.9597
  702MOL0     H92652   6.599   1.271   2.803 -2.3961  0.1599 -1.0736
  702MOL0     H92653   6.838   1.327   2.771 -1.2307  1.9815 -0.4294
  702MOL0     H92654   7.053   1.218   2.374 -2.1965 -3.3993 -1.1960
  702MOL0     H92655   7.047   1.079   2.473 -1.6737  0.9694 -2.5877
  702MOL0     H92656   7.277   1.150   2.427  4.0782  2.9560 -0.2848
  702MOL0     H92657   7.240   1.303   2.509  0.4122 -1.0340 -1.2729
  702MOL0     H92658   7.233   1.220   2.714  1.6907  1.8402 -2.5398
  702MOL0     H92659   7.365   1.108   2.647  0.0656 -0.2520  1.8468
  702MOL0     H92660   7.066   1.039   2.693 -0.4123 -2.3629  3.4375
  702MOL0     H92661   7.185   0.937   2.604 -0.5886 -2.2403  2.1282
  702MOL0     H92662   7.253   0.896   3.020 -0.6292  0.2559  0.4916
  702MOL0     H92663   6.833   1.108   2.398 -1.4084  0.5091 -0.3340
  702MOL0     H92664   6.611   1.073   2.425  3.6637  2.5354 -4.3256
  703MOL0     O92665   4.542   8.307   6.314 -0.7939 -0.0115  0.5142
  703MOL0     C92666   4.586   8.415   6.345 -0.1740  0.5378  0.1209
  703MOL0     O92667   4.519   8.533   6.346  0.2026  0.0972 -0.0979
  703MOL0     C92668   4.389   8.531   6.315  0.3790 -0.5629 -0.3678
  703MOL0     C92669   4.333   8.477   6.193 -0.2752 -0.7264 -0.5044
  703MOL0     C92670   4.191   8.494   6.165 -0.1448 -0.5486  1.4033
  703MOL0     C92671   4.115   8.556   6.263  0.6321  0.2243 -0.1306
  703MOL0     O92672   3.989   8.580   6.226 -0.2596  0.2355 -0.0959
  703MOL0     C92673   3.890   8.521   6.307  1.2105 -0.4368 -0.9401
  703MOL0     C92674   3.778   8.487   6.219  0.7030  0.2444  0.1750
  703MOL0     C92675   3.661   8.438   6.312 -1.4108 -0.6858 -0.3632
  703MOL0     C92676   3.524   8.468   6.248  0.4403  0.5528  1.7469
  703MOL0     C92677   3.409   8.391   6.309 -0.2379 -1.0150 -0.1183
  703MOL0     C92678   3.275   8.435   6.244  0.0441  0.1944 -0.4269
  703MOL0     C92679   3.173   8.467   6.352  0.0892 -0.6411  0.1449
  703MOL0     C92680   3.046   8.511   6.281  0.5453 -0.8277 -0.0708
  703MOL0     N92681   2.931   8.493   6.372 -0.4137 -0.7655  0.4848
  703MOL0     C92682   2.876   8.368   6.409  0.1984  0.0927 -0.0694
  703MOL0     C92683   2.771   8.405   6.491 -0.0021  1.0605 -0.2584
  703MOL0     C92684   2.666   8.309   6.544 -0.7012  0.1893 -0.1637
  703MOL0     C92685   2.721   8.172   6.586  0.3838  0.7568  0.1968
  703MOL0     C92686   2.791   8.189   6.723  0.1675 -0.3264  0.4687
  703MOL0     C92687   2.931   8.226   6.713 -0.9121 -0.2121  0.0967
  703MOL0     O92688   3.018   8.118   6.663  0.0091  0.0446  0.1249
  703MOL0     C92689   3.155   8.142   6.636 -0.0902 -0.6339 -0.3732
  703MOL0     C92690   3.242   8.038   6.600  0.2773 -0.8540  0.3093
  703MOL0     C92691   3.386   8.064   6.582  1.1389 -0.6393 -0.6878
  703MOL0     C92692   3.438   8.194   6.600 -0.4031  1.0114 -0.4567
  703MOL0     C92693   3.585   8.208   6.585 -0.2617  0.0179  0.8652
  703MOL0     O92694   3.649   8.096   6.522  0.4634  0.4535 -0.0436
  703MOL0     C92695   3.774   8.093   6.478 -1.2747  0.1049  0.3948
  703MOL0     C92696   3.870   8.193   6.460  0.2852 -0.1589  0.3300
  703MOL0     C92697   4.002   8.160   6.412  0.3601  0.0662  0.1500
  703MOL0     C92698   4.040   8.028   6.383 -0.2772  0.0448 -0.8436
  703MOL0     O92699   4.156   7.988   6.318 -0.0575  0.5382  0.4034
  703MOL0     C92700   4.236   8.088   6.244 -0.0196  0.1896 -0.1831
  703MOL0     C92701   4.368   8.023   6.194 -0.5623  0.2763 -0.0746
  703MOL0     C92702   4.455   7.974   6.309 -0.4210  0.5606  0.5394
  703MOL0     C92703   4.574   7.880   6.274  0.2207  0.4486  0.5072
  703MOL0     C92704   4.673   7.944   6.180 -0.8666 -1.0260  0.3460
  703MOL0     C92705   4.812   7.908   6.203 -0.3623  0.3969  1.3404
  703MOL0     C92706   4.912   7.974   6.103 -0.1978 -0.1635 -1.0178
  703MOL0     C92707   5.067   7.932   6.117  0.4073 -0.8713 -0.7533
  703MOL0    Cl92708   5.077   7.751   6.129 -0.0817 -0.0082 -0.6588
  703MOL0     C92709   3.940   7.934   6.391 -1.1980  0.1782 -0.0197
  703MOL0     C92710   3.814   7.959   6.441 -0.3828 -0.2923 -0.3466
  703MOL0     O92711   3.639   8.309   6.633 -0.1169 -0.1561 -0.2182
  703MOL0     C92712   3.361   8.295   6.643 -0.0462 -0.4512  0.5608
  703MOL0     C92713   3.221   8.274   6.658 -0.2340  0.2325  0.3574
  703MOL0     N92714   2.770   8.541   6.511 -0.0452 -0.3732  0.2623
  703MOL0     N92715   2.860   8.593   6.436  0.5403 -0.0927 -0.1868
  703MOL0     C92716   4.166   8.600   6.385 -0.3444  0.0380 -0.1168
  703MOL0     C92717   4.306   8.590   6.403  0.4227 -0.4229 -0.7560
  703MOL0     C92718   4.739   8.420   6.344 -0.0034 -1.0501  1.1605
  703MOL0     C92719   4.808   8.546   6.336 -0.0645  0.5789 -0.5187
  703MOL0     C92720   4.949   8.549   6.328 -0.0252  0.3383  0.2175
  703MOL0     C92721   5.027   8.432   6.339  0.1853 -0.5370 -1.2256
  703MOL0     O92722   5.162   8.458   6.342  0.0286  0.0627  0.5535
  703MOL0     C92723   5.242   8.341   6.341  0.5797 -0.0635 -0.0209
  703MOL0     C92724   5.384   8.391   6.353 -0.0367  0.4567 -0.1785
  703MOL0     C92725   5.501   8.307   6.392 -0.4435  0.2275 -0.4219
  703MOL0     C92726   5.520   8.203   6.284  0.0528 -0.1150 -0.2704
  703MOL0     C92727   5.650   8.146   6.273  0.1581  0.6594  0.5655
  703MOL0     C92728   5.757   8.088   6.259 -0.8695 -0.2624 -0.0869
  703MOL0     C92729   4.958   8.315   6.340 -0.6470  0.3588 -0.2565
  703MOL0     C92730   4.817   8.308   6.336 -0.8200 -0.4152 -0.1490
  703MOL0     H92731   4.401   8.413   6.139  0.4460  0.3368 -0.8846
  703MOL0     H92732   4.143   8.475   6.070  3.4333  1.5719 -1.0569
  703MOL0     H92733   3.862   8.583   6.393 -1.5573 -2.6204 -0.0918
  703MOL0     H92734   3.937   8.428   6.338 -0.0958  0.2203  3.7113
  703MOL0     H92735   3.810   8.406   6.154  0.7818 -1.8159  2.6334
  703MOL0     H92736   3.755   8.580   6.166  1.2180  0.7894  0.8751
  703MOL0     H92737   3.671   8.484   6.411  2.8186 -0.4694 -0.6987
  703MOL0     H92738   3.680   8.334   6.338 -1.3908 -0.7800 -0.7452
  703MOL0     H92739   3.495   8.574   6.248 -0.9305  0.2562 -0.8442
  703MOL0     H92740   3.525   8.439   6.143  0.0304  0.8810  1.6503
  703MOL0     H92741   3.401   8.417   6.415 -4.5861  0.2401 -0.5751
  703MOL0     H92742   3.421   8.283   6.297  1.0892 -1.3730  3.2078
  703MOL0     H92743   3.235   8.348   6.192 -0.0995 -0.0962  0.1626
  703MOL0     H92744   3.291   8.514   6.170 -0.3377  0.4237 -0.2667
  703MOL0     H92745   3.146   8.376   6.407 -0.7827 -0.3340  0.2375
  703MOL0     H92746   3.206   8.545   6.421  0.9886 -1.8700  1.1829
  703MOL0     H92747   3.039   8.457   6.187  0.2733 -1.9173  0.5541
  703MOL0     H92748   3.051   8.617   6.256 -1.4535 -0.6069  0.3361
  703MOL0     H92749   2.916   8.272   6.378  0.2929 -0.8378  2.7456
  703MOL0     H92750   2.600   8.297   6.458  1.2271  1.7375 -1.9697
  703MOL0     H92751   2.611   8.371   6.616 -0.8181  1.8067 -1.5993
  703MOL0     H92752   2.781   8.112   6.517 -0.0604 -1.2245  1.4758
  703MOL0     H92753   2.631   8.111   6.594  0.9110 -0.9404 -3.9338
  703MOL0     H92754   2.733   8.268   6.771 -1.0185 -0.5360 -0.5690
  703MOL0     H92755   2.769   8.099   6.781 -1.5930  1.8572  3.4461
  703MOL0     H92756   2.961   8.228   6.818 -0.9015 -1.0360  0.1173
  703MOL0     H92757   2.942   8.323   6.664  0.9791  0.0753  0.9928
  703MOL0     H92758   3.199   7.940   6.582  0.7772 -0.5851 -3.0706
  703MOL0     H92759   3.444   7.974   6.568  0.8297 -1.1600  1.0644
  703MOL0     H92760   3.850   8.298   6.478  1.1941 -0.1995  1.8141
  703MOL0     H92761   4.070   8.243   6.392  0.2276 -0.0687 -0.9526
  703MOL0     H92762   4.252   8.179   6.301 -0.5511  1.6772 -2.2771
  703MOL0     H92763   4.183   8.131   6.158  0.7081  1.0124 -0.2349
  703MOL0     H92764   4.429   8.089   6.131 -0.0123  0.6645  0.8510
  703MOL0     H92765   4.339   7.945   6.123  2.8694  0.2904 -1.6871
  703MOL0     H92766   4.393   7.907   6.369 -4.6209  0.5935 -3.2159
  703MOL0     H92767   4.482   8.052   6.382 -1.3571  1.2972  0.1265
  703MOL0     H92768   4.632   7.847   6.361  1.6990  0.6006 -0.3779
  703MOL0     H92769   4.541   7.787   6.226 -2.3138  1.3470  0.3386
  703MOL0     H92770   4.662   8.052   6.188  0.3060 -0.5451 -2.9702
  703MOL0     H92771   4.647   7.915   6.077 -0.3094 -0.0211 -0.0959
  703MOL0     H92772   4.823   7.800   6.190 -1.5202  0.4108 -0.1291
  703MOL0     H92773   4.836   7.935   6.306  0.6917 -0.3295  1.3000
  703MOL0     H92774   4.881   7.933   6.007 -1.3865 -0.8854 -0.3618
  703MOL0     H92775   4.908   8.083   6.106  0.0234 -0.1578 -0.8591
  703MOL0     H92776   5.114   7.977   6.205 -1.3129 -0.8556  0.2119
  703MOL0     H92777   5.137   7.965   6.040  1.6970  1.1628  1.1689
  703MOL0     H92778   3.961   7.831   6.364  0.7083  0.6887 -0.6638
  703MOL0     H92779   3.739   7.881   6.452  0.1725 -1.0601 -1.7024
  703MOL0     H92780   3.395   8.396   6.665 -0.8727  0.1229 -0.6931
  703MOL0     H92781   3.157   8.357   6.689 -2.5353 -0.9576 -0.9083
  703MOL0     H92782   4.093   8.656   6.443 -2.7556 -1.6830 -1.3376
  703MOL0     H92783   4.348   8.612   6.500  0.9732 -2.9036 -0.3611
  703MOL0     H92784   4.757   8.642   6.332 -1.3882 -0.1525 -1.9428
  703MOL0     H92785   4.997   8.644   6.311 -0.4168  0.2557 -1.6369
  703MOL0     H92786   5.225   8.281   6.251  1.6047  1.5436 -1.3360
  703MOL0     H92787   5.223   8.277   6.428 -1.3716  0.5525  0.0605
  703MOL0     H92788   5.409   8.441   6.259 -0.6713  1.8349  0.3691
  703MOL0     H92789   5.386   8.477   6.420  1.7983 -0.5065  1.0724
  703MOL0     H92790   5.479   8.266   6.491 -0.0494  1.5526  0.2428
  703MOL0     H92791   5.593   8.364   6.408  0.0609 -0.6719 -0.0575
  703MOL0     H92792   5.458   8.115   6.304  1.2384 -1.0305 -0.4894
  703MOL0     H92793   5.491   8.254   6.192  3.2169  1.5957 -0.4676
  703MOL0     H92794   5.836   8.020   6.235  0.2148  0.8467  0.2281
  703MOL0     H92795   5.013   8.221   6.340  0.5361  0.9775 -2.4219
  703MOL0     H92796   4.767   8.211   6.335 -1.1128 -0.3216  1.5897
  704MOL0     O92797   4.747   2.597   7.172 -0.6098  0.3715  0.2573
  704MOL0     C92798   4.847   2.679   7.154 -0.3055 -0.8748 -0.0447
  704MOL0     O92799   4.831   2.818   7.147  0.3287  0.8348 -0.1908
  704MOL0     C92800   4.704   2.869   7.139 -0.0607  0.5310  0.4020
  704MOL0     C92801   4.601   2.812   7.063  1.0967  0.9062  0.5907
  704MOL0     C92802   4.466   2.869   7.064 -0.4484  0.5747 -0.2560
  704MOL0     C92803   4.446   2.991   7.133 -0.0775 -0.0523 -0.6161
  704MOL0     O92804   4.321   3.042   7.153  0.0606 -0.8362  0.1918
  704MOL0     C92805   4.293   3.162   7.071 -0.4081  0.1826  0.7887
  704MOL0     C92806   4.174   3.219   7.140 -1.0237 -0.4959 -0.0761
  704MOL0     C92807   4.037   3.139   7.097 -0.6158 -0.4647 -0.6083
  704MOL0     C92808   3.925   3.207   7.176 -0.1156 -0.3852  0.1146
  704MOL0     C92809   3.802   3.123   7.175 -0.7506 -0.8114 -1.3362
  704MOL0     C92810   3.679   3.194   7.230  0.4579  1.2069  0.1936
  704MOL0     C92811   3.551   3.110   7.210 -0.2707 -0.5575  0.5961
  704MOL0     C92812   3.454   3.124   7.326 -0.5572  0.2756 -1.0427
  704MOL0     N92813   3.344   3.036   7.304  0.1107  0.0960  0.9342
  704MOL0     C92814   3.314   2.915   7.353 -0.1634  1.1541 -0.3047
  704MOL0     C92815   3.203   2.869   7.289  0.2753 -0.8373 -0.5260
  704MOL0     C92816   3.151   2.725   7.299  0.4829  0.3011 -0.7814
  704MOL0     C92817   3.010   2.699   7.359 -0.2320 -0.1720  0.0784
  704MOL0     C92818   3.011   2.713   7.511  0.1779  0.1747  0.0028
  704MOL0     C92819   2.878   2.689   7.572  0.7714  0.1798 -0.4093
  704MOL0     O92820   2.777   2.769   7.508  0.9703  0.1306 -0.3513
  704MOL0     C92821   2.644   2.748   7.543  0.2730 -1.1464 -0.2677
  704MOL0     C92822   2.592   2.660   7.637  0.2326 -1.1288  0.8905
  704MOL0     C92823   2.452   2.659   7.660  0.0157  0.4885 -0.9005
  704MOL0     C92824   2.358   2.748   7.597  0.7191  0.9383 -0.3942
  704MOL0     C92825   2.210   2.734   7.622 -0.1072  0.7355  0.2431
  704MOL0     O92826   2.180   2.653   7.717  0.8986  0.3111  0.3793
  704MOL0     C92827   2.047   2.615   7.715 -0.4596 -1.1958 -0.6211
  704MOL0     C92828   1.946   2.676   7.794  0.3955 -0.1066  0.8402
  704MOL0     C92829   1.818   2.635   7.782 -0.3615  0.3775  0.2601
  704MOL0     C92830   1.785   2.527   7.692  0.9639  0.4368  0.9205
  704MOL0     O92831   1.651   2.478   7.700 -0.9749 -0.3015 -0.3617
  704MOL0     C92832   1.639   2.340   7.670  0.9050 -0.5389 -1.0218
  704MOL0     C92833   1.517   2.277   7.737 -0.0326 -0.0506  0.2803
  704MOL0     C92834   1.391   2.283   7.639 -0.9945 -0.4952  0.1089
  704MOL0     C92835   1.275   2.229   7.719  0.2940 -0.2049  0.4373
  704MOL0     C92836   1.159   2.190   7.637  0.0253 -0.5003  0.5117
  704MOL0     C92837   1.055   2.119   7.720 -0.0642  0.6690 -0.2637
  704MOL0     C92838   0.924   2.107   7.650 -0.2945 -0.0692 -0.3602
  704MOL0     C92839   0.810   2.088   7.750  0.6370 -0.0115  0.3432
  704MOL0    Cl92840   0.659   2.046   7.648 -0.4718 -0.2387  0.2140
  704MOL0     C92841   1.885   2.466   7.615  0.2930 -0.0077 -0.7112
  704MOL0     C92842   2.012   2.509   7.628 -0.5873 -0.1550  0.2266
  704MOL0     O92843   2.136   2.795   7.546  0.3377 -0.1372  0.3809
  704MOL0     C92844   2.417   2.825   7.493  0.8944 -0.8822 -0.6822
  704MOL0     C92845   2.553   2.822   7.472 -0.2260  0.3715  0.5197
  704MOL0     N92846   3.161   2.977   7.210  0.4145  0.0924 -0.2073
  704MOL0     N92847   3.249   3.070   7.223  0.3962  0.8220 -0.8625
  704MOL0     C92848   4.563   3.055   7.192 -0.5828 -0.6588  0.8781
  704MOL0     C92849   4.683   2.987   7.207 -0.0430 -1.0084  0.5883
  704MOL0     C92850   4.975   2.628   7.135 -0.8831 -0.5139  0.3256
  704MOL0     C92851   5.085   2.715   7.129 -0.4051  1.0993  0.3191
  704MOL0     C92852   5.217   2.660   7.120  0.6348 -0.2617 -0.0480
  704MOL0     C92853   5.231   2.516   7.118 -0.2208 -0.6965  0.4677
  704MOL0     O92854   5.357   2.482   7.087  0.8024 -0.7070 -0.0720
  704MOL0     C92855   5.375   2.374   6.992  0.2190 -1.1605 -0.0679
  704MOL0     C92856   5.422   2.243   7.046  0.6876  0.7312 -0.2497
  704MOL0     C92857   5.512   2.174   6.943  0.6324 -0.4307 -0.1065
  704MOL0     C92858   5.597   2.066   7.014 -0.8067 -0.0502  0.5772
  704MOL0     C92859   5.721   2.131   7.070 -0.5064 -0.3151  0.3652
  704MOL0     C92860   5.833   2.163   7.107 -0.2725 -0.1491 -0.1069
  704MOL0     C92861   5.122   2.425   7.115 -0.2757 -0.5867 -0.0000
  704MOL0     C92862   4.995   2.489   7.117 -0.8462  0.2230 -0.2401
  704MOL0     H92863   4.615   2.715   7.016  2.1750  1.5338 -0.4404
  704MOL0     H92864   4.382   2.812   7.028  1.7951 -2.6793 -0.7751
  704MOL0     H92865   4.252   3.132   6.975  0.4846  1.0581  0.1085
  704MOL0     H92866   4.379   3.230   7.063  1.0291 -1.6585 -0.1178
  704MOL0     H92867   4.175   3.324   7.108  0.3288  0.1495  1.8247
  704MOL0     H92868   4.190   3.219   7.249 -0.7198  2.0969 -0.0559
  704MOL0     H92869   4.042   3.032   7.120  2.4535 -0.3836 -0.5778
  704MOL0     H92870   4.016   3.157   6.991  0.0638 -1.5502 -0.9378
  704MOL0     H92871   3.963   3.212   7.278  0.5311 -1.4398 -0.0578
  704MOL0     H92872   3.911   3.306   7.132 -0.2081 -0.5341 -0.1974
  704MOL0     H92873   3.809   3.029   7.229  1.8777 -0.8731 -1.6655
  704MOL0     H92874   3.795   3.105   7.067  1.3654  0.0652 -1.6648
  704MOL0     H92875   3.661   3.289   7.178 -0.3646 -0.8343 -3.6439
  704MOL0     H92876   3.690   3.219   7.336 -2.9047 -2.7058  1.7006
  704MOL0     H92877   3.507   3.157   7.122  2.0205  2.3058  0.8182
  704MOL0     H92878   3.558   3.004   7.183 -3.1570 -0.1050 -2.6894
  704MOL0     H92879   3.424   3.229   7.323 -1.6513  0.0202  0.2456
  704MOL0     H92880   3.498   3.093   7.421 -1.5678  2.0637  0.0500
  704MOL0     H92881   3.379   2.864   7.423 -0.5225 -1.9400 -2.0483
  704MOL0     H92882   3.217   2.668   7.365  3.2402  2.2595 -1.6671
  704MOL0     H92883   3.164   2.679   7.201  1.5210  1.3435 -1.1535
  704MOL0     H92884   2.972   2.603   7.323 -0.7898  0.3670 -0.8121
  704MOL0     H92885   2.944   2.775   7.315 -0.1927  0.2973  0.8171
  704MOL0     H92886   3.072   2.636   7.559  0.7067  1.2176  1.0488
  704MOL0     H92887   3.040   2.815   7.538  3.1003  0.6169 -3.8692
  704MOL0     H92888   2.887   2.717   7.677 -3.4479 -3.4447  1.2363
  704MOL0     H92889   2.855   2.582   7.584 -2.5504  1.0448  2.8039
  704MOL0     H92890   2.668   2.598   7.685  1.5077 -1.1492 -1.0513
  704MOL0     H92891   2.418   2.601   7.745 -0.8161 -2.2020 -2.8836
  704MOL0     H92892   1.964   2.757   7.865 -4.3956  0.4495  1.7264
  704MOL0     H92893   1.737   2.691   7.828 -1.3589 -0.4764 -0.4166
  704MOL0     H92894   1.726   2.285   7.707  0.7615  0.6827  1.3037
  704MOL0     H92895   1.639   2.321   7.563 -1.6585 -3.3678 -0.6629
  704MOL0     H92896   1.497   2.342   7.823  0.2440  2.3673 -1.3823
  704MOL0     H92897   1.539   2.175   7.771  2.9871  0.3332 -0.2211
  704MOL0     H92898   1.420   2.224   7.552  1.6430 -0.3911  0.8305
  704MOL0     H92899   1.365   2.383   7.604 -1.4361  0.1455  2.1251
  704MOL0     H92900   1.311   2.149   7.784  0.6176  0.2595  0.8362
  704MOL0     H92901   1.240   2.309   7.785 -0.5395  2.8567 -3.3310
  704MOL0     H92902   1.185   2.125   7.552  0.1694  0.2470 -0.0205
  704MOL0     H92903   1.124   2.286   7.600  2.5099  1.0603  1.9643
  704MOL0     H92904   1.044   2.174   7.815  3.5095 -1.4101  1.5976
  704MOL0     H92905   1.089   2.016   7.735  1.4033  1.2851  1.0326
  704MOL0     H92906   0.894   2.200   7.600  0.1097 -0.0485 -0.5757
  704MOL0     H92907   0.920   2.022   7.581 -0.9934  0.3585 -0.8646
  704MOL0     H92908   0.791   2.183   7.802 -2.1663  1.2073 -2.5563
  704MOL0     H92909   0.833   2.006   7.818 -0.0065 -0.8259 -0.3974
  704MOL0     H92910   1.871   2.374   7.559  0.3240 -1.5702  1.6851
  704MOL0     H92911   2.097   2.466   7.576 -3.6535 -2.5411 -3.2960
  704MOL0     H92912   2.358   2.890   7.430  1.2465  0.5151  0.3919
  704MOL0     H92913   2.595   2.883   7.392  0.2029 -0.5409  0.0429
  704MOL0     H92914   4.554   3.145   7.252  0.5804 -1.5675  2.4879
  704MOL0     H92915   4.766   3.041   7.252 -0.4216  0.6759 -0.6132
  704MOL0     H92916   5.073   2.822   7.142 -0.2949  0.9451  1.7980
  704MOL0     H92917   5.301   2.727   7.107  0.5253 -0.1677 -0.2949
  704MOL0     H92918   5.449   2.419   6.925 -0.4577 -1.1268 -0.8093
  704MOL0     H92919   5.288   2.359   6.927  0.3539  2.6511 -1.3936
  704MOL0     H92920   5.493   2.257   7.128 -0.0975  0.2348  0.5398
  704MOL0     H92921   5.339   2.180   7.079  0.6501  0.6284 -0.5327
  704MOL0     H92922   5.569   2.247   6.885 -0.3913  0.9539  0.5852
  704MOL0     H92923   5.448   2.130   6.866 -1.8817  5.0736 -1.6034
  704MOL0     H92924   5.541   2.012   7.091  0.0447  0.0865  1.2983
  704MOL0     H92925   5.632   1.989   6.944 -3.4910 -1.5088  0.6768
  704MOL0     H92926   5.932   2.197   7.132  0.6153 -2.2699 -0.6050
  704MOL0     H92927   5.138   2.321   7.139 -1.3450 -0.0993  3.3769
  704MOL0     H92928   4.906   2.427   7.109 -2.1879  1.4259  3.2516
  705MOL0     O92929   0.288  10.544   6.609 -0.3931 -0.9512  0.2775
  705MOL0     C92930   0.252  10.567   6.493 -0.5459 -0.1624  0.2322
  705MOL0     O92931   0.171  10.489   6.423 -0.0057  0.5247 -0.4192
  705MOL0     C92932   0.106  10.385   6.478  0.4638  0.2205  0.0017
  705MOL0     C92933   0.051  10.289   6.393 -0.4213 -0.8195 -0.3489
  705MOL0     C92934  -0.013  10.178   6.438 -0.2089 -0.5160 -1.8476
  705MOL0     C92935  -0.021  10.161   6.578  0.1215  0.1030  0.5764
  705MOL0     O92936  -0.068  10.048   6.640 -0.9583 -0.0850  0.7375
  705MOL0     C92937  -0.160   9.958   6.579  0.3314 -0.2256  0.4745
  705MOL0     C92938  -0.220   9.867   6.693 -0.1781  0.0292  0.3451
  705MOL0     C92939  -0.337   9.791   6.639  0.6569 -0.3551 -0.5238
  705MOL0     C92940  -0.406   9.712   6.748 -0.4085  0.5966  0.3615
  705MOL0     C92941  -0.556   9.698   6.720  0.7817  0.2530  0.2245
  705MOL0     C92942  -0.596   9.589   6.612 -0.9658 -0.1091  0.2621
  705MOL0     C92943  -0.529   9.455   6.650  1.0441  0.7843  0.0348
  705MOL0     C92944  -0.605   9.339   6.579 -0.5843 -0.0562 -0.7012
  705MOL0     N92945  -0.742   9.332   6.627 -0.4187 -0.3102  0.7741
  705MOL0     C92946  -0.781   9.306   6.759  0.2868  0.3349  0.0908
  705MOL0     C92947  -0.909   9.340   6.768 -1.1082  0.0178  0.9551
  705MOL0     C92948  -0.986   9.331   6.895  0.4743 -0.3534  0.0925
  705MOL0     C92949  -1.122   9.288   6.853 -0.0916  0.7878 -0.1378
  705MOL0     C92950  -1.231   9.303   6.959  0.9453 -0.8516  0.3912
  705MOL0     C92951  -1.373   9.261   6.910  0.8196 -0.6495 -0.3670
  705MOL0     O92952  -1.455   9.250   7.033 -0.2588 -0.0546  0.9204
  705MOL0     C92953  -1.589   9.241   7.013  0.4443 -0.2059 -0.4998
  705MOL0     C92954  -1.654   9.202   6.891  0.5641  0.8697 -0.1439
  705MOL0     C92955  -1.795   9.191   6.892  0.7023  0.7251  1.1396
  705MOL0     C92956  -1.872   9.221   7.000  0.6335 -0.8438  0.8560
  705MOL0     C92957  -2.017   9.238   6.987 -0.0140  0.2593  0.0538
  705MOL0     O92958  -2.083   9.291   7.102  0.5023  0.1792 -0.0017
  705MOL0     C92959  -2.220   9.306   7.087 -0.2793  0.2330  0.0390
  705MOL0     C92960  -2.313   9.210   7.118  0.3332  0.4453 -0.0774
  705MOL0     C92961  -2.454   9.232   7.105 -0.3308 -0.1799 -0.2896
  705MOL0     C92962  -2.494   9.367   7.081  0.1293  0.4025  0.3755
  705MOL0     O92963  -2.633   9.379   7.074 -0.2712 -0.7735  0.4285
  705MOL0     C92964  -2.685   9.517   7.061 -0.2296  0.7232 -0.1801
  705MOL0     C92965  -2.845   9.519   7.077  0.2207  0.8573  0.2442
  705MOL0     C92966  -2.893   9.659   7.053  0.7350 -0.1408  0.2034
  705MOL0     C92967  -3.053   9.662   7.061 -0.0935 -0.5308 -0.2847
  705MOL0     C92968  -3.095   9.801   7.023  0.2689 -0.5305  0.0839
  705MOL0     C92969  -3.239   9.832   7.013  0.1563 -0.3887  0.6695
  705MOL0     C92970  -3.270   9.983   6.962  0.3670  0.7286  0.7404
  705MOL0     C92971  -3.396   9.983   6.876  0.2901 -0.1110 -0.5230
  705MOL0    Cl92972  -3.444  10.154   6.851 -0.3540 -0.0608 -0.2892
  705MOL0     C92973  -2.396   9.467   7.059 -0.7691  0.2940  0.4092
  705MOL0     C92974  -2.259   9.433   7.058 -0.5628 -0.2304 -0.0172
  705MOL0     O92975  -2.073   9.203   6.879  0.5798 -0.6693 -0.1141
  705MOL0     C92976  -1.809   9.245   7.119  0.4607 -0.4692 -0.5606
  705MOL0     C92977  -1.664   9.262   7.127  0.3043 -0.2706  0.4875
  705MOL0     N92978  -0.951   9.383   6.638 -0.3668  0.5174 -0.3263
  705MOL0     N92979  -0.847   9.381   6.564 -0.2893 -0.5345  0.8302
  705MOL0     C92980   0.031  10.260   6.656  0.1224 -0.0285 -0.1485
  705MOL0     C92981   0.080  10.376   6.609 -0.5790 -0.8674  0.4029
  705MOL0     C92982   0.305  10.690   6.423  0.4186 -0.2983 -0.3783
  705MOL0     C92983   0.399  10.782   6.479  0.8525 -0.0857  0.3103
  705MOL0     C92984   0.447  10.889   6.406 -0.3552  0.1034  0.2138
  705MOL0     C92985   0.399  10.915   6.274  0.4981  0.8760 -0.6559
  705MOL0     O92986   0.443  11.016   6.196 -0.0191 -0.0312 -0.2865
  705MOL0     C92987   0.357  11.129   6.228 -1.3759 -0.2656 -0.2513
  705MOL0     C92988   0.426  11.253   6.166 -0.1354  0.6485 -0.1724
  705MOL0     C92989   0.542  11.310   6.250 -0.3247 -0.2736 -0.7253
  705MOL0     C92990   0.675  11.219   6.269  0.5685 -0.4288  0.3040
  705MOL0     C92991   0.785  11.298   6.330  0.7663  0.8452 -1.2126
  705MOL0     C92992   0.866  11.368   6.387  0.2934 -0.5004 -0.1573
  705MOL0     C92993   0.317  10.815   6.217  0.5170  0.1099  0.0965
  705MOL0     C92994   0.267  10.703   6.284  0.2154 -0.0932 -0.8426
  705MOL0     H92995   0.075  10.288   6.287  2.0019 -2.0067  0.1323
  705MOL0     H92996  -0.034  10.091   6.376  1.3774 -1.7262 -0.7762
  705MOL0     H92997  -0.108   9.892   6.508  0.6600  2.1299 -1.6306
  705MOL0     H92998  -0.247  10.004   6.531 -0.9501 -3.9326 -1.1507
  705MOL0     H92999  -0.247   9.942   6.768 -0.2691 -0.3048  0.6460
  705MOL0     H93000  -0.143   9.797   6.726  0.5586 -0.3911 -2.0520
  705MOL0     H93001  -0.299   9.724   6.561  0.0778  1.7819 -2.7796
  705MOL0     H93002  -0.405   9.855   6.581 -1.0778 -1.5358  0.1249
  705MOL0     H93003  -0.355   9.615   6.750 -0.6100  0.4402 -1.0410
  705MOL0     H93004  -0.385   9.759   6.844 -0.4626 -0.2045  0.7728
  705MOL0     H93005  -0.607   9.789   6.689 -2.0249 -0.7261  1.6299
  705MOL0     H93006  -0.597   9.671   6.818  2.5757 -1.1662  0.6367
  705MOL0     H93007  -0.576   9.636   6.515  0.5349  1.1775  1.1496
  705MOL0     H93008  -0.705   9.590   6.613 -1.0779 -1.0087 -2.7517
  705MOL0     H93009  -0.429   9.450   6.608  1.9644  0.9762  2.0947
  705MOL0     H93010  -0.534   9.426   6.756 -0.2614  1.5774  0.2127
  705MOL0     H93011  -0.568   9.243   6.616 -0.0059  1.0213  1.7332
  705MOL0     H93012  -0.594   9.344   6.470 -0.7246 -2.5739 -0.8939
  705MOL0     H93013  -0.723   9.261   6.839  1.1592 -1.5795 -1.5403
  705MOL0     H93014  -0.986   9.425   6.951  0.1370 -0.2937 -0.0024
  705MOL0     H93015  -0.954   9.256   6.967  1.0506  0.8874  1.1753
  705MOL0     H93016  -1.109   9.184   6.821  3.2032  1.4459 -1.2919
  705MOL0     H93017  -1.152   9.351   6.769 -0.4264  1.0856  0.2002
  705MOL0     H93018  -1.206   9.239   7.044  2.2562 -2.0151 -0.8158
  705MOL0     H93019  -1.231   9.404   7.001  0.3338 -1.0225  0.8139
  705MOL0     H93020  -1.376   9.169   6.851 -0.5652  1.8796 -4.7482
  705MOL0     H93021  -1.411   9.328   6.833  0.3198 -0.4139  0.0820
  705MOL0     H93022  -1.599   9.168   6.804  1.6287 -0.3431  0.9449
  705MOL0     H93023  -1.842   9.160   6.800  1.2698 -3.6086  2.1291
  705MOL0     H93024  -2.274   9.114   7.150 -1.8911 -0.8530 -1.0240
  705MOL0     H93025  -2.526   9.154   7.126 -0.6265 -0.4364 -2.1061
  705MOL0     H93026  -2.654   9.561   6.965  0.2762  0.4568 -0.1417
  705MOL0     H93027  -2.643   9.579   7.141 -0.8881  1.9903 -0.7758
  705MOL0     H93028  -2.869   9.482   7.177  0.1956  1.7698  0.5878
  705MOL0     H93029  -2.899   9.462   7.001 -1.1554  2.8308 -0.3405
  705MOL0     H93030  -2.871   9.685   6.949 -1.8514 -0.3987 -0.4677
  705MOL0     H93031  -2.846   9.734   7.117  2.7404  0.7120 -2.1173
  705MOL0     H93032  -3.092   9.587   6.991  0.7499 -2.5218  1.2617
  705MOL0     H93033  -3.071   9.645   7.168  2.7274 -1.7610  0.0826
  705MOL0     H93034  -3.039   9.827   6.933  2.0750 -1.5903  0.8536
  705MOL0     H93035  -3.052   9.877   7.089 -0.8789 -1.1050  1.5632
  705MOL0     H93036  -3.270   9.811   7.116  3.9036 -3.7772  1.3738
  705MOL0     H93037  -3.294   9.766   6.945 -2.7228 -0.1252  2.5399
  705MOL0     H93038  -3.282  10.041   7.054  1.2159  0.1976  1.2009
  705MOL0     H93039  -3.182  10.026   6.911  0.9340 -0.5822  0.5739
  705MOL0     H93040  -3.484   9.945   6.928  1.4909  0.8550  2.4616
  705MOL0     H93041  -3.386   9.927   6.782 -0.2809 -2.3159  0.6436
  705MOL0     H93042  -2.427   9.571   7.066  0.4031  0.5570  2.9999
  705MOL0     H93043  -2.188   9.513   7.043 -1.1985  0.3893  0.2095
  705MOL0     H93044  -1.869   9.262   7.208  1.3775 -0.2352  0.0301
  705MOL0     H93045  -1.605   9.273   7.218  1.1769  1.4236 -0.2506
  705MOL0     H93046   0.020  10.264   6.764  2.4882  1.7221  0.1148
  705MOL0     H93047   0.096  10.458   6.678 -0.9905 -0.5128  0.0797
  705MOL0     H93048   0.420  10.752   6.581 -0.9136  1.5538  1.2452
  705MOL0     H93049   0.528  10.952   6.441  0.8526 -1.8568  1.1701
  705MOL0     H93050   0.354  11.145   6.336  3.2275 -1.8943  0.3603
  705MOL0     H93051   0.256  11.106   6.194 -1.3421 -2.8061  1.0992
  705MOL0     H93052   0.459  11.229   6.064  0.1426  1.8243 -0.3753
  705MOL0     H93053   0.355  11.332   6.140 -1.1646 -0.0037  0.5629
  705MOL0     H93054   0.509  11.326   6.353  1.8492 -0.9448  0.1253
  705MOL0     H93055   0.571  11.403   6.200  1.4948 -1.6155 -2.3148
  705MOL0     H93056   0.646  11.136   6.334  0.4785  0.7371  1.7962
  705MOL0     H93057   0.709  11.177   6.173 -1.3205 -1.7647  0.1465
  705MOL0     H93058   0.940  11.422   6.443  0.3495 -1.3162  0.5801
  705MOL0     H93059   0.285  10.831   6.114  0.8273  0.7748  0.0951
  705MOL0     H93060   0.220  10.623   6.228 -1.2988  1.1386 -1.4066
  706MOL0     O93061   9.962   4.386   0.573  0.0663  0.0137 -0.3591
  706MOL0     C93062   9.901   4.456   0.652  0.2204  0.5523 -0.1544
  706MOL0     O93063   9.952   4.559   0.728 -0.6266  0.5284 -0.0235
  706MOL0     C93064  10.075   4.601   0.685 -0.1052  0.0026  0.6528
  706MOL0     C93065  10.196   4.543   0.728 -0.1101 -0.5958 -0.2521
  706MOL0     C93066  10.317   4.592   0.679  0.6501  0.0295 -0.2431
  706MOL0     C93067  10.321   4.696   0.588 -0.6926 -0.0364 -0.6191
  706MOL0     O93068  10.450   4.740   0.563  0.0141  0.3569  0.1461
  706MOL0     C93069  10.481   4.797   0.435 -0.0539  0.3617  0.7773
  706MOL0     C93070  10.633   4.795   0.414 -0.7804 -0.2499 -0.3923
  706MOL0     C93071  10.706   4.903   0.502  0.5615 -0.3540  0.5558
  706MOL0     C93072  10.858   4.894   0.495  0.2026  0.7012 -0.1607
  706MOL0     C93073  10.916   4.954   0.364  0.1211 -0.4913  0.1494
  706MOL0     C93074  11.069   4.906   0.340  0.3428  0.6411  0.3419
  706MOL0     C93075  11.138   4.969   0.215  0.0878  0.1817 -0.5685
  706MOL0     C93076  11.194   5.124   0.253 -0.3712  0.8147  0.2635
  706MOL0     N93077  11.281   5.114   0.371 -0.6591  1.1594 -0.2258
  706MOL0     C93078  11.408   5.064   0.363  0.5994  0.5261 -0.1223
  706MOL0     C93079  11.448   5.050   0.493 -0.1309  0.3095  0.3810
  706MOL0     C93080  11.586   5.002   0.537  0.4836 -0.4569 -0.1268
  706MOL0     C93081  11.650   5.068   0.659  0.0132 -0.6671 -0.1400
  706MOL0     C93082  11.674   5.218   0.638  0.3683  0.5468  0.3085
  706MOL0     C93083  11.808   5.245   0.584 -0.3984 -0.0207  0.0758
  706MOL0     O93084  11.825   5.380   0.565  0.2877 -0.6160 -0.1816
  706MOL0     C93085  11.919   5.419   0.473  0.3457  0.6714  1.0348
  706MOL0     C93086  12.032   5.335   0.434  0.4707 -0.0685  0.9313
  706MOL0     C93087  12.135   5.387   0.352  0.0742 -0.2949 -1.0553
  706MOL0     C93088  12.125   5.515   0.305  0.4804 -0.1746 -0.3590
  706MOL0     C93089  12.216   5.559   0.212 -0.0676  0.4804 -0.7889
  706MOL0     O93090  12.198   5.684   0.167  0.4031 -0.1898 -0.8255
  706MOL0     C93091  12.261   5.707   0.046 -0.7278 -0.0438  0.2864
  706MOL0     C93092  12.243   5.629  -0.067 -0.2363  0.3128 -0.9270
  706MOL0     C93093  12.303   5.658  -0.187 -0.2643  0.0740 -1.2438
  706MOL0     C93094  12.393   5.763  -0.192 -0.7271  0.1574 -0.1725
  706MOL0     O93095  12.457   5.779  -0.313  0.8881  0.4286 -0.0723
  706MOL0     C93096  12.595   5.819  -0.309  0.5037  0.4175 -0.5361
  706MOL0     C93097  12.687   5.761  -0.208  0.1063 -0.3914 -0.4484
  706MOL0     C93098  12.740   5.618  -0.242 -0.3646  0.6673  0.7297
  706MOL0     C93099  12.630   5.517  -0.272 -0.7070 -0.0537  0.5011
  706MOL0     C93100  12.676   5.368  -0.294 -0.5673 -0.3548 -0.8388
  706MOL0     C93101  12.569   5.307  -0.384 -0.7868  0.1275 -0.1481
  706MOL0     C93102  12.560   5.154  -0.389 -0.1667  0.3077 -0.6616
  706MOL0     C93103  12.434   5.096  -0.456  0.4134 -0.6733  0.1366
  706MOL0    Cl93104  12.422   4.919  -0.402 -0.1110  0.0302 -0.4397
  706MOL0     C93105  12.405   5.854  -0.089 -0.6323  0.2343 -0.1466
  706MOL0     C93106  12.334   5.826   0.030 -0.5662 -0.3522  0.5540
  706MOL0     O93107  12.316   5.488   0.184  0.3189 -0.3780 -0.0595
  706MOL0     C93108  12.010   5.595   0.349 -0.4723  0.2709  0.6120
  706MOL0     C93109  11.914   5.550   0.430  0.2543  0.7572 -0.0488
  706MOL0     N93110  11.358   5.102   0.579  0.5081  0.6038 -0.1720
  706MOL0     N93111  11.261   5.136   0.501  0.0409  0.0453 -0.3533
  706MOL0     C93112  10.203   4.755   0.549  0.7264 -0.3976 -0.0077
  706MOL0     C93113  10.081   4.697   0.586 -0.0619 -0.2805 -0.4358
  706MOL0     C93114   9.763   4.424   0.679  0.5490  1.1390 -0.6936
  706MOL0     C93115   9.706   4.318   0.618  0.5803 -0.4830 -0.6025
  706MOL0     C93116   9.567   4.293   0.624 -0.1926 -0.2686 -0.2836
  706MOL0     C93117   9.482   4.368   0.708  1.1413  1.1169 -0.2087
  706MOL0     O93118   9.348   4.318   0.728 -0.2562 -0.5955  0.5162
  706MOL0     C93119   9.268   4.386   0.830 -0.6555 -0.8915 -0.2310
  706MOL0     C93120   9.143   4.318   0.847 -0.6011  0.0420 -0.4014
  706MOL0     C93121   9.038   4.405   0.923 -0.9644  0.1599  1.0058
  706MOL0     C93122   9.091   4.451   1.062  0.0225 -0.1754  0.5246
  706MOL0     C93123   8.977   4.512   1.130 -0.5909 -0.2642  0.1047
  706MOL0     C93124   8.889   4.581   1.160  0.2646 -0.7088  0.6900
  706MOL0     C93125   9.545   4.462   0.782 -0.7888 -0.2326  0.1511
  706MOL0     C93126   9.678   4.499   0.758 -0.3160  0.1627 -0.2598
  706MOL0     H93127  10.197   4.459   0.797  1.9616  0.8082  1.5495
  706MOL0     H93128  10.411   4.544   0.704  0.9441  0.9753  0.5659
  706MOL0     H93129  10.436   4.897   0.426  0.9769  0.8530  0.9596
  706MOL0     H93130  10.436   4.736   0.356  1.5660  0.0097  0.0949
  706MOL0     H93131  10.660   4.813   0.309  2.8276 -0.9647  0.2772
  706MOL0     H93132  10.678   4.700   0.443 -1.0443 -0.0901  0.5921
  706MOL0     H93133  10.678   4.895   0.607 -0.0104  1.3444  0.5617
  706MOL0     H93134  10.675   5.005   0.476  1.1098 -0.2140  0.4392
  706MOL0     H93135  10.902   4.946   0.580  1.2549  0.8202 -0.7529
  706MOL0     H93136  10.892   4.790   0.496 -0.0976  0.5653 -1.3961
  706MOL0     H93137  10.906   5.063   0.365 -0.8396 -0.5123 -1.8786
  706MOL0     H93138  10.851   4.923   0.282 -1.5700  0.5199  1.0390
  706MOL0     H93139  11.067   4.801   0.309 -1.0962  1.0816 -1.2438
  706MOL0     H93140  11.119   4.911   0.437 -3.6476  0.4960  2.6362
  706MOL0     H93141  11.221   4.901   0.193  0.5178 -0.0007  1.4497
  706MOL0     H93142  11.073   4.989   0.129  0.9561  2.7671 -0.7122
  706MOL0     H93143  11.106   5.186   0.273  0.1762  0.9673  2.4095
  706MOL0     H93144  11.252   5.168   0.171  0.5638 -1.3113 -0.2794
  706MOL0     H93145  11.466   5.029   0.278  0.0485 -0.1658 -0.2232
  706MOL0     H93146  11.646   5.013   0.446  1.2694 -2.2130  0.1350
  706MOL0     H93147  11.576   4.894   0.548 -2.7082 -0.2244  0.0950
  706MOL0     H93148  11.745   5.018   0.678 -0.3009 -0.4811  2.2418
  706MOL0     H93149  11.593   5.055   0.752  0.2184  0.9810  0.2429
  706MOL0     H93150  11.595   5.253   0.571 -1.3675 -0.3305  1.7969
  706MOL0     H93151  11.659   5.261   0.737 -2.2419  0.7539 -0.0998
  706MOL0     H93152  11.813   5.190   0.490  3.5144  1.5909 -0.8596
  706MOL0     H93153  11.881   5.190   0.644  0.3287 -0.4907 -1.2112
  706MOL0     H93154  12.037   5.233   0.471 -0.7091  0.4939  2.7488
  706MOL0     H93155  12.224   5.324   0.343 -0.7919 -2.9803  4.6075
  706MOL0     H93156  12.168   5.550  -0.071 -3.2700  2.9155  0.3641
  706MOL0     H93157  12.298   5.598  -0.277  1.1156  0.0078 -1.2897
  706MOL0     H93158  12.596   5.926  -0.284  0.1076  0.4431 -0.6138
  706MOL0     H93159  12.636   5.800  -0.409 -1.5075 -0.3658 -1.2749
  706MOL0     H93160  12.650   5.759  -0.105 -0.5210  1.1873 -0.6223
  706MOL0     H93161  12.773   5.829  -0.211 -2.0135  2.4720 -3.1325
  706MOL0     H93162  12.809   5.573  -0.171 -1.6941 -3.0776 -0.1354
  706MOL0     H93163  12.790   5.625  -0.339  0.4920 -3.2448  0.7304
  706MOL0     H93164  12.551   5.511  -0.196  0.3137 -2.8607  1.4718
  706MOL0     H93165  12.575   5.540  -0.364 -1.4329 -0.6046  0.7847
  706MOL0     H93166  12.689   5.324  -0.195  0.9626  2.2720  0.2150
  706MOL0     H93167  12.771   5.362  -0.347  2.3298  0.1553  3.8069
  706MOL0     H93168  12.599   5.343  -0.483  1.3315 -1.9316 -0.3509
  706MOL0     H93169  12.467   5.339  -0.365 -0.4612  2.2284 -1.5164
  706MOL0     H93170  12.642   5.113  -0.448  1.6024  0.8736  1.2662
  706MOL0     H93171  12.563   5.115  -0.287 -1.5696 -1.8068 -1.3789
  706MOL0     H93172  12.445   5.105  -0.564 -1.5353 -1.7116 -0.2018
  706MOL0     H93173  12.344   5.150  -0.424  2.8901  2.1113  3.1490
  706MOL0     H93174  12.467   5.941  -0.106 -1.4933  0.3534 -3.2272
  706MOL0     H93175  12.337   5.894   0.114 -3.3532  1.3705 -0.5858
  706MOL0     H93176  12.005   5.694   0.303 -0.0312 -1.1063 -2.7123
  706MOL0     H93177  11.828   5.611   0.454  0.6390  2.1112 -1.8838
  706MOL0     H93178  10.213   4.849   0.497  3.6896  0.5587  2.0495
  706MOL0     H93179   9.995   4.747   0.542  1.5207  1.0311 -2.2037
  706MOL0     H93180   9.761   4.255   0.550 -0.8380 -0.8907 -1.4075
  706MOL0     H93181   9.518   4.211   0.570 -0.3671  0.2157 -0.8775
  706MOL0     H93182   9.257   4.490   0.799  1.2621 -0.3519  0.7093
  706MOL0     H93183   9.322   4.387   0.925 -1.9281 -0.1424  0.5005
  706MOL0     H93184   9.083   4.304   0.756 -3.8945  3.1474  1.0220
  706MOL0     H93185   9.161   4.229   0.907 -0.3630  1.3592  1.5658
  706MOL0     H93186   8.955   4.336   0.935  1.4104 -2.6341  3.0160
  706MOL0     H93187   9.014   4.494   0.865 -3.7412 -0.9992  0.2233
  706MOL0     H93188   9.141   4.370   1.116  0.9881  1.3839  2.0756
  706MOL0     H93189   9.160   4.535   1.047 -1.5077  0.6363 -2.5791
  706MOL0     H93190   8.814   4.652   1.192  0.0060 -0.7886  0.2729
  706MOL0     H93191   9.504   4.528   0.859 -1.4990  1.3960 -1.5544
  706MOL0     H93192   9.706   4.593   0.806 -2.3643  0.6157  0.1432
  707MOL0     O93193   1.129   6.736   9.485 -0.5416  0.3882  0.1914
  707MOL0     C93194   1.223   6.653   9.472 -0.4266 -0.4880 -0.3989
  707MOL0     O93195   1.264   6.564   9.564 -0.2987 -0.0474 -0.4729
  707MOL0     C93196   1.193   6.542   9.687  0.0227  0.3999  0.3498
  707MOL0     C93197   1.057   6.544   9.690 -0.0295 -0.0629  0.3794
  707MOL0     C93198   0.982   6.522   9.803 -0.8909  1.0857 -0.4335
  707MOL0     C93199   1.047   6.493   9.924 -0.0173  0.1742  0.9115
  707MOL0     O93200   0.963   6.472  10.025 -0.6186  0.2297 -0.5849
  707MOL0     C93201   0.996   6.527  10.151 -0.5881  0.6972 -0.0247
  707MOL0     C93202   0.872   6.518  10.232  0.3036  0.2545 -0.7564
  707MOL0     C93203   0.808   6.382  10.251 -0.2580 -0.3963 -0.3457
  707MOL0     C93204   0.676   6.399  10.322 -0.4681  0.3862 -0.1184
  707MOL0     C93205   0.595   6.275  10.348  0.0650  0.3180 -0.4540
  707MOL0     C93206   0.672   6.159  10.415 -0.7995 -0.3415 -0.3450
  707MOL0     C93207   0.577   6.043  10.450 -0.1747  0.2592 -1.0004
  707MOL0     C93208   0.650   5.928  10.514 -0.3056 -0.2347  0.8260
  707MOL0     N93209   0.563   5.810  10.528 -0.5009 -0.0294 -0.0903
  707MOL0     C93210   0.457   5.810  10.614  0.5539 -0.0243 -0.0336
  707MOL0     C93211   0.403   5.683  10.590  0.0593 -0.4794 -0.2132
  707MOL0     C93212   0.273   5.629  10.647 -0.0036  0.1608 -0.1795
  707MOL0     C93213   0.170   5.598  10.539  0.3730  0.4292  1.0459
  707MOL0     C93214   0.043   5.535  10.615 -0.1551  0.0357 -0.0208
  707MOL0     C93215  -0.069   5.520  10.514  0.7570  0.1827 -0.3899
  707MOL0     O93216  -0.166   5.413  10.527  0.2286  0.1255  0.2822
  707MOL0     C93217  -0.251   5.407  10.636 -0.4485 -1.1185  0.0125
  707MOL0     C93218  -0.274   5.519  10.716  0.5867 -0.1077  0.0613
  707MOL0     C93219  -0.379   5.504  10.813 -0.0252 -0.0724  0.3678
  707MOL0     C93220  -0.440   5.386  10.856 -1.0470 -0.0530  0.3776
  707MOL0     C93221  -0.523   5.392  10.975  0.5612 -0.2931 -0.5062
  707MOL0     O93222  -0.621   5.293  10.986 -0.0455 -0.7365 -0.3792
  707MOL0     C93223  -0.735   5.320  11.057  1.1016  0.3707 -0.7399
  707MOL0     C93224  -0.801   5.442  11.069 -0.0552  0.1240  0.6195
  707MOL0     C93225  -0.928   5.458  11.138 -0.5894 -0.9772 -0.2491
  707MOL0     C93226  -0.995   5.342  11.186  0.0098  0.1768  0.0779
  707MOL0     O93227  -1.111   5.351  11.269 -0.6273  1.0460 -1.0703
  707MOL0     C93228  -1.205   5.456  11.225  0.2725 -0.1248 -0.5368
  707MOL0     C93229  -1.351   5.425  11.256  0.4399  1.2314  0.7190
  707MOL0     C93230  -1.376   5.354  11.393  0.1341  0.1762 -0.5716
  707MOL0     C93231  -1.520   5.324  11.402  0.3475  1.0393 -0.4056
  707MOL0     C93232  -1.569   5.285  11.539 -0.7504 -0.0708 -0.6777
  707MOL0     C93233  -1.712   5.236  11.525 -0.1485  0.1210 -1.4278
  707MOL0     C93234  -1.711   5.084  11.512  0.3767  0.2902 -0.1869
  707MOL0     C93235  -1.852   5.025  11.490  0.2534  0.3842 -0.1401
  707MOL0    Cl93236  -1.968   5.054  11.621 -0.1416 -0.1840 -0.1482
  707MOL0     C93237  -0.935   5.216  11.175 -0.4320  0.2862 -0.7674
  707MOL0     C93238  -0.811   5.208  11.103  0.4334 -0.2467 -1.1209
  707MOL0     O93239  -0.506   5.481  11.059  0.1917  0.6364 -0.5185
  707MOL0     C93240  -0.411   5.279  10.770  0.4069 -0.1421  0.5626
  707MOL0     C93241  -0.324   5.286  10.661  0.0408  0.3217  0.4972
  707MOL0     N93242   0.466   5.622  10.489 -0.4590  0.5261  0.3264
  707MOL0     N93243   0.573   5.694  10.459  0.3947 -0.3040  0.0036
  707MOL0     C93244   1.183   6.486   9.925 -0.6970  0.4815 -0.0474
  707MOL0     C93245   1.261   6.513   9.809  0.0714  0.5083  0.0542
  707MOL0     C93246   1.311   6.668   9.350 -1.0709  0.2502 -0.1253
  707MOL0     C93247   1.317   6.784   9.267  0.3288  0.0882  0.4910
  707MOL0     C93248   1.387   6.778   9.144  0.4673  0.5711  0.0323
  707MOL0     C93249   1.447   6.662   9.099  0.5241  0.3127 -0.3490
  707MOL0     O93250   1.501   6.662   8.969  0.1155 -0.1876  0.7084
  707MOL0     C93251   1.576   6.546   8.927 -0.3243 -0.5823 -0.6010
  707MOL0     C93252   1.620   6.552   8.774 -0.3531 -1.1448 -0.7353
  707MOL0     C93253   1.758   6.611   8.764  0.0788  0.5287 -0.2000
  707MOL0     C93254   1.760   6.754   8.815  0.0907  0.4022 -1.1606
  707MOL0     C93255   1.879   6.827   8.765  0.4313 -0.1086 -0.9027
  707MOL0     C93256   1.986   6.883   8.728 -0.1585  0.2553  0.0753
  707MOL0     C93257   1.435   6.554   9.183 -0.9311  0.3332 -0.1906
  707MOL0     C93258   1.374   6.551   9.301 -0.2700 -0.3521  0.0996
  707MOL0     H93259   0.999   6.565   9.601  1.1268  0.9765 -0.1473
  707MOL0     H93260   0.874   6.517   9.810 -0.7884 -0.7755  0.4902
  707MOL0     H93261   1.025   6.632  10.142 -1.0520  0.6529 -3.0298
  707MOL0     H93262   1.074   6.470  10.203 -1.4248  0.2418  0.7654
  707MOL0     H93263   0.804   6.583  10.176  1.4412  0.6985 -1.6528
  707MOL0     H93264   0.899   6.562  10.328 -1.8790  1.6500 -0.7048
  707MOL0     H93265   0.860   6.312  10.317 -3.9775 -2.2545  0.8569
  707MOL0     H93266   0.794   6.341  10.151  1.0487 -1.0333 -0.2879
  707MOL0     H93267   0.689   6.455  10.414  1.8675 -2.2983  1.3202
  707MOL0     H93268   0.621   6.470  10.260  0.3643  1.6298  0.5379
  707MOL0     H93269   0.555   6.244  10.251 -1.0890  1.8980 -0.5124
  707MOL0     H93270   0.516   6.283  10.423  1.2293 -1.1362  1.0090
  707MOL0     H93271   0.734   6.206  10.491 -0.2351  2.4745 -2.4083
  707MOL0     H93272   0.744   6.119  10.344  0.7525  1.3792  0.2034
  707MOL0     H93273   0.494   6.083  10.509  0.7984  1.4218 -0.3726
  707MOL0     H93274   0.520   5.993  10.371  0.6465 -4.6368  1.1071
  707MOL0     H93275   0.694   5.957  10.610 -1.7804 -1.9773  2.1184
  707MOL0     H93276   0.730   5.901  10.445 -3.7970 -2.9894 -2.6009
  707MOL0     H93277   0.418   5.870  10.695  0.0569 -1.2337  0.6353
  707MOL0     H93278   0.242   5.709  10.714  0.1595 -0.2925  0.4460
  707MOL0     H93279   0.298   5.539  10.704  1.3042  0.0958 -0.8262
  707MOL0     H93280   0.205   5.526  10.464 -0.9244 -1.6022  2.2790
  707MOL0     H93281   0.137   5.692  10.493  0.3529 -0.0478  0.0432
  707MOL0     H93282   0.074   5.441  10.660 -1.8759 -1.4522 -1.7457
  707MOL0     H93283   0.015   5.596  10.702  1.3326  0.1018  0.4431
  707MOL0     H93284  -0.023   5.506  10.416  2.9972  0.9320  0.5088
  707MOL0     H93285  -0.129   5.611  10.512 -2.6586 -1.8806 -0.5990
  707MOL0     H93286  -0.239   5.622  10.715 -0.6154  0.3338  0.9439
  707MOL0     H93287  -0.375   5.588  10.881  3.4550 -0.6449  1.0310
  707MOL0     H93288  -0.751   5.531  11.034 -0.2988 -0.1779 -0.5391
  707MOL0     H93289  -0.971   5.556  11.155  0.4515 -0.3289 -1.2082
  707MOL0     H93290  -1.198   5.489  11.122 -1.2060  1.4801 -0.1546
  707MOL0     H93291  -1.183   5.546  11.283 -1.2715  0.1701 -0.3666
  707MOL0     H93292  -1.393   5.361  11.177 -0.6253  1.8387  0.7783
  707MOL0     H93293  -1.406   5.519  11.249  0.0686  0.9099 -1.5183
  707MOL0     H93294  -1.344   5.424  11.471  1.3607  0.4392 -1.2826
  707MOL0     H93295  -1.322   5.260  11.412 -1.1289 -0.1617  1.7528
  707MOL0     H93296  -1.578   5.411  11.370 -0.4562 -0.2459 -2.7511
  707MOL0     H93297  -1.546   5.240  11.336  1.1378 -0.7137  1.4238
  707MOL0     H93298  -1.569   5.363  11.615 -1.8108 -1.5032  0.8616
  707MOL0     H93299  -1.496   5.212  11.576  0.4049  2.3582  2.1843
  707MOL0     H93300  -1.769   5.287  11.447 -1.6782 -0.1504 -0.5430
  707MOL0     H93301  -1.744   5.247  11.630  0.8992 -2.9995 -0.6629
  707MOL0     H93302  -1.653   5.062  11.422 -1.5072  0.1696 -1.4197
  707MOL0     H93303  -1.665   5.047  11.604  2.3263 -1.0640 -1.6080
  707MOL0     H93304  -1.840   4.921  11.461  3.7392  0.6222  0.0461
  707MOL0     H93305  -1.895   5.073  11.401  0.1626 -1.9565 -1.4317
  707MOL0     H93306  -0.982   5.130  11.222 -2.0405  0.8766 -1.2107
  707MOL0     H93307  -0.761   5.111  11.100  0.4034 -0.2425 -2.7791
  707MOL0     H93308  -0.440   5.176  10.787 -0.0219 -0.4612 -1.8049
  707MOL0     H93309  -0.295   5.202  10.599  1.2036  0.4786  0.8048
  707MOL0     H93310   1.237   6.439  10.007 -1.7691 -0.9921 -0.1539
  707MOL0     H93311   1.368   6.499   9.805  0.3556  2.4513 -0.0442
  707MOL0     H93312   1.253   6.863   9.306  1.2046  0.5785  0.9719
  707MOL0     H93313   1.405   6.852   9.067  1.1417 -1.4060 -1.8074
  707MOL0     H93314   1.527   6.449   8.941  1.1600 -1.8998 -3.5289
  707MOL0     H93315   1.662   6.555   8.992 -1.0248  2.6251  0.0432
  707MOL0     H93316   1.628   6.453   8.729 -2.0349 -0.7389 -2.0032
  707MOL0     H93317   1.545   6.609   8.719 -3.7152 -2.0862  2.4998
  707MOL0     H93318   1.783   6.623   8.658  0.2442  2.2915  0.0159
  707MOL0     H93319   1.834   6.553   8.817  1.5932  0.2113 -2.5466
  707MOL0     H93320   1.676   6.810   8.774 -0.2146 -0.8821 -2.3588
  707MOL0     H93321   1.754   6.753   8.925 -1.3908 -1.7240 -1.1948
  707MOL0     H93322   2.085   6.919   8.716  0.3627 -1.0833  0.1511
  707MOL0     H93323   1.508   6.475   9.166  0.4730  1.2077  1.4949
  707MOL0     H93324   1.372   6.456   9.354 -1.8585  0.5123  1.7010
  708MOL0     O93325   3.390  10.827   9.790  0.0255  0.1338 -0.2277
  708MOL0     C93326   3.380  10.714   9.734 -0.3613  0.2913 -1.2905
  708MOL0     O93327   3.268  10.659   9.693 -0.2865  0.1806  0.6221
  708MOL0     C93328   3.142  10.710   9.725  0.4158 -0.1218  0.0046
  708MOL0     C93329   3.108  10.839   9.778 -0.0009  0.5809 -0.5329
  708MOL0     C93330   2.974  10.869   9.788  0.0721 -0.0963  0.3387
  708MOL0     C93331   2.870  10.790   9.746  0.6253 -0.5587 -0.6851
  708MOL0     O93332   2.740  10.824   9.763 -0.1957 -0.6069 -0.8329
  708MOL0     C93333   2.707  10.958   9.808  0.0378  0.1227 -1.2571
  708MOL0     C93334   2.715  11.070   9.701 -0.0802  0.7443  0.0882
  708MOL0     C93335   2.654  11.035   9.566 -0.2704  0.8290  0.1303
  708MOL0     C93336   2.654  11.157   9.477 -0.0415  0.2311  0.1479
  708MOL0     C93337   2.578  11.111   9.353 -0.5348 -0.4607  0.0367
  708MOL0     C93338   2.549  11.243   9.279  0.7350  0.3087  0.5899
  708MOL0     C93339   2.478  11.210   9.154  0.5195 -0.4748 -0.1591
  708MOL0     C93340   2.496  11.321   9.044 -0.1378  0.5143 -0.3476
  708MOL0     N93341   2.454  11.305   8.905  0.6240  0.3771  0.1896
  708MOL0     C93342   2.375  11.200   8.858  0.5784 -0.2512  0.1913
  708MOL0     C93343   2.314  11.249   8.743  0.3227 -0.6213  0.2524
  708MOL0     C93344   2.203  11.183   8.667  0.2677  0.6772  0.2738
  708MOL0     C93345   2.094  11.282   8.642 -0.4164  0.2396 -0.4585
  708MOL0     C93346   1.961  11.199   8.641 -0.2894 -0.1948  0.7481
  708MOL0     C93347   1.932  11.150   8.498 -0.8127 -0.6420  0.0577
  708MOL0     O93348   1.824  11.057   8.496  0.5163 -0.8315 -0.5113
  708MOL0     C93349   1.689  11.087   8.499 -0.0320 -0.5979  1.5173
  708MOL0     C93350   1.645  11.215   8.477  0.3786  0.0698 -0.2757
  708MOL0     C93351   1.501  11.235   8.475 -0.7220  0.3908 -1.0495
  708MOL0     C93352   1.415  11.132   8.495  0.7666 -0.1706 -0.2512
  708MOL0     C93353   1.267  11.155   8.500  0.3146 -0.1482 -0.2437
  708MOL0     O93354   1.186  11.047   8.490  0.1791  0.2235  0.2933
  708MOL0     C93355   1.052  11.048   8.507  0.2744 -0.5909  0.3169
  708MOL0     C93356   0.975  11.151   8.459 -0.9345  0.4625  0.7536
  708MOL0     C93357   0.837  11.133   8.453  0.4905 -0.1683  0.2585
  708MOL0     C93358   0.779  11.027   8.512 -1.1646  0.9229 -0.0518
  708MOL0     O93359   0.646  11.025   8.520 -0.0700  0.6774  0.0269
  708MOL0     C93360   0.584  10.910   8.570  0.5461 -0.0601 -0.6149
  708MOL0     C93361   0.434  10.911   8.527 -0.6341 -0.6407  0.0547
  708MOL0     C93362   0.357  10.782   8.551  0.1352 -0.0645 -0.6649
  708MOL0     C93363   0.212  10.800   8.517 -0.0487 -0.2683 -0.2358
  708MOL0     C93364   0.141  10.678   8.537 -0.5189 -0.2020 -0.3691
  708MOL0     C93365  -0.010  10.676   8.497 -0.1252 -0.1993  0.6030
  708MOL0     C93366  -0.083  10.542   8.530  0.2256 -0.5228 -0.0415
  708MOL0     C93367  -0.220  10.550   8.478  0.8493  0.5306 -0.8140
  708MOL0    Cl93368  -0.324  10.408   8.493 -0.2062 -0.2586 -0.4694
  708MOL0     C93369   0.858  10.938   8.578 -0.1929  0.3016  0.2393
  708MOL0     C93370   0.998  10.944   8.573  1.0384 -0.0189  0.2933
  708MOL0     O93371   1.228  11.271   8.510 -0.4934 -0.2152  0.3604
  708MOL0     C93372   1.468  11.007   8.512  1.0235 -0.3945 -0.1604
  708MOL0     C93373   1.605  10.974   8.511  0.4221 -0.0730 -0.2414
  708MOL0     N93374   2.360  11.379   8.723 -0.6437  0.3496  0.3423
  708MOL0     N93375   2.441  11.413   8.825 -0.4229 -0.1219 -0.7041
  708MOL0     C93376   2.901  10.674   9.687 -0.7265 -0.9048  0.3309
  708MOL0     C93377   3.037  10.630   9.672  0.1363 -0.2923 -0.6673
  708MOL0     C93378   3.502  10.640   9.699 -0.5428 -0.5390 -0.3292
  708MOL0     C93379   3.501  10.502   9.680  0.3509  0.2776 -0.1885
  708MOL0     C93380   3.612  10.426   9.643  0.8789 -1.5671  0.0696
  708MOL0     C93381   3.726  10.503   9.619 -0.5356 -0.3723 -0.2422
  708MOL0     O93382   3.834  10.430   9.572 -0.1561 -0.3122  0.1782
  708MOL0     C93383   3.968  10.474   9.558 -0.2498 -0.1612  0.4575
  708MOL0     C93384   3.991  10.563   9.439 -0.0516  0.3169  0.3751
  708MOL0     C93385   3.950  10.499   9.298  0.1300 -0.0267 -0.4172
  708MOL0     C93386   4.027  10.572   9.180  0.4173 -0.6033  0.5723
  708MOL0     C93387   3.991  10.717   9.173 -0.5788 -0.8589 -0.5718
  708MOL0     C93388   3.962  10.836   9.175 -0.3320 -0.4649 -0.3345
  708MOL0     C93389   3.733  10.642   9.648  0.7573  0.4071 -0.3248
  708MOL0     C93390   3.622  10.710   9.691  0.6017 -0.3353  0.3267
  708MOL0     H93391   3.182  10.908   9.819 -0.1228  0.7319 -0.5654
  708MOL0     H93392   2.959  10.970   9.825  0.8560 -0.0052  0.4411
  708MOL0     H93393   2.759  10.995   9.897 -1.9427  3.3453 -1.2752
  708MOL0     H93394   2.603  10.953   9.840  0.7452 -0.3464  1.1686
  708MOL0     H93395   2.820  11.099   9.688  0.4451  0.2073  2.6469
  708MOL0     H93396   2.666  11.158   9.744  1.9443  1.2211  1.5793
  708MOL0     H93397   2.561  10.979   9.584 -0.7536  2.1103  1.8188
  708MOL0     H93398   2.724  10.962   9.523  0.9969  0.9092  1.9745
  708MOL0     H93399   2.619  11.251   9.520  1.7096 -0.2340  2.7873
  708MOL0     H93400   2.755  11.175   9.439  0.5364  0.2391  1.6294
  708MOL0     H93401   2.488  11.059   9.389  0.5371 -1.6338  1.1361
  708MOL0     H93402   2.636  11.040   9.293  2.6671 -0.1475  2.4855
  708MOL0     H93403   2.647  11.286   9.259 -0.1017  1.7674 -0.5609
  708MOL0     H93404   2.490  11.306   9.346 -0.6707  0.8439 -1.0870
  708MOL0     H93405   2.504  11.109   9.122  3.1901  0.1003 -0.0397
  708MOL0     H93406   2.369  11.211   9.166  0.4363  2.1816 -0.4761
  708MOL0     H93407   2.604  11.336   9.033  0.1890 -1.1486  0.3379
  708MOL0     H93408   2.455  11.419   9.069 -0.0254  0.6418 -0.6526
  708MOL0     H93409   2.356  11.106   8.909 -0.8784  0.8330  1.7616
  708MOL0     H93410   2.173  11.091   8.719  0.3902  0.3416 -0.2379
  708MOL0     H93411   2.235  11.148   8.569 -2.5747  2.9831 -1.6393
  708MOL0     H93412   2.106  11.330   8.544 -2.3159  1.8473  0.0255
  708MOL0     H93413   2.084  11.350   8.727 -1.7303  0.1905 -0.5548
  708MOL0     H93414   1.956  11.114   8.710 -3.2415 -0.8612 -0.1297
  708MOL0     H93415   1.885  11.266   8.682 -0.6894 -2.1550  3.4779
  708MOL0     H93416   2.024  11.104   8.459 -2.3422 -1.7034 -2.5532
  708MOL0     H93417   1.913  11.237   8.436 -1.3788  1.0269  2.4342
  708MOL0     H93418   1.714  11.295   8.453  0.7190 -0.3844 -0.8477
  708MOL0     H93419   1.483  11.338   8.444 -2.1584 -0.0537 -1.7409
  708MOL0     H93420   1.027  11.232   8.408  2.7101 -1.3636  1.1939
  708MOL0     H93421   0.781  11.214   8.407  1.3927 -0.5008 -1.5037
  708MOL0     H93422   0.593  10.910   8.679 -1.6648 -2.5531 -0.3185
  708MOL0     H93423   0.631  10.822   8.525  2.8118  0.3899  0.7528
  708MOL0     H93424   0.430  10.934   8.420 -1.0651  0.8442  0.3626
  708MOL0     H93425   0.388  10.997   8.576 -2.1095  0.5910 -3.2091
  708MOL0     H93426   0.362  10.748   8.656  0.4156  3.0493  0.4158
  708MOL0     H93427   0.402  10.707   8.485  2.1128  1.3060 -0.9653
  708MOL0     H93428   0.176  10.887   8.571  1.1606 -0.6459  1.2494
  708MOL0     H93429   0.231  10.828   8.413  2.9418  2.5937  0.8858
  708MOL0     H93430   0.153  10.639   8.638  0.1617  0.8856 -0.0116
  708MOL0     H93431   0.191  10.598   8.481  1.3825 -0.6252  1.8040
  708MOL0     H93432  -0.026  10.693   8.390 -0.7568  1.0085  0.8678
  708MOL0     H93433  -0.060  10.754   8.555  1.5218 -0.2451  2.1733
  708MOL0     H93434  -0.034  10.456   8.483  1.1515  1.1630 -2.3507
  708MOL0     H93435  -0.091  10.517   8.636 -0.2832  1.2005  0.3494
  708MOL0     H93436  -0.217  10.576   8.372  1.3978 -0.0665 -0.9505
  708MOL0     H93437  -0.271  10.624   8.540 -0.0975 -1.2645  0.6566
  708MOL0     H93438   0.817  10.855   8.634  2.8258 -2.4298 -1.2479
  708MOL0     H93439   1.066  10.872   8.616  0.0501 -0.9104  0.4125
  708MOL0     H93440   1.401  10.923   8.529 -1.0841  1.6952  2.9075
  708MOL0     H93441   1.644  10.873   8.518 -1.2091 -0.6862  0.2573
  708MOL0     H93442   2.811  10.621   9.655 -1.1642 -0.2800  0.4940
  708MOL0     H93443   3.055  10.538   9.617  0.5944 -0.9677  0.5874
  708MOL0     H93444   3.405  10.454   9.698 -0.1767  2.4077  3.6632
  708MOL0     H93445   3.630  10.320   9.653 -1.7242 -1.8431  3.7050
  708MOL0     H93446   4.034  10.388   9.546 -1.6303 -1.4083  1.4501
  708MOL0     H93447   3.994  10.530   9.649  2.7136  3.1677 -2.1839
  708MOL0     H93448   3.956  10.664   9.459 -1.5541 -0.2415  0.6703
  708MOL0     H93449   4.100  10.574   9.447  0.0182  0.0947 -0.2037
  708MOL0     H93450   3.843  10.490   9.276  0.1544 -1.0090 -0.1948
  708MOL0     H93451   3.987  10.397   9.308 -0.3680 -0.1309  0.5301
  708MOL0     H93452   4.134  10.562   9.202  0.3325  0.8925  1.8838
  708MOL0     H93453   4.005  10.519   9.087  2.2406 -0.3625 -0.0450
  708MOL0     H93454   3.907  10.928   9.185 -0.1614 -0.4884  1.0425
  708MOL0     H93455   3.822  10.704   9.638 -0.6191  2.3826 -0.9340
  708MOL0     H93456   3.628  10.818   9.702  0.4740 -0.4801  2.0922
  709MOL0     O93457   5.973   8.744   4.545 -0.5531  0.7618  0.4204
  709MOL0     C93458   6.079   8.775   4.614 -0.1467  0.3615 -0.5959
  709MOL0     O93459   6.073   8.787   4.751  0.5722  0.0700  0.1848
  709MOL0     C93460   5.957   8.791   4.821  0.2859 -0.1343 -0.7373
  709MOL0     C93461   5.836   8.844   4.782  0.0448 -0.2630  0.1813
  709MOL0     C93462   5.724   8.846   4.863 -0.2980  0.8667  0.4786
  709MOL0     C93463   5.732   8.801   4.994 -0.4164 -0.1138  0.5606
  709MOL0     O93464   5.628   8.791   5.074 -0.0304  0.1362 -0.3385
  709MOL0     C93465   5.518   8.700   5.039 -0.3737 -1.3673 -0.0754
  709MOL0     C93466   5.390   8.776   5.022 -0.2203 -0.2319 -0.4996
  709MOL0     C93467   5.289   8.761   5.138  0.1201  0.8310 -0.1540
  709MOL0     C93468   5.184   8.883   5.131  0.5946  0.1587 -0.0364
  709MOL0     C93469   5.073   8.876   5.233  0.6133  0.2053 -0.3483
  709MOL0     C93470   5.125   8.838   5.378 -0.2544 -0.4279  0.3177
  709MOL0     C93471   5.015   8.844   5.486  0.7873 -0.0672 -0.3980
  709MOL0     C93472   4.915   8.724   5.488  0.1602 -1.0163  0.3145
  709MOL0     N93473   4.826   8.731   5.604 -0.0557 -0.2992 -0.1262
  709MOL0     C93474   4.733   8.832   5.614 -0.0453  0.1486 -0.3109
  709MOL0     C93475   4.673   8.804   5.731 -0.6301  0.2921 -0.4289
  709MOL0     C93476   4.548   8.870   5.779  0.4102 -0.9926 -0.1090
  709MOL0     C93477   4.438   8.767   5.766  0.0475  0.5437 -0.4188
  709MOL0     C93478   4.301   8.812   5.814  0.7948  0.7935 -0.3470
  709MOL0     C93479   4.277   8.806   5.968  0.5499 -0.2046  0.0504
  709MOL0     O93480   4.171   8.886   6.019  0.7642 -0.5815 -0.6236
  709MOL0     C93481   4.037   8.852   5.999 -0.6769 -0.4945  0.8293
  709MOL0     C93482   3.945   8.934   6.059  0.3889  0.8880  0.7555
  709MOL0     C93483   3.807   8.890   6.041  0.0658 -0.6505 -0.3825
  709MOL0     C93484   3.767   8.786   5.965  1.0991  0.3332  0.3050
  709MOL0     C93485   3.623   8.752   5.937  0.3744 -0.3453 -0.0834
  709MOL0     O93486   3.531   8.806   6.016 -0.1918  0.3695 -0.5053
  709MOL0     C93487   3.394   8.775   6.008  0.3177 -0.5045  0.0945
  709MOL0     C93488   3.317   8.731   5.899 -1.0443 -0.5951 -0.1513
  709MOL0     C93489   3.174   8.738   5.911  1.0790  0.0372  0.0893
  709MOL0     C93490   3.113   8.777   6.029  0.9892 -0.2542 -0.0011
  709MOL0     O93491   2.971   8.763   6.024 -0.0852 -0.2485 -0.5660
  709MOL0     C93492   2.893   8.882   5.991 -0.5040  0.1487 -0.6173
  709MOL0     C93493   2.759   8.835   5.926 -0.5694  0.0680 -0.1709
  709MOL0     C93494   2.695   8.720   5.999  0.2282  0.0061 -0.1276
  709MOL0     C93495   2.667   8.746   6.152 -0.2131 -0.1040 -0.6920
  709MOL0     C93496   2.550   8.648   6.190 -0.0922  0.5469  0.3685
  709MOL0     C93497   2.408   8.694   6.202  0.3195 -0.2587  0.3619
  709MOL0     C93498   2.327   8.576   6.247  0.0447 -0.2482 -1.0309
  709MOL0     C93499   2.175   8.598   6.197 -0.6104 -0.0107  0.5492
  709MOL0    Cl93500   2.163   8.585   6.023  0.4225  0.7311  0.1400
  709MOL0     C93501   3.182   8.811   6.142 -0.2214 -0.4555  0.1759
  709MOL0     C93502   3.325   8.814   6.128 -0.6924  0.3634 -0.8407
  709MOL0     O93503   3.600   8.668   5.850 -0.7063 -0.0818 -0.0989
  709MOL0     C93504   3.863   8.698   5.923 -0.0550  0.2340 -0.0070
  709MOL0     C93505   3.991   8.734   5.940 -0.2303  0.2898  0.2655
  709MOL0     N93506   4.729   8.687   5.794  0.7819  0.1031 -0.3052
  709MOL0     N93507   4.818   8.643   5.710  0.3584 -0.7349 -0.0851
  709MOL0     C93508   5.857   8.758   5.047  0.2567 -0.2890  0.5015
  709MOL0     C93509   5.967   8.749   4.957  0.1169 -0.4982  0.2604
  709MOL0     C93510   6.208   8.772   4.549 -0.1423  0.4141  1.0491
  709MOL0     C93511   6.332   8.805   4.600 -0.8468  0.1687 -0.1361
  709MOL0     C93512   6.448   8.795   4.527 -0.4063 -0.4827 -0.2250
  709MOL0     C93513   6.445   8.745   4.396 -0.8949 -0.8747  0.7488
  709MOL0     O93514   6.552   8.750   4.311  0.2652  0.5285  0.9064
  709MOL0     C93515   6.688   8.775   4.352  0.2436  0.3807  0.3228
  709MOL0     C93516   6.751   8.646   4.382 -0.8315 -0.2938  0.0338
  709MOL0     C93517   6.767   8.550   4.264  0.0553  0.0647  0.3705
  709MOL0     C93518   6.846   8.427   4.287  0.5974 -0.6089  0.4163
  709MOL0     C93519   6.981   8.458   4.329 -0.6227  0.1546  0.0536
  709MOL0     C93520   7.083   8.507   4.366  0.4219  0.3527 -1.1438
  709MOL0     C93521   6.328   8.705   4.344 -0.2185  0.5527  0.6595
  709MOL0     C93522   6.207   8.717   4.411  0.3152 -0.4011  1.2191
  709MOL0     H93523   5.830   8.881   4.680 -0.8225  0.4609  0.4780
  709MOL0     H93524   5.629   8.884   4.827 -0.4950  2.2295  2.2558
  709MOL0     H93525   5.501   8.625   5.117 -2.0725 -0.1574  0.7894
  709MOL0     H93526   5.553   8.652   4.947  4.1302  2.4485 -0.7369
  709MOL0     H93527   5.351   8.741   4.926  0.0566 -1.6916 -0.1092
  709MOL0     H93528   5.425   8.879   5.024 -0.6985 -0.0731  1.5666
  709MOL0     H93529   5.353   8.761   5.227 -0.7373 -0.7278  0.5202
  709MOL0     H93530   5.237   8.666   5.124  1.9586 -0.9029  3.3060
  709MOL0     H93531   5.239   8.977   5.135  0.0506  0.7206 -3.1706
  709MOL0     H93532   5.143   8.887   5.029  1.1423  2.4974 -0.2263
  709MOL0     H93533   5.007   8.793   5.208  2.6938 -0.8350 -2.9530
  709MOL0     H93534   5.023   8.973   5.242 -0.2452 -0.2885  0.3183
  709MOL0     H93535   5.206   8.904   5.410  2.0732 -1.4034 -2.9688
  709MOL0     H93536   5.160   8.734   5.379 -1.5373 -0.9006  2.3662
  709MOL0     H93537   5.063   8.836   5.584 -0.4521 -2.1119  0.0862
  709MOL0     H93538   4.961   8.938   5.468 -2.6194 -1.2647  2.4298
  709MOL0     H93539   4.970   8.629   5.483 -0.1587 -1.1953  0.1498
  709MOL0     H93540   4.855   8.736   5.397 -0.9165 -1.1710  0.9869
  709MOL0     H93541   4.707   8.918   5.553 -1.7442  0.1587  0.3922
  709MOL0     H93542   4.531   8.959   5.718  4.0756 -0.1906 -0.1960
  709MOL0     H93543   4.571   8.887   5.885  2.5777 -0.4899 -0.6119
  709MOL0     H93544   4.474   8.678   5.820 -1.4935 -0.9641 -1.7441
  709MOL0     H93545   4.420   8.743   5.661  0.0477  1.8219 -0.7198
  709MOL0     H93546   4.272   8.915   5.789  0.1582  0.8361  0.5134
  709MOL0     H93547   4.227   8.743   5.772  1.2493  0.2757 -0.3022
  709MOL0     H93548   4.362   8.852   6.020  1.2058  0.7942 -1.8091
  709MOL0     H93549   4.272   8.705   6.009 -0.3749 -0.0407  0.3554
  709MOL0     H93550   3.965   9.030   6.105  3.7224  2.1481 -2.7690
  709MOL0     H93551   3.728   8.958   6.073 -0.1230 -1.3772  0.7581
  709MOL0     H93552   3.374   8.700   5.812 -0.8237 -2.8182  0.7138
  709MOL0     H93553   3.101   8.727   5.832 -0.4007  0.5772  1.3277
  709MOL0     H93554   2.950   8.949   5.926  1.7101  0.3900  1.4435
  709MOL0     H93555   2.879   8.936   6.085 -3.5814  0.9461 -1.4236
  709MOL0     H93556   2.785   8.797   5.827  2.6994 -0.3151  0.7196
  709MOL0     H93557   2.690   8.920   5.923 -1.5235 -0.6651  0.7371
  709MOL0     H93558   2.754   8.629   5.983  1.0975  0.8051 -1.6101
  709MOL0     H93559   2.599   8.707   5.949 -0.0155 -1.2008  0.6010
  709MOL0     H93560   2.749   8.733   6.223  0.3059  4.2640 -0.2175
  709MOL0     H93561   2.653   8.854   6.162  2.1262  0.0621  2.5966
  709MOL0     H93562   2.584   8.612   6.288 -0.7858  5.7904  2.9054
  709MOL0     H93563   2.536   8.570   6.115  1.8731  1.4619 -1.0340
  709MOL0     H93564   2.378   8.721   6.100 -0.6221  2.2993  1.2287
  709MOL0     H93565   2.397   8.788   6.256 -0.2788 -0.4401  0.5565
  709MOL0     H93566   2.369   8.480   6.213  1.7568 -0.3593  1.1492
  709MOL0     H93567   2.334   8.576   6.356 -1.1407 -5.7109 -0.6292
  709MOL0     H93568   2.152   8.701   6.224  1.5088  0.8251 -0.6172
  709MOL0     H93569   2.105   8.525   6.240  0.6066 -1.7918 -0.3718
  709MOL0     H93570   3.130   8.848   6.230  0.3766  0.8262  0.0189
  709MOL0     H93571   3.387   8.842   6.213 -2.6245  1.7636  0.1898
  709MOL0     H93572   3.845   8.604   5.871 -0.2858  0.8326 -1.0378
  709MOL0     H93573   4.072   8.667   5.913  1.9610  2.7224  0.4430
  709MOL0     H93574   5.866   8.721   5.148  2.5645  1.8799  1.1964
  709MOL0     H93575   6.064   8.713   4.991 -0.5311 -1.8705  0.7236
  709MOL0     H93576   6.327   8.847   4.700 -0.0646  2.8536 -1.1348
  709MOL0     H93577   6.531   8.856   4.561 -0.9891  0.7183 -0.8789
  709MOL0     H93578   6.699   8.840   4.439  1.2603  0.3653  0.2172
  709MOL0     H93579   6.731   8.824   4.264  0.8988  1.6722  1.3248
  709MOL0     H93580   6.851   8.669   4.421  0.3432 -0.7526 -2.5241
  709MOL0     H93581   6.688   8.596   4.456 -0.2549  1.8652  2.1091
  709MOL0     H93582   6.810   8.611   4.185 -0.6083  0.0768  0.0153
  709MOL0     H93583   6.665   8.521   4.236  0.0728 -1.4828  1.7269
  709MOL0     H93584   6.801   8.374   4.372 -0.2100  2.8243  2.3142
  709MOL0     H93585   6.846   8.369   4.194 -1.6433  0.3630 -0.2438
  709MOL0     H93586   7.170   8.558   4.401 -0.7372  0.5757  1.6788
  709MOL0     H93587   6.337   8.668   4.242 -0.3734  1.6281  0.2505
  709MOL0     H93588   6.119   8.682   4.359  0.2101  1.1129  0.3279
  710MOL0     O93589   0.737   1.632   9.515  0.1516  0.7726  0.1374
  710MOL0     C93590   0.717   1.732   9.449 -0.5142 -0.1036 -0.0643
  710MOL0     O93591   0.816   1.814   9.403  0.0229  0.8664 -0.2981
  710MOL0     C93592   0.948   1.815   9.446  0.6583 -0.6015  0.0029
  710MOL0     C93593   1.005   1.741   9.549  0.0278 -0.7217 -0.5452
  710MOL0     C93594   1.132   1.762   9.594  0.6767  0.4768  0.2828
  710MOL0     C93595   1.211   1.862   9.534  0.3407  1.0197 -0.1642
  710MOL0     O93596   1.338   1.867   9.586 -0.4783  0.3867 -0.3795
  710MOL0     C93597   1.448   1.895   9.493  0.0555 -0.2481  0.7206
  710MOL0     C93598   1.509   1.756   9.436  0.0907 -0.6891  0.3828
  710MOL0     C93599   1.657   1.748   9.431  0.6627 -0.2276  0.2526
  710MOL0     C93600   1.718   1.864   9.345 -0.6044 -0.0556  0.3850
  710MOL0     C93601   1.873   1.857   9.340  0.2712  0.0883  1.1110
  710MOL0     C93602   1.926   1.732   9.258 -0.2745 -0.6323 -0.5350
  710MOL0     C93603   2.081   1.747   9.270 -0.4188 -0.4454 -0.0068
  710MOL0     C93604   2.156   1.626   9.208  1.1429 -0.5420 -0.4234
  710MOL0     N93605   2.300   1.647   9.212  0.3092 -1.1987 -0.2593
  710MOL0     C93606   2.396   1.565   9.274 -0.5135  0.5260  0.0574
  710MOL0     C93607   2.510   1.617   9.231  0.0047  0.8483  0.2466
  710MOL0     C93608   2.642   1.570   9.260 -0.0822 -0.2087  0.3709
  710MOL0     C93609   2.695   1.460   9.162 -0.2620  0.2833 -0.3007
  710MOL0     C93610   2.731   1.518   9.021 -0.2422 -0.3206 -0.3156
  710MOL0     C93611   2.729   1.399   8.917 -0.6140 -0.4737  0.3116
  710MOL0     O93612   2.766   1.462   8.797  0.5511  0.4220  0.8376
  710MOL0     C93613   2.891   1.453   8.747 -1.1394  0.2756 -0.1677
  710MOL0     C93614   3.013   1.430   8.815 -0.8535  0.8867 -0.1817
  710MOL0     C93615   3.137   1.409   8.751  0.4850 -0.6302 -1.4326
  710MOL0     C93616   3.141   1.438   8.614  0.0842  0.6435  0.7462
  710MOL0     C93617   3.270   1.425   8.546 -0.3221 -0.9082  0.0513
  710MOL0     O93618   3.376   1.383   8.617 -0.2072  0.4047  0.2134
  710MOL0     C93619   3.497   1.373   8.556 -0.5980  0.0259 -0.5831
  710MOL0     C93620   3.594   1.469   8.583 -0.0015 -0.5897  0.6378
  710MOL0     C93621   3.725   1.452   8.552 -0.8968  0.3302 -0.3504
  710MOL0     C93622   3.764   1.333   8.492 -0.0149  0.8912 -0.1807
  710MOL0     O93623   3.894   1.319   8.460 -0.1042 -0.3630  0.9588
  710MOL0     C93624   3.945   1.188   8.477  0.3749 -0.1100 -0.1370
  710MOL0     C93625   4.087   1.187   8.450 -0.1684 -0.6625 -0.2320
  710MOL0     C93626   4.175   1.277   8.529  1.1753  0.0876 -0.2720
  710MOL0     C93627   4.325   1.283   8.477  0.2513  0.3949 -1.1219
  710MOL0     C93628   4.417   1.336   8.592 -0.0427 -0.7669 -0.3269
  710MOL0     C93629   4.561   1.376   8.561 -0.2722 -0.9394  0.0085
  710MOL0     C93630   4.628   1.401   8.701  0.1324  0.0748 -0.2035
  710MOL0     C93631   4.782   1.404   8.682  0.2265 -0.7304 -0.2988
  710MOL0    Cl93632   4.867   1.441   8.839 -0.3802  0.0530 -0.4785
  710MOL0     C93633   3.669   1.236   8.470  0.5680  0.2607  0.4111
  710MOL0     C93634   3.535   1.250   8.505 -0.0896  0.0129 -0.1852
  710MOL0     O93635   3.267   1.444   8.427  0.1031  0.0016 -0.2885
  710MOL0     C93636   3.026   1.473   8.548  0.4159 -0.2717  0.0240
  710MOL0     C93637   2.904   1.479   8.617 -0.1697 -0.4402 -0.6770
  710MOL0     N93638   2.485   1.726   9.146 -0.5553 -0.0278 -0.4213
  710MOL0     N93639   2.362   1.742   9.137 -0.5616 -0.1907  0.4427
  710MOL0     C93640   1.152   1.949   9.437 -0.4790  0.6591  0.0003
  710MOL0     C93641   1.023   1.917   9.402 -0.2139  0.0542  0.7431
  710MOL0     C93642   0.587   1.762   9.399 -0.1291  0.2639  0.5694
  710MOL0     C93643   0.564   1.852   9.303  0.2583 -0.4076  0.7197
  710MOL0     C93644   0.437   1.871   9.242 -0.4367  0.1875 -0.1039
  710MOL0     C93645   0.328   1.796   9.277  0.5374 -0.6129  0.3924
  710MOL0     O93646   0.211   1.833   9.215  0.3946 -0.0863  0.4546
  710MOL0     C93647   0.095   1.757   9.239 -0.6629 -0.0393  0.3775
  710MOL0     C93648  -0.023   1.833   9.193 -0.2933  0.4876 -0.3037
  710MOL0     C93649  -0.133   1.819   9.300  0.4188 -0.2610  0.7436
  710MOL0     C93650  -0.281   1.841   9.258  1.0141 -0.0073 -0.1083
  710MOL0     C93651  -0.315   1.934   9.154 -0.1052  0.6382 -0.3077
  710MOL0     C93652  -0.337   2.007   9.057  0.0821  0.8680 -0.0968
  710MOL0     C93653   0.352   1.693   9.370 -0.0383  0.1987 -0.3922
  710MOL0     C93654   0.473   1.685   9.439 -0.2166 -0.6719 -0.0844
  710MOL0     H93655   0.961   1.651   9.591  2.1816 -2.1229 -1.1367
  710MOL0     H93656   1.175   1.687   9.660 -1.7008 -1.9464 -0.7712
  710MOL0     H93657   1.530   1.936   9.554  1.0687 -3.0705  1.4160
  710MOL0     H93658   1.413   1.966   9.418  2.0021 -2.1027 -2.1592
  710MOL0     H93659   1.477   1.737   9.333  1.0551  1.2438 -0.3212
  710MOL0     H93660   1.475   1.679   9.507 -0.2259 -1.3710 -0.4949
  710MOL0     H93661   1.675   1.653   9.379 -4.7335 -2.4196  1.6343
  710MOL0     H93662   1.703   1.747   9.530  2.3865 -1.0394 -0.5179
  710MOL0     H93663   1.679   1.873   9.244  0.1331  2.7592  0.2730
  710MOL0     H93664   1.691   1.964   9.381 -0.0486  1.2979 -2.6271
  710MOL0     H93665   1.903   1.853   9.445  0.9159 -1.3139  0.8881
  710MOL0     H93666   1.918   1.953   9.310 -2.1836  0.5397 -1.6537
  710MOL0     H93667   1.889   1.748   9.156 -0.9355  2.5497  0.0893
  710MOL0     H93668   1.898   1.636   9.302  1.4821 -0.7909  0.3218
  710MOL0     H93669   2.110   1.836   9.213 -0.2433 -0.7594 -0.4127
  710MOL0     H93670   2.107   1.749   9.376  0.7585  0.5275 -0.2853
  710MOL0     H93671   2.119   1.612   9.106 -0.7353 -1.3195  0.3281
  710MOL0     H93672   2.123   1.531   9.252  0.8073 -2.2278 -3.9486
  710MOL0     H93673   2.383   1.473   9.331  1.1084 -1.3820 -2.4324
  710MOL0     H93674   2.645   1.531   9.362  1.4826  0.8645  0.7813
  710MOL0     H93675   2.705   1.659   9.249 -0.5036 -0.2755 -4.5462
  710MOL0     H93676   2.623   1.378   9.162  1.2756 -1.1390  0.9759
  710MOL0     H93677   2.787   1.408   9.190 -1.3399 -1.5449 -0.0216
  710MOL0     H93678   2.664   1.598   8.988 -4.0122 -3.4259 -0.7832
  710MOL0     H93679   2.830   1.563   9.036 -0.0385 -0.7622 -0.3180
  710MOL0     H93680   2.629   1.355   8.909 -0.0352 -1.5446 -3.8165
  710MOL0     H93681   2.798   1.325   8.958  0.4544  1.4725  2.2142
  710MOL0     H93682   3.012   1.416   8.922 -0.4595 -2.9129 -0.5217
  710MOL0     H93683   3.225   1.390   8.811 -0.9080 -0.9711  0.6230
  710MOL0     H93684   3.551   1.564   8.612  1.1133 -0.2645  1.2381
  710MOL0     H93685   3.794   1.535   8.566 -2.0901  1.4933 -1.0542
  710MOL0     H93686   3.916   1.123   8.394  2.7062 -2.1051  0.4832
  710MOL0     H93687   3.922   1.150   8.577 -0.6258 -0.4670 -0.4970
  710MOL0     H93688   4.107   1.204   8.344  1.9347  0.5182  0.2955
  710MOL0     H93689   4.124   1.086   8.471 -1.7044 -0.5225  4.0450
  710MOL0     H93690   4.172   1.255   8.636  0.8651  2.3875  0.2607
  710MOL0     H93691   4.143   1.382   8.534  0.4103 -0.1014 -1.0985
  710MOL0     H93692   4.369   1.184   8.460  1.2296  0.3574  1.3120
  710MOL0     H93693   4.327   1.339   8.383 -2.0479 -1.0222 -2.1026
  710MOL0     H93694   4.411   1.253   8.663  2.0555 -2.1622 -1.6724
  710MOL0     H93695   4.371   1.428   8.630 -0.7048 -0.4573 -1.8200
  710MOL0     H93696   4.562   1.470   8.505 -0.4421  2.0851  4.5566
  710MOL0     H93697   4.605   1.302   8.495  0.0158  1.1045 -2.2318
  710MOL0     H93698   4.591   1.491   8.749 -1.5348 -1.2986  1.2181
  710MOL0     H93699   4.615   1.312   8.763  1.0219  1.5282  2.1619
  710MOL0     H93700   4.811   1.490   8.621  3.7749 -2.4573 -1.2930
  710MOL0     H93701   4.823   1.317   8.630 -1.6610 -1.1587 -1.1567
  710MOL0     H93702   3.678   1.136   8.430 -0.9914  0.4328 -0.4558
  710MOL0     H93703   3.462   1.170   8.499 -0.1873  0.1937 -2.4054
  710MOL0     H93704   3.020   1.494   8.442 -1.1857 -1.9797 -0.2674
  710MOL0     H93705   2.812   1.513   8.570 -0.6073  1.6342  1.4916
  710MOL0     H93706   1.217   2.023   9.394  0.8571 -0.6888 -0.3844
  710MOL0     H93707   0.974   1.979   9.328  2.1254 -1.5543 -2.4156
  710MOL0     H93708   0.632   1.925   9.259  0.2651 -1.5602 -1.2859
  710MOL0     H93709   0.431   1.939   9.157  1.8696  2.0972  1.1392
  710MOL0     H93710   0.088   1.741   9.347  1.3625  0.4772  0.6160
  710MOL0     H93711   0.110   1.662   9.186 -0.2037  0.0941  0.2686
  710MOL0     H93712  -0.020   1.937   9.161 -2.1109  0.3308 -1.1205
  710MOL0     H93713  -0.053   1.770   9.108 -1.4492 -1.1186  1.2276
  710MOL0     H93714  -0.105   1.885   9.383  0.9056 -1.7769  1.8179
  710MOL0     H93715  -0.135   1.721   9.347 -0.1729 -0.7699 -0.3042
  710MOL0     H93716  -0.320   1.747   9.220 -2.1661  1.4959 -0.9199
  710MOL0     H93717  -0.341   1.865   9.347  0.0217 -2.1764 -0.1499
  710MOL0     H93718  -0.346   2.048   8.959  0.5819 -4.6598 -2.8989
  710MOL0     H93719   0.273   1.628   9.405  0.3759  0.6694  1.5442
  710MOL0     H93720   0.494   1.613   9.517 -0.7247  0.2126  0.9001
  711MOL0     O93721   0.783  10.220   7.361 -0.0189  0.5695 -0.4154
  711MOL0     C93722   0.718  10.202   7.254 -0.3912  0.0719 -0.7027
  711MOL0     O93723   0.598  10.142   7.244 -0.1391  0.0301  0.5507
  711MOL0     C93724   0.535  10.086   7.352  0.2763  0.3367  1.1196
  711MOL0     C93725   0.401  10.048   7.330 -0.7576  0.7004  0.1388
  711MOL0     C93726   0.317   9.991   7.427 -0.3078  0.1253 -0.0534
  711MOL0     C93727   0.375   9.956   7.550 -0.7921  0.1762 -0.0271
  711MOL0     O93728   0.313   9.889   7.655 -0.3387  0.5174 -0.3017
  711MOL0     C93729   0.178   9.844   7.637 -1.5086 -0.3303  0.8998
  711MOL0     C93730   0.182   9.712   7.566  0.1100 -0.0480  0.5466
  711MOL0     C93731   0.045   9.654   7.538  0.1541  0.3005 -0.2351
  711MOL0     C93732  -0.038   9.606   7.664  0.8046  0.1467  0.0333
  711MOL0     C93733  -0.178   9.570   7.622  0.3733  0.7526  1.1595
  711MOL0     C93734  -0.189   9.435   7.553  0.2320 -0.5134  0.1578
  711MOL0     C93735  -0.324   9.355   7.581  0.4615 -0.2771  0.2108
  711MOL0     C93736  -0.434   9.412   7.498  0.1450  0.4195 -0.2631
  711MOL0     N93737  -0.548   9.320   7.511 -0.3330 -0.2785  0.3541
  711MOL0     C93738  -0.574   9.201   7.454  0.0469  0.1527 -0.3822
  711MOL0     C93739  -0.690   9.152   7.511 -0.3186 -0.4063 -0.6749
  711MOL0     C93740  -0.756   9.016   7.487  0.2066 -0.1987  0.1436
  711MOL0     C93741  -0.908   9.010   7.460 -0.4980 -0.9811  0.2339
  711MOL0     C93742  -1.004   9.062   7.574  0.9361 -0.2864 -0.8809
  711MOL0     C93743  -1.007   8.973   7.701 -0.3044  0.7725 -0.1530
  711MOL0     O93744  -1.108   9.022   7.791  0.5831  0.4236 -0.2454
  711MOL0     C93745  -1.229   8.956   7.783  0.4339 -0.1826  0.4866
  711MOL0     C93746  -1.228   8.818   7.807 -0.5860  0.6072  0.7410
  711MOL0     C93747  -1.349   8.745   7.813  0.5448  0.0230  0.0643
  711MOL0     C93748  -1.475   8.821   7.818  1.2242  0.9802  0.4256
  711MOL0     C93749  -1.609   8.747   7.818  0.7949  0.5381  0.5744
  711MOL0     O93750  -1.720   8.817   7.835  1.1048 -0.7260  0.3559
  711MOL0     C93751  -1.829   8.730   7.861 -1.0442 -0.2709  0.0072
  711MOL0     C93752  -1.904   8.661   7.764  0.1319  0.4095  0.3061
  711MOL0     C93753  -2.002   8.570   7.805  0.6937 -0.2302  0.4517
  711MOL0     C93754  -2.050   8.564   7.939  0.7864 -0.7251  0.0085
  711MOL0     O93755  -2.151   8.484   7.972 -0.1073 -0.1525 -0.5855
  711MOL0     C93756  -2.215   8.519   8.101  0.2293 -0.0517  0.0773
  711MOL0     C93757  -2.352   8.463   8.122  0.0355  0.7763  0.4404
  711MOL0     C93758  -2.401   8.483   8.266 -1.0867  0.0342  0.3259
  711MOL0     C93759  -2.533   8.413   8.304 -0.1896 -0.1430 -0.3017
  711MOL0     C93760  -2.651   8.474   8.223  0.6911 -0.6715  0.3179
  711MOL0     C93761  -2.791   8.403   8.245  0.2678  0.0340  0.2129
  711MOL0     C93762  -2.834   8.389   8.391 -0.0742  0.8691 -0.0471
  711MOL0     C93763  -2.832   8.526   8.464  0.8293  0.3833 -1.2099
  711MOL0    Cl93764  -2.861   8.497   8.634  0.0887 -0.3541 -0.0241
  711MOL0     C93765  -1.986   8.638   8.036  0.0347  0.1118  0.4621
  711MOL0     C93766  -1.884   8.721   7.990 -0.1268 -0.4614 -0.1531
  711MOL0     O93767  -1.600   8.627   7.796  0.2336  0.2571 -0.1925
  711MOL0     C93768  -1.472   8.957   7.793  0.1204 -0.7549 -0.4709
  711MOL0     C93769  -1.348   9.028   7.779  0.5557 -0.1225 -0.0281
  711MOL0     N93770  -0.731   9.250   7.605 -0.7616 -0.1403 -0.7944
  711MOL0     N93771  -0.650   9.348   7.598 -0.4265  0.3786 -0.1323
  711MOL0     C93772   0.516   9.982   7.573  0.2472  0.1391 -0.6616
  711MOL0     C93773   0.585  10.053   7.480  0.3467 -0.6029 -0.2934
  711MOL0     C93774   0.781  10.238   7.119 -0.6711  0.2337  0.5091
  711MOL0     C93775   0.726  10.202   6.997  0.2064 -0.1047  0.2772
  711MOL0     C93776   0.786  10.236   6.874  0.3902  0.8850 -0.7991
  711MOL0     C93777   0.911  10.306   6.867 -0.9113  0.2977 -0.6030
  711MOL0     O93778   0.966  10.339   6.742 -0.5732  0.4735 -0.0740
  711MOL0     C93779   1.080  10.426   6.741  0.3574 -0.2487  0.5481
  711MOL0     C93780   1.116  10.431   6.594 -0.4912  0.1398  0.2810
  711MOL0     C93781   1.248  10.499   6.569 -0.0079  0.7302  0.9857
  711MOL0     C93782   1.370  10.469   6.654 -1.3290 -0.2097 -0.1631
  711MOL0     C93783   1.499  10.496   6.595  0.2120 -0.2683 -0.1978
  711MOL0     C93784   1.598  10.532   6.547 -0.6395  0.5021  0.2459
  711MOL0     C93785   0.975  10.333   6.992 -0.2038 -0.4767  0.6412
  711MOL0     C93786   0.906  10.301   7.114  0.2413 -1.0001 -0.1109
  711MOL0     H93787   0.359  10.077   7.234 -0.1137  0.9093 -0.0821
  711MOL0     H93788   0.216   9.965   7.396 -0.4286  0.6166 -0.0718
  711MOL0     H93789   0.118   9.914   7.577 -0.9540 -0.0515  0.6678
  711MOL0     H93790   0.129   9.842   7.734 -3.0408 -2.4472  0.1745
  711MOL0     H93791   0.246   9.638   7.615  0.8851  0.8776  0.9779
  711MOL0     H93792   0.218   9.738   7.465  0.9359  2.5236  1.4077
  711MOL0     H93793   0.050   9.571   7.467  0.2358 -0.8665  1.0724
  711MOL0     H93794  -0.014   9.735   7.495  0.9623  2.5485  2.5291
  711MOL0     H93795   0.011   9.518   7.707 -0.1591 -0.8836 -0.9008
  711MOL0     H93796  -0.037   9.689   7.735  0.2785  0.3730 -0.2185
  711MOL0     H93797  -0.230   9.651   7.570 -0.6621  0.6081  1.9250
  711MOL0     H93798  -0.233   9.556   7.716  0.3676 -0.3877  1.0083
  711MOL0     H93799  -0.107   9.373   7.589  0.1321 -0.3476  0.6846
  711MOL0     H93800  -0.174   9.438   7.445  0.4638 -2.2364  0.1188
  711MOL0     H93801  -0.301   9.250   7.560 -0.7250 -0.3061 -1.1037
  711MOL0     H93802  -0.351   9.368   7.686  2.4436  2.2706  0.4988
  711MOL0     H93803  -0.396   9.435   7.398  0.0927  4.7518  0.5138
  711MOL0     H93804  -0.468   9.514   7.519  0.6679  0.6176 -0.3600
  711MOL0     H93805  -0.515   9.148   7.379 -2.0871 -1.7230 -0.8297
  711MOL0     H93806  -0.731   8.938   7.559  0.1997 -0.4132 -0.0827
  711MOL0     H93807  -0.712   8.971   7.397 -2.4756  0.3926 -1.5747
  711MOL0     H93808  -0.934   8.908   7.432 -0.3867 -1.1489  0.7369
  711MOL0     H93809  -0.922   9.077   7.375 -2.1964 -1.1210  0.3651
  711MOL0     H93810  -0.976   9.164   7.602 -0.2550 -0.1147 -0.2553
  711MOL0     H93811  -1.107   9.068   7.538  0.9798  1.4080 -0.8112
  711MOL0     H93812  -0.915   8.964   7.758 -1.4175 -0.6030  1.5538
  711MOL0     H93813  -1.031   8.868   7.678  0.0105  0.2228  1.8387
  711MOL0     H93814  -1.139   8.759   7.827  0.1168  1.3016 -0.2484
  711MOL0     H93815  -1.342   8.639   7.837  0.2695 -0.2371 -0.9565
  711MOL0     H93816  -1.880   8.686   7.661 -1.0144  0.4862  0.0369
  711MOL0     H93817  -2.053   8.514   7.726 -0.4556 -0.3921  1.2832
  711MOL0     H93818  -2.231   8.627   8.111 -0.7356 -0.1060 -0.8061
  711MOL0     H93819  -2.155   8.488   8.187 -0.8075  2.3640  1.7938
  711MOL0     H93820  -2.348   8.356   8.101  1.7154  0.9704 -0.4067
  711MOL0     H93821  -2.421   8.516   8.056 -2.2077  0.2080  2.2027
  711MOL0     H93822  -2.406   8.593   8.271  0.4750  0.2282 -1.3615
  711MOL0     H93823  -2.325   8.433   8.325 -1.9475 -1.8470 -0.0988
  711MOL0     H93824  -2.523   8.307   8.280  0.8784  0.2771 -1.8725
  711MOL0     H93825  -2.565   8.435   8.407  0.9318 -1.1241  0.2902
  711MOL0     H93826  -2.627   8.458   8.117 -0.4621 -0.0859 -0.0534
  711MOL0     H93827  -2.665   8.581   8.235 -0.3544 -0.9578  1.9909
  711MOL0     H93828  -2.776   8.307   8.195  1.9918  1.7844 -2.9964
  711MOL0     H93829  -2.865   8.462   8.189  2.0381 -0.8002 -3.3171
  711MOL0     H93830  -2.939   8.360   8.382  0.3531 -1.2776  1.0632
  711MOL0     H93831  -2.772   8.309   8.433  0.5304  0.8257 -1.0130
  711MOL0     H93832  -2.902   8.599   8.422 -1.1172  0.4810  1.9006
  711MOL0     H93833  -2.732   8.569   8.463 -0.3628  3.3548 -1.7270
  711MOL0     H93834  -2.004   8.623   8.142 -0.9599  2.5934  0.7009
  711MOL0     H93835  -1.825   8.764   8.071  0.8170  0.2341 -1.1701
  711MOL0     H93836  -1.570   9.003   7.797 -1.1885 -3.3888  0.6265
  711MOL0     H93837  -1.352   9.137   7.775 -2.3062 -0.1927 -1.7307
  711MOL0     H93838   0.553   9.948   7.670 -1.1047  0.5658  0.0366
  711MOL0     H93839   0.692  10.069   7.496 -0.0984 -0.0180  2.6646
  711MOL0     H93840   0.633  10.147   6.988  1.6757 -2.4746 -1.9982
  711MOL0     H93841   0.725  10.221   6.786  0.3574 -0.9583 -0.5056
  711MOL0     H93842   1.162  10.387   6.801  0.9719  4.0591  2.8781
  711MOL0     H93843   1.069  10.526   6.782  0.0338  0.5951 -1.4809
  711MOL0     H93844   1.104  10.330   6.553 -0.5429  0.0665  0.4683
  711MOL0     H93845   1.038  10.491   6.548 -1.1958  2.0213  3.5825
  711MOL0     H93846   1.236  10.607   6.564 -2.1089  0.4979 -2.5958
  711MOL0     H93847   1.267  10.469   6.466  1.1841 -2.5093  2.0169
  711MOL0     H93848   1.352  10.496   6.759 -3.2466 -2.6092  0.2345
  711MOL0     H93849   1.371  10.361   6.673 -1.3271  0.1701  2.4636
  711MOL0     H93850   1.698  10.556   6.518 -0.5477  1.1166  1.0270
  711MOL0     H93851   1.064  10.395   7.000 -0.1080 -0.6170  0.6564
  711MOL0     H93852   0.940  10.334   7.212 -3.0806 -0.1732  0.9228
  712MOL0     O93853   3.830   9.058   3.717  0.6425  0.5693 -0.4784
  712MOL0     C93854   3.868   9.172   3.708  0.0231 -0.2805  0.6419
  712MOL0     O93855   3.792   9.283   3.732  0.9447  0.1085  0.7795
  712MOL0     C93856   3.665   9.253   3.772 -0.6730 -0.1268 -0.0038
  712MOL0     C93857   3.577   9.239   3.676  0.6893 -0.2886  0.2658
  712MOL0     C93858   3.439   9.225   3.706  0.4426  0.1020  0.6335
  712MOL0     C93859   3.401   9.202   3.837  0.3317 -0.4981  0.1546
  712MOL0     O93860   3.272   9.185   3.879  0.8285  0.7830  0.1692
  712MOL0     C93861   3.164   9.197   3.787  0.0716  0.1888 -0.6178
  712MOL0     C93862   3.034   9.225   3.860 -0.2066  0.2012  0.4850
  712MOL0     C93863   2.916   9.264   3.774  0.1934 -0.7293  0.3619
  712MOL0     C93864   2.801   9.314   3.860 -0.1866  0.0678 -1.2122
  712MOL0     C93865   2.693   9.395   3.789  0.2355  0.1875  0.2865
  712MOL0     C93866   2.609   9.479   3.886 -0.6278  0.3498  0.3776
  712MOL0     C93867   2.475   9.542   3.822  0.6751  0.3961  0.6108
  712MOL0     C93868   2.396   9.616   3.926 -0.0749 -0.2477 -0.2003
  712MOL0     N93869   2.266   9.642   3.864  0.0589  0.4263  0.8885
  712MOL0     C93870   2.178   9.545   3.822 -0.4081 -0.4836  1.1975
  712MOL0     C93871   2.085   9.612   3.741 -0.0711 -0.3102 -0.1819
  712MOL0     C93872   1.949   9.556   3.695 -0.1614 -0.7827 -0.1846
  712MOL0     C93873   1.972   9.453   3.586 -0.1767  0.1530  0.6373
  712MOL0     C93874   1.856   9.412   3.515  0.6919 -0.0305 -0.5046
  712MOL0     C93875   1.869   9.267   3.457 -0.8310  0.2364 -0.0389
  712MOL0     O93876   1.752   9.214   3.393  0.0678 -0.9030 -0.1930
  712MOL0     C93877   1.685   9.295   3.319  0.0924 -0.3184 -0.4224
  712MOL0     C93878   1.739   9.373   3.218  0.9006 -0.9130 -0.8295
  712MOL0     C93879   1.664   9.459   3.143  0.1867 -0.0535  0.3570
  712MOL0     C93880   1.517   9.452   3.152 -0.4426 -0.7191  0.2360
  712MOL0     C93881   1.432   9.532   3.061 -1.2953 -0.1201  0.3464
  712MOL0     O93882   1.303   9.525   3.077  0.4754 -0.1636 -0.1297
  712MOL0     C93883   1.213   9.609   3.012 -0.5189 -0.5584  0.2427
  712MOL0     C93884   1.101   9.648   3.081 -0.3721  0.8349  0.6328
  712MOL0     C93885   0.999   9.735   3.026 -0.1068 -0.6258  0.4218
  712MOL0     C93886   1.007   9.778   2.896 -0.0774 -0.0023  1.1866
  712MOL0     O93887   0.897   9.845   2.854 -0.1200 -0.6559 -0.3995
  712MOL0     C93888   0.893   9.899   2.719 -0.7578 -0.3578 -0.4596
  712MOL0     C93889   0.760   9.973   2.692  0.5447  0.3318  0.0828
  712MOL0     C93890   0.626   9.905   2.741  0.1506  0.0259  0.0912
  712MOL0     C93891   0.505   9.993   2.703  0.4920 -0.2867 -0.1658
  712MOL0     C93892   0.374   9.905   2.713  0.4729 -0.2065 -0.7507
  712MOL0     C93893   0.244  10.000   2.703 -0.6712 -1.2099  0.2728
  712MOL0     C93894   0.112   9.928   2.717 -0.7133 -0.4212 -0.4688
  712MOL0     C93895  -0.013  10.016   2.746  0.5767  0.3918 -0.6008
  712MOL0    Cl93896  -0.170   9.919   2.735 -0.3026  0.0996  0.7570
  712MOL0     C93897   1.120   9.739   2.823 -0.2113  0.0403  0.7304
  712MOL0     C93898   1.215   9.655   2.882 -0.6362 -0.7946  0.1336
  712MOL0     O93899   1.491   9.608   2.988 -0.2479 -0.0066  0.4085
  712MOL0     C93900   1.454   9.364   3.241  0.9890  0.3717  0.5587
  712MOL0     C93901   1.537   9.283   3.323 -1.2934  0.2732  0.4255
  712MOL0     N93902   2.113   9.744   3.754 -0.0148  0.2238  0.1078
  712MOL0     N93903   2.223   9.767   3.820 -0.0247  0.1482  0.5227
  712MOL0     C93904   3.505   9.210   3.927 -0.1967  0.4711  0.7634
  712MOL0     C93905   3.634   9.257   3.903 -0.4431  0.2391  0.5163
  712MOL0     C93906   4.013   9.196   3.690  0.3122 -0.3493  0.0324
  712MOL0     C93907   4.065   9.327   3.690  0.5275  0.2676  0.1801
  712MOL0     C93908   4.205   9.347   3.680 -0.5421 -0.3777 -1.0244
  712MOL0     C93909   4.289   9.237   3.659  0.3556 -0.4503  0.7859
  712MOL0     O93910   4.422   9.228   3.639  0.2780  0.2786  0.6596
  712MOL0     C93911   4.486   9.339   3.580 -0.2500  1.1656  0.0423
  712MOL0     C93912   4.577   9.275   3.470  0.4407  0.4415  0.2087
  712MOL0     C93913   4.662   9.392   3.418 -0.2511 -0.2311 -0.2883
  712MOL0     C93914   4.761   9.339   3.307  0.3199 -0.1391 -0.4231
  712MOL0     C93915   4.870   9.437   3.277  1.4604 -0.0978 -0.1244
  712MOL0     C93916   4.964   9.502   3.251 -0.0705 -0.2956 -0.1799
  712MOL0     C93917   4.230   9.104   3.648  0.8546 -0.1702  0.6449
  712MOL0     C93918   4.095   9.081   3.673  0.7453 -0.0580  0.6635
  712MOL0     H93919   3.613   9.269   3.578 -0.9695  1.3541  0.1008
  712MOL0     H93920   3.371   9.236   3.622  0.9542  1.6614  0.3923
  712MOL0     H93921   3.165   9.098   3.740  0.7044  0.4302 -1.1325
  712MOL0     H93922   3.178   9.279   3.716  2.9044  2.3575  2.1582
  712MOL0     H93923   3.055   9.307   3.929 -1.3676  1.4916 -0.6428
  712MOL0     H93924   3.003   9.142   3.925 -2.8038 -0.4789 -1.4539
  712MOL0     H93925   2.871   9.180   3.720 -0.1709  0.0182 -0.5164
  712MOL0     H93926   2.941   9.346   3.706  2.8577 -1.2105  0.6540
  712MOL0     H93927   2.761   9.230   3.918 -1.1852  1.9678  0.9646
  712MOL0     H93928   2.835   9.382   3.938 -4.3550 -0.2127  1.1364
  712MOL0     H93929   2.638   9.329   3.721  1.2012 -3.1763  2.5224
  712MOL0     H93930   2.754   9.469   3.735  0.8663  0.6568  1.5960
  712MOL0     H93931   2.659   9.554   3.948 -2.2655  0.6756  1.3621
  712MOL0     H93932   2.568   9.406   3.957 -1.0382 -0.1072 -0.3147
  712MOL0     H93933   2.501   9.609   3.739 -1.6474 -0.6347 -1.0390
  712MOL0     H93934   2.420   9.456   3.784 -1.4275  0.2463  3.6579
  712MOL0     H93935   2.440   9.705   3.972 -2.6771  1.0286 -0.0325
  712MOL0     H93936   2.389   9.553   4.015  3.3898 -0.2230  0.2444
  712MOL0     H93937   2.181   9.438   3.841  4.0416 -0.6794  0.3762
  712MOL0     H93938   1.889   9.636   3.650  2.8395  1.5531 -0.3831
  712MOL0     H93939   1.907   9.521   3.790  0.0518  0.2216  0.2971
  712MOL0     H93940   2.030   9.368   3.625 -1.0673 -0.8985 -0.2443
  712MOL0     H93941   2.027   9.511   3.512 -1.0448 -0.8143 -0.8202
  712MOL0     H93942   1.772   9.436   3.581 -0.5648  1.3384 -2.5031
  712MOL0     H93943   1.848   9.482   3.432 -1.7179 -1.6625 -1.7645
  712MOL0     H93944   1.907   9.192   3.527 -0.5356 -1.6439 -2.0941
  712MOL0     H93945   1.941   9.287   3.377 -1.6715  4.8119  0.0979
  712MOL0     H93946   1.847   9.374   3.218  1.0491  1.2853  2.6687
  712MOL0     H93947   1.706   9.540   3.084 -0.3008  0.2062  0.3626
  712MOL0     H93948   1.078   9.608   3.179  2.3836  0.5941  1.2689
  712MOL0     H93949   0.909   9.762   3.080  0.8784 -0.6156  2.1029
  712MOL0     H93950   0.893   9.819   2.644  4.3274  0.8110 -2.0714
  712MOL0     H93951   0.983   9.958   2.704  0.2098 -1.8183 -0.6418
  712MOL0     H93952   0.747   9.988   2.584 -0.7608 -0.8211  0.0473
  712MOL0     H93953   0.766  10.075   2.731 -0.5250 -0.0479  1.3141
  712MOL0     H93954   0.621   9.883   2.848 -4.1049  1.6621  0.4229
  712MOL0     H93955   0.613   9.808   2.690  0.0347  0.4432 -0.6944
  712MOL0     H93956   0.501  10.079   2.769 -1.5150  0.7619 -1.5575
  712MOL0     H93957   0.511  10.035   2.602 -1.7311 -0.1442 -0.2830
  712MOL0     H93958   0.356   9.847   2.804 -2.1898  1.3205 -0.1837
  712MOL0     H93959   0.367   9.840   2.626  0.8445 -2.3905  0.7848
  712MOL0     H93960   0.246  10.043   2.602  1.6594 -2.4971 -0.3091
  712MOL0     H93961   0.265  10.075   2.779  0.6646 -0.4651 -0.7775
  712MOL0     H93962   0.097   9.877   2.622  3.7042 -0.7503 -1.1981
  712MOL0     H93963   0.126   9.850   2.792 -1.2607  1.5796  1.8508
  712MOL0     H93964  -0.020  10.102   2.680 -1.6270 -0.2331 -1.2843
  712MOL0     H93965   0.003  10.051   2.848 -0.9384  2.5665 -1.0497
  712MOL0     H93966   1.124   9.768   2.719 -2.2230 -1.1637  0.2702
  712MOL0     H93967   1.307   9.621   2.835 -0.0057 -0.1409  0.8433
  712MOL0     H93968   1.347   9.372   3.252  0.8632  1.4324 -1.1042
  712MOL0     H93969   1.503   9.210   3.395  0.4020 -0.3773  0.6090
  712MOL0     H93970   3.483   9.198   4.033  0.2287 -5.2255  0.5074
  712MOL0     H93971   3.698   9.281   3.987 -1.6573  0.8797  1.2915
  712MOL0     H93972   3.997   9.410   3.706 -0.1738 -0.0534 -1.0768
  712MOL0     H93973   4.256   9.442   3.671  2.5463 -1.8221 -0.3837
  712MOL0     H93974   4.552   9.388   3.652  0.5954  0.2315 -0.0578
  712MOL0     H93975   4.425   9.412   3.526 -0.3503  0.1287 -1.3097
  712MOL0     H93976   4.638   9.200   3.522 -0.3668 -0.1762  0.2791
  712MOL0     H93977   4.514   9.231   3.393 -0.7860  1.5558  0.5491
  712MOL0     H93978   4.731   9.430   3.494 -1.3101 -0.6295  0.9043
  712MOL0     H93979   4.601   9.473   3.378 -1.3323  0.1440  1.9587
  712MOL0     H93980   4.806   9.243   3.334 -0.5861 -1.6099 -3.6307
  712MOL0     H93981   4.695   9.309   3.225 -2.6014 -0.7412  1.9677
  712MOL0     H93982   5.055   9.551   3.225 -1.7738  1.6856 -2.8824
  712MOL0     H93983   4.303   9.025   3.629 -0.6223 -1.6272  0.8208
  712MOL0     H93984   4.061   8.978   3.666  1.9588 -0.6004  2.2082
  713MOL0     O93985   8.417   6.958   8.352 -0.4678 -0.1836 -0.6270
  713MOL0     C93986   8.366   6.919   8.460  0.4104  0.1308 -0.2843
  713MOL0     O93987   8.428   6.847   8.560  0.1900  0.9915 -0.6258
  713MOL0     C93988   8.558   6.803   8.538  0.1494  0.2017  0.6682
  713MOL0     C93989   8.601   6.700   8.619 -0.8008  1.1128 -0.0221
  713MOL0     C93990   8.731   6.645   8.608 -0.6487 -0.2800 -0.3304
  713MOL0     C93991   8.826   6.699   8.515  0.6832  1.0548 -0.1654
  713MOL0     O93992   8.958   6.651   8.519  0.1900 -0.6352  0.0109
  713MOL0     C93993   9.048   6.737   8.443  0.4023  0.4495  0.0379
  713MOL0     C93994   9.182   6.668   8.437  0.6360  0.5544 -0.3710
  713MOL0     C93995   9.237   6.649   8.581  0.5021 -0.4535  0.0242
  713MOL0     C93996   9.382   6.690   8.586 -0.0566  0.0684  0.6262
  713MOL0     C93997   9.474   6.572   8.551 -0.1553  0.0154 -0.2716
  713MOL0     C93998   9.502   6.549   8.396 -0.5262 -0.5780 -0.5770
  713MOL0     C93999   9.595   6.651   8.339  0.2006 -0.5248 -0.1238
  713MOL0     C94000   9.643   6.613   8.198 -0.2704 -0.5415 -0.6682
  713MOL0     N94001   9.539   6.617   8.099 -0.2447  0.8947 -0.3363
  713MOL0     C94002   9.443   6.716   8.089 -0.3131 -1.2168  0.2520
  713MOL0     C94003   9.352   6.657   8.004  0.4872  1.1372  0.2880
  713MOL0     C94004   9.224   6.708   7.964  0.4860 -0.2386  0.0627
  713MOL0     C94005   9.114   6.688   8.066  0.0732  0.7322  0.5152
  713MOL0     C94006   9.063   6.544   8.047 -0.2785  0.7997  0.1361
  713MOL0     C94007   8.959   6.517   8.154 -0.2212  0.0788  0.7952
  713MOL0     O94008   8.847   6.595   8.115  0.4085 -0.3948  0.4004
  713MOL0     C94009   8.727   6.570   8.183 -0.3119 -0.1863  0.7624
  713MOL0     C94010   8.711   6.498   8.293 -0.4581  0.1356  0.5483
  713MOL0     C94011   8.588   6.475   8.357 -0.8203 -0.1580 -0.2309
  713MOL0     C94012   8.469   6.535   8.312 -0.4631 -0.2191  0.3910
  713MOL0     C94013   8.339   6.515   8.380  0.0335  0.1914  0.1215
  713MOL0     O94014   8.231   6.581   8.336 -0.0066 -0.3689 -0.2433
  713MOL0     C94015   8.094   6.544   8.370  0.0337 -0.0820  0.6428
  713MOL0     C94016   8.000   6.638   8.348  0.3539  0.7530 -0.3569
  713MOL0     C94017   7.865   6.620   8.363 -1.0446 -0.0434  0.1020
  713MOL0     C94018   7.815   6.505   8.409  1.3104  0.3561  0.2635
  713MOL0     O94019   7.678   6.486   8.406 -0.1456 -0.2215  0.4181
  713MOL0     C94020   7.614   6.453   8.527 -0.4832  0.1628 -0.0158
  713MOL0     C94021   7.461   6.470   8.505  0.0283 -0.0123 -0.7702
  713MOL0     C94022   7.361   6.420   8.611 -0.4560 -1.2049 -0.9993
  713MOL0     C94023   7.222   6.433   8.544 -0.7140 -0.0891 -0.5557
  713MOL0     C94024   7.121   6.345   8.608 -0.2303  0.7196 -0.0482
  713MOL0     C94025   7.082   6.402   8.753 -0.0195  0.3868  0.1196
  713MOL0     C94026   6.928   6.398   8.782 -0.0114  0.8087  0.2972
  713MOL0     C94027   6.896   6.439   8.921  0.0781 -0.5247 -0.3627
  713MOL0    Cl94028   6.959   6.336   9.053  0.4082  0.2827  0.0099
  713MOL0     C94029   7.908   6.408   8.448 -0.1019 -0.4920  0.2714
  713MOL0     C94030   8.047   6.420   8.417  1.0701 -0.3722 -0.0699
  713MOL0     O94031   8.335   6.431   8.469 -0.3883 -0.0472  0.2772
  713MOL0     C94032   8.485   6.630   8.203  0.4163  0.6397  0.3327
  713MOL0     C94033   8.610   6.637   8.135 -0.0398 -1.2453 -0.8289
  713MOL0     N94034   9.396   6.532   7.965 -0.1431  0.1291  0.6421
  713MOL0     N94035   9.511   6.509   8.025  0.0340  0.7170  0.1752
  713MOL0     C94036   8.775   6.801   8.431 -0.3357 -0.0182 -0.0144
  713MOL0     C94037   8.651   6.852   8.445  0.1793 -0.1230 -0.2197
  713MOL0     C94038   8.234   6.968   8.481 -0.1431 -0.9178  0.2481
  713MOL0     C94039   8.179   7.070   8.400  0.4927  0.5602 -0.2071
  713MOL0     C94040   8.044   7.117   8.426 -0.3274 -0.7041 -0.6958
  713MOL0     C94041   7.966   7.074   8.533  0.6936 -0.4593  0.8803
  713MOL0     O94042   7.834   7.122   8.533  0.3014  0.1100  0.0656
  713MOL0     C94043   7.737   7.043   8.612  0.1348  0.0801  0.6109
  713MOL0     C94044   7.596   7.070   8.564  0.3011 -0.8161 -0.6817
  713MOL0     C94045   7.498   6.995   8.643 -0.1980  0.1219 -0.4907
  713MOL0     C94046   7.362   7.057   8.616  0.5238  0.7091 -0.2262
  713MOL0     C94047   7.261   6.962   8.681 -0.0709  0.2365 -0.3733
  713MOL0     C94048   7.182   6.888   8.728 -0.1486  0.6381 -0.1521
  713MOL0     C94049   8.028   6.979   8.610  0.2663  0.8619 -0.2398
  713MOL0     C94050   8.155   6.923   8.587 -0.6655  0.4713 -0.0517
  713MOL0     H94051   8.535   6.655   8.693  1.1814 -3.8243 -0.8885
  713MOL0     H94052   8.774   6.578   8.681 -0.5737  2.5920  2.4601
  713MOL0     H94053   9.076   6.835   8.482 -0.6486  1.1724 -0.9701
  713MOL0     H94054   9.013   6.739   8.339 -1.2521  1.8231  0.5744
  713MOL0     H94055   9.244   6.727   8.369  2.5769 -1.3250 -0.3034
  713MOL0     H94056   9.176   6.574   8.383 -0.3691  0.7473 -0.6147
  713MOL0     H94057   9.220   6.546   8.614  0.2542 -0.5744 -0.4654
  713MOL0     H94058   9.175   6.714   8.644  1.6355  1.1388 -0.4344
  713MOL0     H94059   9.414   6.771   8.519  0.9182  0.2062  1.2382
  713MOL0     H94060   9.407   6.714   8.689  1.0404  1.6684  0.0199
  713MOL0     H94061   9.429   6.480   8.589 -1.3590 -0.4162 -2.5019
  713MOL0     H94062   9.573   6.590   8.592  0.9225 -2.4290 -1.5397
  713MOL0     H94063   9.412   6.548   8.334 -0.6444 -0.2040 -0.4148
  713MOL0     H94064   9.547   6.450   8.388 -3.3702 -2.3138  2.1840
  713MOL0     H94065   9.549   6.750   8.345  3.7073  1.2921 -0.8229
  713MOL0     H94066   9.685   6.656   8.400 -0.5513  1.7384  0.8943
  713MOL0     H94067   9.697   6.518   8.194  1.4471 -0.0298  3.7292
  713MOL0     H94068   9.721   6.687   8.177 -2.8067  2.9538  1.1580
  713MOL0     H94069   9.441   6.815   8.135 -2.2343 -0.8590 -0.5156
  713MOL0     H94070   9.199   6.665   7.867  0.9215 -3.8262  1.4138
  713MOL0     H94071   9.230   6.815   7.941  1.0107 -0.6861 -2.0626
  713MOL0     H94072   9.028   6.748   8.036  0.2584  0.1315 -1.3671
  713MOL0     H94073   9.156   6.717   8.162  1.3835  0.7895 -0.0555
  713MOL0     H94074   9.018   6.525   7.949  2.5281 -2.5168 -0.7198
  713MOL0     H94075   9.144   6.471   8.040 -0.4556  0.7174 -1.4109
  713MOL0     H94076   8.994   6.551   8.252  0.5237  2.5813 -0.2763
  713MOL0     H94077   8.929   6.411   8.152 -1.8850  0.5098 -1.9076
  713MOL0     H94078   8.797   6.442   8.328 -0.2560 -0.2226 -0.4698
  713MOL0     H94079   8.588   6.414   8.446  1.8312  1.0483  0.7148
  713MOL0     H94080   8.026   6.732   8.300  1.4726 -1.0282 -3.5220
  713MOL0     H94081   7.801   6.699   8.324 -1.2832 -2.0135 -4.0969
  713MOL0     H94082   7.664   6.518   8.599  2.9201  1.2942 -3.1074
  713MOL0     H94083   7.615   6.345   8.546 -0.2316  0.4097  1.4196
  713MOL0     H94084   7.438   6.425   8.408 -1.4874  1.9140 -1.3726
  713MOL0     H94085   7.434   6.576   8.493 -2.4636 -0.7243 -2.2383
  713MOL0     H94086   7.362   6.464   8.711  0.8042 -0.7340 -1.1989
  713MOL0     H94087   7.385   6.317   8.637  2.9080 -0.2130  0.3524
  713MOL0     H94088   7.188   6.537   8.550  0.2611  0.1574  2.2169
  713MOL0     H94089   7.226   6.407   8.438 -1.2231  0.8728 -0.8241
  713MOL0     H94090   7.162   6.244   8.611 -1.9001  0.0331  0.8969
  713MOL0     H94091   7.035   6.346   8.541 -2.1605  0.2391  2.2935
  713MOL0     H94092   7.127   6.502   8.755  0.4240  0.3854 -3.5105
  713MOL0     H94093   7.126   6.339   8.831  0.9590 -0.7636 -1.3096
  713MOL0     H94094   6.880   6.461   8.707 -0.1670 -1.1212 -1.2999
  713MOL0     H94095   6.888   6.298   8.765  0.5040  0.8325 -1.2203
  713MOL0     H94096   6.787   6.437   8.922 -0.0247  1.7900  0.3327
  713MOL0     H94097   6.924   6.544   8.936 -0.3206  0.2229 -4.0499
  713MOL0     H94098   7.869   6.311   8.479 -1.9479 -0.8107 -2.6494
  713MOL0     H94099   8.118   6.341   8.443  1.7082  0.0148 -0.5846
  713MOL0     H94100   8.397   6.694   8.195 -0.7502 -0.1647  4.4665
  713MOL0     H94101   8.627   6.708   8.054 -3.0890  0.3988 -0.1898
  713MOL0     H94102   8.835   6.839   8.349  0.4725 -1.4761 -0.1213
  713MOL0     H94103   8.639   6.940   8.381  0.9082 -0.1881 -0.4598
  713MOL0     H94104   8.233   7.112   8.316 -0.8910  0.4415 -1.1825
  713MOL0     H94105   7.995   7.188   8.360  3.0529  0.9522 -1.6489
  713MOL0     H94106   7.755   7.086   8.711  3.6633 -1.2334  0.7005
  713MOL0     H94107   7.764   6.937   8.615 -2.6354 -0.6748  1.0820
  713MOL0     H94108   7.584   7.179   8.567  1.2138 -0.6815  2.4392
  713MOL0     H94109   7.587   7.040   8.460  0.1497  1.8259 -1.5067
  713MOL0     H94110   7.518   7.018   8.748 -0.2165 -0.1782 -0.4236
  713MOL0     H94111   7.490   6.888   8.626  0.0176  0.3210 -1.9910
  713MOL0     H94112   7.353   7.159   8.653 -1.8656  0.3388  0.3935
  713MOL0     H94113   7.344   7.066   8.509  0.6438 -0.9670 -0.4187
  713MOL0     H94114   7.115   6.813   8.765  2.0825 -1.5723 -0.3011
  713MOL0     H94115   7.965   6.944   8.691 -0.1362 -3.5939 -2.1737
  713MOL0     H94116   8.186   6.852   8.664  1.4581 -1.7020 -2.7187
  714MOL0     O94117   1.095   3.225   0.397  0.0677  0.2641 -0.9104
  714MOL0     C94118   1.171   3.202   0.310 -0.0153  0.3046 -0.1442
  714MOL0     O94119   1.173   3.095   0.224  0.0835 -0.2531 -0.4582
  714MOL0     C94120   1.049   3.024   0.230  0.3483 -0.0930  0.0738
  714MOL0     C94121   0.923   3.077   0.186 -0.0360  0.9778  0.5614
  714MOL0     C94122   0.816   2.994   0.165 -0.5614  0.9088 -0.6437
  714MOL0     C94123   0.827   2.854   0.186 -0.0422 -0.7056 -0.8597
  714MOL0     O94124   0.711   2.792   0.165 -0.2087 -0.0795 -0.0822
  714MOL0     C94125   0.711   2.651   0.163  0.2022 -1.0477 -0.5138
  714MOL0     C94126   0.597   2.603   0.066 -0.0402 -0.5718 -0.3260
  714MOL0     C94127   0.468   2.662   0.110  0.5527  0.6652  0.0326
  714MOL0     C94128   0.348   2.619   0.030  0.8302 -0.1481  0.2198
  714MOL0     C94129   0.227   2.694   0.069 -0.1379 -0.1615  0.3194
  714MOL0     C94130   0.185   2.683   0.214 -0.4628 -0.0278  0.1697
  714MOL0     C94131   0.064   2.761   0.254  0.2265  0.7184 -0.1846
  714MOL0     C94132  -0.058   2.745   0.160 -0.8111  0.8046 -0.1578
  714MOL0     N94133  -0.118   2.609   0.179  0.2372  0.1485  0.2324
  714MOL0     C94134  -0.250   2.583   0.201 -0.6254  0.1547 -0.0035
  714MOL0     C94135  -0.267   2.452   0.185  0.2650 -0.6559  0.6885
  714MOL0     C94136  -0.401   2.384   0.193 -0.0728  0.5273  0.6017
  714MOL0     C94137  -0.443   2.361   0.341  0.1806 -0.4915  0.0141
  714MOL0     C94138  -0.596   2.341   0.339  0.3010 -0.2301  0.2221
  714MOL0     C94139  -0.647   2.274   0.470  0.2793  0.0404 -0.8530
  714MOL0     O94140  -0.796   2.287   0.468 -0.1439 -0.0664 -0.2583
  714MOL0     C94141  -0.847   2.404   0.527 -0.7738  0.6338  0.0697
  714MOL0     C94142  -0.778   2.515   0.568 -0.0823  0.5534  0.3777
  714MOL0     C94143  -0.831   2.622   0.638 -0.2844 -0.1770 -0.0735
  714MOL0     C94144  -0.970   2.623   0.669 -0.0352  0.1056  0.3794
  714MOL0     C94145  -1.023   2.732   0.734  0.9620  0.1471 -0.9008
  714MOL0     O94146  -0.947   2.840   0.760 -0.5000 -0.6030 -0.7471
  714MOL0     C94147  -1.002   2.946   0.826 -0.0487 -0.7043 -1.1634
  714MOL0     C94148  -0.957   2.972   0.953  0.1150 -0.5737 -0.2362
  714MOL0     C94149  -0.991   3.089   1.024 -0.1510 -0.1642 -0.6205
  714MOL0     C94150  -1.086   3.181   0.973  0.7071  0.4838 -0.3447
  714MOL0     O94151  -1.111   3.298   1.038  0.1294  0.4787  0.5290
  714MOL0     C94152  -1.208   3.395   0.997 -0.2614  0.3357  0.0157
  714MOL0     C94153  -1.209   3.518   1.089  0.0283  0.3321 -0.1146
  714MOL0     C94154  -1.076   3.592   1.101 -0.6387 -0.4572 -0.2739
  714MOL0     C94155  -1.013   3.654   0.964  0.8185 -0.4200 -0.7407
  714MOL0     C94156  -0.880   3.730   0.991  0.6160 -0.0657  0.4365
  714MOL0     C94157  -0.808   3.785   0.865 -0.3385 -0.7310 -0.2272
  714MOL0     C94158  -0.691   3.696   0.825  0.0077  0.5072 -0.1299
  714MOL0     C94159  -0.648   3.698   0.678 -0.0554  0.9129  0.8225
  714MOL0    Cl94160  -0.616   3.863   0.639  0.0612  0.3030  0.0647
  714MOL0     C94161  -1.151   3.142   0.853  0.3926 -1.0422 -0.7170
  714MOL0     C94162  -1.112   3.027   0.781  0.2042  0.1850  0.4740
  714MOL0     O94163  -1.146   2.731   0.763  0.2045  0.2370  0.7634
  714MOL0     C94164  -1.046   2.522   0.605 -0.3815  0.4104  0.2435
  714MOL0     C94165  -0.989   2.409   0.539 -0.1195  0.3262 -0.8128
  714MOL0     N94166  -0.149   2.397   0.153 -0.3430 -0.1424 -0.5969
  714MOL0     N94167  -0.058   2.494   0.138  0.2743  0.3811  0.6242
  714MOL0     C94168   0.944   2.802   0.235  0.1711  0.2459 -0.5141
  714MOL0     C94169   1.061   2.885   0.243  0.2909  0.0822 -0.9350
  714MOL0     C94170   1.269   3.317   0.288  0.1956 -0.2935  0.4355
  714MOL0     C94171   1.342   3.308   0.166 -0.0462 -0.2690 -0.7254
  714MOL0     C94172   1.432   3.406   0.132 -0.6881  0.4574 -0.1376
  714MOL0     C94173   1.462   3.510   0.216 -0.5128 -0.3844 -0.7048
  714MOL0     O94174   1.560   3.596   0.184  1.1153 -1.3506  0.4450
  714MOL0     C94175   1.676   3.585   0.261 -0.6515 -0.5991  0.5959
  714MOL0     C94176   1.783   3.688   0.214 -0.1576  0.0678  0.1514
  714MOL0     C94177   1.729   3.816   0.158  0.0120 -0.4914 -0.2000
  714MOL0     C94178   1.656   3.900   0.265  0.7393 -0.1511 -0.6039
  714MOL0     C94179   1.604   4.026   0.218 -0.2333 -0.8207  0.3550
  714MOL0     C94180   1.544   4.130   0.193  0.5843  0.4223 -0.7419
  714MOL0     C94181   1.386   3.531   0.321  0.1776 -0.4188  0.0123
  714MOL0     C94182   1.281   3.435   0.354 -0.6507  0.5223  0.5160
  714MOL0     H94183   0.913   3.182   0.162 -2.3104 -0.0092 -3.9672
  714MOL0     H94184   0.720   3.032   0.134 -0.2442  3.1868  0.9473
  714MOL0     H94185   0.681   2.612   0.261 -5.0205  3.2273  0.0538
  714MOL0     H94186   0.797   2.599   0.121 -0.6800 -2.0484 -1.1517
  714MOL0     H94187   0.585   2.494   0.071 -4.2767 -0.2376  1.0851
  714MOL0     H94188   0.611   2.634  -0.037 -0.3581 -1.2627 -0.5862
  714MOL0     H94189   0.485   2.770   0.102  0.4479  0.5487 -2.1767
  714MOL0     H94190   0.440   2.635   0.213  1.3571 -1.6074 -0.2882
  714MOL0     H94191   0.376   2.645  -0.073  2.7817  0.5995  0.8856
  714MOL0     H94192   0.316   2.515   0.040 -0.6085 -0.0627 -2.4928
  714MOL0     H94193   0.148   2.648   0.009 -2.4313  0.6307  2.5064
  714MOL0     H94194   0.232   2.799   0.039 -0.5684  0.1257  1.1837
  714MOL0     H94195   0.260   2.709   0.289 -0.1159 -0.4008 -0.0427
  714MOL0     H94196   0.161   2.577   0.222 -1.5617  0.2500  0.5994
  714MOL0     H94197   0.044   2.736   0.359 -3.2225  2.4955 -0.2735
  714MOL0     H94198   0.088   2.868   0.252  0.2529  0.7236  0.2759
  714MOL0     H94199  -0.020   2.762   0.059 -0.0962  0.8923  0.1157
  714MOL0     H94200  -0.133   2.821   0.183  0.6662  1.7973  1.6654
  714MOL0     H94201  -0.322   2.660   0.229  1.1397  1.4915  1.1170
  714MOL0     H94202  -0.384   2.286   0.148  2.5682  0.1406  2.2358
  714MOL0     H94203  -0.476   2.443   0.139  0.6931  2.1936  1.2976
  714MOL0     H94204  -0.412   2.446   0.402  0.3031 -2.4356  2.8242
  714MOL0     H94205  -0.399   2.276   0.394  0.5787  0.9903  2.1888
  714MOL0     H94206  -0.636   2.442   0.329 -1.8360 -0.9878  0.6097
  714MOL0     H94207  -0.633   2.278   0.257  0.5679 -1.1895  0.8187
  714MOL0     H94208  -0.608   2.311   0.565 -4.3477  0.7493  0.9985
  714MOL0     H94209  -0.626   2.166   0.476 -2.3806 -0.4865  0.0136
  714MOL0     H94210  -0.671   2.521   0.549  0.3703 -1.5914  1.8209
  714MOL0     H94211  -0.766   2.705   0.664  1.8962 -1.6163 -0.6382
  714MOL0     H94212  -0.878   2.909   0.994  0.2002  1.0697  2.3674
  714MOL0     H94213  -0.941   3.099   1.120  0.8249 -1.7127 -0.9170
  714MOL0     H94214  -1.305   3.345   1.004  0.7168 -1.5309  0.9171
  714MOL0     H94215  -1.188   3.421   0.893 -0.3902 -1.6026 -0.5224
  714MOL0     H94216  -1.249   3.486   1.185  1.4740  2.8419  1.4318
  714MOL0     H94217  -1.279   3.592   1.049 -1.6629 -0.7733  0.6650
  714MOL0     H94218  -1.010   3.513   1.138 -2.2427 -2.1985 -0.9541
  714MOL0     H94219  -1.097   3.672   1.173 -2.8715  2.2390 -3.5498
  714MOL0     H94220  -1.000   3.568   0.897  0.3476 -0.3159 -0.9731
  714MOL0     H94221  -1.078   3.724   0.911 -0.1718  1.8686  3.1023
  714MOL0     H94222  -0.806   3.673   1.048  2.1343  0.4409 -0.9342
  714MOL0     H94223  -0.913   3.816   1.050  0.3877  0.1270  0.0343
  714MOL0     H94224  -0.759   3.879   0.890  0.6444 -0.1110 -3.9245
  714MOL0     H94225  -0.881   3.798   0.784 -1.1582 -0.7823  0.4807
  714MOL0     H94226  -0.602   3.715   0.886  0.0175 -1.7698  0.6385
  714MOL0     H94227  -0.711   3.591   0.850  2.9983  0.1151  1.0124
  714MOL0     H94228  -0.731   3.660   0.619  1.0757  1.4809 -1.2121
  714MOL0     H94229  -0.561   3.633   0.661 -0.5897  0.7245 -1.3888
  714MOL0     H94230  -1.224   3.213   0.814  1.3258  0.7104  0.6156
  714MOL0     H94231  -1.151   3.008   0.681  0.2156 -1.7932  0.8122
  714MOL0     H94232  -1.154   2.525   0.613 -0.6901 -2.0509 -2.0464
  714MOL0     H94233  -1.048   2.325   0.504 -1.0154  0.1188  1.0901
  714MOL0     H94234   0.952   2.697   0.263  0.2831  0.8450  1.9636
  714MOL0     H94235   1.158   2.846   0.272 -0.1824  0.1210  0.7703
  714MOL0     H94236   1.331   3.224   0.099 -0.2932 -1.9621  1.3415
  714MOL0     H94237   1.502   3.396   0.049  1.7056 -2.8164  2.0033
  714MOL0     H94238   1.728   3.490   0.246  3.3556  1.4202  0.1351
  714MOL0     H94239   1.661   3.591   0.369 -1.7012  3.7534  0.3930
  714MOL0     H94240   1.848   3.714   0.298 -1.0078 -0.5389  1.0189
  714MOL0     H94241   1.851   3.654   0.135 -0.1452  1.5969 -0.5394
  714MOL0     H94242   1.662   3.802   0.073 -1.6840 -1.7036  1.2865
  714MOL0     H94243   1.813   3.880   0.128 -0.0859 -0.5841 -0.6794
  714MOL0     H94244   1.570   3.853   0.314 -1.6732  2.4997 -2.0456
  714MOL0     H94245   1.727   3.917   0.347 -0.9632 -0.2589  0.9624
  714MOL0     H94246   1.504   4.228   0.180  2.2998  1.0036 -2.0663
  714MOL0     H94247   1.381   3.621   0.381 -1.7883 -0.2115 -0.4086
  714MOL0     H94248   1.215   3.464   0.435 -0.8296 -0.5108  0.7473
  715MOL0     O94249  10.781   4.309   2.849 -0.0270 -0.0206 -0.0060
  715MOL0     C94250  10.815   4.278   2.965 -0.0229  0.1067 -0.3758
  715MOL0     O94251  10.747   4.304   3.082  0.4549  0.4758  0.6462
  715MOL0     C94252  10.614   4.348   3.074 -0.7050 -0.1008  0.8152
  715MOL0     C94253  10.522   4.277   2.993 -0.0187 -0.0938 -0.3675
  715MOL0     C94254  10.390   4.328   2.983 -0.1599 -0.1604 -0.0848
  715MOL0     C94255  10.342   4.433   3.068 -0.2115  0.4012 -0.3798
  715MOL0     O94256  10.220   4.479   3.046  0.3814 -0.7028  0.1567
  715MOL0     C94257  10.144   4.538   3.151  0.4775  0.3321  0.3321
  715MOL0     C94258  10.008   4.589   3.091  0.0516  0.2272 -0.2870
  715MOL0     C94259   9.913   4.625   3.202  0.6853 -1.0336  0.0514
  715MOL0     C94260   9.786   4.683   3.133 -0.0952  0.3743  0.1545
  715MOL0     C94261   9.692   4.720   3.248 -0.1961  0.2419  0.2585
  715MOL0     C94262   9.565   4.793   3.205 -0.4537 -0.0145 -0.1640
  715MOL0     C94263   9.483   4.805   3.332  0.3786  0.1697  1.6232
  715MOL0     C94264   9.387   4.683   3.335 -0.9211  0.1315 -0.0609
  715MOL0     N94265   9.287   4.695   3.439  0.1822  0.3166  0.4095
  715MOL0     C94266   9.179   4.785   3.440  0.2867 -0.1574  1.1441
  715MOL0     C94267   9.112   4.743   3.548 -0.5891  0.1505  0.0062
  715MOL0     C94268   8.985   4.803   3.594 -1.0512 -0.0892 -0.8526
  715MOL0     C94269   8.866   4.763   3.505  0.1539 -0.0185  0.1198
  715MOL0     C94270   8.874   4.804   3.354 -0.7518  0.0990  0.0754
  715MOL0     C94271   8.740   4.835   3.299  0.6592  0.3941  0.6504
  715MOL0     O94272   8.686   4.963   3.347  0.2970  0.7485  0.6942
  715MOL0     C94273   8.549   4.983   3.341  0.0312 -0.7768  0.5330
  715MOL0     C94274   8.475   4.900   3.263  0.5354 -0.4371 -0.0316
  715MOL0     C94275   8.340   4.923   3.262 -0.4216  0.0910 -0.1915
  715MOL0     C94276   8.276   5.031   3.326  0.7794  0.3883 -0.2244
  715MOL0     C94277   8.133   5.054   3.303 -0.1647  0.0925 -0.3593
  715MOL0     O94278   8.069   4.954   3.232 -0.1093 -0.9460 -0.7564
  715MOL0     C94279   7.945   4.965   3.189  0.1480  0.9058 -0.3389
  715MOL0     C94280   7.863   5.082   3.163 -1.1429 -0.0116  0.3626
  715MOL0     C94281   7.729   5.069   3.126  0.5787  0.2283 -0.8478
  715MOL0     C94282   7.671   4.948   3.101 -0.4598  0.0768  0.9872
  715MOL0     O94283   7.542   4.935   3.052 -0.6345  0.3269  0.1444
  715MOL0     C94284   7.512   5.004   2.926  0.5483 -0.4442 -1.5214
  715MOL0     C94285   7.407   4.924   2.849  0.9262 -0.3964 -0.5141
  715MOL0     C94286   7.391   4.953   2.700  0.1480 -0.9150  0.4070
  715MOL0     C94287   7.287   4.860   2.640  0.4326 -0.2078  0.4030
  715MOL0     C94288   7.259   4.880   2.489 -0.1948 -0.6142 -0.1774
  715MOL0     C94289   7.154   4.781   2.439  0.2141 -0.7842  0.2501
  715MOL0     C94290   7.022   4.781   2.510 -0.4926 -1.0590  0.5373
  715MOL0     C94291   6.950   4.922   2.514 -0.6523 -0.4454 -0.5456
  715MOL0    Cl94292   6.807   4.915   2.624  0.2883 -0.4727  0.5238
  715MOL0     C94293   7.743   4.828   3.121 -0.6071  0.3537 -0.4655
  715MOL0     C94294   7.875   4.843   3.160  0.5160  0.3599  0.1227
  715MOL0     O94295   8.082   5.158   3.338  0.1425 -0.6416  0.4022
  715MOL0     C94296   8.348   5.118   3.402 -0.7710  0.1974  0.2234
  715MOL0     C94297   8.485   5.090   3.405  0.4328  0.4030 -0.2395
  715MOL0     N94298   9.172   4.636   3.606 -0.3428  0.8267 -0.6328
  715MOL0     N94299   9.282   4.605   3.539  0.3487  0.0856  0.6328
  715MOL0     C94300  10.434   4.481   3.164  0.2541 -0.4938 -0.5375
  715MOL0     C94301  10.565   4.449   3.154 -0.4180 -0.9252  0.8328
  715MOL0     C94302  10.958   4.244   2.980  0.3422  0.1174 -0.3513
  715MOL0     C94303  11.022   4.186   2.864 -0.2675 -0.1528 -1.2020
  715MOL0     C94304  11.161   4.156   2.868 -0.0971  1.0683 -0.9656
  715MOL0     C94305  11.240   4.157   2.990  1.0789  0.1383 -0.2866
  715MOL0     O94306  11.370   4.124   2.974  0.5333 -0.0300 -0.2688
  715MOL0     C94307  11.445   4.234   3.022 -0.6837 -0.1950  0.3720
  715MOL0     C94308  11.501   4.313   2.903 -0.2781  0.3658  0.2778
  715MOL0     C94309  11.610   4.243   2.825 -0.0537  0.0288  0.0511
  715MOL0     C94310  11.563   4.139   2.727 -0.1449  1.1927 -0.5996
  715MOL0     C94311  11.586   4.003   2.781  0.3684 -0.9163 -0.5590
  715MOL0     C94312  11.613   3.888   2.813 -0.2198 -0.7159  0.0403
  715MOL0     C94313  11.168   4.191   3.113 -0.1596  1.3592 -0.2316
  715MOL0     C94314  11.031   4.240   3.102  0.2515  0.7185 -0.0035
  715MOL0     H94315  10.569   4.197   2.938  2.7260  1.9567 -1.2536
  715MOL0     H94316  10.310   4.288   2.921 -0.2184  0.2709 -0.2890
  715MOL0     H94317  10.199   4.621   3.196  2.3413 -0.1927 -0.8496
  715MOL0     H94318  10.129   4.469   3.235  0.6083 -0.3782 -0.2124
  715MOL0     H94319   9.959   4.516   3.026  0.1914 -0.6805  0.6049
  715MOL0     H94320  10.022   4.681   3.032  0.7154  0.3771  0.0903
  715MOL0     H94321   9.946   4.701   3.274 -0.0971 -0.1416 -0.5051
  715MOL0     H94322   9.882   4.539   3.262  1.9492 -0.3936  1.6907
  715MOL0     H94323   9.812   4.771   3.073  1.3778  0.0601  0.2864
  715MOL0     H94324   9.736   4.610   3.069 -1.8890 -0.5261  2.4521
  715MOL0     H94325   9.751   4.774   3.323 -0.1731 -0.4251  0.7250
  715MOL0     H94326   9.647   4.626   3.281 -2.2219  0.3004 -2.0177
  715MOL0     H94327   9.513   4.753   3.118  3.2349 -2.7671 -1.3567
  715MOL0     H94328   9.607   4.889   3.173  0.5280 -0.8882 -1.5990
  715MOL0     H94329   9.551   4.821   3.416  1.6984 -1.2099  0.8643
  715MOL0     H94330   9.423   4.897   3.333  1.0769  0.7823 -1.4635
  715MOL0     H94331   9.444   4.592   3.358  0.4104  0.4704 -1.8071
  715MOL0     H94332   9.345   4.664   3.236 -1.4204 -3.8999  0.7402
  715MOL0     H94333   9.159   4.865   3.369 -0.3639 -1.1400  0.1949
  715MOL0     H94334   8.994   4.911   3.610 -1.4492 -0.3290  1.3575
  715MOL0     H94335   8.956   4.767   3.693 -0.8682  0.2788 -0.6629
  715MOL0     H94336   8.771   4.807   3.534 -0.9789  0.4540 -3.7178
  715MOL0     H94337   8.864   4.654   3.513 -0.2203 -0.0697 -0.5580
  715MOL0     H94338   8.933   4.896   3.343 -0.8358  0.0065 -1.4676
  715MOL0     H94339   8.923   4.724   3.298 -0.1417  0.5059  0.0188
  715MOL0     H94340   8.673   4.750   3.317 -0.6713  1.5652  1.4826
  715MOL0     H94341   8.738   4.835   3.189  2.8927 -2.9615  0.4761
  715MOL0     H94342   8.507   4.812   3.207  1.2722  0.2870 -0.7904
  715MOL0     H94343   8.279   4.852   3.207  0.9124 -1.6795  0.4919
  715MOL0     H94344   7.904   5.181   3.179  0.1124 -0.8302  2.9861
  715MOL0     H94345   7.668   5.156   3.103 -0.8580 -0.2535  0.9687
  715MOL0     H94346   7.606   5.009   2.870  1.6533 -1.2351  0.1811
  715MOL0     H94347   7.481   5.107   2.947  0.8675 -0.7485  0.6258
  715MOL0     H94348   7.311   4.930   2.901  0.2180 -0.3958 -1.7784
  715MOL0     H94349   7.434   4.818   2.857 -0.4691 -0.7938 -0.8236
  715MOL0     H94350   7.488   4.934   2.652  1.2071  0.7740  1.7155
  715MOL0     H94351   7.372   5.058   2.675  0.5527 -0.9916 -0.2378
  715MOL0     H94352   7.304   4.753   2.656 -6.9193 -1.8600  1.0636
  715MOL0     H94353   7.193   4.892   2.686 -0.9947  1.3198 -3.1317
  715MOL0     H94354   7.346   4.874   2.423  0.5836  2.1434  0.4735
  715MOL0     H94355   7.224   4.982   2.471  0.3076  0.0003  2.0574
  715MOL0     H94356   7.194   4.680   2.432  1.0532 -0.6427  2.4580
  715MOL0     H94357   7.122   4.812   2.339  0.7726  1.1317  0.6208
  715MOL0     H94358   6.959   4.708   2.459  0.8406 -1.1947 -0.9878
  715MOL0     H94359   7.025   4.751   2.616 -2.5216  2.6181  1.8262
  715MOL0     H94360   6.920   4.937   2.410 -0.3690 -1.1655 -0.7393
  715MOL0     H94361   7.021   4.999   2.546 -1.6003  0.1885  0.0646
  715MOL0     H94362   7.713   4.724   3.119  1.7571 -0.3965 -1.1876
  715MOL0     H94363   7.937   4.756   3.178 -0.4945 -0.6090 -0.8860
  715MOL0     H94364   8.308   5.211   3.442 -2.9335  0.7728 -2.8610
  715MOL0     H94365   8.548   5.157   3.463  1.0417  1.7834 -2.3590
  715MOL0     H94366  10.389   4.557   3.227 -0.7001  0.3381 -2.1587
  715MOL0     H94367  10.635   4.493   3.224  3.6977  0.7559 -3.7276
  715MOL0     H94368  10.977   4.155   2.771  0.0955 -3.8122 -0.3225
  715MOL0     H94369  11.222   4.125   2.783  0.3914 -1.5675  0.2440
  715MOL0     H94370  11.524   4.185   3.080  0.9875 -2.0802 -3.1741
  715MOL0     H94371  11.398   4.296   3.099  0.0951  0.8885 -0.0098
  715MOL0     H94372  11.420   4.343   2.836 -1.7574 -2.8159  0.4576
  715MOL0     H94373  11.553   4.399   2.947  0.2113 -0.7162  1.9035
  715MOL0     H94374  11.692   4.211   2.890 -1.1331 -1.4640  0.7156
  715MOL0     H94375  11.662   4.323   2.771 -0.7157 -0.2775 -1.0748
  715MOL0     H94376  11.459   4.154   2.697 -0.6625  3.0379  1.7954
  715MOL0     H94377  11.617   4.150   2.632 -0.5786 -0.9933 -1.1478
  715MOL0     H94378  11.653   3.789   2.827 -1.3024 -1.1328  0.2807
  715MOL0     H94379  11.218   4.190   3.209 -0.3855  1.5336 -0.1106
  715MOL0     H94380  10.986   4.265   3.198  0.4652  2.6152 -0.3617
  716MOL0     O94381   3.130   8.586   9.253  0.2160 -0.1635  0.1057
  716MOL0     C94382   3.126   8.654   9.154  1.5306 -0.4588  0.7735
  716MOL0     O94383   3.232   8.680   9.080 -1.0898  0.3281 -0.7545
  716MOL0     C94384   3.364   8.656   9.125 -0.7221  0.9140  0.5131
  716MOL0     C94385   3.401   8.692   9.253  0.1694  0.4817  0.3672
  716MOL0     C94386   3.535   8.690   9.295 -0.2929 -0.4712  0.1747
  716MOL0     C94387   3.627   8.654   9.197 -0.1825 -0.5200 -0.2955
  716MOL0     O94388   3.765   8.659   9.226  0.3369 -0.2570  0.0085
  716MOL0     C94389   3.807   8.580   9.343 -0.3332  0.2893 -0.2837
  716MOL0     C94390   3.961   8.567   9.337  0.1188 -0.9381  0.0654
  716MOL0     C94391   4.015   8.475   9.452  1.0666  0.1020 -0.1437
  716MOL0     C94392   4.171   8.454   9.437  0.3500 -0.3721 -0.7745
  716MOL0     C94393   4.230   8.396   9.562  0.4993  0.2111  0.3737
  716MOL0     C94394   4.183   8.251   9.577 -0.2654 -0.4507 -0.2617
  716MOL0     C94395   4.280   8.168   9.671  0.6705 -0.5182  0.5168
  716MOL0     C94396   4.238   8.025   9.653  0.6529 -0.1854  0.2058
  716MOL0     N94397   4.095   8.001   9.664  0.1683  0.1076  0.5545
  716MOL0     C94398   4.028   8.030   9.788 -0.1576  0.4503  0.9770
  716MOL0     C94399   3.899   7.997   9.757  0.5891  0.2875  0.6889
  716MOL0     C94400   3.780   8.018   9.857 -0.3025  1.1181 -0.3906
  716MOL0     C94401   3.647   8.016   9.776 -0.2692  0.1261 -0.4356
  716MOL0     C94402   3.521   8.027   9.853  0.7206 -0.3838  0.0187
  716MOL0     C94403   3.408   8.064   9.753  0.7451 -0.1270  0.3064
  716MOL0     O94404   3.300   8.091   9.836 -0.3261  0.0030  0.5171
  716MOL0     C94405   3.184   8.148   9.781 -0.3540 -0.0112  0.0921
  716MOL0     C94406   3.096   8.192   9.874  0.3842 -0.4592 -1.0093
  716MOL0     C94407   2.971   8.242   9.848 -0.5288 -0.4063 -0.5378
  716MOL0     C94408   2.932   8.265   9.713  0.3883  0.7109 -0.2799
  716MOL0     C94409   2.821   8.360   9.680  1.0573 -0.6919  0.3808
  716MOL0     O94410   2.796   8.377   9.548 -0.0536 -0.4708 -0.2845
  716MOL0     C94411   2.698   8.464   9.514  0.8093 -0.1062 -0.6456
  716MOL0     C94412   2.564   8.423   9.528 -0.4992  0.5856 -0.5822
  716MOL0     C94413   2.459   8.505   9.500  0.8835  0.5535  0.0797
  716MOL0     C94414   2.480   8.636   9.459 -0.6925 -0.6728  0.0312
  716MOL0     O94415   2.368   8.715   9.442 -0.3829 -0.0749  0.6233
  716MOL0     C94416   2.387   8.833   9.365  0.1475  0.1420 -0.8321
  716MOL0     C94417   2.255   8.915   9.368  0.1987  0.5108  0.4314
  716MOL0     C94418   2.120   8.851   9.331 -0.0721 -0.3698  0.1914
  716MOL0     C94419   2.024   8.966   9.343  1.1436 -0.2993  0.9675
  716MOL0     C94420   1.875   8.932   9.314  0.7507 -0.2741  0.0090
  716MOL0     C94421   1.801   9.060   9.341 -0.1479  0.0673 -0.6783
  716MOL0     C94422   1.651   9.024   9.345  0.2436 -0.2805  0.1404
  716MOL0     C94423   1.558   9.142   9.338  1.0526  0.5045 -0.1824
  716MOL0    Cl94424   1.572   9.233   9.488 -0.1402  0.1800  0.2552
  716MOL0     C94425   2.617   8.682   9.444  0.0544  0.5502 -0.4452
  716MOL0     C94426   2.721   8.600   9.475 -0.0823  0.2289  0.3402
  716MOL0     O94427   2.755   8.413   9.770  0.2030  0.7761  0.1144
  716MOL0     C94428   3.013   8.211   9.617  0.2170 -0.0442 -0.1876
  716MOL0     C94429   3.134   8.152   9.648  0.3312 -0.4326 -0.0759
  716MOL0     N94430   3.894   7.939   9.627 -0.2319 -0.3335  0.5630
  716MOL0     N94431   4.016   7.943   9.575  0.0589  0.2519  0.8268
  716MOL0     C94432   3.592   8.633   9.069  0.3571 -0.3844  0.8427
  716MOL0     C94433   3.459   8.626   9.029 -0.4398  0.3754 -0.2470
  716MOL0     C94434   2.999   8.713   9.105 -0.4167  0.7062  0.0996
  716MOL0     C94435   2.875   8.653   9.136  0.5118 -0.9220 -1.0546
  716MOL0     C94436   2.756   8.720   9.110 -0.2254  0.0274 -0.4797
  716MOL0     C94437   2.757   8.827   9.022 -0.2114  0.3145  0.2866
  716MOL0     O94438   2.637   8.895   9.009  0.5355  0.9903  0.2274
  716MOL0     C94439   2.640   9.038   8.981 -0.0425 -0.5243 -0.1502
  716MOL0     C94440   2.506   9.104   9.009  0.6491 -0.8901  0.2786
  716MOL0     C94441   2.391   9.012   8.993  0.0659  0.0271  0.0527
  716MOL0     C94442   2.246   9.078   9.001 -0.5495 -0.2173 -0.5890
  716MOL0     C94443   2.139   8.973   8.995 -0.3485 -0.2908  0.2770
  716MOL0     C94444   2.066   8.880   8.970  0.4444  0.2739 -0.3351
  716MOL0     C94445   2.874   8.869   8.964 -0.7379 -0.0726  0.3130
  716MOL0     C94446   2.999   8.811   9.010  0.5498 -0.3992  0.2040
  716MOL0     H94447   3.319   8.711   9.322 -0.0132  1.8966 -0.1957
  716MOL0     H94448   3.580   8.721   9.389 -1.6909  3.0754 -0.1456
  716MOL0     H94449   3.764   8.480   9.349  3.7085 -1.5931  1.4048
  716MOL0     H94450   3.792   8.633   9.438 -0.5849  0.3429 -0.3546
  716MOL0     H94451   3.999   8.670   9.339 -1.1149 -0.4744  1.0202
  716MOL0     H94452   3.991   8.531   9.238 -1.5819 -0.0010 -0.8282
  716MOL0     H94453   3.971   8.376   9.466  0.4052  0.5866  1.4707
  716MOL0     H94454   3.993   8.525   9.547  1.5659 -1.1353  0.6442
  716MOL0     H94455   4.203   8.394   9.351  1.7684  1.1287 -1.3416
  716MOL0     H94456   4.212   8.553   9.419 -1.4475  0.5570 -0.0280
  716MOL0     H94457   4.212   8.462   9.647 -0.1355 -0.5665  0.8621
  716MOL0     H94458   4.336   8.390   9.537  0.4442  1.5125 -0.2928
  716MOL0     H94459   4.175   8.197   9.482 -0.1890 -0.7328 -0.1103
  716MOL0     H94460   4.082   8.257   9.619 -1.3328 -2.0538 -2.3991
  716MOL0     H94461   4.383   8.182   9.637  0.1539 -0.1851 -0.9791
  716MOL0     H94462   4.274   8.198   9.776 -2.0073  0.7887  0.0503
  716MOL0     H94463   4.293   7.970   9.730  0.8233 -0.0163  0.2030
  716MOL0     H94464   4.272   7.984   9.558 -1.0722 -1.1476 -0.0438
  716MOL0     H94465   4.069   8.068   9.881 -2.3700  0.5503  1.9783
  716MOL0     H94466   3.805   8.113   9.906  1.2915  1.6119 -2.0331
  716MOL0     H94467   3.770   7.941   9.934  0.4955 -0.1411 -1.5115
  716MOL0     H94468   3.644   7.915   9.735  3.1958 -1.0733  1.8523
  716MOL0     H94469   3.653   8.086   9.692  0.1547  1.4388  0.6453
  716MOL0     H94470   3.503   7.933   9.906 -0.4742 -0.3043 -0.2255
  716MOL0     H94471   3.533   8.106   9.928 -2.3381  0.7116 -0.5014
  716MOL0     H94472   3.388   7.977   9.690  0.4546  1.6618 -2.2135
  716MOL0     H94473   3.447   8.139   9.684 -1.2106 -0.6792 -1.4996
  716MOL0     H94474   3.124   8.188   9.978 -2.2439  0.0279 -0.2057
  716MOL0     H94475   2.902   8.268   9.927  1.8855 -1.9547  2.2872
  716MOL0     H94476   2.545   8.321   9.561  1.1226  1.2995  2.9856
  716MOL0     H94477   2.357   8.471   9.505  0.8392  0.7905  0.7996
  716MOL0     H94478   2.406   8.814   9.259  0.5905  1.7594 -1.0597
  716MOL0     H94479   2.465   8.896   9.408 -1.7024  0.8859  1.6793
  716MOL0     H94480   2.266   8.985   9.285  1.6662  1.3767  1.3140
  716MOL0     H94481   2.252   8.985   9.452  0.5132  1.2770 -0.1772
  716MOL0     H94482   2.101   8.786   9.417  0.8096 -0.9562 -0.0400
  716MOL0     H94483   2.124   8.799   9.235  0.2046  0.1388 -0.0780
  716MOL0     H94484   2.031   9.020   9.437 -0.0590 -0.7859  1.3539
  716MOL0     H94485   2.047   9.037   9.262 -0.4578  1.7079  2.1836
  716MOL0     H94486   1.836   8.855   9.382  0.9089  0.2253  0.6812
  716MOL0     H94487   1.869   8.902   9.209  1.2606  1.1494 -0.4400
  716MOL0     H94488   1.827   9.134   9.265 -1.3041  0.0451 -1.1072
  716MOL0     H94489   1.829   9.097   9.440  3.9261  0.9813 -1.9909
  716MOL0     H94490   1.638   8.954   9.262  1.7064 -0.1067 -0.2631
  716MOL0     H94491   1.642   8.952   9.428 -1.0839  0.5079  0.7149
  716MOL0     H94492   1.454   9.110   9.342  0.7675  1.4732  0.4861
  716MOL0     H94493   1.576   9.199   9.246  2.8009 -0.3579 -0.4268
  716MOL0     H94494   2.648   8.784   9.424  2.0794  0.2938  1.0502
  716MOL0     H94495   2.823   8.637   9.483  0.0261 -0.0820  0.4112
  716MOL0     H94496   2.978   8.221   9.515 -0.6585  1.4752  0.2396
  716MOL0     H94497   3.203   8.131   9.567  0.7477  1.3000 -0.2143
  716MOL0     H94498   3.660   8.616   8.987 -3.3835 -0.8530 -2.4683
  716MOL0     H94499   3.421   8.592   8.934  1.1804 -0.6344 -0.5777
  716MOL0     H94500   2.856   8.578   9.213 -0.9200  0.2721 -0.1746
  716MOL0     H94501   2.661   8.699   9.158 -1.0180  3.4167 -0.3128
  716MOL0     H94502   2.664   9.057   8.876 -3.2110 -2.7909 -1.4525
  716MOL0     H94503   2.711   9.101   9.035 -1.5333  2.3469 -1.2922
  716MOL0     H94504   2.503   9.139   9.113  0.8436  3.9000 -1.1261
  716MOL0     H94505   2.493   9.194   8.949  0.4434 -1.0968  0.0067
  716MOL0     H94506   2.400   8.940   9.074 -1.6460  1.8791  1.9932
  716MOL0     H94507   2.384   8.951   8.902 -1.3787 -2.1631  1.5197
  716MOL0     H94508   2.228   9.135   9.093  0.4407  0.4064 -0.7602
  716MOL0     H94509   2.237   9.145   8.916  0.2642 -0.5867 -0.9819
  716MOL0     H94510   1.994   8.801   8.964 -0.3412  0.9836 -0.3243
  716MOL0     H94511   2.867   8.941   8.882 -0.3037  0.7262  0.9534
  716MOL0     H94512   3.086   8.860   8.968  0.1212  3.5794  3.4185
  717MOL0     O94513   6.630   4.222   8.912  0.4482  0.2630  0.4390
  717MOL0     C94514   6.531   4.205   8.994 -0.7277 -0.2833 -0.5899
  717MOL0     O94515   6.535   4.137   9.112 -0.6242  0.6199  0.1192
  717MOL0     C94516   6.642   4.074   9.163  0.1275  0.3539 -0.3136
  717MOL0     C94517   6.624   3.949   9.217  0.9044  0.0407  1.4308
  717MOL0     C94518   6.737   3.865   9.247 -0.2500 -0.2293  0.5371
  717MOL0     C94519   6.867   3.913   9.232 -0.1472 -0.3162 -0.5459
  717MOL0     O94520   6.973   3.835   9.281  0.2346 -0.6294  0.8160
  717MOL0     C94521   7.080   3.900   9.347  0.5106 -0.3257  0.0026
  717MOL0     C94522   7.196   3.928   9.249 -0.3475  0.2485 -0.2933
  717MOL0     C94523   7.314   4.016   9.306  1.1988  0.4949 -0.4166
  717MOL0     C94524   7.440   3.988   9.236 -0.0471 -0.4104  0.2136
  717MOL0     C94525   7.553   4.075   9.280  0.8908 -0.5846 -0.5873
  717MOL0     C94526   7.643   4.005   9.389  0.1106 -0.6713  0.6762
  717MOL0     C94527   7.786   4.063   9.391  0.2494 -0.4243 -0.4085
  717MOL0     C94528   7.802   4.210   9.430  0.6852  0.2452  0.2078
  717MOL0     N94529   7.943   4.236   9.416  0.3529  0.0214  1.0826
  717MOL0     C94530   8.033   4.186   9.514 -0.5781 -0.4492  0.1147
  717MOL0     C94531   8.156   4.234   9.470 -0.3138 -0.1649  0.6408
  717MOL0     C94532   8.285   4.213   9.539  0.1187  0.2092  0.4602
  717MOL0     C94533   8.333   4.085   9.463  0.0688 -0.3816  0.2048
  717MOL0     C94534   8.464   4.036   9.534  0.3975  0.4168  0.4650
  717MOL0     C94535   8.495   3.901   9.469 -0.0911 -0.4772 -0.0165
  717MOL0     O94536   8.583   3.811   9.535 -0.3981  0.0701 -0.9032
  717MOL0     C94537   8.720   3.839   9.528 -0.4289  1.0122 -0.3389
  717MOL0     C94538   8.800   3.740   9.477  0.0737 -0.1690  0.3623
  717MOL0     C94539   8.934   3.760   9.456 -0.1003  0.1280  1.2803
  717MOL0     C94540   9.003   3.868   9.504  0.4160  0.0699  0.0058
  717MOL0     C94541   9.144   3.873   9.487 -0.6346  1.0958 -0.2724
  717MOL0     O94542   9.214   3.987   9.505 -0.6016 -0.2542 -0.1034
  717MOL0     C94543   9.353   4.003   9.521 -0.0316  0.0223 -0.6939
  717MOL0     C94544   9.392   4.128   9.563  0.5346 -0.7021 -0.3015
  717MOL0     C94545   9.528   4.174   9.570  0.5456  0.3904  0.4714
  717MOL0     C94546   9.636   4.087   9.537 -0.1562 -0.0741  0.4874
  717MOL0     O94547   9.768   4.126   9.573  0.2609  0.7720 -0.2334
  717MOL0     C94548   9.871   4.112   9.474  0.5125  0.2123 -0.5094
  717MOL0     C94549   9.983   4.212   9.498  0.0804 -0.7607 -0.0567
  717MOL0     C94550  10.091   4.205   9.391  0.2872 -0.6025  0.4659
  717MOL0     C94551  10.035   4.257   9.259  0.1113  0.9037 -0.3692
  717MOL0     C94552  10.137   4.257   9.142 -0.6693  0.5325 -0.9006
  717MOL0     C94553  10.283   4.286   9.176 -0.3997 -0.4829 -0.1500
  717MOL0     C94554  10.369   4.290   9.052  0.5977  0.1952  0.2354
  717MOL0     C94555  10.498   4.374   9.077  0.2482 -0.3921  0.2980
  717MOL0    Cl94556  10.593   4.295   9.210 -0.3880 -0.0129 -0.2682
  717MOL0     C94557   9.591   3.951   9.497 -1.0240  0.6758 -0.2890
  717MOL0     C94558   9.457   3.916   9.486 -0.3200 -0.0996  0.2363
  717MOL0     O94559   9.196   3.767   9.458 -0.2974  0.1508  0.5165
  717MOL0     C94560   8.926   3.968   9.561 -0.6128  0.3664 -0.5055
  717MOL0     C94561   8.788   3.950   9.567 -0.2419 -0.0624  0.7914
  717MOL0     N94562   8.138   4.292   9.347 -0.1648 -0.7514 -0.2568
  717MOL0     N94563   8.009   4.300   9.314  1.0057 -0.6353  0.0486
  717MOL0     C94564   6.885   4.047   9.189 -0.0542  0.0327 -0.4319
  717MOL0     C94565   6.769   4.125   9.155 -0.2323 -0.3276 -0.2758
  717MOL0     C94566   6.404   4.267   8.957  0.2737  0.2003 -0.3933
  717MOL0     C94567   6.285   4.255   9.031 -0.6699  0.1825 -0.0974
  717MOL0     C94568   6.168   4.310   8.991 -0.0857  0.1884  0.2150
  717MOL0     C94569   6.156   4.375   8.873  0.1979  0.1228  0.2356
  717MOL0     O94570   6.038   4.418   8.826  0.0341  0.6656  0.5207
  717MOL0     C94571   6.014   4.470   8.699 -0.2558 -0.6683 -0.4174
  717MOL0     C94572   5.881   4.545   8.702  0.1363 -0.0655 -0.2203
  717MOL0     C94573   5.755   4.463   8.747 -0.0016  1.0665  0.2767
  717MOL0     C94574   5.626   4.540   8.710 -0.0745  1.0206 -0.3424
  717MOL0     C94575   5.589   4.514   8.578  0.8071  1.1810 -0.3127
  717MOL0     C94576   5.558   4.481   8.467 -1.3708  0.6187  0.7617
  717MOL0     C94577   6.266   4.388   8.793  0.6649  0.0779 -0.2992
  717MOL0     C94578   6.390   4.356   8.846  0.3836  0.0499  0.9323
  717MOL0     H94579   6.527   3.902   9.232 -0.6389  1.7512 -2.0132
  717MOL0     H94580   6.721   3.762   9.279 -1.6858 -0.6270 -1.2717
  717MOL0     H94581   7.116   3.842   9.433 -0.0742  0.8920  1.1143
  717MOL0     H94582   7.053   3.999   9.384 -1.2134 -0.9287  0.4268
  717MOL0     H94583   7.163   3.969   9.153  2.7670 -0.5840 -1.8719
  717MOL0     H94584   7.238   3.827   9.237 -0.2836 -0.2585  3.2721
  717MOL0     H94585   7.319   4.002   9.414  0.3351  1.7789 -0.1807
  717MOL0     H94586   7.294   4.124   9.298  2.4643  0.8681  1.0101
  717MOL0     H94587   7.463   3.881   9.225 -1.4457 -0.5060 -2.6558
  717MOL0     H94588   7.409   4.000   9.132  2.3454 -0.7633 -0.5967
  717MOL0     H94589   7.509   4.166   9.322 -0.2622 -2.4023  2.4726
  717MOL0     H94590   7.615   4.090   9.191  1.9352 -0.5867  0.1214
  717MOL0     H94591   7.638   3.897   9.369 -2.0617 -0.7122  1.1711
  717MOL0     H94592   7.592   4.023   9.484 -3.0442  0.6169 -1.1198
  717MOL0     H94593   7.844   3.996   9.456 -1.2917 -0.8620  0.5535
  717MOL0     H94594   7.840   4.049   9.297  1.1927  1.1419 -0.1404
  717MOL0     H94595   7.760   4.232   9.529  0.0735 -0.2947  0.0746
  717MOL0     H94596   7.750   4.278   9.361  2.7577  1.5580 -0.1481
  717MOL0     H94597   8.016   4.117   9.596 -0.9423  0.9837  1.2827
  717MOL0     H94598   8.261   4.191   9.643  0.1550 -0.2007  0.3816
  717MOL0     H94599   8.351   4.300   9.529 -1.0668  1.3336  2.0049
  717MOL0     H94600   8.357   4.097   9.357 -2.4533 -0.3850 -0.4291
  717MOL0     H94601   8.256   4.008   9.469 -0.7913  0.3148 -1.2941
  717MOL0     H94602   8.543   4.109   9.515 -0.1413  1.1989  1.1645
  717MOL0     H94603   8.457   4.030   9.643 -4.5369 -2.1087  0.2751
  717MOL0     H94604   8.531   3.923   9.368 -1.4690  1.7207 -0.1089
  717MOL0     H94605   8.395   3.858   9.476 -0.5299  0.5055 -0.1298
  717MOL0     H94606   8.747   3.651   9.445 -0.1287 -1.2324  3.3189
  717MOL0     H94607   8.989   3.676   9.416 -0.2660  0.2323  0.8233
  717MOL0     H94608   9.319   4.196   9.605  0.0938 -1.4425  0.1525
  717MOL0     H94609   9.568   4.260   9.622  1.0859 -0.5531  1.6784
  717MOL0     H94610   9.822   4.143   9.382  0.4598  1.5639 -0.0463
  717MOL0     H94611   9.910   4.012   9.453 -1.4339 -0.8499  0.6529
  717MOL0     H94612  10.032   4.214   9.595  0.1202 -3.2818  0.0393
  717MOL0     H94613   9.925   4.305   9.488 -1.7418 -1.9620 -1.5396
  717MOL0     H94614  10.131   4.103   9.388  0.0208 -0.7804  2.1278
  717MOL0     H94615  10.172   4.273   9.420 -0.7773  1.4206 -1.1070
  717MOL0     H94616   9.956   4.196   9.213 -0.6364  0.7686  1.0573
  717MOL0     H94617  10.006   4.354   9.298  2.0593  1.9155 -1.2730
  717MOL0     H94618  10.099   4.316   9.057  0.9238  2.3600 -0.4139
  717MOL0     H94619  10.136   4.153   9.108  1.0876 -0.2932  1.2914
  717MOL0     H94620  10.336   4.218   9.244  1.4098  2.6846  1.8971
  717MOL0     H94621  10.278   4.392   9.204  0.3461 -0.6986  0.8877
  717MOL0     H94622  10.401   4.190   9.021  1.9127  0.9497 -0.9296
  717MOL0     H94623  10.320   4.336   8.966  2.7457  0.1616 -1.0711
  717MOL0     H94624  10.477   4.479   9.098  1.2585 -0.0878 -0.1438
  717MOL0     H94625  10.565   4.367   8.991  1.5726 -1.1120  1.3308
  717MOL0     H94626   9.666   3.874   9.483 -2.3843 -0.7760  0.0422
  717MOL0     H94627   9.432   3.812   9.465 -1.1627  0.7185 -3.5220
  717MOL0     H94628   8.969   4.049   9.618  2.6845 -2.8684  2.1186
  717MOL0     H94629   8.751   4.035   9.623 -3.6221 -0.9293  0.1109
  717MOL0     H94630   6.987   4.085   9.187 -0.4044  1.1195  0.8549
  717MOL0     H94631   6.770   4.229   9.124 -2.5478 -0.4309 -0.8352
  717MOL0     H94632   6.293   4.205   9.127  2.6089 -1.6763 -1.1780
  717MOL0     H94633   6.083   4.288   9.055  0.6954 -1.2016  0.8175
  717MOL0     H94634   6.019   4.392   8.623 -0.7841 -0.4526 -0.6740
  717MOL0     H94635   6.098   4.534   8.669  0.5165 -1.0294  0.8813
  717MOL0     H94636   5.891   4.640   8.755 -0.4374 -0.0276 -0.1699
  717MOL0     H94637   5.846   4.558   8.600 -2.0492  0.7291  0.5590
  717MOL0     H94638   5.759   4.446   8.855 -2.5438  0.3659  0.3133
  717MOL0     H94639   5.768   4.368   8.694  2.3766  2.2970 -1.5332
  717MOL0     H94640   5.552   4.508   8.784 -0.9232 -0.3320 -1.7018
  717MOL0     H94641   5.644   4.648   8.713  0.2116  0.9632  0.6733
  717MOL0     H94642   5.521   4.456   8.370  1.6338  2.9729 -1.1641
  717MOL0     H94643   6.266   4.442   8.698 -2.5633  0.9134  0.0717
  717MOL0     H94644   6.478   4.393   8.794 -0.3139 -0.7766 -0.9099
  718MOL0     O94645  11.150   7.180   1.078 -0.2673  0.6297  0.1727
  718MOL0     C94646  11.188   7.295   1.121 -0.1762  0.6302 -0.1890
  718MOL0     O94647  11.109   7.400   1.142 -0.2066  0.0036  0.4147
  718MOL0     C94648  10.990   7.398   1.076  0.7467  0.0590  0.0880
  718MOL0     C94649  10.871   7.360   1.131  0.1675 -0.2944 -0.9396
  718MOL0     C94650  10.752   7.380   1.063 -0.0683 -0.5519 -0.4629
  718MOL0     C94651  10.745   7.451   0.944  0.4274  1.0779  0.6988
  718MOL0     O94652  10.625   7.465   0.880  0.0256 -0.4668 -0.4391
  718MOL0     C94653  10.530   7.558   0.936 -0.2790 -0.7171 -0.3814
  718MOL0     C94654  10.411   7.576   0.827  0.0767 -0.3996 -0.2126
  718MOL0     C94655  10.460   7.645   0.701  0.8056  0.5433 -0.4071
  718MOL0     C94656  10.338   7.654   0.598  0.8161  0.3418  0.2894
  718MOL0     C94657  10.376   7.698   0.458 -0.1862  0.6755 -0.0904
  718MOL0     C94658  10.265   7.692   0.354 -0.9163  0.0808  0.7349
  718MOL0     C94659  10.231   7.552   0.306  0.1326  1.1258  0.2255
  718MOL0     C94660  10.099   7.537   0.215 -0.8314  0.4049 -0.2621
  718MOL0     N94661  10.072   7.401   0.149 -0.1192 -0.2028 -0.6537
  718MOL0     C94662   9.980   7.376   0.055 -0.0180  0.6033 -0.0081
  718MOL0     C94663   9.996   7.239   0.033  0.1556 -0.0724  0.6309
  718MOL0     C94664   9.901   7.150  -0.054 -0.7188  0.1169 -0.4177
  718MOL0     C94665   9.754   7.150   0.001 -0.8203  1.1828 -0.4840
  718MOL0     C94666   9.749   7.084   0.135 -0.3321 -0.6427  0.4871
  718MOL0     C94667   9.611   7.045   0.170  0.6534 -0.0312  0.4115
  718MOL0     O94668   9.544   7.169   0.207 -0.5567  0.0792  0.4185
  718MOL0     C94669   9.417   7.171   0.250  0.4488 -0.0631  0.1950
  718MOL0     C94670   9.380   7.281   0.328 -0.2348  0.5160  0.7264
  718MOL0     C94671   9.258   7.295   0.388 -0.7204  0.2342 -0.1646
  718MOL0     C94672   9.154   7.202   0.355 -0.0881  0.6052  0.3410
  718MOL0     C94673   9.019   7.212   0.407  0.3272  0.3236  0.7022
  718MOL0     O94674   8.935   7.121   0.352  0.2538 -0.0303 -0.1855
  718MOL0     C94675   8.793   7.123   0.364 -0.3916 -0.1442 -0.7528
  718MOL0     C94676   8.723   7.171   0.472  0.1810 -0.4612  0.0941
  718MOL0     C94677   8.583   7.181   0.463 -0.2627 -0.7833  0.2115
  718MOL0     C94678   8.517   7.143   0.351  0.0153  0.4033  0.7943
  718MOL0     O94679   8.379   7.151   0.358 -0.9750 -0.2745 -0.0493
  718MOL0     C94680   8.320   7.031   0.303 -0.1597 -0.2162  0.3163
  718MOL0     C94681   8.253   7.053   0.164 -0.2676  0.3834 -1.0730
  718MOL0     C94682   8.175   7.182   0.139 -0.5727 -1.1258  0.2779
  718MOL0     C94683   8.095   7.240   0.260  0.0912  0.6872 -0.2118
  718MOL0     C94684   7.998   7.351   0.208 -0.2940  0.0399  0.7512
  718MOL0     C94685   7.918   7.416   0.316  0.4765  0.5485  0.7309
  718MOL0     C94686   7.823   7.531   0.272  0.7521 -0.9162  0.0793
  718MOL0     C94687   7.691   7.487   0.212  0.0592  0.7832  1.4932
  718MOL0    Cl94688   7.584   7.392   0.311  0.2384  0.3315 -0.0906
  718MOL0     C94689   8.590   7.087   0.242 -0.0642 -0.9998  0.0547
  718MOL0     C94690   8.736   7.083   0.246 -0.0660 -0.6434 -0.4594
  718MOL0     O94691   8.980   7.317   0.464 -0.1720  0.3452  0.8903
  718MOL0     C94692   9.195   7.087   0.280 -1.0047 -1.1969 -0.3254
  718MOL0     C94693   9.328   7.068   0.237  0.3912  1.1794  0.3429
  718MOL0     N94694  10.098   7.194   0.118 -0.0216  1.2071  0.0948
  718MOL0     N94695  10.149   7.294   0.177 -0.4761 -0.2275  0.6551
  718MOL0     C94696  10.869   7.475   0.886 -0.0337  0.8152  0.0971
  718MOL0     C94697  10.991   7.450   0.952  0.1438 -1.1860  0.4212
  718MOL0     C94698  11.325   7.301   1.180  0.9046 -0.3119 -0.5957
  718MOL0     C94699  11.403   7.415   1.171  0.8697  0.3976  0.1094
  718MOL0     C94700  11.534   7.420   1.212  0.3631  0.7589 -0.7751
  718MOL0     C94701  11.587   7.307   1.289 -0.0148 -0.2736 -0.1892
  718MOL0     O94702  11.715   7.324   1.327 -0.0752  0.0438 -0.1692
  718MOL0     C94703  11.793   7.204   1.341 -0.1694 -0.4156  0.9071
  718MOL0     C94704  11.942   7.226   1.384  0.2928 -0.1711 -0.0921
  718MOL0     C94705  12.030   7.103   1.339  0.7014 -0.1936 -0.2462
  718MOL0     C94706  12.174   7.135   1.385 -0.4282  0.2186  0.0402
  718MOL0     C94707  12.189   7.115   1.530  0.4673 -0.5424  1.1788
  718MOL0     C94708  12.194   7.083   1.645 -0.2633 -0.1591 -0.2972
  718MOL0     C94709  11.509   7.184   1.298  0.4161 -0.1346  0.6174
  718MOL0     C94710  11.380   7.186   1.248  0.3054  0.3783 -0.0158
  718MOL0     H94711  10.872   7.311   1.228 -0.3510 -0.2061 -0.8914
  718MOL0     H94712  10.652   7.355   1.099 -1.6788  1.2936 -3.2234
  718MOL0     H94713  10.571   7.655   0.964 -2.0679 -0.2856  0.8942
  718MOL0     H94714  10.500   7.508   1.029  0.1601 -1.3602 -0.5766
  718MOL0     H94715  10.331   7.639   0.865 -0.7803 -0.7763 -1.3425
  718MOL0     H94716  10.360   7.484   0.795 -4.1203  1.2615  1.0441
  718MOL0     H94717  10.545   7.595   0.655  2.8402  4.0751 -0.8289
  718MOL0     H94718  10.495   7.746   0.728 -0.6972  1.0697 -0.3007
  718MOL0     H94719  10.300   7.552   0.587  0.0949  0.8572 -2.7237
  718MOL0     H94720  10.270   7.723   0.650  0.7490 -0.0485  0.7284
  718MOL0     H94721  10.455   7.634   0.417 -0.2836  0.6641 -0.2611
  718MOL0     H94722  10.416   7.799   0.458  4.1920 -0.5293 -5.6095
  718MOL0     H94723  10.300   7.746   0.265  0.9579 -1.2774  0.6034
  718MOL0     H94724  10.174   7.740   0.392 -0.8398  2.6512 -1.9166
  718MOL0     H94725  10.317   7.507   0.255  0.7889  3.4607 -0.8792
  718MOL0     H94726  10.221   7.486   0.393  1.2111  0.0345 -0.4496
  718MOL0     H94727  10.103   7.610   0.134  1.8106  1.0458  0.3308
  718MOL0     H94728  10.011   7.566   0.272 -0.1854  3.5420 -0.6772
  718MOL0     H94729   9.910   7.441   0.005  2.3112  3.4446  0.1863
  718MOL0     H94730   9.950   7.052  -0.049  0.3220  0.6817  2.3870
  718MOL0     H94731   9.902   7.182  -0.159  2.9064 -0.4489 -0.6901
  718MOL0     H94732   9.692   7.090  -0.066 -0.3519 -0.3525  0.4223
  718MOL0     H94733   9.710   7.250   0.012 -2.1508  0.8181 -2.0578
  718MOL0     H94734   9.806   6.991   0.122 -1.0736 -1.2173  1.2267
  718MOL0     H94735   9.789   7.152   0.211 -0.7898 -4.0062  4.0158
  718MOL0     H94736   9.609   6.975   0.254  0.3427  0.6008  0.9430
  718MOL0     H94737   9.563   7.001   0.082 -1.1091  1.9856  0.2607
  718MOL0     H94738   9.451   7.362   0.335  0.2980  0.0475  0.8373
  718MOL0     H94739   9.238   7.379   0.454  0.0973 -0.1294  0.5717
  718MOL0     H94740   8.771   7.207   0.562  1.3098  1.6357 -1.2547
  718MOL0     H94741   8.539   7.210   0.557  1.4513  2.1795  0.2156
  718MOL0     H94742   8.241   6.997   0.371 -1.1251 -0.7934 -1.0439
  718MOL0     H94743   8.391   6.948   0.294  1.5459  1.3730 -2.6600
  718MOL0     H94744   8.177   6.975   0.155 -2.3653  2.2181 -0.4206
  718MOL0     H94745   8.334   7.043   0.091 -0.5174  1.0529 -1.4587
  718MOL0     H94746   8.096   7.155   0.069  0.1916  0.5926 -1.3454
  718MOL0     H94747   8.236   7.260   0.093  0.0716 -1.3581  0.7320
  718MOL0     H94748   8.045   7.155   0.308  1.3646  1.1003  1.9710
  718MOL0     H94749   8.163   7.286   0.332 -0.2526 -0.0995  0.6294
  718MOL0     H94750   7.923   7.313   0.138 -1.1058  1.0430  1.0582
  718MOL0     H94751   8.054   7.428   0.153 -0.9156 -0.1419 -0.1573
  718MOL0     H94752   7.979   7.463   0.394  1.8115 -0.8621  0.5996
  718MOL0     H94753   7.859   7.338   0.365 -0.4470  0.7548 -0.0234
  718MOL0     H94754   7.799   7.610   0.344  1.0007 -1.3367  0.6318
  718MOL0     H94755   7.871   7.572   0.183 -0.2776 -2.3487 -1.1987
  718MOL0     H94756   7.714   7.424   0.125 -1.7263  3.3212 -0.9981
  718MOL0     H94757   7.637   7.572   0.170  1.1706  0.9632  0.3404
  718MOL0     H94758   8.541   7.056   0.150  0.3093  2.4653 -1.4695
  718MOL0     H94759   8.799   7.067   0.160  0.4064  5.7203 -1.8038
  718MOL0     H94760   9.119   7.019   0.242 -1.9916  0.7104 -1.9707
  718MOL0     H94761   9.362   6.976   0.189  1.4478  0.3679  2.5143
  718MOL0     H94762  10.856   7.510   0.784  1.9590  2.4237  0.3195
  718MOL0     H94763  11.085   7.471   0.901 -0.9091  1.1277 -0.7105
  718MOL0     H94764  11.361   7.502   1.121 -2.7407 -0.7512  0.8491
  718MOL0     H94765  11.583   7.515   1.195 -2.7877  2.3283 -1.8160
  718MOL0     H94766  11.793   7.150   1.246 -1.4819 -2.5733  2.0529
  718MOL0     H94767  11.749   7.137   1.415  1.3173  0.7388  2.9520
  718MOL0     H94768  11.984   7.317   1.342 -1.5639  1.2648  0.9675
  718MOL0     H94769  11.941   7.236   1.493  1.9625  0.7215 -0.1384
  718MOL0     H94770  12.025   7.094   1.230 -1.3715  2.0766 -0.4161
  718MOL0     H94771  11.985   7.017   1.391  0.3172  1.4779  2.3518
  718MOL0     H94772  12.238   7.062   1.334  0.7492  0.2719  1.3706
  718MOL0     H94773  12.207   7.236   1.358  0.4713 -0.4324 -1.4097
  718MOL0     H94774  12.226   7.057   1.744  1.5453  2.1150 -0.2173
  718MOL0     H94775  11.531   7.089   1.344  3.9987 -0.5879 -1.6569
  718MOL0     H94776  11.306   7.107   1.246 -2.2482  2.6336 -1.5922
  719MOL0     O94777   7.987   7.395   6.266  0.0096  0.0959  0.1394
  719MOL0     C94778   8.028   7.350   6.161 -0.4218  0.3143 -0.3457
  719MOL0     O94779   7.950   7.328   6.052 -1.2936  0.4609 -0.1933
  719MOL0     C94780   7.825   7.366   6.071 -0.1851  0.3782  0.5536
  719MOL0     C94781   7.742   7.267   6.137 -0.0614 -0.2369 -0.3052
  719MOL0     C94782   7.603   7.291   6.163 -0.3148  0.3758 -0.2429
  719MOL0     C94783   7.554   7.422   6.132  1.1971 -0.5238 -0.1834
  719MOL0     O94784   7.417   7.453   6.140  0.4711  0.3311  0.2176
  719MOL0     C94785   7.327   7.400   6.245  0.7620  0.4602 -0.1770
  719MOL0     C94786   7.265   7.509   6.325  0.0056  1.0492  0.3454
  719MOL0     C94787   7.147   7.567   6.248 -0.1808  0.8808 -0.1024
  719MOL0     C94788   7.007   7.497   6.258  0.3343 -0.3733 -0.3115
  719MOL0     C94789   6.913   7.576   6.168 -0.0847 -0.0540  0.4416
  719MOL0     C94790   6.776   7.527   6.174 -0.7003 -0.8637 -0.1126
  719MOL0     C94791   6.693   7.610   6.075  0.6622  0.1248 -0.0862
  719MOL0     C94792   6.546   7.583   6.103 -0.2598  0.6485 -0.5618
  719MOL0     N94793   6.477   7.625   5.982 -0.3742 -0.8325  0.5089
  719MOL0     C94794   6.438   7.539   5.889 -0.8540 -0.1797 -0.5375
  719MOL0     C94795   6.402   7.620   5.795  0.2795  0.7664  0.1644
  719MOL0     C94796   6.364   7.579   5.661  0.9485 -1.0503  0.6703
  719MOL0     C94797   6.483   7.523   5.584 -0.3338 -0.3542  1.0222
  719MOL0     C94798   6.571   7.633   5.528  0.6905  0.0057 -0.6636
  719MOL0     C94799   6.637   7.735   5.620  0.2141 -0.7058  0.2514
  719MOL0     O94800   6.747   7.794   5.544  0.3849 -0.3589 -1.0001
  719MOL0     C94801   6.863   7.725   5.538 -0.6997  0.0276 -0.0987
  719MOL0     C94802   6.976   7.784   5.477 -0.4411  0.3540 -0.5864
  719MOL0     C94803   7.099   7.719   5.469 -0.6147 -0.5295 -0.6304
  719MOL0     C94804   7.124   7.588   5.506 -0.3062  0.1206 -0.0825
  719MOL0     C94805   7.258   7.520   5.496 -0.2105  1.0393  0.0757
  719MOL0     O94806   7.287   7.406   5.558  0.0706  0.4223 -0.6043
  719MOL0     C94807   7.418   7.374   5.585 -0.4944 -0.4428  0.0510
  719MOL0     C94808   7.475   7.406   5.710  0.0381  0.0392  0.7363
  719MOL0     C94809   7.614   7.407   5.715 -0.2367  0.7007  0.4642
  719MOL0     C94810   7.694   7.359   5.610 -0.3993 -0.0213 -0.0365
  719MOL0     O94811   7.836   7.357   5.624  0.1579 -0.3130 -0.6270
  719MOL0     C94812   7.889   7.215   5.606  0.8475 -0.3513  0.7853
  719MOL0     C94813   8.033   7.201   5.620 -0.8394 -0.4487 -0.6396
  719MOL0     C94814   8.108   7.304   5.527 -0.2725 -1.0930 -1.0138
  719MOL0     C94815   8.085   7.275   5.383  0.4184 -0.0960  0.2633
  719MOL0     C94816   8.157   7.151   5.338  0.9921  0.1870  0.5425
  719MOL0     C94817   8.146   7.148   5.186  0.0677  0.9625  0.8408
  719MOL0     C94818   8.198   7.005   5.146 -0.1352  0.2649  0.6854
  719MOL0     C94819   8.086   6.904   5.129 -0.1148 -0.0338  0.1807
  719MOL0    Cl94820   8.165   6.760   5.061 -0.3538  0.3617  0.0693
  719MOL0     C94821   7.630   7.331   5.488 -0.1283  0.7562  0.0696
  719MOL0     C94822   7.496   7.330   5.475  0.1986  0.0535  0.3005
  719MOL0     O94823   7.337   7.591   5.431 -0.6105 -0.7737 -1.1951
  719MOL0     C94824   7.011   7.525   5.571 -0.9790  0.2162  0.2928
  719MOL0     C94825   6.893   7.591   5.589  0.4358  0.6425  0.0196
  719MOL0     N94826   6.405   7.750   5.830  0.8343 -0.1604 -0.4309
  719MOL0     N94827   6.453   7.754   5.952  0.7413 -0.0851  0.4592
  719MOL0     C94828   7.639   7.522   6.073 -0.7428  0.5848  0.0369
  719MOL0     C94829   7.777   7.493   6.039 -0.4034  0.5433 -0.8726
  719MOL0     C94830   8.164   7.352   6.121 -0.4526 -0.3149  0.5699
  719MOL0     C94831   8.206   7.374   5.992  0.1931  0.1454 -0.4567
  719MOL0     C94832   8.341   7.375   5.961  0.5015 -0.3472  0.6912
  719MOL0     C94833   8.441   7.353   6.045  0.5695  0.2532  0.4941
  719MOL0     O94834   8.569   7.350   5.989 -0.4160  0.1369 -0.8775
  719MOL0     C94835   8.682   7.308   6.065  0.5958  0.4384 -0.3090
  719MOL0     C94836   8.817   7.358   6.017 -0.2239 -0.3531  0.2112
  719MOL0     C94837   8.829   7.510   6.027 -0.4060 -0.4029 -0.9097
  719MOL0     C94838   8.975   7.553   5.985 -0.4764 -0.0922  0.4991
  719MOL0     C94839   8.983   7.537   5.839  0.0660  0.2973 -0.2000
  719MOL0     C94840   8.984   7.525   5.720  0.3956 -0.4761 -0.0432
  719MOL0     C94841   8.404   7.327   6.177  0.3191  1.0041 -0.6958
  719MOL0     C94842   8.271   7.330   6.219  0.6227 -0.2772 -0.5116
  719MOL0     H94843   7.779   7.168   6.164 -4.2601 -1.6282  1.1465
  719MOL0     H94844   7.535   7.220   6.208  1.1246  0.2354  1.8623
  719MOL0     H94845   7.386   7.336   6.311 -0.3101 -1.1935 -0.7634
  719MOL0     H94846   7.248   7.340   6.198 -0.1402  2.0076 -0.6944
  719MOL0     H94847   7.341   7.587   6.319 -0.0918  1.0468 -1.2416
  719MOL0     H94848   7.228   7.472   6.421 -3.1479 -0.9049 -1.4304
  719MOL0     H94849   7.176   7.579   6.143  0.1884  1.5919  0.0766
  719MOL0     H94850   7.125   7.669   6.278  1.5979  1.5379 -0.8892
  719MOL0     H94851   7.012   7.389   6.239 -0.6036 -0.5722  0.4963
  719MOL0     H94852   6.969   7.496   6.361 -1.9124 -1.6973 -1.0986
  719MOL0     H94853   6.946   7.553   6.066 -0.0460  0.1342  0.4123
  719MOL0     H94854   6.905   7.682   6.190 -0.3703  0.5584 -2.2515
  719MOL0     H94855   6.740   7.542   6.277  0.0477  1.1138 -0.0949
  719MOL0     H94856   6.771   7.419   6.160 -2.3014 -0.7303 -0.7231
  719MOL0     H94857   6.706   7.718   6.092 -1.2159  0.5090 -0.7419
  719MOL0     H94858   6.728   7.582   5.976  0.3666  0.1378 -0.1969
  719MOL0     H94859   6.512   7.639   6.190 -0.4685  1.5002 -1.1880
  719MOL0     H94860   6.528   7.476   6.123 -1.2078  1.1192  1.3584
  719MOL0     H94861   6.445   7.431   5.895  0.4648 -0.0397  2.0842
  719MOL0     H94862   6.319   7.662   5.606  1.2495 -1.2150  0.1770
  719MOL0     H94863   6.283   7.505   5.666 -0.5468  0.5840  2.5425
  719MOL0     H94864   6.439   7.476   5.496  0.3511  1.7162 -0.5315
  719MOL0     H94865   6.544   7.454   5.643  2.3725 -0.1688 -1.3345
  719MOL0     H94866   6.655   7.580   5.482  1.7401 -1.8429  3.0450
  719MOL0     H94867   6.516   7.699   5.459  0.0965  2.3974  1.9213
  719MOL0     H94868   6.689   7.689   5.705  1.1705 -3.3098 -1.6380
  719MOL0     H94869   6.579   7.818   5.661  2.6646  0.5939  1.3208
  719MOL0     H94870   6.964   7.880   5.427 -0.4990 -0.8393 -2.9945
  719MOL0     H94871   7.182   7.778   5.431 -0.9714  0.3354 -0.0910
  719MOL0     H94872   7.414   7.440   5.792 -0.2304 -1.4755  1.2072
  719MOL0     H94873   7.673   7.417   5.806  0.0768 -1.9947  0.6331
  719MOL0     H94874   7.853   7.175   5.511 -4.9282  1.1993  1.8947
  719MOL0     H94875   7.831   7.158   5.680 -1.5980 -1.2234 -1.6274
  719MOL0     H94876   8.059   7.097   5.597 -2.8738 -1.6637  1.9569
  719MOL0     H94877   8.058   7.209   5.726  0.5675 -1.3628 -0.8738
  719MOL0     H94878   8.212   7.319   5.560 -0.8241  0.6666  0.0719
  719MOL0     H94879   8.053   7.398   5.538  0.1621 -0.6046 -2.7028
  719MOL0     H94880   7.976   7.264   5.375  0.2161 -1.8909  3.7454
  719MOL0     H94881   8.117   7.358   5.319  0.5571  1.6638  2.4624
  719MOL0     H94882   8.125   7.056   5.382 -2.4238  0.7119 -0.4865
  719MOL0     H94883   8.261   7.167   5.368  0.3744  1.2097  2.3233
  719MOL0     H94884   8.212   7.227   5.149 -1.5992  1.9337 -0.2005
  719MOL0     H94885   8.040   7.157   5.161 -1.0460 -3.9405  2.5402
  719MOL0     H94886   8.249   7.019   5.050  1.2403  0.0046  1.3653
  719MOL0     H94887   8.272   6.974   5.220 -0.7490 -0.9437  0.8222
  719MOL0     H94888   8.007   6.948   5.069 -0.2399  1.3474  1.3004
  719MOL0     H94889   8.044   6.884   5.228  0.3383  4.2593  1.4441
  719MOL0     H94890   7.685   7.307   5.398 -1.6771  0.1620 -0.7485
  719MOL0     H94891   7.451   7.318   5.377  1.2276  2.2071 -0.5057
  719MOL0     H94892   7.025   7.424   5.608  2.7727 -0.4340 -2.2827
  719MOL0     H94893   6.815   7.531   5.635 -0.1874  1.0033 -0.5599
  719MOL0     H94894   7.609   7.623   6.045 -0.2117 -0.1004 -3.4328
  719MOL0     H94895   7.843   7.563   5.989  0.8618  0.9701  1.2878
  719MOL0     H94896   8.134   7.392   5.914 -1.5934 -3.4986  0.1076
  719MOL0     H94897   8.384   7.398   5.864  1.2919 -2.8757  0.3730
  719MOL0     H94898   8.681   7.199   6.069 -1.2542  0.4273 -0.2681
  719MOL0     H94899   8.658   7.334   6.168  0.8227  0.5430 -0.2822
  719MOL0     H94900   8.892   7.314   6.083  0.5079  2.0423  1.0595
  719MOL0     H94901   8.827   7.324   5.914 -3.7635 -3.9863  0.7826
  719MOL0     H94902   8.808   7.533   6.132 -1.6926 -1.2955 -0.9416
  719MOL0     H94903   8.762   7.574   5.970  1.0214 -0.1526 -2.3748
  719MOL0     H94904   8.994   7.657   6.013 -0.2051 -0.7976  3.2406
  719MOL0     H94905   9.050   7.496   6.041  2.2023  1.8188 -0.9231
  719MOL0     H94906   8.993   7.522   5.613  0.7651  0.5398 -0.0490
  719MOL0     H94907   8.481   7.297   6.248 -0.0958 -3.6443 -1.8437
  719MOL0     H94908   8.241   7.320   6.323 -1.2125  0.6460 -0.8914
  720MOL0     O94909   6.384   3.418   6.832  0.1110  0.4872  0.2246
  720MOL0     C94910   6.412   3.309   6.870  0.6308 -0.7307  0.6542
  720MOL0     O94911   6.324   3.210   6.906  0.1974  0.4791  0.5499
  720MOL0     C94912   6.196   3.236   6.948 -0.0894  1.1433 -0.1731
  720MOL0     C94913   6.102   3.302   6.871 -0.9594  0.0131  0.7948
  720MOL0     C94914   5.979   3.328   6.931  0.3272 -0.7872 -0.2484
  720MOL0     C94915   5.949   3.284   7.061  0.1936 -0.0342 -0.0815
  720MOL0     O94916   5.835   3.296   7.133 -0.3775  0.9400 -1.2096
  720MOL0     C94917   5.716   3.337   7.067  0.0959 -1.0646  0.4375
  720MOL0     C94918   5.595   3.304   7.158 -0.1569 -0.6807 -0.6407
  720MOL0     C94919   5.582   3.422   7.256 -0.1453 -0.7221 -0.4875
  720MOL0     C94920   5.469   3.384   7.357 -0.3661 -0.1174  0.5677
  720MOL0     C94921   5.443   3.494   7.463  0.3004 -0.1726  0.1961
  720MOL0     C94922   5.348   3.442   7.578  0.1948  0.0678  0.8843
  720MOL0     C94923   5.315   3.567   7.676 -0.3358  0.3761 -0.7315
  720MOL0     C94924   5.253   3.517   7.808  0.8877  0.3502  0.3764
  720MOL0     N94925   5.127   3.444   7.801  0.0302 -0.5010  0.7828
  720MOL0     C94926   5.108   3.327   7.868 -0.4051 -0.1988 -0.4604
  720MOL0     C94927   4.977   3.292   7.838  0.2476 -0.7666  0.6850
  720MOL0     C94928   4.893   3.168   7.879  0.3217  0.0226  0.5445
  720MOL0     C94929   4.741   3.212   7.860  0.1141 -0.9155  0.1997
  720MOL0     C94930   4.650   3.093   7.885 -0.6492 -0.5097 -0.2154
  720MOL0     C94931   4.497   3.138   7.873 -0.1140  0.4035  0.2257
  720MOL0     O94932   4.423   3.021   7.843  0.1272  0.0523 -0.1155
  720MOL0     C94933   4.294   3.021   7.864 -0.0200  0.2589  0.5891
  720MOL0     C94934   4.220   2.918   7.809 -0.9888 -0.1259  0.6301
  720MOL0     C94935   4.080   2.915   7.829 -0.3474 -0.1872 -0.4564
  720MOL0     C94936   4.018   3.011   7.909  0.3650 -0.4772  0.4473
  720MOL0     C94937   3.879   3.000   7.931  0.9245  0.5130 -0.2142
  720MOL0     O94938   3.818   3.101   7.994 -0.3895 -0.7036 -0.2085
  720MOL0     C94939   3.687   3.115   8.025 -0.1926  0.0278  0.9114
  720MOL0     C94940   3.670   3.219   8.118 -0.1874 -0.5059  1.1668
  720MOL0     C94941   3.547   3.267   8.152  0.8647  0.0648 -0.3558
  720MOL0     C94942   3.431   3.208   8.105  0.7487  0.6484 -0.2634
  720MOL0     O94943   3.308   3.260   8.110  0.3730  0.3154 -0.4366
  720MOL0     C94944   3.289   3.392   8.164 -0.2610 -0.0945 -0.5155
  720MOL0     C94945   3.150   3.426   8.134  0.3141 -0.6462  0.6476
  720MOL0     C94946   3.115   3.576   8.163  0.1353  0.3196  0.1140
  720MOL0     C94947   2.963   3.610   8.151 -0.2005  0.0713 -0.3318
  720MOL0     C94948   2.947   3.760   8.157 -0.0534 -0.1000  0.5553
  720MOL0     C94949   3.000   3.830   8.029  0.5762  0.0096  0.4039
  720MOL0     C94950   2.968   3.979   8.020  0.1924 -0.0351  0.2221
  720MOL0     C94951   3.044   4.051   8.128 -1.1397 -0.0024  0.2824
  720MOL0    Cl94952   3.060   4.220   8.088 -0.1465  0.1324  0.0722
  720MOL0     C94953   3.443   3.089   8.032  0.9599 -0.2871  0.6062
  720MOL0     C94954   3.573   3.038   7.992  0.2964  1.4891 -0.3385
  720MOL0     O94955   3.823   2.904   7.890  0.3553  0.5155  0.2815
  720MOL0     C94956   4.090   3.117   7.963  0.4756 -1.0399  0.0246
  720MOL0     C94957   4.224   3.129   7.929 -0.1258 -0.8971  0.2471
  720MOL0     N94958   4.937   3.397   7.752 -0.0543 -0.0375 -0.3886
  720MOL0     N94959   5.020   3.492   7.725 -0.7918  0.2028  0.1779
  720MOL0     C94960   6.043   3.219   7.133 -0.2497  0.3579  0.4309
  720MOL0     C94961   6.176   3.206   7.078 -0.2610  0.4882 -0.4260
  720MOL0     C94962   6.557   3.274   6.870  0.4063 -0.0772 -0.2771
  720MOL0     C94963   6.655   3.361   6.818 -0.0693  0.2040 -0.5427
  720MOL0     C94964   6.788   3.316   6.805 -0.6561 -0.9403 -0.2185
  720MOL0     C94965   6.826   3.193   6.862  0.2619  0.1730 -0.2227
  720MOL0     O94966   6.954   3.135   6.859  0.1902 -0.2205 -0.4015
  720MOL0     C94967   7.062   3.223   6.822 -0.0018  1.7103 -0.6085
  720MOL0     C94968   7.089   3.242   6.667  0.3104 -0.1003 -0.1789
  720MOL0     C94969   7.187   3.150   6.603  0.5624  0.5913  0.8715
  720MOL0     C94970   7.296   3.218   6.519  0.8401 -0.2794  0.5816
  720MOL0     C94971   7.405   3.128   6.512 -0.0180  0.1210 -0.6223
  720MOL0     C94972   7.497   3.047   6.497  0.2754  0.2245 -0.2537
  720MOL0     C94973   6.732   3.117   6.918 -1.5722  0.4227  0.5455
  720MOL0     C94974   6.599   3.161   6.926  0.1819  0.4347  0.5948
  720MOL0     H94975   6.122   3.338   6.771 -2.2116  0.5905  0.7397
  720MOL0     H94976   5.906   3.377   6.868 -0.2648 -1.1303  0.1616
  720MOL0     H94977   5.711   3.297   6.965 -0.5920  0.0762  0.0105
  720MOL0     H94978   5.724   3.444   7.046 -0.3975 -0.9651  0.7386
  720MOL0     H94979   5.621   3.209   7.205  2.9333 -0.6583 -2.0895
  720MOL0     H94980   5.500   3.289   7.105 -0.4543 -2.0314  0.2253
  720MOL0     H94981   5.564   3.510   7.195 -0.8433 -0.8972 -0.5420
  720MOL0     H94982   5.674   3.442   7.312 -1.1415 -2.0889  1.8060
  720MOL0     H94983   5.380   3.363   7.298  0.0823  2.0256 -1.0411
  720MOL0     H94984   5.495   3.294   7.412  1.2095 -1.7591 -2.5866
  720MOL0     H94985   5.393   3.582   7.421 -0.0660 -0.8697 -0.8630
  720MOL0     H94986   5.543   3.511   7.504  0.4788 -0.8563  0.0528
  720MOL0     H94987   5.396   3.363   7.635  4.1271  2.1915  0.8635
  720MOL0     H94988   5.256   3.399   7.538  1.2825 -1.1974 -0.3359
  720MOL0     H94989   5.416   3.604   7.696 -0.1049  0.4252 -1.9201
  720MOL0     H94990   5.251   3.635   7.618 -0.5246  0.7345 -0.1128
  720MOL0     H94991   5.233   3.603   7.873  0.6382 -1.0816  2.2741
  720MOL0     H94992   5.329   3.460   7.862  1.9766  1.4698  0.0594
  720MOL0     H94993   5.180   3.287   7.938 -1.5929 -3.9730 -1.1205
  720MOL0     H94994   4.917   3.129   7.978  2.5630  1.0642  0.4809
  720MOL0     H94995   4.915   3.090   7.806  0.0213 -0.1936  0.6842
  720MOL0     H94996   4.732   3.249   7.757  5.9348 -0.4220 -0.4601
  720MOL0     H94997   4.722   3.303   7.919  1.7712  0.1928 -0.8728
  720MOL0     H94998   4.671   3.021   7.805  2.4638 -0.0543  0.0649
  720MOL0     H94999   4.668   3.057   7.987 -0.4703  2.2174  0.8060
  720MOL0     H95000   4.496   3.226   7.807  0.2982  0.6323  0.5170
  720MOL0     H95001   4.472   3.167   7.976  0.9918  2.3446 -0.0014
  720MOL0     H95002   4.274   2.836   7.764 -1.3260  0.7892 -1.5729
  720MOL0     H95003   4.028   2.827   7.793 -1.4420 -0.2236  1.0878
  720MOL0     H95004   3.757   3.277   8.145 -0.4520  0.3802  0.1626
  720MOL0     H95005   3.537   3.355   8.214  1.7043  0.6380 -1.0135
  720MOL0     H95006   3.359   3.460   8.114  1.6834  1.1856  3.4924
  720MOL0     H95007   3.306   3.380   8.271  2.7641  0.1645 -0.8798
  720MOL0     H95008   3.087   3.367   8.201 -2.1061 -0.9009 -1.6433
  720MOL0     H95009   3.126   3.400   8.030  1.2296  1.2799 -0.0839
  720MOL0     H95010   3.181   3.640   8.104  0.1902  0.3732  0.2321
  720MOL0     H95011   3.136   3.598   8.268 -0.5572 -1.1471  0.5857
  720MOL0     H95012   2.914   3.554   8.071 -5.1237  1.8047  1.1255
  720MOL0     H95013   2.916   3.568   8.241 -0.9269 -1.4831 -1.3926
  720MOL0     H95014   3.005   3.793   8.243  5.7072 -3.8762 -1.2640
  720MOL0     H95015   2.843   3.788   8.172 -0.6542 -2.1372  0.4149
  720MOL0     H95016   2.940   3.789   7.947  1.2569  0.5789 -0.3831
  720MOL0     H95017   3.103   3.822   7.993  0.3600  2.8964 -1.1403
  720MOL0     H95018   2.999   4.006   7.919 -2.5802  1.4736 -0.3134
  720MOL0     H95019   2.864   4.012   8.032 -0.1800  1.4661 -5.0371
  720MOL0     H95020   3.150   4.023   8.128  0.4215  4.8025 -0.5158
  720MOL0     H95021   3.000   4.050   8.229  1.4873  1.7390  1.5764
  720MOL0     H95022   3.358   3.059   7.971  2.0882  0.5666 -1.5010
  720MOL0     H95023   3.577   2.953   7.926  0.6491  0.1437  1.3517
  720MOL0     H95024   4.040   3.189   8.028 -1.8463 -3.5016  1.1470
  720MOL0     H95025   4.282   3.210   7.972 -0.2126 -1.2849  1.1213
  720MOL0     H95026   6.022   3.183   7.233 -0.8095 -0.3155  0.0843
  720MOL0     H95027   6.249   3.156   7.141  0.7989 -0.7751 -2.5079
  720MOL0     H95028   6.628   3.462   6.788 -1.3219 -0.0473 -0.2995
  720MOL0     H95029   6.867   3.373   6.757 -0.7754 -0.2521  0.3804
  720MOL0     H95030   7.151   3.183   6.870  0.3350  1.6566 -1.2684
  720MOL0     H95031   7.051   3.323   6.866 -0.3029  1.1168  0.7232
  720MOL0     H95032   6.997   3.223   6.610  1.5734  2.2052 -3.2513
  720MOL0     H95033   7.111   3.347   6.644  0.8196 -0.3920 -1.0368
  720MOL0     H95034   7.140   3.084   6.529 -0.2445 -0.5732  2.3711
  720MOL0     H95035   7.230   3.081   6.676 -2.6057 -3.0021 -0.3356
  720MOL0     H95036   7.259   3.242   6.419  0.8632 -0.2791  0.5729
  720MOL0     H95037   7.318   3.316   6.563  0.7231  0.9945 -2.0120
  720MOL0     H95038   7.574   2.977   6.469 -1.6194 -1.4009 -1.7139
  720MOL0     H95039   6.759   3.018   6.953 -3.1744 -0.2025  0.1028
  720MOL0     H95040   6.530   3.093   6.975 -1.7651  1.2016 -0.9418
  721MOL0     O95041  11.183   3.066  10.161  0.2281  0.1425 -0.9324
  721MOL0     C95042  11.211   2.958  10.200  0.0146 -0.0129  0.0484
  721MOL0     O95043  11.126   2.852  10.211  0.3171  0.4946  0.0858
  721MOL0     C95044  10.996   2.879  10.186  0.2141  0.3800  0.5010
  721MOL0     C95045  10.901   2.890  10.288 -0.5775 -0.6560 -1.5795
  721MOL0     C95046  10.766   2.907  10.252 -0.0720 -0.6876 -0.8782
  721MOL0     C95047  10.730   2.911  10.117 -0.2094  0.7373 -0.0549
  721MOL0     O95048  10.604   2.937  10.065  0.2031 -0.3105 -0.5695
  721MOL0     C95049  10.500   2.977  10.156  0.5864 -0.0251  0.1387
  721MOL0     C95050  10.364   2.974  10.082  0.0589 -0.3739 -0.3233
  721MOL0     C95051  10.361   3.095   9.988 -0.2640  0.3676  1.3227
  721MOL0     C95052  10.242   3.080   9.897 -0.8629 -0.3444 -0.2635
  721MOL0     C95053  10.232   3.196   9.803 -0.1511 -0.8683  0.4384
  721MOL0     C95054  10.137   3.171   9.688 -0.1709  0.3102  0.2987
  721MOL0     C95055  10.176   3.277   9.581  0.1558  0.3798 -0.3649
  721MOL0     C95056  10.098   3.247   9.453  0.0193 -0.4400  0.0878
  721MOL0     N95057  10.097   3.105   9.410 -0.0246 -0.2865  0.4675
  721MOL0     C95058  10.201   3.042   9.340  0.4214 -0.6630  1.1577
  721MOL0     C95059  10.161   2.912   9.313  0.6158 -0.2650 -0.9433
  721MOL0     C95060  10.244   2.812   9.244 -0.0027 -0.8753  0.0558
  721MOL0     C95061  10.235   2.673   9.301  0.2943  0.2965  0.1637
  721MOL0     C95062  10.330   2.662   9.425  0.3705  0.0883  0.4908
  721MOL0     C95063  10.280   2.732   9.551 -0.1240 -0.2438  0.0422
  721MOL0     O95064  10.383   2.695   9.650  0.1989  0.1054 -0.7720
  721MOL0     C95065  10.504   2.748   9.646 -0.2594  0.3809  1.2830
  721MOL0     C95066  10.528   2.882   9.635 -0.2145  0.4505 -0.2366
  721MOL0     C95067  10.657   2.937   9.631 -0.3496  0.0149  0.1190
  721MOL0     C95068  10.764   2.851   9.643 -0.3156  0.1037  0.8970
  721MOL0     C95069  10.900   2.893   9.648  0.6241  0.6205  0.5639
  721MOL0     O95070  10.987   2.829   9.730 -0.4117 -0.1933  0.0397
  721MOL0     C95071  11.124   2.840   9.709  0.0047  0.7376 -0.4874
  721MOL0     C95072  11.183   2.967   9.707  0.3922  0.0923  0.4167
  721MOL0     C95073  11.320   2.984   9.665 -0.4177  0.3006 -0.5557
  721MOL0     C95074  11.396   2.870   9.647 -0.2199 -1.0993 -0.4322
  721MOL0     O95075  11.533   2.865   9.627 -0.0797  0.0682  0.6251
  721MOL0     C95076  11.610   2.990   9.612 -0.2715  0.3686  0.4501
  721MOL0     C95077  11.765   2.968   9.590 -0.5285 -0.2980 -0.6918
  721MOL0     C95078  11.842   3.103   9.583  0.6858  0.0289  0.0200
  721MOL0     C95079  11.984   3.088   9.560  0.5188 -0.3311  0.5535
  721MOL0     C95080  12.073   3.211   9.556 -0.7200  0.0541  1.0203
  721MOL0     C95081  12.204   3.180   9.478  0.4783  0.9103  0.7760
  721MOL0     C95082  12.321   3.274   9.509  0.8563 -0.1623 -0.1339
  721MOL0     C95083  12.451   3.241   9.428  0.0890 -0.9167  0.2117
  721MOL0    Cl95084  12.568   3.359   9.474  0.3692 -0.3441  0.1746
  721MOL0     C95085  11.339   2.746   9.637 -0.4264  0.4701 -0.3783
  721MOL0     C95086  11.202   2.734   9.673  0.2777  0.0952 -0.0006
  721MOL0     O95087  10.925   2.996   9.578  0.2824 -0.6017  0.2428
  721MOL0     C95088  10.745   2.715   9.670  0.0865 -0.4525  0.0379
  721MOL0     C95089  10.616   2.661   9.660  0.4947 -0.1511 -0.3894
  721MOL0     N95090  10.042   2.899   9.377  0.2784  0.2618 -0.0549
  721MOL0     N95091  10.002   3.011   9.440 -0.3997  0.4230  0.7797
  721MOL0     C95092  10.827   2.896  10.019  0.3588 -0.7062  0.0795
  721MOL0     C95093  10.957   2.878  10.052  0.9328  0.2040 -0.1761
  721MOL0     C95094  11.353   2.935  10.215 -0.1415 -0.4371 -0.3062
  721MOL0     C95095  11.393   2.818  10.288 -1.0874  0.1541  0.7297
  721MOL0     C95096  11.521   2.812  10.325  0.3109  0.5005 -0.5717
  721MOL0     C95097  11.611   2.909  10.303  0.0801 -0.1638 -0.8817
  721MOL0     O95098  11.739   2.892  10.345 -0.0134  0.1430  0.0845
  721MOL0     C95099  11.745   2.878  10.486  0.0648  0.7656  0.0343
  721MOL0     C95100  11.886   2.910  10.542 -0.3210  0.3037  0.0832
  721MOL0     C95101  11.929   3.050  10.483  0.3746  0.4932 -0.0689
  721MOL0     C95102  12.076   3.067  10.481  0.8693 -0.0211 -0.5725
  721MOL0     C95103  12.133   3.075  10.618 -0.5188  0.0047 -0.8583
  721MOL0     C95104  12.190   3.089  10.726 -0.4218 -0.5215 -0.3977
  721MOL0     C95105  11.577   3.030  10.247  0.9111 -0.5353  0.4040
  721MOL0     C95106  11.449   3.048  10.200 -0.1248  1.2474  0.5330
  721MOL0     H95107  10.940   2.888  10.389  0.1729  1.9867 -1.7406
  721MOL0     H95108  10.688   2.919  10.326  0.4620  1.0510 -0.5361
  721MOL0     H95109  10.537   3.068  10.205 -0.8140  0.4888  0.2946
  721MOL0     H95110  10.500   2.897  10.230  0.9857 -0.8402 -0.7257
  721MOL0     H95111  10.287   2.972  10.160 -0.3204 -0.2048 -0.6942
  721MOL0     H95112  10.362   2.882  10.023  2.0393 -0.9027  0.3511
  721MOL0     H95113  10.448   3.096   9.920 -0.0782 -0.3914  1.5322
  721MOL0     H95114  10.359   3.183  10.051  1.5027  1.9494 -0.6540
  721MOL0     H95115  10.244   2.981   9.850 -0.5763 -0.5460  0.1603
  721MOL0     H95116  10.148   3.078   9.953 -1.3003  2.2491 -0.7767
  721MOL0     H95117  10.330   3.221   9.762  0.1790 -1.5192  0.8128
  721MOL0     H95118  10.197   3.281   9.862 -0.1375 -0.8307  0.3922
  721MOL0     H95119  10.038   3.190   9.731 -0.5727 -2.1092  0.5457
  721MOL0     H95120  10.143   3.065   9.661 -1.8239  0.4301 -0.7044
  721MOL0     H95121  10.164   3.381   9.614 -1.9746  0.6513 -1.8360
  721MOL0     H95122  10.279   3.258   9.550  0.1020 -1.5609  0.5032
  721MOL0     H95123  10.146   3.303   9.372  0.8338  0.0659  0.9061
  721MOL0     H95124   9.993   3.279   9.463 -0.1432 -1.2560  1.2536
  721MOL0     H95125  10.299   3.079   9.312 -0.2667  2.9440  2.9303
  721MOL0     H95126  10.348   2.846   9.234  1.4847 -4.4555  1.4646
  721MOL0     H95127  10.202   2.797   9.144 -0.2776  0.7347 -0.0934
  721MOL0     H95128  10.270   2.609   9.220  1.6997  1.8170 -0.4840
  721MOL0     H95129  10.133   2.637   9.316  0.7056 -1.2769 -0.5622
  721MOL0     H95130  10.344   2.557   9.450  0.8786  0.3633  1.4198
  721MOL0     H95131  10.424   2.708   9.391 -0.7504  0.1494 -2.8821
  721MOL0     H95132  10.184   2.700   9.593 -0.7346  0.2891 -0.9134
  721MOL0     H95133  10.287   2.839   9.529 -0.9348 -0.1798  0.0894
  721MOL0     H95134  10.437   2.940   9.623 -0.8931 -0.6660 -0.7136
  721MOL0     H95135  10.677   3.040   9.604 -3.9013  0.9318  0.4595
  721MOL0     H95136  11.135   3.063   9.726  0.5212  0.1496  0.4529
  721MOL0     H95137  11.369   3.079   9.644 -1.0572  1.4327  2.4600
  721MOL0     H95138  11.577   3.050   9.697 -1.9219 -1.1872  0.9911
  721MOL0     H95139  11.586   3.040   9.518  0.1154 -2.0886 -1.0421
  721MOL0     H95140  11.775   2.914   9.496 -1.2268  0.9175 -1.4976
  721MOL0     H95141  11.805   2.907   9.672 -0.5299  2.4072  1.4924
  721MOL0     H95142  11.827   3.153   9.679 -2.5126 -1.8255  0.6659
  721MOL0     H95143  11.787   3.160   9.507  0.2842 -1.3558 -0.7689
  721MOL0     H95144  12.021   3.027   9.643  0.2504  0.6655  1.4162
  721MOL0     H95145  12.008   3.037   9.466  3.3114  0.9955  0.4380
  721MOL0     H95146  12.082   3.256   9.656 -1.4419  1.8313  0.3308
  721MOL0     H95147  12.027   3.286   9.491 -0.2806  1.2375  2.0095
  721MOL0     H95148  12.186   3.179   9.370  1.4729  1.3917  0.6001
  721MOL0     H95149  12.245   3.081   9.500  0.2474  0.3662 -1.0520
  721MOL0     H95150  12.286   3.375   9.487 -0.5783 -0.8080 -0.8945
  721MOL0     H95151  12.337   3.269   9.618 -2.9948 -0.0658  0.5481
  721MOL0     H95152  12.435   3.249   9.320 -0.7296 -1.3899  0.2863
  721MOL0     H95153  12.482   3.138   9.453  1.2638 -0.8400 -0.8367
  721MOL0     H95154  11.399   2.660   9.612 -0.6336  0.2252 -0.0360
  721MOL0     H95155  11.161   2.633   9.671  1.1887 -0.3095  0.7992
  721MOL0     H95156  10.832   2.650   9.679 -0.9869 -2.1262 -1.0908
  721MOL0     H95157  10.592   2.557   9.680 -0.6933  0.2512  0.3870
  721MOL0     H95158  10.807   2.912   9.914 -0.2040  2.2426  0.5468
  721MOL0     H95159  11.029   2.878   9.972  0.3473  1.3361 -0.7339
  721MOL0     H95160  11.332   2.732  10.312 -2.0912  0.6039 -0.1410
  721MOL0     H95161  11.546   2.728  10.388  0.4810  2.2578  1.8316
  721MOL0     H95162  11.722   2.772  10.496  0.2898  0.7531  0.4424
  721MOL0     H95163  11.666   2.936  10.535 -0.6270 -0.4373  0.3840
  721MOL0     H95164  11.884   2.894  10.650  1.9389 -2.4682 -0.1385
  721MOL0     H95165  11.958   2.841  10.496 -0.8403  1.3751 -2.4600
  721MOL0     H95166  11.876   3.126  10.542 -4.6922 -2.8075  0.2694
  721MOL0     H95167  11.896   3.067  10.380 -1.9085  0.5359  0.5973
  721MOL0     H95168  12.118   2.978  10.433 -1.8807 -2.3792  1.1004
  721MOL0     H95169  12.093   3.160  10.426 -1.9822 -0.4461 -2.3778
  721MOL0     H95170  12.240   3.082  10.821  0.6839  1.4770 -0.7810
  721MOL0     H95171  11.652   3.108  10.236  0.6876 -0.3895 -0.1296
  721MOL0     H95172  11.420   3.144  10.158 -0.1487  1.3864  0.8666
  722MOL0     O95173   8.436   8.255   4.948  0.0446 -0.6505  0.0254
  722MOL0     C95174   8.512   8.341   4.992 -0.0111 -0.0986  0.8019
  722MOL0     O95175   8.476   8.454   5.058 -0.1424 -0.6231 -0.4015
  722MOL0     C95176   8.354   8.503   5.029  0.0097 -0.2887 -0.0916
  722MOL0     C95177   8.243   8.461   5.109 -0.2637 -0.1378 -0.6908
  722MOL0     C95178   8.121   8.535   5.096 -0.1038  0.2496  0.8708
  722MOL0     C95179   8.119   8.645   5.007  0.9655 -0.2658 -0.2134
  722MOL0     O95180   8.012   8.735   4.988 -0.1481  0.2935  0.9429
  722MOL0     C95181   7.883   8.683   5.032  0.8738 -0.1562 -0.3491
  722MOL0     C95182   7.795   8.804   5.021 -0.9056 -0.2941  0.1085
  722MOL0     C95183   7.648   8.784   5.058 -1.2557 -0.2524  0.2678
  722MOL0     C95184   7.572   8.908   5.041  0.0215  0.1355 -0.1200
  722MOL0     C95185   7.428   8.894   5.091 -0.8447 -0.0793  0.1966
  722MOL0     C95186   7.357   9.030   5.079 -0.4889  0.1013 -0.5394
  722MOL0     C95187   7.227   9.033   5.173 -0.1902 -0.1889  0.7951
  722MOL0     C95188   7.167   9.174   5.188  0.1029  0.0625  0.0618
  722MOL0     N95189   7.027   9.164   5.234 -0.0331 -0.1472  0.0768
  722MOL0     C95190   6.921   9.155   5.154  0.0190  1.0899 -0.4460
  722MOL0     C95191   6.812   9.144   5.242  0.3707  0.2840  1.0038
  722MOL0     C95192   6.674   9.149   5.183  0.0111  0.5239 -0.0026
  722MOL0     C95193   6.594   9.270   5.229 -0.3516 -0.8173  0.0045
  722MOL0     C95194   6.580   9.300   5.379  0.0999  0.3052  0.9710
  722MOL0     C95195   6.448   9.344   5.414 -0.5435  0.3729  1.1075
  722MOL0     O95196   6.336   9.244   5.387 -0.5251 -0.1695 -0.7223
  722MOL0     C95197   6.203   9.262   5.420  0.5219 -0.0490  0.1628
  722MOL0     C95198   6.150   9.391   5.440  1.0074  1.1210  0.1029
  722MOL0     C95199   6.014   9.412   5.460 -0.0251  0.5622 -0.2053
  722MOL0     C95200   5.927   9.300   5.486 -0.1383 -0.5337 -0.4549
  722MOL0     C95201   5.787   9.321   5.515 -0.1223  0.5019 -1.1912
  722MOL0     O95202   5.742   9.451   5.499  0.8469  0.5547 -0.1811
  722MOL0     C95203   5.635   9.494   5.564 -0.2968  0.1308 -0.0759
  722MOL0     C95204   5.510   9.383   5.691  0.0781 -0.7509 -0.4462
  722MOL0     C95205   5.342   9.480   5.786  0.7568  0.0191  0.1215
  722MOL0     C95206   5.304   9.682   5.759 -0.6928 -0.4983  0.4656
  722MOL0     O95207   5.191   9.751   5.806 -0.6791  0.7628 -0.5452
  722MOL0     C95208   5.111   9.655   5.880 -0.3701  0.4757 -0.8147
  722MOL0     C95209   4.984   9.716   5.934  0.2604 -0.9898 -0.3287
  722MOL0     C95210   4.907   9.794   5.827  0.1121 -0.4846  0.0664
  722MOL0     C95211   4.784   9.877   5.874  0.3968 -0.2367 -0.0056
  722MOL0     C95212   4.676   9.771   5.918 -0.3210 -0.2741 -0.0626
  722MOL0     C95213   4.544   9.827   5.986 -0.4464  0.1433  0.2007
  722MOL0     C95214   4.421   9.735   5.971  0.5415  0.3589  0.4733
  722MOL0     C95215   4.304   9.765   6.065 -0.1762 -0.6540  0.4157
  722MOL0    Cl95216   4.367   9.730   6.228 -0.0904 -0.0587 -0.4325
  722MOL0     C95217   5.430   9.795   5.631 -0.7906 -0.2866 -0.0187
  722MOL0     C95218   5.597   9.701   5.538  0.2792 -0.0370  0.0818
  722MOL0     O95219   5.725   9.223   5.553  0.2110 -0.5235  0.1141
  722MOL0     C95220   5.985   9.177   5.477  0.2492  0.0136  0.3677
  722MOL0     C95221   6.112   9.153   5.434  0.2449  0.0394  0.1928
  722MOL0     N95222   6.856   9.132   5.370 -0.9864 -0.6511  0.7334
  722MOL0     N95223   6.990   9.147   5.363  0.0292  0.5204  1.0689
  722MOL0     C95224   8.219   8.667   4.918 -0.4171 -0.2683 -0.1104
  722MOL0     C95225   8.334   8.593   4.930 -0.0356 -0.1514 -0.1299
  722MOL0     C95226   8.660   8.332   4.957  0.3555  0.7989  0.8934
  722MOL0     C95227   8.744   8.440   4.969 -0.1487 -0.3572 -0.5845
  722MOL0     C95228   8.884   8.425   4.942 -0.9156 -0.2704  0.5769
  722MOL0     C95229   8.935   8.302   4.892 -0.5835  0.0119 -0.1570
  722MOL0     O95230   9.070   8.300   4.858  0.1564  0.0902 -0.2871
  722MOL0     C95231   9.132   8.177   4.827  0.8723 -0.2446  0.5532
  722MOL0     C95232   9.153   8.101   4.955 -0.3007  0.3232 -0.0179
  722MOL0     C95233   9.239   7.970   4.924  0.8044  0.3352  0.1437
  722MOL0     C95234   9.197   7.842   5.003  0.4430  0.0550 -0.6799
  722MOL0     C95235   9.060   7.802   4.978 -0.1788  0.6838 -0.8735
  722MOL0     C95236   8.948   7.775   4.943 -1.1544  0.0781  0.1345
  722MOL0     C95237   8.842   8.200   4.869 -0.1162  0.2685  0.0387
  722MOL0     C95238   8.716   8.208   4.915  0.0065  1.0576  0.0466
  722MOL0     H95239   8.256   8.382   5.182 -1.3311  2.6699  2.8007
  722MOL0     H95240   8.032   8.506   5.151 -0.7133 -1.1052 -0.7347
  722MOL0     H95241   7.887   8.652   5.137 -1.0020  3.2345  0.8834
  722MOL0     H95242   7.845   8.600   4.972 -2.5404  1.1732 -0.2589
  722MOL0     H95243   7.806   8.853   4.923  0.7778 -0.5977  0.1132
  722MOL0     H95244   7.836   8.874   5.094 -0.8507 -0.9415  0.6982
  722MOL0     H95245   7.646   8.755   5.164 -1.2304  1.7473  0.8525
  722MOL0     H95246   7.600   8.703   5.001 -3.4249  1.5624 -0.6356
  722MOL0     H95247   7.619   8.993   5.091 -0.0411  1.0908 -1.6030
  722MOL0     H95248   7.555   8.937   4.936 -4.2702  2.4426  0.9860
  722MOL0     H95249   7.425   8.852   5.192  1.8207 -0.3920  0.2338
  722MOL0     H95250   7.383   8.823   5.021 -1.3466  2.2804 -2.0419
  722MOL0     H95251   7.330   9.056   4.976 -0.9414  1.4765 -0.0995
  722MOL0     H95252   7.416   9.113   5.116  0.9075 -0.7747 -0.7397
  722MOL0     H95253   7.153   8.974   5.118  1.9197 -0.8595 -1.5237
  722MOL0     H95254   7.247   8.998   5.275 -0.4576  0.7348  1.1732
  722MOL0     H95255   7.178   9.234   5.097  1.3391  1.6569  1.2128
  722MOL0     H95256   7.226   9.233   5.258 -0.9656  1.3091 -0.0544
  722MOL0     H95257   6.907   9.157   5.047 -2.4951  2.9793 -0.1549
  722MOL0     H95258   6.614   9.065   5.218 -0.6308  0.9657 -0.0259
  722MOL0     H95259   6.665   9.135   5.075 -0.6305  0.4205  0.0605
  722MOL0     H95260   6.496   9.257   5.182 -0.4891 -3.4137  0.8676
  722MOL0     H95261   6.631   9.364   5.187  1.6988 -1.4894  0.2085
  722MOL0     H95262   6.602   9.209   5.435  2.0032  0.9744  1.4189
  722MOL0     H95263   6.657   9.376   5.401 -0.7306  1.8738 -1.2184
  722MOL0     H95264   6.430   9.425   5.343 -0.0599 -2.0483 -2.0000
  722MOL0     H95265   6.452   9.390   5.513  3.4524  1.9027  0.4157
  722MOL0     H95266   6.217   9.474   5.426 -2.3874  3.8297 -1.6732
  722MOL0     H95267   5.970   9.511   5.457 -2.5674 -0.3577  1.8762
  722MOL0     H95268   5.525   9.276   5.703 -0.3627 -0.8531 -0.7483
  722MOL0     H95269   5.266   9.421   5.837  0.2726  0.4321 -0.1202
  722MOL0     H95270   5.161   9.611   5.967  0.2294 -3.1893 -2.7826
  722MOL0     H95271   5.090   9.577   5.807  0.2774 -1.2198  0.7152
  722MOL0     H95272   5.017   9.785   6.013  1.6844 -0.8286 -1.0259
  722MOL0     H95273   4.925   9.636   5.979 -0.6623  0.3832  1.0067
  722MOL0     H95274   4.884   9.729   5.741  0.5345 -0.3997 -0.1100
  722MOL0     H95275   4.979   9.860   5.778  0.2372  0.0748  0.9796
  722MOL0     H95276   4.811   9.949   5.951 -1.8339  2.7949 -1.8481
  722MOL0     H95277   4.749   9.939   5.791  2.2738  1.3315  0.3052
  722MOL0     H95278   4.715   9.688   5.978 -0.1514 -0.4360 -0.3903
  722MOL0     H95279   4.649   9.724   5.822 -3.0833  1.9350 -0.4883
  722MOL0     H95280   4.520   9.924   5.941 -2.6552 -0.7288 -0.6309
  722MOL0     H95281   4.553   9.831   6.095  1.4015 -3.7726  0.3836
  722MOL0     H95282   4.384   9.735   5.868  1.1214  0.3656  0.2555
  722MOL0     H95283   4.449   9.629   5.978  1.8729  0.6177 -0.4360
  722MOL0     H95284   4.226   9.691   6.046 -2.8929  1.9381  0.6458
  722MOL0     H95285   4.269   9.867   6.045  2.8891  1.2741  3.6965
  722MOL0     H95286   5.398   9.898   5.622 -2.0902 -0.5109  1.6003
  722MOL0     H95287   5.660   9.763   5.474 -0.8734 -0.2836 -1.3413
  722MOL0     H95288   5.918   9.095   5.501  0.0880  0.0737  0.1196
  722MOL0     H95289   6.139   9.048   5.420  2.3284  0.4909  0.6078
  722MOL0     H95290   8.210   8.740   4.839  0.8760 -0.3005 -0.3131
  722MOL0     H95291   8.415   8.619   4.863  0.4987 -0.9785  0.1976
  722MOL0     H95292   8.707   8.538   4.995 -2.4557 -0.4404 -3.0399
  722MOL0     H95293   8.947   8.512   4.959 -0.7390 -0.6578  2.0554
  722MOL0     H95294   9.229   8.200   4.781 -0.2751  2.0076 -0.9401
  722MOL0     H95295   9.080   8.113   4.755  1.3398 -0.8224  0.7190
  722MOL0     H95296   9.202   8.162   5.032  1.0260 -0.8888  0.1436
  722MOL0     H95297   9.058   8.060   4.991 -0.3852 -0.7710 -1.3908
  722MOL0     H95298   9.341   7.993   4.958  1.0943  0.1866 -0.6144
  722MOL0     H95299   9.232   7.961   4.816 -2.5998  2.4714  0.0295
  722MOL0     H95300   9.271   7.761   5.002 -0.5530 -0.9059 -2.7063
  722MOL0     H95301   9.200   7.852   5.112 -2.5019 -1.6266 -0.3573
  722MOL0     H95302   8.849   7.758   4.906 -1.5650  0.9608  0.8010
  722MOL0     H95303   8.872   8.107   4.822 -1.7659  0.7513 -2.0948
  722MOL0     H95304   8.650   8.122   4.909  1.0302  0.1717  0.7846
  723MOL0     O95305   7.481   7.552   7.371 -0.7565 -0.6514  0.3237
  723MOL0     C95306   7.503   7.434   7.355 -1.5614  0.0857 -0.2685
  723MOL0     O95307   7.429   7.330   7.396  0.5821  0.1414 -0.2443
  723MOL0     C95308   7.314   7.356   7.457  0.9634 -0.1299  0.0797
  723MOL0     C95309   7.297   7.345   7.590  1.0460  0.1606 -0.2711
  723MOL0     C95310   7.176   7.384   7.651 -0.3638 -0.2853  0.5650
  723MOL0     C95311   7.068   7.436   7.575  0.1346  0.5610  0.7424
  723MOL0     O95312   6.950   7.471   7.631  0.1315 -0.3575 -0.1655
  723MOL0     C95313   6.819   7.447   7.578  0.9724 -0.8020 -0.7471
  723MOL0     C95314   6.708   7.499   7.674 -0.3826  0.1462  0.0536
  723MOL0     C95315   6.572   7.427   7.652 -0.3994 -0.5722  0.4550
  723MOL0     C95316   6.467   7.516   7.725 -0.5091  1.2530 -1.0115
  723MOL0     C95317   6.327   7.441   7.717 -0.7265  0.5092  0.2262
  723MOL0     C95318   6.227   7.516   7.802 -0.4285  0.2099 -0.2222
  723MOL0     C95319   6.193   7.650   7.739 -0.3608  0.5770  0.4716
  723MOL0     C95320   6.084   7.727   7.812  0.1875  0.6048  0.1394
  723MOL0     N95321   5.949   7.667   7.796 -0.7791  0.1129 -0.2197
  723MOL0     C95322   5.879   7.667   7.666 -0.0419  0.3497 -0.4049
  723MOL0     C95323   5.772   7.589   7.690 -0.0801 -0.7535  0.2635
  723MOL0     C95324   5.666   7.549   7.596  1.8846  0.7000 -0.7683
  723MOL0     C95325   5.533   7.540   7.673 -1.1831  0.5786  0.0878
  723MOL0     C95326   5.420   7.508   7.586 -0.6002  0.0276  0.2646
  723MOL0     C95327   5.409   7.355   7.563 -0.7278 -0.2371  0.6226
  723MOL0     O95328   5.334   7.324   7.442 -0.2463 -0.4068  0.9084
  723MOL0     C95329   5.199   7.294   7.453 -0.3666 -1.2406  0.9788
  723MOL0     C95330   5.115   7.349   7.547  0.9758  0.4099 -0.0076
  723MOL0     C95331   4.977   7.320   7.546  0.9092  0.4229  0.5270
  723MOL0     C95332   4.925   7.243   7.436  0.3145  0.1554 -0.4395
  723MOL0     C95333   4.783   7.221   7.412  0.1027 -0.3101 -0.4006
  723MOL0     O95334   4.708   7.268   7.514  0.0181  0.3943  0.7607
  723MOL0     C95335   4.575   7.270   7.500  0.0588  0.0839  0.0412
  723MOL0     C95336   4.506   7.150   7.489  0.6696  0.4212 -0.6303
  723MOL0     C95337   4.374   7.149   7.473  0.2843  1.0097  0.5482
  723MOL0     C95338   4.303   7.266   7.451 -0.0229 -0.2086  0.0704
  723MOL0     O95339   4.170   7.279   7.413 -0.1561  0.1715 -0.7983
  723MOL0     C95340   4.099   7.153   7.420  0.5573  0.0428  0.1920
  723MOL0     C95341   3.954   7.184   7.431  0.0095 -0.1830 -0.1237
  723MOL0     C95342   3.896   7.195   7.291 -0.6988 -0.8140 -0.5473
  723MOL0     C95343   3.756   7.246   7.294  0.9307 -0.3150  0.1001
  723MOL0     C95344   3.657   7.156   7.370  0.0523  0.6991  0.6754
  723MOL0     C95345   3.509   7.204   7.342  0.0181  0.9123  0.0484
  723MOL0     C95346   3.474   7.317   7.441  0.3929 -0.3773 -0.3365
  723MOL0     C95347   3.336   7.355   7.398  0.4858 -0.2745 -0.2086
  723MOL0    Cl95348   3.213   7.272   7.493  0.5033  0.2306  0.0548
  723MOL0     C95349   4.371   7.388   7.478 -0.3821  0.1992  1.1823
  723MOL0     C95350   4.512   7.399   7.496  0.3382  0.3260 -0.9123
  723MOL0     O95351   4.736   7.178   7.306 -0.3747  0.5048  0.2425
  723MOL0     C95352   5.008   7.184   7.341 -0.2287  0.1241  0.5627
  723MOL0     C95353   5.147   7.204   7.363  0.2350  0.6032 -0.3237
  723MOL0     N95354   5.778   7.540   7.821  0.1196 -0.6228  0.0906
  723MOL0     N95355   5.880   7.591   7.886  0.1299 -0.0153  0.3070
  723MOL0     C95356   7.079   7.441   7.436 -0.2796 -0.5867  1.0276
  723MOL0     C95357   7.197   7.394   7.378 -0.4805 -0.5438 -0.6565
  723MOL0     C95358   7.648   7.396   7.310 -0.1473  1.3440 -0.1995
  723MOL0     C95359   7.725   7.487   7.236 -0.3762  0.7837 -0.8323
  723MOL0     C95360   7.846   7.438   7.194  0.2331 -0.0003 -0.2909
  723MOL0     C95361   7.893   7.310   7.214 -0.1993  0.2514 -0.4893
  723MOL0     O95362   8.019   7.288   7.165  0.0809 -0.5369  0.3360
  723MOL0     C95363   8.086   7.168   7.196  0.4090 -0.9064 -0.8259
  723MOL0     C95364   8.209   7.166   7.107  0.2598 -0.1397 -0.8034
  723MOL0     C95365   8.300   7.049   7.138  0.2668  0.7758 -0.4342
  723MOL0     C95366   8.385   7.045   7.268  0.6364  0.4027 -0.7155
  723MOL0     C95367   8.464   7.169   7.294  0.3480 -0.2297 -0.4958
  723MOL0     C95368   8.532   7.261   7.324 -0.0230  0.2188 -0.2646
  723MOL0     C95369   7.807   7.224   7.282 -0.4324  0.4672  0.2597
  723MOL0     C95370   7.689   7.264   7.339 -1.3200 -0.0317 -0.0621
  723MOL0     H95371   7.361   7.288   7.657  0.2760 -0.0843  0.2752
  723MOL0     H95372   7.160   7.373   7.758 -1.9766 -0.4165  0.3340
  723MOL0     H95373   6.810   7.339   7.561 -0.7124 -1.0674  1.4261
  723MOL0     H95374   6.812   7.497   7.481 -0.8413  1.1243  0.2839
  723MOL0     H95375   6.714   7.608   7.673  3.7695  0.0648  0.0720
  723MOL0     H95376   6.735   7.481   7.778  0.9462  2.2353  0.1273
  723MOL0     H95377   6.567   7.322   7.683 -1.6011 -1.2785 -1.9591
  723MOL0     H95378   6.549   7.428   7.545 -0.6113  1.3825  0.4758
  723MOL0     H95379   6.491   7.523   7.831 -1.4629 -1.2635 -0.5592
  723MOL0     H95380   6.460   7.617   7.685 -1.4235  3.1665  3.3896
  723MOL0     H95381   6.335   7.342   7.763  1.1685  1.1231  1.3398
  723MOL0     H95382   6.291   7.432   7.614  0.8926  0.8968 -0.3988
  723MOL0     H95383   6.266   7.525   7.904  0.4732 -2.8283 -0.2240
  723MOL0     H95384   6.141   7.449   7.811  0.8484 -1.4141  0.3009
  723MOL0     H95385   6.276   7.720   7.730 -2.7987  3.6445  0.2630
  723MOL0     H95386   6.150   7.625   7.642  0.2189 -5.2677  1.3164
  723MOL0     H95387   6.080   7.822   7.758  0.1179  0.5230 -0.0022
  723MOL0     H95388   6.103   7.742   7.919  1.3782  0.3884 -0.0202
  723MOL0     H95389   5.926   7.714   7.581  3.0016  0.0776  0.9852
  723MOL0     H95390   5.687   7.451   7.551 -2.9648 -0.4103 -1.0966
  723MOL0     H95391   5.648   7.624   7.518 -2.0061  1.3628  0.5879
  723MOL0     H95392   5.518   7.646   7.697  0.8008  1.3299 -1.6425
  723MOL0     H95393   5.521   7.470   7.755 -4.5978  0.5888 -0.2650
  723MOL0     H95394   5.319   7.537   7.619 -2.0757 -1.4362 -2.5980
  723MOL0     H95395   5.429   7.560   7.490  1.0451 -0.3234  0.2091
  723MOL0     H95396   5.373   7.305   7.653 -1.0813  0.3363  0.8040
  723MOL0     H95397   5.512   7.323   7.544 -1.2831 -0.8665 -1.7035
  723MOL0     H95398   5.128   7.432   7.617 -1.0230 -0.6454  1.7571
  723MOL0     H95399   4.916   7.367   7.622 -0.2313  0.2136 -0.2366
  723MOL0     H95400   4.560   7.056   7.488  2.0451  1.1564  0.1206
  723MOL0     H95401   4.322   7.055   7.462 -0.2568  1.1903  1.5043
  723MOL0     H95402   4.122   7.096   7.510 -4.0360 -1.8463  0.4561
  723MOL0     H95403   4.118   7.086   7.336 -2.4133  2.3283 -2.5839
  723MOL0     H95404   3.940   7.275   7.490  1.3954  0.8786 -1.3258
  723MOL0     H95405   3.913   7.100   7.487  1.7811 -0.3989  0.9464
  723MOL0     H95406   3.907   7.103   7.233  0.1012 -2.3001  1.7991
  723MOL0     H95407   3.962   7.265   7.239  1.0801 -1.6446  0.4875
  723MOL0     H95408   3.763   7.350   7.328  0.4121 -0.7323  1.5586
  723MOL0     H95409   3.724   7.261   7.191 -0.2319 -0.0254  0.4844
  723MOL0     H95410   3.669   7.147   7.479 -1.2256 -3.6913  0.6428
  723MOL0     H95411   3.663   7.050   7.345  2.6066  0.5516  1.5514
  723MOL0     H95412   3.442   7.118   7.344  1.6516 -0.6770 -3.7922
  723MOL0     H95413   3.498   7.234   7.238 -1.4311  2.1201  0.5046
  723MOL0     H95414   3.469   7.287   7.546 -1.4717 -0.7984 -0.5033
  723MOL0     H95415   3.544   7.401   7.436 -0.2541  0.1347 -1.0435
  723MOL0     H95416   3.313   7.353   7.291  0.8003  1.3213 -0.3334
  723MOL0     H95417   3.321   7.459   7.430  3.2220 -0.5469  2.4306
  723MOL0     H95418   4.315   7.481   7.467 -2.4856 -1.2502 -1.3368
  723MOL0     H95419   4.568   7.489   7.516  2.2525 -1.0596  0.3813
  723MOL0     H95420   4.987   7.126   7.252 -0.2807 -0.1215  0.7314
  723MOL0     H95421   5.219   7.158   7.296  2.4096 -0.5692  2.5923
  723MOL0     H95422   7.007   7.494   7.375 -1.2311 -1.4707  1.3421
  723MOL0     H95423   7.205   7.420   7.273  0.0634  1.3452 -0.1741
  723MOL0     H95424   7.691   7.588   7.217 -1.9549  0.1795 -1.3510
  723MOL0     H95425   7.908   7.498   7.128 -0.4610 -0.2361 -1.1847
  723MOL0     H95426   8.015   7.088   7.174 -1.6699  0.9816 -1.4252
  723MOL0     H95427   8.107   7.164   7.303 -0.2084 -0.8285 -0.6962
  723MOL0     H95428   8.190   7.146   7.002  0.6322 -1.9153 -0.5546
  723MOL0     H95429   8.256   7.265   7.102  0.3532 -0.1759 -0.6578
  723MOL0     H95430   8.380   7.046   7.064  1.5071  0.1559  0.8783
  723MOL0     H95431   8.243   6.956   7.145  2.1313 -0.2890  2.0729
  723MOL0     H95432   8.318   7.025   7.352  0.3720  0.7856 -0.8340
  723MOL0     H95433   8.446   6.955   7.272 -0.3015 -0.1890  1.4244
  723MOL0     H95434   8.601   7.340   7.346  1.5432 -0.9204 -0.8607
  723MOL0     H95435   7.847   7.126   7.306  1.3848  1.0718 -0.1423
  723MOL0     H95436   7.628   7.190   7.389  1.3327 -2.3858 -0.0586
  724MOL0     O95437   9.203   1.799   1.721  0.0207 -0.6541 -0.2794
  724MOL0     C95438   9.272   1.722   1.654 -0.0569 -0.0551 -0.2737
  724MOL0     O95439   9.291   1.593   1.684  0.8384 -0.1852  0.3579
  724MOL0     C95440   9.224   1.531   1.785 -0.0938  0.2858  0.8787
  724MOL0     C95441   9.084   1.528   1.805 -0.2507 -0.6845 -0.0715
  724MOL0     C95442   9.034   1.470   1.922  0.6972  0.9977 -0.0093
  724MOL0     C95443   9.115   1.400   2.009 -0.2235 -0.1922 -0.0427
  724MOL0     O95444   9.048   1.345   2.115 -0.7027  0.4052 -0.2659
  724MOL0     C95445   9.081   1.397   2.249 -0.0391  0.1553  0.3870
  724MOL0     C95446   8.983   1.353   2.357 -0.3379  0.4120  1.3559
  724MOL0     C95447   8.852   1.424   2.360 -0.0592 -0.6804  0.0570
  724MOL0     C95448   8.780   1.405   2.494 -0.1690  0.2367 -1.2367
  724MOL0     C95449   8.636   1.454   2.478 -0.0593  0.0488  0.9151
  724MOL0     C95450   8.562   1.496   2.605  0.3353  1.4984 -1.1642
  724MOL0     C95451   8.520   1.383   2.698  0.0518  0.1864 -0.5818
  724MOL0     C95452   8.390   1.415   2.773 -1.1956 -0.1848  0.5672
  724MOL0     N95453   8.283   1.382   2.682 -0.6163  0.7591 -0.8147
  724MOL0     C95454   8.234   1.471   2.598 -0.0317  0.5108  0.6259
  724MOL0     C95455   8.140   1.408   2.526  0.0583  0.4035 -0.7050
  724MOL0     C95456   8.058   1.471   2.421  0.6895  0.2268  1.0355
  724MOL0     C95457   7.907   1.459   2.443 -0.6111  0.5589  0.4247
  724MOL0     C95458   7.860   1.315   2.452 -0.3085 -0.0548 -0.1279
  724MOL0     C95459   7.908   1.217   2.340 -0.1308 -0.7363  0.8989
  724MOL0     O95460   7.828   1.103   2.318  0.1221  0.0647  0.1702
  724MOL0     C95461   7.784   1.034   2.427  0.0813  0.5576 -0.2313
  724MOL0     C95462   7.658   0.966   2.420 -0.1291  1.0543  0.4987
  724MOL0     C95463   7.626   0.866   2.514  0.0903  0.5130  0.0055
  724MOL0     C95464   7.690   0.863   2.640  0.0954 -0.6002  0.5357
  724MOL0     C95465   7.637   0.789   2.758 -0.1264 -1.0998  0.3011
  724MOL0     O95466   7.541   0.692   2.743 -0.4060  0.0619  0.0052
  724MOL0     C95467   7.475   0.630   2.846  0.3716  0.4867 -0.5122
  724MOL0     C95468   7.335   0.633   2.860  0.0747  1.0765 -0.3661
  724MOL0     C95469   7.278   0.566   2.968  0.3847  0.0406 -0.0415
  724MOL0     C95470   7.356   0.510   3.068 -0.5289  0.0676  0.6916
  724MOL0     O95471   7.288   0.446   3.161 -0.1408 -0.2514 -0.6233
  724MOL0     C95472   7.358   0.346   3.237 -0.6672  0.3973 -0.2258
  724MOL0     C95473   7.262   0.237   3.287  0.2874 -0.3669  0.7826
  724MOL0     C95474   7.239   0.131   3.170 -0.8547 -0.7223  0.6514
  724MOL0     C95475   7.160   0.007   3.194  0.0504 -0.6898  0.5706
  724MOL0     C95476   7.022   0.036   3.247 -0.0928  0.9188 -0.2682
  724MOL0     C95477   6.951  -0.066   3.346 -1.3730  0.0233  0.1522
  724MOL0     C95478   6.987  -0.207   3.320  0.0975 -0.8638  0.3987
  724MOL0     C95479   6.884  -0.295   3.385  0.0574  0.0841 -0.4212
  724MOL0    Cl95480   6.847  -0.234   3.550 -0.2417  0.1255  0.3463
  724MOL0     C95481   7.494   0.508   3.055  0.2196 -0.1430 -0.8943
  724MOL0     C95482   7.555   0.561   2.942  0.8366 -0.5959 -0.2414
  724MOL0     O95483   7.677   0.834   2.868  0.4531  0.4823 -0.2643
  724MOL0     C95484   7.811   0.932   2.652 -0.7576  0.9525  0.0086
  724MOL0     C95485   7.858   1.009   2.546  0.1347 -0.1287 -0.0534
  724MOL0     N95486   8.145   1.272   2.554 -0.5847 -0.2160  0.4591
  724MOL0     N95487   8.229   1.260   2.652 -0.0439  0.4722 -0.0692
  724MOL0     C95488   9.249   1.395   1.993  0.0774  0.6997  1.6478
  724MOL0     C95489   9.306   1.467   1.883  0.3279  0.1819 -1.0860
  724MOL0     C95490   9.326   1.778   1.532 -0.3120 -0.6480 -0.3001
  724MOL0     C95491   9.393   1.700   1.433  0.7365  0.2763  0.2414
  724MOL0     C95492   9.458   1.755   1.322  0.4310  0.3087  0.1542
  724MOL0     C95493   9.449   1.889   1.306 -0.1630 -0.2667  0.4150
  724MOL0     O95494   9.502   1.933   1.190 -0.6445  0.1534 -0.1567
  724MOL0     C95495   9.620   2.017   1.207  0.0518  0.6169  0.7615
  724MOL0     C95496   9.674   2.073   1.077  0.2026  0.0032 -0.7066
  724MOL0     C95497   9.768   1.974   1.010 -0.4819 -0.6324  0.2744
  724MOL0     C95498   9.919   1.975   1.060  0.6131 -0.0634 -0.0284
  724MOL0     C95499  10.009   1.889   0.994 -0.3769  0.4390 -0.4659
  724MOL0     C95500  10.097   1.803   0.972  0.3569  0.3068 -0.5625
  724MOL0     C95501   9.394   1.974   1.396 -0.3842  0.8803 -0.0682
  724MOL0     C95502   9.336   1.920   1.517  0.8376 -0.0947  1.0187
  724MOL0     H95503   9.014   1.572   1.735 -1.8096 -1.9583  0.6108
  724MOL0     H95504   8.925   1.472   1.925  0.5539  0.4143 -2.4958
  724MOL0     H95505   9.089   1.505   2.233  2.4961 -0.2523 -1.5459
  724MOL0     H95506   9.179   1.359   2.278 -0.9631 -2.8791 -0.1472
  724MOL0     H95507   9.027   1.361   2.457  0.7786 -0.5569  0.9689
  724MOL0     H95508   8.967   1.246   2.343  2.1067  0.2602 -1.1111
  724MOL0     H95509   8.782   1.386   2.285 -1.3798  1.7121 -0.0100
  724MOL0     H95510   8.867   1.531   2.341  0.6189 -1.1848 -2.6125
  724MOL0     H95511   8.776   1.303   2.534  3.0647  0.4548 -0.0311
  724MOL0     H95512   8.823   1.459   2.579  0.0678 -1.9532  0.1322
  724MOL0     H95513   8.574   1.383   2.422  0.2392 -1.5123  2.4608
  724MOL0     H95514   8.642   1.541   2.413 -4.2341 -0.4568 -0.4194
  724MOL0     H95515   8.476   1.560   2.583 -1.5937 -1.1803 -1.9337
  724MOL0     H95516   8.626   1.552   2.674  0.1553 -0.7397  0.9464
  724MOL0     H95517   8.495   1.292   2.643  1.5644  0.4516 -1.7911
  724MOL0     H95518   8.606   1.353   2.758  1.0651  1.0635 -1.5345
  724MOL0     H95519   8.377   1.516   2.815 -0.3619 -0.2425  0.9706
  724MOL0     H95520   8.380   1.345   2.856  0.5025 -2.3135 -0.9201
  724MOL0     H95521   8.263   1.575   2.588  0.5786  0.1570 -2.1112
  724MOL0     H95522   8.082   1.406   2.336  0.7403  2.3666 -0.6839
  724MOL0     H95523   8.099   1.569   2.394  0.3478  0.5576  1.7054
  724MOL0     H95524   7.858   1.512   2.361  1.2357  1.0674 -0.4089
  724MOL0     H95525   7.892   1.513   2.537  0.2863 -2.2118  2.2837
  724MOL0     H95526   7.891   1.278   2.551  0.8374 -0.1624 -0.5162
  724MOL0     H95527   7.752   1.335   2.452 -0.1439  0.9190  0.6182
  724MOL0     H95528   8.011   1.189   2.364 -0.3321 -0.7954  1.7177
  724MOL0     H95529   7.905   1.265   2.242 -3.1369 -0.9107  0.8245
  724MOL0     H95530   7.604   0.991   2.328  1.4941 -0.2102 -0.8590
  724MOL0     H95531   7.543   0.798   2.503  2.0363 -2.0793  0.3663
  724MOL0     H95532   7.259   0.676   2.796  0.3381  3.0602  0.5686
  724MOL0     H95533   7.171   0.561   2.982  0.6318 -1.8618  1.6157
  724MOL0     H95534   7.397   0.400   3.323  0.5623  1.8476 -1.6135
  724MOL0     H95535   7.439   0.292   3.187  1.5480 -0.5179  3.8970
  724MOL0     H95536   7.173   0.283   3.330  0.9386 -1.3183  3.3375
  724MOL0     H95537   7.308   0.189   3.374 -2.3831  0.6636  2.8899
  724MOL0     H95538   7.337   0.097   3.136  0.5427  2.1335  1.5409
  724MOL0     H95539   7.184   0.177   3.087 -1.9450 -2.7314  0.1819
  724MOL0     H95540   7.157  -0.053   3.103 -0.8453 -1.6440  1.1997
  724MOL0     H95541   7.210  -0.050   3.273  2.6664  2.4919  1.4168
  724MOL0     H95542   6.955   0.046   3.162 -1.5713 -1.8003  0.4455
  724MOL0     H95543   7.020   0.132   3.300 -2.0989  1.2956 -0.9568
  724MOL0     H95544   6.842  -0.055   3.352 -1.6471 -2.7335  2.7142
  724MOL0     H95545   6.995  -0.062   3.446 -0.1705 -3.5613 -0.0847
  724MOL0     H95546   6.995  -0.214   3.211 -2.9164  0.5110 -0.0168
  724MOL0     H95547   7.085  -0.237   3.359  0.0072 -1.6645  0.0417
  724MOL0     H95548   6.914  -0.399   3.399 -1.2217 -0.0014  2.4653
  724MOL0     H95549   6.791  -0.291   3.326  0.2355  3.5529 -0.6838
  724MOL0     H95550   7.554   0.466   3.134 -2.3842 -1.2578  0.5958
  724MOL0     H95551   7.664   0.561   2.940  0.8985 -0.0350  1.3354
  724MOL0     H95552   7.856   0.925   2.751  0.4077  0.4229 -0.5361
  724MOL0     H95553   7.950   1.064   2.563 -0.1847 -0.3755  2.9883
  724MOL0     H95554   9.303   1.339   2.068 -1.7038 -0.5576  2.0653
  724MOL0     H95555   9.414   1.476   1.878  0.7806 -1.2436  2.7761
  724MOL0     H95556   9.405   1.593   1.444 -0.0299 -0.0367 -1.5213
  724MOL0     H95557   9.500   1.690   1.245 -2.3904 -0.1870 -1.1095
  724MOL0     H95558   9.689   1.976   1.281 -0.2621  1.0785  1.3238
  724MOL0     H95559   9.583   2.100   1.268 -2.3316 -1.9983  3.1947
  724MOL0     H95560   9.590   2.111   1.018  0.2903  4.4813  1.6457
  724MOL0     H95561   9.724   2.166   1.104  0.9762 -0.3349 -0.9438
  724MOL0     H95562   9.773   2.004   0.905 -0.9708 -0.4967  0.2874
  724MOL0     H95563   9.724   1.874   1.014  0.2635 -1.0209 -0.7814
  724MOL0     H95564   9.953   2.079   1.058 -2.4140  1.0396 -0.0683
  724MOL0     H95565   9.925   1.942   1.164 -0.6693 -0.3014 -0.0153
  724MOL0     H95566  10.162   1.718   0.962 -0.8662 -1.0130  1.7126
  724MOL0     H95567   9.405   2.080   1.376 -0.6378  0.7395 -1.0382
  724MOL0     H95568   9.294   1.983   1.595  0.0988  2.0858 -0.9939
  725MOL0     O95569   3.067   1.900   8.165 -0.1115  0.1708 -0.4112
  725MOL0     C95570   3.101   1.821   8.078  0.7901 -0.2830 -0.3431
  725MOL0     O95571   3.025   1.711   8.034  0.3418 -0.4102  0.5528
  725MOL0     C95572   2.912   1.679   8.106  0.2469  0.6526 -0.6299
  725MOL0     C95573   2.896   1.542   8.164 -0.1056 -0.0403  0.3123
  725MOL0     C95574   2.781   1.506   8.238 -0.5636 -0.1708 -0.4427
  725MOL0     C95575   2.681   1.592   8.239 -0.5574 -1.1802  0.0330
  725MOL0     O95576   2.567   1.564   8.311 -0.9684  0.5330 -0.2417
  725MOL0     C95577   2.494   1.437   8.290 -0.5179 -0.5578  0.3592
  725MOL0     C95578   2.470   1.368   8.422  0.8166  0.3278  0.0427
  725MOL0     C95579   2.402   1.238   8.393 -0.0781  0.0243  0.2788
  725MOL0     C95580   2.360   1.170   8.523 -0.3548  0.5076  0.4186
  725MOL0     C95581   2.212   1.124   8.541 -0.7767 -0.2038  0.6470
  725MOL0     C95582   2.171   1.026   8.660 -0.2764  0.1916  0.5106
  725MOL0     C95583   2.020   0.986   8.659 -0.8008 -0.0485 -0.2793
  725MOL0     C95584   1.985   0.931   8.798 -0.2343 -0.4579  0.3496
  725MOL0     N95585   1.840   0.903   8.800  0.1642 -0.1776 -0.0869
  725MOL0     C95586   1.773   0.789   8.761  0.7504  0.5387  0.4171
  725MOL0     C95587   1.639   0.814   8.777  0.6308 -0.0639 -0.1993
  725MOL0     C95588   1.530   0.711   8.743  0.0267 -1.0438  0.6021
  725MOL0     C95589   1.410   0.765   8.655  0.0893  0.5820 -0.6847
  725MOL0     C95590   1.355   0.649   8.565  0.0029  0.3024 -0.1657
  725MOL0     C95591   1.227   0.677   8.501 -0.0114 -0.9194  1.2537
  725MOL0     O95592   1.194   0.608   8.375  0.6509  0.3720 -0.5261
  725MOL0     C95593   1.086   0.649   8.305 -0.8242  0.8219 -0.3392
  725MOL0     C95594   1.034   0.779   8.312 -0.1125  0.3422  0.9942
  725MOL0     C95595   0.914   0.809   8.236  0.4526  0.5658 -0.0320
  725MOL0     C95596   0.851   0.716   8.150  0.5138  0.6092 -1.3795
  725MOL0     C95597   0.723   0.740   8.085 -0.8363  0.8155 -0.1623
  725MOL0     O95598   0.658   0.852   8.113 -0.1834  0.1262  0.6757
  725MOL0     C95599   0.536   0.867   8.072 -0.0909  0.7020  0.1322
  725MOL0     C95600   0.520   0.894   7.939 -0.6146  0.3317 -1.4891
  725MOL0     C95601   0.398   0.913   7.885  0.5284  0.3246  0.2107
  725MOL0     C95602   0.282   0.895   7.958  0.5831 -0.1375  0.1800
  725MOL0     O95603   0.152   0.927   7.923 -0.4750  0.1369 -0.0554
  725MOL0     C95604   0.130   0.983   7.787  0.3811 -0.3810 -0.3345
  725MOL0     C95605  -0.013   0.987   7.740  0.3409  0.0114  0.7620
  725MOL0     C95606  -0.090   1.079   7.834  0.0592 -0.3810 -0.6090
  725MOL0     C95607  -0.235   1.108   7.789  0.2165 -0.3526 -0.0161
  725MOL0     C95608  -0.294   1.213   7.887 -0.1187 -0.0851 -0.1577
  725MOL0     C95609  -0.444   1.235   7.857  1.0280  0.6280  0.7615
  725MOL0     C95610  -0.519   1.124   7.932  0.0055 -0.3374 -0.3969
  725MOL0     C95611  -0.537   1.138   8.091 -0.6493 -1.0634 -0.4807
  725MOL0    Cl95612  -0.647   1.264   8.128 -0.0823  0.2517 -0.0191
  725MOL0     C95613   0.295   0.865   8.096  0.2504  0.1615 -0.5035
  725MOL0     C95614   0.422   0.848   8.147  0.4653 -0.1878  0.2445
  725MOL0     O95615   0.686   0.658   8.000 -0.9216 -0.1260  0.1942
  725MOL0     C95616   0.908   0.590   8.154  0.5325  0.9803 -0.9033
  725MOL0     C95617   1.023   0.558   8.227 -0.1115  0.7813 -0.1776
  725MOL0     N95618   1.619   0.941   8.843  1.1105  0.4934 -0.9364
  725MOL0     N95619   1.744   0.982   8.860  0.3412  0.1651 -0.3625
  725MOL0     C95620   2.679   1.717   8.178  0.3114  0.0630  0.1663
  725MOL0     C95621   2.792   1.762   8.104 -1.0353 -0.4686 -0.2986
  725MOL0     C95622   3.230   1.833   8.017  0.0898  0.0253 -0.5934
  725MOL0     C95623   3.291   1.958   8.009 -0.6840  0.7474 -0.1357
  725MOL0     C95624   3.416   1.973   7.960  0.3948  0.3624 -0.7439
  725MOL0     C95625   3.482   1.859   7.911 -1.0512  0.0148  0.5386
  725MOL0     O95626   3.605   1.871   7.841  0.1544 -0.2867 -0.2179
  725MOL0     C95627   3.655   2.001   7.800  0.4128 -0.7632 -0.0015
  725MOL0     C95628   3.787   1.982   7.726 -0.3757  0.6317 -0.7459
  725MOL0     C95629   3.760   1.908   7.593  0.5671 -0.3754  0.2886
  725MOL0     C95630   3.892   1.899   7.520 -0.2424  0.8158 -0.1222
  725MOL0     C95631   3.877   1.845   7.381  0.4994 -0.0021 -0.1919
  725MOL0     C95632   3.880   1.805   7.266  0.4480  0.8105 -0.9592
  725MOL0     C95633   3.427   1.730   7.909  0.1110 -1.1536 -0.6190
  725MOL0     C95634   3.294   1.724   7.961  0.0874  0.7295  0.0386
  725MOL0     H95635   2.971   1.466   8.142 -0.7065 -0.4142 -0.5299
  725MOL0     H95636   2.772   1.407   8.283 -0.4958  0.0278  0.0102
  725MOL0     H95637   2.546   1.366   8.224 -0.6541  1.3449 -1.8961
  725MOL0     H95638   2.401   1.448   8.234 -0.9874 -0.4108  1.1523
  725MOL0     H95639   2.408   1.442   8.474 -3.1815  1.3476 -5.3844
  725MOL0     H95640   2.561   1.352   8.481  0.8684 -0.5821 -0.2777
  725MOL0     H95641   2.464   1.166   8.338 -1.8604 -0.7732 -0.7809
  725MOL0     H95642   2.322   1.261   8.322  1.1718 -1.4909 -1.7353
  725MOL0     H95643   2.418   1.079   8.540 -1.3361 -0.4622 -1.1238
  725MOL0     H95644   2.378   1.239   8.606  2.2427  0.7415 -0.2637
  725MOL0     H95645   2.174   1.077   8.450  1.1143 -0.4009 -0.0882
  725MOL0     H95646   2.155   1.216   8.558 -2.2918 -0.4558 -2.4255
  725MOL0     H95647   2.179   1.065   8.762 -2.2166 -1.3816  1.3263
  725MOL0     H95648   2.226   0.932   8.658 -3.1581 -1.6730 -2.7043
  725MOL0     H95649   1.980   1.085   8.635  3.2372  1.5198 -1.3601
  725MOL0     H95650   2.008   0.919   8.573 -0.7967  2.1529 -2.0934
  725MOL0     H95651   2.011   1.008   8.872  1.9520 -1.0752  0.3184
  725MOL0     H95652   2.033   0.839   8.833 -0.8356 -0.1057  2.1915
  725MOL0     H95653   1.816   0.697   8.722 -0.8778  0.0286 -0.2753
  725MOL0     H95654   1.497   0.661   8.835  0.5702  0.8230  1.8520
  725MOL0     H95655   1.578   0.635   8.681  1.4397 -0.9669  1.5699
  725MOL0     H95656   1.450   0.839   8.585  0.1050  0.4736 -0.7912
  725MOL0     H95657   1.332   0.807   8.719  0.2478  1.6749 -1.1921
  725MOL0     H95658   1.429   0.639   8.485  1.1310  2.5201  0.5078
  725MOL0     H95659   1.360   0.553   8.616  0.0219  0.0494 -0.6383
  725MOL0     H95660   1.223   0.783   8.475 -1.3825 -1.5334 -1.4689
  725MOL0     H95661   1.142   0.654   8.566 -1.0445  0.1467  0.3198
  725MOL0     H95662   1.076   0.857   8.375  1.9731 -0.4735  0.7154
  725MOL0     H95663   0.881   0.912   8.235  0.7253  0.6590  0.1737
  725MOL0     H95664   0.599   0.911   7.867 -0.0264 -0.8068 -1.1349
  725MOL0     H95665   0.401   0.955   7.785 -2.5763 -2.4054 -1.2079
  725MOL0     H95666   0.186   0.927   7.711  3.0583  1.5947  0.0249
  725MOL0     H95667   0.163   1.088   7.787 -0.3935 -0.1329 -0.1200
  725MOL0     H95668  -0.054   0.886   7.741  1.9677 -0.8144 -2.2200
  725MOL0     H95669  -0.030   1.019   7.636  0.3355  2.5300  1.4716
  725MOL0     H95670  -0.032   1.172   7.842  1.9861 -1.6022  0.5099
  725MOL0     H95671  -0.099   1.028   7.931 -0.7238  0.2104 -0.3586
  725MOL0     H95672  -0.237   1.153   7.689 -1.0746 -0.3037  0.0212
  725MOL0     H95673  -0.289   1.013   7.799 -1.8413  0.7186 -0.3624
  725MOL0     H95674  -0.248   1.311   7.878  1.5159 -0.9279 -1.6051
  725MOL0     H95675  -0.280   1.186   7.992 -3.1317  1.6169  0.7962
  725MOL0     H95676  -0.468   1.237   7.750 -5.0640 -0.4209  1.7500
  725MOL0     H95677  -0.480   1.333   7.891 -0.6603  0.4067 -0.2793
  725MOL0     H95678  -0.614   1.116   7.878  1.2199  0.3949 -2.7707
  725MOL0     H95679  -0.467   1.028   7.923 -2.9982 -1.9249 -3.2580
  725MOL0     H95680  -0.446   1.170   8.142 -2.2745  1.3329  1.1495
  725MOL0     H95681  -0.567   1.038   8.123  0.0822 -1.2222 -0.2779
  725MOL0     H95682   0.215   0.855   8.169  2.2935 -0.8974  1.7351
  725MOL0     H95683   0.428   0.833   8.254  1.7680  1.3254  0.4164
  725MOL0     H95684   0.864   0.519   8.084 -1.5630  2.6403 -1.3829
  725MOL0     H95685   1.062   0.457   8.237  0.3597  1.1439  2.5678
  725MOL0     H95686   2.583   1.767   8.175  1.3064  2.0887  0.5149
  725MOL0     H95687   2.800   1.861   8.060 -0.2753  0.1047  1.0580
  725MOL0     H95688   3.237   2.043   8.049  0.3590  0.2967  2.4562
  725MOL0     H95689   3.464   2.071   7.962  0.6933  0.2064  0.3771
  725MOL0     H95690   3.673   2.064   7.888  3.1804  1.0154 -1.7248
  725MOL0     H95691   3.576   2.049   7.741 -1.0843 -1.2332  1.5069
  725MOL0     H95692   3.834   2.079   7.706 -1.4451  1.5085  0.8471
  725MOL0     H95693   3.856   1.923   7.787 -1.1033 -0.0049 -0.5210
  725MOL0     H95694   3.688   1.964   7.535  1.1026 -2.3030 -2.4358
  725MOL0     H95695   3.722   1.806   7.605  0.0148 -0.4783 -1.9678
  725MOL0     H95696   3.945   1.994   7.514 -1.5207  1.5038 -1.0235
  725MOL0     H95697   3.956   1.827   7.572 -2.3863 -0.0253  1.5017
  725MOL0     H95698   3.891   1.795   7.160  1.1356  0.8683 -0.8963
  725MOL0     H95699   3.481   1.642   7.876  1.0719 -1.0406  0.5874
  725MOL0     H95700   3.246   1.628   7.974 -0.8721  1.4470  2.4240
  726MOL0     O95701   0.358   7.819  10.622 -0.1391  0.1088 -0.1505
  726MOL0     C95702   0.362   7.741  10.529 -0.6816 -0.6164 -0.3125
  726MOL0     O95703   0.285   7.621  10.517 -0.1812 -0.1656 -0.1935
  726MOL0     C95704   0.189   7.577  10.609 -0.0478  0.1662  0.7253
  726MOL0     C95705   0.090   7.505  10.553 -0.2277  0.0391  1.0090
  726MOL0     C95706  -0.011   7.445  10.632 -1.3137  0.5857  0.0988
  726MOL0     C95707  -0.021   7.472  10.767  0.0173 -0.3555 -0.0834
  726MOL0     O95708  -0.129   7.412  10.823 -0.5618  0.6508 -0.4376
  726MOL0     C95709  -0.135   7.415  10.967  0.6483 -0.3618 -0.7039
  726MOL0     C95710  -0.282   7.377  11.007 -0.0849 -0.2055  0.6326
  726MOL0     C95711  -0.311   7.229  10.997  0.4931 -0.6239 -0.4497
  726MOL0     C95712  -0.459   7.216  11.037  0.1852 -0.3534  0.6513
  726MOL0     C95713  -0.505   7.072  11.029  0.8575  0.1759  0.3180
  726MOL0     C95714  -0.488   7.002  10.890 -0.0445 -0.4774  0.8791
  726MOL0     C95715  -0.565   6.866  10.886 -0.5791  0.7766 -0.0288
  726MOL0     C95716  -0.717   6.872  10.894 -0.7084  0.1853  0.4654
  726MOL0     N95717  -0.781   6.887  10.764 -0.4933  0.1948 -0.9154
  726MOL0     C95718  -0.801   7.006  10.700 -0.0510 -0.4217 -1.2519
  726MOL0     C95719  -0.848   6.966  10.577 -0.6790 -0.1960 -0.4036
  726MOL0     C95720  -0.897   7.044  10.458 -0.3152 -1.0574  0.3664
  726MOL0     C95721  -0.783   7.132  10.393 -0.2851  0.6617 -0.9536
  726MOL0     C95722  -0.788   7.146  10.243  0.4884  0.1690 -0.0850
  726MOL0     C95723  -0.668   7.229  10.189 -0.2629 -0.6287  0.1600
  726MOL0     O95724  -0.668   7.204  10.053  0.7345 -0.5092 -0.6608
  726MOL0     C95725  -0.557   7.239   9.984 -0.0552 -0.4906 -0.2709
  726MOL0     C95726  -0.531   7.189   9.856  0.0096 -0.4665 -0.1230
  726MOL0     C95727  -0.411   7.219   9.781 -0.4304 -0.2361 -0.4436
  726MOL0     C95728  -0.307   7.306   9.831  0.7352  0.5499  0.2563
  726MOL0     C95729  -0.180   7.336   9.762  0.2401 -0.2608  0.2155
  726MOL0     O95730  -0.130   7.230   9.680 -0.4533 -0.4269 -0.0511
  726MOL0     C95731  -0.038   7.264   9.584  0.4514  0.4135  0.4829
  726MOL0     C95732   0.019   7.150   9.518  0.2139 -0.2699  0.0754
  726MOL0     C95733   0.107   7.164   9.415 -0.0145 -0.1689 -0.3289
  726MOL0     C95734   0.146   7.293   9.363 -0.2048  0.1240  0.0258
  726MOL0     O95735   0.240   7.307   9.262 -0.0866  0.4483  0.2654
  726MOL0     C95736   0.212   7.232   9.140 -0.4535  0.6113 -0.0832
  726MOL0     C95737   0.303   7.278   9.035 -0.9839 -0.3072  0.0649
  726MOL0     C95738   0.285   7.429   8.998 -0.0259 -0.7084 -0.0497
  726MOL0     C95739   0.391   7.489   8.904  0.1902  0.3608 -0.9347
  726MOL0     C95740   0.383   7.441   8.764  0.8684  0.2952  0.2111
  726MOL0     C95741   0.503   7.503   8.687 -0.4199  0.2146  0.4928
  726MOL0     C95742   0.492   7.653   8.671  0.8356  0.8541 -0.4026
  726MOL0     C95743   0.583   7.705   8.552 -0.2999  0.0901 -0.3807
  726MOL0    Cl95744   0.503   7.666   8.401  0.7330 -0.2596 -0.2121
  726MOL0     C95745   0.101   7.406   9.430 -0.3728 -0.5845  0.2876
  726MOL0     C95746   0.003   7.386   9.536 -0.7222 -0.3235  0.6416
  726MOL0     O95747  -0.127   7.448   9.786 -0.2457 -0.0651  0.1756
  726MOL0     C95748  -0.340   7.363   9.953  0.8909 -0.0552  0.0866
  726MOL0     C95749  -0.461   7.331  10.026  0.6462 -0.2377 -0.7309
  726MOL0     N95750  -0.824   6.830  10.567  0.5601 -0.3337  1.1696
  726MOL0     N95751  -0.776   6.787  10.675 -0.2234 -0.1032 -0.5202
  726MOL0     C95752   0.084   7.541  10.827  0.5885  0.5284 -0.5060
  726MOL0     C95753   0.188   7.585  10.750  0.0642 -0.5026 -0.4537
  726MOL0     C95754   0.474   7.768  10.431 -0.0467 -0.0984  0.8564
  726MOL0     C95755   0.511   7.902  10.409  0.0737 -0.7997 -0.1641
  726MOL0     C95756   0.612   7.936  10.314 -0.1870  0.0655 -0.1663
  726MOL0     C95757   0.675   7.827  10.245 -0.0547 -0.7514 -0.6564
  726MOL0     O95758   0.788   7.858  10.173  0.1418 -0.5176 -0.0521
  726MOL0     C95759   0.857   7.755  10.105 -0.2989  0.4621 -0.1599
  726MOL0     C95760   0.985   7.812  10.053  0.2365 -0.0706 -0.9602
  726MOL0     C95761   0.950   7.915   9.948 -0.4852 -0.0840 -0.6412
  726MOL0     C95762   1.076   7.960   9.880 -0.4189 -0.5037  0.5894
  726MOL0     C95763   1.063   8.031   9.751 -0.0568  0.6295  0.4263
  726MOL0     C95764   1.036   8.091   9.647 -0.0248 -0.0368 -0.4840
  726MOL0     C95765   0.625   7.698  10.259 -0.4377 -0.1301  0.2619
  726MOL0     C95766   0.528   7.666  10.350 -0.3038  0.5093 -0.8478
  726MOL0     H95767   0.089   7.481  10.447  1.9410  0.0114  0.9590
  726MOL0     H95768  -0.078   7.376  10.583 -1.2937  1.4483 -1.2033
  726MOL0     H95769  -0.122   7.517  11.003 -0.2761 -0.3250 -0.4514
  726MOL0     H95770  -0.060   7.350  11.013  2.8625  3.6198  1.9302
  726MOL0     H95771  -0.348   7.437  10.944 -1.6030 -0.0888  2.2703
  726MOL0     H95772  -0.291   7.410  11.110  1.6128  2.3326  0.0373
  726MOL0     H95773  -0.243   7.170  11.058  2.7762  1.3323 -0.9497
  726MOL0     H95774  -0.297   7.197  10.893 -0.4624 -0.9744 -0.4804
  726MOL0     H95775  -0.464   7.258  11.138 -0.2469  0.8839  0.1342
  726MOL0     H95776  -0.517   7.283  10.972  0.1268 -3.8994 -3.3526
  726MOL0     H95777  -0.609   7.084  11.059  0.9919  1.1438  0.4362
  726MOL0     H95778  -0.458   7.011  11.107  1.4728 -1.8718 -1.5570
  726MOL0     H95779  -0.380   6.990  10.874 -0.5359 -0.2169 -4.1642
  726MOL0     H95780  -0.522   7.069  10.811 -0.1209 -0.0219  1.2899
  726MOL0     H95781  -0.534   6.815  10.794  0.1629  1.0894  0.0416
  726MOL0     H95782  -0.516   6.801  10.960  0.4586  0.7471 -0.7193
  726MOL0     H95783  -0.751   6.949  10.964 -1.6692  0.0880  0.1198
  726MOL0     H95784  -0.753   6.775  10.930  0.3640 -1.6079 -2.8932
  726MOL0     H95785  -0.793   7.099  10.756  0.3950 -0.0955 -1.8506
  726MOL0     H95786  -0.969   7.115  10.500  2.5127  0.8692  2.3359
  726MOL0     H95787  -0.946   6.982  10.382 -1.9945  0.0186  0.5057
  726MOL0     H95788  -0.691   7.079  10.417 -0.9221  0.4672  1.3345
  726MOL0     H95789  -0.778   7.233  10.433 -1.4799  0.6730 -0.7884
  726MOL0     H95790  -0.789   7.042  10.210  0.8743 -1.0016  3.2563
  726MOL0     H95791  -0.880   7.199  10.218  0.5857  0.3957  0.0295
  726MOL0     H95792  -0.575   7.192  10.232 -0.6959 -2.9649 -0.7880
  726MOL0     H95793  -0.680   7.336  10.211 -1.1299 -0.6485 -0.1597
  726MOL0     H95794  -0.595   7.114   9.811  0.7903 -1.8344  0.9495
  726MOL0     H95795  -0.403   7.163   9.688  0.7333 -0.5081 -0.1963
  726MOL0     H95796   0.000   7.055   9.568  2.0068  0.9340  3.3780
  726MOL0     H95797   0.162   7.074   9.387  1.2612 -0.1598  1.8944
  726MOL0     H95798   0.108   7.240   9.105 -1.4300 -2.1494  1.8353
  726MOL0     H95799   0.227   7.128   9.168 -2.6355  0.2617 -0.0489
  726MOL0     H95800   0.291   7.221   8.943 -2.7980  0.2652 -0.0902
  726MOL0     H95801   0.405   7.267   9.074 -1.1241 -1.2896  0.1622
  726MOL0     H95802   0.285   7.499   9.082  0.5423 -1.4586  0.5985
  726MOL0     H95803   0.189   7.446   8.950 -0.2121 -0.5628  0.3714
  726MOL0     H95804   0.389   7.597   8.918  1.4943  0.4576 -1.3985
  726MOL0     H95805   0.486   7.460   8.950 -0.3860 -0.0381  0.0507
  726MOL0     H95806   0.285   7.465   8.721  0.1840 -2.0125  0.3314
  726MOL0     H95807   0.394   7.333   8.753  1.2975  0.4909 -1.4823
  726MOL0     H95808   0.492   7.453   8.590 -0.9401 -3.1144  2.1235
  726MOL0     H95809   0.601   7.475   8.727 -1.1062 -0.8028  1.5471
  726MOL0     H95810   0.390   7.692   8.663 -0.1238 -1.5058 -0.6669
  726MOL0     H95811   0.521   7.705   8.762  1.2066  4.2439 -2.3162
  726MOL0     H95812   0.683   7.661   8.553  0.2806  1.2116 -2.4210
  726MOL0     H95813   0.589   7.815   8.553  1.4482  0.0491 -1.2193
  726MOL0     H95814   0.129   7.504   9.393  3.5091 -1.5041  0.3723
  726MOL0     H95815  -0.045   7.474   9.579 -1.8550 -0.2064 -0.8036
  726MOL0     H95816  -0.273   7.437   9.995 -0.1618  2.2751 -2.1029
  726MOL0     H95817  -0.467   7.402  10.107  2.0699  2.4788 -2.8206
  726MOL0     H95818   0.079   7.548  10.935  1.7372 -1.0125 -0.3190
  726MOL0     H95819   0.258   7.643  10.809 -1.9555  1.7702 -0.1498
  726MOL0     H95820   0.477   7.981  10.475  0.2503 -1.4751  0.7490
  726MOL0     H95821   0.648   8.038  10.309 -0.1207  0.1269  1.2506
  726MOL0     H95822   0.800   7.716  10.020 -1.3074 -0.8244  1.0572
  726MOL0     H95823   0.889   7.674  10.171 -0.2807  1.2760  0.8409
  726MOL0     H95824   1.050   7.849  10.133  2.6880 -3.8587 -0.9278
  726MOL0     H95825   1.046   7.728  10.017 -1.7102 -1.2068 -1.7457
  726MOL0     H95826   0.904   7.998  10.002  2.0490  0.9197  0.1184
  726MOL0     H95827   0.883   7.877   9.870  1.0732  0.5962 -2.4021
  726MOL0     H95828   1.137   8.021   9.946  4.5746 -3.8601 -0.3506
  726MOL0     H95829   1.141   7.875   9.856  1.0591  0.9339 -0.7230
  726MOL0     H95830   1.012   8.151   9.562  0.8846  3.0317  1.2534
  726MOL0     H95831   0.663   7.623  10.191  0.2967  0.2738  0.2138
  726MOL0     H95832   0.482   7.568  10.362  2.0565 -0.6262 -0.5992
  727MOL0     O95833   7.265   4.335  11.114  0.9717 -0.0541 -0.0110
  727MOL0     C95834   7.308   4.338  11.227 -0.0644 -0.2990 -0.6952
  727MOL0     O95835   7.243   4.378  11.337 -0.2959  0.2587  0.2917
  727MOL0     C95836   7.106   4.350  11.348 -0.5439 -0.0051 -0.0883
  727MOL0     C95837   7.002   4.427  11.286  0.0301  0.3389  0.6192
  727MOL0     C95838   6.872   4.380  11.283 -0.9456  0.6799  0.5083
  727MOL0     C95839   6.838   4.259  11.344 -0.3105 -0.1801 -0.2121
  727MOL0     O95840   6.707   4.220  11.343 -1.4870 -0.1442  0.6003
  727MOL0     C95841   6.626   4.242  11.227  0.2633 -0.7675 -0.1492
  727MOL0     C95842   6.485   4.256  11.277  0.3517 -1.3062  0.8435
  727MOL0     C95843   6.387   4.266  11.161 -0.8945  0.1710 -0.4451
  727MOL0     C95844   6.244   4.239  11.202  0.1016 -0.0550 -0.4286
  727MOL0     C95845   6.192   4.343  11.305 -0.0121  0.8221  0.2389
  727MOL0     C95846   6.039   4.327  11.330 -0.3256  0.2676 -0.5806
  727MOL0     C95847   5.947   4.382  11.215 -0.1905  0.2196  0.0730
  727MOL0     C95848   5.956   4.536  11.218 -0.9119  0.2022  0.3597
  727MOL0     N95849   5.869   4.602  11.115 -0.4836  0.1677 -0.1746
  727MOL0     C95850   5.733   4.580  11.104  0.1723  0.4346 -0.5832
  727MOL0     C95851   5.698   4.667  10.998 -0.3930 -0.3645 -0.7326
  727MOL0     C95852   5.557   4.659  10.944 -0.8782  0.1943 -0.1595
  727MOL0     C95853   5.472   4.744  11.044  0.3908  0.1700  0.0061
  727MOL0     C95854   5.393   4.658  11.144  0.3219  0.7277  1.3033
  727MOL0     C95855   5.265   4.597  11.074 -0.8905 -0.4738  0.6912
  727MOL0     O95856   5.153   4.682  11.047  0.8652 -0.3575  0.0503
  727MOL0     C95857   5.028   4.637  11.009  0.6617  0.0899 -0.2843
  727MOL0     C95858   5.000   4.523  10.930  0.9437 -0.0836  0.0300
  727MOL0     C95859   4.869   4.502  10.883 -0.8747  0.3007  0.6058
  727MOL0     C95860   4.759   4.591  10.912  0.1711  0.5936  0.4569
  727MOL0     C95861   4.620   4.556  10.884  1.1100 -0.5001 -0.4265
  727MOL0     O95862   4.533   4.597  10.991  0.2741 -0.0972 -0.1072
  727MOL0     C95863   4.392   4.588  10.984 -0.7883 -0.1041 -0.4516
  727MOL0     C95864   4.315   4.700  10.958  0.4273 -0.4454 -1.2203
  727MOL0     C95865   4.178   4.679  10.929 -0.0252 -0.2373  0.9233
  727MOL0     C95866   4.121   4.548  10.927 -0.4704 -0.2770 -0.4020
  727MOL0     O95867   3.987   4.511  10.903  0.0168  0.1046 -1.0080
  727MOL0     C95868   3.888   4.621  10.907  0.1176  1.1645 -0.1897
  727MOL0     C95869   3.743   4.582  10.873  0.3978 -0.1692 -0.6355
  727MOL0     C95870   3.691   4.489  10.978  0.0949  0.8889 -0.3219
  727MOL0     C95871   3.540   4.465  10.973  0.8471  0.2214  0.2179
  727MOL0     C95872   3.473   4.387  11.087 -0.9267 -0.8747  0.8341
  727MOL0     C95873   3.352   4.299  11.057 -0.1936  0.1461  0.0406
  727MOL0     C95874   3.273   4.274  11.187 -0.1270  0.0492  0.0794
  727MOL0     C95875   3.152   4.185  11.180 -0.2302  0.7679  0.4031
  727MOL0    Cl95876   3.049   4.206  11.033  0.0497 -0.2272 -0.4970
  727MOL0     C95877   4.200   4.439  10.949  0.5848 -0.8740  0.7819
  727MOL0     C95878   4.335   4.461  10.974 -0.3196  0.3511 -0.4601
  727MOL0     O95879   4.583   4.487  10.792 -0.6178  0.3665  0.1497
  727MOL0     C95880   4.793   4.700  10.986 -0.2259 -0.0393 -0.7083
  727MOL0     C95881   4.925   4.731  11.033  0.0232 -0.3293  0.7740
  727MOL0     N95882   5.808   4.748  10.967 -0.1991 -0.4877  0.0455
  727MOL0     N95883   5.911   4.701  11.031  0.1433 -0.2457  0.5926
  727MOL0     C95884   6.935   4.178  11.396  0.4278 -0.9085  0.1134
  727MOL0     C95885   7.073   4.225  11.397 -0.3947  0.6340  0.3513
  727MOL0     C95886   7.453   4.315  11.234 -0.3786 -0.7150  0.5846
  727MOL0     C95887   7.525   4.386  11.331 -0.9109 -0.3222 -0.0101
  727MOL0     C95888   7.669   4.382  11.325 -0.0629  0.5857  0.1987
  727MOL0     C95889   7.734   4.290  11.242 -0.8163 -0.2225  1.1363
  727MOL0     O95890   7.873   4.293  11.252 -0.3358 -0.4561 -0.1040
  727MOL0     C95891   7.936   4.185  11.180 -0.5029 -0.6413  0.1530
  727MOL0     C95892   8.069   4.143  11.248 -0.2801 -0.0121 -0.4505
  727MOL0     C95893   8.049   4.109  11.394 -0.4355 -0.5385 -0.3497
  727MOL0     C95894   7.937   4.015  11.416 -0.7718  0.6269  0.4508
  727MOL0     C95895   7.918   3.965  11.554  0.4255 -0.0712  0.1706
  727MOL0     C95896   7.900   3.929  11.665 -0.1679 -0.1326 -0.2213
  727MOL0     C95897   7.656   4.222  11.143 -0.3832  0.5529  0.7132
  727MOL0     C95898   7.519   4.232  11.140 -0.0807  0.3867  0.9141
  727MOL0     H95899   7.016   4.527  11.246 -5.3046  1.6683  1.3395
  727MOL0     H95900   6.816   4.462  11.239  1.5943  3.9276  2.8108
  727MOL0     H95901   6.625   4.151  11.166 -0.2827 -1.7988  1.3302
  727MOL0     H95902   6.655   4.330  11.170 -1.1514 -0.4679 -0.4482
  727MOL0     H95903   6.471   4.337  11.350  1.2378 -1.7069  1.4909
  727MOL0     H95904   6.457   4.171  11.340 -2.5198 -0.8675  0.2835
  727MOL0     H95905   6.415   4.203  11.076 -0.3777  0.0060 -0.1524
  727MOL0     H95906   6.387   4.371  11.130  0.3729 -0.0944 -1.4714
  727MOL0     H95907   6.182   4.237  11.112 -1.9299  1.4174  0.8452
  727MOL0     H95908   6.234   4.138  11.243  0.4757 -0.6629 -1.7845
  727MOL0     H95909   6.231   4.445  11.296  2.6660  0.1823  3.0561
  727MOL0     H95910   6.230   4.320  11.405 -1.3940  0.2990  0.6659
  727MOL0     H95911   6.017   4.367  11.429  1.8266  1.0918 -0.3720
  727MOL0     H95912   6.014   4.223  11.353 -0.6186  0.6111  0.7497
  727MOL0     H95913   5.979   4.339  11.120 -2.4742 -0.7148 -0.3373
  727MOL0     H95914   5.847   4.338  11.228  0.9905 -2.6216  0.3555
  727MOL0     H95915   6.058   4.571  11.195 -0.9432  1.0243  1.3869
  727MOL0     H95916   5.929   4.572  11.317 -0.5772  0.0533  0.5080
  727MOL0     H95917   5.666   4.504  11.143 -0.9930  1.0965 -1.2086
  727MOL0     H95918   5.526   4.554  10.937  2.9848 -1.3180  2.3507
  727MOL0     H95919   5.537   4.704  10.846 -2.7833 -0.5802 -0.1774
  727MOL0     H95920   5.416   4.824  10.996  0.6182  1.4731  1.8146
  727MOL0     H95921   5.545   4.797  11.107  0.8663  1.9548 -1.9689
  727MOL0     H95922   5.458   4.575  11.173  2.0796  1.9121  0.9616
  727MOL0     H95923   5.362   4.714  11.233  0.5148  1.2582  1.0413
  727MOL0     H95924   5.236   4.513  11.138 -0.9114  0.9976  2.6972
  727MOL0     H95925   5.300   4.559  10.978 -1.9003  2.4738 -0.9780
  727MOL0     H95926   5.077   4.457  10.892 -0.0867 -2.2651  1.5256
  727MOL0     H95927   4.847   4.422  10.813  2.7743  0.1351 -0.5653
  727MOL0     H95928   4.364   4.797  10.965 -2.4999  1.0056  1.5912
  727MOL0     H95929   4.117   4.768  10.924  0.7542  0.3421  1.4239
  727MOL0     H95930   3.910   4.702  10.838 -1.4889  2.3763  0.6492
  727MOL0     H95931   3.891   4.649  11.013  1.0886 -2.4354  0.8855
  727MOL0     H95932   3.730   4.543  10.772 -0.7588  0.3879 -0.7120
  727MOL0     H95933   3.684   4.673  10.885  0.7421 -0.0083 -0.1312
  727MOL0     H95934   3.717   4.528  11.077 -0.6828  0.9832 -0.1434
  727MOL0     H95935   3.728   4.387  10.967 -0.0278  0.5553  1.8429
  727MOL0     H95936   3.494   4.564  10.978  0.2684  0.0452 -1.1843
  727MOL0     H95937   3.523   4.427  10.871 -2.1263  1.5256  0.1469
  727MOL0     H95938   3.448   4.461  11.164  2.6560  1.9426 -0.4042
  727MOL0     H95939   3.553   4.327  11.130  3.0552  4.1311  1.3735
  727MOL0     H95940   3.394   4.214  11.001  1.7905  2.0850 -1.6355
  727MOL0     H95941   3.280   4.345  10.989  0.8447 -2.2475 -2.9476
  727MOL0     H95942   3.335   4.245  11.273 -0.6016 -0.7296  0.1751
  727MOL0     H95943   3.234   4.370  11.221 -0.2862 -0.4498  1.3995
  727MOL0     H95944   3.105   4.201  11.278  0.4257 -0.3046  0.9134
  727MOL0     H95945   3.186   4.081  11.178 -0.6312  0.6502 -0.3121
  727MOL0     H95946   4.154   4.342  10.958  0.3592 -0.6974  1.7083
  727MOL0     H95947   4.402   4.377  10.979 -0.2881  0.2746 -1.7297
  727MOL0     H95948   4.719   4.777  11.004  1.1941  0.8209  1.9877
  727MOL0     H95949   4.964   4.819  11.082  0.4908 -0.6755  1.0308
  727MOL0     H95950   6.920   4.075  11.426  2.8343 -1.3509 -0.0443
  727MOL0     H95951   7.152   4.159  11.432 -0.6915 -1.6347 -2.8395
  727MOL0     H95952   7.496   4.467  11.397 -1.2690  0.3647 -0.9835
  727MOL0     H95953   7.735   4.446  11.384  0.8461 -1.1552  1.1462
  727MOL0     H95954   7.950   4.210  11.075 -4.5243 -2.6148 -1.0423
  727MOL0     H95955   7.873   4.096  11.186 -1.5330  0.0488 -0.2233
  727MOL0     H95956   8.117   4.068  11.185 -0.1502 -0.7310  0.4788
  727MOL0     H95957   8.140   4.226  11.250 -0.7280  0.4085 -1.3584
  727MOL0     H95958   8.035   4.197  11.457  1.2868 -1.3120  1.2475
  727MOL0     H95959   8.141   4.065  11.435  1.0859  0.3631 -2.6070
  727MOL0     H95960   7.838   4.054  11.391 -1.2440 -1.4181 -1.1191
  727MOL0     H95961   7.950   3.926  11.354 -1.2206  2.1904 -2.0113
  727MOL0     H95962   7.880   3.915  11.769  0.1299  0.7627 -0.0326
  727MOL0     H95963   7.695   4.172  11.055 -1.6573  0.0366  0.4148
  727MOL0     H95964   7.455   4.183  11.068 -1.0354  1.0549  1.2930
  728MOL0     O95965   7.330  10.168   9.751  0.3690 -0.4369  0.5970
  728MOL0     C95966   7.311  10.122   9.859 -0.0817  0.4953 -0.8251
  728MOL0     O95967   7.393  10.142   9.972  0.4852 -0.0736 -0.5601
  728MOL0     C95968   7.510  10.210   9.949 -0.0238  0.1645 -0.4555
  728MOL0     C95969   7.545  10.312  10.045 -0.2864  0.6478 -0.2837
  728MOL0     C95970   7.682  10.361  10.037  0.0219  0.0204 -0.5498
  728MOL0     C95971   7.769  10.318   9.942  0.7522 -0.3954  0.2896
  728MOL0     O95972   7.894  10.376   9.939 -0.4988  0.0428 -0.1109
  728MOL0     C95973   8.005  10.312   9.879  0.2989 -0.0463 -0.3549
  728MOL0     C95974   8.122  10.406   9.926 -0.3152  0.0232  0.8469
  728MOL0     C95975   8.249  10.338   9.888  0.7594  0.5106  0.5920
  728MOL0     C95976   8.373  10.427   9.888  0.0214 -0.3055  0.2657
  728MOL0     C95977   8.497  10.368   9.807 -0.4658 -0.7628 -0.1095
  728MOL0     C95978   8.597  10.484   9.759 -0.2649 -0.1133 -0.6761
  728MOL0     C95979   8.712  10.431   9.660  0.9447 -0.1821  0.6515
  728MOL0     C95980   8.807  10.320   9.708  0.2539 -0.0451 -0.0366
  728MOL0     N95981   8.848  10.329   9.851 -0.0946  0.4006  0.5736
  728MOL0     C95982   8.826  10.233   9.949  0.1301  0.7370  0.6624
  728MOL0     C95983   8.870  10.287  10.059 -0.4823  0.9202 -0.5839
  728MOL0     C95984   8.872  10.218  10.197 -1.0500  0.1789 -0.0775
  728MOL0     C95985   8.951  10.088  10.206  0.0310 -0.2363  0.0607
  728MOL0     C95986   8.890   9.961  10.139 -0.0322  0.4105 -0.0509
  728MOL0     C95987   8.754   9.930  10.195  0.5303 -0.3486  0.5985
  728MOL0     O95988   8.657  10.004  10.116  0.1193 -0.1120  0.4430
  728MOL0     C95989   8.531   9.961  10.132 -0.0667 -0.5740  0.3063
  728MOL0     C95990   8.478   9.861  10.207 -0.1569  0.5733  0.2162
  728MOL0     C95991   8.347   9.820  10.206  0.6549  1.2297  0.3398
  728MOL0     C95992   8.264   9.858  10.098  0.5473 -0.2376 -0.2096
  728MOL0     C95993   8.113   9.817  10.084  0.1093 -0.3347  0.8197
  728MOL0     O95994   8.040   9.870   9.979 -0.2531 -0.0433 -0.7555
  728MOL0     C95995   7.914   9.835   9.934 -0.0103  0.5254 -0.0536
  728MOL0     C95996   7.813   9.790  10.022 -0.5236 -0.1525 -0.6273
  728MOL0     C95997   7.692   9.749   9.963  0.8290 -0.2440 -0.3861
  728MOL0     C95998   7.661   9.754   9.830 -0.6698  0.0612 -0.3414
  728MOL0     O95999   7.538   9.707   9.784  0.3784  0.0384  0.1270
  728MOL0     C96000   7.482   9.796   9.684  0.9349  0.4224 -0.2462
  728MOL0     C96001   7.338   9.737   9.654 -0.2944 -0.2884  0.1447
  728MOL0     C96002   7.340   9.590   9.605  0.3212 -0.4027 -0.2570
  728MOL0     C96003   7.193   9.538   9.607  0.9000 -0.6541 -0.2325
  728MOL0     C96004   7.146   9.473   9.749 -0.2621  0.3453  0.8135
  728MOL0     C96005   7.231   9.361   9.803 -0.4399  0.5516 -0.6217
  728MOL0     C96006   7.233   9.245   9.712 -0.2687 -0.2902  0.9752
  728MOL0     C96007   7.303   9.127   9.784  0.6465  0.4566  0.0693
  728MOL0    Cl96008   7.476   9.140   9.777 -0.1790  0.1079 -0.4935
  728MOL0     C96009   7.762   9.812   9.745 -0.7236 -0.2573  0.3501
  728MOL0     C96010   7.885   9.847   9.796  0.4468 -0.6259 -0.9570
  728MOL0     O96011   8.077   9.736  10.167  0.3703 -0.0855  0.1047
  728MOL0     C96012   8.305   9.965  10.022 -0.3448  0.0189  0.0881
  728MOL0     C96013   8.434  10.017  10.043 -0.1735 -0.4784 -0.3843
  728MOL0     N96014   8.926  10.406  10.029 -1.0446  0.4642  0.2066
  728MOL0     N96015   8.922  10.431   9.905  0.3706 -0.2377 -0.5448
  728MOL0     C96016   7.729  10.204   9.859 -0.0312  0.0414  0.2834
  728MOL0     C96017   7.598  10.160   9.853 -0.1868  0.1045 -0.0829
  728MOL0     C96018   7.196  10.036   9.875  0.1154 -0.0990  0.0119
  728MOL0     C96019   7.145   9.964   9.766  0.1708  0.5134 -0.8611
  728MOL0     C96020   7.043   9.882   9.776  1.4536 -0.0130 -1.3520
  728MOL0     C96021   6.983   9.849   9.909  0.0383 -0.5224  0.3097
  728MOL0     O96022   6.888   9.753   9.937  0.6191  0.2687  0.4061
  728MOL0     C96023   6.840   9.661   9.831 -0.0934  0.0258 -1.2269
  728MOL0     C96024   6.703   9.723   9.790 -0.1047  0.3496  0.5488
  728MOL0     C96025   6.608   9.696   9.910 -0.9653 -0.3783  0.1587
  728MOL0     C96026   6.469   9.744   9.870  0.6409 -0.6868  0.1120
  728MOL0     C96027   6.386   9.646   9.795 -0.0132 -0.0281 -0.9820
  728MOL0     C96028   6.335   9.554   9.736 -0.4272  0.3517  0.7058
  728MOL0     C96029   7.032   9.919  10.015  1.2119 -0.7996 -0.5238
  728MOL0     C96030   7.125  10.016   9.996  0.6134  0.0931  0.4945
  728MOL0     H96031   7.465  10.349  10.109  1.1072  1.6630  0.9107
  728MOL0     H96032   7.701  10.451  10.094 -1.1819 -1.8002  3.0359
  728MOL0     H96033   7.991  10.303   9.771 -1.7064  1.3415 -0.2557
  728MOL0     H96034   8.031  10.210   9.910 -1.4362 -0.2499  0.5542
  728MOL0     H96035   8.110  10.429  10.032  1.5747  0.4482  0.9969
  728MOL0     H96036   8.115  10.501   9.873 -2.0431 -0.9473 -0.8245
  728MOL0     H96037   8.241  10.293   9.788 -0.7340  2.9011 -0.4596
  728MOL0     H96038   8.272  10.261   9.962 -1.5428 -1.7985 -0.9071
  728MOL0     H96039   8.354  10.522   9.837 -0.5894 -0.5624  0.0095
  728MOL0     H96040   8.407  10.451   9.990  0.7466 -0.6861  0.1228
  728MOL0     H96041   8.453  10.322   9.718 -0.6041  3.5475 -2.5721
  728MOL0     H96042   8.542  10.301   9.880  2.2129  2.2249  1.2348
  728MOL0     H96043   8.645  10.530   9.846 -0.0391 -0.5709 -0.5511
  728MOL0     H96044   8.538  10.567   9.719 -0.7018  0.1560  0.4884
  728MOL0     H96045   8.658  10.388   9.576 -0.9145 -0.0584  1.7236
  728MOL0     H96046   8.776  10.509   9.618 -0.5701  0.5329 -0.4290
  728MOL0     H96047   8.898  10.327   9.649 -0.3360 -1.1308 -1.1053
  728MOL0     H96048   8.754  10.228   9.684  3.1867 -1.7974 -0.2271
  728MOL0     H96049   8.782  10.135   9.933 -0.0312  0.8433  0.4508
  728MOL0     H96050   8.767  10.205  10.221 -1.0898  0.2083 -0.2305
  728MOL0     H96051   8.918  10.293  10.263 -0.0932  0.6952 -1.2894
  728MOL0     H96052   8.957  10.066  10.313 -2.1223 -4.6899 -0.4701
  728MOL0     H96053   9.048  10.109  10.160  0.7704 -0.1806  1.6000
  728MOL0     H96054   8.886   9.975  10.030 -3.0315 -2.3104 -0.4388
  728MOL0     H96055   8.949   9.873  10.166  1.8807  2.4803  3.0194
  728MOL0     H96056   8.753   9.965  10.299  0.6466  0.3168  0.3796
  728MOL0     H96057   8.737   9.822  10.193  0.9011 -0.4949  2.6830
  728MOL0     H96058   8.553   9.814  10.271 -0.2772 -0.9554 -0.7079
  728MOL0     H96059   8.308   9.753  10.281 -2.5259  2.8795  0.3204
  728MOL0     H96060   7.808   9.778  10.129 -1.4532 -0.0201 -0.6433
  728MOL0     H96061   7.613   9.711  10.026  0.7137  1.2830  0.4353
  728MOL0     H96062   7.525   9.782   9.584 -0.2523 -1.9108 -0.5063
  728MOL0     H96063   7.487   9.903   9.705  3.2538  0.1825  0.8370
  728MOL0     H96064   7.281   9.796   9.583 -2.6421 -3.3979 -0.7782
  728MOL0     H96065   7.278   9.733   9.745 -2.7908  1.8595 -1.2999
  728MOL0     H96066   7.409   9.539   9.673  2.5680 -0.3817 -2.3853
  728MOL0     H96067   7.380   9.583   9.504 -0.8033  0.3046 -0.7790
  728MOL0     H96068   7.129   9.625   9.593  1.9892  0.0633 -0.8763
  728MOL0     H96069   7.186   9.475   9.517 -0.0846  0.9248 -1.3248
  728MOL0     H96070   7.042   9.440   9.745  0.1333 -0.8639 -0.1243
  728MOL0     H96071   7.148   9.558   9.818  0.0432  2.0739 -1.2363
  728MOL0     H96072   7.182   9.338   9.898 -2.5386  2.8525 -1.0417
  728MOL0     H96073   7.337   9.383   9.820 -0.6020  1.3278 -0.5783
  728MOL0     H96074   7.132   9.218   9.683 -0.6604  1.6311  0.3863
  728MOL0     H96075   7.290   9.270   9.622  0.1890  0.1206  1.3681
  728MOL0     H96076   7.275   9.047   9.715 -2.1684  2.0029 -0.7616
  728MOL0     H96077   7.263   9.114   9.885  0.0569  1.8293  0.0315
  728MOL0     H96078   7.757   9.823   9.637  2.8849  2.9631  0.3365
  728MOL0     H96079   7.961   9.905   9.744 -0.9367  1.0312 -1.2385
  728MOL0     H96080   8.249  10.012   9.942  1.4225 -0.7205 -1.6729
  728MOL0     H96081   8.478  10.096   9.982  2.1478 -1.2963  0.1060
  728MOL0     H96082   7.799  10.152   9.794  0.8322  0.3128  0.9735
  728MOL0     H96083   7.567  10.079   9.789  0.2238  0.8219 -1.2242
  728MOL0     H96084   7.184   9.993   9.669  0.5451  1.1363 -0.5278
  728MOL0     H96085   7.007   9.829   9.688  0.1206 -0.3952 -0.6167
  728MOL0     H96086   6.821   9.558   9.864  1.2483  0.3260  0.6137
  728MOL0     H96087   6.918   9.669   9.755  1.7928  2.8673  0.8126
  728MOL0     H96088   6.708   9.826   9.754 -1.5363 -0.0419 -0.9222
  728MOL0     H96089   6.670   9.660   9.707 -0.2533 -0.4470  1.2006
  728MOL0     H96090   6.629   9.753  10.001 -1.7850 -1.7570  1.2546
  728MOL0     H96091   6.618   9.591   9.940  1.0961 -0.7424 -1.5558
  728MOL0     H96092   6.411   9.780   9.955 -0.4260  0.3377 -0.9985
  728MOL0     H96093   6.471   9.828   9.800 -0.2262 -0.6996  0.0618
  728MOL0     H96094   6.287   9.472   9.687 -1.4233  0.5220  1.3602
  728MOL0     H96095   6.985   9.899  10.110  2.7296  1.1965  0.7280
  728MOL0     H96096   7.161  10.071  10.082  1.4874 -0.2463  0.3499
  729MOL0     O96097   9.123   6.409   6.810  0.6963  0.3262  0.3388
  729MOL0     C96098   9.059   6.475   6.897 -0.3197  0.1633  0.4543
  729MOL0     O96099   8.928   6.455   6.931 -0.5154  0.6197 -0.1048
  729MOL0     C96100   8.842   6.402   6.833  0.1210  0.4832 -0.1315
  729MOL0     C96101   8.861   6.420   6.694  0.1690 -0.2491 -0.4584
  729MOL0     C96102   8.765   6.380   6.608  0.6766 -0.9528 -0.7774
  729MOL0     C96103   8.643   6.318   6.644  0.0200 -1.0833 -0.1283
  729MOL0     O96104   8.546   6.282   6.552  0.0673 -0.0980 -0.8220
  729MOL0     C96105   8.576   6.251   6.416  0.2099  0.2857  0.0416
  729MOL0     C96106   8.466   6.168   6.342  0.3208 -0.8196 -0.6181
  729MOL0     C96107   8.338   6.252   6.324 -0.2865  0.6493 -0.2946
  729MOL0     C96108   8.272   6.222   6.193  0.0283  0.2742  0.5449
  729MOL0     C96109   8.158   6.316   6.159 -0.1502 -0.5275 -0.9079
  729MOL0     C96110   8.042   6.305   6.256  0.1070 -0.4112 -0.3914
  729MOL0     C96111   7.907   6.334   6.178 -0.1460  0.4250 -0.4898
  729MOL0     C96112   7.788   6.338   6.270  0.6586 -0.4709  0.0393
  729MOL0     N96113   7.665   6.406   6.221 -0.5397  0.2099 -0.6627
  729MOL0     C96114   7.583   6.341   6.133  0.0955 -0.1282  0.1507
  729MOL0     C96115   7.490   6.435   6.114  0.8775  0.7587  0.4188
  729MOL0     C96116   7.388   6.402   6.003  0.1492  0.2428  0.1150
  729MOL0     C96117   7.314   6.526   5.966  0.5088 -0.2650  0.9208
  729MOL0     C96118   7.262   6.502   5.818 -0.0148  0.6732  0.1100
  729MOL0     C96119   7.219   6.627   5.750  0.2387  0.1707  0.4884
  729MOL0     O96120   7.140   6.718   5.826  0.5150  0.2877 -0.1676
  729MOL0     C96121   7.010   6.691   5.858 -0.2291 -0.7866  0.2793
  729MOL0     C96122   6.917   6.620   5.779 -0.3128 -0.6485 -0.2689
  729MOL0     C96123   6.776   6.619   5.813  0.0981 -0.1547  0.7834
  729MOL0     C96124   6.737   6.694   5.929  0.6461 -0.2407 -0.0097
  729MOL0     C96125   6.591   6.692   5.971 -0.1158 -0.3063  0.2527
  729MOL0     O96126   6.502   6.615   5.914 -0.6039  0.2242 -0.1028
  729MOL0     C96127   6.370   6.644   5.914 -0.2387  0.8464 -0.1185
  729MOL0     C96128   6.281   6.539   5.891 -0.0803 -0.6224  0.0643
  729MOL0     C96129   6.144   6.569   5.879  0.2003  0.0522  0.1765
  729MOL0     C96130   6.088   6.696   5.881  0.1447  0.7792 -0.3063
  729MOL0     O96131   5.951   6.707   5.872 -0.2718 -0.0121 -0.5580
  729MOL0     C96132   5.881   6.827   5.868 -0.0921 -0.0637 -0.0959
  729MOL0     C96133   5.741   6.792   5.812 -0.1202 -0.4414  1.2820
  729MOL0     C96134   5.631   6.881   5.875 -0.4107 -0.5492 -0.7051
  729MOL0     C96135   5.626   7.024   5.815  0.0471 -1.0117 -0.5701
  729MOL0     C96136   5.481   7.086   5.843  0.0411  0.3570 -0.3020
  729MOL0     C96137   5.442   7.088   5.994 -0.3327 -0.2744  0.6194
  729MOL0     C96138   5.296   7.144   6.012 -0.3471  0.7625  0.0975
  729MOL0     C96139   5.239   7.137   6.150  0.3917 -0.4224  0.2036
  729MOL0    Cl96140   5.065   7.160   6.157  0.4536  0.4067  0.1732
  729MOL0     C96141   6.180   6.801   5.897 -0.5654  1.1770  0.3600
  729MOL0     C96142   6.317   6.773   5.918 -1.2220  0.1019  0.1367
  729MOL0     O96143   6.571   6.773   6.066 -0.9366  0.2109 -0.6875
  729MOL0     C96144   6.831   6.759   6.008 -0.2484  0.9911 -0.1262
  729MOL0     C96145   6.963   6.764   5.967 -0.1127 -0.2541  0.2043
  729MOL0     N96146   7.505   6.533   6.203  0.1192 -0.4925 -0.3755
  729MOL0     N96147   7.613   6.519   6.276  0.5894 -0.0419 -0.2041
  729MOL0     C96148   8.629   6.289   6.776 -0.3904 -0.0827  0.6080
  729MOL0     C96149   8.733   6.333   6.875  1.3309  0.7918 -0.4342
  729MOL0     C96150   9.137   6.550   6.997 -0.1364  0.9286 -0.0254
  729MOL0     C96151   9.271   6.593   6.973 -0.6629  0.3394 -0.7161
  729MOL0     C96152   9.338   6.670   7.069  0.1388  0.2621 -0.0880
  729MOL0     C96153   9.281   6.699   7.192 -0.3703  0.5868  0.2719
  729MOL0     O96154   9.358   6.779   7.285  0.1942  0.9547  0.2725
  729MOL0     C96155   9.502   6.770   7.281 -0.1464  0.2311 -0.2125
  729MOL0     C96156   9.556   6.824   7.421  0.4355  0.1081  0.7995
  729MOL0     C96157   9.716   6.798   7.443  0.3676 -0.1998 -0.3562
  729MOL0     C96158   9.771   6.827   7.585  0.4358  0.5874 -0.0690
  729MOL0     C96159   9.732   6.719   7.676  0.1916 -0.0941  0.8355
  729MOL0     C96160   9.688   6.638   7.752 -0.3906  0.2276  0.2444
  729MOL0     C96161   9.157   6.639   7.226 -0.3409 -0.2788  0.5479
  729MOL0     C96162   9.084   6.566   7.133  0.1662  0.6718 -0.1963
  729MOL0     H96163   8.948   6.473   6.658 -0.0735  0.9410  0.6138
  729MOL0     H96164   8.786   6.390   6.502 -1.3595 -0.0010 -1.1484
  729MOL0     H96165   8.664   6.186   6.418 -1.8592 -2.8461 -1.4000
  729MOL0     H96166   8.597   6.342   6.359  1.0894  0.6311  0.8950
  729MOL0     H96167   8.438   6.076   6.394 -1.1340  0.2852  0.6573
  729MOL0     H96168   8.511   6.141   6.246  0.6759  1.0544 -1.0359
  729MOL0     H96169   8.372   6.356   6.317  0.0730  0.4761 -1.3107
  729MOL0     H96170   8.269   6.261   6.409  1.9994  0.2421  1.7311
  729MOL0     H96171   8.338   6.222   6.105 -2.2931  3.0570 -1.3661
  729MOL0     H96172   8.231   6.123   6.215  0.6794 -0.3117 -0.7290
  729MOL0     H96173   8.135   6.300   6.054 -1.6508 -1.0793 -0.5187
  729MOL0     H96174   8.184   6.423   6.157 -3.8866  0.4900 -1.6871
  729MOL0     H96175   8.063   6.378   6.335  3.5831  0.5805 -2.0316
  729MOL0     H96176   8.052   6.208   6.305  1.1848 -0.4820 -0.7123
  729MOL0     H96177   7.923   6.429   6.126  0.3701 -0.1055 -1.3514
  729MOL0     H96178   7.897   6.249   6.109 -0.0999 -0.3847  0.4814
  729MOL0     H96179   7.815   6.374   6.370 -0.9805  0.9528  0.0207
  729MOL0     H96180   7.760   6.233   6.284  1.9073 -0.5745  2.2696
  729MOL0     H96181   7.586   6.247   6.080 -1.1235  0.1239 -0.4073
  729MOL0     H96182   7.312   6.330   6.035 -1.0145  1.0208 -0.8032
  729MOL0     H96183   7.444   6.365   5.917 -1.6060 -0.4723 -0.7724
  729MOL0     H96184   7.373   6.618   5.975  0.5349 -0.3481  1.6254
  729MOL0     H96185   7.225   6.528   6.029  1.6261 -1.2313  2.5999
  729MOL0     H96186   7.343   6.455   5.760 -1.3399 -3.1223  0.9939
  729MOL0     H96187   7.191   6.419   5.808  0.5388  0.1331  0.5973
  729MOL0     H96188   7.166   6.609   5.656  0.4324  0.8859  0.2379
  729MOL0     H96189   7.317   6.674   5.737  0.0985  0.6437  1.1080
  729MOL0     H96190   6.945   6.574   5.685  2.5616 -0.4549  0.4193
  729MOL0     H96191   6.706   6.578   5.741 -0.6636  0.4397  1.1732
  729MOL0     H96192   6.320   6.441   5.868  0.2191 -0.2578 -1.0781
  729MOL0     H96193   6.075   6.485   5.873  1.7155 -1.2133 -0.2463
  729MOL0     H96194   5.924   6.908   5.808 -3.6977  2.1904  0.0771
  729MOL0     H96195   5.866   6.856   5.972 -1.0852 -1.5239  0.1967
  729MOL0     H96196   5.715   6.689   5.837 -0.1109 -1.2910 -1.8500
  729MOL0     H96197   5.734   6.797   5.703 -0.6964  1.8149  1.3623
  729MOL0     H96198   5.638   6.883   5.985 -2.0319  1.8377 -0.5647
  729MOL0     H96199   5.533   6.841   5.846 -1.1382 -0.1762  1.0782
  729MOL0     H96200   5.704   7.092   5.851  0.5118 -0.5264 -2.3685
  729MOL0     H96201   5.648   7.020   5.707  1.3529 -1.2411 -0.3197
  729MOL0     H96202   5.411   7.027   5.784 -0.3375  0.8984 -0.4071
  729MOL0     H96203   5.487   7.187   5.801 -0.5924  0.3777 -0.3501
  729MOL0     H96204   5.512   7.154   6.046  0.2599 -1.1809  1.0156
  729MOL0     H96205   5.448   6.985   6.031 -1.3640 -0.3003  0.7366
  729MOL0     H96206   5.298   7.243   5.964  2.6348  0.8384  0.1843
  729MOL0     H96207   5.237   7.070   5.958  2.1293 -1.1607 -0.1672
  729MOL0     H96208   5.281   7.219   6.210 -1.8126  1.1825 -0.3165
  729MOL0     H96209   5.263   7.042   6.199  1.5857  0.1910  0.8533
  729MOL0     H96210   6.137   6.900   5.899 -0.8400  1.0405  1.7164
  729MOL0     H96211   6.383   6.857   5.933 -0.0247 -0.6540 -0.7546
  729MOL0     H96212   6.801   6.817   6.095  2.8036 -0.6069  2.1623
  729MOL0     H96213   7.035   6.830   6.014 -1.8106  0.1561  2.3715
  729MOL0     H96214   8.539   6.242   6.815 -0.1539 -0.5052  0.6423
  729MOL0     H96215   8.730   6.320   6.982  3.1094  1.2035 -0.2976
  729MOL0     H96216   9.311   6.563   6.877 -0.3797  0.4612 -0.6376
  729MOL0     H96217   9.438   6.695   7.037 -0.3089 -2.4356 -4.4090
  729MOL0     H96218   9.552   6.826   7.202 -1.5867 -1.2217 -2.2522
  729MOL0     H96219   9.536   6.667   7.268  1.1198  0.8428 -2.1934
  729MOL0     H96220   9.542   6.932   7.411  3.2678  0.5646  0.8114
  729MOL0     H96221   9.502   6.785   7.507 -0.3482 -0.1727  0.1929
  729MOL0     H96222   9.776   6.861   7.376  0.0175  0.4222 -0.1024
  729MOL0     H96223   9.747   6.696   7.420  3.1123  0.7133 -1.0416
  729MOL0     H96224   9.880   6.841   7.580  0.3769  0.8655 -0.6175
  729MOL0     H96225   9.734   6.922   7.625 -0.3051  0.2061  0.1712
  729MOL0     H96226   9.656   6.559   7.817  0.3144 -1.9081 -1.8672
  729MOL0     H96227   9.123   6.648   7.328  1.9948 -2.0321  1.5748
  729MOL0     H96228   8.988   6.525   7.163  1.1470 -1.2408  0.4798
  730MOL0     O96229   2.223   8.845   6.966 -0.0476  0.1392  0.2207
  730MOL0     C96230   2.310   8.763   6.996  0.1242  0.3707 -0.0546
  730MOL0     O96231   2.292   8.671   7.092 -0.0307  0.3935 -0.4417
  730MOL0     C96232   2.166   8.613   7.107 -1.0475  0.2482  0.3571
  730MOL0     C96233   2.093   8.572   6.997 -0.7524  0.9572  0.4728
  730MOL0     C96234   1.982   8.497   7.016  1.2571  0.2170  0.1819
  730MOL0     C96235   1.945   8.452   7.136 -0.2467  0.1969 -1.1903
  730MOL0     O96236   1.874   8.333   7.144  0.8156 -0.0559  0.6186
  730MOL0     C96237   1.775   8.314   7.035  0.9580 -0.7834 -0.6624
  730MOL0     C96238   1.674   8.212   7.097  0.1749 -0.0268 -1.0369
  730MOL0     C96239   1.591   8.128   7.009  0.0373 -0.0769  0.1971
  730MOL0     C96240   1.536   8.199   6.882  0.5369 -0.1433 -0.6246
  730MOL0     C96241   1.416   8.109   6.844 -0.6728 -0.4281  0.1656
  730MOL0     C96242   1.342   8.161   6.728 -0.6829  0.9883  0.0779
  730MOL0     C96243   1.230   8.054   6.678 -0.8167 -0.2798 -0.0162
  730MOL0     C96244   1.186   8.076   6.535 -0.0183  0.3957  0.9130
  730MOL0     N96245   1.077   7.978   6.500 -0.4852 -0.2747  0.3363
  730MOL0     C96246   0.950   7.980   6.539  0.6538 -0.1302 -1.2927
  730MOL0     C96247   0.886   7.877   6.483  0.0541 -0.2192 -0.1949
  730MOL0     C96248   0.752   7.833   6.516 -0.2526 -0.1465 -0.2210
  730MOL0     C96249   0.651   7.858   6.405 -0.3358  0.7046  0.3064
  730MOL0     C96250   0.511   7.802   6.446  0.1334 -1.1641  0.3690
  730MOL0     C96251   0.404   7.832   6.342  0.1903 -0.3437 -0.1982
  730MOL0     O96252   0.277   7.793   6.397  0.0248 -0.1328 -0.2889
  730MOL0     C96253   0.160   7.841   6.335  0.0952  0.0855 -0.5022
  730MOL0     C96254   0.040   7.821   6.404  0.6506 -0.0840  0.7368
  730MOL0     C96255  -0.071   7.895   6.369  0.1873  0.1149 -0.7768
  730MOL0     C96256  -0.077   7.952   6.244  0.2235  0.4686  0.0859
  730MOL0     C96257  -0.203   8.010   6.187  0.6683  0.0881 -0.7625
  730MOL0     O96258  -0.200   8.033   6.054 -0.5035  0.0006 -0.1820
  730MOL0     C96259  -0.308   8.076   5.994 -0.2888 -0.2928  0.2380
  730MOL0     C96260  -0.313   8.215   5.954  0.0897 -0.4879  0.1764
  730MOL0     C96261  -0.425   8.274   5.896  0.2371 -0.7933  0.5290
  730MOL0     C96262  -0.528   8.179   5.869 -0.9250  0.8175  0.4374
  730MOL0     O96263  -0.639   8.212   5.794 -0.2929 -0.1670  0.4347
  730MOL0     C96264  -0.661   8.346   5.743 -0.4021 -0.2643 -0.3959
  730MOL0     C96265  -0.801   8.369   5.684  0.4521  0.3346 -0.1237
  730MOL0     C96266  -0.802   8.277   5.563 -0.3943 -0.1255  0.3686
  730MOL0     C96267  -0.924   8.295   5.484  0.3650 -0.1604 -0.0890
  730MOL0     C96268  -0.942   8.186   5.372 -0.4864  0.5802  0.3356
  730MOL0     C96269  -0.907   8.258   5.238 -0.2579 -0.1291 -0.1119
  730MOL0     C96270  -0.895   8.146   5.131 -0.4422 -0.7632 -0.3147
  730MOL0     C96271  -0.870   8.186   4.980 -0.2182 -0.1383  0.1209
  730MOL0    Cl96272  -1.015   8.274   4.926 -0.5812  0.1927 -0.2801
  730MOL0     C96273  -0.522   8.039   5.908  0.7939 -0.3137  0.3600
  730MOL0     C96274  -0.417   7.987   5.975 -0.0786 -0.1990  0.3561
  730MOL0     O96275  -0.300   8.032   6.257 -0.3821 -0.2698 -0.2265
  730MOL0     C96276   0.040   7.956   6.166 -0.6223 -0.3722  0.5617
  730MOL0     C96277   0.164   7.909   6.211 -0.2433 -0.6039  0.0195
  730MOL0     N96278   0.977   7.814   6.401  0.3473  0.2165 -0.7462
  730MOL0     N96279   1.087   7.872   6.409  0.0945 -1.0193  1.0635
  730MOL0     C96280   2.015   8.495   7.249  0.4019  0.3945  0.6269
  730MOL0     C96281   2.120   8.582   7.237 -0.1360  0.0887 -0.0916
  730MOL0     C96282   2.454   8.786   6.968  0.5274 -0.7459  0.1798
  730MOL0     C96283   2.564   8.710   7.013  0.2099  0.1886  0.4651
  730MOL0     C96284   2.692   8.753   6.986  0.1040 -0.1474  1.1111
  730MOL0     C96285   2.719   8.881   6.931 -0.2167 -0.6497  0.4054
  730MOL0     O96286   2.846   8.918   6.922 -0.7964  0.3810  0.4070
  730MOL0     C96287   2.880   9.052   6.934  0.8966  0.2160  0.1391
  730MOL0     C96288   3.029   9.054   6.892  0.4466  0.1092 -0.6551
  730MOL0     C96289   3.089   9.197   6.877  0.0806 -0.2625 -0.6344
  730MOL0     C96290   3.226   9.224   6.946 -0.5200  0.2280 -0.3333
  730MOL0     C96291   3.325   9.125   6.907  0.0071 -0.1578  1.1550
  730MOL0     C96292   3.418   9.050   6.888  0.1125  0.0741 -0.6114
  730MOL0     C96293   2.616   8.951   6.883 -0.2901 -0.0908 -0.3203
  730MOL0     C96294   2.487   8.905   6.895 -0.5017 -0.3937  0.7854
  730MOL0     H96295   2.122   8.577   6.892 -3.0760  1.3575 -0.2186
  730MOL0     H96296   1.934   8.469   6.923  0.8267  0.7231  0.2460
  730MOL0     H96297   1.838   8.277   6.954  1.5688 -0.7243 -0.2209
  730MOL0     H96298   1.721   8.403   7.002  2.1689  0.1582 -0.1941
  730MOL0     H96299   1.612   8.269   7.167  0.1940 -1.6194  0.3486
  730MOL0     H96300   1.742   8.151   7.158 -1.1231  2.3798  3.2034
  730MOL0     H96301   1.512   8.088   7.074  0.1311  0.8545  0.9140
  730MOL0     H96302   1.647   8.042   6.971 -2.3057  0.1127 -4.4041
  730MOL0     H96303   1.508   8.298   6.918  0.7646 -0.5979  0.8517
  730MOL0     H96304   1.618   8.215   6.812  0.6780 -0.3644 -0.5099
  730MOL0     H96305   1.361   8.096   6.937  0.3835 -0.1643  0.8434
  730MOL0     H96306   1.452   8.011   6.811 -0.8906 -0.1031 -1.0865
  730MOL0     H96307   1.404   8.177   6.639  0.0384 -1.3840  0.0850
  730MOL0     H96308   1.292   8.254   6.756 -0.8356  1.0472 -0.3697
  730MOL0     H96309   1.262   7.951   6.695 -0.2371 -0.6652 -2.9099
  730MOL0     H96310   1.136   8.066   6.732 -1.2268 -1.9993 -0.2651
  730MOL0     H96311   1.273   8.060   6.471 -0.8907  2.3523 -0.8718
  730MOL0     H96312   1.140   8.173   6.515 -1.4264 -0.5759 -0.9616
  730MOL0     H96313   0.916   8.059   6.605 -1.5608  1.1355 -3.7357
  730MOL0     H96314   0.716   7.881   6.607  1.3937 -0.3722  0.5888
  730MOL0     H96315   0.737   7.725   6.532  2.2416 -0.6122 -0.6944
  730MOL0     H96316   0.687   7.804   6.317 -0.3448  1.4289 -0.1534
  730MOL0     H96317   0.652   7.967   6.399  0.8572  0.9475  3.2658
  730MOL0     H96318   0.514   7.693   6.448 -0.9760 -1.1964  1.3576
  730MOL0     H96319   0.480   7.836   6.545 -1.0699  0.1393 -0.4120
  730MOL0     H96320   0.421   7.782   6.246 -2.1704 -0.5542 -0.5541
  730MOL0     H96321   0.398   7.940   6.323 -1.0746 -0.4645 -0.5627
  730MOL0     H96322   0.034   7.758   6.493 -2.2414 -0.5332  0.3313
  730MOL0     H96323  -0.158   7.905   6.434 -0.1483 -0.8257 -1.0706
  730MOL0     H96324  -0.220   8.264   5.979  0.5551 -1.3800  0.2377
  730MOL0     H96325  -0.429   8.382   5.895 -0.7925 -0.8178  0.6917
  730MOL0     H96326  -0.597   8.363   5.657 -2.1497 -3.7151 -2.5961
  730MOL0     H96327  -0.646   8.422   5.820 -0.1215 -1.0799  0.3820
  730MOL0     H96328  -0.807   8.475   5.658  3.4117  0.4923 -0.4872
  730MOL0     H96329  -0.880   8.334   5.751  1.2527  1.2449  1.3494
  730MOL0     H96330  -0.814   8.174   5.598 -0.8884  0.0664  0.7835
  730MOL0     H96331  -0.716   8.284   5.497 -1.4265 -1.9850 -1.3020
  730MOL0     H96332  -1.012   8.293   5.549 -2.4155 -1.8543 -3.5730
  730MOL0     H96333  -0.935   8.393   5.436  0.5974  0.6287  1.3914
  730MOL0     H96334  -1.047   8.160   5.360  0.0499 -0.6099 -2.5561
  730MOL0     H96335  -0.884   8.095   5.389  0.1161  0.6243 -1.3104
  730MOL0     H96336  -0.810   8.305   5.253 -1.0390  0.9908  1.7517
  730MOL0     H96337  -0.979   8.338   5.218  0.6644  0.5856 -0.6154
  730MOL0     H96338  -0.801   8.098   5.157 -0.0048  0.3923  0.3130
  730MOL0     H96339  -0.981   8.078   5.135 -1.4123 -0.0642 -4.2827
  730MOL0     H96340  -0.842   8.098   4.921  0.0998 -0.9948  1.5180
  730MOL0     H96341  -0.777   8.245   4.972 -0.2270  0.1333  1.7707
  730MOL0     H96342  -0.599   7.965   5.889  0.3372 -0.2411  1.8529
  730MOL0     H96343  -0.412   7.883   6.006 -0.3644 -0.4988 -0.5760
  730MOL0     H96344   0.041   8.003   6.068  0.5297  0.7523  1.0769
  730MOL0     H96345   0.253   7.923   6.149  0.3673 -1.7875  0.5834
  730MOL0     H96346   1.992   8.453   7.346 -2.8742 -2.4798 -1.1691
  730MOL0     H96347   2.174   8.626   7.320 -1.0020 -2.4056  1.9321
  730MOL0     H96348   2.545   8.617   7.066  1.9898 -0.4793  0.0011
  730MOL0     H96349   2.775   8.685   7.005  0.7676 -0.4303 -2.1621
  730MOL0     H96350   2.866   9.086   7.037  1.8418 -0.5051  0.5112
  730MOL0     H96351   2.820   9.119   6.871 -1.1896 -2.7589 -1.2623
  730MOL0     H96352   3.087   9.011   6.974 -1.5880 -0.2032  0.6750
  730MOL0     H96353   3.036   8.998   6.798 -1.5700  1.3547 -1.6097
  730MOL0     H96354   3.018   9.267   6.923  3.2365  2.8185 -0.0405
  730MOL0     H96355   3.094   9.226   6.771 -0.7050 -1.8836 -1.1480
  730MOL0     H96356   3.264   9.323   6.918  2.1469 -0.5295  0.2594
  730MOL0     H96357   3.217   9.223   7.055  3.0451 -1.1164  0.0876
  730MOL0     H96358   3.488   8.970   6.877 -1.0155 -0.8572 -1.2786
  730MOL0     H96359   2.636   9.044   6.831 -3.2041  1.1645  0.6396
  730MOL0     H96360   2.412   8.970   6.850  0.2220 -0.4841 -0.6102
  731MOL0     O96361   5.050   8.258   0.274 -0.3786  0.7111  0.2391
  731MOL0     C96362   5.106   8.358   0.232  0.2496 -0.7267  0.6405
  731MOL0     O96363   5.046   8.478   0.189 -0.2097 -0.1235 -0.4845
  731MOL0     C96364   4.908   8.489   0.195  0.4874  0.3570 -0.7187
  731MOL0     C96365   4.820   8.409   0.124 -0.8650 -0.2856  0.2917
  731MOL0     C96366   4.682   8.412   0.136 -0.0301  0.1562 -0.1440
  731MOL0     C96367   4.624   8.507   0.224  0.0632 -0.1459  0.6448
  731MOL0     O96368   4.490   8.517   0.243 -0.0973 -0.4544  0.2779
  731MOL0     C96369   4.445   8.481   0.376  0.4301  0.8375 -0.5842
  731MOL0     C96370   4.301   8.531   0.405  0.4039  0.1466 -0.1099
  731MOL0     C96371   4.277   8.684   0.419  0.5035  0.4451 -0.5156
  731MOL0     C96372   4.127   8.710   0.460 -0.2752  0.7394 -0.3063
  731MOL0     C96373   4.105   8.855   0.474  0.2756 -1.2055  0.0229
  731MOL0     C96374   4.186   8.937   0.584  0.1469 -0.0521  0.2510
  731MOL0     C96375   4.189   8.875   0.727  0.7487 -0.3506 -0.5344
  731MOL0     C96376   4.052   8.878   0.789  0.6320  0.0971  0.1370
  731MOL0     N96377   4.028   8.999   0.861 -0.0421 -0.6688  0.8464
  731MOL0     C96378   4.022   9.007   1.001 -0.2122  0.3360  0.8263
  731MOL0     C96379   3.997   9.131   1.027  0.1330  0.2937 -0.7710
  731MOL0     C96380   3.959   9.167   1.173 -0.2481  0.3019  0.0120
  731MOL0     C96381   3.809   9.205   1.173 -0.2952 -0.1367  0.4644
  731MOL0     C96382   3.752   9.239   1.306  0.2889 -0.3697 -0.0696
  731MOL0     C96383   3.603   9.261   1.299 -0.2933  0.4899  0.1912
  731MOL0     O96384   3.566   9.304   1.428  0.6874 -0.2377 -0.1789
  731MOL0     C96385   3.434   9.329   1.463 -0.1832  0.3779 -0.1991
  731MOL0     C96386   3.327   9.326   1.368  1.3013  0.1918 -0.4057
  731MOL0     C96387   3.201   9.365   1.416  0.0963 -0.0093  0.5518
  731MOL0     C96388   3.183   9.419   1.542 -0.3692 -0.6912  0.9572
  731MOL0     C96389   3.051   9.456   1.602 -0.4012  0.1716  0.4822
  731MOL0     O96390   3.048   9.524   1.726  0.6297  0.2074 -0.0890
  731MOL0     C96391   2.938   9.532   1.806  0.1768  0.3617 -0.1834
  731MOL0     C96392   2.942   9.473   1.939 -0.3708 -0.1858 -0.0560
  731MOL0     C96393   2.831   9.474   2.023 -0.6082 -0.4585  0.5074
  731MOL0     C96394   2.723   9.553   1.986  0.3956 -0.4200  0.7188
  731MOL0     O96395   2.608   9.575   2.059  0.1018 -0.7341 -0.3071
  731MOL0     C96396   2.605   9.532   2.199  0.3646  0.8228 -0.9750
  731MOL0     C96397   2.462   9.544   2.250 -0.1233  0.0776 -0.3563
  731MOL0     C96398   2.388   9.429   2.201  0.0435  0.5728 -0.2110
  731MOL0     C96399   2.242   9.440   2.249  0.2595  0.0106  0.3128
  731MOL0     C96400   2.145   9.323   2.213 -0.1488 -0.1725 -0.9825
  731MOL0     C96401   2.136   9.297   2.058  0.1263  0.3586 -0.1749
  731MOL0     C96402   2.079   9.413   1.979 -0.3291 -0.6332 -0.0741
  731MOL0     C96403   2.109   9.398   1.830 -0.1682 -0.7276  0.2207
  731MOL0    Cl96404   2.068   9.541   1.730  0.2315  0.3037 -0.1349
  731MOL0     C96405   2.720   9.610   1.860  0.2749  0.6502  0.9575
  731MOL0     C96406   2.826   9.600   1.770  0.1288 -0.2596 -0.7918
  731MOL0     O96407   2.949   9.429   1.540 -0.3405  0.8814  0.2852
  731MOL0     C96408   3.293   9.430   1.628 -0.6486  0.1000  0.0853
  731MOL0     C96409   3.416   9.383   1.586 -0.0083  0.4998 -0.1964
  731MOL0     N96410   3.988   9.207   0.901  0.1464 -0.1075 -1.3908
  731MOL0     N96411   3.995   9.119   0.805 -0.8144 -0.3512 -0.2528
  731MOL0     C96412   4.710   8.591   0.300  0.5847 -0.0774 -0.4191
  731MOL0     C96413   4.852   8.583   0.287 -0.4231 -0.3626 -1.2325
  731MOL0     C96414   5.258   8.367   0.247  0.2526 -0.6430  0.4138
  731MOL0     C96415   5.332   8.252   0.273 -0.1071  1.3932 -0.0517
  731MOL0     C96416   5.467   8.259   0.289 -0.0899  0.0427  0.5441
  731MOL0     C96417   5.538   8.377   0.289 -0.1055  0.5557 -0.2421
  731MOL0     O96418   5.672   8.392   0.312  0.3755 -0.1769 -0.2572
  731MOL0     C96419   5.752   8.277   0.312  0.6562  0.2859 -0.9008
  731MOL0     C96420   5.887   8.334   0.332  0.4862 -0.3149  0.0756
  731MOL0     C96421   5.993   8.226   0.332 -0.7631  0.5754 -1.2930
  731MOL0     C96422   6.133   8.281   0.356 -0.1704  0.2373 -0.1581
  731MOL0     C96423   6.168   8.319   0.495 -0.4850 -0.3392  0.3232
  731MOL0     C96424   6.176   8.363   0.611  0.3897 -1.3207  0.3736
  731MOL0     C96425   5.467   8.495   0.273  0.2767  0.3859 -0.5093
  731MOL0     C96426   5.328   8.491   0.245 -0.4436 -0.2998 -0.7360
  731MOL0     H96427   4.864   8.332   0.061 -1.4513 -1.5244  1.3250
  731MOL0     H96428   4.626   8.333   0.086  0.4198  0.7242 -1.6171
  731MOL0     H96429   4.516   8.504   0.456 -2.3506  2.1233  1.7027
  731MOL0     H96430   4.445   8.371   0.378  1.2701  0.8394  1.1284
  731MOL0     H96431   4.264   8.479   0.493 -2.6602  0.3957 -1.1276
  731MOL0     H96432   4.226   8.496   0.334  1.0792 -3.5089  0.7796
  731MOL0     H96433   4.288   8.742   0.327  1.2449  2.4064  0.7708
  731MOL0     H96434   4.347   8.706   0.500  2.8831 -2.8136 -1.4568
  731MOL0     H96435   4.054   8.672   0.388  0.1344  1.6388 -1.2146
  731MOL0     H96436   4.107   8.656   0.553 -0.5400  0.4882 -0.5056
  731MOL0     H96437   4.001   8.872   0.503  1.1134 -0.7679  3.1411
  731MOL0     H96438   4.124   8.906   0.379 -0.0262  1.1532  1.1348
  731MOL0     H96439   4.148   9.037   0.605 -2.6751 -1.4014  2.1484
  731MOL0     H96440   4.294   8.934   0.563  0.7059 -1.0440  2.7670
  731MOL0     H96441   4.227   8.772   0.719  2.3638  0.3145 -1.9974
  731MOL0     H96442   4.248   8.938   0.794 -1.6408  1.5393 -0.0805
  731MOL0     H96443   4.039   8.791   0.854 -1.7969 -0.2533 -0.7128
  731MOL0     H96444   3.979   8.864   0.708  2.0148 -1.0961 -0.9773
  731MOL0     H96445   4.032   8.929   1.075  2.2976  0.5422  0.7887
  731MOL0     H96446   4.026   9.244   1.211  0.2941  0.5176 -1.3405
  731MOL0     H96447   3.986   9.081   1.235 -0.4369 -0.6949 -1.2493
  731MOL0     H96448   3.758   9.118   1.131 -1.1008 -1.1050  3.2839
  731MOL0     H96449   3.784   9.277   1.094  1.6191  0.3649  0.2715
  731MOL0     H96450   3.780   9.157   1.372 -1.1697 -1.8186 -1.1602
  731MOL0     H96451   3.802   9.331   1.337 -2.1689  0.7286  0.8987
  731MOL0     H96452   3.540   9.182   1.257 -1.1605  1.7206 -0.8855
  731MOL0     H96453   3.585   9.340   1.226 -0.7566  0.5051  0.3175
  731MOL0     H96454   3.337   9.299   1.263 -0.6973  3.3091 -1.5291
  731MOL0     H96455   3.107   9.362   1.362 -0.1114  1.3857  0.7874
  731MOL0     H96456   3.029   9.415   1.969 -0.4475 -1.2058 -1.7322
  731MOL0     H96457   2.831   9.414   2.113 -0.4181 -0.8863  0.2297
  731MOL0     H96458   2.668   9.599   2.258 -0.0905  1.2980 -1.0184
  731MOL0     H96459   2.631   9.427   2.213  0.5997  1.3244  4.4161
  731MOL0     H96460   2.409   9.629   2.207  0.1325  0.8307  0.7755
  731MOL0     H96461   2.456   9.539   2.359 -2.3873 -1.1865 -0.4646
  731MOL0     H96462   2.415   9.332   2.244 -0.4978  1.1180  1.4174
  731MOL0     H96463   2.387   9.414   2.092 -1.8570 -0.0206 -0.1421
  731MOL0     H96464   2.254   9.444   2.358  0.2245  0.6100  0.2975
  731MOL0     H96465   2.194   9.532   2.215 -1.7642 -0.0954  2.6282
  731MOL0     H96466   2.048   9.346   2.257  0.3618 -0.2189  0.2283
  731MOL0     H96467   2.184   9.237   2.268 -0.0118 -0.0136 -0.8266
  731MOL0     H96468   2.065   9.217   2.035  1.8121 -0.8489 -1.4579
  731MOL0     H96469   2.228   9.259   2.013 -0.8310 -1.4967 -0.6875
  731MOL0     H96470   1.972   9.432   1.993 -0.3055  1.9758 -2.5689
  731MOL0     H96471   2.127   9.505   2.012 -0.2352 -1.4630  2.3386
  731MOL0     H96472   2.059   9.307   1.795  0.8274 -0.5277 -1.9148
  731MOL0     H96473   2.216   9.381   1.818  0.0199 -0.8990  1.8851
  731MOL0     H96474   2.632   9.671   1.841 -0.0584  0.2563  1.2346
  731MOL0     H96475   2.830   9.640   1.670 -1.3174  2.1261  0.0244
  731MOL0     H96476   3.282   9.481   1.723 -4.7313  0.0199 -0.1601
  731MOL0     H96477   3.505   9.401   1.647  0.7566  1.0387 -1.4387
  731MOL0     H96478   4.675   8.677   0.355  0.6534  0.3758 -1.0699
  731MOL0     H96479   4.908   8.651   0.350 -1.6931  0.3937 -0.8829
  731MOL0     H96480   5.289   8.154   0.290  0.8316  0.8254 -0.8050
  731MOL0     H96481   5.523   8.173   0.324 -2.4174 -1.3914  0.8969
  731MOL0     H96482   5.742   8.223   0.218 -1.9153  2.8081 -2.2431
  731MOL0     H96483   5.709   8.227   0.400 -0.2680  1.4104 -0.6836
  731MOL0     H96484   5.909   8.396   0.245  0.5640 -2.5808 -1.6059
  731MOL0     H96485   5.891   8.391   0.425 -0.7488 -1.0668  0.6218
  731MOL0     H96486   6.004   8.169   0.239  0.1580 -0.1993 -0.7314
  731MOL0     H96487   5.974   8.151   0.409  0.1233 -0.2169 -1.8121
  731MOL0     H96488   6.208   8.211   0.322  1.2821  1.0649  1.1869
  731MOL0     H96489   6.142   8.369   0.292 -0.7377  0.8989  0.6313
  731MOL0     H96490   6.193   8.400   0.710  0.8398  0.6472 -0.3952
  731MOL0     H96491   5.517   8.592   0.271 -0.4718  0.7754 -1.5140
  731MOL0     H96492   5.281   8.588   0.229 -0.5019  0.3005  2.4737
  732MOL0     O96493   0.690   6.098   7.695 -0.0637 -0.7995 -0.4657
  732MOL0     C96494   0.704   6.187   7.612  0.1773 -0.4030  0.0343
  732MOL0     O96495   0.609   6.291   7.603 -0.4540  0.2196 -0.4534
  732MOL0     C96496   0.503   6.307   7.689  0.0006 -1.1219  0.6562
  732MOL0     C96497   0.401   6.384   7.634  0.6445  0.1308  0.3355
  732MOL0     C96498   0.286   6.408   7.706  0.8600  0.6965  0.1355
  732MOL0     C96499   0.269   6.351   7.832 -0.2073 -0.2491 -0.3117
  732MOL0     O96500   0.150   6.369   7.895 -0.3541 -0.4512  0.7608
  732MOL0     C96501   0.091   6.275   7.981  0.6954  0.5864  0.0369
  732MOL0     C96502  -0.056   6.305   8.010  0.3392 -0.6634  0.8405
  732MOL0     C96503  -0.061   6.436   8.082  0.4826 -0.3656 -0.3338
  732MOL0     C96504  -0.198   6.509   8.076  0.8981  0.3936 -0.0923
  732MOL0     C96505  -0.318   6.451   8.152  0.0132  0.7792  0.3973
  732MOL0     C96506  -0.457   6.480   8.092 -0.1179  0.1927  0.2669
  732MOL0     C96507  -0.571   6.420   8.172  0.4454  0.0102 -0.7642
  732MOL0     C96508  -0.594   6.491   8.304  0.7398 -0.1366 -0.5852
  732MOL0     N96509  -0.717   6.449   8.374  0.6822 -0.0714 -0.1935
  732MOL0     C96510  -0.743   6.321   8.421 -0.1299  0.1658 -1.0121
  732MOL0     C96511  -0.855   6.335   8.504  0.4336  0.4506 -0.2942
  732MOL0     C96512  -0.930   6.220   8.570 -0.3212 -1.0033 -0.2496
  732MOL0     C96513  -1.035   6.256   8.667  0.2247  0.7601 -0.2416
  732MOL0     C96514  -1.164   6.294   8.597  0.2942  0.6090  0.3238
  732MOL0     C96515  -1.274   6.351   8.687 -0.2799 -0.0877  0.0077
  732MOL0     O96516  -1.341   6.260   8.770 -0.4870  0.2897 -0.5813
  732MOL0     C96517  -1.473   6.286   8.804 -0.7734 -0.1280 -0.5212
  732MOL0     C96518  -1.561   6.180   8.779 -0.9384 -0.6660 -0.4358
  732MOL0     C96519  -1.699   6.202   8.792  0.4943 -0.0618  0.7229
  732MOL0     C96520  -1.748   6.319   8.855 -0.1431 -0.3637 -0.1453
  732MOL0     C96521  -1.891   6.337   8.864  0.8617 -0.4964 -0.1428
  732MOL0     O96522  -1.937   6.407   8.968 -0.1323 -0.6421  0.0154
  732MOL0     C96523  -2.072   6.442   8.974  1.3108  1.5036  0.0391
  732MOL0     C96524  -2.156   6.349   9.044  0.2309  0.2887 -0.0002
  732MOL0     C96525  -2.292   6.364   9.031  0.4208  0.9275 -0.8482
  732MOL0     C96526  -2.348   6.468   8.950  0.9551 -0.2137 -0.1373
  732MOL0     O96527  -2.483   6.485   8.952  0.1528  1.3853  0.0554
  732MOL0     C96528  -2.556   6.360   8.951  0.5620 -0.4794 -0.4770
  732MOL0     C96529  -2.696   6.374   8.884 -1.2248 -0.2500 -0.6508
  732MOL0     C96530  -2.795   6.462   8.966 -0.6085 -0.2347 -0.2721
  732MOL0     C96531  -2.940   6.465   8.905 -0.4611 -0.0240  0.3701
  732MOL0     C96532  -3.000   6.610   8.918  0.3880 -1.0619  0.1429
  732MOL0     C96533  -3.047   6.633   9.066  0.0749  0.0970  0.5101
  732MOL0     C96534  -3.096   6.777   9.083  0.2765 -0.0373  0.0094
  732MOL0     C96535  -3.146   6.790   9.225  0.4905 -1.0474 -0.1909
  732MOL0    Cl96536  -3.324   6.764   9.224  0.1093  0.0403  0.1691
  732MOL0     C96537  -2.267   6.552   8.873  0.0945  0.7836  0.1862
  732MOL0     C96538  -2.123   6.551   8.894  1.3300 -0.1133 -0.0998
  732MOL0     O96539  -1.956   6.308   8.768  0.0095 -0.4803  0.1594
  732MOL0     C96540  -1.653   6.425   8.883  0.1543  0.2255 -0.3438
  732MOL0     C96541  -1.517   6.405   8.847  0.2263  0.1776  0.3215
  732MOL0     N96542  -0.895   6.460   8.472 -0.9044  0.2791 -0.6469
  732MOL0     N96543  -0.809   6.534   8.421 -0.0368  0.3343  0.4605
  732MOL0     C96544   0.373   6.284   7.890 -0.7061  0.3838  0.2434
  732MOL0     C96545   0.494   6.264   7.822 -0.4567 -0.0466 -0.3243
  732MOL0     C96546   0.823   6.201   7.530 -0.6497 -1.1146  0.2202
  732MOL0     C96547   0.855   6.330   7.484 -0.5674 -0.2255 -0.3952
  732MOL0     C96548   0.944   6.348   7.381 -0.5501 -0.3175  0.1530
  732MOL0     C96549   1.013   6.239   7.334 -0.3144 -0.7236  0.2355
  732MOL0     O96550   1.109   6.262   7.241  0.2859 -0.0221  0.2652
  732MOL0     C96551   1.048   6.264   7.107  0.4757  0.2158 -0.5397
  732MOL0     C96552   1.177   6.221   7.024  0.2354  0.1888  0.3361
  732MOL0     C96553   1.177   6.070   7.011  0.2174 -0.4009  0.5782
  732MOL0     C96554   1.308   6.002   6.971 -0.2014  0.0105  0.7157
  732MOL0     C96555   1.364   6.047   6.841  0.3710  0.3447  0.1043
  732MOL0     C96556   1.418   6.064   6.735 -0.4977 -0.3430 -0.2922
  732MOL0     C96557   0.985   6.113   7.370 -0.3437  0.1386 -0.5748
  732MOL0     C96558   0.893   6.090   7.471 -0.2163 -0.0495 -0.6195
  732MOL0     H96559   0.416   6.435   7.539  0.9394  0.9773  0.8327
  732MOL0     H96560   0.197   6.452   7.661  1.1120 -1.0789 -2.3187
  732MOL0     H96561   0.148   6.296   8.071 -2.1326  3.6247  1.3382
  732MOL0     H96562   0.098   6.174   7.939 -1.3902  1.0222 -1.5553
  732MOL0     H96563  -0.106   6.224   8.063  0.8042 -3.0682 -2.1093
  732MOL0     H96564  -0.112   6.298   7.916 -0.7286 -0.2264  1.4215
  732MOL0     H96565   0.012   6.503   8.037  0.1998 -0.0522 -0.3285
  732MOL0     H96566  -0.034   6.408   8.184 -2.1595 -3.0776 -0.2386
  732MOL0     H96567  -0.193   6.616   8.098 -1.0449  0.6929 -0.9026
  732MOL0     H96568  -0.218   6.499   7.969 -3.6629 -0.1503  0.6215
  732MOL0     H96569  -0.312   6.483   8.257  3.2883 -1.2204  0.9709
  732MOL0     H96570  -0.309   6.342   8.144 -2.4803  0.6152 -0.9688
  732MOL0     H96571  -0.453   6.414   8.004  1.8961  1.2216 -0.4913
  732MOL0     H96572  -0.464   6.586   8.069  2.8617  0.7730  1.5310
  732MOL0     H96573  -0.659   6.432   8.109  0.6489 -0.5891 -1.1618
  732MOL0     H96574  -0.551   6.314   8.191 -0.1288 -0.3739 -2.2504
  732MOL0     H96575  -0.608   6.598   8.285  0.3243 -0.1263 -0.2375
  732MOL0     H96576  -0.508   6.472   8.369 -0.3920  1.4876  1.5093
  732MOL0     H96577  -0.686   6.230   8.406 -1.7877 -1.1674  0.3115
  732MOL0     H96578  -0.858   6.157   8.622 -0.7586 -0.1876  1.4269
  732MOL0     H96579  -0.975   6.168   8.485 -0.0529  0.1389 -1.1129
  732MOL0     H96580  -0.995   6.337   8.728 -0.6800  0.8415  0.2538
  732MOL0     H96581  -1.046   6.174   8.739 -1.6613  1.1292 -0.0639
  732MOL0     H96582  -1.145   6.373   8.524  3.1724 -2.8390 -3.1409
  732MOL0     H96583  -1.196   6.204   8.544 -0.4741  0.2936  1.2940
  732MOL0     H96584  -1.343   6.408   8.624  0.3089  1.2231  0.5191
  732MOL0     H96585  -1.240   6.432   8.752 -0.1563 -0.5937  0.5834
  732MOL0     H96586  -1.529   6.080   8.754 -2.0378 -0.8958 -1.0222
  732MOL0     H96587  -1.763   6.117   8.773  0.7283  0.2818 -1.9023
  732MOL0     H96588  -2.118   6.267   9.103 -1.2119 -1.1716 -0.9922
  732MOL0     H96589  -2.361   6.293   9.075  1.4263 -0.7832 -1.9382
  732MOL0     H96590  -2.569   6.323   9.053 -0.7997 -1.9838 -1.1406
  732MOL0     H96591  -2.503   6.279   8.899  0.2081 -1.8921  1.2415
  732MOL0     H96592  -2.739   6.274   8.872  1.8310 -1.7848  0.2036
  732MOL0     H96593  -2.675   6.409   8.782 -0.5134  1.5073  0.0582
  732MOL0     H96594  -2.747   6.560   8.978 -0.3423 -0.4322  0.3625
  732MOL0     H96595  -2.811   6.432   9.070 -1.0591 -3.0162 -1.0590
  732MOL0     H96596  -2.937   6.437   8.799 -2.7114  0.8197  0.0283
  732MOL0     H96597  -2.988   6.387   8.963  1.5589  0.4354  2.8353
  732MOL0     H96598  -3.094   6.613   8.862 -1.7584  3.1501  3.3867
  732MOL0     H96599  -2.932   6.684   8.874  0.1579 -0.6329  0.4998
  732MOL0     H96600  -2.957   6.630   9.127 -0.2743  0.5409  1.0504
  732MOL0     H96601  -3.119   6.554   9.093  0.3992 -0.9421 -1.4140
  732MOL0     H96602  -3.010   6.844   9.091 -1.3828  2.0199  1.9992
  732MOL0     H96603  -3.172   6.803   9.009 -2.7201 -3.1589  1.6630
  732MOL0     H96604  -3.140   6.895   9.255 -1.2630 -0.5800 -1.2863
  732MOL0     H96605  -3.096   6.723   9.296  1.9195  0.1636 -0.0041
  732MOL0     H96606  -2.311   6.630   8.811  1.2562  1.2411 -0.0870
  732MOL0     H96607  -2.053   6.616   8.843  0.6446 -0.9259 -2.1969
  732MOL0     H96608  -1.693   6.515   8.929 -1.3276  0.4242 -1.9427
  732MOL0     H96609  -1.437   6.478   8.849 -0.3928  0.8650  0.6229
  732MOL0     H96610   0.366   6.241   7.990  0.1881 -3.7600 -1.2797
  732MOL0     H96611   0.572   6.213   7.877  0.2745  3.3172  2.0979
  732MOL0     H96612   0.815   6.425   7.519  0.9880 -0.5434  2.5794
  732MOL0     H96613   0.971   6.448   7.348 -0.7308  0.2564  1.6608
  732MOL0     H96614   1.002   6.360   7.085 -3.0502 -1.3222 -0.6013
  732MOL0     H96615   0.965   6.193   7.105  0.2715  0.3429  1.2710
  732MOL0     H96616   1.163   6.268   6.926 -0.0569  3.6505  1.8799
  732MOL0     H96617   1.270   6.259   7.066  1.2050 -0.6362 -1.0029
  732MOL0     H96618   1.099   6.040   6.940  0.1657 -1.5139  1.0728
  732MOL0     H96619   1.149   6.025   7.106 -0.2760 -0.1909  0.5309
  732MOL0     H96620   1.385   6.013   7.047  0.4191  3.9685 -0.2530
  732MOL0     H96621   1.296   5.896   6.949 -0.2963  0.5817 -2.6662
  732MOL0     H96622   1.477   6.088   6.649  0.1763  2.4264  0.8054
  732MOL0     H96623   1.046   6.029   7.338  2.1523  0.7776  2.1168
  732MOL0     H96624   0.876   5.993   7.515  0.8667  0.7290  1.6752
  733MOL0     O96625   4.537   1.357   3.752 -0.1047 -0.2263 -0.1574
  733MOL0     C96626   4.578   1.375   3.640 -0.8719 -0.6908 -0.0181
  733MOL0     O96627   4.500   1.398   3.532 -1.0251  0.6333  0.4429
  733MOL0     C96628   4.364   1.362   3.534 -0.6725 -0.5392 -0.4050
  733MOL0     C96629   4.274   1.443   3.594  0.8617  1.3833 -0.5121
  733MOL0     C96630   4.135   1.410   3.589  0.7033 -0.4442  0.3317
  733MOL0     C96631   4.098   1.285   3.542  0.6770  0.1893  0.1566
  733MOL0     O96632   3.964   1.249   3.533 -0.1526 -0.4307  0.0380
  733MOL0     C96633   3.872   1.299   3.637 -0.1984  0.0688 -0.6294
  733MOL0     C96634   3.733   1.235   3.626  0.4035 -1.1186  0.1811
  733MOL0     C96635   3.643   1.265   3.743 -0.7758 -0.3241 -0.2420
  733MOL0     C96636   3.502   1.221   3.724 -0.6712 -0.0139  0.2264
  733MOL0     C96637   3.418   1.241   3.851  0.4878 -0.5694 -0.7521
  733MOL0     C96638   3.431   1.116   3.925  0.0828 -0.3923 -0.8797
  733MOL0     C96639   3.349   1.130   4.058 -0.1819  0.3259 -0.1581
  733MOL0     C96640   3.200   1.139   4.027 -0.3317  0.1908  0.6376
  733MOL0     N96641   3.110   1.086   4.131 -0.5426 -0.8743 -0.4731
  733MOL0     C96642   2.974   1.083   4.129 -0.2175 -0.1294  0.7517
  733MOL0     C96643   2.933   1.027   4.242  0.0452 -0.2469 -1.0485
  733MOL0     C96644   2.789   0.986   4.283 -0.5522  0.2647  0.1342
  733MOL0     C96645   2.763   0.836   4.277 -0.7211 -0.3779 -0.0889
  733MOL0     C96646   2.625   0.786   4.222 -0.6378  0.5234  0.0693
  733MOL0     C96647   2.508   0.861   4.278 -1.0405  0.2172  0.3037
  733MOL0     O96648   2.394   0.766   4.284 -0.7060  0.0637 -0.4749
  733MOL0     C96649   2.273   0.809   4.332 -1.0563 -0.7917 -0.5681
  733MOL0     C96650   2.169   0.723   4.294  1.1527  0.4037  0.0507
  733MOL0     C96651   2.037   0.754   4.330 -0.4405  0.3534  0.5771
  733MOL0     C96652   2.007   0.867   4.407 -0.3512 -0.4742 -0.0031
  733MOL0     C96653   1.875   0.899   4.456  0.6080 -0.6056  0.7986
  733MOL0     O96654   1.770   0.833   4.395 -0.1244  0.0537  0.2582
  733MOL0     C96655   1.648   0.838   4.452  0.1566  0.6612  0.2059
  733MOL0     C96656   1.568   0.953   4.457 -0.6556 -0.4273  0.8836
  733MOL0     C96657   1.431   0.949   4.486 -0.4485 -0.5788 -0.7528
  733MOL0     C96658   1.371   0.828   4.532 -0.5322  1.0345  0.7246
  733MOL0     O96659   1.236   0.824   4.549  0.2730  0.5392  0.4360
  733MOL0     C96660   1.169   0.703   4.531  0.1798  0.4824  0.2946
  733MOL0     C96661   1.016   0.702   4.535  0.2162 -0.3366 -0.0369
  733MOL0     C96662   0.941   0.722   4.407  1.3223 -0.4789 -0.7625
  733MOL0     C96663   0.791   0.699   4.427  0.2578  0.2003  0.7976
  733MOL0     C96664   0.727   0.685   4.291 -0.1733 -0.0191 -0.0602
  733MOL0     C96665   0.577   0.659   4.306 -0.4265 -0.7195 -0.3362
  733MOL0     C96666   0.540   0.515   4.308  0.0229  0.0510 -0.3167
  733MOL0     C96667   0.404   0.488   4.375 -0.1080 -0.3050 -0.5839
  733MOL0    Cl96668   0.403   0.472   4.555 -0.0957 -0.1328  0.2274
  733MOL0     C96669   1.464   0.720   4.546 -0.2269 -0.3223 -1.2094
  733MOL0     C96670   1.598   0.729   4.509 -0.4284  0.1743 -0.5656
  733MOL0     O96671   1.856   0.980   4.547  0.3080 -0.0576  0.0110
  733MOL0     C96672   2.116   0.956   4.441 -0.6658  0.3237 -0.0038
  733MOL0     C96673   2.247   0.925   4.403 -0.5206  0.3111  0.2565
  733MOL0     N96674   3.050   1.007   4.325 -0.1351  0.6010  0.3248
  733MOL0     N96675   3.148   1.053   4.254 -0.7327  0.6309 -0.0724
  733MOL0     C96676   4.194   1.194   3.495 -0.0473 -0.7146  0.2568
  733MOL0     C96677   4.321   1.242   3.472 -0.3426 -0.5005 -0.0243
  733MOL0     C96678   4.725   1.359   3.629  0.3260 -0.3418  0.4557
  733MOL0     C96679   4.812   1.371   3.746  0.4886  0.0705  0.2486
  733MOL0     C96680   4.949   1.345   3.741  0.1285 -0.1878 -0.5581
  733MOL0     C96681   5.010   1.310   3.619  0.2415  0.9697 -0.4566
  733MOL0     O96682   5.145   1.272   3.616  0.5378  0.0463  0.3119
  733MOL0     C96683   5.229   1.361   3.544 -0.1091  0.0576 -0.2043
  733MOL0     C96684   5.320   1.284   3.447  0.6745 -1.2747  0.0226
  733MOL0     C96685   5.444   1.363   3.420  0.4772  0.4889 -0.1466
  733MOL0     C96686   5.542   1.261   3.366  0.4520 -0.8095  0.3928
  733MOL0     C96687   5.663   1.329   3.309  1.0664  0.3715  0.0385
  733MOL0     C96688   5.769   1.373   3.298 -0.9018 -0.8938  1.0249
  733MOL0     C96689   4.927   1.285   3.511 -0.0322 -1.1456  0.3587
  733MOL0     C96690   4.794   1.314   3.512 -0.5891 -0.1539 -0.0703
  733MOL0     H96691   4.311   1.519   3.661 -2.1328  2.8627 -0.3712
  733MOL0     H96692   4.073   1.484   3.639  1.2226  0.0793  0.2206
  733MOL0     H96693   3.857   1.407   3.634 -0.2819  0.2641  2.8212
  733MOL0     H96694   3.918   1.276   3.734  1.0327  1.0049 -0.9698
  733MOL0     H96695   3.733   1.126   3.612 -2.7770 -1.0027 -1.7678
  733MOL0     H96696   3.693   1.286   3.538  2.9247 -0.1754 -0.5018
  733MOL0     H96697   3.650   1.372   3.766  0.5132 -0.6054  0.8215
  733MOL0     H96698   3.687   1.217   3.831  1.0496  1.1476 -0.2594
  733MOL0     H96699   3.457   1.295   3.657 -0.7967  1.5983  1.9968
  733MOL0     H96700   3.501   1.120   3.683  2.2764 -0.7179  1.6404
  733MOL0     H96701   3.313   1.267   3.834 -1.1654 -4.3831  2.1144
  733MOL0     H96702   3.452   1.326   3.910 -0.9530  0.5597 -1.4823
  733MOL0     H96703   3.537   1.103   3.951 -0.0829 -2.5753 -1.1162
  733MOL0     H96704   3.399   1.026   3.871 -3.2886 -1.4272  2.4824
  733MOL0     H96705   3.369   1.040   4.115  1.0952  1.1397  0.7228
  733MOL0     H96706   3.371   1.221   4.115 -0.7303 -0.3049  1.1007
  733MOL0     H96707   3.166   1.080   3.942  1.3296 -0.2273  0.2118
  733MOL0     H96708   3.184   1.246   4.014 -2.4417  0.2131  2.7608
  733MOL0     H96709   2.908   1.116   4.049 -2.0742  0.0326  2.2875
  733MOL0     H96710   2.732   1.041   4.208  0.0616  2.1269  0.9723
  733MOL0     H96711   2.761   1.016   4.384 -0.2122 -0.6247  0.5028
  733MOL0     H96712   2.770   0.808   4.383  1.0907  1.7173  0.4038
  733MOL0     H96713   2.840   0.783   4.221 -1.0129  0.7561 -1.6038
  733MOL0     H96714   2.638   0.798   4.114 -0.1126  5.5608  0.4605
  733MOL0     H96715   2.613   0.680   4.247 -1.8991  0.4507 -0.7573
  733MOL0     H96716   2.480   0.947   4.216 -1.2120 -1.2214 -1.7325
  733MOL0     H96717   2.516   0.895   4.381 -1.1654  1.5504 -0.1062
  733MOL0     H96718   2.182   0.629   4.241 -0.5332  1.0510 -1.6251
  733MOL0     H96719   1.953   0.697   4.290 -0.0391 -1.0089  1.6135
  733MOL0     H96720   1.616   1.044   4.421 -0.2370 -1.1506 -0.4228
  733MOL0     H96721   1.366   1.034   4.468 -1.6755 -0.5404  3.0779
  733MOL0     H96722   1.198   0.643   4.617 -1.4812  1.8387  1.8678
  733MOL0     H96723   1.215   0.654   4.444 -0.3738 -1.5527  1.0977
  733MOL0     H96724   0.989   0.776   4.611  0.6446  1.5219 -1.5994
  733MOL0     H96725   1.002   0.597   4.563  3.2662 -0.8925 -0.2551
  733MOL0     H96726   0.985   0.657   4.331  1.4297 -0.7694 -0.4517
  733MOL0     H96727   0.975   0.821   4.373  2.7105 -1.2171 -1.6326
  733MOL0     H96728   0.791   0.602   4.479  3.9187 -1.1522 -1.3027
  733MOL0     H96729   0.730   0.768   4.486 -1.5146 -1.3751  0.9039
  733MOL0     H96730   0.776   0.598   4.246  2.3404  0.2040  2.0384
  733MOL0     H96731   0.750   0.772   4.230 -2.3313  0.1372 -0.7225
  733MOL0     H96732   0.519   0.711   4.229  1.2158 -0.0755 -1.1969
  733MOL0     H96733   0.555   0.702   4.404  4.6206 -3.0674  2.1745
  733MOL0     H96734   0.543   0.489   4.202  0.4563 -1.1855 -0.0109
  733MOL0     H96735   0.608   0.454   4.367 -1.3703 -0.6530  0.6352
  733MOL0     H96736   0.363   0.392   4.343  2.5261 -1.1613 -1.6530
  733MOL0     H96737   0.335   0.566   4.342  1.8193  1.0182 -1.6970
  733MOL0     H96738   1.416   0.626   4.572 -4.3165  2.3995  2.3774
  733MOL0     H96739   1.669   0.647   4.519 -0.7922  0.1201  2.4025
  733MOL0     H96740   2.103   1.051   4.492  0.6422 -0.0606  1.0959
  733MOL0     H96741   2.326   0.998   4.415 -1.0246  1.1965 -1.4739
  733MOL0     H96742   4.162   1.095   3.463 -1.7294  0.5092 -2.1600
  733MOL0     H96743   4.388   1.187   3.407  0.5235 -0.0916  0.5078
  733MOL0     H96744   4.772   1.396   3.844  0.3581 -1.4042  0.5944
  733MOL0     H96745   5.015   1.354   3.827 -0.5187 -1.2368  0.0667
  733MOL0     H96746   5.296   1.407   3.618 -0.0463 -2.2734  1.2753
  733MOL0     H96747   5.167   1.437   3.496 -3.4655 -0.9915  2.1414
  733MOL0     H96748   5.337   1.187   3.494  3.1106  0.4834  3.1504
  733MOL0     H96749   5.266   1.264   3.353 -0.1172 -2.4316  0.6911
  733MOL0     H96750   5.488   1.407   3.510 -0.8275 -0.9054  1.2389
  733MOL0     H96751   5.428   1.445   3.350  0.4372 -1.0416 -2.0208
  733MOL0     H96752   5.574   1.194   3.446  2.6310  0.8653  1.0319
  733MOL0     H96753   5.498   1.201   3.286 -1.6803  0.2979  0.6591
  733MOL0     H96754   5.872   1.399   3.285 -1.2785 -0.6110 -2.2618
  733MOL0     H96755   4.978   1.222   3.440  0.5501 -0.6999  0.3709
  733MOL0     H96756   4.741   1.286   3.422 -0.6520 -1.7383  0.4164
  734MOL0     O96757   7.207   6.457   4.661  0.6004  0.1336 -1.2586
  734MOL0     C96758   7.190   6.449   4.786  0.0996 -0.0464  0.1743
  734MOL0     O96759   7.283   6.446   4.881 -0.6009  0.0254 -0.5406
  734MOL0     C96760   7.418   6.441   4.861 -0.1614  0.4963 -0.2470
  734MOL0     C96761   7.485   6.486   4.746  0.5835 -0.6147 -0.2279
  734MOL0     C96762   7.626   6.461   4.727  0.0949  0.5021  0.0555
  734MOL0     C96763   7.704   6.390   4.822  0.6111  0.3021  0.3955
  734MOL0     O96764   7.831   6.358   4.786 -0.1224 -0.3369 -0.4398
  734MOL0     C96765   7.913   6.264   4.864  0.0341 -0.2645  0.2340
  734MOL0     C96766   8.029   6.225   4.791  0.1535 -1.0745 -0.8487
  734MOL0     C96767   8.139   6.333   4.810 -0.4911 -0.1541  0.9700
  734MOL0     C96768   8.189   6.345   4.951 -0.0664  0.1088 -0.9268
  734MOL0     C96769   8.319   6.413   4.963 -0.0243  0.2705  0.2102
  734MOL0     C96770   8.434   6.348   4.886 -0.0363  0.1704 -0.8052
  734MOL0     C96771   8.564   6.383   4.946 -0.6105  0.1907  0.6630
  734MOL0     C96772   8.667   6.324   4.854  0.2793  0.5424 -0.2250
  734MOL0     N96773   8.805   6.358   4.887  0.2386 -0.0011  0.4203
  734MOL0     C96774   8.876   6.471   4.852  0.5131  0.3867  0.7682
  734MOL0     C96775   8.995   6.468   4.924 -0.0188 -0.4032 -0.4687
  734MOL0     C96776   9.100   6.568   4.917  0.2683  0.7398  0.1608
  734MOL0     C96777   9.239   6.518   4.916 -0.1735 -1.0539  0.7269
  734MOL0     C96778   9.292   6.525   5.063  0.1346 -0.1549  0.5304
  734MOL0     C96779   9.420   6.444   5.065  0.0329  0.7729 -0.0426
  734MOL0     O96780   9.524   6.529   5.012  0.3148  0.5385  0.4582
  734MOL0     C96781   9.658   6.501   5.028 -0.0108 -0.5169 -0.0158
  734MOL0     C96782   9.699   6.381   5.082 -0.0907  0.2569  1.0216
  734MOL0     C96783   9.835   6.350   5.079  0.3525  0.1259 -0.8221
  734MOL0     C96784   9.932   6.446   5.033  0.1562  0.9937  0.1199
  734MOL0     C96785  10.074   6.416   5.047 -0.0249  0.1283  1.3877
  734MOL0     O96786  10.104   6.285   5.088  0.2342 -0.3815  0.7916
  734MOL0     C96787  10.233   6.242   5.108 -0.5763  0.2510  0.5021
  734MOL0     C96788  10.342   6.249   5.017  0.4055  0.1514  0.1922
  734MOL0     C96789  10.473   6.227   5.062 -0.3067  0.8116  0.2565
  734MOL0     C96790  10.498   6.185   5.197  0.8686 -0.0598  1.1366
  734MOL0     O96791  10.619   6.150   5.245 -0.3377 -0.4943 -0.1804
  734MOL0     C96792  10.655   6.018   5.213 -0.1407  0.7163 -0.1745
  734MOL0     C96793  10.795   5.997   5.174 -0.4032 -0.2692 -0.8335
  734MOL0     C96794  10.836   6.068   5.041 -0.5445  0.1941  0.0513
  734MOL0     C96795  10.989   6.098   5.038  0.5512  0.3253 -0.3079
  734MOL0     C96796  11.055   5.990   4.962 -0.7995  0.1097  0.6842
  734MOL0     C96797  11.188   6.047   4.915  0.5372  0.1255  0.1003
  734MOL0     C96798  11.271   5.942   4.838 -0.1661  0.5984  0.4314
  734MOL0     C96799  11.392   6.003   4.760  0.1165 -0.4062 -0.2232
  734MOL0    Cl96800  11.514   6.024   4.894  0.2839 -0.0760  0.2198
  734MOL0     C96801  10.389   6.168   5.284  0.3991  0.1515  0.5352
  734MOL0     C96802  10.262   6.204   5.238 -0.3128 -0.5833  0.0161
  734MOL0     O96803  10.151   6.500   5.007 -0.1265  0.7939  0.4522
  734MOL0     C96804   9.893   6.568   4.979  0.6822 -0.5860 -0.0845
  734MOL0     C96805   9.753   6.590   4.977 -0.8062  0.2201  0.8332
  734MOL0     N96806   8.982   6.362   5.011  0.1535  0.4843  0.4349
  734MOL0     N96807   8.873   6.287   4.983 -0.9110 -0.2026  0.9746
  734MOL0     C96808   7.639   6.361   4.944  0.3491  0.0445 -0.1908
  734MOL0     C96809   7.499   6.383   4.967  0.0447  0.0678 -0.1709
  734MOL0     C96810   7.052   6.425   4.831  0.3062 -0.5271 -0.1133
  734MOL0     C96811   6.957   6.498   4.768  0.3248  0.1852  0.8512
  734MOL0     C96812   6.820   6.482   4.791 -0.8817 -0.3178  0.1954
  734MOL0     C96813   6.780   6.390   4.888 -0.2004 -0.3846  0.1636
  734MOL0     O96814   6.645   6.380   4.918  0.2879 -0.0806 -0.1594
  734MOL0     C96815   6.590   6.262   4.975 -0.4297 -0.6838  0.1314
  734MOL0     C96816   6.441   6.283   4.964  0.8429  1.0552  0.2193
  734MOL0     C96817   6.391   6.401   5.058  0.5924  0.6135  0.3555
  734MOL0     C96818   6.251   6.385   5.115  0.4511 -0.7235  0.3768
  734MOL0     C96819   6.144   6.349   5.022 -0.0586  0.0321 -0.1711
  734MOL0     C96820   6.043   6.327   4.960 -0.1071 -1.2347  1.3870
  734MOL0     C96821   6.878   6.312   4.957 -1.0483  0.1685  0.1645
  734MOL0     C96822   7.018   6.326   4.924 -0.7986  0.3748 -0.2819
  734MOL0     H96823   7.440   6.549   4.670 -0.7749  0.8647  1.6768
  734MOL0     H96824   7.679   6.495   4.638  2.7467 -0.7280  1.0704
  734MOL0     H96825   7.852   6.176   4.888 -1.5511  1.6912  4.3200
  734MOL0     H96826   7.931   6.310   4.962  1.7322 -1.0332  0.3121
  734MOL0     H96827   8.014   6.217   4.683  2.1548 -1.2805 -1.1642
  734MOL0     H96828   8.058   6.126   4.826 -1.5478 -0.9789  0.9908
  734MOL0     H96829   8.103   6.431   4.776 -3.0983 -0.0692  3.6118
  734MOL0     H96830   8.222   6.308   4.743 -1.5457  0.1729 -0.5289
  734MOL0     H96831   8.112   6.407   4.997 -2.1179 -2.6870 -0.3138
  734MOL0     H96832   8.200   6.250   5.006  0.0040  0.1074 -0.9424
  734MOL0     H96833   8.333   6.419   5.071 -1.7104  1.2989  0.4005
  734MOL0     H96834   8.297   6.509   4.915  1.7474  0.0393 -1.1782
  734MOL0     H96835   8.426   6.362   4.778  0.6975  3.4262 -0.5518
  734MOL0     H96836   8.429   6.241   4.907  1.2493  0.4369  1.0775
  734MOL0     H96837   8.586   6.490   4.956  1.5208 -0.3227  2.2829
  734MOL0     H96838   8.564   6.329   5.042 -1.0218 -1.3128 -0.1595
  734MOL0     H96839   8.654   6.362   4.752  1.5611  3.2319  0.5173
  734MOL0     H96840   8.655   6.217   4.839  2.5518  0.3722 -1.1628
  734MOL0     H96841   8.849   6.539   4.771 -1.7843 -0.2805  0.8922
  734MOL0     H96842   9.088   6.640   4.999  0.7870  0.1825  0.7330
  734MOL0     H96843   9.073   6.620   4.824 -0.2635 -0.0332 -0.1274
  734MOL0     H96844   9.306   6.580   4.855 -2.2556  1.4672  0.8256
  734MOL0     H96845   9.238   6.418   4.873 -0.0378 -1.6134  1.9880
  734MOL0     H96846   9.296   6.622   5.113 -0.1398 -0.6731  1.5691
  734MOL0     H96847   9.225   6.466   5.127 -1.5365 -1.3904 -2.1699
  734MOL0     H96848   9.412   6.358   4.998 -3.2850  0.3522  0.7162
  734MOL0     H96849   9.445   6.427   5.170 -1.4629  0.9911  0.3784
  734MOL0     H96850   9.623   6.317   5.126  0.4017 -1.8870 -1.0925
  734MOL0     H96851   9.866   6.250   5.110  2.6669  1.0433  0.0609
  734MOL0     H96852  10.320   6.271   4.913 -1.7564 -0.3719  0.5002
  734MOL0     H96853  10.563   6.235   5.002 -0.1698  2.2991  0.6233
  734MOL0     H96854  10.595   5.975   5.132  1.8035 -1.5208 -0.5348
  734MOL0     H96855  10.639   5.959   5.303  1.8390 -0.2218 -0.3921
  734MOL0     H96856  10.826   5.893   5.165  1.3354 -0.0360  1.4985
  734MOL0     H96857  10.854   6.047   5.251  1.6047  0.1822 -2.5563
  734MOL0     H96858  10.798   6.168   5.017  4.5324  2.2933 -0.3267
  734MOL0     H96859  10.807   6.001   4.959 -3.2601  0.3148  0.8026
  734MOL0     H96860  11.005   6.191   4.984 -1.9814  0.0505 -1.7226
  734MOL0     H96861  11.028   6.108   5.140 -1.5827  2.6017  0.3951
  734MOL0     H96862  10.999   5.968   4.871 -0.4066  0.0960  0.4416
  734MOL0     H96863  11.059   5.898   5.021 -1.2410 -0.9915 -0.9430
  734MOL0     H96864  11.243   6.082   5.003 -2.2905  1.3285  1.5370
  734MOL0     H96865  11.166   6.136   4.854 -0.1760 -0.9554 -1.2835
  734MOL0     H96866  11.305   5.869   4.911  2.9196  3.0050  1.6050
  734MOL0     H96867  11.219   5.896   4.753  0.9653  4.0708 -2.3975
  734MOL0     H96868  11.378   6.105   4.722  2.4281  0.5912  1.4282
  734MOL0     H96869  11.434   5.943   4.679  0.4588 -1.8080  0.9536
  734MOL0     H96870  10.424   6.130   5.379  0.3602  0.9872  0.8973
  734MOL0     H96871  10.180   6.202   5.309  0.0669 -1.7396  0.4563
  734MOL0     H96872   9.963   6.646   4.952 -0.7285  1.7821  2.6144
  734MOL0     H96873   9.714   6.683   4.937  0.6829  0.1607 -0.8694
  734MOL0     H96874   7.687   6.299   5.019  0.4134 -1.2110 -1.2300
  734MOL0     H96875   7.444   6.360   5.057 -2.0439 -0.7192 -1.5652
  734MOL0     H96876   6.982   6.570   4.691  1.1587  0.6970  1.5840
  734MOL0     H96877   6.749   6.547   4.742  1.9675  2.7794 -0.1813
  734MOL0     H96878   6.618   6.250   5.080 -2.7460  2.0989  1.1788
  734MOL0     H96879   6.619   6.183   4.905  0.1866  2.0658 -2.9283
  734MOL0     H96880   6.411   6.305   4.862  0.5827 -1.4178 -0.3010
  734MOL0     H96881   6.398   6.188   4.997  2.3048 -0.0431 -0.8970
  734MOL0     H96882   6.397   6.500   5.010  3.1882  1.1897  1.6600
  734MOL0     H96883   6.459   6.407   5.143  2.3920 -2.4414 -0.7163
  734MOL0     H96884   6.276   6.300   5.179 -1.2529 -0.9957  0.7267
  734MOL0     H96885   6.226   6.471   5.177  3.4927  1.0183 -0.6038
  734MOL0     H96886   5.959   6.302   4.899  0.7087  2.3225 -1.5848
  734MOL0     H96887   6.852   6.232   5.025 -0.6498 -0.1607 -0.0634
  734MOL0     H96888   7.090   6.263   4.974  0.6324  0.8442 -1.6401
  735MOL0     O96889   5.811   1.960   9.909 -0.6124 -0.5140  0.0065
  735MOL0     C96890   5.817   1.892  10.012 -0.1220  0.4851  0.3302
  735MOL0     O96891   5.720   1.829  10.070  0.5054 -0.5611  0.0546
  735MOL0     C96892   5.585   1.832  10.027 -0.3565  0.5046 -0.2802
  735MOL0     C96893   5.482   1.824  10.130  0.4162  0.1281 -0.4369
  735MOL0     C96894   5.344   1.798  10.087 -0.1627 -0.5048  0.1832
  735MOL0     C96895   5.307   1.798   9.950  0.1068  0.6739 -0.2406
  735MOL0     O96896   5.182   1.768   9.898 -0.0966  0.0984  0.5050
  735MOL0     C96897   5.067   1.797   9.975  0.2577  0.1249  0.5569
  735MOL0     C96898   4.944   1.736   9.905  0.0355  0.3334 -0.7299
  735MOL0     C96899   4.820   1.789   9.963  0.0873 -1.1707  0.8759
  735MOL0     C96900   4.703   1.704   9.905 -0.2674 -0.5431  0.3246
  735MOL0     C96901   4.574   1.779   9.902  0.0711 -0.2968  0.4205
  735MOL0     C96902   4.463   1.705   9.824  0.0647 -0.1414  0.6058
  735MOL0     C96903   4.350   1.806   9.812  0.4139  0.0736  0.6646
  735MOL0     C96904   4.232   1.725   9.745  0.4945 -0.3620  1.0841
  735MOL0     N96905   4.112   1.811   9.732  0.7746  0.0422  0.4844
  735MOL0     C96906   4.045   1.848   9.848 -0.3479  0.1727  0.9499
  735MOL0     C96907   3.950   1.945   9.802 -0.1686 -0.8848 -0.0712
  735MOL0     C96908   3.864   2.026   9.899 -0.3422  0.5344 -0.3479
  735MOL0     C96909   3.788   1.929   9.997  0.7133  0.1017 -0.1955
  735MOL0     C96910   3.664   1.856   9.935  0.6137  0.0405  0.3798
  735MOL0     C96911   3.587   1.764  10.034 -0.7568  0.1706  0.1881
  735MOL0     O96912   3.525   1.833  10.141  0.3836  0.4288 -0.7338
  735MOL0     C96913   3.390   1.834  10.158  0.3187  0.6141 -0.3238
  735MOL0     C96914   3.303   1.800  10.044  0.6078  1.3523 -0.9783
  735MOL0     C96915   3.167   1.778  10.070  0.2189 -1.4831  0.0513
  735MOL0     C96916   3.108   1.786  10.201  0.3561  0.3487 -0.0456
  735MOL0     C96917   2.964   1.760  10.221  0.8614 -0.6021 -0.4374
  735MOL0     O96918   2.899   1.699  10.123  0.0760  0.3382 -0.4902
  735MOL0     C96919   2.766   1.660  10.119  0.5496  0.5807  0.2379
  735MOL0     C96920   2.736   1.574  10.025  0.1522 -0.6726  0.5181
  735MOL0     C96921   2.603   1.533   9.989 -0.0598 -0.0766 -0.2121
  735MOL0     C96922   2.497   1.582  10.057 -0.7286  0.1313 -0.1921
  735MOL0     O96923   2.367   1.569  10.020 -1.1446 -0.5488 -0.3898
  735MOL0     C96924   2.303   1.464  10.088  0.0015  1.0232  0.1753
  735MOL0     C96925   2.284   1.350   9.996  0.0015  0.0260 -0.7256
  735MOL0     C96926   2.168   1.248  10.039 -0.2059  0.9987  0.0700
  735MOL0     C96927   2.032   1.318  10.077  1.0536 -0.4553  0.1819
  735MOL0     C96928   1.924   1.223  10.021  0.6781  0.2331 -1.0955
  735MOL0     C96929   1.778   1.275  10.040 -0.2728  0.0840 -0.3571
  735MOL0     C96930   1.689   1.153  10.019  0.1716 -0.6292 -0.1959
  735MOL0     C96931   1.546   1.204   9.980 -1.3447  0.0225 -0.0541
  735MOL0    Cl96932   1.429   1.069  10.012 -0.3524 -0.1737 -0.1961
  735MOL0     C96933   2.536   1.663  10.168  0.1842 -0.8873  0.6337
  735MOL0     C96934   2.668   1.700  10.204 -0.2014  0.0319  1.0382
  735MOL0     O96935   2.914   1.805  10.326  0.5475  0.0350  0.7329
  735MOL0     C96936   3.192   1.823  10.305  0.7767 -0.7792 -1.3247
  735MOL0     C96937   3.327   1.840  10.283  0.3220 -0.6508 -0.2701
  735MOL0     N96938   3.974   1.959   9.665 -0.2324  0.1517 -0.0023
  735MOL0     N96939   4.069   1.878   9.626  0.6667  0.6536  0.3160
  735MOL0     C96940   5.410   1.819   9.855  0.3744  0.0847 -0.5666
  735MOL0     C96941   5.550   1.830   9.896 -0.0541 -0.7866  0.6360
  735MOL0     C96942   5.951   1.893  10.082  0.2862 -0.1031  0.9043
  735MOL0     C96943   6.065   1.875  10.009  0.2911 -0.1230  0.1287
  735MOL0     C96944   6.191   1.869  10.069  0.8946 -0.3930 -0.8741
  735MOL0     C96945   6.193   1.877  10.209 -0.8615  0.1929  0.1408
  735MOL0     O96946   6.314   1.874  10.279  0.1638 -0.5647  0.0177
  735MOL0     C96947   6.441   1.871  10.226 -0.8133 -0.2628 -0.5613
  735MOL0     C96948   6.548   1.802  10.313  0.5399 -0.6732  0.4643
  735MOL0     C96949   6.508   1.661  10.343 -0.4626  0.0160  0.4129
  735MOL0     C96950   6.436   1.650  10.471  0.7199 -1.2798  0.0105
  735MOL0     C96951   6.368   1.518  10.486  0.4865  0.6454  0.3803
  735MOL0     C96952   6.313   1.407  10.489 -1.1720  1.3846  0.3996
  735MOL0     C96953   6.079   1.909  10.285  0.3088  0.2792  0.2273
  735MOL0     C96954   5.953   1.914  10.221  0.1190  0.1235  0.8049
  735MOL0     H96955   5.518   1.820  10.232 -4.0963  1.0982  1.4248
  735MOL0     H96956   5.268   1.774  10.161  0.2968  0.9671  1.1966
  735MOL0     H96957   5.048   1.905   9.975 -0.6943 -0.0365  0.2897
  735MOL0     H96958   5.069   1.759  10.077  2.7602 -0.9500  0.1869
  735MOL0     H96959   4.940   1.627   9.915  1.3140  0.2187 -1.2873
  735MOL0     H96960   4.944   1.751   9.797 -1.6939 -1.4539 -1.0320
  735MOL0     H96961   4.806   1.890   9.924  3.8906 -0.3755  1.1385
  735MOL0     H96962   4.810   1.796  10.072  0.6326  0.1402  0.8587
  735MOL0     H96963   4.739   1.692   9.803  0.8848  0.6018  0.5747
  735MOL0     H96964   4.711   1.609   9.959  2.0346 -1.7765 -1.9583
  735MOL0     H96965   4.573   1.883   9.868 -2.2980 -0.5861 -0.5773
  735MOL0     H96966   4.549   1.783  10.008  0.3373  3.2488  0.4527
  735MOL0     H96967   4.425   1.623   9.886  1.8544  0.1908  2.2100
  735MOL0     H96968   4.497   1.666   9.728 -1.0377 -2.2263  1.0069
  735MOL0     H96969   4.323   1.842   9.912  0.8375 -2.5874  1.8253
  735MOL0     H96970   4.379   1.888   9.746  2.5756 -2.4976 -1.8231
  735MOL0     H96971   4.206   1.640   9.808  0.5897  1.4093  3.6941
  735MOL0     H96972   4.262   1.693   9.645  2.0063  1.5129  0.8607
  735MOL0     H96973   4.055   1.815   9.951 -1.3735 -1.7826  0.4778
  735MOL0     H96974   3.792   2.077   9.834 -0.5381 -2.9290 -3.2051
  735MOL0     H96975   3.919   2.099   9.959  0.8860  1.7571 -2.8080
  735MOL0     H96976   3.756   1.992  10.081 -1.3106  0.5489 -1.2234
  735MOL0     H96977   3.854   1.846  10.025  0.4083 -0.6018 -1.4861
  735MOL0     H96978   3.590   1.932   9.909  0.1623  0.4676  2.6918
  735MOL0     H96979   3.692   1.809   9.840  5.5951  2.6950  0.1648
  735MOL0     H96980   3.671   1.703  10.068 -2.5249 -1.8669  1.1618
  735MOL0     H96981   3.520   1.702   9.973  0.4534  0.0131 -1.0131
  735MOL0     H96982   3.340   1.787   9.944  1.2432  3.6590 -1.1158
  735MOL0     H96983   3.108   1.743   9.985  1.4619 -1.4166 -0.8628
  735MOL0     H96984   2.820   1.533   9.970 -1.2271 -0.6936 -1.6863
  735MOL0     H96985   2.587   1.455   9.915 -1.5638  0.9417 -1.0140
  735MOL0     H96986   2.205   1.493  10.126 -0.9386 -1.4408 -0.1914
  735MOL0     H96987   2.365   1.437  10.174  0.6470  1.6276 -0.0840
  735MOL0     H96988   2.377   1.292   9.996 -0.6250 -1.0454  0.9310
  735MOL0     H96989   2.263   1.377   9.892 -0.3101  0.3659 -0.5760
  735MOL0     H96990   2.206   1.210  10.134 -1.1483  0.5665  0.2893
  735MOL0     H96991   2.159   1.166   9.966  1.5291 -1.5975  2.5328
  735MOL0     H96992   2.029   1.319  10.186  1.1992 -1.8270  0.2119
  735MOL0     H96993   2.027   1.418  10.033 -0.7138 -1.0199 -1.0005
  735MOL0     H96994   1.926   1.136  10.086 -0.1933  1.9649  1.3911
  735MOL0     H96995   1.939   1.185   9.919  2.3490 -1.0552 -0.4235
  735MOL0     H96996   1.764   1.364   9.977 -2.3979  0.5085  0.6203
  735MOL0     H96997   1.773   1.307  10.144  2.4713  0.9496 -0.4087
  735MOL0     H96998   1.724   1.092   9.935  0.6037  0.2709 -0.6738
  735MOL0     H96999   1.678   1.100  10.115  4.3828 -0.4308  0.5957
  735MOL0     H97000   1.544   1.216   9.871  0.5094  0.9257 -0.0191
  735MOL0     H97001   1.529   1.296  10.036  0.3734  0.6753 -0.5395
  735MOL0     H97002   2.457   1.712  10.224  0.7821  0.7790  0.0915
  735MOL0     H97003   2.676   1.768  10.288  1.1818 -1.8045  2.4579
  735MOL0     H97004   3.169   1.837  10.410  4.5688  0.0661 -0.4422
  735MOL0     H97005   3.391   1.858  10.369  0.5180  0.3559 -0.6140
  735MOL0     H97006   5.387   1.833   9.750 -1.3906  0.8185 -0.1045
  735MOL0     H97007   5.630   1.837   9.823  3.2315  0.3373  3.9737
  735MOL0     H97008   6.064   1.873   9.900 -3.1832  0.5140  0.0276
  735MOL0     H97009   6.280   1.857  10.007  1.0236 -0.0850 -0.7502
  735MOL0     H97010   6.461   1.973  10.192 -2.6871  0.9262  1.5897
  735MOL0     H97011   6.430   1.814  10.133 -4.1444 -2.2878  0.8627
  735MOL0     H97012   6.640   1.811  10.255 -0.1733  0.1058 -0.5776
  735MOL0     H97013   6.563   1.852  10.409 -1.3172 -0.0927  0.4898
  735MOL0     H97014   6.593   1.593  10.336 -0.3429 -0.0549  2.0746
  735MOL0     H97015   6.439   1.634  10.263  0.3664  1.7334 -0.9521
  735MOL0     H97016   6.507   1.649  10.554  0.2991  2.9485  0.6500
  735MOL0     H97017   6.359   1.728  10.469  0.5140 -1.5028 -0.9638
  735MOL0     H97018   6.270   1.309  10.498 -1.9620  1.2921 -3.0796
  735MOL0     H97019   6.098   1.918  10.391 -0.2893 -0.7968  0.4400
  735MOL0     H97020   5.864   1.934  10.279 -1.1830  0.3447 -1.1447
  736MOL0     O97021   8.331   9.786   6.480 -0.1144  0.0569  0.1934
  736MOL0     C97022   8.318   9.880   6.554 -0.0191 -0.0472 -0.1409
  736MOL0     O97023   8.208   9.961   6.554 -0.1955 -0.1245  0.6471
  736MOL0     C97024   8.096   9.946   6.488 -0.2791 -0.0596  0.0152
  736MOL0     C97025   8.072   9.846   6.385  0.4191 -1.1837 -0.2338
  736MOL0     C97026   7.947   9.846   6.327 -0.9011 -0.0900  0.8047
  736MOL0     C97027   7.839   9.930   6.356 -0.4618 -0.3515  0.1520
  736MOL0     O97028   7.720   9.924   6.292 -0.2452 -0.1964  0.0531
  736MOL0     C97029   7.675   9.791   6.253 -0.5467 -0.1426  0.8659
  736MOL0     C97030   7.547   9.757   6.329  0.0217 -1.1074 -0.3116
  736MOL0     C97031   7.426   9.862   6.303 -0.9541  0.7137  0.2246
  736MOL0     C97032   7.286   9.804   6.321  0.2670  1.0571 -0.5129
  736MOL0     C97033   7.178   9.908   6.311 -0.8616  0.0316 -0.0202
  736MOL0     C97034   7.040   9.840   6.344  0.4850 -0.0238 -1.0868
  736MOL0     C97035   6.935   9.944   6.379 -0.3541  0.3196 -0.4707
  736MOL0     C97036   6.801   9.937   6.308 -0.2272 -0.0001 -0.5702
  736MOL0     N97037   6.786   9.992   6.174 -0.2756 -0.1602 -0.1648
  736MOL0     C97038   6.833  10.113   6.119  0.0722  0.1493 -0.1196
  736MOL0     C97039   6.816  10.113   5.981  0.9474 -0.1476 -0.6852
  736MOL0     C97040   6.808  10.222   5.875  0.9727 -0.2104  0.0467
  736MOL0     C97041   6.690  10.319   5.910  0.0918 -0.8090  0.5163
  736MOL0     C97042   6.553  10.264   5.864 -0.4326 -0.0590  0.0030
  736MOL0     C97043   6.490  10.186   5.981 -0.0256 -0.1789 -0.3849
  736MOL0     O97044   6.387  10.101   5.935  0.1244 -0.2939 -0.8525
  736MOL0     C97045   6.254  10.149   5.939  0.3613 -0.5312  0.1001
  736MOL0     C97046   6.149  10.057   5.919  0.0755 -0.6331 -0.3881
  736MOL0     C97047   6.015  10.104   5.934 -0.3968  0.8769  0.8449
  736MOL0     C97048   5.985  10.240   5.952 -0.1027  0.0819 -0.2791
  736MOL0     C97049   5.836  10.287   5.959  0.1847  0.4501  1.0589
  736MOL0     O97050   5.742  10.185   5.944 -0.3663 -0.3583  0.4466
  736MOL0     C97051   5.603  10.201   5.949 -0.0189 -0.1551  0.1824
  736MOL0     C97052   5.537  10.078   5.946  0.1506 -0.2471 -0.1291
  736MOL0     C97053   5.399  10.065   5.969 -0.2339 -0.6874 -0.5777
  736MOL0     C97054   5.329  10.179   5.994 -0.1021  0.0697  0.2225
  736MOL0     O97055   5.193  10.190   6.010  0.0949 -0.1729 -0.1332
  736MOL0     C97056   5.125  10.119   5.902  0.0624 -0.1507 -1.1185
  736MOL0     C97057   4.991  10.173   5.899  0.1576  0.5501  0.5356
  736MOL0     C97058   5.003  10.316   5.846  0.0636 -0.1060 -0.5793
  736MOL0     C97059   4.864  10.387   5.832  0.8594 -0.5685 -0.2088
  736MOL0     C97060   4.870  10.532   5.785  0.0664 -0.3708 -0.0751
  736MOL0     C97061   4.739  10.564   5.713  0.5106 -0.1335  0.1834
  736MOL0     C97062   4.693  10.707   5.727 -0.1028 -0.2190  0.3783
  736MOL0     C97063   4.554  10.740   5.662  0.2873  0.1019 -0.4980
  736MOL0    Cl97064   4.488  10.897   5.737  0.1746 -0.6710  0.3145
  736MOL0     C97065   5.395  10.306   5.998  1.2247 -0.4708 -0.4775
  736MOL0     C97066   5.534  10.317   5.983 -0.7099 -0.1332  0.0046
  736MOL0     O97067   5.817  10.408   5.958  0.1191  0.2073 -0.3990
  736MOL0     C97068   6.093  10.330   5.976 -0.2160  0.6801  0.2293
  736MOL0     C97069   6.222  10.284   5.972 -0.7190 -0.5892  0.1250
  736MOL0     N97070   6.776   9.982   5.958 -0.0446  1.2085  0.1600
  736MOL0     N97071   6.765   9.908   6.067  0.4002 -0.2448 -0.7926
  736MOL0     C97072   7.868  10.030   6.447 -0.4392 -0.6684  0.1073
  736MOL0     C97073   7.989  10.033   6.519  0.0499 -0.2713  0.4358
  736MOL0     C97074   8.416   9.903   6.665 -0.0439 -0.8942 -0.1688
  736MOL0     C97075   8.399  10.014   6.751  0.0942  0.3117 -0.5252
  736MOL0     C97076   8.486  10.032   6.853 -0.2471 -0.0637  0.0227
  736MOL0     C97077   8.578   9.926   6.890 -0.6385  0.2241 -0.3334
  736MOL0     O97078   8.668   9.920   6.993  0.2116 -0.2716  0.2248
  736MOL0     C97079   8.656  10.016   7.100  0.0238  0.2142 -0.4777
  736MOL0     C97080   8.753   9.998   7.218 -0.4756  0.6174 -0.1143
  736MOL0     C97081   8.748  10.109   7.319  0.3794  0.1828 -0.9267
  736MOL0     C97082   8.816  10.057   7.446 -0.7807  0.0301  0.1980
  736MOL0     C97083   8.775  10.126   7.564 -0.0077 -0.5338  0.3647
  736MOL0     C97084   8.741  10.183   7.664 -0.5470 -0.1317 -0.9803
  736MOL0     C97085   8.597   9.808   6.802 -0.4587 -0.6769 -0.3175
  736MOL0     C97086   8.515   9.805   6.691  0.2584 -0.8035  0.5640
  736MOL0     H97087   8.145   9.771   6.357 -0.7678 -2.3108 -0.3422
  736MOL0     H97088   7.931   9.771   6.250 -4.2111  1.6787 -0.4041
  736MOL0     H97089   7.743   9.716   6.294 -1.8886 -1.3815  0.9032
  736MOL0     H97090   7.661   9.779   6.145 -2.6781  0.4424  1.0241
  736MOL0     H97091   7.576   9.754   6.434 -1.1696  2.9978  0.3451
  736MOL0     H97092   7.505   9.662   6.294 -1.1222 -0.9548  0.5793
  736MOL0     H97093   7.438   9.902   6.202  1.5345 -1.6835 -0.5693
  736MOL0     H97094   7.441   9.956   6.357 -0.8587  1.5568 -1.2108
  736MOL0     H97095   7.275   9.722   6.249  4.4053  0.3013 -0.5138
  736MOL0     H97096   7.285   9.750   6.416  1.1510  1.5538 -0.2119
  736MOL0     H97097   7.164   9.945   6.209 -0.6467 -1.7421 -0.7344
  736MOL0     H97098   7.207   9.994   6.371  3.4346 -2.3028  1.7377
  736MOL0     H97099   7.060   9.776   6.430 -0.1159  0.0759 -0.8657
  736MOL0     H97100   6.992   9.792   6.259 -1.0262 -0.7889  0.1413
  736MOL0     H97101   6.920   9.945   6.488 -0.7445  0.4825 -0.5248
  736MOL0     H97102   6.977  10.043   6.357  0.1939  0.1724 -0.1127
  736MOL0     H97103   6.728   9.985   6.374  1.6320 -1.3945  2.7628
  736MOL0     H97104   6.779   9.830   6.304  0.5709 -0.2567  1.0296
  736MOL0     H97105   6.865  10.198   6.178  2.7495  0.5739 -1.9993
  736MOL0     H97106   6.782  10.185   5.776  0.9700 -0.5334  0.1665
  736MOL0     H97107   6.906  10.271   5.878  1.7505 -1.7672  0.9860
  736MOL0     H97108   6.712  10.417   5.866 -0.3731 -0.5571  0.8371
  736MOL0     H97109   6.695  10.346   6.016 -0.8500 -1.1355  0.6579
  736MOL0     H97110   6.479  10.338   5.832 -2.6064 -0.7783  3.0030
  736MOL0     H97111   6.562  10.203   5.774  0.0671  0.1958 -0.1258
  736MOL0     H97112   6.447  10.249   6.059 -1.2652 -0.5532 -0.7371
  736MOL0     H97113   6.569  10.124   6.023  0.9958  1.1178 -0.3044
  736MOL0     H97114   6.165   9.951   5.899  0.1972 -0.7671  0.4045
  736MOL0     H97115   5.939  10.029   5.918  0.7322 -0.1512  0.0557
  736MOL0     H97116   5.586   9.986   5.917 -0.7489 -1.1658  1.1791
  736MOL0     H97117   5.344   9.972   5.976 -1.8657  0.3121  0.4079
  736MOL0     H97118   5.119  10.011   5.919  0.4424 -0.3514 -2.1627
  736MOL0     H97119   5.163  10.127   5.800 -0.4388  1.9475 -1.1840
  736MOL0     H97120   4.945  10.171   5.998  4.0798 -0.7396  2.5498
  736MOL0     H97121   4.936  10.120   5.822  0.5887  0.3478  0.3594
  736MOL0     H97122   5.050  10.319   5.747  1.7430  1.2789  0.2143
  736MOL0     H97123   5.063  10.380   5.912 -2.0967  1.5529 -0.0951
  736MOL0     H97124   4.818  10.326   5.754  1.5996  0.4800 -1.5024
  736MOL0     H97125   4.797  10.383   5.918 -1.3811  3.2366 -1.5538
  736MOL0     H97126   4.956  10.560   5.722 -0.8509  0.8916 -0.7950
  736MOL0     H97127   4.880  10.587   5.879 -0.5950  1.1887 -0.8817
  736MOL0     H97128   4.666  10.497   5.759 -0.4189  0.8617  0.1942
  736MOL0     H97129   4.744  10.546   5.605  0.3942  0.5284  0.0614
  736MOL0     H97130   4.694  10.726   5.835 -1.4897  1.5680  0.1024
  736MOL0     H97131   4.760  10.781   5.682 -0.3148 -1.7974 -2.8037
  736MOL0     H97132   4.495  10.652   5.687  4.2260 -2.8599 -0.7756
  736MOL0     H97133   4.560  10.744   5.553 -0.0384  1.8790 -0.4973
  736MOL0     H97134   5.339  10.395   6.027 -0.6171 -1.9956  0.9257
  736MOL0     H97135   5.595  10.403   6.007  2.0539 -2.1212  0.6158
  736MOL0     H97136   6.084  10.436   5.998  3.2348  0.9200  1.0846
  736MOL0     H97137   6.295  10.361   5.996 -0.7151 -0.0590 -1.4814
  736MOL0     H97138   7.787  10.098   6.471 -0.2581  1.2652 -3.8438
  736MOL0     H97139   8.014  10.100   6.602 -1.5656 -2.1971  2.5971
  736MOL0     H97140   8.328  10.095   6.734 -1.0004 -0.8084 -1.4390
  736MOL0     H97141   8.487  10.116   6.921 -4.1400 -0.4658  0.8077
  736MOL0     H97142   8.557  10.010   7.147 -0.1726 -3.8431 -1.0377
  736MOL0     H97143   8.677  10.112   7.053  1.0003 -0.6429 -1.8589
  736MOL0     H97144   8.729   9.900   7.259 -0.7483  1.5305  2.0043
  736MOL0     H97145   8.857   9.992   7.185 -0.5734 -3.4674 -0.0948
  736MOL0     H97146   8.642  10.126   7.343  0.5699 -1.6946  1.5947
  736MOL0     H97147   8.786  10.209   7.299 -0.0120  1.1726  2.7075
  736MOL0     H97148   8.799   9.951   7.464 -0.2274 -0.2076 -0.6238
  736MOL0     H97149   8.924  10.070   7.439 -0.8543 -0.0816 -1.9170
  736MOL0     H97150   8.702  10.209   7.761  3.3501 -2.6332  1.5615
  736MOL0     H97151   8.667   9.725   6.811  2.2677  0.8509 -4.7311
  736MOL0     H97152   8.530   9.726   6.618 -3.1688 -1.6076  0.5999
  737MOL0     O97153   8.708  10.238   6.520  0.8992  0.5202 -0.0787
  737MOL0     C97154   8.595  10.205   6.471 -0.4940  0.3935  0.1251
  737MOL0     O97155   8.574  10.095   6.390 -0.5041  0.6320 -0.4657
  737MOL0     C97156   8.678  10.053   6.306  0.4150  0.9150  0.9197
  737MOL0     C97157   8.768  10.153   6.257  0.1381  0.1774 -0.2167
  737MOL0     C97158   8.859  10.108   6.158  0.4936  0.3754 -0.2003
  737MOL0     C97159   8.854   9.977   6.112  0.9988  0.2082 -0.1249
  737MOL0     O97160   8.943   9.937   6.025 -0.2490 -0.2952 -0.0289
  737MOL0     C97161   8.890   9.880   5.892 -0.1965  0.6861 -1.1286
  737MOL0     C97162   8.932   9.959   5.772 -0.5118 -0.5127  0.2059
  737MOL0     C97163   8.851  10.094   5.747 -0.5935 -0.0068  0.3856
  737MOL0     C97164   8.865  10.150   5.601 -0.6949  1.2200  0.3961
  737MOL0     C97165   8.775  10.263   5.562  1.0313 -1.0443  0.0597
  737MOL0     C97166   8.784  10.301   5.415 -0.8245  0.5073 -0.4317
  737MOL0     C97167   8.685  10.411   5.375  0.6734 -0.0260  0.0866
  737MOL0     C97168   8.534  10.385   5.405  1.0141 -0.2912 -0.0251
  737MOL0     N97169   8.436  10.458   5.320  0.4853 -0.9663  0.6313
  737MOL0     C97170   8.325  10.401   5.264 -0.0277  0.6522 -0.1382
  737MOL0     C97171   8.274  10.499   5.179  0.8043  0.6677  0.0981
  737MOL0     C97172   8.143  10.485   5.109 -0.0796  1.3389  0.3057
  737MOL0     C97173   8.063  10.611   5.156 -0.1402  0.7541  0.8499
  737MOL0     C97174   8.018  10.580   5.302 -0.5112 -0.3059 -0.2902
  737MOL0     C97175   7.908  10.667   5.352  0.0722 -0.9035 -0.4208
  737MOL0     O97176   7.811  10.606   5.431 -0.2829 -0.3368 -0.0525
  737MOL0     C97177   7.706  10.685   5.479  0.2397 -0.2645 -0.0573
  737MOL0     C97178   7.677  10.670   5.615  0.0465 -0.7169  0.2559
  737MOL0     C97179   7.561  10.736   5.666 -0.1490 -0.2169 -0.2951
  737MOL0     C97180   7.492  10.839   5.589  0.0385  0.2643 -0.3558
  737MOL0     C97181   7.385  10.909   5.643  1.0861  0.0730 -0.0380
  737MOL0     O97182   7.307  10.980   5.558  0.1347 -0.6582 -0.2932
  737MOL0     C97183   7.195  11.043   5.611  1.0569 -0.3588 -0.1839
  737MOL0     C97184   7.203  11.172   5.675  0.0387  0.1677  1.3296
  737MOL0     C97185   7.088  11.233   5.717 -0.1525 -0.1060  0.0755
  737MOL0     C97186   6.964  11.184   5.699  0.3274  0.0940  0.4282
  737MOL0     O97187   6.857  11.267   5.736  0.5577  0.7305  0.2587
  737MOL0     C97188   6.735  11.198   5.774  0.2082 -0.5018  0.0693
  737MOL0     C97189   6.632  11.295   5.829  0.5658 -0.0565 -0.0842
  737MOL0     C97190   6.617  11.426   5.749 -0.2828  0.0779  0.1840
  737MOL0     C97191   6.516  11.531   5.798 -0.3796  0.4844 -0.6413
  737MOL0     C97192   6.530  11.654   5.713  0.5099  0.4685 -0.0759
  737MOL0     C97193   6.419  11.756   5.745 -0.6951  0.5134 -0.9996
  737MOL0     C97194   6.468  11.897   5.694  0.3384 -0.6772  0.1817
  737MOL0     C97195   6.358  12.015   5.717 -0.1105 -0.7987  1.1173
  737MOL0    Cl97196   6.215  11.989   5.604 -0.2626 -0.1163 -0.5163
  737MOL0     C97197   6.943  11.063   5.622 -0.0851 -0.1981 -0.4542
  737MOL0     C97198   7.065  10.995   5.584  0.1561  0.0348  0.2526
  737MOL0     O97199   7.372  10.916   5.765 -0.1882  0.4433  0.5588
  737MOL0     C97200   7.536  10.852   5.459  1.4559 -0.2377 -0.5539
  737MOL0     C97201   7.627  10.774   5.407 -0.3166  0.6832  0.2443
  737MOL0     N97202   8.358  10.610   5.185  1.0961  0.5227 -0.0370
  737MOL0     N97203   8.453  10.585   5.263  0.3598  0.2154 -0.2588
  737MOL0     C97204   8.758   9.885   6.153 -0.5225  0.9464 -0.3699
  737MOL0     C97205   8.677   9.922   6.263  0.4086  0.9284  0.0008
  737MOL0     C97206   8.462  10.260   6.522 -0.0620 -0.6858  0.9334
  737MOL0     C97207   8.464  10.326   6.642  0.2427 -0.4419 -0.1664
  737MOL0     C97208   8.344  10.376   6.705  0.2932 -0.0492  0.4140
  737MOL0     C97209   8.229  10.344   6.638  0.2553  0.2343  0.2446
  737MOL0     O97210   8.114  10.373   6.711  0.0411  0.1225  0.2451
  737MOL0     C97211   8.058  10.509   6.687 -0.7711  1.0339 -0.7064
  737MOL0     C97212   7.932  10.522   6.600 -0.1080  0.3160  0.4479
  737MOL0     C97213   7.831  10.411   6.617 -0.2663  0.4121  0.2772
  737MOL0     C97214   7.717  10.426   6.521  0.2429  0.4176 -0.5029
  737MOL0     C97215   7.618  10.535   6.552 -0.3819  0.2609 -0.1709
  737MOL0     C97216   7.523  10.617   6.550 -0.3880 -1.1197  0.7766
  737MOL0     C97217   8.230  10.286   6.512  0.2272  0.9580 -0.1428
  737MOL0     C97218   8.346  10.245   6.453 -0.0679  0.1614  0.3263
  737MOL0     H97219   8.781  10.251   6.303 -2.4277 -0.0764  1.2163
  737MOL0     H97220   8.923  10.183   6.114  2.2795  0.5015  2.3933
  737MOL0     H97221   8.783   9.861   5.887  0.1973 -2.0418 -0.6138
  737MOL0     H97222   8.933   9.779   5.894 -4.0058 -1.2324  3.6667
  737MOL0     H97223   8.916   9.895   5.685  2.1938  0.2788 -0.9692
  737MOL0     H97224   9.039   9.982   5.767 -0.6137  0.4278  1.7461
  737MOL0     H97225   8.868  10.173   5.821 -2.8365  2.2621 -1.3495
  737MOL0     H97226   8.744  10.078   5.762 -0.6377 -1.2778 -1.0967
  737MOL0     H97227   8.970  10.176   5.581 -0.3301 -0.9117 -0.8343
  737MOL0     H97228   8.853  10.062   5.537  1.3167  2.2250 -1.5305
  737MOL0     H97229   8.797  10.346   5.631  0.4263 -3.2609  3.1562
  737MOL0     H97230   8.669  10.240   5.578  0.4110  0.9770 -0.7618
  737MOL0     H97231   8.748  10.218   5.354 -0.3793 -0.2147  0.2640
  737MOL0     H97232   8.885  10.330   5.384  0.1206 -1.8754  0.2491
  737MOL0     H97233   8.713  10.499   5.434 -1.0295  0.9107 -0.4372
  737MOL0     H97234   8.703  10.427   5.268  1.4203 -0.7160  0.1024
  737MOL0     H97235   8.515  10.417   5.508  0.1517  1.4524 -0.6879
  737MOL0     H97236   8.512  10.278   5.400  0.9425 -0.2157 -2.4674
  737MOL0     H97237   8.295  10.300   5.287  0.5588  0.4702 -0.1839
  737MOL0     H97238   8.094  10.389   5.127 -0.0812  0.4980 -3.2891
  737MOL0     H97239   8.155  10.498   5.001 -1.2152  0.1199  0.0081
  737MOL0     H97240   7.969  10.619   5.101  0.0945  1.0922  0.4921
  737MOL0     H97241   8.118  10.704   5.142  0.2813  0.2187 -1.5136
  737MOL0     H97242   7.989  10.475   5.315 -2.5314  0.2477  0.1015
  737MOL0     H97243   8.105  10.613   5.360  1.0349 -0.1825 -2.5274
  737MOL0     H97244   7.873  10.710   5.257  2.2793 -0.1757 -0.9688
  737MOL0     H97245   7.944  10.761   5.396 -1.4132  0.0057 -1.0312
  737MOL0     H97246   7.745  10.603   5.667  1.6071 -0.1147 -0.9132
  737MOL0     H97247   7.525  10.703   5.763  0.6415  0.0286  0.0865
  737MOL0     H97248   7.300  11.212   5.700 -0.0268 -0.0132  1.8936
  737MOL0     H97249   7.092  11.327   5.771 -0.6723  1.8505 -3.0374
  737MOL0     H97250   6.753  11.126   5.854  1.8603  1.3632  1.4976
  737MOL0     H97251   6.704  11.153   5.679  1.6314  2.5488 -2.0524
  737MOL0     H97252   6.663  11.324   5.929  2.0662 -1.1396 -0.1928
  737MOL0     H97253   6.531  11.254   5.822 -0.1310  1.7686 -1.6325
  737MOL0     H97254   6.600  11.405   5.643  1.2597  3.5366 -0.9088
  737MOL0     H97255   6.714  11.475   5.755  0.3878 -1.3505  1.9301
  737MOL0     H97256   6.419  11.480   5.802  1.2466 -2.8222  0.5177
  737MOL0     H97257   6.548  11.558   5.898  2.0166 -0.6415 -1.0355
  737MOL0     H97258   6.513  11.632   5.607  0.1421  0.1171  0.0544
  737MOL0     H97259   6.630  11.698   5.720  1.4137 -1.3080 -1.2971
  737MOL0     H97260   6.395  11.769   5.851  3.4502  0.3985  0.1252
  737MOL0     H97261   6.322  11.731   5.701 -1.7924  0.4591  1.3358
  737MOL0     H97262   6.552  11.916   5.762 -1.9848  2.0044  2.5949
  737MOL0     H97263   6.496  11.893   5.589  3.0333  3.1119  0.5342
  737MOL0     H97264   6.398  12.117   5.715 -0.2723 -0.7355  1.0834
  737MOL0     H97265   6.313  12.014   5.817 -0.3966  1.9462  1.0961
  737MOL0     H97266   6.847  11.031   5.581 -0.0291 -0.8412 -0.1022
  737MOL0     H97267   7.054  10.904   5.526  2.4317  0.1246 -0.3889
  737MOL0     H97268   7.489  10.922   5.391  1.6741 -0.0814 -0.5426
  737MOL0     H97269   7.656  10.788   5.303  0.0913  3.0966  0.6230
  737MOL0     H97270   8.748   9.787   6.107 -2.7354  1.1202 -0.3712
  737MOL0     H97271   8.601   9.850   6.294  0.5535  1.0470  0.6333
  737MOL0     H97272   8.554  10.355   6.696 -0.3280  0.7917  0.1571
  737MOL0     H97273   8.337  10.426   6.802 -0.7034  0.2829  0.1796
  737MOL0     H97274   8.137  10.578   6.657  1.3285 -1.4105 -1.1614
  737MOL0     H97275   8.022  10.540   6.785 -3.8034  0.0217 -1.3843
  737MOL0     H97276   7.884  10.619   6.620 -0.7453 -0.3805  2.5395
  737MOL0     H97277   7.954  10.523   6.493  0.9177  0.5148  0.6476
  737MOL0     H97278   7.806  10.403   6.723  2.9363  2.6539  1.3656
  737MOL0     H97279   7.879  10.315   6.596 -1.8255 -0.7597  1.8061
  737MOL0     H97280   7.744  10.434   6.416  0.6491 -1.9244 -0.6354
  737MOL0     H97281   7.659  10.333   6.528  0.0859  0.4737 -1.0311
  737MOL0     H97282   7.452  10.696   6.544 -0.4430 -1.0376  2.1861
  737MOL0     H97283   8.132  10.260   6.471 -0.0664  1.8903 -0.0554
  737MOL0     H97284   8.333  10.206   6.353 -1.4939  0.4680  0.3749
  738MOL0     O97285  10.335   8.003  10.113 -0.3053 -0.2634  0.0486
  738MOL0     C97286  10.319   8.104  10.054 -0.0979 -0.8546  0.0853
  738MOL0     O97287  10.238   8.204  10.085 -0.0361  0.3206  0.0480
  738MOL0     C97288  10.154   8.201  10.195 -0.8623 -0.0236 -0.0824
  738MOL0     C97289  10.193   8.169  10.322 -0.2155 -0.5167 -0.5741
  738MOL0     C97290  10.096   8.147  10.429 -0.2031  0.1031  0.6510
  738MOL0     C97291   9.963   8.162  10.403  0.1121 -0.2615 -0.0930
  738MOL0     O97292   9.880   8.134  10.507 -0.5912 -0.3182 -0.1075
  738MOL0     C97293   9.738   8.147  10.491 -0.1198 -0.9591 -0.1497
  738MOL0     C97294   9.694   8.154  10.633  0.3254  0.1452  0.0470
  738MOL0     C97295   9.543   8.188  10.634  0.3813 -0.1256 -0.1937
  738MOL0     C97296   9.468   8.175  10.763  0.7409  0.2127 -0.2635
  738MOL0     C97297   9.341   8.263  10.767  0.5800 -0.7792  0.7043
  738MOL0     C97298   9.226   8.224  10.676 -0.3171 -0.6380  0.0419
  738MOL0     C97299   9.149   8.109  10.740  0.0616 -0.6144 -0.0043
  738MOL0     C97300   9.038   8.064  10.646 -0.6062  0.1036  0.6234
  738MOL0     N97301   9.083   7.979  10.537  0.2904 -0.2044 -0.1117
  738MOL0     C97302   9.146   7.861  10.527 -0.5797  0.3597 -0.6996
  738MOL0     C97303   9.154   7.816  10.401 -0.1705 -0.7294 -1.0805
  738MOL0     C97304   9.227   7.694  10.352  0.4426 -0.3284 -0.0561
  738MOL0     C97305   9.161   7.612  10.250 -0.0869  0.8990 -0.0863
  738MOL0     C97306   9.043   7.527  10.302  0.0889  0.1337  0.3144
  738MOL0     C97307   8.911   7.613  10.318 -1.0466  0.5575 -0.0591
  738MOL0     O97308   8.792   7.531  10.286 -0.1438  0.4473 -0.0025
  738MOL0     C97309   8.677   7.596  10.251 -0.3834  0.9861 -0.1943
  738MOL0     C97310   8.572   7.511  10.235 -0.5315 -0.3301  0.4807
  738MOL0     C97311   8.456   7.559  10.185  0.4266  0.5191 -0.4970
  738MOL0     C97312   8.417   7.694  10.193  0.3104 -0.2488  0.7320
  738MOL0     C97313   8.275   7.739  10.187  0.1376 -0.0342 -0.1356
  738MOL0     O97314   8.181   7.641  10.164  0.2171 -0.3681  0.4485
  738MOL0     C97315   8.052   7.663  10.196  0.3465 -0.4551 -0.2201
  738MOL0     C97316   7.959   7.651  10.088  0.0916 -0.8126  0.1113
  738MOL0     C97317   7.830   7.701  10.105 -0.2300  0.0480 -0.0922
  738MOL0     C97318   7.779   7.744  10.226  0.3083 -0.4037 -0.7330
  738MOL0     O97319   7.641   7.770  10.238 -0.4739 -0.1988  0.4884
  738MOL0     C97320   7.591   7.809  10.362  0.3799 -0.1206 -0.5724
  738MOL0     C97321   7.439   7.841  10.356  0.5209 -1.2735  0.4012
  738MOL0     C97322   7.369   7.806  10.479  0.2148  0.1362 -0.3698
  738MOL0     C97323   7.237   7.868  10.486  0.5244 -1.3841  0.1086
  738MOL0     C97324   7.163   7.842  10.612 -0.0997  0.1351 -0.6080
  738MOL0     C97325   7.015   7.907  10.616 -0.6245  0.7566  0.2227
  738MOL0     C97326   6.902   7.807  10.572 -0.3595  0.2482  0.8776
  738MOL0     C97327   6.768   7.873  10.564 -0.7732 -0.4891 -0.0015
  738MOL0    Cl97328   6.704   7.930  10.724  0.4924  0.1461  0.2687
  738MOL0     C97329   7.872   7.759  10.326 -0.5129 -0.7158 -0.5041
  738MOL0     C97330   8.003   7.721  10.311 -0.2841  0.0874  0.5798
  738MOL0     O97331   8.259   7.860  10.211  0.3479  0.4773 -0.3893
  738MOL0     C97332   8.523   7.789  10.215  0.1265 -0.0299 -0.5261
  738MOL0     C97333   8.648   7.736  10.244  0.4596  0.2672  0.4210
  738MOL0     N97334   9.095   7.916  10.329 -0.0759  0.3679 -0.1039
  738MOL0     N97335   9.047   8.007  10.404  0.1882 -0.4234  0.7033
  738MOL0     C97336   9.919   8.200  10.280 -0.8650  0.7840  0.3732
  738MOL0     C97337  10.011   8.215  10.178 -0.1757  0.0520 -0.2336
  738MOL0     C97338  10.405   8.125   9.928  0.1716 -0.7677 -0.2806
  738MOL0     C97339  10.506   8.032   9.889  0.0494 -0.2041  0.6107
  738MOL0     C97340  10.581   8.069   9.775  0.0837  0.4159  0.1049
  738MOL0     C97341  10.568   8.189   9.711 -0.1082  0.6048 -0.9214
  738MOL0     O97342  10.630   8.216   9.590 -0.6742 -0.4565  1.0962
  738MOL0     C97343  10.770   8.204   9.584 -0.2612  0.0679  0.9271
  738MOL0     C97344  10.827   8.301   9.476 -0.3861  0.2330 -0.5881
  738MOL0     C97345  10.979   8.296   9.480  0.6383  0.3759 -0.8565
  738MOL0     C97346  11.051   8.390   9.380 -0.3534  0.6707  0.2438
  738MOL0     C97347  11.059   8.313   9.257 -0.3882  0.0701 -0.7854
  738MOL0     C97348  11.058   8.245   9.155  0.4367 -0.0330 -0.5380
  738MOL0     C97349  10.468   8.281   9.752 -0.2599  0.8210 -0.3398
  738MOL0     C97350  10.397   8.254   9.866 -0.1405  0.3527 -0.3301
  738MOL0     H97351  10.299   8.150  10.335 -0.7102 -1.6399  2.8724
  738MOL0     H97352  10.116   8.104  10.527 -0.5391 -2.1175 -0.1904
  738MOL0     H97353   9.691   8.057  10.451  1.4900 -1.4697 -0.9535
  738MOL0     H97354   9.705   8.234  10.433 -1.2221 -2.0263 -1.1934
  738MOL0     H97355   9.749   8.231  10.687  0.0917 -0.1778  0.7616
  738MOL0     H97356   9.704   8.058  10.684  1.3046  1.2775  2.1183
  738MOL0     H97357   9.488   8.119  10.569  2.2774 -3.6564  1.6090
  738MOL0     H97358   9.535   8.290  10.597 -0.3773 -0.8044 -2.0361
  738MOL0     H97359   9.455   8.068  10.777 -0.4722  0.4330  0.4017
  738MOL0     H97360   9.527   8.220  10.844  0.0329  0.7889 -0.0627
  738MOL0     H97361   9.369   8.369  10.763  1.4875 -1.0502 -1.2012
  738MOL0     H97362   9.309   8.253  10.871  2.9649 -2.0210  1.3989
  738MOL0     H97363   9.264   8.187  10.581  0.5183 -0.0115  0.1211
  738MOL0     H97364   9.155   8.307  10.668 -0.5264 -0.9636 -2.1766
  738MOL0     H97365   9.214   8.022  10.753 -0.5872 -0.9560  1.0119
  738MOL0     H97366   9.114   8.127  10.842 -1.0748 -3.1790  0.1245
  738MOL0     H97367   8.979   8.151  10.616  0.9382  0.5233 -1.4539
  738MOL0     H97368   8.962   8.006  10.699 -1.7342  1.4317  0.4920
  738MOL0     H97369   9.191   7.802  10.606 -2.1811  0.0033 -0.0234
  738MOL0     H97370   9.249   7.625  10.434  0.0915  0.1573  0.4474
  738MOL0     H97371   9.323   7.727  10.311  1.8389 -0.4349  2.8461
  738MOL0     H97372   9.234   7.541  10.211  1.7049  1.4771  2.0415
  738MOL0     H97373   9.138   7.678  10.165 -1.2196 -0.9688 -1.2985
  738MOL0     H97374   9.026   7.451  10.224  0.4217  2.2028 -1.9032
  738MOL0     H97375   9.076   7.477  10.394 -0.7436  1.2462  1.2379
  738MOL0     H97376   8.924   7.694  10.246 -1.5874  0.5633 -0.1530
  738MOL0     H97377   8.912   7.664  10.414 -0.3605 -0.8636  0.7303
  738MOL0     H97378   8.590   7.408  10.262 -0.9264 -0.6838 -0.5377
  738MOL0     H97379   8.376   7.492  10.157  0.1281  1.1003 -1.0740
  738MOL0     H97380   7.993   7.616   9.992  0.7354  1.1995 -0.4416
  738MOL0     H97381   7.758   7.700  10.023  0.7084  0.4293 -0.9431
  738MOL0     H97382   7.647   7.889  10.411  0.4840 -0.1910 -0.5758
  738MOL0     H97383   7.606   7.721  10.425  1.5154  0.6032  0.1847
  738MOL0     H97384   7.397   7.790  10.269 -0.5832  3.4617 -2.1950
  738MOL0     H97385   7.432   7.948  10.332 -0.6234 -2.1281 -4.0715
  738MOL0     H97386   7.429   7.852  10.558 -0.5156  1.3903 -0.5267
  738MOL0     H97387   7.358   7.699  10.497  1.6243 -0.1874 -1.2955
  738MOL0     H97388   7.245   7.977  10.483  1.1864 -1.4142  0.7593
  738MOL0     H97389   7.174   7.833  10.404  0.6102  0.2223 -0.6838
  738MOL0     H97390   7.216   7.899  10.689 -3.5473  1.9571  0.6685
  738MOL0     H97391   7.150   7.739  10.646 -0.8150  0.3704 -0.1284
  738MOL0     H97392   7.019   7.997  10.554  2.2685  0.7065  0.2022
  738MOL0     H97393   7.011   7.942  10.720  1.0856  1.0668  0.2218
  738MOL0     H97394   6.931   7.761  10.477 -1.3569  0.1947  0.5902
  738MOL0     H97395   6.882   7.725  10.643  1.2125 -0.5321  0.4731
  738MOL0     H97396   6.692   7.803  10.526  0.0643 -2.4825  1.7789
  738MOL0     H97397   6.769   7.954  10.490 -0.7044 -0.4063  0.0911
  738MOL0     H97398   7.847   7.783  10.429 -0.1374 -1.0124 -0.3435
  738MOL0     H97399   8.075   7.731  10.391  0.8336 -1.0801 -0.2515
  738MOL0     H97400   8.514   7.897  10.205  1.8873  0.1358 -0.7760
  738MOL0     H97401   8.730   7.807  10.250  2.1071 -1.2633 -1.9457
  738MOL0     H97402   9.815   8.205  10.250  0.0180  0.4248 -3.1128
  738MOL0     H97403   9.989   8.247  10.077  3.1399 -0.2512 -1.1828
  738MOL0     H97404  10.533   7.944   9.946  0.8397  0.5143  1.3829
  738MOL0     H97405  10.660   7.998   9.751 -0.1058 -0.1453  1.0934
  738MOL0     H97406  10.796   8.100   9.566 -1.1081 -0.2002  1.1826
  738MOL0     H97407  10.809   8.229   9.683  0.7524 -1.1034  0.8458
  738MOL0     H97408  10.788   8.269   9.379 -1.8380  2.6948 -0.9202
  738MOL0     H97409  10.796   8.406   9.487  3.2544  1.2473  1.5791
  738MOL0     H97410  10.999   8.190   9.461 -2.1168 -1.0100  2.7759
  738MOL0     H97411  11.031   8.314   9.575  1.6775 -0.1545 -1.3125
  738MOL0     H97412  11.007   8.487   9.355 -0.5569 -0.0101 -2.2582
  738MOL0     H97413  11.153   8.405   9.417 -0.2637  4.5346 -1.1251
  738MOL0     H97414  11.032   8.181   9.074 -5.0273  0.6412  0.3110
  738MOL0     H97415  10.446   8.369   9.693 -0.5986 -1.0861 -3.2642
  738MOL0     H97416  10.324   8.330   9.893 -1.1928 -0.6231 -0.3846
  739MOL0     O97417   7.913  10.923   3.076  0.1186  0.1446 -0.0744
  739MOL0     C97418   7.965  10.816   3.097  0.9006  0.0750  0.5682
  739MOL0     O97419   8.100  10.803   3.092 -0.0636 -0.2387  0.5426
  739MOL0     C97420   8.188  10.886   3.016  0.8984 -0.5804 -0.5188
  739MOL0     C97421   8.287  10.951   3.078  0.7945  0.1027  0.4695
  739MOL0     C97422   8.363  11.046   3.008  0.0459  0.0529  0.5967
  739MOL0     C97423   8.357  11.049   2.871 -0.1616 -0.2874 -0.2806
  739MOL0     O97424   8.433  11.132   2.791  0.3645  0.4130  0.1965
  739MOL0     C97425   8.552  11.196   2.845  0.4789  0.2122 -0.3375
  739MOL0     C97426   8.615  11.289   2.738  0.3567  0.5163  0.3240
  739MOL0     C97427   8.750  11.350   2.776 -0.3604 -0.2554  0.2398
  739MOL0     C97428   8.799  11.448   2.674  0.9435 -0.4036 -1.4109
  739MOL0     C97429   8.700  11.564   2.652  0.4914 -0.6066  0.9758
  739MOL0     C97430   8.680  11.657   2.778  0.6263 -0.7047 -0.3226
  739MOL0     C97431   8.607  11.782   2.747 -0.5045 -0.0760 -0.2454
  739MOL0     C97432   8.609  11.890   2.851 -0.1922  0.1489 -0.2697
  739MOL0     N97433   8.567  11.839   2.985  0.3181  0.0073  0.4312
  739MOL0     C97434   8.442  11.807   3.020  0.7367  0.1971  0.0273
  739MOL0     C97435   8.440  11.784   3.153  0.7640  0.3231  0.6119
  739MOL0     C97436   8.320  11.753   3.237 -0.9424 -0.6460  0.1985
  739MOL0     C97437   8.333  11.786   3.381  0.3075 -0.4920 -0.6519
  739MOL0     C97438   8.197  11.796   3.455  0.6246  0.9866 -0.0529
  739MOL0     C97439   8.113  11.661   3.473  0.3479  0.2305 -0.2712
  739MOL0     O97440   7.975  11.687   3.484  0.1869 -0.6247 -0.0278
  739MOL0     C97441   7.890  11.584   3.477 -0.0310 -0.2163 -0.4026
  739MOL0     C97442   7.755  11.610   3.448  0.0896  0.6837  0.4674
  739MOL0     C97443   7.658  11.509   3.462  0.3472 -0.0730  0.5625
  739MOL0     C97444   7.699  11.377   3.506  0.3162 -0.0267 -0.0876
  739MOL0     C97445   7.605  11.261   3.504 -0.0127  0.0533  0.2654
  739MOL0     O97446   7.616  11.163   3.598  0.4480  0.5308 -0.0122
  739MOL0     C97447   7.517  11.064   3.600  0.2981  0.1059 -0.7640
  739MOL0     C97448   7.447  11.049   3.715 -0.6530  0.9003 -0.2836
  739MOL0     C97449   7.333  10.967   3.717 -0.1647  0.1846 -0.0412
  739MOL0     C97450   7.287  10.892   3.601 -0.2862 -0.3468 -1.0713
  739MOL0     O97451   7.183  10.811   3.596 -0.1555  0.7589 -0.2495
  739MOL0     C97452   7.102  10.797   3.716 -0.2420 -0.1238  0.0587
  739MOL0     C97453   7.004  10.679   3.693 -0.5180  0.4778 -0.1407
  739MOL0     C97454   6.899  10.688   3.796  0.4887 -0.0072 -1.2942
  739MOL0     C97455   6.785  10.595   3.764 -0.7362 -0.2192  0.0336
  739MOL0     C97456   6.673  10.607   3.869  0.1999 -0.4455  0.1339
  739MOL0     C97457   6.567  10.492   3.875 -1.0810 -0.4927 -0.3581
  739MOL0     C97458   6.451  10.523   3.975 -0.2466  0.9079 -0.1972
  739MOL0     C97459   6.365  10.633   3.925 -0.1731 -0.3691  0.7382
  739MOL0    Cl97460   6.273  10.581   3.795 -0.3507  0.0136  0.0790
  739MOL0     C97461   7.369  10.910   3.490  1.0135  0.0406 -0.8891
  739MOL0     C97462   7.476  11.004   3.487  0.1887 -0.1718 -0.0550
  739MOL0     O97463   7.513  11.274   3.427  0.1388 -0.0253  0.0472
  739MOL0     C97464   7.833  11.362   3.532 -0.8926  0.9206 -0.3178
  739MOL0     C97465   7.927  11.462   3.532  0.1578  0.7857  0.2963
  739MOL0     N97466   8.563  11.810   3.200 -0.9608  0.9263 -0.0496
  739MOL0     N97467   8.642  11.843   3.100  0.8435  0.6312  0.2410
  739MOL0     C97468   8.254  10.981   2.813  0.0900  1.1752  0.3949
  739MOL0     C97469   8.165  10.894   2.887  0.5227 -0.8490 -0.9167
  739MOL0     C97470   7.883  10.707   3.138  0.1298  0.3240 -0.4513
  739MOL0     C97471   7.934  10.584   3.174  0.5020 -0.1535 -0.0273
  739MOL0     C97472   7.847  10.474   3.209  0.0175  0.2701  0.2483
  739MOL0     C97473   7.709  10.488   3.193  0.6010 -0.3249 -0.4276
  739MOL0     O97474   7.635  10.380   3.220 -0.7553 -0.1753 -0.2698
  739MOL0     C97475   7.512  10.359   3.150  0.2875 -0.8439  1.2617
  739MOL0     C97476   7.444  10.224   3.165  0.6715 -0.2868  0.3652
  739MOL0     C97477   7.409  10.198   3.309 -0.5480  0.7767 -0.2765
  739MOL0     C97478   7.294  10.103   3.319  0.2639  0.1678 -0.9133
  739MOL0     C97479   7.163  10.173   3.303 -0.1243 -0.4391 -0.1820
  739MOL0     C97480   7.062  10.244   3.288 -0.7328 -0.8903 -0.7398
  739MOL0     C97481   7.655  10.609   3.149  0.1059  0.7062  0.0250
  739MOL0     C97482   7.741  10.715   3.121 -0.4117 -0.8771  0.0391
  739MOL0     H97483   8.290  10.942   3.186 -2.4060 -2.7947  0.5134
  739MOL0     H97484   8.442  11.100   3.059  0.7791  0.4689 -0.9237
  739MOL0     H97485   8.618  11.116   2.879 -0.0195  0.5465  1.5609
  739MOL0     H97486   8.518  11.263   2.925 -0.8161 -0.1462 -0.5615
  739MOL0     H97487   8.552  11.376   2.716  1.4313  1.4820  0.9717
  739MOL0     H97488   8.624  11.228   2.647  2.2950  0.7296  0.3306
  739MOL0     H97489   8.818  11.266   2.792 -0.9694 -1.2758 -2.1635
  739MOL0     H97490   8.741  11.405   2.870 -1.6396 -0.0791  0.0418
  739MOL0     H97491   8.891  11.486   2.718 -0.4807  0.2868  1.1945
  739MOL0     H97492   8.821  11.396   2.580  1.0560 -0.0003 -1.6116
  739MOL0     H97493   8.604  11.542   2.605  0.8166  0.9690 -0.5372
  739MOL0     H97494   8.738  11.629   2.572 -2.8455  0.0944 -0.2398
  739MOL0     H97495   8.781  11.685   2.812  0.9575  0.8003 -2.3506
  739MOL0     H97496   8.621  11.600   2.850 -0.4377 -2.3387 -2.4170
  739MOL0     H97497   8.660  11.811   2.655  1.9441 -3.4947 -0.1023
  739MOL0     H97498   8.504  11.750   2.729 -0.4073  0.1095 -1.2191
  739MOL0     H97499   8.533  11.962   2.821 -1.6430  0.1602  2.9808
  739MOL0     H97500   8.710  11.932   2.862 -0.7121  1.3228  0.1638
  739MOL0     H97501   8.363  11.805   2.946  0.9432  0.5279 -0.2049
  739MOL0     H97502   8.294  11.646   3.229  1.1679 -1.0903 -1.7261
  739MOL0     H97503   8.236  11.804   3.189  0.0468 -1.6419 -2.8230
  739MOL0     H97504   8.384  11.883   3.389  1.0987 -1.0113  1.0011
  739MOL0     H97505   8.385  11.705   3.433 -1.6737 -0.9578  0.7507
  739MOL0     H97506   8.225  11.840   3.551  0.0709  1.9650 -0.3150
  739MOL0     H97507   8.127  11.862   3.402 -1.4750 -2.2414 -1.6021
  739MOL0     H97508   8.162  11.623   3.564  1.4359 -1.4354 -1.4900
  739MOL0     H97509   8.135  11.591   3.392  0.2919 -0.2427  0.1162
  739MOL0     H97510   7.730  11.711   3.416 -0.4663  0.1539 -0.8404
  739MOL0     H97511   7.553  11.521   3.440  0.3314  0.0897  0.7295
  739MOL0     H97512   7.472  11.099   3.809  2.1364  0.9748 -0.9606
  739MOL0     H97513   7.278  10.959   3.811  0.6179 -3.5722  0.2706
  739MOL0     H97514   7.045  10.889   3.731  0.4608  0.4653 -0.7480
  739MOL0     H97515   7.165  10.778   3.803  1.0533  0.9591 -0.5957
  739MOL0     H97516   7.059  10.584   3.695 -2.0264 -0.4868 -1.4895
  739MOL0     H97517   6.961  10.696   3.593  0.5783  0.6604 -0.5898
  739MOL0     H97518   6.855  10.789   3.793  1.8921  0.6712 -5.5454
  739MOL0     H97519   6.934  10.672   3.899 -1.8454 -3.2197 -0.8334
  739MOL0     H97520   6.743  10.626   3.668 -1.6095  0.2108  0.5457
  739MOL0     H97521   6.823  10.493   3.757 -0.3650 -0.0645 -0.2843
  739MOL0     H97522   6.624  10.703   3.853 -4.2578 -2.7296 -1.5411
  739MOL0     H97523   6.719  10.611   3.968  0.4060  0.8631  0.0072
  739MOL0     H97524   6.623  10.406   3.913 -0.5321  0.0717  0.1263
  739MOL0     H97525   6.533  10.469   3.774  1.3793  1.3452 -1.6981
  739MOL0     H97526   6.394  10.432   3.996 -3.1084  2.1510 -1.9736
  739MOL0     H97527   6.498  10.546   4.071  5.4916 -0.4182 -2.2542
  739MOL0     H97528   6.410  10.729   3.899 -2.5018  0.5284 -0.1948
  739MOL0     H97529   6.297  10.670   4.003 -0.3781 -0.1762  0.4708
  739MOL0     H97530   7.342  10.843   3.409 -0.9614 -1.6468  1.0605
  739MOL0     H97531   7.525  11.023   3.392  2.4012 -0.2677  1.0179
  739MOL0     H97532   7.870  11.265   3.564  0.8164  0.3530 -3.5824
  739MOL0     H97533   8.027  11.445   3.571  0.0326  0.2972  0.4170
  739MOL0     H97534   8.249  10.992   2.705  1.2722 -1.4663  0.0055
  739MOL0     H97535   8.091  10.830   2.841  1.1824 -0.0306 -3.2271
  739MOL0     H97536   8.040  10.561   3.168  0.5976 -0.7086  2.5606
  739MOL0     H97537   7.893  10.382   3.242 -1.6342 -0.1994  1.3678
  739MOL0     H97538   7.521  10.364   3.041  1.5613 -2.1654  1.2736
  739MOL0     H97539   7.440  10.438   3.171  0.3300 -0.3296 -0.3843
  739MOL0     H97540   7.352  10.231   3.107  0.4647  6.4485  0.6969
  739MOL0     H97541   7.503  10.145   3.119  1.9707 -0.7332  2.6157
  739MOL0     H97542   7.391  10.291   3.364  1.9542  0.9601  0.3761
  739MOL0     H97543   7.498  10.157   3.357  0.5058  3.4144  0.2199
  739MOL0     H97544   7.312  10.022   3.248  2.7289 -0.7349  0.6368
  739MOL0     H97545   7.299  10.061   3.420 -0.6498  0.0480 -0.9048
  739MOL0     H97546   6.975  10.305   3.302  2.2642  3.1739  3.1903
  739MOL0     H97547   7.548  10.627   3.143 -0.2448 -1.5443 -1.3788
  739MOL0     H97548   7.697  10.812   3.100 -0.7372 -0.1150  3.4957
  740MOL0     O97549   5.856   9.967   4.566  0.3646  0.2750  0.2435
  740MOL0     C97550   5.934   9.874   4.605  0.7203 -0.4272 -0.6827
  740MOL0     O97551   5.890   9.766   4.680  0.3530 -0.2439 -0.6742
  740MOL0     C97552   5.759   9.743   4.723  0.6822  0.1210  0.9989
  740MOL0     C97553   5.644   9.831   4.730 -0.1907 -1.0604  0.7683
  740MOL0     C97554   5.522   9.790   4.777  0.0162  0.1875 -0.0793
  740MOL0     C97555   5.494   9.659   4.825 -0.4054  0.1830 -0.8314
  740MOL0     O97556   5.366   9.637   4.870 -0.3802 -0.4584 -0.0596
  740MOL0     C97557   5.320   9.500   4.873 -0.4604  0.1042 -0.1126
  740MOL0     C97558   5.175   9.495   4.907  0.9740  0.6651 -0.1382
  740MOL0     C97559   5.116   9.349   4.893 -0.1182  0.2624  0.0552
  740MOL0     C97560   4.974   9.325   4.944  0.2286 -0.1643  0.1979
  740MOL0     C97561   4.857   9.411   4.900  0.2746 -0.8192  0.1080
  740MOL0     C97562   4.871   9.419   4.750  0.3435  0.1201 -0.3157
  740MOL0     C97563   4.739   9.464   4.691 -0.0715 -0.0162  0.9115
  740MOL0     C97564   4.698   9.596   4.745 -0.7829  0.7658  0.4495
  740MOL0     N97565   4.580   9.644   4.681  0.8398 -0.1744 -0.1943
  740MOL0     C97566   4.448   9.612   4.728 -0.0086  0.1316 -0.6511
  740MOL0     C97567   4.360   9.686   4.648 -0.6773 -0.6302  0.5119
  740MOL0     C97568   4.214   9.675   4.646 -0.2124 -0.3133  0.2038
  740MOL0     C97569   4.154   9.568   4.546  0.5900  0.3725  0.4708
  740MOL0     C97570   4.171   9.631   4.402 -0.3894 -0.1532  0.4260
  740MOL0     C97571   4.118   9.530   4.294  0.0196  0.2380 -0.3944
  740MOL0     O97572   3.979   9.493   4.314 -0.0876  0.5667  0.7492
  740MOL0     C97573   3.893   9.511   4.208  0.0464 -0.8053 -0.3174
  740MOL0     C97574   3.927   9.511   4.074 -0.1050  0.4019  0.4577
  740MOL0     C97575   3.830   9.540   3.971 -0.2723 -0.0658 -0.8402
  740MOL0     C97576   3.700   9.554   4.005  1.0784  0.2598  0.2492
  740MOL0     C97577   3.593   9.581   3.905  0.2695 -0.2596  0.4957
  740MOL0     O97578   3.462   9.560   3.947 -0.2650 -0.3100 -0.0289
  740MOL0     C97579   3.352   9.631   3.895  0.3871  0.1447  0.3641
  740MOL0     C97580   3.357   9.768   3.861 -0.5520  0.4298  0.1981
  740MOL0     C97581   3.238   9.834   3.824 -0.2430  0.3148  0.6242
  740MOL0     C97582   3.122   9.761   3.808  0.6062  0.2520  0.2515
  740MOL0     O97583   3.019   9.835   3.761  0.5807  0.4436 -0.0011
  740MOL0     C97584   2.901   9.765   3.725  0.0716  0.2927 -0.6719
  740MOL0     C97585   2.816   9.845   3.617  0.5170 -0.0169 -0.3231
  740MOL0     C97586   2.691   9.766   3.595 -0.8126  0.4001 -0.3766
  740MOL0     C97587   2.589   9.854   3.515  0.2399  0.1057  1.1253
  740MOL0     C97588   2.444   9.802   3.533  0.1735 -0.4786  0.0780
  740MOL0     C97589   2.344   9.900   3.475 -0.2586 -0.5998 -0.3557
  740MOL0     C97590   2.353   9.906   3.325 -0.5628 -0.5586  0.6907
  740MOL0     C97591   2.347   9.776   3.241  0.0538 -0.0832 -0.8155
  740MOL0    Cl97592   2.406   9.816   3.076 -0.1200 -0.6012  0.1150
  740MOL0     C97593   3.115   9.629   3.848 -0.6552 -0.5840 -0.3155
  740MOL0     C97594   3.231   9.567   3.894  0.2700 -0.4691  0.3211
  740MOL0     O97595   3.622   9.616   3.793  0.4912  0.4299 -0.1557
  740MOL0     C97596   3.664   9.542   4.142  0.3863  0.6788 -0.1345
  740MOL0     C97597   3.757   9.517   4.240  0.2573 -0.0067 -0.8327
  740MOL0     N97598   4.434   9.768   4.571 -0.8532  0.1336  0.4071
  740MOL0     N97599   4.565   9.745   4.590  0.3764  0.1835  0.7880
  740MOL0     C97600   5.608   9.571   4.829 -0.1888  0.1591  0.2235
  740MOL0     C97601   5.738   9.618   4.783 -0.1639 -0.9932 -0.6867
  740MOL0     C97602   6.080   9.873   4.576  0.2834 -0.1057 -0.5103
  740MOL0     C97603   6.148   9.752   4.596  0.3681 -0.5406  0.4940
  740MOL0     C97604   6.283   9.752   4.580  0.2698 -0.6414  0.5698
  740MOL0     C97605   6.345   9.872   4.532 -0.2510  1.1894  0.6974
  740MOL0     O97606   6.478   9.863   4.505  0.7074 -0.1716  0.4131
  740MOL0     C97607   6.548   9.933   4.610 -0.2027 -0.2389  0.6153
  740MOL0     C97608   6.623  10.051   4.563 -0.6632  0.0031 -0.4814
  740MOL0     C97609   6.729  10.021   4.456 -0.6538  0.1475  0.5574
  740MOL0     C97610   6.861   9.985   4.519 -0.1361 -0.2259  0.0575
  740MOL0     C97611   6.973   9.990   4.424  0.4242  0.5200  0.0218
  740MOL0     C97612   7.064   9.973   4.350 -0.9075  0.5236 -0.1750
  740MOL0     C97613   6.280   9.990   4.512  0.2516 -0.6545  0.6466
  740MOL0     C97614   6.147   9.992   4.543 -0.0290  0.3932  0.5820
  740MOL0     H97615   5.653   9.930   4.687 -3.0609 -0.0022  2.3651
  740MOL0     H97616   5.446   9.867   4.780 -0.6474 -0.4080 -1.0759
  740MOL0     H97617   5.373   9.445   4.951 -0.8009  0.5041  0.4072
  740MOL0     H97618   5.337   9.455   4.775 -3.2676  2.1540 -1.6932
  740MOL0     H97619   5.124   9.571   4.848 -0.3744 -1.0787 -1.3505
  740MOL0     H97620   5.169   9.522   5.013  2.1816  0.4883 -0.0090
  740MOL0     H97621   5.173   9.292   4.967 -0.7005 -0.6323 -0.1710
  740MOL0     H97622   5.118   9.307   4.792 -2.5045 -0.2559  0.1565
  740MOL0     H97623   4.955   9.221   4.915 -0.2817  0.0161 -0.1211
  740MOL0     H97624   4.971   9.328   5.053 -1.5969 -1.3681  0.2196
  740MOL0     H97625   4.852   9.505   4.955 -3.9105 -0.9947  0.3359
  740MOL0     H97626   4.760   9.369   4.929  1.0288 -0.9761  2.6232
  740MOL0     H97627   4.890   9.316   4.717  0.6812  0.0842 -0.0221
  740MOL0     H97628   4.955   9.486   4.727  1.6139 -0.5429  2.0112
  740MOL0     H97629   4.742   9.471   4.581  2.9527 -0.1479  0.8886
  740MOL0     H97630   4.665   9.390   4.722 -1.9097  1.1505 -0.4789
  740MOL0     H97631   4.781   9.664   4.726  0.2005 -1.4376 -4.3835
  740MOL0     H97632   4.672   9.594   4.852  1.2070  1.1576  0.9888
  740MOL0     H97633   4.426   9.545   4.811  0.0485  0.9257  0.0247
  740MOL0     H97634   4.174   9.775   4.629 -0.0773 -0.8964 -6.0625
  740MOL0     H97635   4.189   9.646   4.748 -1.7845 -0.3006 -0.1542
  740MOL0     H97636   4.049   9.543   4.563  0.7281 -0.3568  0.3074
  740MOL0     H97637   4.207   9.472   4.557  1.2190  0.9841  4.1480
  740MOL0     H97638   4.120   9.728   4.399  1.3607  0.8425  1.1373
  740MOL0     H97639   4.277   9.646   4.381 -1.1080  0.6306 -3.4947
  740MOL0     H97640   4.177   9.439   4.300  0.9692  0.6862 -2.0859
  740MOL0     H97641   4.130   9.579   4.197 -4.9325 -0.9698 -1.9104
  740MOL0     H97642   4.028   9.487   4.042  0.2869  1.4618  0.8405
  740MOL0     H97643   3.856   9.549   3.865  0.8350  2.1726 -0.4357
  740MOL0     H97644   3.456   9.813   3.857 -1.6742  3.1369  0.8109
  740MOL0     H97645   3.260   9.939   3.809  0.0212  0.5904  2.6525
  740MOL0     H97646   2.839   9.749   3.813 -2.6841  2.1541 -2.1181
  740MOL0     H97647   2.930   9.667   3.687  1.0191  0.1006  0.4867
  740MOL0     H97648   2.873   9.865   3.525  1.1332 -0.6185 -0.0757
  740MOL0     H97649   2.791   9.944   3.656  0.3471  0.2692 -1.1315
  740MOL0     H97650   2.663   9.743   3.699 -2.5134  3.4949 -0.0128
  740MOL0     H97651   2.724   9.683   3.533  2.1841  0.1524  1.3714
  740MOL0     H97652   2.601   9.956   3.555  0.4654  1.3011 -1.7612
  740MOL0     H97653   2.619   9.864   3.411 -0.8154  0.4828  0.8448
  740MOL0     H97654   2.431   9.786   3.640 -0.1499  2.2926  0.5208
  740MOL0     H97655   2.438   9.709   3.475  1.1217  0.6503 -1.9182
  740MOL0     H97656   2.364   9.999   3.516 -1.6193  0.4501 -2.0577
  740MOL0     H97657   2.242   9.871   3.503  0.5570 -0.0818  3.7267
  740MOL0     H97658   2.269   9.963   3.286 -0.5247 -1.0263 -0.1097
  740MOL0     H97659   2.445   9.961   3.304 -1.8292  2.2751  2.0035
  740MOL0     H97660   2.247   9.733   3.230  0.2360 -0.2718 -1.8610
  740MOL0     H97661   2.420   9.703   3.279  0.6090  0.2958 -1.1444
  740MOL0     H97662   3.025   9.570   3.860 -0.4915 -1.1155 -1.6003
  740MOL0     H97663   3.221   9.466   3.931 -2.3171 -0.9145 -1.3020
  740MOL0     H97664   3.559   9.537   4.171  0.7811 -1.4473  1.1914
  740MOL0     H97665   3.714   9.494   4.337  0.5707  2.9315  0.1302
  740MOL0     H97666   5.593   9.470   4.866  0.0118 -0.0134 -0.1735
  740MOL0     H97667   5.822   9.548   4.783 -0.2750 -1.1347 -1.4280
  740MOL0     H97668   6.108   9.657   4.632  2.1771 -0.4638  2.9906
  740MOL0     H97669   6.331   9.655   4.587 -0.5267 -1.1068 -0.2287
  740MOL0     H97670   6.617   9.865   4.659  3.0271  0.9502 -1.8621
  740MOL0     H97671   6.486   9.963   4.695 -1.3345  1.1040 -0.6079
  740MOL0     H97672   6.551  10.121   4.519  2.4131  3.8749  0.1786
  740MOL0     H97673   6.668  10.104   4.647 -2.6182  1.3750 -0.2410
  740MOL0     H97674   6.749  10.104   4.388  2.5059 -0.7900  0.1961
  740MOL0     H97675   6.707   9.942   4.384  0.9777 -0.3224  0.5403
  740MOL0     H97676   6.886  10.042   4.609 -0.8269  0.4547 -0.1650
  740MOL0     H97677   6.838   9.888   4.566  0.9584  0.4666  2.1522
  740MOL0     H97678   7.145   9.947   4.285 -0.8409 -1.3589  0.5853
  740MOL0     H97679   6.321  10.079   4.466 -1.7905 -0.6067 -1.1975
  740MOL0     H97680   6.089  10.084   4.549  1.2634  1.5706 -2.5408
  741MOL0     O97681   2.502   0.759  10.281  0.1275  0.2894  0.7404
  741MOL0     C97682   2.511   0.783  10.395  0.0139 -0.5014  0.2366
  741MOL0     O97683   2.424   0.771  10.486  0.3830  0.1596  0.2863
  741MOL0     C97684   2.312   0.699  10.463 -0.2208  0.5064 -0.2943
  741MOL0     C97685   2.218   0.716  10.562 -0.0850 -1.1401  0.0996
  741MOL0     C97686   2.093   0.651  10.568  0.2023  1.1012  0.4112
  741MOL0     C97687   2.067   0.539  10.476  0.2421  0.1277 -0.5599
  741MOL0     O97688   1.958   0.465  10.486  0.8524 -0.3280  0.0353
  741MOL0     C97689   1.956   0.317  10.470  0.2961 -0.3678 -0.5162
  741MOL0     C97690   1.858   0.261  10.350 -0.0581 -0.3988  0.3616
  741MOL0     C97691   1.703   0.274  10.375  0.2594  0.7703  0.3537
  741MOL0     C97692   1.612   0.184  10.288 -0.0213  0.3887 -0.2964
  741MOL0     C97693   1.465   0.221  10.287  0.3785  1.0948 -0.1530
  741MOL0     C97694   1.379   0.111  10.210  0.0767  0.3852 -0.2088
  741MOL0     C97695   1.224   0.143  10.203  0.0437 -0.1373  0.3057
  741MOL0     C97696   1.155   0.052  10.107  0.4609 -0.5015 -0.4704
  741MOL0     N97697   1.033   0.124  10.080  0.2055  0.2685  0.4185
  741MOL0     C97698   0.927   0.156  10.172 -0.2760 -0.5666 -0.2258
  741MOL0     C97699   0.818   0.197  10.097 -0.1057 -0.1899 -0.1524
  741MOL0     C97700   0.684   0.238  10.148 -0.1601  0.2262 -0.9440
  741MOL0     C97701   0.606   0.115  10.193 -0.0457  1.5657 -0.6363
  741MOL0     C97702   0.467   0.148  10.235  0.8896 -0.4836  0.7085
  741MOL0     C97703   0.388   0.034  10.292  0.0057  0.0322  0.4342
  741MOL0     O97704   0.266   0.072  10.350  0.1999  0.1120 -0.2202
  741MOL0     C97705   0.180   0.127  10.263 -0.2041  0.6893  0.0638
  741MOL0     C97706   0.118   0.053  10.160  0.7051 -0.5222  0.3253
  741MOL0     C97707   0.043   0.119  10.064  0.3654  0.6156 -0.5931
  741MOL0     C97708  -0.006   0.246  10.089  1.2628 -0.0919  0.8151
  741MOL0     C97709  -0.124   0.287  10.000 -0.1448 -0.3526  0.3364
  741MOL0     O97710  -0.159   0.198   9.903  0.8773 -0.1433  0.4426
  741MOL0     C97711  -0.278   0.207   9.837  0.0326 -0.1354 -0.6150
  741MOL0     C97712  -0.403   0.186   9.903 -0.2447  0.0970  0.0733
  741MOL0     C97713  -0.523   0.190   9.827 -0.4648 -0.5420  0.6172
  741MOL0     C97714  -0.516   0.215   9.691  0.9472 -0.6988 -0.4434
  741MOL0     O97715  -0.639   0.214   9.634  0.1451 -0.2499  0.2610
  741MOL0     C97716  -0.656   0.187   9.497 -0.7939 -0.2235 -0.6915
  741MOL0     C97717  -0.802   0.156   9.479  0.3138  0.0619  0.3281
  741MOL0     C97718  -0.836   0.010   9.549 -0.4856  0.0722 -0.0224
  741MOL0     C97719  -0.967  -0.044   9.490 -0.0793 -0.8813 -0.2490
  741MOL0     C97720  -1.004  -0.178   9.555  0.5249  0.0211 -0.0574
  741MOL0     C97721  -0.914  -0.302   9.514  1.1363  0.7680 -0.1742
  741MOL0     C97722  -0.971  -0.447   9.533  0.0852 -0.1456 -0.0388
  741MOL0     C97723  -0.993  -0.480   9.680 -0.0576 -0.1726 -0.5485
  741MOL0    Cl97724  -0.849  -0.422   9.776  0.0341  0.1797  0.0476
  741MOL0     C97725  -0.390   0.226   9.636  0.1868 -0.2294  0.3050
  741MOL0     C97726  -0.273   0.220   9.703  0.0892 -0.6214  0.3594
  741MOL0     O97727  -0.180   0.398  10.026 -0.0489  0.4999 -0.7466
  741MOL0     C97728   0.045   0.320  10.200 -0.0897  0.1484 -0.4271
  741MOL0     C97729   0.143   0.263  10.280  0.2283  0.7218 -0.4684
  741MOL0     N97730   0.861   0.195   9.967 -0.4198  0.2144  0.2765
  741MOL0     N97731   0.982   0.162   9.954 -1.4056 -0.2987  0.7122
  741MOL0     C97732   2.166   0.514  10.378  0.6849 -0.7724  0.0722
  741MOL0     C97733   2.282   0.596  10.370  0.8899  0.2973 -0.1099
  741MOL0     C97734   2.631   0.843  10.446 -0.3377 -0.0556 -0.4740
  741MOL0     C97735   2.746   0.874  10.363 -0.6837  0.1103 -0.2772
  741MOL0     C97736   2.866   0.922  10.415 -0.3922  0.1703 -0.5879
  741MOL0     C97737   2.892   0.942  10.550  0.6361 -0.5583 -0.2329
  741MOL0     O97738   3.012   0.994  10.590  0.6884  0.0024 -0.1103
  741MOL0     C97739   3.013   1.065  10.717  0.3706 -0.5682  0.1479
  741MOL0     C97740   3.158   1.089  10.757  0.2979  0.4939 -0.2264
  741MOL0     C97741   3.236   1.180  10.674 -0.6024  0.3059 -0.4803
  741MOL0     C97742   3.347   1.106  10.597 -0.3891 -0.4079  0.7386
  741MOL0     C97743   3.459   1.078  10.680 -0.4492 -0.1961  0.0190
  741MOL0     C97744   3.557   1.068  10.747 -0.5126  0.1984  0.7358
  741MOL0     C97745   2.779   0.919  10.628  0.5520  0.4390 -0.9251
  741MOL0     C97746   2.657   0.877  10.578  1.1958  0.4579 -0.4339
  741MOL0     H97747   2.250   0.780  10.644  2.6148 -2.3913  0.1094
  741MOL0     H97748   2.020   0.664  10.646  2.2192 -0.0667  2.6254
  741MOL0     H97749   1.926   0.280  10.568 -0.6782  0.0217 -0.6577
  741MOL0     H97750   2.053   0.273  10.446  0.2629 -1.5616  1.3321
  741MOL0     H97751   1.873   0.153  10.354 -0.1969 -0.4552 -0.4205
  741MOL0     H97752   1.882   0.297  10.249  0.2321  1.5277  1.0652
  741MOL0     H97753   1.673   0.376  10.348 -0.3149  0.5968  0.3146
  741MOL0     H97754   1.674   0.247  10.477 -0.8989 -0.5138 -0.2755
  741MOL0     H97755   1.641   0.198  10.183  0.3346  3.6683  0.1589
  741MOL0     H97756   1.618   0.078  10.315 -0.1127  0.4305 -0.1120
  741MOL0     H97757   1.454   0.314  10.231 -3.2220  0.5656 -0.5392
  741MOL0     H97758   1.415   0.235  10.383 -0.3038 -1.1877 -0.1068
  741MOL0     H97759   1.388   0.028  10.281 -0.8594  1.5515  1.3504
  741MOL0     H97760   1.426   0.078  10.117  3.4653 -2.0805  2.0817
  741MOL0     H97761   1.185   0.120  10.303  0.6608 -0.0710  0.5631
  741MOL0     H97762   1.200   0.246  10.174 -1.1255 -0.0601  1.4161
  741MOL0     H97763   1.136  -0.044  10.155 -3.2289 -0.6125 -1.8833
  741MOL0     H97764   1.210   0.048  10.012  0.6271  0.4594 -0.4252
  741MOL0     H97765   0.925   0.150  10.280  0.7040  2.7842  0.0898
  741MOL0     H97766   0.623   0.284  10.070 -1.7596 -1.4683 -0.7676
  741MOL0     H97767   0.702   0.312  10.226  4.2936 -0.0694 -1.4250
  741MOL0     H97768   0.666   0.067  10.271  0.6128  3.5022  0.1175
  741MOL0     H97769   0.608   0.043  10.111  3.9893 -0.3794  0.9142
  741MOL0     H97770   0.472   0.228  10.309 -0.5262  1.1106 -0.8506
  741MOL0     H97771   0.415   0.202  10.156 -0.0026 -2.0866  0.1446
  741MOL0     H97772   0.449  -0.003  10.375  2.4587  1.1846 -0.7665
  741MOL0     H97773   0.383  -0.053  10.225  2.2030  0.0382  0.1937
  741MOL0     H97774   0.139  -0.052  10.140  1.0325 -0.0396 -2.1773
  741MOL0     H97775   0.009   0.061   9.980  0.3434 -2.7490  1.5483
  741MOL0     H97776  -0.414   0.164  10.009  2.0808  0.2812  0.3841
  741MOL0     H97777  -0.618   0.173   9.876 -0.9203  2.4418  0.9373
  741MOL0     H97778  -0.600   0.103   9.454  0.8420  0.0570  0.7785
  741MOL0     H97779  -0.614   0.272   9.443  0.1621 -1.2593 -1.6245
  741MOL0     H97780  -0.827   0.149   9.373 -1.2836  0.5166  0.6461
  741MOL0     H97781  -0.866   0.235   9.520  1.1725  2.1910 -2.1851
  741MOL0     H97782  -0.840   0.031   9.656  2.3346  1.2914 -0.0659
  741MOL0     H97783  -0.761  -0.066   9.525 -0.3184  0.0415  0.5832
  741MOL0     H97784  -1.053   0.020   9.510 -0.5976 -0.2110 -3.9182
  741MOL0     H97785  -0.958  -0.065   9.383  0.4834 -0.8792 -0.2068
  741MOL0     H97786  -1.106  -0.189   9.519  0.4188  1.5774 -0.3260
  741MOL0     H97787  -1.009  -0.183   9.664  0.6936 -1.7277 -0.1133
  741MOL0     H97788  -0.818  -0.285   9.564  0.4946  0.6867  1.1477
  741MOL0     H97789  -0.894  -0.297   9.407 -0.0697  1.2835 -0.3876
  741MOL0     H97790  -1.072  -0.458   9.493 -0.3712  0.0980  1.0142
  741MOL0     H97791  -0.902  -0.519   9.487 -1.8868  0.1006 -3.7621
  741MOL0     H97792  -1.019  -0.583   9.702 -2.2142  0.7243  1.4748
  741MOL0     H97793  -1.089  -0.432   9.702 -0.6108  0.4317 -3.8124
  741MOL0     H97794  -0.380   0.244   9.530  1.0179 -0.7806  0.2849
  741MOL0     H97795  -0.175   0.219   9.657  0.8778  0.1998  1.9353
  741MOL0     H97796   0.012   0.422  10.215 -0.9074  0.1405 -1.9988
  741MOL0     H97797   0.184   0.327  10.357 -0.1406 -1.0473  1.2900
  741MOL0     H97798   2.155   0.434  10.305 -1.1917  0.2297 -0.8110
  741MOL0     H97799   2.351   0.577  10.288 -1.7156 -3.3913 -1.7523
  741MOL0     H97800   2.730   0.857  10.257  0.0665 -0.9654 -0.2407
  741MOL0     H97801   2.955   0.932  10.354  0.1001  0.8702  0.2223
  741MOL0     H97802   2.967   1.013  10.801  0.7975  0.6014  1.1451
  741MOL0     H97803   2.965   1.164  10.712  0.6561 -0.5041 -2.5752
  741MOL0     H97804   3.161   1.142  10.853  0.2387 -0.9551  0.5989
  741MOL0     H97805   3.201   0.989  10.762 -3.4067 -1.3314 -0.7523
  741MOL0     H97806   3.294   1.245  10.740  0.7514 -2.2651  1.0509
  741MOL0     H97807   3.181   1.258  10.621  2.0791  1.6156 -1.4829
  741MOL0     H97808   3.303   1.017  10.550  0.6926  0.1204 -1.4290
  741MOL0     H97809   3.385   1.165  10.513  2.6278 -0.9406  1.6240
  741MOL0     H97810   3.643   1.061  10.810 -0.2619 -0.6862  0.3025
  741MOL0     H97811   2.777   0.945  10.733 -1.7853  0.8599 -1.0219
  741MOL0     H97812   2.580   0.854  10.651  2.2452  0.7571  0.8065
  742MOL0     O97813   7.116   9.853   6.753 -0.4428  0.4544 -0.1471
  742MOL0     C97814   7.188   9.822   6.847 -0.0953  0.7036  0.3316
  742MOL0     O97815   7.174   9.849   6.978  0.5766 -0.0912 -0.0505
  742MOL0     C97816   7.073   9.931   7.022  0.3731 -0.1096  0.0508
  742MOL0     C97817   7.075   9.952   7.160  0.2650 -0.1941 -0.2255
  742MOL0     C97818   6.973  10.019   7.229 -0.1447  1.0357  0.2907
  742MOL0     C97819   6.869  10.081   7.162 -0.2018  0.2566 -0.1650
  742MOL0     O97820   6.777  10.145   7.239 -0.1612 -0.2133  0.1900
  742MOL0     C97821   6.652  10.174   7.176 -0.1490 -0.3406  0.0356
  742MOL0     C97822   6.564  10.246   7.288  0.3222 -0.0363  0.2402
  742MOL0     C97823   6.434  10.305   7.234  0.5200  0.5155  0.1691
  742MOL0     C97824   6.330  10.345   7.346 -0.2177  0.3452 -0.2286
  742MOL0     C97825   6.194  10.376   7.291  0.2457  0.8972  0.6325
  742MOL0     C97826   6.098  10.430   7.399  0.2215  0.8532  0.8495
  742MOL0     C97827   5.962  10.470   7.343  0.4847 -1.3372 -0.6255
  742MOL0     C97828   5.973  10.594   7.254 -0.9015 -0.7676 -0.7785
  742MOL0     N97829   5.839  10.646   7.229 -0.6652  0.7129 -0.5002
  742MOL0     C97830   5.777  10.740   7.315 -0.7173  0.8701  0.4344
  742MOL0     C97831   5.664  10.760   7.241  0.5064  0.9245 -0.2442
  742MOL0     C97832   5.564  10.863   7.287 -0.3764 -0.0702  0.3182
  742MOL0     C97833   5.513  10.840   7.434  0.0894 -0.3483 -0.4840
  742MOL0     C97834   5.447  10.702   7.446  0.4425  0.1956 -0.5785
  742MOL0     C97835   5.333  10.674   7.344  0.9094 -0.1135  0.1099
  742MOL0     O97836   5.279  10.538   7.371 -0.5990 -0.1748 -0.1418
  742MOL0     C97837   5.171  10.501   7.294 -0.1583  0.8661  0.5684
  742MOL0     C97838   5.088  10.590   7.216  0.2187  0.2859 -0.3619
  742MOL0     C97839   4.978  10.540   7.152 -0.1938 -0.0546 -0.0868
  742MOL0     C97840   4.937  10.400   7.166  0.5372 -0.4213 -0.2580
  742MOL0     C97841   4.803  10.360   7.113 -0.0281 -0.6625  0.4581
  742MOL0     O97842   4.758  10.233   7.144  0.3437  0.2622  0.0294
  742MOL0     C97843   4.637  10.186   7.098 -1.2466 -0.8712 -0.1976
  742MOL0     C97844   4.521  10.261   7.114 -0.1880  0.5064  0.1151
  742MOL0     C97845   4.406  10.208   7.054  0.2649 -0.0770 -0.3605
  742MOL0     C97846   4.405  10.092   6.964 -0.6708 -0.4513 -0.8419
  742MOL0     O97847   4.302  10.036   6.901  0.4109  0.7385  0.1252
  742MOL0     C97848   4.171  10.090   6.931  0.3069 -0.2303 -0.4074
  742MOL0     C97849   4.089  10.043   6.813  0.5761  0.1348 -0.4569
  742MOL0     C97850   3.942  10.085   6.829  0.1463  0.2002 -0.4953
  742MOL0     C97851   3.858  10.068   6.702 -0.2719  0.3327  0.7028
  742MOL0     C97852   3.705  10.062   6.721 -0.4709  0.4464 -0.0830
  742MOL0     C97853   3.647  10.186   6.806  0.8466  0.5112  0.1700
  742MOL0     C97854   3.504  10.158   6.852  0.2978 -0.1976 -0.0972
  742MOL0     C97855   3.448  10.289   6.918  0.3917 -0.2792  0.8201
  742MOL0    Cl97856   3.527  10.324   7.068 -0.2807  0.0948  0.5564
  742MOL0     C97857   4.523  10.028   6.957 -1.0899  0.3015 -0.4649
  742MOL0     C97858   4.638  10.070   7.028 -0.0726  0.1599 -0.2416
  742MOL0     O97859   4.749  10.442   7.038  0.6353  0.3996 -0.3280
  742MOL0     C97860   5.008  10.322   7.263  0.0390 -0.3193  0.4171
  742MOL0     C97861   5.128  10.369   7.307 -1.0218  0.5117  0.2399
  742MOL0     N97862   5.657  10.684   7.125  0.0108 -0.3539 -1.0076
  742MOL0     N97863   5.765  10.624   7.113 -1.5716 -0.6998 -0.5723
  742MOL0     C97864   6.865  10.063   7.019 -0.1416  0.3408  0.6380
  742MOL0     C97865   6.961   9.988   6.956  0.0786  0.2607  0.1744
  742MOL0     C97866   7.305   9.741   6.798 -0.7018  0.0444 -0.4392
  742MOL0     C97867   7.313   9.653   6.690 -0.2114  0.6511 -0.3877
  742MOL0     C97868   7.437   9.596   6.654  0.2753  0.0133  0.0646
  742MOL0     C97869   7.558   9.615   6.722 -0.2005  0.2644 -0.7543
  742MOL0     O97870   7.672   9.563   6.666  0.9097 -0.3788  0.6291
  742MOL0     C97871   7.796   9.593   6.732 -0.2146 -0.3553  0.1866
  742MOL0     C97872   7.904   9.544   6.635 -0.5694 -0.2430 -0.2776
  742MOL0     C97873   8.043   9.594   6.691  0.1757 -0.1768  1.4069
  742MOL0     C97874   8.161   9.526   6.611 -0.4619 -0.1163 -0.2530
  742MOL0     C97875   8.168   9.392   6.668 -0.3654 -0.2456 -0.3377
  742MOL0     C97876   8.174   9.289   6.736 -0.3999 -0.3474 -0.8009
  742MOL0     C97877   7.554   9.694   6.836  0.4171  0.5053  0.3506
  742MOL0     C97878   7.428   9.755   6.864 -0.1491  0.0472 -0.3003
  742MOL0     H97879   7.146   9.904   7.225 -0.9648  0.0650  1.3617
  742MOL0     H97880   6.980  10.031   7.337  2.3112 -2.3273  0.6658
  742MOL0     H97881   6.590  10.094   7.134 -2.9044  2.3115 -1.3108
  742MOL0     H97882   6.666  10.244   7.093  1.5100  0.0665  0.6300
  742MOL0     H97883   6.632  10.327   7.316 -0.3648  1.5135 -2.2041
  742MOL0     H97884   6.556  10.182   7.376  0.9694  1.2481  1.2719
  742MOL0     H97885   6.382  10.232   7.171  1.1278  1.2294 -1.2056
  742MOL0     H97886   6.462  10.387   7.168  1.3371 -0.0995 -0.2674
  742MOL0     H97887   6.322  10.268   7.423 -0.4188  0.6178  0.0249
  742MOL0     H97888   6.376  10.434   7.389  3.7951 -0.7101 -1.8577
  742MOL0     H97889   6.158  10.279   7.256  0.7970  1.7547 -2.5882
  742MOL0     H97890   6.213  10.450   7.213  0.4558  2.0537  1.7520
  742MOL0     H97891   6.146  10.511   7.455 -0.4461  0.9616  1.2794
  742MOL0     H97892   6.069  10.348   7.466  0.1384 -0.1885 -0.4192
  742MOL0     H97893   5.924  10.389   7.281 -1.9917 -0.5781 -0.2348
  742MOL0     H97894   5.887  10.486   7.421  0.8542  1.9536 -0.7950
  742MOL0     H97895   6.013  10.566   7.156 -0.5179 -1.8494 -0.3160
  742MOL0     H97896   6.022  10.674   7.311 -3.2968 -0.8969  1.6924
  742MOL0     H97897   5.806  10.771   7.414 -4.1331  0.6255  1.6512
  742MOL0     H97898   5.482  10.867   7.215 -2.2074 -0.8701  2.2463
  742MOL0     H97899   5.616  10.959   7.290  0.9678 -0.7898  1.1077
  742MOL0     H97900   5.441  10.920   7.451 -1.2945 -1.8075  0.8273
  742MOL0     H97901   5.590  10.835   7.512  0.8818  0.5424 -1.1844
  742MOL0     H97902   5.533  10.637   7.430  1.5983  1.5952 -0.2323
  742MOL0     H97903   5.405  10.682   7.545 -0.2311 -0.8180 -1.0572
  742MOL0     H97904   5.375  10.686   7.244 -0.2698  0.6544 -0.3185
  742MOL0     H97905   5.245  10.737   7.358  0.2634 -0.4043 -2.1775
  742MOL0     H97906   5.102  10.697   7.219  0.2010  0.2712  0.3945
  742MOL0     H97907   4.910  10.608   7.102  1.3854  1.5654 -0.1074
  742MOL0     H97908   4.507  10.344   7.182  0.3194 -0.9684  2.1037
  742MOL0     H97909   4.317  10.259   7.089  2.0503  2.3171  0.9684
  742MOL0     H97910   4.172  10.200   6.927 -1.4455 -0.1556  0.2942
  742MOL0     H97911   4.139  10.058   7.030  0.8679 -2.7066 -0.9535
  742MOL0     H97912   4.090   9.934   6.806 -0.6691  0.1509 -1.2097
  742MOL0     H97913   4.133  10.084   6.722 -2.9240  2.3592 -1.3320
  742MOL0     H97914   3.940  10.191   6.854 -1.3195  0.2424 -0.7236
  742MOL0     H97915   3.899  10.030   6.914 -0.0535 -1.3195 -1.5441
  742MOL0     H97916   3.890  10.144   6.631  0.0131 -0.1129  0.3495
  742MOL0     H97917   3.882   9.968   6.665  0.3555 -0.2979  2.6935
  742MOL0     H97918   3.681   9.969   6.772  2.5595 -0.2688  0.2355
  742MOL0     H97919   3.670  10.063   6.618  4.6716  3.1557 -2.2355
  742MOL0     H97920   3.648  10.273   6.739 -0.0152  1.6390  1.5707
  742MOL0     H97921   3.709  10.207   6.894  1.9811  1.0952 -0.7373
  742MOL0     H97922   3.440  10.139   6.765  0.1672 -1.0836  0.1789
  742MOL0     H97923   3.477  10.078   6.921 -0.9605 -0.9917 -1.4596
  742MOL0     H97924   3.339  10.280   6.930  0.0034  1.9612 -0.3752
  742MOL0     H97925   3.453  10.373   6.848 -0.7734 -0.3417  0.6401
  742MOL0     H97926   4.533   9.935   6.900  0.5092  0.7337 -0.9509
  742MOL0     H97927   4.730  10.014   7.013  0.9612  1.7724 -0.1723
  742MOL0     H97928   4.985  10.220   7.294  2.2751 -1.9920 -2.8089
  742MOL0     H97929   5.184  10.300   7.368 -1.3242 -0.6423 -0.7536
  742MOL0     H97930   6.790  10.121   6.967 -2.2489 -1.2124  1.7628
  742MOL0     H97931   6.959   9.986   6.847 -2.3503  3.5129 -0.0151
  742MOL0     H97932   7.221   9.646   6.633 -0.1170 -0.5911 -0.4186
  742MOL0     H97933   7.456   9.556   6.555 -1.0714  0.6508 -0.4772
  742MOL0     H97934   7.801   9.540   6.828 -0.8046  3.3072  2.4127
  742MOL0     H97935   7.805   9.701   6.743  2.1488 -0.0332 -3.3264
  742MOL0     H97936   7.901   9.435   6.621  0.0787  0.0195 -2.8580
  742MOL0     H97937   7.891   9.589   6.536 -0.3589 -1.2750 -0.7915
  742MOL0     H97938   8.049   9.573   6.798  3.6480 -0.7130  1.2213
  742MOL0     H97939   8.052   9.703   6.692 -1.3494  0.0065 -0.5149
  742MOL0     H97940   8.146   9.520   6.503 -2.5796 -2.8569  0.1061
  742MOL0     H97941   8.257   9.571   6.641 -2.1470  0.9024  4.4006
  742MOL0     H97942   8.164   9.199   6.792 -1.1642 -0.6906 -1.4640
  742MOL0     H97943   7.638   9.722   6.899  1.2346  0.1843 -0.5690
  742MOL0     H97944   7.443   9.812   6.955  0.2564 -2.0852  1.0318
  743MOL0     O97945   9.628   8.400   2.962  0.1489  0.0657 -0.2854
  743MOL0     C97946   9.689   8.399   3.071 -0.3568  0.0335  0.0278
  743MOL0     O97947   9.630   8.384   3.197  0.1933 -0.6593 -0.8164
  743MOL0     C97948   9.503   8.332   3.214  0.2575  0.1083 -1.1870
  743MOL0     C97949   9.390   8.409   3.230 -0.3679  0.3184  0.5390
  743MOL0     C97950   9.263   8.354   3.222  0.1248  0.2844 -0.6633
  743MOL0     C97951   9.247   8.211   3.218 -0.4140 -0.4240  0.4453
  743MOL0     O97952   9.117   8.162   3.216  0.0340 -0.9890 -0.1719
  743MOL0     C97953   9.022   8.229   3.300 -0.1924 -0.1906  0.2193
  743MOL0     C97954   8.889   8.155   3.294 -0.2532 -0.1537  0.2480
  743MOL0     C97955   8.794   8.225   3.400  0.4518  0.2035  0.0217
  743MOL0     C97956   8.653   8.171   3.402  0.3998 -0.4635  0.3247
  743MOL0     C97957   8.566   8.213   3.525 -0.0479 -1.2919  0.2062
  743MOL0     C97958   8.454   8.110   3.545 -0.4035 -0.0515 -0.5729
  743MOL0     C97959   8.352   8.123   3.436  0.6036  0.1394 -0.4955
  743MOL0     C97960   8.261   7.996   3.429 -0.4842  0.0624 -0.4600
  743MOL0     N97961   8.161   7.998   3.541  0.0206  0.1791 -0.1805
  743MOL0     C97962   8.068   8.100   3.567  0.0303 -0.3782  0.3660
  743MOL0     C97963   8.023   8.073   3.691 -0.5999  0.0235  0.9576
  743MOL0     C97964   7.921   8.146   3.763  0.3180 -0.0925 -0.4664
  743MOL0     C97965   7.771   8.145   3.716  0.7566 -0.3221  0.6107
  743MOL0     C97966   7.684   8.209   3.833  0.8582  0.4898 -0.2537
  743MOL0     C97967   7.536   8.213   3.784 -0.2348 -0.6302 -1.0152
  743MOL0     O97968   7.463   8.300   3.873 -0.8493 -0.2813  0.3381
  743MOL0     C97969   7.320   8.297   3.852 -0.3581  0.4989  0.1000
  743MOL0     C97970   7.245   8.223   3.759 -0.3834  0.2740 -0.1541
  743MOL0     C97971   7.105   8.224   3.762  0.1650 -0.3798  1.0417
  743MOL0     C97972   7.038   8.311   3.853  0.2903  0.2457 -0.0125
  743MOL0     C97973   6.893   8.320   3.860  0.1306  0.6273  0.8807
  743MOL0     O97974   6.822   8.210   3.814 -0.0848  0.4404 -0.4223
  743MOL0     C97975   6.687   8.222   3.802  0.0996 -0.1248  1.4859
  743MOL0     C97976   6.604   8.230   3.915  0.2268 -0.7895  0.6853
  743MOL0     C97977   6.463   8.244   3.908  0.3240 -0.4737  0.5001
  743MOL0     C97978   6.396   8.241   3.782 -0.0001  0.1812  0.0893
  743MOL0     O97979   6.263   8.272   3.778 -0.1279 -0.4572 -0.3612
  743MOL0     C97980   6.201   8.303   3.648 -0.5707 -0.1954 -0.4238
  743MOL0     C97981   6.057   8.318   3.687 -0.1100  0.1093  0.1400
  743MOL0     C97982   5.949   8.313   3.582 -0.3874 -0.1861  0.1048
  743MOL0     C97983   5.808   8.355   3.645 -0.0047 -0.8751  0.1532
  743MOL0     C97984   5.685   8.340   3.544 -0.4662  0.0310  0.5788
  743MOL0     C97985   5.550   8.378   3.610 -0.1201 -0.1844  0.1626
  743MOL0     C97986   5.426   8.373   3.513  0.6589  0.6060  0.7271
  743MOL0     C97987   5.284   8.368   3.566  0.2280  0.1687 -0.4983
  743MOL0    Cl97988   5.235   8.533   3.606  0.3383  0.2383  0.3073
  743MOL0     C97989   6.478   8.225   3.669  0.8871 -0.5812 -0.1475
  743MOL0     C97990   6.618   8.222   3.677 -0.0077  0.5166  0.1857
  743MOL0     O97991   6.843   8.432   3.880 -0.2457 -0.4985 -0.4745
  743MOL0     C97992   7.117   8.390   3.935 -0.6755  0.3763 -0.2871
  743MOL0     C97993   7.254   8.378   3.939 -0.8705 -0.5017  0.5386
  743MOL0     N97994   8.102   7.970   3.736  1.4223  0.1047  0.2494
  743MOL0     N97995   8.172   7.916   3.644 -0.4637  0.2474 -0.5951
  743MOL0     C97996   9.362   8.134   3.226  0.2093 -0.4171 -0.5225
  743MOL0     C97997   9.485   8.187   3.228 -0.5135 -0.8024  0.4371
  743MOL0     C97998   9.832   8.423   3.054  1.0066 -0.2428  0.3875
  743MOL0     C97999   9.920   8.406   3.160 -0.3429 -0.1969  0.4370
  743MOL0     C98000  10.053   8.439   3.141  0.6796  0.8491 -0.1393
  743MOL0     C98001  10.105   8.481   3.014 -0.4796  0.7484 -0.3501
  743MOL0     O98002  10.235   8.526   3.001  0.2759 -0.3975  0.2147
  743MOL0     C98003  10.338   8.469   3.078 -0.2686  0.6479 -0.4410
  743MOL0     C98004  10.437   8.579   3.117 -0.2999 -0.1588 -0.0557
  743MOL0     C98005  10.550   8.528   3.206  0.6854 -0.2455 -0.0131
  743MOL0     C98006  10.637   8.638   3.246 -0.4699 -1.0338 -0.5998
  743MOL0     C98007  10.758   8.587   3.308 -0.2651 -0.7329 -0.2904
  743MOL0     C98008  10.853   8.521   3.356  0.3270 -0.0923 -0.7928
  743MOL0     C98009  10.014   8.486   2.909  0.3751  0.0256  0.6099
  743MOL0     C98010   9.881   8.453   2.923 -0.1287 -0.0249 -0.2708
  743MOL0     H98011   9.418   8.514   3.231  2.3851 -0.3472  0.1107
  743MOL0     H98012   9.191   8.435   3.214 -1.7872 -1.3295 -0.6825
  743MOL0     H98013   9.011   8.333   3.270 -1.5297 -0.5763 -0.6853
  743MOL0     H98014   9.062   8.232   3.402  0.0090  3.4934  0.1430
  743MOL0     H98015   8.904   8.053   3.330 -2.3178 -0.5015  0.2090
  743MOL0     H98016   8.840   8.167   3.197  0.8773  1.0221 -0.2189
  743MOL0     H98017   8.790   8.333   3.386  2.7037  0.2188 -0.9313
  743MOL0     H98018   8.840   8.212   3.498  0.8499  0.1652 -0.1678
  743MOL0     H98019   8.612   8.213   3.310  1.5770 -0.9190 -0.4293
  743MOL0     H98020   8.647   8.063   3.393  0.1110 -0.6297  2.0975
  743MOL0     H98021   8.532   8.314   3.502 -1.8893 -2.5846 -3.5721
  743MOL0     H98022   8.626   8.218   3.616 -1.1120  2.8138  0.8728
  743MOL0     H98023   8.392   8.121   3.635 -1.9155 -1.5333 -1.3946
  743MOL0     H98024   8.495   8.009   3.554 -0.4479 -0.2772 -2.5713
  743MOL0     H98025   8.294   8.211   3.465 -1.1666 -1.0864 -0.1559
  743MOL0     H98026   8.385   8.141   3.333  0.5076 -0.2407 -0.5951
  743MOL0     H98027   8.322   7.907   3.444 -0.3087  0.0658 -1.0926
  743MOL0     H98028   8.212   7.986   3.331 -0.7001  1.1781 -0.4755
  743MOL0     H98029   8.041   8.179   3.498 -1.3370 -0.0994  1.1701
  743MOL0     H98030   7.946   8.252   3.771 -1.7555  0.3324  1.9931
  743MOL0     H98031   7.921   8.110   3.866 -1.0886  1.6926  0.2105
  743MOL0     H98032   7.743   8.040   3.707 -2.4896  0.1870  3.0878
  743MOL0     H98033   7.745   8.199   3.624  1.3186 -1.3213 -0.1526
  743MOL0     H98034   7.703   8.145   3.919  3.1910 -2.0287 -2.4432
  743MOL0     H98035   7.717   8.311   3.856  0.5662  0.0912  2.2016
  743MOL0     H98036   7.488   8.114   3.788 -1.5961  0.0456  0.0569
  743MOL0     H98037   7.526   8.261   3.687 -1.7487 -1.7764 -1.4600
  743MOL0     H98038   7.286   8.162   3.680 -0.1281  0.2778 -0.0261
  743MOL0     H98039   7.051   8.165   3.688  1.4291  1.4963 -1.5392
  743MOL0     H98040   6.651   8.230   4.013 -0.0045 -4.4896  0.9348
  743MOL0     H98041   6.418   8.261   4.005  3.9604  2.2266  1.9496
  743MOL0     H98042   6.217   8.213   3.587 -0.3435 -2.3337  2.5364
  743MOL0     H98043   6.249   8.388   3.599 -1.3883  1.1220  1.0128
  743MOL0     H98044   6.050   8.412   3.741  2.1744 -0.6270  1.8900
  743MOL0     H98045   6.020   8.239   3.753 -2.5482 -0.0653 -1.3221
  743MOL0     H98046   5.942   8.214   3.535 -0.4726 -0.2173  0.1819
  743MOL0     H98047   5.964   8.393   3.509  0.6097 -1.1111 -0.7401
  743MOL0     H98048   5.799   8.290   3.733 -3.3630  1.4894  1.8080
  743MOL0     H98049   5.813   8.460   3.673 -0.6716 -1.1665  1.4294
  743MOL0     H98050   5.685   8.236   3.511  2.5869 -0.2700  1.2507
  743MOL0     H98051   5.711   8.404   3.459  0.0056  0.0522  0.7350
  743MOL0     H98052   5.548   8.485   3.636 -0.0706  0.1869 -1.2909
  743MOL0     H98053   5.547   8.314   3.699  1.6097 -2.1480 -1.1157
  743MOL0     H98054   5.424   8.448   3.434  0.5669  1.3026  1.3721
  743MOL0     H98055   5.427   8.272   3.470 -3.5614  0.7113  0.0225
  743MOL0     H98056   5.265   8.291   3.642 -0.7647 -1.1465 -2.0032
  743MOL0     H98057   5.212   8.330   3.492  0.0288 -1.3448  0.4217
  743MOL0     H98058   6.441   8.207   3.568 -1.3055 -1.5436  0.7614
  743MOL0     H98059   6.687   8.224   3.593  2.1832 -3.3507  1.6038
  743MOL0     H98060   7.073   8.466   3.998 -1.5639 -0.2120 -0.1772
  743MOL0     H98061   7.301   8.450   4.005  1.9120  0.1678 -1.9832
  743MOL0     H98062   9.356   8.025   3.233  3.2358 -0.6289 -0.0976
  743MOL0     H98063   9.569   8.121   3.246 -0.7872 -1.1927  0.2912
  743MOL0     H98064   9.884   8.376   3.258  0.8715 -2.9669  0.1385
  743MOL0     H98065  10.108   8.439   3.235 -1.0232 -1.9267  0.9748
  743MOL0     H98066  10.391   8.394   3.019  1.2521 -1.0283  2.8142
  743MOL0     H98067  10.310   8.420   3.172  0.3221  0.4391 -0.3740
  743MOL0     H98068  10.474   8.612   3.020  0.1083 -2.1856 -0.6403
  743MOL0     H98069  10.385   8.663   3.163  0.8167  1.9012 -2.3426
  743MOL0     H98070  10.596   8.439   3.162 -3.5035 -2.8740  0.3726
  743MOL0     H98071  10.509   8.498   3.303 -1.9006  3.6896  0.3461
  743MOL0     H98072  10.666   8.690   3.155  1.5591 -2.1729 -0.6823
  743MOL0     H98073  10.580   8.704   3.312 -2.4101 -2.0312 -1.2267
  743MOL0     H98074  10.941   8.461   3.371  0.4643  0.0274 -1.1025
  743MOL0     H98075  10.040   8.516   2.807 -4.1856  0.3545 -0.6672
  743MOL0     H98076   9.819   8.466   2.834  0.2214  0.6708 -0.4202
  744MOL0     O98077  11.187  10.996   2.883  0.2139  1.1114 -0.4325
  744MOL0     C98078  11.229  10.878   2.877  0.1548 -0.3900 -0.9784
  744MOL0     O98079  11.167  10.774   2.831 -0.5583  0.7451  0.0132
  744MOL0     C98080  11.075  10.789   2.729  0.6144  0.3331  1.1390
  744MOL0     C98081  11.081  10.893   2.638 -0.0113 -0.5073  0.1350
  744MOL0     C98082  10.973  10.924   2.552 -1.4278 -1.0502 -0.5782
  744MOL0     C98083  10.863  10.843   2.544  0.0412 -1.4734  0.7544
  744MOL0     O98084  10.763  10.868   2.459  0.1639 -0.2184  0.0947
  744MOL0     C98085  10.636  10.889   2.524 -0.6568  0.3100 -0.0272
  744MOL0     C98086  10.528  10.803   2.453 -0.6517  1.2632 -0.7003
  744MOL0     C98087  10.463  10.879   2.348  0.8092 -0.3404  0.5008
  744MOL0     C98088  10.362  10.975   2.397  0.5663  0.3974 -0.4782
  744MOL0     C98089  10.259  11.019   2.294 -0.0754 -0.2081  0.4349
  744MOL0     C98090  10.204  11.150   2.346  0.6986  0.5822 -0.0160
  744MOL0     C98091  10.084  11.207   2.272  0.7730 -0.1792  0.0745
  744MOL0     C98092  10.122  11.320   2.175  0.0942 -0.5024 -0.3815
  744MOL0     N98093  10.003  11.375   2.104 -1.0073  1.2333 -0.6180
  744MOL0     C98094   9.923  11.305   2.017 -0.3653  0.2542 -1.0173
  744MOL0     C98095   9.813  11.381   1.997 -0.3301  0.5594  0.5325
  744MOL0     C98096   9.697  11.348   1.918  0.3151  0.5037 -0.0488
  744MOL0     C98097   9.591  11.464   1.911 -0.3870  0.5405  0.0068
  744MOL0     C98098   9.475  11.439   1.813  0.2810 -0.0803  0.3469
  744MOL0     C98099   9.434  11.564   1.742 -0.1885 -0.1138  0.1834
  744MOL0     O98100   9.337  11.541   1.636  0.1844 -0.8355 -0.1556
  744MOL0     C98101   9.209  11.583   1.655 -0.5046  0.9286 -0.9117
  744MOL0     C98102   9.115  11.491   1.609  0.6322  0.4337  0.6950
  744MOL0     C98103   8.986  11.540   1.604  0.3395 -0.0873  1.3283
  744MOL0     C98104   8.937  11.669   1.631  0.0127  0.2173 -0.0311
  744MOL0     C98105   8.797  11.711   1.596 -0.2807  0.0711  0.6444
  744MOL0     O98106   8.712  11.623   1.535 -0.1641 -0.2808  0.3477
  744MOL0     C98107   8.602  11.667   1.470 -0.3762 -0.1232  0.0051
  744MOL0     C98108   8.491  11.576   1.465 -0.0598 -0.3962  0.1319
  744MOL0     C98109   8.368  11.600   1.405  0.0117  1.2373 -0.7435
  744MOL0     C98110   8.353  11.724   1.346 -0.2877 -0.0779 -0.3002
  744MOL0     O98111   8.244  11.763   1.272 -0.7022  0.4353 -0.4116
  744MOL0     C98112   8.122  11.685   1.289 -0.0529 -0.5278 -0.5376
  744MOL0     C98113   7.998  11.754   1.235 -0.7563 -0.4602  0.2293
  744MOL0     C98114   7.880  11.661   1.224 -0.5903 -0.0912  0.3933
  744MOL0     C98115   7.756  11.739   1.221  0.2933  1.7029 -0.1208
  744MOL0     C98116   7.636  11.629   1.217 -0.0381 -0.1332  0.8447
  744MOL0     C98117   7.497  11.696   1.192  0.8737  0.5504 -0.6617
  744MOL0     C98118   7.396  11.611   1.271  0.5876  0.1206  0.2021
  744MOL0     C98119   7.387  11.645   1.428 -0.1601  0.9662 -0.4660
  744MOL0    Cl98120   7.284  11.779   1.458 -0.1473 -0.0448 -0.3157
  744MOL0     C98121   8.460  11.818   1.355 -0.2501 -1.0173  0.3333
  744MOL0     C98122   8.588  11.793   1.410 -0.1799  0.3044  0.2145
  744MOL0     O98123   8.759  11.813   1.645 -0.1518 -0.6921  0.5812
  744MOL0     C98124   9.038  11.753   1.683 -0.4798 -0.0322  0.0616
  744MOL0     C98125   9.167  11.712   1.702 -0.8045  0.8464  0.6556
  744MOL0     N98126   9.829  11.500   2.071 -0.4613  1.2900  0.5120
  744MOL0     N98127   9.941  11.498   2.132  0.1673 -0.5520  0.6205
  744MOL0     C98128  10.855  10.731   2.629 -0.3655 -0.2378  0.1673
  744MOL0     C98129  10.960  10.702   2.724 -0.7103 -0.3546 -0.0970
  744MOL0     C98130  11.358  10.849   2.940  0.0354 -0.1092 -0.1801
  744MOL0     C98131  11.397  10.715   2.959  0.0833 -0.7542  0.2240
  744MOL0     C98132  11.528  10.687   3.005 -0.5412 -0.4692  1.0882
  744MOL0     C98133  11.623  10.793   3.023 -0.4409  0.1488 -0.3685
  744MOL0     O98134  11.745  10.750   3.076 -0.4310  0.6987 -0.5518
  744MOL0     C98135  11.857  10.851   3.090  0.5584 -0.7598  0.1283
  744MOL0     C98136  11.981  10.799   3.149 -0.3783  0.4561  0.1779
  744MOL0     C98137  12.103  10.908   3.156  0.8860  0.5738  0.1195
  744MOL0     C98138  12.240  10.857   3.098  1.0510 -0.6441 -0.0704
  744MOL0     C98139  12.309  10.758   3.180  1.0333  0.1422  0.5584
  744MOL0     C98140  12.371  10.678   3.244 -0.0061 -1.0574 -0.6857
  744MOL0     C98141  11.582  10.930   3.009 -0.6725  0.2757 -0.3209
  744MOL0     C98142  11.445  10.959   2.976  0.6196  1.2158  0.3931
  744MOL0     H98143  11.170  10.956   2.636  0.0039 -0.4741  1.0900
  744MOL0     H98144  10.981  11.006   2.481 -2.0458 -0.5354 -0.0650
  744MOL0     H98145  10.619  10.997   2.525  1.0561  0.6194  1.0076
  744MOL0     H98146  10.642  10.853   2.628 -1.9021  0.8460  0.2461
  744MOL0     H98147  10.449  10.783   2.526  0.7591 -2.2437  0.0612
  744MOL0     H98148  10.570  10.709   2.417 -1.6479 -0.3624  2.0169
  744MOL0     H98149  10.402  10.815   2.284 -2.2964 -0.0059  2.9116
  744MOL0     H98150  10.529  10.936   2.281 -4.8860  2.9239 -3.2234
  744MOL0     H98151  10.303  10.924   2.473  2.3304  0.9883  1.3916
  744MOL0     H98152  10.420  11.062   2.430  1.1933  1.0808 -3.1301
  744MOL0     H98153  10.187  10.937   2.282  0.9688 -1.3330  1.4933
  744MOL0     H98154  10.295  11.027   2.191 -3.0706 -0.4483 -0.7236
  744MOL0     H98155  10.286  11.222   2.353  0.7856  0.3762  1.6684
  744MOL0     H98156  10.172  11.131   2.449 -2.7969  2.1509 -0.6928
  744MOL0     H98157  10.045  11.131   2.203  0.5733 -0.0766  0.0714
  744MOL0     H98158  10.008  11.239   2.345 -0.2905 -1.7077 -0.3188
  744MOL0     H98159  10.191  11.283   2.100  0.9795 -2.8384  1.4580
  744MOL0     H98160  10.161  11.398   2.242 -1.2857  0.0778 -0.2225
  744MOL0     H98161   9.936  11.208   1.970 -2.2968 -0.8329  0.5571
  744MOL0     H98162   9.660  11.253   1.958  0.0883  1.9746  3.5927
  744MOL0     H98163   9.737  11.319   1.820  0.3923  1.2711 -0.2541
  744MOL0     H98164   9.648  11.551   1.878 -1.4599  0.7290 -1.4713
  744MOL0     H98165   9.555  11.486   2.012  0.8276  3.2245 -0.0480
  744MOL0     H98166   9.489  11.364   1.736 -0.9808 -0.5591  0.5583
  744MOL0     H98167   9.388  11.408   1.873 -0.9188  0.3954 -1.0870
  744MOL0     H98168   9.525  11.607   1.699 -1.0721 -0.0307 -1.6648
  744MOL0     H98169   9.388  11.640   1.806  1.1981  0.8209  0.1224
  744MOL0     H98170   9.144  11.391   1.580  0.9022  0.4401  0.9378
  744MOL0     H98171   8.915  11.460   1.583  1.1122 -0.3731 -0.3843
  744MOL0     H98172   8.504  11.483   1.519 -0.0822 -2.5734 -3.3373
  744MOL0     H98173   8.288  11.530   1.427  1.6561  0.0264  1.9992
  744MOL0     H98174   8.103  11.668   1.395  0.9405 -3.0677 -0.7117
  744MOL0     H98175   8.131  11.587   1.243 -2.2973 -1.6992  1.3195
  744MOL0     H98176   8.017  11.804   1.139  1.4149  2.7391  2.1432
  744MOL0     H98177   7.981  11.847   1.291  0.3891 -1.5409  2.4830
  744MOL0     H98178   7.889  11.603   1.316  1.8868  0.9618  0.8790
  744MOL0     H98179   7.891  11.599   1.134  0.8408  0.2733  0.2989
  744MOL0     H98180   7.744  11.812   1.301 -3.4702  4.0102 -2.4609
  744MOL0     H98181   7.752  11.797   1.128  0.9639  1.3248 -0.3908
  744MOL0     H98182   7.640  11.585   1.317 -0.4813  1.6879  1.6899
  744MOL0     H98183   7.643  11.551   1.141 -1.5967  0.6182 -0.1210
  744MOL0     H98184   7.478  11.704   1.085  3.1029 -2.4222 -1.4086
  744MOL0     H98185   7.491  11.801   1.220 -1.2039  1.6935 -4.6479
  744MOL0     H98186   7.298  11.612   1.220 -0.1184 -2.6895  1.3135
  744MOL0     H98187   7.427  11.506   1.265 -2.9776 -1.1006  0.7190
  744MOL0     H98188   7.488  11.675   1.458 -0.0417  2.0275 -1.8309
  744MOL0     H98189   7.345  11.553   1.471 -0.0906  0.5853 -1.1951
  744MOL0     H98190   8.454  11.918   1.314  1.3038 -0.0773  2.2365
  744MOL0     H98191   8.676  11.856   1.402  1.1599 -1.0658  2.9242
  744MOL0     H98192   9.007  11.850   1.720  0.7552 -0.0718  1.2831
  744MOL0     H98193   9.233  11.789   1.741  2.0303 -1.6682  1.2152
  744MOL0     H98194  10.770  10.666   2.616 -0.3717 -0.0020 -1.1310
  744MOL0     H98195  10.970  10.623   2.798  2.3160 -1.8704 -1.9224
  744MOL0     H98196  11.331  10.634   2.929 -2.6813  1.1370  0.8401
  744MOL0     H98197  11.564  10.586   3.023 -1.3502 -0.9650  0.0160
  744MOL0     H98198  11.823  10.940   3.144 -0.0654 -2.6397  3.0690
  744MOL0     H98199  11.889  10.876   2.988  1.5117 -0.8653  0.3950
  744MOL0     H98200  11.965  10.770   3.254  1.0090 -2.7529 -0.3713
  744MOL0     H98201  12.018  10.707   3.102  2.0175  1.2054  0.4473
  744MOL0     H98202  12.112  10.934   3.262  0.2249 -0.6687  0.4995
  744MOL0     H98203  12.063  10.998   3.106 -0.7579  0.7780  1.6808
  744MOL0     H98204  12.221  10.813   3.000  0.3397 -1.3440  0.3657
  744MOL0     H98205  12.299  10.945   3.071 -0.5950 -0.2285 -2.6766
  744MOL0     H98206  12.437  10.619   3.304  3.0567  0.9107 -1.8457
  744MOL0     H98207  11.652  11.011   3.026 -0.0159 -0.4536  0.5111
  744MOL0     H98208  11.400  11.058   2.968 -3.9044 -0.3089  3.2150
  745MOL0     O98209  10.085   0.387  10.551  0.5875  0.6074  0.4452
  745MOL0     C98210  10.186   0.328  10.521 -0.5888 -0.4811 -0.2074
  745MOL0     O98211  10.197   0.236  10.432 -0.3393  0.1492  1.2029
  745MOL0     C98212  10.087   0.179  10.352 -0.8545  0.4456 -0.3232
  745MOL0     C98213  10.002   0.083  10.419  0.8012 -0.0464  0.2383
  745MOL0     C98214   9.910   0.014  10.348  0.1593  0.7984  0.3830
  745MOL0     C98215   9.886   0.042  10.216 -0.0150  0.7308  0.5728
  745MOL0     O98216   9.774  -0.006  10.148  0.6379  0.0768  0.1149
  745MOL0     C98217   9.685   0.098  10.093  0.6324 -0.5412  0.2055
  745MOL0     C98218   9.626   0.041   9.964 -0.0024  0.5759 -0.2529
  745MOL0     C98219   9.530   0.144   9.899  0.6201  0.1488 -0.5228
  745MOL0     C98220   9.447   0.067   9.791 -0.6629 -0.0978  0.5376
  745MOL0     C98221   9.341   0.142   9.716  0.5367  1.1692 -0.5137
  745MOL0     C98222   9.244   0.044   9.645 -0.0283 -0.0004 -0.3940
  745MOL0     C98223   9.122   0.113   9.589  0.2231 -0.5498  0.0615
  745MOL0     C98224   9.058   0.022   9.487 -0.8482  0.4593 -0.2570
  745MOL0     N98225   8.938   0.075   9.432 -0.0603 -0.0571  0.4149
  745MOL0     C98226   8.811   0.054   9.489 -0.1064 -0.1744 -1.0368
  745MOL0     C98227   8.726   0.128   9.414 -0.0955 -0.0958 -0.2268
  745MOL0     C98228   8.574   0.133   9.417  0.0026 -0.0697 -0.1459
  745MOL0     C98229   8.511   0.236   9.313  0.1289 -0.8325  0.2041
  745MOL0     C98230   8.521   0.193   9.169 -0.1885 -0.1334 -1.2216
  745MOL0     C98231   8.495   0.299   9.071 -0.5812  0.0354 -0.1619
  745MOL0     O98232   8.381   0.274   8.990  0.7165 -0.7360  0.6412
  745MOL0     C98233   8.378   0.185   8.884 -0.0122  0.1740 -0.2553
  745MOL0     C98234   8.262   0.176   8.802 -0.3268  0.0176  0.0347
  745MOL0     C98235   8.246   0.099   8.694 -0.5256  0.9693 -0.4692
  745MOL0     C98236   8.352   0.005   8.664 -1.0157 -0.5310 -0.1017
  745MOL0     C98237   8.335  -0.094   8.552  0.1794 -1.1485 -0.3855
  745MOL0     O98238   8.428  -0.192   8.541  0.4540 -0.8247 -0.4718
  745MOL0     C98239   8.404  -0.307   8.466 -0.3685 -0.5412 -0.2148
  745MOL0     C98240   8.519  -0.365   8.408  0.2245  0.0674 -0.6836
  745MOL0     C98241   8.506  -0.493   8.348 -0.0069 -1.0274  0.4820
  745MOL0     C98242   8.387  -0.556   8.347 -0.5058  0.2436 -0.1732
  745MOL0     O98243   8.375  -0.682   8.305 -0.4498  0.3322  0.2473
  745MOL0     C98244   8.481  -0.752   8.234  0.0852  0.2661 -0.1838
  745MOL0     C98245   8.465  -0.774   8.075 -0.3338  0.5155 -0.5379
  745MOL0     C98246   8.521  -0.660   8.000 -0.4024 -0.4813 -0.2740
  745MOL0     C98247   8.533  -0.688   7.849 -0.9623 -0.4933 -0.0461
  745MOL0     C98248   8.597  -0.560   7.786 -0.5535 -0.8457 -0.2813
  745MOL0     C98249   8.639  -0.569   7.640  0.5667  0.4927  0.0940
  745MOL0     C98250   8.502  -0.561   7.553 -0.6688  0.5491 -0.4440
  745MOL0     C98251   8.536  -0.653   7.440 -1.2800 -0.3547  0.3437
  745MOL0    Cl98252   8.411  -0.616   7.318 -0.2451  0.0063  0.3533
  745MOL0     C98253   8.275  -0.496   8.404  0.0947  0.0484  0.2718
  745MOL0     C98254   8.279  -0.368   8.461  0.2787  0.0936  0.5489
  745MOL0     O98255   8.239  -0.079   8.476 -0.0055  0.5553 -0.3502
  745MOL0     C98256   8.462  -0.013   8.756 -0.2518 -0.0035  0.4102
  745MOL0     C98257   8.477   0.080   8.862  0.3887  0.7042 -1.0795
  745MOL0     N98258   8.798   0.185   9.313 -0.0618 -0.0326 -0.2938
  745MOL0     N98259   8.922   0.151   9.321 -0.1263 -0.2678  0.5884
  745MOL0     C98260   9.965   0.144  10.153 -0.5165  0.1031  0.0893
  745MOL0     C98261  10.064   0.209  10.223 -0.0266 -0.1443 -0.1486
  745MOL0     C98262  10.301   0.356  10.606  0.4119  0.1627 -0.7866
  745MOL0     C98263  10.296   0.458  10.707  0.7546 -0.1428 -0.3479
  745MOL0     C98264  10.412   0.482  10.784 -0.1725 -0.4690 -0.6379
  745MOL0     C98265  10.530   0.405  10.767  0.2006 -1.1312 -0.7397
  745MOL0     O98266  10.641   0.441  10.842  0.3731  0.7286  0.6405
  745MOL0     C98267  10.763   0.360  10.860  0.2963 -0.0205  0.3678
  745MOL0     C98268  10.791   0.344  11.008 -0.2054 -0.4058  0.3251
  745MOL0     C98269  10.830   0.484  11.064  0.9231  0.5651 -0.3951
  745MOL0     C98270  10.769   0.532  11.203 -0.5810  0.3905 -0.2463
  745MOL0     C98271  10.816   0.446  11.311  0.4790  0.4922  0.1159
  745MOL0     C98272  10.854   0.379  11.402 -0.2585  0.6635  0.7038
  745MOL0     C98273  10.533   0.312  10.663  0.6469  0.1372  0.0956
  745MOL0     C98274  10.421   0.285  10.587  0.3992  0.0698  0.1699
  745MOL0     H98275  10.023   0.056  10.521  0.1285 -2.1415 -0.1455
  745MOL0     H98276   9.852  -0.066  10.393  3.6159 -2.1100  0.1530
  745MOL0     H98277   9.737   0.192  10.071  0.6772  0.2016  2.9889
  745MOL0     H98278   9.612   0.116  10.173 -0.7066 -0.8196 -0.9217
  745MOL0     H98279   9.584  -0.059   9.979 -3.0747  1.4887 -1.9915
  745MOL0     H98280   9.712   0.041   9.896  1.0940 -1.0801  1.0530
  745MOL0     H98281   9.590   0.224   9.856 -0.8059  1.5366 -0.0277
  745MOL0     H98282   9.467   0.172   9.984  1.5708  1.8127 -0.3169
  745MOL0     H98283   9.514   0.012   9.723 -0.0274 -1.2636  2.0314
  745MOL0     H98284   9.398  -0.019   9.839 -0.6989  0.8265  2.2046
  745MOL0     H98285   9.390   0.209   9.645  3.1080  0.7779  0.7973
  745MOL0     H98286   9.280   0.197   9.788 -0.3430 -1.0483  0.5439
  745MOL0     H98287   9.208  -0.044   9.700  1.2297 -1.7931 -2.2545
  745MOL0     H98288   9.305  -0.007   9.569 -2.6686 -1.8844 -1.4210
  745MOL0     H98289   9.052   0.136   9.671  0.6414 -1.0890  0.5777
  745MOL0     H98290   9.149   0.208   9.542  2.6813 -0.1925  1.9920
  745MOL0     H98291   9.049  -0.078   9.530  0.8169 -0.4555 -1.8771
  745MOL0     H98292   9.138   0.009   9.414  0.3375 -0.0122  1.0689
  745MOL0     H98293   8.782  -0.013   9.569  0.2823  1.3881  0.4784
  745MOL0     H98294   8.548   0.152   9.521 -4.0750 -0.3324 -0.9646
  745MOL0     H98295   8.544   0.032   9.387  0.8036 -1.0705  2.1650
  745MOL0     H98296   8.562   0.332   9.324 -2.0251  0.3836  0.1462
  745MOL0     H98297   8.406   0.260   9.331  0.6789  2.7313 -0.5701
  745MOL0     H98298   8.621   0.158   9.144 -0.3933  0.5585 -3.1926
  745MOL0     H98299   8.461   0.101   9.167 -0.1966 -0.2231  0.9218
  745MOL0     H98300   8.585   0.308   9.009 -0.7329  2.8178 -0.1224
  745MOL0     H98301   8.484   0.401   9.109  2.4429  1.3148 -2.3379
  745MOL0     H98302   8.178   0.242   8.819 -0.5280 -0.3364  0.4018
  745MOL0     H98303   8.147   0.102   8.650 -0.7600  1.1122  0.0535
  745MOL0     H98304   8.612  -0.313   8.391 -0.1034  0.5492 -1.0123
  745MOL0     H98305   8.594  -0.519   8.289 -0.3144 -1.4336  0.1972
  745MOL0     H98306   8.473  -0.855   8.272 -1.4070  0.9687  1.5812
  745MOL0     H98307   8.584  -0.730   8.263  0.0399  0.5060 -0.2027
  745MOL0     H98308   8.358  -0.774   8.053 -0.4317 -0.0705 -0.1000
  745MOL0     H98309   8.514  -0.868   8.045 -0.2576 -0.0294  1.1802
  745MOL0     H98310   8.619  -0.637   8.044  0.6282 -3.9268 -0.4959
  745MOL0     H98311   8.456  -0.573   8.002  0.4173  0.1618  2.1093
  745MOL0     H98312   8.597  -0.775   7.832  4.2211  2.4682  1.9908
  745MOL0     H98313   8.429  -0.702   7.819 -0.8337 -1.5133 -0.0685
  745MOL0     H98314   8.691  -0.534   7.836 -1.0560  1.5642 -0.4758
  745MOL0     H98315   8.520  -0.483   7.793 -1.8811 -2.1534  0.2391
  745MOL0     H98316   8.692  -0.665   7.635 -1.0234 -0.6663  2.9758
  745MOL0     H98317   8.701  -0.486   7.608  0.9352  0.9474  1.8961
  745MOL0     H98318   8.413  -0.595   7.607  0.4302 -1.8663 -0.0021
  745MOL0     H98319   8.500  -0.460   7.512  1.5407 -0.1595 -2.5626
  745MOL0     H98320   8.541  -0.758   7.470  2.7863 -0.4124 -0.0522
  745MOL0     H98321   8.636  -0.633   7.402 -1.4368  2.5505  1.2175
  745MOL0     H98322   8.180  -0.544   8.384  1.8664 -2.6154 -2.6124
  745MOL0     H98323   8.195  -0.320   8.511 -0.7232  0.0665 -1.0478
  745MOL0     H98324   8.541  -0.085   8.739  0.6353  1.5902 -3.3839
  745MOL0     H98325   8.567   0.074   8.923  0.3062  0.4300 -0.9853
  745MOL0     H98326   9.960   0.165  10.046 -0.2870 -3.3915 -0.7170
  745MOL0     H98327  10.120   0.287  10.172 -0.0668 -0.6622 -0.9914
  745MOL0     H98328  10.214   0.525  10.731  0.3032  0.3459 -2.9340
  745MOL0     H98329  10.414   0.565  10.854  2.6523 -1.0433  0.0967
  745MOL0     H98330  10.853   0.404  10.816 -0.1751 -0.2308 -0.8705
  745MOL0     H98331  10.754   0.271  10.795  1.4791  2.3378 -3.3724
  745MOL0     H98332  10.711   0.306  11.071  0.1878  2.7598  3.0024
  745MOL0     H98333  10.877   0.277  11.019 -0.0885 -0.1320  1.2182
  745MOL0     H98334  10.800   0.557  10.988 -1.6075 -1.1806 -1.1824
  745MOL0     H98335  10.938   0.495  11.075  0.6070  2.5834  1.6677
  745MOL0     H98336  10.807   0.632  11.229  1.7864 -0.9429  1.8542
  745MOL0     H98337  10.659   0.534  11.202 -0.6443 -0.3713  1.6058
  745MOL0     H98338  10.895   0.311  11.474 -1.6160  2.3367  3.2011
  745MOL0     H98339  10.631   0.270  10.641  0.9800  1.2036 -0.4863
  745MOL0     H98340  10.425   0.199  10.521  0.2594  0.1485  0.0577
  746MOL0     O98341   8.344   6.751   9.791  0.0241  0.1335 -0.1142
  746MOL0     C98342   8.306   6.683   9.691  0.3337 -0.8182 -0.0829
  746MOL0     O98343   8.176   6.661   9.651  0.4475  0.1135 -0.2749
  746MOL0     C98344   8.077   6.711   9.729  0.2183  0.1810 -0.3830
  746MOL0     C98345   7.986   6.622   9.785 -0.4281  0.5256  0.6752
  746MOL0     C98346   7.870   6.667   9.853 -0.5486 -0.8282 -0.6646
  746MOL0     C98347   7.863   6.803   9.889 -0.1781 -0.8136  0.4101
  746MOL0     O98348   7.766   6.869   9.969 -0.0965  0.8446  0.0736
  746MOL0     C98349   7.650   6.790  10.013  0.1392 -0.0103 -0.6239
  746MOL0     C98350   7.532   6.887  10.040 -0.5120 -0.4916  0.7289
  746MOL0     C98351   7.481   6.963   9.917  0.4178 -0.4849 -0.5295
  746MOL0     C98352   7.403   7.087   9.968  0.6400  0.3260 -0.0703
  746MOL0     C98353   7.335   7.152   9.852 -0.6400  0.0868  0.1480
  746MOL0     C98354   7.296   7.294   9.905  0.5382  0.3184 -0.8817
  746MOL0     C98355   7.178   7.335   9.817 -0.3069 -0.1887  1.0619
  746MOL0     C98356   7.058   7.252   9.850 -0.4973 -0.4790  0.0383
  746MOL0     N98357   6.940   7.322   9.819  0.3252 -0.2329 -0.1647
  746MOL0     C98358   6.866   7.286   9.709  0.9200 -0.5512  0.2858
  746MOL0     C98359   6.765   7.368   9.703  0.1310 -0.1761  0.1188
  746MOL0     C98360   6.676   7.383   9.587  0.4334  0.3481  0.4695
  746MOL0     C98361   6.539   7.425   9.630  0.2604  0.4218  0.3501
  746MOL0     C98362   6.440   7.417   9.508  0.2461  0.1068  1.3503
  746MOL0     C98363   6.299   7.417   9.563  0.6107  0.5080  0.0004
  746MOL0     O98364   6.214   7.465   9.457  0.4535 -0.1531  0.1318
  746MOL0     C98365   6.076   7.445   9.460  0.7176 -1.0943 -0.9329
  746MOL0     C98366   6.006   7.449   9.582  0.8767  0.0412 -0.1268
  746MOL0     C98367   5.869   7.431   9.582  0.2093  0.8925 -0.4572
  746MOL0     C98368   5.802   7.412   9.465  0.2891  0.8325  0.2273
  746MOL0     C98369   5.657   7.400   9.463 -0.1794 -0.2769  0.1290
  746MOL0     O98370   5.597   7.433   9.581  0.7298  0.7898  0.1257
  746MOL0     C98371   5.474   7.389   9.610  0.4851  0.5765  0.1871
  746MOL0     C98372   5.373   7.480   9.643  0.4469 -0.5262  0.0275
  746MOL0     C98373   5.247   7.431   9.674  0.0327  0.1121  0.5690
  746MOL0     C98374   5.207   7.295   9.654 -0.3584 -0.0369 -0.0556
  746MOL0     O98375   5.072   7.266   9.654 -0.4260  0.0221 -0.4160
  746MOL0     C98376   5.013   7.133   9.641  0.3939  0.3774 -0.2812
  746MOL0     C98377   4.860   7.142   9.632  0.2202 -0.3614 -0.4956
  746MOL0     C98378   4.789   7.011   9.663  0.7307  0.1585 -0.6908
  746MOL0     C98379   4.640   7.015   9.689  0.0380  0.2694  0.4836
  746MOL0     C98380   4.562   7.049   9.563  0.2573 -0.3886 -0.5954
  746MOL0     C98381   4.402   7.046   9.575 -0.6097  0.6036  0.4112
  746MOL0     C98382   4.345   7.129   9.685 -0.4337 -0.1475  0.3400
  746MOL0     C98383   4.195   7.101   9.698  0.5957 -0.1860 -0.0726
  746MOL0    Cl98384   4.126   7.209   9.820  0.2811  0.0148  0.4209
  746MOL0     C98385   5.313   7.207   9.625  0.3066  0.4899  0.3767
  746MOL0     C98386   5.443   7.253   9.608  0.3523 -0.5920 -0.2774
  746MOL0     O98387   5.598   7.357   9.367 -0.1834 -0.1423  0.5487
  746MOL0     C98388   5.866   7.410   9.344 -0.0484  0.2963  0.3529
  746MOL0     C98389   6.005   7.431   9.336  0.0685  0.3792  0.4067
  746MOL0     N98390   6.767   7.446   9.815  0.3295 -0.5157  0.0088
  746MOL0     N98391   6.871   7.420   9.883  0.1471  0.1317 -0.0432
  746MOL0     C98392   7.960   6.887   9.838 -0.3395 -0.6249 -0.4429
  746MOL0     C98393   8.058   6.848   9.754 -0.1645  0.4142  0.4442
  746MOL0     C98394   8.412   6.622   9.617 -1.0315  0.3395 -0.3399
  746MOL0     C98395   8.547   6.641   9.661 -0.4832 -0.5728  0.3643
  746MOL0     C98396   8.658   6.588   9.586  0.4463  0.4388 -0.6556
  746MOL0     C98397   8.643   6.521   9.472 -0.9417 -0.7258  0.3813
  746MOL0     O98398   8.745   6.447   9.410  0.0798 -0.0341 -0.0763
  746MOL0     C98399   8.879   6.496   9.397  0.4954  0.8111 -0.2593
  746MOL0     C98400   8.886   6.624   9.305  0.2919 -0.4591  0.0595
  746MOL0     C98401   9.029   6.679   9.279  0.3271  0.0734  0.1040
  746MOL0     C98402   9.047   6.779   9.168  0.5842 -0.2763  0.2124
  746MOL0     C98403   9.191   6.809   9.142 -0.0652 -0.0286  0.0606
  746MOL0     C98404   9.309   6.828   9.123 -0.7321 -0.7964  0.5624
  746MOL0     C98405   8.515   6.510   9.422  0.9770  0.2799  0.3014
  746MOL0     C98406   8.401   6.565   9.494 -0.4199 -0.0991  0.0368
  746MOL0     H98407   7.998   6.516   9.764  0.6037  0.8421 -0.4281
  746MOL0     H98408   7.800   6.589   9.880 -0.2740 -0.1964  2.1858
  746MOL0     H98409   7.663   6.745  10.112  0.9698  0.1416 -0.6590
  746MOL0     H98410   7.617   6.716   9.940 -1.7168  0.9386 -0.8111
  746MOL0     H98411   7.582   6.967  10.096  1.1750  0.4163 -1.8881
  746MOL0     H98412   7.444   6.839  10.083  0.2670 -2.7743 -0.0517
  746MOL0     H98413   7.425   6.898   9.849  0.2130  0.9682 -1.7823
  746MOL0     H98414   7.559   7.009   9.855 -1.2040 -0.5936 -2.7652
  746MOL0     H98415   7.327   7.049  10.037  1.8963 -1.6022  0.3504
  746MOL0     H98416   7.479   7.153  10.012  0.8906 -0.1856  0.2781
  746MOL0     H98417   7.259   7.083   9.814  0.3572 -1.8891  1.5336
  746MOL0     H98418   7.408   7.163   9.771 -0.0840  3.9045  0.9651
  746MOL0     H98419   7.380   7.364   9.898  0.3139  0.9692  1.7835
  746MOL0     H98420   7.277   7.295  10.013  3.1033  3.1437 -0.3009
  746MOL0     H98421   7.165   7.439   9.846 -0.2992  0.0191  0.3389
  746MOL0     H98422   7.206   7.309   9.715 -1.2473 -3.7395  1.5557
  746MOL0     H98423   7.049   7.245   9.959  1.8687 -2.3729  0.2088
  746MOL0     H98424   7.059   7.152   9.804  2.4521 -0.5485  0.0459
  746MOL0     H98425   6.905   7.219   9.633  3.0431  0.1629  0.6548
  746MOL0     H98426   6.672   7.288   9.535 -1.5088 -0.2316  1.5462
  746MOL0     H98427   6.710   7.452   9.509 -1.7597  0.5486 -0.3901
  746MOL0     H98428   6.550   7.528   9.664  1.0997  0.4140  0.1231
  746MOL0     H98429   6.509   7.370   9.720  1.5809  0.9009  1.1102
  746MOL0     H98430   6.466   7.491   9.431  4.6814 -1.5702  0.9040
  746MOL0     H98431   6.453   7.318   9.463 -1.1731 -1.4650  4.1483
  746MOL0     H98432   6.284   7.495   9.638 -1.9405  0.4418 -0.3452
  746MOL0     H98433   6.266   7.318   9.597 -4.0024  1.3523 -1.3919
  746MOL0     H98434   6.042   7.466   9.683 -1.2979 -2.0048  1.1020
  746MOL0     H98435   5.825   7.450   9.680 -0.5074  2.2845 -1.0071
  746MOL0     H98436   5.391   7.586   9.631 -0.2435 -0.6258 -2.3645
  746MOL0     H98437   5.170   7.504   9.698  2.6291  2.9836  0.7129
  746MOL0     H98438   5.039   7.078   9.732 -1.4015  0.8489  0.5752
  746MOL0     H98439   5.042   7.094   9.543 -1.6266  1.4323 -1.3578
  746MOL0     H98440   4.841   7.161   9.526 -0.0543 -1.5698 -0.6808
  746MOL0     H98441   4.822   7.220   9.699  0.9040 -2.6842  2.8357
  746MOL0     H98442   4.833   6.968   9.754  1.5157  0.2658 -1.0155
  746MOL0     H98443   4.823   6.935   9.592 -1.3510 -1.9599  0.4291
  746MOL0     H98444   4.602   6.923   9.736  0.2254  0.7070  1.5282
  746MOL0     H98445   4.627   7.099   9.757  0.4014  2.8822 -2.4620
  746MOL0     H98446   4.588   6.979   9.482  2.7298  0.3766 -0.5503
  746MOL0     H98447   4.584   7.153   9.539  1.2917 -0.7944 -1.4986
  746MOL0     H98448   4.368   6.942   9.583  2.9943 -0.6250  1.6986
  746MOL0     H98449   4.358   7.080   9.481 -0.7855 -0.2860  0.1682
  746MOL0     H98450   4.388   7.087   9.777 -1.5992 -1.1311  0.4692
  746MOL0     H98451   4.372   7.234   9.687 -2.3067  0.4467 -1.6292
  746MOL0     H98452   4.182   6.999   9.736  0.9612  0.3128  1.4296
  746MOL0     H98453   4.142   7.129   9.606  0.3540 -2.1956 -0.6042
  746MOL0     H98454   5.301   7.099   9.632 -1.8751  0.6203 -0.7182
  746MOL0     H98455   5.527   7.186   9.620  1.3262  1.0228  3.0343
  746MOL0     H98456   5.825   7.388   9.245  2.5600 -0.6846 -0.6070
  746MOL0     H98457   6.065   7.439   9.246 -1.0514 -0.6197 -0.4572
  746MOL0     H98458   7.958   6.992   9.865 -0.1353  0.2581 -3.5242
  746MOL0     H98459   8.118   6.928   9.712 -0.9881  1.1209  0.5785
  746MOL0     H98460   8.560   6.698   9.752  0.5976 -2.1368  1.2445
  746MOL0     H98461   8.763   6.585   9.616  1.3739 -1.1216 -3.6394
  746MOL0     H98462   8.931   6.410   9.354 -1.2542 -0.8100  0.6917
  746MOL0     H98463   8.942   6.503   9.487 -1.5396 -0.9906  1.4272
  746MOL0     H98464   8.848   6.603   9.204  1.0842  3.5985 -1.2411
  746MOL0     H98465   8.831   6.702   9.357 -1.2656 -0.4333 -1.5125
  746MOL0     H98466   9.087   6.593   9.243 -0.7013  0.4293 -2.6552
  746MOL0     H98467   9.069   6.729   9.367  1.6048  1.2201 -1.0735
  746MOL0     H98468   8.999   6.740   9.078  3.6541 -2.0847 -0.7909
  746MOL0     H98469   8.992   6.869   9.196 -2.8445 -2.1705  0.0261
  746MOL0     H98470   9.415   6.832   9.105 -0.9468  3.2182 -0.8857
  746MOL0     H98471   8.496   6.460   9.327  1.1268 -2.1485  1.4738
  746MOL0     H98472   8.307   6.551   9.441  0.4430 -1.9583 -1.1266
  747MOL0     O98473  10.944   2.615   9.459  0.1854 -0.1603 -0.0823
  747MOL0     C98474  10.994   2.570   9.353  0.0859  0.4842  0.1876
  747MOL0     O98475  10.956   2.453   9.283 -0.2137 -0.4491 -0.1686
  747MOL0     C98476  10.846   2.383   9.333 -0.0910 -0.9239  0.2009
  747MOL0     C98477  10.852   2.241   9.341 -0.1779 -0.8973  0.4829
  747MOL0     C98478  10.742   2.164   9.360 -0.3581 -0.0196  0.2341
  747MOL0     C98479  10.622   2.232   9.401  0.5630  0.6265  0.1145
  747MOL0     O98480  10.511   2.163   9.447 -0.5707 -0.5313  0.7522
  747MOL0     C98481  10.543   2.044   9.527 -0.2999 -1.1661  0.0738
  747MOL0     C98482  10.510   2.069   9.668 -0.5777  0.1412 -0.9741
  747MOL0     C98483  10.571   2.193   9.734  0.2861 -0.0416 -0.0762
  747MOL0     C98484  10.533   2.191   9.885  0.0177 -0.0935 -1.0347
  747MOL0     C98485  10.592   2.318   9.952  0.0875  1.8692  0.1801
  747MOL0     C98486  10.542   2.331  10.103 -0.0129  0.5162 -0.2645
  747MOL0     C98487  10.603   2.462  10.173  0.1074  0.0544 -0.2070
  747MOL0     C98488  10.569   2.592  10.100  0.2070 -0.1472  0.2230
  747MOL0     N98489  10.421   2.617  10.103 -0.3560  0.4730 -0.5450
  747MOL0     C98490  10.331   2.597  10.003 -0.1125  0.3947 -0.3794
  747MOL0     C98491  10.213   2.627  10.063  0.1170 -0.3516 -0.0910
  747MOL0     C98492  10.080   2.656  10.005 -0.1078  0.0770 -0.7060
  747MOL0     C98493   9.969   2.594  10.082 -0.0562  0.5764  0.9624
  747MOL0     C98494   9.840   2.577  10.005 -0.0603 -0.9346  0.0882
  747MOL0     C98495   9.829   2.438   9.933  0.6912 -0.1135  0.7379
  747MOL0     O98496   9.698   2.424   9.865  0.2350 -0.1257 -0.0430
  747MOL0     C98497   9.601   2.359   9.938 -0.8065 -0.5468 -0.6511
  747MOL0     C98498   9.481   2.337   9.873  0.6475 -0.6507 -0.2459
  747MOL0     C98499   9.367   2.309   9.943  0.9370 -1.0313  0.7311
  747MOL0     C98500   9.361   2.303  10.077 -0.5247 -0.7642  0.3065
  747MOL0     C98501   9.236   2.279  10.143  1.3370  0.5405 -0.3770
  747MOL0     O98502   9.134   2.228  10.074  0.1076 -0.0819  0.3190
  747MOL0     C98503   9.023   2.163  10.124  0.5821  0.7917  1.2308
  747MOL0     C98504   8.995   2.129  10.256 -0.2978 -0.3751  0.1106
  747MOL0     C98505   8.875   2.068  10.291 -0.6729 -0.0131 -0.1012
  747MOL0     C98506   8.781   2.024  10.196 -0.4453 -0.3525 -0.6113
  747MOL0     O98507   8.672   1.953  10.244  0.2204  0.0718  0.6198
  747MOL0     C98508   8.575   1.911  10.146  1.2431 -0.0229  0.6473
  747MOL0     C98509   8.484   1.794  10.194 -0.1147  0.0924  0.5461
  747MOL0     C98510   8.360   1.793  10.106 -0.9060 -0.4494 -0.2313
  747MOL0     C98511   8.285   1.662  10.131  0.2023 -0.0753 -0.5602
  747MOL0     C98512   8.141   1.661  10.073 -0.3699 -1.0244 -0.0604
  747MOL0     C98513   8.150   1.677   9.920  0.1812 -0.2768 -0.2068
  747MOL0     C98514   8.005   1.687   9.863 -0.3168  0.2228  0.4403
  747MOL0     C98515   7.998   1.732   9.713  0.7796 -0.2479 -0.4784
  747MOL0    Cl98516   8.077   1.883   9.679  0.1529 -0.1660  0.1977
  747MOL0     C98517   8.807   2.058  10.063 -0.0855  0.3051 -0.0046
  747MOL0     C98518   8.923   2.122  10.033 -0.3993 -0.9029 -0.0627
  747MOL0     O98519   9.228   2.309  10.263 -0.2000 -0.7240  0.1348
  747MOL0     C98520   9.480   2.320  10.154  0.6320 -0.0781  0.3613
  747MOL0     C98521   9.598   2.353  10.084 -0.0692  0.2153  0.8916
  747MOL0     N98522  10.238   2.669  10.190  0.1720  0.3873 -0.9002
  747MOL0     N98523  10.364   2.654  10.219 -0.7051 -0.6088  0.3054
  747MOL0     C98524  10.610   2.371   9.396 -0.2682 -0.1778  0.3157
  747MOL0     C98525  10.723   2.442   9.361  0.1264  0.9337  1.0975
  747MOL0     C98526  11.102   2.650   9.281  0.6010  0.3394 -0.2100
  747MOL0     C98527  11.154   2.604   9.157 -0.2822 -0.0264 -0.7289
  747MOL0     C98528  11.264   2.664   9.088 -0.8374  0.2676 -0.1506
  747MOL0     C98529  11.340   2.758   9.159 -0.4550 -0.1768 -0.3803
  747MOL0     O98530  11.457   2.799   9.111 -0.2573  0.6329 -0.1588
  747MOL0     C98531  11.486   2.937   9.129  0.4921 -0.2549 -0.0450
  747MOL0     C98532  11.601   2.960   9.230  1.1467 -0.0499 -0.2461
  747MOL0     C98533  11.638   3.106   9.242  0.1561  0.2423  0.6243
  747MOL0     C98534  11.790   3.124   9.209  0.4348  0.5914  0.0976
  747MOL0     C98535  11.835   3.264   9.234 -0.5305  0.3954  0.0624
  747MOL0     C98536  11.890   3.372   9.241 -0.2124 -0.1681 -0.6802
  747MOL0     C98537  11.287   2.804   9.287  0.2217 -0.2836 -0.2698
  747MOL0     C98538  11.167   2.756   9.331 -0.3441  0.3513 -0.0456
  747MOL0     H98539  10.936   2.172   9.334 -1.2080 -2.3127  1.5376
  747MOL0     H98540  10.740   2.057   9.342 -1.0264  0.3211 -2.0103
  747MOL0     H98541  10.644   2.002   9.521 -0.6470 -1.8645 -1.0298
  747MOL0     H98542  10.489   1.956   9.493 -2.6947  1.2012 -2.7968
  747MOL0     H98543  10.564   1.987   9.716  0.3450  0.0270 -2.1533
  747MOL0     H98544  10.404   2.073   9.692 -0.2547  2.1723  0.3768
  747MOL0     H98545  10.528   2.280   9.685  0.8143  0.7026  0.7601
  747MOL0     H98546  10.678   2.199   9.712  0.9255 -1.2692  2.3386
  747MOL0     H98547  10.426   2.188   9.905  0.1116  2.4883  0.3752
  747MOL0     H98548  10.576   2.101   9.930 -0.3379 -0.0670 -0.6329
  747MOL0     H98549  10.547   2.391   9.885 -2.4161 -2.4244 -3.3641
  747MOL0     H98550  10.699   2.325   9.933  0.2303 -1.5448 -0.9877
  747MOL0     H98551  10.578   2.249  10.166 -0.9770  0.0631 -0.2850
  747MOL0     H98552  10.433   2.328  10.106 -0.0623  1.1951 -0.9993
  747MOL0     H98553  10.571   2.475  10.277 -0.0968  1.3827 -0.4203
  747MOL0     H98554  10.712   2.451  10.165 -0.0116 -2.0859  0.4422
  747MOL0     H98555  10.608   2.584   9.998  0.5049 -0.1404  0.3378
  747MOL0     H98556  10.620   2.673  10.153 -1.4742  0.9324  0.2823
  747MOL0     H98557  10.348   2.558   9.903 -0.2787 -1.8013  0.3734
  747MOL0     H98558  10.082   2.608   9.906 -0.5727 -0.2359 -0.5670
  747MOL0     H98559  10.061   2.763   9.999  0.8800  0.6742  3.4955
  747MOL0     H98560   9.958   2.643  10.180  2.3150 -0.6958  1.9332
  747MOL0     H98561  10.009   2.495  10.107 -0.3789  0.3253  0.5021
  747MOL0     H98562   9.754   2.604  10.067  0.0272 -3.0132  1.1848
  747MOL0     H98563   9.855   2.655   9.930  3.2522  0.6682  2.1648
  747MOL0     H98564   9.840   2.357  10.005  0.1020 -1.2993 -0.4770
  747MOL0     H98565   9.915   2.418   9.868 -0.7303  0.3867 -1.3993
  747MOL0     H98566   9.482   2.372   9.770 -1.1076  1.8098  0.4837
  747MOL0     H98567   9.271   2.293   9.893 -0.9224  0.6242  3.4916
  747MOL0     H98568   9.069   2.164  10.329 -2.6129  2.1871  1.4125
  747MOL0     H98569   8.871   2.042  10.397  2.6339  0.3575  0.2089
  747MOL0     H98570   8.624   1.875  10.055  0.2843  0.8418 -0.2344
  747MOL0     H98571   8.512   1.994  10.111  1.7136 -1.5829 -4.7745
  747MOL0     H98572   8.452   1.803  10.298  0.8163  1.9718  0.7155
  747MOL0     H98573   8.537   1.699  10.185 -1.7824 -0.9546  1.4029
  747MOL0     H98574   8.383   1.794   9.999 -1.2810 -1.2814 -0.3310
  747MOL0     H98575   8.291   1.873  10.133 -0.8439 -0.1463 -0.9474
  747MOL0     H98576   8.338   1.578  10.085 -3.0998 -2.4897 -0.2971
  747MOL0     H98577   8.280   1.634  10.237 -0.6902 -0.1414 -0.6085
  747MOL0     H98578   8.086   1.741  10.122  0.5582  0.1506 -0.8802
  747MOL0     H98579   8.099   1.563  10.099  1.9812 -2.6052 -1.7446
  747MOL0     H98580   8.201   1.588   9.880  2.3378  0.4606  0.7167
  747MOL0     H98581   8.200   1.772   9.900 -1.7332  1.1256  1.3419
  747MOL0     H98582   7.958   1.589   9.875  0.2449  0.0125  0.9563
  747MOL0     H98583   7.940   1.757   9.917 -2.0439 -1.0896  0.1526
  747MOL0     H98584   7.895   1.724   9.678  2.0529 -2.2030 -4.3124
  747MOL0     H98585   8.041   1.657   9.646  0.7684  0.3152 -1.1246
  747MOL0     H98586   8.725   2.041   9.994 -1.3609  1.7469  1.0944
  747MOL0     H98587   8.936   2.151   9.929  0.1464 -0.3485  0.1511
  747MOL0     H98588   9.479   2.313  10.262 -1.6995  0.3394  0.4106
  747MOL0     H98589   9.672   2.393  10.152 -0.9887  4.8115 -0.4652
  747MOL0     H98590  10.515   2.422   9.411 -1.9610 -2.8857 -0.3873
  747MOL0     H98591  10.716   2.550   9.349 -1.8448  1.0062  2.5029
  747MOL0     H98592  11.116   2.517   9.105  1.6344 -1.3531 -0.0088
  747MOL0     H98593  11.306   2.615   9.001 -0.4197 -1.2277  0.8591
  747MOL0     H98594  11.405   3.006   9.157  1.1108  0.6353 -0.4006
  747MOL0     H98595  11.522   2.965   9.030 -3.8952  0.4217 -1.7012
  747MOL0     H98596  11.561   2.918   9.322  1.2721  0.5772  0.0988
  747MOL0     H98597  11.689   2.899   9.204  2.2056  0.0100  2.8705
  747MOL0     H98598  11.615   3.133   9.345 -0.9363 -0.5281  0.5999
  747MOL0     H98599  11.574   3.168   9.178  1.2953  0.0465 -0.7700
  747MOL0     H98600  11.859   3.057   9.261  3.3985  3.3964  0.1084
  747MOL0     H98601  11.792   3.093   9.104  3.5635  2.2765 -0.4733
  747MOL0     H98602  11.938   3.467   9.250  0.1510 -0.5680  2.6545
  747MOL0     H98603  11.322   2.892   9.340 -1.2699 -1.1376  2.2901
  747MOL0     H98604  11.127   2.799   9.422  1.5143 -0.8190  1.4041
  748MOL0     O98605   8.463   1.171   8.375 -0.6119  0.3197 -0.0716
  748MOL0     C98606   8.533   1.083   8.434  0.3120 -0.2280 -0.6210
  748MOL0     O98607   8.491   0.956   8.447 -0.1384  0.6810  0.2849
  748MOL0     C98608   8.370   0.915   8.395 -0.5324 -0.0108  0.5959
  748MOL0     C98609   8.376   0.797   8.311 -1.3146  0.7533 -1.1712
  748MOL0     C98610   8.265   0.736   8.251  0.8134 -0.9536 -0.0389
  748MOL0     C98611   8.128   0.792   8.278 -0.5689  0.2889  0.9680
  748MOL0     O98612   8.013   0.738   8.215 -0.0935 -0.2091 -0.0056
  748MOL0     C98613   7.893   0.826   8.217  0.3582  0.0307  0.8624
  748MOL0     C98614   7.781   0.739   8.152  0.3142  0.3529  0.0559
  748MOL0     C98615   7.642   0.804   8.159 -0.8697 -0.0297  0.4201
  748MOL0     C98616   7.543   0.710   8.094  0.0687 -0.5057 -1.1377
  748MOL0     C98617   7.387   0.739   8.107  0.1900  0.4500  0.2097
  748MOL0     C98618   7.356   0.867   8.029  0.0311  0.6213 -0.6105
  748MOL0     C98619   7.210   0.909   8.057 -0.7967 -0.2585  0.8913
  748MOL0     C98620   7.112   0.833   7.962 -0.6055  0.0017 -0.4990
  748MOL0     N98621   6.984   0.890   7.992  0.3609 -0.6236  0.4614
  748MOL0     C98622   6.941   1.014   7.953  0.7241 -0.3296  0.5936
  748MOL0     C98623   6.812   1.017   7.992  0.5632 -0.3590 -0.0836
  748MOL0     C98624   6.709   1.133   7.979  0.1974  0.1770  0.0708
  748MOL0     C98625   6.637   1.168   8.111 -0.3304  0.6138 -0.0323
  748MOL0     C98626   6.530   1.283   8.097  0.6619  0.5207  0.2345
  748MOL0     C98627   6.463   1.303   8.235  0.2170 -0.0413 -0.7898
  748MOL0     O98628   6.372   1.413   8.222  0.2252 -0.0915  1.0412
  748MOL0     C98629   6.241   1.384   8.206 -0.0290  0.3309 -0.5607
  748MOL0     C98630   6.186   1.258   8.185 -1.0392 -0.3946  0.6976
  748MOL0     C98631   6.053   1.244   8.150  0.4481  0.7565  0.1564
  748MOL0     C98632   5.964   1.350   8.134  0.1534 -1.2061 -0.2011
  748MOL0     C98633   5.826   1.336   8.099 -0.3193  0.2354  1.1555
  748MOL0     O98634   5.776   1.434   8.022  0.0514 -0.0835  0.0058
  748MOL0     C98635   5.641   1.448   8.009 -0.2905 -0.3764 -0.2750
  748MOL0     C98636   5.557   1.459   8.123  0.5777 -0.2228 -0.1027
  748MOL0     C98637   5.419   1.474   8.098 -0.1640  0.2318  0.0417
  748MOL0     C98638   5.371   1.491   7.969  0.2921 -0.0989 -0.6823
  748MOL0     O98639   5.237   1.500   7.944 -1.1664 -0.8141  0.0182
  748MOL0     C98640   5.191   1.621   8.002  1.0523  0.2134 -0.6849
  748MOL0     C98641   5.050   1.650   7.947  0.0730  0.3140 -0.1817
  748MOL0     C98642   4.930   1.579   8.003  0.3558 -0.4849  1.0211
  748MOL0     C98643   4.899   1.605   8.157 -0.5666 -0.2554 -0.9292
  748MOL0     C98644   4.767   1.540   8.215  0.0004  0.1839 -0.1811
  748MOL0     C98645   4.643   1.584   8.133  0.3091 -0.3758 -0.8107
  748MOL0     C98646   4.522   1.531   8.208 -0.2296 -0.3145 -0.3069
  748MOL0     C98647   4.406   1.559   8.112 -0.2543 -0.1263 -0.0150
  748MOL0    Cl98648   4.397   1.743   8.087 -0.1157 -0.5003  0.2647
  748MOL0     C98649   5.454   1.481   7.860  0.5984  0.8074  0.7676
  748MOL0     C98650   5.592   1.461   7.878 -0.0422 -0.3947 -0.6111
  748MOL0     O98651   5.763   1.237   8.129  0.0828  0.5607 -0.9533
  748MOL0     C98652   6.018   1.478   8.159 -0.3232 -0.6177  0.1742
  748MOL0     C98653   6.154   1.493   8.200 -0.4270 -0.0633  0.0245
  748MOL0     N98654   6.787   0.892   8.043  0.5032 -0.4046  0.2887
  748MOL0     N98655   6.890   0.830   8.059  0.6651 -0.1447 -0.2449
  748MOL0     C98656   8.125   0.913   8.352  0.2619  0.5655  0.4980
  748MOL0     C98657   8.238   0.970   8.415 -0.5648 -0.0246  0.6341
  748MOL0     C98658   8.664   1.127   8.486  0.3013  0.2625  0.4030
  748MOL0     C98659   8.759   1.033   8.518  0.6570 -0.3507 -0.7941
  748MOL0     C98660   8.882   1.067   8.574  0.4409 -0.9892  0.3931
  748MOL0     C98661   8.920   1.203   8.586  1.2683 -0.5155  0.1882
  748MOL0     O98662   9.040   1.240   8.643  0.1017 -1.3997 -0.2516
  748MOL0     C98663   9.150   1.148   8.651  1.0478 -0.5028 -0.2452
  748MOL0     C98664   9.157   1.084   8.789 -0.2309  0.7323 -0.0368
  748MOL0     C98665   9.193   1.189   8.898 -0.2332  0.7075  0.0247
  748MOL0     C98666   9.167   1.130   9.043  0.1375  0.6100 -0.2686
  748MOL0     C98667   9.264   1.025   9.089  0.5460 -0.5946  1.4534
  748MOL0     C98668   9.330   0.930   9.130  0.3188 -0.1533 -0.7991
  748MOL0     C98669   8.830   1.300   8.539 -0.7037 -0.8015 -0.1068
  748MOL0     C98670   8.707   1.262   8.494  1.0811 -0.2324 -0.4369
  748MOL0     H98671   8.473   0.749   8.307 -1.2929  0.6473  0.1521
  748MOL0     H98672   8.276   0.660   8.175  1.9227  1.6205 -2.6249
  748MOL0     H98673   7.904   0.920   8.163  1.3268  0.1284  1.2066
  748MOL0     H98674   7.866   0.844   8.321  0.2830 -3.1672  1.5278
  748MOL0     H98675   7.779   0.641   8.202 -2.9910  0.7178  0.8365
  748MOL0     H98676   7.817   0.716   8.052 -0.4112  0.8408 -0.3257
  748MOL0     H98677   7.636   0.900   8.107 -0.2926  0.1777  0.7250
  748MOL0     H98678   7.615   0.825   8.263  0.0100  0.5671  0.5408
  748MOL0     H98679   7.573   0.710   7.989  0.3663  3.1529 -1.1689
  748MOL0     H98680   7.564   0.611   8.136 -1.1103 -0.6921 -0.9543
  748MOL0     H98681   7.345   0.729   8.207  0.1939  2.5428  0.4639
  748MOL0     H98682   7.339   0.658   8.051  0.4559  1.4173 -1.5039
  748MOL0     H98683   7.360   0.844   7.922 -1.0722  0.8527 -0.7178
  748MOL0     H98684   7.435   0.936   8.061  0.9499 -0.7197  0.1077
  748MOL0     H98685   7.189   0.904   8.164  0.8444  2.9432  1.4670
  748MOL0     H98686   7.192   1.013   8.031 -3.0166 -0.4696  1.3871
  748MOL0     H98687   7.096   0.728   7.989  1.5733 -0.4788 -0.8647
  748MOL0     H98688   7.134   0.831   7.855 -2.3631  0.4689 -0.9028
  748MOL0     H98689   6.994   1.083   7.888  2.3402 -0.0871  2.1066
  748MOL0     H98690   6.623   1.111   7.914  0.8790  0.9882 -1.1523
  748MOL0     H98691   6.756   1.226   7.945  0.4626  0.5295  1.3749
  748MOL0     H98692   6.712   1.212   8.178  0.3255 -2.0614  1.1172
  748MOL0     H98693   6.601   1.079   8.164 -2.4828  1.6452  0.3536
  748MOL0     H98694   6.566   1.371   8.042  0.9311 -0.8351 -1.8711
  748MOL0     H98695   6.444   1.240   8.045  0.4911 -1.2380  1.8731
  748MOL0     H98696   6.540   1.348   8.298 -1.3180  1.2318  0.2463
  748MOL0     H98697   6.423   1.210   8.276 -1.5313  2.1392  2.9519
  748MOL0     H98698   6.252   1.172   8.185  3.1798  2.4840 -0.7152
  748MOL0     H98699   6.020   1.147   8.115  0.9534 -0.0799  1.8829
  748MOL0     H98700   5.588   1.441   8.226 -0.1293 -0.2738  0.1033
  748MOL0     H98701   5.358   1.481   8.188  0.0315  0.3867  0.1611
  748MOL0     H98702   5.249   1.709   7.972  0.5817  0.9973  0.5990
  748MOL0     H98703   5.182   1.615   8.111 -0.6643 -1.7570 -0.8564
  748MOL0     H98704   5.053   1.638   7.838 -0.0423  1.0827 -0.2736
  748MOL0     H98705   5.043   1.759   7.946  2.6725  0.5439 -0.8787
  748MOL0     H98706   4.935   1.473   7.974 -0.8948 -0.8142  1.9409
  748MOL0     H98707   4.850   1.617   7.940  1.4543  0.0797 -0.0703
  748MOL0     H98708   4.981   1.560   8.215  0.9118  1.8447 -1.2763
  748MOL0     H98709   4.912   1.712   8.175  0.7618 -0.7777  1.7001
  748MOL0     H98710   4.754   1.563   8.321  0.1243  1.0794 -0.3475
  748MOL0     H98711   4.775   1.432   8.200  0.7123  0.4972 -2.3592
  748MOL0     H98712   4.637   1.535   8.036  0.5508  0.7588 -1.4160
  748MOL0     H98713   4.658   1.690   8.110 -0.1044  0.1609  1.1194
  748MOL0     H98714   4.544   1.426   8.229  1.7097  0.5066  2.2993
  748MOL0     H98715   4.502   1.580   8.303 -3.9315 -0.0235 -1.0975
  748MOL0     H98716   4.314   1.515   8.151  0.6098 -2.0694 -0.0496
  748MOL0     H98717   4.425   1.517   8.013  0.2622 -2.1631  0.8725
  748MOL0     H98718   5.405   1.469   7.764 -1.8570  0.2651  1.9939
  748MOL0     H98719   5.653   1.440   7.790  0.9855 -1.0665  0.2499
  748MOL0     H98720   5.962   1.570   8.145  1.0387  0.0533 -1.2237
  748MOL0     H98721   6.192   1.588   8.235 -0.6670  0.2718 -0.5923
  748MOL0     H98722   8.033   0.962   8.383 -0.1686 -0.2071  0.4957
  748MOL0     H98723   8.235   1.054   8.484  0.2973  0.4482  0.1269
  748MOL0     H98724   8.728   0.929   8.519 -0.3862 -0.0472  0.9238
  748MOL0     H98725   8.948   0.985   8.601 -0.1415 -2.7129 -2.8616
  748MOL0     H98726   9.231   1.222   8.649  0.3191  0.3528  0.5713
  748MOL0     H98727   9.158   1.084   8.563  0.3655 -0.7964 -0.0943
  748MOL0     H98728   9.068   1.024   8.815 -1.4389  1.1856 -2.7893
  748MOL0     H98729   9.245   1.020   8.780 -2.2480 -1.9788 -3.5134
  748MOL0     H98730   9.133   1.280   8.889  0.2105  0.9226 -0.7952
  748MOL0     H98731   9.301   1.208   8.904 -0.2187  0.3781  1.0752
  748MOL0     H98732   9.194   1.211   9.111  1.9347  2.5114 -2.9941
  748MOL0     H98733   9.064   1.096   9.053  0.6154 -0.7387  0.3605
  748MOL0     H98734   9.392   0.848   9.162  0.5548  0.5549  0.6205
  748MOL0     H98735   8.850   1.406   8.548  0.1232 -1.0835  1.9935
  748MOL0     H98736   8.644   1.344   8.461 -2.7078 -3.2778 -1.5227
  749MOL0     O98737   6.505  10.029   9.065  0.2474  0.6819 -0.3798
  749MOL0     C98738   6.487  10.143   9.119  0.1290  0.7979 -0.5110
  749MOL0     O98739   6.364  10.195   9.157 -0.4063  0.2810 -0.0458
  749MOL0     C98740   6.239  10.152   9.096 -0.0824  0.3014 -0.2328
  749MOL0     C98741   6.231  10.081   8.977 -0.3191 -0.6030  0.1749
  749MOL0     C98742   6.106  10.045   8.934 -0.1926 -0.4446 -0.3905
  749MOL0     C98743   5.986  10.064   9.004 -0.5299 -0.2048 -0.6793
  749MOL0     O98744   5.861  10.031   8.956 -0.2093  0.3079  0.1035
  749MOL0     C98745   5.844   9.890   8.932  0.2291 -0.8150  0.4782
  749MOL0     C98746   5.720   9.848   9.017 -0.5142 -0.5278 -0.2821
  749MOL0     C98747   5.747   9.900   9.164  1.8003  0.0850 -0.7249
  749MOL0     C98748   5.669   9.824   9.273 -0.6557  0.3542  0.0147
  749MOL0     C98749   5.710   9.690   9.334 -1.2141 -0.3928 -0.1754
  749MOL0     C98750   5.609   9.646   9.451  0.2106  0.2125 -0.0243
  749MOL0     C98751   5.607   9.491   9.490  0.1489  0.4688 -0.3330
  749MOL0     C98752   5.700   9.446   9.604  0.5668  0.3410  1.0747
  749MOL0     N98753   5.836   9.448   9.550  0.2232 -0.2365 -0.2690
  749MOL0     C98754   5.896   9.347   9.491  0.1709 -0.0404  0.6867
  749MOL0     C98755   6.024   9.378   9.499 -0.0865  0.1519 -0.0008
  749MOL0     C98756   6.129   9.295   9.445 -0.1860 -0.9502 -0.7072
  749MOL0     C98757   6.153   9.309   9.292  0.4670 -0.0580 -0.3058
  749MOL0     C98758   6.249   9.211   9.243 -0.8629  0.2381 -0.6151
  749MOL0     C98759   6.368   9.285   9.178 -0.1417 -0.2170 -0.3333
  749MOL0     O98760   6.428   9.354   9.282  0.2646  0.1998  0.2604
  749MOL0     C98761   6.553   9.395   9.269 -0.2147  0.5977 -1.3505
  749MOL0     C98762   6.599   9.499   9.360  0.7618 -0.5623 -0.0926
  749MOL0     C98763   6.732   9.547   9.353 -1.1035 -0.1176 -0.3292
  749MOL0     C98764   6.821   9.487   9.262 -0.1149  0.1517 -0.1540
  749MOL0     C98765   6.963   9.521   9.254  0.1613  0.0250 -0.0358
  749MOL0     O98766   7.033   9.497   9.133 -0.0154  0.0250  0.0376
  749MOL0     C98767   7.157   9.559   9.123  0.2082 -0.3720  0.3364
  749MOL0     C98768   7.277   9.509   9.182 -0.5436 -0.4228  0.3130
  749MOL0     C98769   7.394   9.578   9.162  0.0849 -0.6409 -0.7481
  749MOL0     C98770   7.396   9.682   9.076  0.5116 -0.3232 -0.3315
  749MOL0     O98771   7.508   9.753   9.048  0.0825 -0.3699  0.3479
  749MOL0     C98772   7.635   9.728   9.115  0.6238  1.3936  0.8611
  749MOL0     C98773   7.694   9.865   9.130  0.7258  0.2336  0.6563
  749MOL0     C98774   7.729   9.932   8.994  0.0010  0.2519  0.1297
  749MOL0     C98775   7.820  10.058   9.011  0.1539  0.7267 -0.3895
  749MOL0     C98776   7.947  10.025   9.082 -0.0463  0.6890  0.8282
  749MOL0     C98777   8.035  10.144   9.108  0.6890 -0.4848 -0.5083
  749MOL0     C98778   8.094  10.210   8.980  0.1611  0.4569  0.1435
  749MOL0     C98779   8.169  10.341   9.020 -0.2434  0.4802 -0.2314
  749MOL0    Cl98780   8.324  10.308   9.083  0.8546  0.1264 -0.3643
  749MOL0     C98781   7.274   9.737   9.027 -0.0158 -0.0257 -0.3097
  749MOL0     C98782   7.158   9.673   9.049  0.4892 -1.0327  1.5270
  749MOL0     O98783   7.013   9.569   9.351  0.1249 -0.3062  0.1058
  749MOL0     C98784   6.775   9.393   9.170 -0.1960  0.1097  0.0023
  749MOL0     C98785   6.643   9.350   9.172  0.1236 -0.9510  0.6082
  749MOL0     N98786   6.054   9.494   9.558 -0.4088 -0.5175  0.2625
  749MOL0     N98787   5.932   9.533   9.596 -0.2219 -1.0847 -0.0871
  749MOL0     C98788   6.003  10.144   9.123  0.6132 -0.2018 -0.4165
  749MOL0     C98789   6.124  10.186   9.166  0.1865 -0.1331 -0.0579
  749MOL0     C98790   6.608  10.208   9.170 -0.6659  0.0300 -0.9822
  749MOL0     C98791   6.735  10.153   9.153  0.6717  0.1109 -0.2875
  749MOL0     C98792   6.850  10.232   9.169 -0.0926 -0.1777  0.6966
  749MOL0     C98793   6.847  10.357   9.225 -0.3999 -0.6156  0.5171
  749MOL0     O98794   6.962  10.440   9.237  0.1039 -0.1816 -0.2078
  749MOL0     C98795   7.083  10.394   9.199 -0.2972  0.4519  0.4398
  749MOL0     C98796   7.183  10.501   9.232 -0.7516  0.4559 -0.0877
  749MOL0     C98797   7.325  10.446   9.215  0.8096  1.5490 -0.3298
  749MOL0     C98798   7.410  10.563   9.187 -0.9164  0.0292  0.0274
  749MOL0     C98799   7.392  10.677   9.272 -0.5610  0.4028  0.5576
  749MOL0     C98800   7.390  10.775   9.342 -0.0438  0.1248 -0.0516
  749MOL0     C98801   6.726  10.416   9.243  0.9503  0.7409  0.3067
  749MOL0     C98802   6.607  10.340   9.216  0.5084 -0.5004  0.8623
  749MOL0     H98803   6.316  10.050   8.917 -0.0195  0.1318  0.2125
  749MOL0     H98804   6.108   9.999   8.836 -1.8650  0.4071 -0.8722
  749MOL0     H98805   5.927   9.824   8.956 -0.2238 -1.0904  1.3091
  749MOL0     H98806   5.829   9.873   8.824 -0.8919  1.6921  0.1636
  749MOL0     H98807   5.702   9.740   9.020  0.3833 -0.6961  3.1742
  749MOL0     H98808   5.638   9.892   8.958  1.2584  1.1950 -1.6159
  749MOL0     H98809   5.710  10.003   9.165  0.1013 -0.3811 -3.5478
  749MOL0     H98810   5.854   9.895   9.183  1.9879  0.4033 -1.6580
  749MOL0     H98811   5.667   9.895   9.357  0.6532 -1.1707  1.3898
  749MOL0     H98812   5.574   9.808   9.222 -1.1363 -0.3230  1.0855
  749MOL0     H98813   5.807   9.701   9.383 -0.2491  1.1685 -2.2386
  749MOL0     H98814   5.730   9.613   9.259  2.6311 -0.1326  0.3928
  749MOL0     H98815   5.515   9.689   9.416  1.4889  2.1442 -1.3184
  749MOL0     H98816   5.635   9.703   9.541 -0.8549 -0.7602  0.9207
  749MOL0     H98817   5.505   9.460   9.515  0.0194  2.2691  1.6969
  749MOL0     H98818   5.622   9.427   9.403 -1.9291  0.3675 -0.6636
  749MOL0     H98819   5.668   9.344   9.623  0.8002 -0.3668 -1.8601
  749MOL0     H98820   5.695   9.512   9.691  0.2081  3.1639 -0.9411
  749MOL0     H98821   5.856   9.274   9.421 -0.1628  1.8198 -1.2045
  749MOL0     H98822   6.112   9.189   9.467  3.0959 -1.7412 -1.4550
  749MOL0     H98823   6.221   9.326   9.495 -0.1050  0.3054 -1.5815
  749MOL0     H98824   6.179   9.409   9.257  3.3254 -0.9506 -0.9421
  749MOL0     H98825   6.058   9.285   9.243  0.2573  0.9820 -0.4480
  749MOL0     H98826   6.280   9.148   9.326 -2.8973  1.5985  1.2869
  749MOL0     H98827   6.204   9.147   9.167 -0.2314 -0.5364 -0.3410
  749MOL0     H98828   6.341   9.367   9.111  0.4839  1.1076  0.9722
  749MOL0     H98829   6.427   9.215   9.118 -0.2673 -0.2538 -0.4155
  749MOL0     H98830   6.537   9.545   9.437 -0.9683  2.9561 -3.2398
  749MOL0     H98831   6.772   9.623   9.419  0.9440 -1.1194 -0.3211
  749MOL0     H98832   7.295   9.411   9.226  0.3896 -1.3084 -1.8708
  749MOL0     H98833   7.484   9.533   9.202 -0.3591 -1.6286 -0.8317
  749MOL0     H98834   7.701   9.663   9.057 -1.2473 -0.0432  0.2415
  749MOL0     H98835   7.613   9.681   9.211 -3.6489 -1.2835 -1.1268
  749MOL0     H98836   7.775   9.847   9.202  1.5239 -2.7271 -0.8062
  749MOL0     H98837   7.615   9.928   9.171 -1.2153  0.9136 -3.6515
  749MOL0     H98838   7.638   9.941   8.934  0.2649 -0.9794 -0.4951
  749MOL0     H98839   7.788   9.862   8.935 -0.2718 -1.2905  1.6047
  749MOL0     H98840   7.840  10.097   8.911  0.8161 -2.0436 -1.4171
  749MOL0     H98841   7.776  10.139   9.071  1.4829  0.2661  1.2928
  749MOL0     H98842   7.993   9.951   9.015 -1.4871  1.9090 -1.6203
  749MOL0     H98843   7.932   9.973   9.177  1.2392 -0.5493  0.4015
  749MOL0     H98844   8.110  10.110   9.180 -1.2906 -1.2714  1.2847
  749MOL0     H98845   7.967  10.209   9.164 -0.9121 -0.7778 -2.0451
  749MOL0     H98846   8.173  10.154   8.929  0.8751  2.7149 -1.3576
  749MOL0     H98847   8.013  10.222   8.908 -0.1857 -1.3124  0.1779
  749MOL0     H98848   8.115  10.397   9.096  1.8216  0.3720  1.3999
  749MOL0     H98849   8.188  10.405   8.933  0.0702 -0.8545 -1.1843
  749MOL0     H98850   7.276   9.835   8.980 -1.7037  1.0849  1.7599
  749MOL0     H98851   7.071   9.699   8.989  1.1374 -2.6702 -0.2236
  749MOL0     H98852   6.842   9.362   9.090  1.1433  1.2079  0.6638
  749MOL0     H98853   6.608   9.281   9.096  0.8179  0.0509 -0.6570
  749MOL0     H98854   5.918  10.167   9.187  1.6458 -0.1823  0.9857
  749MOL0     H98855   6.134  10.247   9.255  3.0439 -0.0841 -0.3133
  749MOL0     H98856   6.745  10.062   9.096 -4.4107 -0.1923 -1.2018
  749MOL0     H98857   6.944  10.194   9.129 -1.1086 -1.0504 -0.9858
  749MOL0     H98858   7.085  10.374   9.091 -0.5116  2.2719  0.0662
  749MOL0     H98859   7.095  10.297   9.247 -3.4707 -0.7959 -0.9444
  749MOL0     H98860   7.166  10.589   9.169 -0.8178 -0.5777 -1.5705
  749MOL0     H98861   7.168  10.524   9.338 -2.4112  1.9384 -0.5830
  749MOL0     H98862   7.325  10.368   9.138 -0.4656  2.0291 -0.8500
  749MOL0     H98863   7.345  10.401   9.312 -0.7815 -0.1705 -0.7423
  749MOL0     H98864   7.515  10.532   9.189 -0.2393  2.1324  0.7260
  749MOL0     H98865   7.384  10.598   9.086 -0.2603 -0.0397 -0.1703
  749MOL0     H98866   7.400  10.866   9.398  0.9225  0.6383 -1.0225
  749MOL0     H98867   6.724  10.523   9.260  3.2674  1.7423 -4.0656
  749MOL0     H98868   6.513  10.394   9.215  0.7653 -0.0229 -0.7568
  750MOL0     O98869   0.312   2.751   5.771  0.1226  0.0284 -0.4784
  750MOL0     C98870   0.364   2.729   5.663  0.3950  0.1261  0.8528
  750MOL0     O98871   0.294   2.716   5.542 -0.1313  0.0478 -0.1545
  750MOL0     C98872   0.182   2.788   5.510  0.1878 -0.3091  0.7011
  750MOL0     C98873   0.085   2.733   5.423 -0.0735 -0.1333  0.4316
  750MOL0     C98874  -0.029   2.801   5.392 -0.2996  0.9085  0.5552
  750MOL0     C98875  -0.079   2.904   5.466 -1.1119 -1.0262  0.2100
  750MOL0     O98876  -0.206   2.943   5.463 -0.6119 -0.0195 -0.1451
  750MOL0     C98877  -0.265   2.999   5.578  0.2689  0.0788  0.3099
  750MOL0     C98878  -0.416   3.020   5.553 -0.4521 -0.9641 -0.5542
  750MOL0     C98879  -0.497   2.903   5.512 -0.0662 -0.2496  1.1816
  750MOL0     C98880  -0.640   2.944   5.467 -0.3164 -0.3202 -0.0528
  750MOL0     C98881  -0.720   2.987   5.593 -0.3265 -1.0079  0.7550
  750MOL0     C98882  -0.853   3.056   5.542  0.9928 -0.4740 -0.6280
  750MOL0     C98883  -0.949   2.963   5.470  0.0684  0.5110 -0.1338
  750MOL0     C98884  -1.096   3.017   5.474  0.5370  0.0258  0.0294
  750MOL0     N98885  -1.195   2.915   5.433 -0.7454 -0.0801 -0.4294
  750MOL0     C98886  -1.263   2.827   5.506 -0.1929  0.4251 -0.7363
  750MOL0     C98887  -1.345   2.774   5.415  0.0775  0.2394  0.3638
  750MOL0     C98888  -1.445   2.666   5.449  0.4378 -1.4794  0.0158
  750MOL0     C98889  -1.574   2.725   5.514 -0.5453  0.6939 -0.4634
  750MOL0     C98890  -1.691   2.620   5.495  1.3405  1.1309 -0.6761
  750MOL0     C98891  -1.846   2.669   5.504  0.6949  0.4138  0.0076
  750MOL0     O98892  -1.886   2.746   5.617 -0.4429 -0.6447  0.2318
  750MOL0     C98893  -2.009   2.805   5.612  0.1497 -0.0129  0.6645
  750MOL0     C98894  -2.051   2.931   5.570  0.3262  0.1163 -0.1877
  750MOL0     C98895  -2.180   2.974   5.558  0.1635 -0.2032 -0.4146
  750MOL0     C98896  -2.287   2.883   5.573 -0.1665  0.7104 -0.6256
  750MOL0     C98897  -2.421   2.937   5.564  0.6493 -0.0833  0.9632
  750MOL0     O98898  -2.435   3.021   5.456 -0.0824  0.3781 -1.0304
  750MOL0     C98899  -2.549   3.091   5.459  0.2813 -0.3275  0.6922
  750MOL0     C98900  -2.646   3.055   5.374 -0.4150  0.8210  0.2464
  750MOL0     C98901  -2.767   3.123   5.368 -0.2115 -0.4892 -0.0107
  750MOL0     C98902  -2.796   3.221   5.468 -0.6140  0.2858 -0.0383
  750MOL0     O98903  -2.913   3.288   5.486 -0.8649  0.1490 -0.5932
  750MOL0     C98904  -3.036   3.264   5.418 -0.6272  0.0941  0.4023
  750MOL0     C98905  -3.042   3.335   5.278 -1.1754  0.3379 -0.1194
  750MOL0     C98906  -3.177   3.306   5.213 -0.7675  0.3775 -0.5553
  750MOL0     C98907  -3.183   3.373   5.075  0.2312 -1.0404  0.3223
  750MOL0     C98908  -3.318   3.351   5.009  0.4428 -0.2500 -0.6260
  750MOL0     C98909  -3.431   3.435   5.076 -0.4767 -0.0466  0.7385
  750MOL0     C98910  -3.562   3.392   5.000 -0.1089  0.0778 -0.0711
  750MOL0     C98911  -3.675   3.476   5.050  0.1034  0.0683  1.0139
  750MOL0    Cl98912  -3.718   3.410   5.209 -0.0985  0.1293  0.1317
  750MOL0     C98913  -2.689   3.257   5.554 -0.3891 -0.5937  0.1071
  750MOL0     C98914  -2.572   3.186   5.557  0.6134  1.2738 -0.0733
  750MOL0     O98915  -2.502   2.912   5.648  0.8346  1.1521 -0.4290
  750MOL0     C98916  -2.250   2.754   5.612  0.3943  0.0277  1.1948
  750MOL0     C98917  -2.113   2.718   5.623 -0.2321 -0.0963 -0.0124
  750MOL0     N98918  -1.322   2.815   5.287 -0.4391 -0.3803 -0.3264
  750MOL0     N98919  -1.227   2.905   5.298 -0.6207 -0.9131 -0.3627
  750MOL0     C98920   0.016   2.964   5.557  0.5334  0.2553 -0.1239
  750MOL0     C98921   0.151   2.906   5.572 -0.4708 -0.7316  0.3878
  750MOL0     C98922   0.499   2.683   5.666 -0.6985  0.3123 -0.2357
  750MOL0     C98923   0.575   2.682   5.786  0.2813 -0.0811 -0.3083
  750MOL0     C98924   0.715   2.664   5.779 -0.1031 -0.4536  0.2275
  750MOL0     C98925   0.785   2.638   5.655  0.4733 -0.2169 -0.1904
  750MOL0     O98926   0.918   2.623   5.650  0.2179  0.6823  0.5930
  750MOL0     C98927   0.988   2.679   5.538 -0.7065  0.0127 -0.9801
  750MOL0     C98928   1.108   2.766   5.578  0.6739  0.1651  0.0872
  750MOL0     C98929   1.240   2.693   5.602 -0.9308  0.4002  0.3430
  750MOL0     C98930   1.223   2.593   5.716 -0.2506  0.8134  1.0049
  750MOL0     C98931   1.350   2.545   5.768 -0.1978 -0.1731  1.2018
  750MOL0     C98932   1.457   2.525   5.830 -0.0797 -0.1594  0.8266
  750MOL0     C98933   0.701   2.620   5.545 -1.0844 -0.6330  0.3821
  750MOL0     C98934   0.567   2.649   5.549  0.3187 -1.0921 -0.0746
  750MOL0     H98935   0.103   2.632   5.387 -2.4573 -1.0930  1.6960
  750MOL0     H98936  -0.093   2.746   5.323  0.5024  0.8987 -0.1907
  750MOL0     H98937  -0.220   3.095   5.603  2.3461 -1.1762  1.7009
  750MOL0     H98938  -0.257   2.933   5.666  2.1624  2.3400  1.9659
  750MOL0     H98939  -0.407   3.093   5.473  1.2624  0.0597  0.5195
  750MOL0     H98940  -0.450   3.069   5.645  4.6558  0.8335  0.7100
  750MOL0     H98941  -0.506   2.829   5.593  1.8734 -1.0070  0.7758
  750MOL0     H98942  -0.446   2.857   5.426 -0.7611  0.9419  0.1101
  750MOL0     H98943  -0.631   3.030   5.401 -0.1615  0.6589  1.1982
  750MOL0     H98944  -0.691   2.864   5.413  0.9949 -0.5528 -0.9964
  750MOL0     H98945  -0.664   3.063   5.648  0.4849  0.1653 -1.5918
  750MOL0     H98946  -0.733   2.896   5.653 -1.0924 -1.9974 -0.8354
  750MOL0     H98947  -0.815   3.143   5.487  1.7485 -1.5343 -1.8308
  750MOL0     H98948  -0.900   3.104   5.628 -0.2591  1.0625 -2.0856
  750MOL0     H98949  -0.917   2.950   5.366  1.3015  0.2394  0.2634
  750MOL0     H98950  -0.942   2.863   5.513 -2.9885 -0.3393 -1.3082
  750MOL0     H98951  -1.116   3.111   5.420 -0.3121  0.1603  0.5449
  750MOL0     H98952  -1.108   3.033   5.582  0.6952 -0.3781  0.1092
  750MOL0     H98953  -1.254   2.808   5.612  1.9478  0.2183 -0.8995
  750MOL0     H98954  -1.398   2.585   5.506 -1.7208 -1.7923  1.4940
  750MOL0     H98955  -1.474   2.620   5.354  0.9230 -1.1671 -0.2898
  750MOL0     H98956  -1.602   2.810   5.451 -0.0615  1.6593  0.5907
  750MOL0     H98957  -1.558   2.758   5.618  1.2843 -2.8050  0.5038
  750MOL0     H98958  -1.683   2.567   5.400  1.4318 -0.9785  0.4389
  750MOL0     H98959  -1.675   2.541   5.570  1.7949  2.2042  0.3854
  750MOL0     H98960  -1.901   2.575   5.504  0.9446  0.1680  2.8731
  750MOL0     H98961  -1.866   2.723   5.411 -1.4508  0.7586  0.6085
  750MOL0     H98962  -1.970   2.996   5.538  0.1653  0.0502 -0.7294
  750MOL0     H98963  -2.206   3.074   5.523  2.1196  0.7668  0.7390
  750MOL0     H98964  -2.636   2.971   5.306 -0.7569 -0.3991  1.6473
  750MOL0     H98965  -2.838   3.090   5.293  2.3014  1.5914 -3.5970
  750MOL0     H98966  -3.110   3.312   5.483 -0.8977  0.6649 -0.3177
  750MOL0     H98967  -3.059   3.157   5.409  1.3348 -0.4028  0.7959
  750MOL0     H98968  -2.959   3.303   5.214 -0.6646  0.1316  0.6289
  750MOL0     H98969  -3.020   3.441   5.297  2.0402 -0.2578 -0.0388
  750MOL0     H98970  -3.247   3.333   5.293 -1.4886 -1.8562 -0.3655
  750MOL0     H98971  -3.181   3.199   5.190  1.9939 -0.4028  1.9203
  750MOL0     H98972  -3.170   3.482   5.076 -0.5055 -0.9464  1.4456
  750MOL0     H98973  -3.109   3.321   5.014 -0.8575 -1.8763 -0.3234
  750MOL0     H98974  -3.347   3.246   5.012 -0.1240 -0.2234 -2.9746
  750MOL0     H98975  -3.304   3.374   4.903  0.2560 -0.1737 -0.6341
  750MOL0     H98976  -3.405   3.540   5.059  1.6349 -0.7744 -0.9191
  750MOL0     H98977  -3.451   3.416   5.182 -4.2308 -0.7354  0.0680
  750MOL0     H98978  -3.554   3.407   4.892 -0.3540 -0.9481 -0.2403
  750MOL0     H98979  -3.587   3.286   5.008 -2.5297  0.5513 -0.6084
  750MOL0     H98980  -3.765   3.462   4.989  0.5840  2.5561 -0.3857
  750MOL0     H98981  -3.662   3.584   5.066 -1.8668  0.4714  0.1111
  750MOL0     H98982  -2.704   3.339   5.624 -1.8252 -0.4118 -0.3801
  750MOL0     H98983  -2.500   3.208   5.636  0.0307 -1.6739  1.4060
  750MOL0     H98984  -2.330   2.686   5.637  0.3061 -0.9491 -1.4829
  750MOL0     H98985  -2.088   2.617   5.656  0.0018  0.4401  1.5409
  750MOL0     H98986  -0.006   3.055   5.612  0.3901  0.8952 -1.1985
  750MOL0     H98987   0.221   2.943   5.646 -0.6234  0.0343  0.1600
  750MOL0     H98988   0.527   2.701   5.881  0.0164 -0.7392 -0.3029
  750MOL0     H98989   0.765   2.677   5.875  0.4844 -1.0843  0.0121
  750MOL0     H98990   0.923   2.747   5.482 -0.5736  1.6240  0.7443
  750MOL0     H98991   1.016   2.592   5.477  2.4715 -0.7934  1.3820
  750MOL0     H98992   1.122   2.840   5.499  3.0358  0.4911  0.7282
  750MOL0     H98993   1.088   2.821   5.670 -0.8117 -0.1078 -0.0521
  750MOL0     H98994   1.320   2.767   5.610 -0.2738 -0.1324 -1.0073
  750MOL0     H98995   1.258   2.640   5.508 -1.4758  1.5796 -0.4543
  750MOL0     H98996   1.164   2.642   5.795 -0.1203  2.4313  0.1404
  750MOL0     H98997   1.177   2.501   5.679  2.1732 -0.1172  0.1669
  750MOL0     H98998   1.542   2.500   5.889  0.0428 -1.3603  0.1823
  750MOL0     H98999   0.746   2.596   5.449 -0.4812 -1.8960  0.9607
  750MOL0     H99000   0.511   2.637   5.457  0.1534  0.9480 -0.2922
  751MOL0     O99001   6.116   3.223   9.837 -0.3126  0.0556 -0.4321
  751MOL0     C99002   6.077   3.243   9.948 -0.3261  0.2549 -0.6779
  751MOL0     O99003   6.160   3.277  10.049  0.4523  0.0463  0.5405
  751MOL0     C99004   6.293   3.259  10.029 -0.1866 -0.0531 -0.5888
  751MOL0     C99005   6.355   3.133  10.010 -0.7989 -0.1220 -0.0575
  751MOL0     C99006   6.494   3.131  10.012 -0.2381 -0.0317 -0.0371
  751MOL0     C99007   6.572   3.243  10.013  0.0973 -0.0609 -0.4012
  751MOL0     O99008   6.707   3.240   9.982 -0.3372 -0.1165 -0.4719
  751MOL0     C99009   6.793   3.135  10.039 -0.1696 -0.5051 -0.6229
  751MOL0     C99010   6.786   3.140  10.197 -0.2964 -0.1289  0.4361
  751MOL0     C99011   6.894   3.039  10.231  0.4822  0.9576 -1.1874
  751MOL0     C99012   6.878   2.992  10.377  0.2929 -0.5428 -0.0318
  751MOL0     C99013   6.971   2.881  10.405 -0.1800 -0.1618 -0.3642
  751MOL0     C99014   6.978   2.851  10.552 -0.4233 -0.2255  0.4029
  751MOL0     C99015   6.849   2.784  10.609  0.3102 -0.0502  0.1456
  751MOL0     C99016   6.859   2.761  10.765 -0.5657  0.4949  0.7710
  751MOL0     N99017   6.741   2.694  10.812 -0.0943 -0.0131  0.3807
  751MOL0     C99018   6.700   2.567  10.782  0.3857  0.2032  0.1360
  751MOL0     C99019   6.575   2.548  10.841 -0.1415  0.2144  0.2596
  751MOL0     C99020   6.481   2.430  10.832 -0.5189  0.6837  1.0313
  751MOL0     C99021   6.332   2.457  10.869 -0.4441  0.4344 -0.3646
  751MOL0     C99022   6.248   2.538  10.764  0.0652 -0.3692  0.3339
  751MOL0     C99023   6.103   2.551  10.793 -0.9728 -0.6472 -0.4546
  751MOL0     O99024   6.094   2.648  10.898  0.3790  0.2039 -0.0395
  751MOL0     C99025   5.974   2.659  10.966  0.2210 -1.2514  0.2654
  751MOL0     C99026   5.860   2.580  10.933 -0.6097  0.1126 -0.1527
  751MOL0     C99027   5.746   2.597  11.009 -0.1865 -0.5707  0.3526
  751MOL0     C99028   5.751   2.689  11.120  0.5976 -0.1586 -0.2626
  751MOL0     C99029   5.628   2.713  11.198  0.4275 -0.6638  0.1962
  751MOL0     O99030   5.529   2.622  11.187 -0.2321 -0.1972 -0.1476
  751MOL0     C99031   5.402   2.648  11.214  0.8351 -0.3392  0.0643
  751MOL0     C99032   5.352   2.749  11.308  0.3923 -0.1436  1.2719
  751MOL0     C99033   5.212   2.759  11.324  0.4171 -1.2475 -0.1576
  751MOL0     C99034   5.119   2.672  11.271  0.6737  0.0158 -0.0080
  751MOL0     O99035   4.987   2.677  11.291 -0.1840 -0.4316  0.3190
  751MOL0     C99036   4.940   2.750  11.403 -0.1254  0.0980  0.3495
  751MOL0     C99037   4.801   2.687  11.426  0.1754 -0.2477  0.7479
  751MOL0     C99038   4.740   2.762  11.546 -0.0548  0.4627 -0.0066
  751MOL0     C99039   4.606   2.681  11.576  1.0816  0.8453  0.9216
  751MOL0     C99040   4.514   2.765  11.644 -0.5272 -0.2581 -0.9123
  751MOL0     C99041   4.405   2.686  11.718  0.7190  0.5289  0.4466
  751MOL0     C99042   4.266   2.746  11.707  0.0416 -0.1064 -0.0713
  751MOL0     C99043   4.167   2.651  11.770 -0.1778 -0.2834  0.0979
  751MOL0    Cl99044   4.004   2.733  11.786 -0.4732  0.0781 -0.2476
  751MOL0     C99045   5.172   2.576  11.180  1.0552  0.2664  0.9405
  751MOL0     C99046   5.313   2.567  11.152 -0.3076 -0.7019 -0.3190
  751MOL0     O99047   5.626   2.814  11.266  0.0036  0.5806  0.1503
  751MOL0     C99048   5.866   2.755  11.151 -0.2675  0.5899  0.2816
  751MOL0     C99049   5.978   2.742  11.073  0.3478 -0.0527 -0.1754
  751MOL0     N99050   6.546   2.668  10.909 -0.0553  0.5279  0.4822
  751MOL0     N99051   6.639   2.756  10.882 -0.3734  0.4769 -0.1997
  751MOL0     C99052   6.513   3.366  10.028 -0.7354 -0.0899 -0.0994
  751MOL0     C99053   6.376   3.367  10.042 -0.5688 -0.2340 -0.3206
  751MOL0     C99054   5.927   3.237   9.975 -0.2905 -0.3708  0.4762
  751MOL0     C99055   5.839   3.164   9.897 -0.0273  0.0021  0.7869
  751MOL0     C99056   5.703   3.169   9.923 -0.7288 -0.0853 -0.4601
  751MOL0     C99057   5.650   3.253  10.023 -0.0880  0.0714 -0.6310
  751MOL0     O99058   5.515   3.242  10.040 -0.6921 -0.7788  0.2594
  751MOL0     C99059   5.464   3.348  10.126  0.3157 -0.6665 -0.2476
  751MOL0     C99060   5.308   3.334  10.131 -0.0439 -1.0018 -0.5089
  751MOL0     C99061   5.242   3.409  10.253 -0.1336  0.6229 -0.6703
  751MOL0     C99062   5.096   3.402  10.270  0.1511 -0.2626  0.4271
  751MOL0     C99063   5.039   3.483  10.162  0.3406 -0.2303  0.3203
  751MOL0     C99064   4.979   3.519  10.063  0.3892  0.4467  0.0686
  751MOL0     C99065   5.738   3.326  10.103 -0.6046 -0.6888 -0.4831
  751MOL0     C99066   5.872   3.317  10.081  0.1541  0.0622 -0.0029
  751MOL0     H99067   6.281   3.054  10.001 -2.6692  1.0480  3.1689
  751MOL0     H99068   6.544   3.034  10.004  0.2294  0.0406  1.6923
  751MOL0     H99069   6.888   3.177  10.007 -0.2406 -0.0688 -0.2706
  751MOL0     H99070   6.773   3.038   9.992 -0.2004 -0.9404  0.2727
  751MOL0     H99071   6.690   3.105  10.236  1.0855 -2.0013  2.3841
  751MOL0     H99072   6.811   3.239  10.236 -1.7312  0.1285  0.7641
  751MOL0     H99073   6.997   3.076  10.224  1.0102 -0.0645  0.5386
  751MOL0     H99074   6.887   2.944  10.177 -1.0841  0.1364  0.3670
  751MOL0     H99075   6.901   3.075  10.445  0.7168  0.4958 -1.4004
  751MOL0     H99076   6.773   2.965  10.391  0.2773 -0.3490  0.2447
  751MOL0     H99077   7.071   2.905  10.370 -0.3060 -0.5076 -0.9679
  751MOL0     H99078   6.944   2.785  10.360 -0.2200 -0.3571  0.0647
  751MOL0     H99079   6.994   2.944  10.607 -1.6393 -0.0449  0.4715
  751MOL0     H99080   7.062   2.783  10.568 -1.1266 -1.3152 -0.4093
  751MOL0     H99081   6.760   2.847  10.594  0.2030 -0.1893  0.1945
  751MOL0     H99082   6.833   2.691  10.554  1.1581 -1.2988  1.9301
  751MOL0     H99083   6.891   2.850  10.820  0.0785  1.6290 -1.3467
  751MOL0     H99084   6.945   2.695  10.775  0.0587  0.2901 -3.7775
  751MOL0     H99085   6.748   2.502  10.710 -0.4765 -1.4198  0.9758
  751MOL0     H99086   6.524   2.344  10.884  0.1972 -2.3682 -3.9085
  751MOL0     H99087   6.480   2.399  10.727 -0.2702  0.2183  1.1651
  751MOL0     H99088   6.335   2.493  10.972  0.4761 -0.3945 -0.0822
  751MOL0     H99089   6.285   2.361  10.887 -2.1163  1.2965  0.0560
  751MOL0     H99090   6.282   2.641  10.753 -0.8476  0.0642  1.4792
  751MOL0     H99091   6.252   2.490  10.665  0.2359 -0.3031  0.3079
  751MOL0     H99092   6.078   2.451  10.828 -0.7878 -0.1887  1.0662
  751MOL0     H99093   6.038   2.585  10.712  0.5439 -0.3337 -1.5741
  751MOL0     H99094   5.850   2.513  10.848  1.5513  0.8347 -1.0438
  751MOL0     H99095   5.649   2.554  10.987  0.1769 -1.9741  1.3024
  751MOL0     H99096   5.411   2.821  11.365  1.2224 -1.0969  1.6493
  751MOL0     H99097   5.179   2.833  11.396  2.8012 -1.1993  0.9839
  751MOL0     H99098   4.930   2.857  11.384  6.6042  1.5009  2.1663
  751MOL0     H99099   5.002   2.737  11.492  0.3207 -3.3905 -0.3105
  751MOL0     H99100   4.820   2.584  11.456 -0.6399  0.1984  3.0239
  751MOL0     H99101   4.737   2.688  11.337  1.0197 -3.9763 -0.0546
  751MOL0     H99102   4.714   2.865  11.520 -1.0777  0.8241  2.1559
  751MOL0     H99103   4.809   2.759  11.631  0.9464 -0.1234 -0.8230
  751MOL0     H99104   4.554   2.654  11.484  3.1507 -3.3454  0.7361
  751MOL0     H99105   4.620   2.588  11.632 -0.5792  0.2411  0.3816
  751MOL0     H99106   4.471   2.832  11.570 -0.7913 -2.2300 -2.6302
  751MOL0     H99107   4.565   2.826  11.720 -2.5907 -1.8400  1.9354
  751MOL0     H99108   4.435   2.675  11.822  0.7718  1.2963  0.5143
  751MOL0     H99109   4.399   2.592  11.660  0.4247  0.3850  0.7081
  751MOL0     H99110   4.269   2.839  11.764  1.4905  0.2761 -0.7284
  751MOL0     H99111   4.235   2.758  11.603 -1.4629 -2.5539  0.0099
  751MOL0     H99112   4.198   2.604  11.863  2.1115  0.5638 -0.1762
  751MOL0     H99113   4.150   2.565  11.704  1.3366  0.8905 -1.9420
  751MOL0     H99114   5.108   2.516  11.117  2.4484 -1.0269  0.6921
  751MOL0     H99115   5.331   2.497  11.071  2.5603 -1.5348  0.9382
  751MOL0     H99116   5.886   2.805  11.246 -0.0815  1.0097  0.0245
  751MOL0     H99117   6.069   2.795  11.098 -0.8447  2.0629 -0.0585
  751MOL0     H99118   6.569   3.459  10.023 -1.0436  0.1116  0.1822
  751MOL0     H99119   6.333   3.462  10.071  2.5931  1.6668 -1.4460
  751MOL0     H99120   5.870   3.112   9.806 -0.5961  1.8574 -0.5275
  751MOL0     H99121   5.634   3.119   9.857 -1.8082 -0.0228  0.5895
  751MOL0     H99122   5.497   3.450  10.102  2.0321 -1.1153  0.0336
  751MOL0     H99123   5.499   3.349  10.230 -0.5193  0.6137  0.0385
  751MOL0     H99124   5.260   3.365  10.038  0.4358  1.1250 -0.1017
  751MOL0     H99125   5.285   3.228  10.149 -1.4452 -0.5742  0.3587
  751MOL0     H99126   5.293   3.504  10.273  0.7563 -0.0898  0.6488
  751MOL0     H99127   5.271   3.366  10.349 -0.9304 -0.2011 -0.7947
  751MOL0     H99128   5.078   3.295  10.259  0.6505 -0.3161  0.1035
  751MOL0     H99129   5.065   3.433  10.370  0.2340 -0.5127  0.5308
  751MOL0     H99130   4.924   3.541   9.974 -0.6287  3.0891  1.2528
  751MOL0     H99131   5.719   3.387  10.191  1.9876 -1.5343  0.7477
  751MOL0     H99132   5.934   3.371  10.150  0.7826  0.7495 -1.0777
  752MOL0     O99133   0.286   4.237   6.826 -0.6267  0.0834  0.9112
  752MOL0     C99134   0.340   4.316   6.906 -0.3816  0.7731  0.2820
  752MOL0     O99135   0.295   4.348   7.038 -0.1173 -0.2394 -0.7186
  752MOL0     C99136   0.205   4.267   7.107  0.1091  0.5719 -0.8788
  752MOL0     C99137   0.160   4.313   7.234 -0.0512 -0.7951  0.6496
  752MOL0     C99138   0.062   4.257   7.313  0.6335 -0.3674  0.4119
  752MOL0     C99139   0.004   4.134   7.269 -0.4460 -0.1265 -0.3850
  752MOL0     O99140  -0.101   4.077   7.336  0.3319  0.1278 -0.2748
  752MOL0     C99141  -0.071   4.022   7.466  0.8236  0.2093 -0.1706
  752MOL0     C99142  -0.167   3.910   7.482 -0.5650  0.0502  0.0490
  752MOL0     C99143  -0.310   3.950   7.488  0.5802 -0.1838  1.2347
  752MOL0     C99144  -0.343   4.028   7.615 -1.0323  0.9857 -0.8905
  752MOL0     C99145  -0.491   4.014   7.651 -0.3071 -0.7021 -0.2419
  752MOL0     C99146  -0.586   4.057   7.535  0.1756 -0.2577  0.2256
  752MOL0     C99147  -0.724   4.069   7.593  0.0690 -0.1299  0.2975
  752MOL0     C99148  -0.799   3.948   7.535 -0.2287  0.2907  0.4985
  752MOL0     N99149  -0.944   3.941   7.553 -0.5749 -0.0843  0.2402
  752MOL0     C99150  -1.036   3.998   7.472  0.0465  0.8328  0.2078
  752MOL0     C99151  -1.159   3.952   7.515 -0.7721  0.0444  0.5882
  752MOL0     C99152  -1.294   3.974   7.455 -0.3009  0.3039  0.2524
  752MOL0     C99153  -1.334   3.843   7.391 -0.3448 -0.4274 -0.4082
  752MOL0     C99154  -1.473   3.849   7.328  0.1684 -0.1176  0.1709
  752MOL0     C99155  -1.580   3.842   7.441  0.1965 -0.5282 -0.5951
  752MOL0     O99156  -1.596   3.973   7.496 -0.4657 -0.2657  0.1069
  752MOL0     C99157  -1.697   4.055   7.456  0.7102 -0.2290 -0.3668
  752MOL0     C99158  -1.783   4.018   7.357 -0.2794 -0.2817  0.3669
  752MOL0     C99159  -1.902   4.087   7.340  0.2411  0.3360  0.4154
  752MOL0     C99160  -1.933   4.208   7.402 -0.0606 -0.2031  0.6636
  752MOL0     C99161  -2.069   4.280   7.377  0.2270 -0.5179  1.3803
  752MOL0     O99162  -2.090   4.387   7.460 -0.6583  0.1326  0.0345
  752MOL0     C99163  -2.194   4.480   7.441 -0.4236 -0.3229 -0.2943
  752MOL0     C99164  -2.206   4.572   7.549 -0.5939 -0.7253  0.0002
  752MOL0     C99165  -2.310   4.668   7.551 -0.6510 -0.5300  0.0064
  752MOL0     C99166  -2.394   4.681   7.445 -0.9230  0.0957  0.0107
  752MOL0     O99167  -2.495   4.772   7.452  1.2807  0.1962  0.9833
  752MOL0     C99168  -2.582   4.790   7.331  0.9443 -0.7053  0.1170
  752MOL0     C99169  -2.679   4.903   7.355 -0.8568 -0.9431  0.5873
  752MOL0     C99170  -2.800   4.876   7.437  0.5722  0.0070 -0.3037
  752MOL0     C99171  -2.901   4.984   7.465  0.8255 -0.1286  0.2384
  752MOL0     C99172  -2.966   5.059   7.348 -0.3349  0.1768 -0.5617
  752MOL0     C99173  -3.069   5.169   7.388 -0.3967  0.4567 -0.9819
  752MOL0     C99174  -3.165   5.228   7.286 -0.1111 -0.0121  0.2015
  752MOL0     C99175  -3.282   5.306   7.346 -0.4157 -0.8249  0.0271
  752MOL0    Cl99176  -3.345   5.417   7.225 -0.3653  0.1418  0.6718
  752MOL0     C99177  -2.375   4.597   7.332  0.1277  0.0566  0.7406
  752MOL0     C99178  -2.287   4.493   7.333  0.3052 -0.3520 -0.0197
  752MOL0     O99179  -2.139   4.246   7.286  0.1223 -0.2002  0.7675
  752MOL0     C99180  -1.841   4.254   7.492  0.8169  1.4561  1.0233
  752MOL0     C99181  -1.730   4.174   7.523  0.2272  0.1111  0.6120
  752MOL0     N99182  -1.132   3.865   7.622  0.4543 -0.2021  0.0246
  752MOL0     N99183  -1.009   3.864   7.641 -0.0548  0.2725  0.1715
  752MOL0     C99184   0.048   4.073   7.145 -0.1535 -0.0196  0.3442
  752MOL0     C99185   0.144   4.144   7.066 -0.5028  0.5721 -0.0878
  752MOL0     C99186   0.475   4.363   6.865  0.5921 -0.3160  0.5135
  752MOL0     C99187   0.556   4.297   6.767 -0.2477 -0.2286 -0.9215
  752MOL0     C99188   0.689   4.344   6.748 -0.3164 -0.5473 -0.6024
  752MOL0     C99189   0.743   4.450   6.819 -0.0825 -0.0842 -0.6539
  752MOL0     O99190   0.872   4.501   6.808 -0.8251  0.0859  0.7186
  752MOL0     C99191   0.960   4.439   6.717  0.3419 -0.6633  0.0047
  752MOL0     C99192   1.084   4.532   6.700  0.0921 -0.0096 -0.6346
  752MOL0     C99193   1.204   4.454   6.645 -0.4369  0.3958 -0.8124
  752MOL0     C99194   1.333   4.530   6.600 -0.2487 -0.3931  0.2203
  752MOL0     C99195   1.321   4.621   6.486 -0.3734  0.2296  0.0596
  752MOL0     C99196   1.343   4.697   6.387  0.9718 -0.2706 -0.6931
  752MOL0     C99197   0.659   4.523   6.908  0.7766 -0.1498  0.2065
  752MOL0     C99198   0.525   4.476   6.938 -0.6719  0.1570  0.6621
  752MOL0     H99199   0.216   4.392   7.284 -0.5767  1.7469 -2.4526
  752MOL0     H99200   0.040   4.303   7.408 -1.1750 -2.5207  1.1115
  752MOL0     H99201  -0.073   4.091   7.551 -1.3471 -2.8387  2.5176
  752MOL0     H99202   0.024   3.970   7.455  0.6689 -0.3392  0.9274
  752MOL0     H99203  -0.144   3.845   7.567  4.0441  0.7527 -0.4119
  752MOL0     H99204  -0.163   3.849   7.392  0.7872 -1.8543  1.3216
  752MOL0     H99205  -0.372   3.861   7.503  0.7182 -0.2690  1.3090
  752MOL0     H99206  -0.344   4.001   7.398 -0.3695 -1.6076  0.7536
  752MOL0     H99207  -0.276   3.987   7.692 -0.3857  2.7108 -0.4761
  752MOL0     H99208  -0.327   4.136   7.609 -0.8627  0.8999 -2.2842
  752MOL0     H99209  -0.518   4.069   7.741 -0.3655 -2.5978  0.9608
  752MOL0     H99210  -0.511   3.907   7.664  2.7790 -1.6285 -2.0061
  752MOL0     H99211  -0.578   3.988   7.451  1.6460 -2.4203  2.0010
  752MOL0     H99212  -0.554   4.155   7.498  0.8384 -0.3128  0.6331
  752MOL0     H99213  -0.731   4.066   7.702  1.4500 -1.2002  0.3823
  752MOL0     H99214  -0.779   4.150   7.544  1.4818  0.1848 -0.8299
  752MOL0     H99215  -0.755   3.859   7.581  0.7648  0.3139 -0.3735
  752MOL0     H99216  -0.787   3.944   7.426  0.6392 -0.0234  0.5995
  752MOL0     H99217  -1.021   4.062   7.385 -1.0593  2.5904  1.2513
  752MOL0     H99218  -1.298   4.058   7.384  0.5001 -0.2387 -0.4580
  752MOL0     H99219  -1.357   3.999   7.541 -1.3152 -0.5355 -0.2170
  752MOL0     H99220  -1.330   3.754   7.454 -2.7847  1.1853  2.2866
  752MOL0     H99221  -1.274   3.828   7.301  1.3870 -0.2829  0.6739
  752MOL0     H99222  -1.496   3.942   7.275  0.6592 -0.3420 -0.4550
  752MOL0     H99223  -1.486   3.766   7.258  2.3883  1.6581 -2.5923
  752MOL0     H99224  -1.551   3.770   7.518  1.3681 -0.5460 -1.0298
  752MOL0     H99225  -1.669   3.794   7.400  1.1311 -3.0333  0.1131
  752MOL0     H99226  -1.771   3.930   7.295  2.0385  0.6327 -0.5888
  752MOL0     H99227  -1.963   4.046   7.261  1.1874 -0.5283  0.1085
  752MOL0     H99228  -2.142   4.558   7.637 -1.1682 -2.1856  0.2201
  752MOL0     H99229  -2.336   4.720   7.642  0.1032 -1.5289  0.8234
  752MOL0     H99230  -2.640   4.697   7.322 -2.1854  0.9519  1.3568
  752MOL0     H99231  -2.531   4.820   7.240  2.0147  0.1371  0.9731
  752MOL0     H99232  -2.711   4.928   7.253 -0.8358  0.9299  0.9962
  752MOL0     H99233  -2.630   4.993   7.391 -1.4817 -0.2607 -0.2181
  752MOL0     H99234  -2.770   4.827   7.530 -3.1737 -3.4390 -0.6572
  752MOL0     H99235  -2.850   4.793   7.386 -1.8087  1.3594 -0.3465
  752MOL0     H99236  -2.976   4.933   7.526  1.5911 -0.1900  1.1472
  752MOL0     H99237  -2.850   5.067   7.516  2.1742 -0.5347 -0.3954
  752MOL0     H99238  -3.011   4.978   7.289  0.3549  1.1577 -2.5203
  752MOL0     H99239  -2.882   5.097   7.289 -0.6146 -1.9855 -2.5324
  752MOL0     H99240  -3.008   5.250   7.430  0.8796 -0.0006 -1.8781
  752MOL0     H99241  -3.130   5.119   7.463  0.1734  0.7390 -0.3180
  752MOL0     H99242  -3.106   5.296   7.224  3.2228 -0.3227  2.7116
  752MOL0     H99243  -3.198   5.150   7.216  0.5224 -0.5226  0.4499
  752MOL0     H99244  -3.242   5.363   7.430 -3.3260  2.9122 -0.8254
  752MOL0     H99245  -3.361   5.245   7.390  0.0808  0.6490  3.2916
  752MOL0     H99246  -2.438   4.586   7.244  1.6555 -2.5103 -0.1469
  752MOL0     H99247  -2.287   4.422   7.250  2.5702  3.7416 -4.0255
  752MOL0     H99248  -1.863   4.349   7.541  0.0483  0.3996  2.8187
  752MOL0     H99249  -1.662   4.218   7.595  1.8899  1.4594 -1.6355
  752MOL0     H99250  -0.004   3.980   7.128 -0.6071  0.2682  0.1469
  752MOL0     H99251   0.190   4.087   6.986 -1.2817  0.1182 -0.2243
  752MOL0     H99252   0.522   4.208   6.715 -1.8270 -0.5120  0.5142
  752MOL0     H99253   0.759   4.298   6.680  0.6890  0.9177 -0.6094
  752MOL0     H99254   0.933   4.410   6.616 -1.1211 -0.7282  0.4002
  752MOL0     H99255   0.997   4.351   6.770 -1.7577 -1.6292 -0.0384
  752MOL0     H99256   1.069   4.619   6.635 -0.3632 -0.6572 -1.4086
  752MOL0     H99257   1.101   4.579   6.797  0.0711  4.6063 -2.5924
  752MOL0     H99258   1.171   4.388   6.564  1.0213 -1.0095 -0.3039
  752MOL0     H99259   1.242   4.388   6.724  1.2717  0.3542 -1.6412
  752MOL0     H99260   1.366   4.593   6.683  2.3162  1.8562 -2.2581
  752MOL0     H99261   1.419   4.467   6.575  0.5584  0.4082  0.8573
  752MOL0     H99262   1.350   4.772   6.311 -0.7009  1.2227  0.5196
  752MOL0     H99263   0.694   4.616   6.952 -1.4108  0.1997  1.3651
  752MOL0     H99264   0.469   4.539   7.007  0.2586  3.6481 -1.5031
  753MOL0     O99265  10.746  10.948   8.641 -0.5817 -0.9291 -0.0963
  753MOL0     C99266  10.843  10.952   8.566 -0.1651 -0.7278  0.5497
  753MOL0     O99267  10.864  10.867   8.445 -0.2756 -0.6514  0.0463
  753MOL0     C99268  10.747  10.815   8.406  0.6176 -0.2209  0.8164
  753MOL0     C99269  10.672  10.894   8.312  0.3852 -0.4708  0.2630
  753MOL0     C99270  10.569  10.840   8.242  0.3101  0.7641 -0.3396
  753MOL0     C99271  10.528  10.711   8.269  0.5365  0.4105  0.0132
  753MOL0     O99272  10.416  10.673   8.203  0.2705 -0.7329 -0.3584
  753MOL0     C99273  10.319  10.599   8.284 -0.3050  0.5951  0.1291
  753MOL0     C99274  10.209  10.539   8.182 -0.1219 -0.0911  0.3310
  753MOL0     C99275  10.101  10.637   8.141  0.0527 -0.3525  0.0389
  753MOL0     C99276  10.154  10.772   8.083  0.1788 -0.1529 -0.0685
  753MOL0     C99277  10.053  10.843   8.012  0.2487 -1.4520  0.2455
  753MOL0     C99278  10.102  10.974   7.953  0.2733 -0.5270  0.7877
  753MOL0     C99279   9.995  11.058   7.873  1.0572  0.0087 -0.3707
  753MOL0     C99280   9.898  11.112   7.976  0.6813 -0.6299 -0.3589
  753MOL0     N99281   9.832  11.240   7.935  0.0258  0.5691 -0.5945
  753MOL0     C99282   9.876  11.369   7.976  0.5974 -0.3135 -0.3009
  753MOL0     C99283   9.794  11.457   7.907  0.0560  0.7358 -0.2862
  753MOL0     C99284   9.799  11.610   7.901 -0.0759 -0.3554 -0.1045
  753MOL0     C99285   9.689  11.664   7.989  0.2819  0.2527 -0.2842
  753MOL0     C99286   9.710  11.812   8.002 -0.6842  0.9043 -0.4054
  753MOL0     C99287   9.598  11.891   8.058  1.1354 -0.1037  0.7660
  753MOL0     O99288   9.536  11.840   8.173 -0.4711 -0.1783  0.8492
  753MOL0     C99289   9.408  11.796   8.188  0.2283  0.3519 -0.9368
  753MOL0     C99290   9.371  11.753   8.317 -0.4330  0.7157  0.7895
  753MOL0     C99291   9.246  11.701   8.341  0.0720 -0.3681 -0.2901
  753MOL0     C99292   9.154  11.686   8.243 -0.0663  0.0336  0.4860
  753MOL0     C99293   9.012  11.640   8.271 -0.4968  0.6118 -1.3212
  753MOL0     O99294   8.910  11.688   8.188 -0.5989  0.6381 -0.1572
  753MOL0     C99295   8.787  11.635   8.207  0.8114  0.6397 -0.1726
  753MOL0     C99296   8.677  11.716   8.227 -1.7817  0.1294  0.0689
  753MOL0     C99297   8.555  11.670   8.274 -0.1113 -0.5849 -0.0450
  753MOL0     C99298   8.537  11.534   8.279  0.4640  0.1509  0.6670
  753MOL0     O99299   8.405  11.483   8.301  0.0758  0.5815  0.6103
  753MOL0     C99300   8.370  11.367   8.225  0.6708 -0.0802  0.3098
  753MOL0     C99301   8.407  11.371   8.077 -0.7155 -0.3353  0.3430
  753MOL0     C99302   8.456  11.239   8.013 -0.8107  0.2518 -0.5201
  753MOL0     C99303   8.581  11.173   8.077 -0.1139  0.6783 -0.0103
  753MOL0     C99304   8.604  11.025   8.030  0.0099  0.3855 -0.3632
  753MOL0     C99305   8.739  10.966   8.081  0.0495 -0.1716 -0.7230
  753MOL0     C99306   8.856  11.016   8.001  0.5205  1.0982  1.2288
  753MOL0     C99307   8.972  10.921   8.013  0.2090  0.7377  0.2131
  753MOL0    Cl99308   9.017  10.881   8.194  0.0959 -0.1945  0.3625
  753MOL0     C99309   8.654  11.450   8.266  0.0566  0.2383  0.1798
  753MOL0     C99310   8.768  11.494   8.212  0.3967  0.1946 -1.1290
  753MOL0     O99311   8.990  11.580   8.377  0.1681  0.8745  0.1301
  753MOL0     C99312   9.194  11.731   8.113  0.2936 -0.2064 -0.0462
  753MOL0     C99313   9.324  11.765   8.090  0.3063  0.4454  0.2859
  753MOL0     N99314   9.709  11.382   7.823  0.1285 -0.4812  0.0044
  753MOL0     N99315   9.729  11.254   7.844  0.1214 -0.6159 -0.1635
  753MOL0     C99316  10.593  10.635   8.374 -0.0666 -0.5318 -0.7606
  753MOL0     C99317  10.714  10.684   8.439  0.6177  0.3046  0.0958
  753MOL0     C99318  10.952  11.046   8.597 -0.7882  0.3070  0.0018
  753MOL0     C99319  10.948  11.124   8.713 -0.2466 -0.2589 -0.1116
  753MOL0     C99320  11.062  11.207   8.751 -0.0560 -0.3356  0.4113
  753MOL0     C99321  11.167  11.207   8.658 -0.2302 -0.1707 -0.1883
  753MOL0     O99322  11.281  11.288   8.668  0.1388 -0.4766 -0.0392
  753MOL0     C99323  11.323  11.354   8.790  0.0768  0.6055  0.5748
  753MOL0     C99324  11.238  11.470   8.824  0.8902 -0.1330 -0.9627
  753MOL0     C99325  11.314  11.566   8.923  0.4049  0.3953  0.2887
  753MOL0     C99326  11.405  11.663   8.847 -0.0259 -0.3508  0.7960
  753MOL0     C99327  11.475  11.736   8.955  0.2234 -0.2436  0.3211
  753MOL0     C99328  11.507  11.794   9.057  0.7670  0.0364 -0.3480
  753MOL0     C99329  11.167  11.132   8.546  0.3896  0.3084 -0.1454
  753MOL0     C99330  11.068  11.045   8.518 -0.9265  0.6111  0.1036
  753MOL0     H99331  10.716  10.991   8.289  2.6570 -1.0104  1.9691
  753MOL0     H99332  10.513  10.894   8.167 -0.4982  1.0000  0.4193
  753MOL0     H99333  10.271  10.667   8.356 -2.7317 -0.3434 -0.4903
  753MOL0     H99334  10.362  10.512   8.334  0.6606 -0.2711 -2.0832
  753MOL0     H99335  10.162  10.453   8.231  3.2997 -1.9510  0.6615
  753MOL0     H99336  10.257  10.505   8.089  0.3122  2.5316 -0.4788
  753MOL0     H99337  10.050  10.668   8.232 -0.6633  3.0968 -1.3623
  753MOL0     H99338  10.031  10.579   8.082 -0.8450  0.4653  0.2773
  753MOL0     H99339  10.195  10.836   8.162  1.4591 -2.8263  1.5851
  753MOL0     H99340  10.231  10.758   8.007  0.6387  2.9048 -0.2688
  753MOL0     H99341   9.969  10.864   8.079  1.5456  0.2761  1.4287
  753MOL0     H99342  10.012  10.784   7.929  0.0697 -0.0647 -0.6797
  753MOL0     H99343  10.189  10.965   7.887  0.3139  2.1908  0.3760
  753MOL0     H99344  10.132  11.034   8.039 -1.2540 -2.0402  2.4772
  753MOL0     H99345  10.057  11.137   7.829  2.4842 -0.8410  0.0561
  753MOL0     H99346   9.948  10.997   7.795 -1.0329  0.4933  0.4287
  753MOL0     H99347   9.942  11.124   8.075  0.1293  3.5431 -0.4647
  753MOL0     H99348   9.817  11.038   7.986 -0.2826  0.3880 -0.4693
  753MOL0     H99349   9.948  11.403   8.050 -1.7763 -1.3291  2.6956
  753MOL0     H99350   9.785  11.647   7.799 -1.2076  2.5583  0.9941
  753MOL0     H99351   9.898  11.633   7.940  2.0641 -2.6408 -3.6075
  753MOL0     H99352   9.694  11.621   8.089 -1.1965  0.3237 -0.1650
  753MOL0     H99353   9.593  11.642   7.943 -0.9571  1.7335  1.4525
  753MOL0     H99354   9.788  11.827   8.077 -0.8326 -3.3593  0.8840
  753MOL0     H99355   9.739  11.858   7.908  1.8641  0.8166  0.2757
  753MOL0     H99356   9.531  11.898   7.972 -0.3718  0.7031  1.9544
  753MOL0     H99357   9.638  11.989   8.086  2.7572 -0.8638  1.2383
  753MOL0     H99358   9.432  11.777   8.404 -0.7853 -0.3751  1.3651
  753MOL0     H99359   9.216  11.674   8.442 -1.9449  0.1500 -0.7209
  753MOL0     H99360   8.703  11.821   8.223  2.2408 -0.6852  0.9455
  753MOL0     H99361   8.462  11.726   8.287 -1.0485 -1.4041 -2.5768
  753MOL0     H99362   8.262  11.358   8.238  0.3400  1.0177 -1.4182
  753MOL0     H99363   8.411  11.284   8.284  1.1687  0.1757  0.3202
  753MOL0     H99364   8.477  11.454   8.063 -3.5564  2.8490  3.2417
  753MOL0     H99365   8.320  11.403   8.019  0.6922  0.6477 -1.3087
  753MOL0     H99366   8.470  11.253   7.906 -0.1083 -0.2016 -0.4975
  753MOL0     H99367   8.369  11.174   8.024 -0.5875 -0.0553 -0.5543
  753MOL0     H99368   8.667  11.235   8.050  1.0087 -1.1359 -0.8070
  753MOL0     H99369   8.580  11.154   8.185  7.3954 -3.9929 -0.0115
  753MOL0     H99370   8.599  11.030   7.921 -0.5171  0.9305 -0.3180
  753MOL0     H99371   8.524  10.959   8.065  2.5854 -2.6919  0.1327
  753MOL0     H99372   8.739  10.857   8.079 -3.0959 -0.3771  1.6191
  753MOL0     H99373   8.749  10.988   8.188 -1.1537  0.4077 -0.7162
  753MOL0     H99374   8.839  11.010   7.893  0.8297  0.8045  1.1959
  753MOL0     H99375   8.877  11.120   8.026 -1.2258  1.3712  1.6842
  753MOL0     H99376   9.062  10.952   7.959  1.1763 -0.3642  1.1118
  753MOL0     H99377   8.946  10.825   7.968  3.1874 -0.5311  0.9255
  753MOL0     H99378   8.636  11.345   8.288  0.8665  0.4142  1.8053
  753MOL0     H99379   8.851  11.425   8.198 -0.6798 -0.8685 -2.5776
  753MOL0     H99380   9.132  11.727   8.024  2.4941 -0.3164 -1.6613
  753MOL0     H99381   9.355  11.762   7.987 -0.7786  0.1982 -0.0453
  753MOL0     H99382  10.566  10.532   8.393 -2.8556  0.1636 -0.4868
  753MOL0     H99383  10.770  10.615   8.500 -0.2470 -0.4684  0.0409
  753MOL0     H99384  10.867  11.110   8.783  0.2240 -3.0119 -0.0014
  753MOL0     H99385  11.063  11.249   8.851 -0.5685  0.5866  0.0381
  753MOL0     H99386  11.431  11.365   8.778  0.1610 -0.2628  0.3975
  753MOL0     H99387  11.316  11.285   8.875  1.0218  2.9771  2.6931
  753MOL0     H99388  11.210  11.523   8.733 -1.2406 -0.2247 -0.4043
  753MOL0     H99389  11.144  11.455   8.877  1.7251 -0.8345  0.3758
  753MOL0     H99390  11.367  11.508   8.999  1.8347  2.4560  0.9451
  753MOL0     H99391  11.233  11.625   8.967 -0.9633  0.0382 -1.6573
  753MOL0     H99392  11.471  11.599   8.788 -0.6734 -2.5391  2.3160
  753MOL0     H99393  11.333  11.723   8.793 -3.0854 -4.0006  0.4059
  753MOL0     H99394  11.544  11.843   9.144  1.1365  1.5529 -1.3229
  753MOL0     H99395  11.263  11.130   8.494  1.3942  1.4324  1.5979
  753MOL0     H99396  11.077  10.966   8.444  0.3809 -1.5217  2.4086
  754MOL0     O99397   9.630   4.930  10.034 -0.5036 -0.3072 -0.2061
  754MOL0     C99398   9.674   4.857   9.953  1.0920  1.0871  0.2112
  754MOL0     O99399   9.599   4.755   9.874  0.4875  0.0652 -0.2989
  754MOL0     C99400   9.462   4.762   9.895  0.3549 -0.7495  0.5788
  754MOL0     C99401   9.385   4.859   9.829 -0.8527  1.0083  0.4598
  754MOL0     C99402   9.246   4.854   9.843  0.6111  0.5497  0.2526
  754MOL0     C99403   9.186   4.776   9.939  0.1892  0.5451 -0.5573
  754MOL0     O99404   9.050   4.791   9.978 -0.3249  0.3598  0.5978
  754MOL0     C99405   8.961   4.763   9.870  0.2206  0.6598 -0.1073
  754MOL0     C99406   8.805   4.764   9.917  0.2181  0.3583  0.2308
  754MOL0     C99407   8.697   4.755   9.794 -0.4881 -0.1569 -0.8370
  754MOL0     C99408   8.666   4.895   9.735 -0.4188  0.2916  0.2065
  754MOL0     C99409   8.534   4.895   9.655  0.5029  0.6755  0.2162
  754MOL0     C99410   8.489   5.034   9.605 -0.3566  0.2375  0.2338
  754MOL0     C99411   8.355   5.030   9.547  0.0162  0.3945 -0.5849
  754MOL0     C99412   8.329   5.162   9.456  0.3263 -0.2194  0.2500
  754MOL0     N99413   8.188   5.159   9.422 -0.6788 -0.3207  0.0151
  754MOL0     C99414   8.132   5.140   9.298 -0.3252  0.2525 -0.3170
  754MOL0     C99415   8.005   5.188   9.292 -1.1281  0.3341 -0.3919
  754MOL0     C99416   7.926   5.183   9.163  0.9075  0.5257  0.6018
  754MOL0     C99417   7.772   5.186   9.186  0.7558 -0.4852 -0.3042
  754MOL0     C99418   7.715   5.330   9.200  0.8498  0.5992  0.4530
  754MOL0     C99419   7.564   5.322   9.215  0.4271 -0.7197 -0.2779
  754MOL0     O99420   7.509   5.444   9.163  0.0248  0.3753 -0.2304
  754MOL0     C99421   7.378   5.459   9.162 -0.5586  1.1194  0.6534
  754MOL0     C99422   7.279   5.434   9.255  0.0507 -0.3578  0.0683
  754MOL0     C99423   7.143   5.442   9.220  0.0744 -0.5152 -0.4364
  754MOL0     C99424   7.098   5.475   9.090 -0.2254 -0.6523 -0.1283
  754MOL0     C99425   6.957   5.477   9.049  0.4225  0.1381  0.2504
  754MOL0     O99426   6.865   5.435   9.139  0.1980 -0.4383  0.1031
  754MOL0     C99427   6.736   5.486   9.143  0.2298 -0.1695 -1.0930
  754MOL0     C99428   6.667   5.563   9.049 -0.4940  0.3651 -0.1303
  754MOL0     C99429   6.534   5.593   9.055 -0.9363  0.0808  0.3125
  754MOL0     C99430   6.456   5.546   9.163 -0.2216  0.9978  0.0310
  754MOL0     O99431   6.322   5.561   9.184  0.7529  0.5336 -0.3643
  754MOL0     C99432   6.264   5.671   9.120 -0.0169  0.0318 -0.4074
  754MOL0     C99433   6.114   5.681   9.152  0.5550 -0.4144 -1.2946
  754MOL0     C99434   6.088   5.740   9.294  0.1678  0.7826  0.1348
  754MOL0     C99435   6.150   5.879   9.326  0.3135  0.8572 -0.2096
  754MOL0     C99436   6.113   5.986   9.223  0.2021 -0.2041  0.5024
  754MOL0     C99437   5.958   5.995   9.215 -0.8234  0.5816  0.5712
  754MOL0     C99438   5.924   6.140   9.178  0.1391  0.3401  0.0911
  754MOL0     C99439   5.772   6.169   9.166 -0.4996  1.1941  0.6536
  754MOL0    Cl99440   5.708   6.117   9.324  0.5560 -0.0177  0.3223
  754MOL0     C99441   6.520   5.465   9.260  0.0902 -0.1658 -0.1306
  754MOL0     C99442   6.657   5.436   9.255 -1.1164  0.0816 -0.6964
  754MOL0     O99443   6.932   5.516   8.937 -0.1949  0.3603 -0.7798
  754MOL0     C99444   7.202   5.511   8.998  0.6066 -0.3960  0.1200
  754MOL0     C99445   7.340   5.511   9.034  0.0752  0.5965  0.2819
  754MOL0     N99446   7.985   5.242   9.420  0.4790  0.1815 -0.0142
  754MOL0     N99447   8.090   5.226   9.494 -0.1912  0.0168 -0.6657
  754MOL0     C99448   9.265   4.681  10.003 -0.0156  0.2100  0.0111
  754MOL0     C99449   9.402   4.677   9.985 -0.3658  0.4972  0.5687
  754MOL0     C99450   9.813   4.872   9.927  0.6000 -0.2749 -0.2230
  754MOL0     C99451   9.871   4.819   9.810 -0.3037 -0.3021 -0.4473
  754MOL0     C99452  10.008   4.846   9.784 -0.4415 -0.0850  1.3577
  754MOL0     C99453  10.083   4.926   9.870 -0.2110 -0.5033  0.2665
  754MOL0     O99454  10.207   4.966   9.841 -0.4584 -0.0951 -0.4986
  754MOL0     C99455  10.227   5.039   9.722  0.4281 -0.4279  0.2250
  754MOL0     C99456  10.339   4.989   9.640  0.4606  0.2055  0.8612
  754MOL0     C99457  10.470   5.054   9.687  0.5000  0.6549  0.8702
  754MOL0     C99458  10.592   4.975   9.656 -1.3232 -0.4779  0.1917
  754MOL0     C99459  10.714   5.059   9.684 -0.2946  0.2892  0.4457
  754MOL0     C99460  10.780   5.151   9.729  0.1976 -0.4515  1.0836
  754MOL0     C99461  10.024   4.973   9.986  0.2475  0.1874  0.4780
  754MOL0     C99462   9.892   4.948  10.021 -0.1690  0.2238 -0.0714
  754MOL0     H99463   9.436   4.928   9.763 -2.9270  0.0593 -2.3712
  754MOL0     H99464   9.189   4.937   9.803 -2.3909 -0.2442  2.4754
  754MOL0     H99465   8.986   4.664   9.831 -1.8610 -0.1564  0.4801
  754MOL0     H99466   8.978   4.830   9.785 -0.9453 -0.5942 -1.3713
  754MOL0     H99467   8.774   4.861   9.958  1.4766  0.4319  1.0595
  754MOL0     H99468   8.788   4.692   9.998 -0.4298  1.0620  0.7379
  754MOL0     H99469   8.603   4.708   9.823  0.6939 -2.2812 -0.2020
  754MOL0     H99470   8.746   4.695   9.717 -1.4339 -4.0787  1.3632
  754MOL0     H99471   8.646   4.965   9.817  0.6498 -0.4712  1.1649
  754MOL0     H99472   8.752   4.929   9.677  0.0153 -1.2849 -0.1394
  754MOL0     H99473   8.460   4.864   9.729 -0.7668  2.7590 -0.1185
  754MOL0     H99474   8.534   4.829   9.568 -0.9317 -1.5674  1.8096
  754MOL0     H99475   8.564   5.063   9.531 -2.6054  1.5864 -1.6773
  754MOL0     H99476   8.497   5.116   9.677 -0.7163  0.0034  0.5477
  754MOL0     H99477   8.345   4.943   9.482 -2.7787 -0.9296  1.4059
  754MOL0     H99478   8.285   5.039   9.631  0.2746  1.4860 -0.4812
  754MOL0     H99479   8.392   5.168   9.367 -0.7784 -2.2799 -0.7243
  754MOL0     H99480   8.356   5.251   9.513  1.7160 -0.3352 -0.1781
  754MOL0     H99481   8.187   5.093   9.218  2.5046  0.2694  1.4841
  754MOL0     H99482   7.947   5.090   9.109 -1.6052 -0.4066  1.0920
  754MOL0     H99483   7.957   5.265   9.098  2.0025  0.7051  1.3150
  754MOL0     H99484   7.745   5.142   9.283  1.3909  1.6577  0.9274
  754MOL0     H99485   7.719   5.130   9.109 -2.2220  2.5955 -0.7100
  754MOL0     H99486   7.758   5.381   9.287  0.6899  0.7518  0.4426
  754MOL0     H99487   7.746   5.389   9.113  1.7497  1.2502  1.1923
  754MOL0     H99488   7.538   5.308   9.321  2.4319 -2.9792  0.0214
  754MOL0     H99489   7.532   5.233   9.161  3.4785 -0.0732 -3.5139
  754MOL0     H99490   7.299   5.403   9.357  1.4850  0.4402  0.0623
  754MOL0     H99491   7.076   5.416   9.302 -1.1556 -1.1289 -1.6009
  754MOL0     H99492   6.719   5.598   8.960 -0.6402 -0.9114 -0.7481
  754MOL0     H99493   6.495   5.650   8.972  1.3000 -0.8303 -1.4516
  754MOL0     H99494   6.273   5.664   9.011 -1.4156  2.1851 -0.7109
  754MOL0     H99495   6.319   5.761   9.147 -1.9156  1.1755 -0.2038
  754MOL0     H99496   6.066   5.583   9.147 -2.5884  0.5046  3.6376
  754MOL0     H99497   6.069   5.750   9.080 -0.2275  2.2432  1.5501
  754MOL0     H99498   6.122   5.666   9.367  0.8375 -0.5300 -1.4100
  754MOL0     H99499   5.980   5.748   9.305  0.3390  0.9047  1.9973
  754MOL0     H99500   6.126   5.892   9.432  4.2293  1.5140  0.7446
  754MOL0     H99501   6.259   5.887   9.327  0.4252 -0.1363  2.6158
  754MOL0     H99502   6.163   5.964   9.128 -2.8001 -2.3225 -0.7227
  754MOL0     H99503   6.151   6.073   9.277  0.8570 -0.4153  0.3856
  754MOL0     H99504   5.926   5.987   9.320  1.1749 -1.1070  1.1275
  754MOL0     H99505   5.905   5.924   9.151 -3.0348  1.9806  0.7432
  754MOL0     H99506   5.964   6.197   9.262  1.4825  0.6957 -0.7662
  754MOL0     H99507   5.969   6.177   9.085 -0.9328 -0.0257 -0.5985
  754MOL0     H99508   5.737   6.115   9.079  0.7219 -1.5156  1.7305
  754MOL0     H99509   5.741   6.272   9.147 -0.9272  1.0884  0.7881
  754MOL0     H99510   6.473   5.412   9.342 -1.4770 -4.3095 -3.3507
  754MOL0     H99511   6.702   5.358   9.315 -0.9916 -0.6761 -1.7355
  754MOL0     H99512   7.174   5.529   8.894  0.8059 -1.3457 -0.1092
  754MOL0     H99513   7.417   5.532   8.959 -0.3241  0.6349 -0.1219
  754MOL0     H99514   9.226   4.613  10.078 -1.8486  0.6602 -0.5015
  754MOL0     H99515   9.452   4.604  10.046 -0.9535  2.1395  3.1786
  754MOL0     H99516   9.819   4.749   9.746  2.4724 -3.1136  0.1508
  754MOL0     H99517  10.049   4.810   9.690 -1.2205  2.8108 -0.2349
  754MOL0     H99518  10.245   5.144   9.745  2.1529 -0.4735 -0.7354
  754MOL0     H99519  10.138   5.033   9.658 -0.7618  3.6072  1.2392
  754MOL0     H99520  10.353   4.880   9.640  1.3240  0.3093  1.0200
  754MOL0     H99521  10.321   5.022   9.538 -3.7594  0.8883  1.6459
  754MOL0     H99522  10.470   5.071   9.795 -2.6498  0.7100  0.9586
  754MOL0     H99523  10.478   5.147   9.630  0.6947 -0.5885 -1.2126
  754MOL0     H99524  10.609   4.885   9.717 -0.4953 -0.7903 -0.4778
  754MOL0     H99525  10.599   4.936   9.554 -0.7460 -1.5697  0.6317
  754MOL0     H99526  10.828   5.238   9.768 -0.2728  0.3885 -0.1699
  754MOL0     H99527  10.097   5.019  10.051  1.3206 -0.3082 -0.3444
  754MOL0     H99528   9.860   4.963  10.123  1.3276 -1.6282  0.7238
  755MOL0     O99529   3.730   2.282   0.171  0.7372 -0.3266 -0.1314
  755MOL0     C99530   3.768   2.391   0.149 -0.6317 -1.1053  0.2915
  755MOL0     O99531   3.692   2.504   0.146  0.4904 -0.2464 -0.6799
  755MOL0     C99532   3.555   2.472   0.167  0.2119  0.4900 -0.1677
  755MOL0     C99533   3.467   2.481   0.053 -0.5211  0.0937 -0.1506
  755MOL0     C99534   3.333   2.462   0.058 -0.3657  0.1430  0.2786
  755MOL0     C99535   3.274   2.430   0.183 -0.8959  0.6295  0.5463
  755MOL0     O99536   3.135   2.411   0.201 -0.7224 -0.0937  0.2814
  755MOL0     C99537   3.067   2.341   0.097  0.3798  0.3189  0.5660
  755MOL0     C99538   2.927   2.294   0.138 -0.3617  0.1044  0.7794
  755MOL0     C99539   2.817   2.402   0.167  0.1254 -0.5829 -0.3439
  755MOL0     C99540   2.822   2.523   0.079  0.4366 -0.3665 -0.0774
  755MOL0     C99541   2.691   2.604   0.084 -0.2409  0.2443 -0.2078
  755MOL0     C99542   2.573   2.541   0.008  0.7130 -0.3624 -0.5287
  755MOL0     C99543   2.447   2.640   0.031 -0.7565 -0.1861  0.6618
  755MOL0     C99544   2.319   2.582  -0.023 -0.4557  0.0797 -0.3069
  755MOL0     N99545   2.205   2.678  -0.021  0.1033  1.1626  0.7336
  755MOL0     C99546   2.118   2.675  -0.125  0.2956 -0.3855  0.1199
  755MOL0     C99547   2.006   2.735  -0.080 -0.0718  0.0741  0.0894
  755MOL0     C99548   1.879   2.766  -0.160 -0.0125 -0.8697 -0.8906
  755MOL0     C99549   1.807   2.643  -0.205 -0.6451  0.4464  1.1518
  755MOL0     C99550   1.707   2.672  -0.314  0.4877 -0.2757  0.3181
  755MOL0     C99551   1.760   2.697  -0.457 -0.2933  0.0478  0.6764
  755MOL0     O99552   1.822   2.575  -0.504 -0.5993 -0.1707 -0.5328
  755MOL0     C99553   1.958   2.559  -0.503  0.7708 -0.1609  0.4293
  755MOL0     C99554   2.022   2.443  -0.450 -0.6561 -0.1139  0.3909
  755MOL0     C99555   2.158   2.443  -0.465  0.9823 -0.1003  0.2652
  755MOL0     C99556   2.232   2.540  -0.526  0.1299 -0.5071 -0.0563
  755MOL0     C99557   2.377   2.508  -0.530  0.9191  0.9430  0.1785
  755MOL0     O99558   2.425   2.378  -0.494 -0.5399  0.4149  0.3841
  755MOL0     C99559   2.536   2.347  -0.564 -0.7142 -0.3887 -0.1904
  755MOL0     C99560   2.649   2.301  -0.493 -0.7851 -1.0040  0.0659
  755MOL0     C99561   2.772   2.269  -0.559 -0.3775 -0.0840 -0.2062
  755MOL0     C99562   2.776   2.254  -0.702 -0.1358  0.3217 -1.1455
  755MOL0     O99563   2.876   2.216  -0.792  0.1592 -0.3255  0.5309
  755MOL0     C99564   3.006   2.177  -0.749 -0.1353 -0.4636 -0.0764
  755MOL0     C99565   3.104   2.284  -0.691  0.9752  0.5025 -0.1094
  755MOL0     C99566   3.247   2.280  -0.740 -0.9310 -0.6998  0.8389
  755MOL0     C99567   3.331   2.152  -0.737  0.8381  0.4809 -1.0444
  755MOL0     C99568   3.472   2.155  -0.778 -0.1435 -0.0123 -1.5588
  755MOL0     C99569   3.499   2.175  -0.929 -0.5151 -0.2474  0.8070
  755MOL0     C99570   3.643   2.211  -0.962 -0.4923 -0.0065 -0.1591
  755MOL0     C99571   3.664   2.235  -1.106  0.0669  0.9527 -0.2031
  755MOL0    Cl99572   3.632   2.404  -1.165 -0.2501 -0.0308 -0.1551
  755MOL0     C99573   2.661   2.299  -0.772  0.1100 -0.8796  0.0014
  755MOL0     C99574   2.545   2.339  -0.706 -0.7611 -0.3723 -0.4642
  755MOL0     O99575   2.443   2.598  -0.591 -0.2437  0.4452 -0.1949
  755MOL0     C99576   2.170   2.657  -0.565 -1.1197 -0.1809  0.8747
  755MOL0     C99577   2.036   2.659  -0.563  0.2310  0.0050  0.5420
  755MOL0     N99578   2.029   2.770   0.061  0.6195  0.0320  0.8895
  755MOL0     N99579   2.150   2.728   0.092 -0.2323  0.3525 -0.4653
  755MOL0     C99580   3.357   2.427   0.297  1.2535  0.8924 -0.0733
  755MOL0     C99581   3.499   2.438   0.289 -0.1779  1.1242 -0.2321
  755MOL0     C99582   3.916   2.409   0.142 -0.1585 -0.5494  0.0357
  755MOL0     C99583   4.004   2.302   0.127 -1.4748  0.0605 -0.4538
  755MOL0     C99584   4.142   2.319   0.120 -0.1037 -0.5088  0.4271
  755MOL0     C99585   4.207   2.439   0.119  1.0859 -0.1280  0.3564
  755MOL0     O99586   4.337   2.467   0.084  0.1701 -0.1245 -0.1440
  755MOL0     C99587   4.436   2.369   0.098 -0.6850 -0.0860 -0.9033
  755MOL0     C99588   4.489   2.325  -0.041  0.2764 -0.2370 -0.1614
  755MOL0     C99589   4.605   2.220  -0.045 -0.1100  0.5405 -0.4058
  755MOL0     C99590   4.691   2.225  -0.168 -1.0943 -0.5407 -0.3204
  755MOL0     C99591   4.757   2.356  -0.188  0.0469  1.2841 -0.3522
  755MOL0     C99592   4.812   2.458  -0.220  0.0635  0.1667 -0.3049
  755MOL0     C99593   4.112   2.545   0.127 -1.0466 -0.4758 -0.4710
  755MOL0     C99594   3.976   2.534   0.140  0.2016 -0.2051 -0.8957
  755MOL0     H99595   3.513   2.512  -0.040  3.6233 -2.9316  0.5680
  755MOL0     H99596   3.282   2.468  -0.037  1.6369 -0.7200 -0.9101
  755MOL0     H99597   3.125   2.255   0.061 -1.8187 -0.5532 -1.1374
  755MOL0     H99598   3.067   2.408   0.011  1.5223  1.3671  1.3506
  755MOL0     H99599   2.932   2.224   0.222 -2.8789 -1.4505 -0.2467
  755MOL0     H99600   2.898   2.234   0.051  1.9962 -1.9489  1.2964
  755MOL0     H99601   2.843   2.446   0.263  2.9157 -1.4945 -0.5905
  755MOL0     H99602   2.723   2.346   0.174  0.1870 -0.7868 -1.0638
  755MOL0     H99603   2.905   2.585   0.114 -0.7811  2.3352 -1.6723
  755MOL0     H99604   2.835   2.505  -0.028 -2.0775 -2.4204 -0.1408
  755MOL0     H99605   2.692   2.709   0.054 -0.7795 -0.4264 -2.8084
  755MOL0     H99606   2.665   2.600   0.191  0.3412  0.5595 -0.0486
  755MOL0     H99607   2.553   2.441   0.047 -0.8427  0.7387  1.7553
  755MOL0     H99608   2.592   2.540  -0.100 -1.8942  0.8451 -1.0641
  755MOL0     H99609   2.436   2.647   0.140  3.4351 -0.8698  1.2973
  755MOL0     H99610   2.470   2.737  -0.014 -0.3307  0.3822  2.0541
  755MOL0     H99611   2.289   2.494   0.036  1.8580  0.3334  1.3813
  755MOL0     H99612   2.344   2.546  -0.123  1.8085  0.4980  0.0559
  755MOL0     H99613   2.136   2.629  -0.222 -0.3498  1.5561 -0.9664
  755MOL0     H99614   1.920   2.831  -0.239  0.2050  0.7223  0.4835
  755MOL0     H99615   1.810   2.823  -0.098  1.2997  0.6500 -0.7486
  755MOL0     H99616   1.760   2.591  -0.121  1.4962  0.8352  2.6827
  755MOL0     H99617   1.869   2.555  -0.227 -2.1334 -1.1931  3.0511
  755MOL0     H99618   1.636   2.590  -0.322 -1.3125  1.2030  0.3145
  755MOL0     H99619   1.642   2.756  -0.285  1.2729  0.8359 -1.0110
  755MOL0     H99620   1.830   2.780  -0.471 -0.7969  1.0194  3.3571
  755MOL0     H99621   1.677   2.716  -0.525 -0.8190  3.9798  2.1979
  755MOL0     H99622   1.959   2.372  -0.398 -0.0083 -0.7226  0.3722
  755MOL0     H99623   2.201   2.351  -0.426 -1.9455 -1.6586  0.1428
  755MOL0     H99624   2.650   2.318  -0.385  3.9800 -0.5033  0.1406
  755MOL0     H99625   2.863   2.238  -0.508  0.1833 -0.8586 -1.6139
  755MOL0     H99626   3.057   2.153  -0.843 -1.1662  0.3158 -0.8619
  755MOL0     H99627   2.997   2.082  -0.696 -2.1241  0.0409  0.5960
  755MOL0     H99628   3.110   2.250  -0.588 -0.0687  1.9680  0.4603
  755MOL0     H99629   3.056   2.382  -0.697  1.1614  0.5676 -0.6905
  755MOL0     H99630   3.302   2.367  -0.701  4.1533 -2.6502 -1.1232
  755MOL0     H99631   3.235   2.308  -0.845 -0.3197 -0.1335  0.9127
  755MOL0     H99632   3.326   2.119  -0.632  0.1216  4.3652  0.3002
  755MOL0     H99633   3.281   2.065  -0.781 -4.2302  2.0167  0.8423
  755MOL0     H99634   3.522   2.067  -0.736 -0.2948  1.2735  1.6045
  755MOL0     H99635   3.514   2.241  -0.725 -0.0970 -0.7635 -0.3199
  755MOL0     H99636   3.433   2.248  -0.976 -0.2312 -1.9464 -2.4785
  755MOL0     H99637   3.466   2.081  -0.973  0.2427  0.5468 -1.6380
  755MOL0     H99638   3.684   2.296  -0.907  2.2466 -0.7121 -0.9525
  755MOL0     H99639   3.703   2.128  -0.924 -3.3126 -1.7488  0.7901
  755MOL0     H99640   3.601   2.164  -1.161  2.1674 -0.3548 -1.0194
  755MOL0     H99641   3.767   2.206  -1.128  0.2430  1.1738  0.3156
  755MOL0     H99642   2.670   2.299  -0.880  2.6748  1.6788  0.0945
  755MOL0     H99643   2.459   2.358  -0.769 -1.8262  0.8412  1.2319
  755MOL0     H99644   2.227   2.737  -0.610  0.6592 -0.9285  1.7161
  755MOL0     H99645   1.981   2.737  -0.615 -2.3780  1.5891  5.0921
  755MOL0     H99646   3.319   2.411   0.398  2.3176 -0.8522  0.1078
  755MOL0     H99647   3.556   2.445   0.381 -2.4229  1.5853  1.1895
  755MOL0     H99648   3.963   2.201   0.131  0.6335 -0.9757 -2.6316
  755MOL0     H99649   4.199   2.228   0.103 -0.9465 -0.6381 -2.1761
  755MOL0     H99650   4.397   2.285   0.157  2.7453  0.6975  2.9173
  755MOL0     H99651   4.512   2.409   0.166 -2.9981  3.4470 -0.1555
  755MOL0     H99652   4.412   2.285  -0.108  0.1843  2.3951 -1.7256
  755MOL0     H99653   4.519   2.416  -0.092 -2.8587  1.7407  1.2259
  755MOL0     H99654   4.573   2.119  -0.015  1.3780  0.1537 -0.0600
  755MOL0     H99655   4.670   2.233   0.042  0.8012 -1.0297 -0.8049
  755MOL0     H99656   4.762   2.142  -0.170 -1.5061 -0.9060  0.0677
  755MOL0     H99657   4.616   2.201  -0.245 -2.2922 -0.3633  0.7616
  755MOL0     H99658   4.874   2.545  -0.224 -0.2975  0.4329 -0.1066
  755MOL0     H99659   4.165   2.640   0.120 -0.4436 -0.5456  2.1301
  755MOL0     H99660   3.903   2.613   0.141  1.7243  1.3639 -3.1611
  756MOL0     O99661   9.822  10.463   7.080 -0.8714 -0.1346  0.1334
  756MOL0     C99662   9.715  10.518   7.102 -0.7669  0.5404 -0.4601
  756MOL0     O99663   9.646  10.584   7.007  0.4126  0.2568  0.1928
  756MOL0     C99664   9.721  10.624   6.902 -0.1143  0.0884  0.5374
  756MOL0     C99665   9.706  10.591   6.768  0.8027  0.3665  0.0442
  756MOL0     C99666   9.794  10.643   6.667  0.2189  0.9839 -0.8583
  756MOL0     C99667   9.908  10.720   6.696 -0.3972 -0.9551 -1.0821
  756MOL0     O99668  10.008  10.767   6.620  0.1162 -0.3600 -0.6299
  756MOL0     C99669  10.004  10.750   6.481  0.5140  0.5810  0.3261
  756MOL0     C99670  10.100  10.841   6.401  0.2358 -0.4057 -0.9514
  756MOL0     C99671  10.239  10.798   6.437 -0.0454  0.3207 -0.5349
  756MOL0     C99672  10.342  10.904   6.404 -0.3408  0.2275  0.2716
  756MOL0     C99673  10.480  10.840   6.430  0.1474  0.5461 -0.9129
  756MOL0     C99674  10.588  10.947   6.434  0.4111  0.0635 -0.0473
  756MOL0     C99675  10.725  10.910   6.493 -0.4502  0.6416  0.3870
  756MOL0     C99676  10.846  10.984   6.435 -0.8574 -0.1803 -0.7214
  756MOL0     N99677  10.867  11.113   6.499 -1.5562 -0.9043  0.4572
  756MOL0     C99678  10.972  11.134   6.579 -0.6471 -0.3785  0.5660
  756MOL0     C99679  10.976  11.266   6.604  0.2015 -0.1937 -0.0431
  756MOL0     C99680  11.085  11.338   6.666 -0.2183 -0.7967 -0.5004
  756MOL0     C99681  11.061  11.376   6.804 -0.5645 -0.4517 -0.2436
  756MOL0     C99682  11.121  11.516   6.845  0.1806  0.3579 -0.5926
  756MOL0     C99683  11.114  11.549   6.994  0.4678 -0.0824 -0.1025
  756MOL0     O99684  10.974  11.542   7.027 -0.1957 -0.2047 -0.4822
  756MOL0     C99685  10.892  11.639   7.008 -0.4140 -0.2761  0.6114
  756MOL0     C99686  10.930  11.772   6.961  0.0970 -0.2092  0.5721
  756MOL0     C99687  10.840  11.877   6.965  0.2735  0.2835  0.5109
  756MOL0     C99688  10.706  11.850   7.001  0.6389 -0.9825  0.3130
  756MOL0     C99689  10.612  11.963   6.994 -0.8748  0.9276  0.7035
  756MOL0     O99690  10.484  11.941   7.043 -1.1174 -0.9693 -0.3503
  756MOL0     C99691  10.377  12.021   7.050 -0.0595 -0.0452 -0.2405
  756MOL0     C99692  10.374  12.164   7.063 -0.5830  0.1174  0.3543
  756MOL0     C99693  10.254  12.232   7.083 -0.3694 -0.7762  0.2456
  756MOL0     C99694  10.132  12.170   7.094  0.9496 -0.3915  0.7643
  756MOL0     O99695  10.019  12.250   7.125  0.6903 -0.1565  0.0597
  756MOL0     C99696  10.020  12.393   7.143 -0.4262  0.0713 -0.4994
  756MOL0     C99697   9.879  12.451   7.144 -0.2743 -0.2644 -1.1955
  756MOL0     C99698   9.812  12.449   7.001  0.1534  0.4617  0.2505
  756MOL0     C99699   9.675  12.518   7.004  0.0073  0.0036  0.0599
  756MOL0     C99700   9.589  12.483   6.875  0.0721  0.0668 -0.3910
  756MOL0     C99701   9.459  12.557   6.865  0.4253 -0.1164  0.1756
  756MOL0     C99702   9.367  12.494   6.771 -0.9603 -0.4392 -1.1522
  756MOL0     C99703   9.217  12.523   6.772  0.7321 -0.4602  0.1280
  756MOL0    Cl99704   9.187  12.693   6.713  0.2482 -0.2239  0.0300
  756MOL0     C99705  10.130  12.028   7.083 -0.4090  0.1426  0.0203
  756MOL0     C99706  10.250  11.955   7.063  0.2876  0.2087  1.0017
  756MOL0     O99707  10.650  12.069   6.943 -0.4510  0.1075 -0.2723
  756MOL0     C99708  10.666  11.723   7.026  0.6407  0.3723 -0.5340
  756MOL0     C99709  10.756  11.618   7.032  0.4263 -0.2806  0.5055
  756MOL0     N99710  10.869  11.322   6.532 -0.7378  1.0099  0.2043
  756MOL0     N99711  10.810  11.230   6.460  0.0345  0.4052  0.2303
  756MOL0     C99712   9.921  10.754   6.829  0.0646 -0.1585  0.1373
  756MOL0     C99713   9.827  10.712   6.923 -0.0715  0.2738 -0.7022
  756MOL0     C99714   9.673  10.511   7.243 -1.0483  1.0704 -0.1915
  756MOL0     C99715   9.745  10.446   7.346 -0.0402  0.2931  0.2293
  756MOL0     C99716   9.692  10.425   7.470  0.4162 -0.1957 -0.0166
  756MOL0     C99717   9.568  10.475   7.498 -0.0517 -0.6742 -0.0131
  756MOL0     O99718   9.528  10.481   7.630 -0.5285  0.5208  0.5383
  756MOL0     C99719   9.437  10.577   7.687  0.4890  0.0099 -0.2569
  756MOL0     C99720   9.482  10.627   7.828  0.5342 -0.1025  0.3327
  756MOL0     C99721   9.362  10.691   7.906  0.0888 -0.3241 -0.2636
  756MOL0     C99722   9.392  10.773   8.038 -0.0371 -0.4366  0.2915
  756MOL0     C99723   9.481  10.882   7.997  0.8316 -0.5032 -0.4099
  756MOL0     C99724   9.540  10.985   7.971 -0.6730  0.1704 -0.0066
  756MOL0     C99725   9.486  10.531   7.392  0.5896 -0.6339  0.2115
  756MOL0     C99726   9.544  10.544   7.268  0.1831  0.4233  0.8507
  756MOL0     H99727   9.626  10.524   6.737  1.6162  0.1385 -1.6763
  756MOL0     H99728   9.775  10.630   6.561  0.6997 -2.6940 -0.6256
  756MOL0     H99729   9.906  10.787   6.450  0.4598 -0.1034 -0.3533
  756MOL0     H99730  10.014  10.645   6.451 -2.4805  0.2848  0.0659
  756MOL0     H99731  10.091  10.941   6.444  2.3677 -0.3080 -0.6012
  756MOL0     H99732  10.092  10.848   6.292  0.8570 -0.2599 -0.9913
  756MOL0     H99733  10.263  10.715   6.370  2.2796  2.3052 -2.3273
  756MOL0     H99734  10.245  10.776   6.544  0.9128  2.2805 -0.1442
  756MOL0     H99735  10.324  10.930   6.299 -2.0028 -1.0904  0.1889
  756MOL0     H99736  10.322  10.992   6.466 -3.5157 -0.2842  0.1396
  756MOL0     H99737  10.500  10.766   6.352  0.6503 -0.7643  0.4053
  756MOL0     H99738  10.476  10.783   6.523  1.2929 -1.2462 -1.8830
  756MOL0     H99739  10.561  11.036   6.492  2.5027  0.4868  0.3459
  756MOL0     H99740  10.588  10.982   6.331 -0.1880  2.6890  0.7615
  756MOL0     H99741  10.717  10.922   6.602 -0.8435 -0.5079  0.5034
  756MOL0     H99742  10.751  10.806   6.473 -0.1391  0.5455  1.2298
  756MOL0     H99743  10.827  10.994   6.328 -0.5349 -2.0365 -0.9819
  756MOL0     H99744  10.936  10.927   6.458 -0.9032  0.5401  1.5056
  756MOL0     H99745  11.030  11.057   6.630 -2.8835 -2.7310 -0.2172
  756MOL0     H99746  11.105  11.427   6.605  0.1207 -0.3293  0.2795
  756MOL0     H99747  11.172  11.271   6.661  1.5477  1.0313  2.5560
  756MOL0     H99748  11.095  11.302   6.877 -0.2674 -0.3087 -0.2343
  756MOL0     H99749  10.956  11.362   6.829 -1.0271 -0.9927 -2.3225
  756MOL0     H99750  11.223  11.516   6.805 -0.0748 -1.0692 -1.3123
  756MOL0     H99751  11.066  11.591   6.788 -2.0190 -1.9622 -1.7632
  756MOL0     H99752  11.158  11.645   7.022 -0.5284 -0.5303  3.3644
  756MOL0     H99753  11.180  11.482   7.049  0.9960 -0.2849 -0.9653
  756MOL0     H99754  11.027  11.790   6.916 -0.1256 -2.0707 -0.7235
  756MOL0     H99755  10.868  11.977   6.935 -1.1180  0.4294 -0.3350
  756MOL0     H99756  10.471  12.213   7.063 -0.5651  0.1491 -1.5741
  756MOL0     H99757  10.266  12.340   7.078  0.8990 -0.6330  3.4157
  756MOL0     H99758  10.079  12.441   7.065 -0.1283  0.8374  0.1866
  756MOL0     H99759  10.068  12.437   7.231 -0.9045  2.0278 -1.1635
  756MOL0     H99760   9.887  12.556   7.175  0.8149 -0.5648 -0.3809
  756MOL0     H99761   9.823  12.388   7.213 -0.0503 -1.0036 -1.6713
  756MOL0     H99762   9.801  12.342   6.980 -0.9933  0.5169  0.5133
  756MOL0     H99763   9.874  12.492   6.922 -1.3289 -1.4059 -2.0504
  756MOL0     H99764   9.627  12.469   7.089  0.3516 -2.9272 -1.3189
  756MOL0     H99765   9.681  12.625   7.022 -1.9333  0.0687  0.6031
  756MOL0     H99766   9.564  12.378   6.888 -0.0768  0.1105 -0.3209
  756MOL0     H99767   9.647  12.501   6.784  2.4038 -0.2820  0.9245
  756MOL0     H99768   9.474  12.660   6.831 -1.0711 -0.5818 -2.1151
  756MOL0     H99769   9.410  12.564   6.963 -0.2829  0.3535 -0.2007
  756MOL0     H99770   9.406  12.504   6.669 -1.3579  0.6474 -1.2160
  756MOL0     H99771   9.366  12.389   6.800 -0.9174  0.4081  2.2757
  756MOL0     H99772   9.180  12.516   6.875 -1.1058  3.0585 -0.1400
  756MOL0     H99773   9.168  12.448   6.710 -1.2366  0.3187  0.6836
  756MOL0     H99774  10.034  11.979   7.089 -0.5118  0.2802 -0.4911
  756MOL0     H99775  10.242  11.847   7.058 -1.4970  0.3039  1.4640
  756MOL0     H99776  10.565  11.700   7.058  0.7013 -2.0885 -1.8738
  756MOL0     H99777  10.719  11.522   7.066  0.4396 -0.9724 -1.3433
  756MOL0     H99778  10.006  10.817   6.856  1.0045 -0.9877 -0.7969
  756MOL0     H99779   9.831  10.740   7.028  0.1770  1.7147 -1.0803
  756MOL0     H99780   9.847  10.415   7.323  0.2413  2.0730 -1.1585
  756MOL0     H99781   9.749  10.385   7.554  3.1032  1.9647 -0.6580
  756MOL0     H99782   9.339  10.530   7.695 -0.5154  1.8630 -0.8359
  756MOL0     H99783   9.433  10.666   7.623  0.8995  1.5280  1.7209
  756MOL0     H99784   9.526  10.540   7.877  1.3722  1.2830  2.1531
  756MOL0     H99785   9.557  10.705   7.808  0.0438  0.1916 -0.4118
  756MOL0     H99786   9.296  10.605   7.919  1.3416 -1.3019 -0.1870
  756MOL0     H99787   9.299  10.754   7.844 -2.0195 -1.5368  0.5511
  756MOL0     H99788   9.301  10.820   8.078  1.6183  3.7360 -0.3168
  756MOL0     H99789   9.439  10.714   8.117  1.0728 -2.5159 -1.7903
  756MOL0     H99790   9.604  11.068   7.949  0.1377 -0.3429  0.3608
  756MOL0     H99791   9.385  10.564   7.416  1.2187  0.5965  1.2753
  756MOL0     H99792   9.485  10.587   7.188 -0.4806 -0.8519  0.6305
  757MOL0     O99793   7.153   2.958   2.582 -0.1870  0.0841 -0.1801
  757MOL0     C99794   7.247   3.020   2.628 -0.5932 -1.0093 -0.0888
  757MOL0     O99795   7.249   3.086   2.749  0.3533 -0.2963  1.0109
  757MOL0     C99796   7.128   3.084   2.821 -0.4430 -1.1959 -0.7634
  757MOL0     C99797   6.995   3.117   2.778 -0.5220  0.3925  0.3501
  757MOL0     C99798   6.895   3.135   2.873  0.1509 -0.1963 -0.0547
  757MOL0     C99799   6.919   3.101   3.005 -0.0242 -0.2417  0.4416
  757MOL0     O99800   6.810   3.109   3.093 -0.3021 -0.2499 -0.2035
  757MOL0     C99801   6.731   2.981   3.102 -0.2287 -0.0952  0.3312
  757MOL0     C99802   6.586   3.024   3.136 -0.2809  0.2376 -0.1054
  757MOL0     C99803   6.500   3.078   3.015 -0.3459  0.1371 -0.0401
  757MOL0     C99804   6.351   3.101   3.053 -0.0256 -0.8090 -0.0528
  757MOL0     C99805   6.279   3.143   2.920 -0.1011 -0.0338 -0.9474
  757MOL0     C99806   6.137   3.204   2.944 -0.4733  0.4881  0.4358
  757MOL0     C99807   6.065   3.276   2.834  0.8799  0.3511  0.6177
  757MOL0     C99808   5.937   3.347   2.882  0.9634 -0.3945  0.1847
  757MOL0     N99809   5.861   3.416   2.776 -0.3063 -0.0022  0.5608
  757MOL0     C99810   5.781   3.521   2.808  0.8456 -0.3133  0.3166
  757MOL0     C99811   5.694   3.524   2.701  0.0631 -0.0306 -0.3392
  757MOL0     C99812   5.565   3.603   2.687  0.0943 -1.0925 -0.2898
  757MOL0     C99813   5.501   3.641   2.816  0.0495  0.4691  0.6916
  757MOL0     C99814   5.370   3.708   2.787  0.3346  0.3486  0.5778
  757MOL0     C99815   5.241   3.633   2.792 -0.0682 -0.1285  0.4397
  757MOL0     O99816   5.137   3.721   2.749 -0.1794  0.1110  0.1415
  757MOL0     C99817   5.006   3.683   2.764 -0.4973  0.2740 -0.9759
  757MOL0     C99818   4.962   3.561   2.824  0.0749 -0.4316 -0.5101
  757MOL0     C99819   4.825   3.533   2.840  0.5611  0.4196 -0.6241
  757MOL0     C99820   4.730   3.633   2.811  0.6644 -0.2743  0.0080
  757MOL0     C99821   4.581   3.602   2.825  0.3884 -0.2051 -0.1557
  757MOL0     O99822   4.555   3.489   2.919 -0.3362  0.5049  0.0432
  757MOL0     C99823   4.424   3.468   2.941 -1.0274  0.1209 -0.1017
  757MOL0     C99824   4.369   3.336   2.945 -0.3185 -0.4888  0.2816
  757MOL0     C99825   4.244   3.308   2.991  0.4916  1.3013  0.7157
  757MOL0     C99826   4.159   3.409   3.037 -0.8449 -0.0222  0.8920
  757MOL0     O99827   4.029   3.400   3.084  0.3684 -0.4276  0.2943
  757MOL0     C99828   3.941   3.348   2.986  0.6887 -0.0892  0.5516
  757MOL0     C99829   3.823   3.436   2.987 -0.4148 -0.7384  0.4422
  757MOL0     C99830   3.700   3.381   2.914  0.3954  0.0171  0.2758
  757MOL0     C99831   3.574   3.453   2.940  0.6717 -0.3916 -0.5650
  757MOL0     C99832   3.455   3.367   2.902  0.0226  0.2411 -0.5824
  757MOL0     C99833   3.315   3.425   2.949 -0.5160 -0.2527 -0.0525
  757MOL0     C99834   3.215   3.366   2.853  0.1228 -0.5357  0.7278
  757MOL0     C99835   3.072   3.411   2.883  1.0167 -0.4270  1.2866
  757MOL0    Cl99836   2.955   3.307   2.798  0.1077 -0.1713 -0.4510
  757MOL0     C99837   4.220   3.537   3.058  0.2589  0.6524 -0.1034
  757MOL0     C99838   4.348   3.564   3.006 -0.0719 -0.3273  0.3523
  757MOL0     O99839   4.498   3.673   2.773 -0.3082  0.0794  0.4536
  757MOL0     C99840   4.773   3.751   2.748 -0.6078  0.0266 -0.2134
  757MOL0     C99841   4.915   3.779   2.733  1.1399  0.0348 -0.3585
  757MOL0     N99842   5.728   3.430   2.609 -0.3902 -0.5004 -0.7391
  757MOL0     N99843   5.825   3.358   2.661 -0.3111 -0.8201  0.3640
  757MOL0     C99844   7.043   3.063   3.057  1.3892  0.3595 -0.1988
  757MOL0     C99845   7.141   3.056   2.960  0.7579  1.3746  0.5877
  757MOL0     C99846   7.373   3.014   2.562  0.3330  0.3207  0.2191
  757MOL0     C99847   7.391   2.999   2.421  0.2898 -0.3590 -0.0831
  757MOL0     C99848   7.518   2.992   2.364  0.5189 -0.9872  0.1686
  757MOL0     C99849   7.628   2.993   2.449 -0.1981  0.1098  0.1467
  757MOL0     O99850   7.758   3.005   2.396  0.1622  0.4967 -0.1413
  757MOL0     C99851   7.804   2.924   2.284  0.2894  0.9138 -0.3461
  757MOL0     C99852   7.801   3.017   2.157 -0.0411  0.5562 -0.6170
  757MOL0     C99853   7.902   3.131   2.184 -0.2739 -0.5243  0.4581
  757MOL0     C99854   7.928   3.220   2.055  0.8672  0.1633 -0.1486
  757MOL0     C99855   8.008   3.154   1.956 -0.2164  0.1361 -0.6978
  757MOL0     C99856   8.083   3.114   1.867  0.0582 -1.6777 -0.1211
  757MOL0     C99857   7.610   3.003   2.590 -1.0688 -0.3614  0.5059
  757MOL0     C99858   7.487   3.015   2.647  0.5323  0.0444  0.1862
  757MOL0     H99859   6.977   3.135   2.672  0.7201  0.0542  0.0677
  757MOL0     H99860   6.797   3.165   2.837  0.2083  1.1563  0.8517
  757MOL0     H99861   6.773   2.915   3.178  0.2916 -0.5171 -0.3069
  757MOL0     H99862   6.725   2.918   3.013  1.2890  1.1458 -0.7233
  757MOL0     H99863   6.594   3.095   3.218 -2.7674  0.2222  0.2252
  757MOL0     H99864   6.537   2.932   3.169 -1.1925 -0.0182 -2.0234
  757MOL0     H99865   6.506   2.998   2.941 -1.6823 -2.3851  2.3825
  757MOL0     H99866   6.537   3.174   2.977 -2.8016  1.6564  1.0821
  757MOL0     H99867   6.308   3.009   3.092  2.6628 -1.9252  0.5175
  757MOL0     H99868   6.338   3.177   3.131 -1.3587  1.0693 -1.9982
  757MOL0     H99869   6.282   3.054   2.858 -0.9241  1.8504 -3.8948
  757MOL0     H99870   6.329   3.225   2.867 -0.0797  1.4027  1.1647
  757MOL0     H99871   6.160   3.285   3.014 -0.8325  0.9324  0.0391
  757MOL0     H99872   6.074   3.125   2.987 -0.3901  0.7953  1.1285
  757MOL0     H99873   6.138   3.341   2.785 -0.7713  1.4457 -0.4934
  757MOL0     H99874   6.040   3.195   2.765  2.5131 -0.2052  0.6394
  757MOL0     H99875   5.967   3.414   2.963 -2.2162  0.0025  1.1792
  757MOL0     H99876   5.881   3.269   2.935  2.4536 -0.6694  1.4332
  757MOL0     H99877   5.771   3.568   2.906  1.4915 -0.2402  0.3495
  757MOL0     H99878   5.488   3.548   2.633 -0.4857  0.8373 -1.5254
  757MOL0     H99879   5.596   3.688   2.627  2.2057 -1.0533  0.7675
  757MOL0     H99880   5.569   3.709   2.870  1.3294  1.4418 -1.9273
  757MOL0     H99881   5.478   3.560   2.885  3.8768 -1.7380 -0.3368
  757MOL0     H99882   5.361   3.785   2.864  1.2944  0.4585  0.5960
  757MOL0     H99883   5.376   3.759   2.691  1.9201  0.3180  0.6379
  757MOL0     H99884   5.225   3.605   2.897  1.8123 -0.3773  0.7006
  757MOL0     H99885   5.226   3.542   2.734  0.6328  0.6882 -1.0949
  757MOL0     H99886   5.024   3.483   2.868  0.9536 -0.3992 -1.6383
  757MOL0     H99887   4.794   3.434   2.872  1.0844 -0.1141 -1.7190
  757MOL0     H99888   4.432   3.253   2.913  1.0625 -0.2598  2.2026
  757MOL0     H99889   4.204   3.207   2.987 -1.1488  1.8822  1.5912
  757MOL0     H99890   3.904   3.250   3.018 -1.3333  1.2740  2.6509
  757MOL0     H99891   3.983   3.339   2.885  0.6744 -0.5679  0.5854
  757MOL0     H99892   3.849   3.532   2.942  0.2813 -0.7484  0.8049
  757MOL0     H99893   3.800   3.459   3.091  1.0006 -2.7432  1.2677
  757MOL0     H99894   3.672   3.276   2.928 -1.6101 -0.0398 -3.0856
  757MOL0     H99895   3.717   3.379   2.806 -2.6978 -2.6289 -0.3120
  757MOL0     H99896   3.560   3.480   3.046  0.5782 -2.0996 -0.1152
  757MOL0     H99897   3.582   3.541   2.876 -1.4852 -1.8738 -3.0762
  757MOL0     H99898   3.464   3.271   2.953 -2.1179  0.7725  0.9644
  757MOL0     H99899   3.457   3.351   2.794  3.7553  4.0251 -1.3167
  757MOL0     H99900   3.327   3.533   2.953 -0.0932 -0.3360  1.7484
  757MOL0     H99901   3.301   3.380   3.048  1.4338 -1.6107 -0.3308
  757MOL0     H99902   3.230   3.398   2.749 -1.8663 -1.7705  0.0133
  757MOL0     H99903   3.224   3.258   2.863 -0.5693 -0.6916 -0.1797
  757MOL0     H99904   3.060   3.514   2.847  2.2735 -0.4330  0.8249
  757MOL0     H99905   3.056   3.407   2.992 -1.4506  0.9393  1.0696
  757MOL0     H99906   4.185   3.626   3.110  1.7483  0.3019  1.6249
  757MOL0     H99907   4.388   3.657   3.043 -2.4358  0.4066  1.2554
  757MOL0     H99908   4.706   3.832   2.721  0.4538  1.0066  0.0251
  757MOL0     H99909   4.942   3.875   2.691  0.5459  0.4011  0.0907
  757MOL0     H99910   7.066   3.050   3.162  0.9186  4.3578  0.5655
  757MOL0     H99911   7.241   3.024   2.985  0.6056  0.1319 -0.3211
  757MOL0     H99912   7.300   2.998   2.362 -0.0717  1.1190  0.4316
  757MOL0     H99913   7.523   2.993   2.256  0.2697 -2.7499  0.1182
  757MOL0     H99914   7.744   2.833   2.274 -1.7839  2.4105 -3.2256
  757MOL0     H99915   7.906   2.894   2.307  0.5054  0.6367 -1.6035
  757MOL0     H99916   7.848   2.960   2.077  1.1205  0.3693  0.1767
  757MOL0     H99917   7.700   3.053   2.132 -0.5298  0.9765  1.7265
  757MOL0     H99918   8.002   3.089   2.195 -0.3178 -0.7464  0.0256
  757MOL0     H99919   7.881   3.203   2.264  1.4536  1.6857 -0.9713
  757MOL0     H99920   7.836   3.255   2.007  1.4632 -0.2260 -1.6137
  757MOL0     H99921   7.988   3.308   2.081  2.6934 -0.2828 -2.5448
  757MOL0     H99922   8.148   3.070   1.794 -0.1050  1.1663 -2.1312
  757MOL0     H99923   7.703   3.001   2.646 -0.6446  0.1230 -0.1593
  757MOL0     H99924   7.475   3.012   2.755  3.2130  0.2551  0.5568
  758MOL0     O99925   9.024   2.639   3.805  0.2560 -0.0832 -0.0679
  758MOL0     C99926   9.056   2.752   3.845 -0.0991 -1.0735 -0.0385
  758MOL0     O99927   8.979   2.855   3.899  0.9504  0.3466  0.3659
  758MOL0     C99928   8.843   2.863   3.895  0.3295  0.2137  0.5141
  758MOL0     C99929   8.757   2.770   3.835  0.3727  0.4528  0.4268
  758MOL0     C99930   8.621   2.777   3.841  0.5133 -0.1075 -0.6798
  758MOL0     C99931   8.563   2.889   3.904  0.7235  0.0355  0.0768
  758MOL0     O99932   8.428   2.910   3.902 -0.0278 -0.2964 -0.2581
  758MOL0     C99933   8.354   2.940   4.016  0.0506 -0.0235  0.2454
  758MOL0     C99934   8.202   2.931   3.994 -0.3676  0.6882 -0.0940
  758MOL0     C99935   8.147   3.035   3.903  0.0083 -0.3521  0.1107
  758MOL0     C99936   8.158   3.007   3.746 -0.1348 -0.4332 -0.5714
  758MOL0     C99937   8.125   3.128   3.665 -0.3350  0.0000 -0.3780
  758MOL0     C99938   8.056   3.084   3.531  0.1636  0.6081 -0.1033
  758MOL0     C99939   8.028   3.214   3.458  0.1550 -0.5103 -0.1852
  758MOL0     C99940   7.967   3.187   3.325 -0.5466 -0.3720 -0.0380
  758MOL0     N99941   7.831   3.136   3.317  0.5298 -0.2326 -0.6772
  758MOL0     C99942   7.728   3.201   3.247 -0.0088 -1.4888 -0.6650
  758MOL0     C99943   7.629   3.110   3.240  1.0389 -0.4890 -0.3259
  758MOL0     C99944   7.507   3.117   3.145  0.5132 -0.8762  0.1476
  758MOL0     C99945   7.456   3.253   3.107 -0.5511 -0.0940 -0.7654
  758MOL0     C99946   7.509   3.291   2.968 -0.9191 -0.4420 -0.7188
  758MOL0     C99947   7.452   3.409   2.895  0.7605 -0.1035 -0.3370
  758MOL0     O99948   7.314   3.398   2.893  0.1128 -0.7547 -0.3539
  758MOL0     C99949   7.238   3.503   2.837 -0.4018 -0.6688  0.4787
  758MOL0     C99950   7.106   3.495   2.861 -0.7817 -0.0726 -0.2412
  758MOL0     C99951   7.014   3.583   2.805  0.8659  0.2115  0.0432
  758MOL0     C99952   7.057   3.689   2.717 -0.0353  0.4770  0.1615
  758MOL0     C99953   6.965   3.797   2.680  1.1059 -0.4578 -0.1103
  758MOL0     O99954   6.856   3.822   2.756 -0.6444 -0.5599 -0.1373
  758MOL0     C99955   6.746   3.896   2.720  0.1313 -0.2912 -0.5946
  758MOL0     C99956   6.746   4.033   2.709  0.5969  0.2357 -0.0241
  758MOL0     C99957   6.624   4.100   2.689 -0.0509  0.1879  0.9158
  758MOL0     C99958   6.500   4.032   2.687  0.6649 -0.6940  0.5025
  758MOL0     O99959   6.383   4.113   2.691 -0.5771  0.1016 -0.2850
  758MOL0     C99960   6.257   4.041   2.714 -0.0541 -0.1989 -0.3286
  758MOL0     C99961   6.150   4.142   2.659  0.3814  0.1177 -1.0656
  758MOL0     C99962   6.003   4.105   2.696  0.6445  0.2231 -0.6252
  758MOL0     C99963   5.910   4.200   2.625 -0.7205 -0.1070 -0.2954
  758MOL0     C99964   5.760   4.205   2.672 -0.2778  0.0510 -0.4407
  758MOL0     C99965   5.700   4.066   2.665 -0.4410  0.0105  0.4279
  758MOL0     C99966   5.566   4.044   2.745  0.4589  0.0374  0.4330
  758MOL0     C99967   5.456   4.142   2.706  0.8695 -0.1568 -0.9029
  758MOL0    Cl99968   5.296   4.056   2.713  0.8579  0.3271  0.0850
  758MOL0     C99969   6.506   3.891   2.694  0.0882  0.9657  0.1443
  758MOL0     C99970   6.626   3.824   2.700  0.7633 -0.2664 -0.8445
  758MOL0     O99971   6.996   3.875   2.595 -0.0440 -0.1783 -0.1929
  758MOL0     C99972   7.196   3.695   2.684 -0.7913 -0.8185 -0.2611
  758MOL0     C99973   7.286   3.614   2.758  0.4592 -0.4638 -0.7027
  758MOL0     N99974   7.668   2.996   3.304  0.2730 -0.5412  0.0767
  758MOL0     N99975   7.792   3.009   3.351 -0.0971  0.5260  0.1285
  758MOL0     C99976   8.643   2.986   3.961 -0.4861  0.2445  0.0118
  758MOL0     C99977   8.783   2.969   3.960 -0.1924 -0.0909  0.0927
  758MOL0     C99978   9.197   2.789   3.825  0.1798  0.6415 -0.5379
  758MOL0     C99979   9.281   2.682   3.781 -1.2643  0.5263  0.1781
  758MOL0     C99980   9.417   2.709   3.736 -0.3561 -0.4397 -0.4098
  758MOL0     C99981   9.474   2.836   3.757  0.4925  0.4970 -0.0939
  758MOL0     O99982   9.595   2.873   3.711  0.0627  0.2430 -0.3896
  758MOL0     C99983   9.683   2.784   3.648 -0.1271  0.2256 -0.1258
  758MOL0     C99984   9.739   2.687   3.752 -0.4575 -0.4131 -0.6200
  758MOL0     C99985   9.825   2.577   3.688 -0.3367 -0.4036 -0.1332
  758MOL0     C99986   9.768   2.443   3.697  1.2273  0.3177  0.6480
  758MOL0     C99987   9.666   2.438   3.594 -0.4373  1.0081 -0.1221
  758MOL0     C99988   9.605   2.422   3.489 -0.7033 -1.4405 -0.3130
  758MOL0     C99989   9.394   2.926   3.831  0.5171  1.0474 -0.7508
  758MOL0     C99990   9.255   2.911   3.866 -0.4297 -1.6303  0.9253
  758MOL0     H99991   8.799   2.693   3.772 -0.2361  0.9663 -0.6206
  758MOL0     H99992   8.555   2.707   3.789 -0.5165  2.2488 -2.7482
  758MOL0     H99993   8.369   3.044   4.045 -4.0021  0.8965 -0.3888
  758MOL0     H99994   8.381   2.871   4.097 -1.1280 -0.5748  0.1819
  758MOL0     H99995   8.144   2.944   4.086  2.9777  2.1141  2.0011
  758MOL0     H99996   8.184   2.832   3.952 -0.3225  0.3993  0.5474
  758MOL0     H99997   8.182   3.134   3.934  1.2318 -0.7173 -0.0230
  758MOL0     H99998   8.042   3.023   3.929  0.1205 -0.6236  0.4445
  758MOL0     H99999   8.247   2.957   3.705  1.8240  2.1493  0.3093
  758MOL0     H    0   8.070   2.941   3.746 -1.1457  0.8467  0.9208
  758MOL0     H    1   8.217   3.184   3.647 -1.3946  1.2846 -2.0738
  758MOL0     H    2   8.055   3.186   3.725 -1.0606 -0.3791 -0.8402
  758MOL0     H    3   7.968   3.021   3.549  0.5931 -0.9771 -2.8845
  758MOL0     H    4   8.121   3.018   3.472  3.0861  1.0192  2.3839
  758MOL0     H    5   7.960   3.279   3.515  0.2617  1.0824 -1.7914
  758MOL0     H    6   8.126   3.261   3.448  0.6791 -1.8544 -1.7514
  758MOL0     H    7   8.041   3.128   3.271 -1.3640  0.2861 -1.9571
  758MOL0     H    8   7.961   3.279   3.266  1.7945 -0.5004 -0.5458
  758MOL0     H    9   7.739   3.299   3.203 -0.4028  0.4813  3.2416
  758MOL0     H   10   7.422   3.065   3.190  0.2952 -0.8502 -0.2351
  758MOL0     H   11   7.521   3.047   3.062 -0.9386 -2.2638  0.9994
  758MOL0     H   12   7.474   3.325   3.187 -0.7171  0.6098 -1.3510
  758MOL0     H   13   7.347   3.261   3.105 -0.4477  1.3701 -1.5725
  758MOL0     H   14   7.617   3.306   2.985 -0.9053 -0.0068 -1.1738
  758MOL0     H   15   7.503   3.205   2.901 -1.8776  1.0770 -2.7053
  758MOL0     H   16   7.499   3.404   2.796  0.3061 -0.5558 -0.5390
  758MOL0     H   17   7.483   3.505   2.937  0.5253  0.7351 -2.0057
  758MOL0     H   18   7.059   3.411   2.911 -2.0997 -0.6416 -2.2584
  758MOL0     H   19   6.910   3.567   2.829  0.2937  1.9783 -1.1232
  758MOL0     H   20   6.838   4.089   2.720  0.5802  0.4430 -0.8573
  758MOL0     H   21   6.631   4.207   2.672  0.5394 -0.0945 -0.9455
  758MOL0     H   22   6.251   4.030   2.823  1.5498  1.9166  0.0348
  758MOL0     H   23   6.242   3.945   2.663 -1.1307  0.5148 -1.4146
  758MOL0     H   24   6.149   4.130   2.551 -0.4716 -1.5028 -0.9154
  758MOL0     H   25   6.179   4.244   2.682  0.2356 -0.1036  0.1788
  758MOL0     H   26   6.001   4.098   2.805 -0.6199  0.1550 -0.6472
  758MOL0     H   27   5.982   4.004   2.658 -0.8167  0.8730 -1.5973
  758MOL0     H   28   5.941   4.305   2.635 -1.0202 -0.0391 -0.0557
  758MOL0     H   29   5.918   4.173   2.520  0.1513 -4.1784  0.6195
  758MOL0     H   30   5.702   4.283   2.621  0.2496  1.3297  0.8303
  758MOL0     H   31   5.772   4.231   2.778  1.8971 -1.8952 -0.1215
  758MOL0     H   32   5.771   3.986   2.692 -1.7125 -1.2386  0.1942
  758MOL0     H   33   5.681   4.041   2.561 -0.8588  1.6474  0.0957
  758MOL0     H   34   5.518   3.950   2.716  0.5146 -0.3114  1.4336
  758MOL0     H   35   5.589   4.050   2.852  2.0094  3.6768  0.0145
  758MOL0     H   36   5.481   4.207   2.622  3.0407 -0.5022 -0.5659
  758MOL0     H   37   5.450   4.215   2.787  1.4093 -0.7671 -0.3033
  758MOL0     H   38   6.415   3.832   2.694  0.5990  0.0953  2.6536
  758MOL0     H   39   6.626   3.716   2.708  3.4327 -0.3399 -0.9654
  758MOL0     H   40   7.227   3.781   2.626  0.3527 -0.4572  0.8333
  758MOL0     H   41   7.393   3.628   2.746  0.5531  0.5765  1.1181
  758MOL0     H   42   8.611   3.082   4.000 -1.2283 -0.1360  0.3550
  758MOL0     H   43   8.845   3.050   3.998  0.2992 -1.1571  1.6330
  758MOL0     H   44   9.237   2.588   3.747  1.2043  0.5739 -3.8993
  758MOL0     H   45   9.477   2.633   3.686  1.6639  0.1104  1.0321
  758MOL0     H   46   9.761   2.845   3.601  0.4668 -0.8076 -0.5218
  758MOL0     H   47   9.637   2.726   3.568  0.6928 -0.5156 -0.0714
  758MOL0     H   48   9.792   2.748   3.826 -3.1791 -0.2515  1.3650
  758MOL0     H   49   9.656   2.654   3.815  0.0659  0.4318  0.5644
  758MOL0     H   50   9.923   2.590   3.736  1.6397  2.0981 -4.2431
  758MOL0     H   51   9.858   2.604   3.587  2.5313 -0.8699  0.5913
  758MOL0     H   52   9.839   2.362   3.679  1.3459  0.6269 -0.2796
  758MOL0     H   53   9.727   2.431   3.798  1.3069  1.2609  0.7997
  758MOL0     H   54   9.539   2.402   3.407  0.6422 -3.4233 -0.9892
  758MOL0     H   55   9.439   3.022   3.854  0.1178  1.5262 -1.8997
  758MOL0     H   56   9.191   2.989   3.905 -0.8495 -0.8436 -1.2206
  759MOL0     O   57   9.866  10.554   8.527 -0.3715  0.1522  0.3137
  759MOL0     C   58   9.853  10.654   8.599  0.4829 -0.4506  0.9575
  759MOL0     O   59   9.881  10.665   8.725 -0.0063  0.0575  0.1754
  759MOL0     C   60   9.890  10.552   8.799  0.0287  1.1129 -0.0156
  759MOL0     C   61   9.784  10.520   8.885 -0.1133  0.7461  0.1148
  759MOL0     C   62   9.782  10.405   8.961  0.8289 -0.0308 -0.5529
  759MOL0     C   63   9.894  10.317   8.969  0.0599 -0.9129 -0.0936
  759MOL0     O   64   9.897  10.219   9.059  0.3929  0.0883 -0.3635
  759MOL0     C   65   9.890  10.245   9.199 -0.2646  0.4173 -0.7219
  759MOL0     C   66   9.851  10.119   9.284 -0.4666 -0.0973 -0.4994
  759MOL0     C   67   9.699  10.104   9.308 -0.8813  0.3689 -0.0739
  759MOL0     C   68   9.627  10.093   9.175 -0.4260  0.2310  0.0172
  759MOL0     C   69   9.488  10.037   9.202  0.2448  0.6885 -0.0831
  759MOL0     C   70   9.396  10.144   9.266 -0.3380 -0.4373  0.2917
  759MOL0     C   71   9.256  10.094   9.264  1.1763 -0.3092 -0.7221
  759MOL0     C   72   9.158  10.204   9.313 -0.4468 -0.0761  0.4538
  759MOL0     N   73   9.018  10.156   9.304  0.2277  0.4795 -0.6135
  759MOL0     C   74   8.915  10.159   9.213 -0.4280  0.8338  0.3507
  759MOL0     C   75   8.809  10.094   9.274 -0.4012  0.6837  0.4729
  759MOL0     C   76   8.675  10.078   9.202  0.0134  0.2166  0.5301
  759MOL0     C   77   8.560  10.040   9.307  0.0233  0.4245  0.6112
  759MOL0     C   78   8.535  10.149   9.414  0.4369  0.1728 -0.3157
  759MOL0     C   79   8.434  10.078   9.512 -0.1497  0.1155  0.8820
  759MOL0     O   80   8.291  10.072   9.472 -0.3254  0.6757  0.7458
  759MOL0     C   81   8.214   9.952   9.457  0.7755  0.1144  0.6397
  759MOL0     C   82   8.259   9.824   9.454 -0.4564 -0.6422 -0.5424
  759MOL0     C   83   8.174   9.713   9.428 -0.5826 -0.9141  0.0287
  759MOL0     C   84   8.037   9.735   9.410 -1.0271 -0.5819 -0.2945
  759MOL0     C   85   7.950   9.626   9.394 -1.0971  0.1748 -0.6076
  759MOL0     O   86   7.815   9.636   9.398 -0.4582 -0.3512 -0.1794
  759MOL0     C   87   7.747   9.520   9.400  0.2680  0.1919  0.2314
  759MOL0     C   88   7.664   9.500   9.511 -0.2243 -0.4832  0.7243
  759MOL0     C   89   7.582   9.389   9.513  0.0569  0.3505 -0.3759
  759MOL0     C   90   7.593   9.283   9.419 -0.2508 -0.8204 -0.0627
  759MOL0     O   91   7.514   9.176   9.449 -0.2948  0.2006 -0.0098
  759MOL0     C   92   7.499   9.060   9.364  0.1686 -0.4985  0.6176
  759MOL0     C   93   7.392   9.107   9.265  0.6160 -0.0571 -0.7406
  759MOL0     C   94   7.254   9.110   9.337  0.5596  0.5315 -0.3617
  759MOL0     C   95   7.139   9.120   9.231  0.0692 -0.0511 -0.2028
  759MOL0     C   96   6.998   9.103   9.288 -0.6191  0.1157 -0.6513
  759MOL0     C   97   6.962   8.963   9.312  0.1262  0.2063  0.3709
  759MOL0     C   98   6.819   8.939   9.352  0.5861 -1.3185 -0.0584
  759MOL0     C   99   6.720   8.959   9.233 -0.6852  0.8232 -0.6824
  759MOL0    Cl  100   6.569   8.881   9.277  0.4234 -0.0387 -0.5716
  759MOL0     C  101   7.675   9.309   9.310  0.5822  0.1932  0.2824
  759MOL0     C  102   7.750   9.422   9.299 -0.6372  0.0662  0.2769
  759MOL0     O  103   8.000   9.515   9.389  0.3908 -0.2215  0.2231
  759MOL0     C  104   7.988   9.866   9.405 -0.3145 -0.5560  0.4287
  759MOL0     C  105   8.081   9.970   9.429 -0.4287  0.1109  0.2328
  759MOL0     N  106   8.854  10.046   9.393 -0.2959 -0.8824 -0.1776
  759MOL0     N  107   8.975  10.082   9.408  0.5153  1.2626  0.5898
  759MOL0     C  108   9.997  10.344   8.882  0.2338 -0.9821 -0.7918
  759MOL0     C  109   9.996  10.462   8.810 -0.0965 -0.3748  0.4254
  759MOL0     C  110   9.795  10.769   8.522  0.0780  0.2404 -0.1762
  759MOL0     C  111   9.788  10.891   8.597  0.2594 -0.0846  0.3002
  759MOL0     C  112   9.750  11.008   8.538  0.7929  0.1445 -0.5993
  759MOL0     C  113   9.707  11.010   8.409 -0.1308  0.1878 -0.3997
  759MOL0     O  114   9.653  11.125   8.351  1.0145  0.3329  0.1805
  759MOL0     C  115   9.748  11.229   8.338 -0.0004  0.1351 -0.0217
  759MOL0     C  116   9.683  11.347   8.262  0.2237  0.5648 -0.5826
  759MOL0     C  117   9.568  11.413   8.343  0.1025 -0.1453 -0.9078
  759MOL0     C  118   9.623  11.499   8.465 -0.0307 -0.1717  0.1691
  759MOL0     C  119   9.720  11.607   8.428  0.0756 -0.0196  0.4913
  759MOL0     C  120   9.783  11.701   8.385 -0.0945  0.1461  0.3628
  759MOL0     C  121   9.709  10.896   8.332 -0.5630 -0.3802  0.0591
  759MOL0     C  122   9.756  10.772   8.386 -0.1266 -0.4099 -0.3323
  759MOL0     H  123   9.692  10.579   8.889 -1.3650 -1.0548 -0.9893
  759MOL0     H  124   9.699  10.397   9.031 -0.0693  1.7408 -1.3564
  759MOL0     H  125   9.823  10.330   9.215 -1.3120 -0.7760  1.6727
  759MOL0     H  126   9.988  10.279   9.233 -0.7984  1.3695 -0.1115
  759MOL0     H  127   9.897  10.130   9.383  0.9340 -1.2330 -0.9974
  759MOL0     H  128   9.896  10.031   9.238 -0.1666 -1.7438  2.6445
  759MOL0     H  129   9.661  10.183   9.373 -2.5381 -0.9392  0.6238
  759MOL0     H  130   9.686  10.005   9.353 -2.0574 -0.7488 -2.7123
  759MOL0     H  131   9.612  10.184   9.116 -3.1547 -0.4586 -0.4958
  759MOL0     H  132   9.691  10.028   9.115 -0.4401  2.2333 -2.3439
  759MOL0     H  133   9.488   9.945   9.260  1.8543 -1.2383 -2.8873
  759MOL0     H  134   9.447  10.004   9.106  0.1020  2.1955 -0.5610
  759MOL0     H  135   9.409  10.238   9.211 -0.9925 -1.2665 -1.3815
  759MOL0     H  136   9.434  10.160   9.367  0.9606 -0.0396 -0.2331
  759MOL0     H  137   9.231  10.071   9.160  0.5524 -0.7080 -0.4904
  759MOL0     H  138   9.235  10.001   9.318  0.4315 -0.5064 -1.3408
  759MOL0     H  139   9.168  10.304   9.270 -3.9450  0.4383  0.5775
  759MOL0     H  140   9.182  10.213   9.419 -1.4521  0.9996  0.6112
  759MOL0     H  141   8.923  10.203   9.115  2.1439 -2.5596 -1.2086
  759MOL0     H  142   8.689   9.996   9.131  4.0033  0.4560  0.8183
  759MOL0     H  143   8.654  10.171   9.150 -0.7801  0.5909  1.4965
  759MOL0     H  144   8.604   9.957   9.364  0.0350 -1.2343 -1.6939
  759MOL0     H  145   8.468  10.026   9.250  0.2587  2.0080 -0.2479
  759MOL0     H  146   8.626  10.175   9.469  0.4291 -3.3201  1.6293
  759MOL0     H  147   8.485  10.239   9.377 -3.9454 -0.2219  3.6995
  759MOL0     H  148   8.439  10.127   9.610  0.3633  1.5179  0.1897
  759MOL0     H  149   8.465   9.975   9.528 -3.5770 -1.4206 -1.2072
  759MOL0     H  150   8.366   9.804   9.461 -0.5846 -1.2930 -0.3854
  759MOL0     H  151   8.209   9.611   9.422 -0.3777 -0.9785  1.6784
  759MOL0     H  152   7.648   9.580   9.582 -0.4750 -0.2706  0.4321
  759MOL0     H  153   7.522   9.365   9.600  1.6794  2.0083  1.2894
  759MOL0     H  154   7.476   8.973   9.427  0.0660 -1.7347 -1.0370
  759MOL0     H  155   7.584   9.037   9.299 -1.4863 -1.0203 -1.4926
  759MOL0     H  156   7.384   9.026   9.191 -1.4614 -2.7425  2.1306
  759MOL0     H  157   7.417   9.201   9.216  0.1578  0.2602 -0.3653
  759MOL0     H  158   7.255   9.199   9.400  1.6028  0.1749  0.1497
  759MOL0     H  159   7.248   9.022   9.402  1.3464  1.4888  1.0601
  759MOL0     H  160   7.139   9.212   9.172 -0.3321 -0.3353 -0.6603
  759MOL0     H  161   7.147   9.041   9.156 -0.5478  0.1681 -0.5066
  759MOL0     H  162   6.941   9.146   9.206 -3.3157 -0.4216  0.8301
  759MOL0     H  163   6.991   9.157   9.384  5.1852  0.9636 -0.3413
  759MOL0     H  164   7.020   8.932   9.399  0.7503  2.7924  0.9828
  759MOL0     H  165   7.002   8.908   9.226 -0.7881  0.9071 -0.5239
  759MOL0     H  166   6.814   8.836   9.387  0.6300 -1.3402 -0.1137
  759MOL0     H  167   6.791   9.008   9.432 -0.3652  0.9986 -2.2569
  759MOL0     H  168   6.754   8.904   9.144  1.3078 -1.4811  1.3708
  759MOL0     H  169   6.709   9.066   9.213  0.9353  1.1424 -0.0302
  759MOL0     H  170   7.677   9.236   9.229  2.1426 -0.9729  1.3187
  759MOL0     H  171   7.792   9.441   9.201  0.9013 -0.1042  0.8723
  759MOL0     H  172   7.889   9.891   9.369  0.5879  1.0006 -1.1056
  759MOL0     H  173   8.046  10.073   9.421  0.1318  0.1951 -1.7202
  759MOL0     H  174  10.071  10.267   8.897 -1.2163 -2.1851  0.4160
  759MOL0     H  175  10.084  10.475   8.749 -0.2272  2.0981  0.6422
  759MOL0     H  176   9.812  10.901   8.702 -2.6979 -0.2396  1.0774
  759MOL0     H  177   9.727  11.093   8.601  2.2296  0.6050 -0.6619
  759MOL0     H  178   9.828  11.191   8.273  0.0398 -0.1128  0.1725
  759MOL0     H  179   9.798  11.257   8.431 -2.1721 -2.3786  2.0546
  759MOL0     H  180   9.768  11.415   8.249  0.9329 -0.2263 -0.1997
  759MOL0     H  181   9.653  11.316   8.162  1.5034 -0.3679 -0.6998
  759MOL0     H  182   9.507  11.335   8.390  0.8214 -0.8079 -1.0486
  759MOL0     H  183   9.503  11.485   8.292 -2.9028 -2.7148 -1.0254
  759MOL0     H  184   9.536  11.542   8.515 -0.9704 -3.7461  1.9916
  759MOL0     H  185   9.670  11.433   8.538  2.3262 -0.0305 -1.1253
  759MOL0     H  186   9.844  11.785   8.359 -0.2444  0.4935  1.1137
  759MOL0     H  187   9.663  10.894   8.234 -2.5408 -2.1574  0.9431
  759MOL0     H  188   9.765  10.680   8.329  0.7526 -0.0962 -0.7119
  760MOL0     O  189  10.432  11.202   6.204  0.4612  0.3317 -0.3893
  760MOL0     C  190  10.439  11.271   6.104 -0.6582 -0.4870 -0.3075
  760MOL0     O  191  10.355  11.255   5.994 -0.3996 -0.7136  0.4731
  760MOL0     C  192  10.251  11.167   5.998  0.5145  0.0380 -0.2159
  760MOL0     C  193  10.243  11.052   5.918  0.3759  0.3351  0.2906
  760MOL0     C  194  10.135  10.964   5.931  0.3155  0.5711 -0.2774
  760MOL0     C  195  10.049  10.979   6.038  0.6756  0.8834 -0.3979
  760MOL0     O  196   9.941  10.899   6.066  0.1625  0.1792 -0.0499
  760MOL0     C  197   9.902  10.792   5.987  0.7675 -0.3051  0.2178
  760MOL0     C  198   9.794  10.729   6.072  0.5095 -0.0831 -0.4681
  760MOL0     C  199   9.675  10.823   6.081 -0.1408 -0.8431  0.5939
  760MOL0     C  200   9.570  10.772   6.185  0.0112 -0.0062 -0.6723
  760MOL0     C  201   9.427  10.839   6.174  0.1785  0.4834  1.1460
  760MOL0     C  202   9.432  10.983   6.195  0.2102 -0.4598 -0.0442
  760MOL0     C  203   9.283  11.036   6.196  0.0618  0.1656 -0.0478
  760MOL0     C  204   9.215  11.034   6.054  0.2187 -0.2474 -0.5333
  760MOL0     N  205   9.086  11.109   6.058  0.2140 -0.4101 -0.3242
  760MOL0     C  206   8.980  11.074   6.131  0.8511 -0.5186  0.4407
  760MOL0     C  207   8.899  11.181   6.143 -0.5539  0.2661  0.0261
  760MOL0     C  208   8.773  11.188   6.227 -0.9441  0.1834 -0.0355
  760MOL0     C  209   8.700  11.318   6.210  0.0082 -0.2739 -0.5318
  760MOL0     C  210   8.588  11.331   6.306 -0.0865  0.6070  0.8322
  760MOL0     C  211   8.491  11.213   6.319 -0.6504  0.3797  0.9433
  760MOL0     O  212   8.386  11.232   6.414  0.4243 -0.0082  0.6379
  760MOL0     C  213   8.404  11.208   6.551 -0.0275  0.1715 -0.4220
  760MOL0     C  214   8.525  11.180   6.610 -0.0181  0.3041 -0.6082
  760MOL0     C  215   8.539  11.148   6.737 -0.0758 -0.1547  0.4912
  760MOL0     C  216   8.428  11.131   6.822 -0.3915 -0.2185 -0.1098
  760MOL0     C  217   8.450  11.097   6.956  0.4591 -0.4889 -0.1486
  760MOL0     O  218   8.332  11.090   7.027 -0.7981  0.1660  0.6371
  760MOL0     C  219   8.334  11.080   7.168 -0.0504  0.0113  0.8248
  760MOL0     C  220   8.222  11.014   7.217 -0.5995 -0.3090 -1.3004
  760MOL0     C  221   8.216  10.999   7.356 -0.0800 -0.1521 -0.0417
  760MOL0     C  222   8.319  11.041   7.443 -0.6928 -0.2233 -0.2051
  760MOL0     O  223   8.327  11.030   7.583  0.2128 -0.1512  0.1945
  760MOL0     C  224   8.222  10.957   7.640  0.0272 -0.3003  0.1385
  760MOL0     C  225   8.233  10.968   7.795  0.3445 -1.7498  0.1591
  760MOL0     C  226   8.160  10.857   7.876 -0.5082  1.0325 -0.5562
  760MOL0     C  227   8.184  10.874   8.026  0.2326 -0.0552 -0.0615
  760MOL0     C  228   8.104  10.976   8.103  0.4658 -0.2092 -0.7636
  760MOL0     C  229   7.958  10.941   8.116 -0.1253 -0.2436 -0.0321
  760MOL0     C  230   7.897  11.025   8.235  1.1219  0.1505 -0.6355
  760MOL0     C  231   7.806  10.931   8.323  0.5255 -0.1076 -0.1374
  760MOL0    Cl  232   7.914  10.815   8.414  0.3229  0.0095  0.4764
  760MOL0     C  233   8.424  11.124   7.396 -0.7086 -1.4560  0.1205
  760MOL0     C  234   8.420  11.145   7.253  0.0052  0.2909  0.1220
  760MOL0     O  235   8.561  11.101   7.002  0.1666  0.5956 -0.2605
  760MOL0     C  236   8.300  11.167   6.763  0.8623  0.0089  0.0417
  760MOL0     C  237   8.294  11.217   6.634  0.3949 -0.3307 -0.5149
  760MOL0     N  238   8.957  11.279   6.067 -0.8581  0.1035  0.6893
  760MOL0     N  239   9.074  11.242   6.017 -0.2906 -0.6502  0.3562
  760MOL0     C  240  10.060  11.085   6.128 -0.0311 -0.8621  0.1458
  760MOL0     C  241  10.160  11.178   6.103  0.0587 -0.0023 -0.9256
  760MOL0     C  242  10.550  11.378   6.090 -0.1009 -0.1584 -0.0072
  760MOL0     C  243  10.581  11.437   5.963  0.1227  0.4054 -0.5983
  760MOL0     C  244  10.690  11.511   5.943 -0.2550  0.2161  0.0474
  760MOL0     C  245  10.781  11.544   6.048 -0.0535  1.0214  0.5220
  760MOL0     O  246  10.886  11.629   6.025  0.2430 -0.2216 -0.2093
  760MOL0     C  247  10.975  11.651   6.130 -0.5833  0.2955  0.3038
  760MOL0     C  248  11.096  11.746   6.085  0.1549  0.2890 -0.8444
  760MOL0     C  249  11.177  11.779   6.208 -0.9363 -0.5291  0.3255
  760MOL0     C  250  11.311  11.851   6.157  0.5958  0.1403 -0.2948
  760MOL0     C  251  11.374  11.925   6.268 -0.3229 -1.1670 -0.3747
  760MOL0     C  252  11.431  11.966   6.369 -0.2637 -0.5967 -0.5019
  760MOL0     C  253  10.746  11.493   6.177 -0.5189  0.6446 -1.3875
  760MOL0     C  254  10.643  11.401   6.192  1.0385  0.4250  0.3703
  760MOL0     H  255  10.323  11.047   5.845  0.2521  1.9012  0.0204
  760MOL0     H  256  10.143  10.872   5.874 -1.5956  0.6537 -0.7405
  760MOL0     H  257   9.986  10.723   5.972  0.1937 -1.0998  0.5752
  760MOL0     H  258   9.874  10.820   5.885  2.5340 -0.9995 -0.4960
  760MOL0     H  259   9.824  10.727   6.177 -2.4807 -0.7234  0.4637
  760MOL0     H  260   9.760  10.633   6.030 -1.6561 -0.0854  1.0998
  760MOL0     H  261   9.635  10.842   5.981  1.5246  1.7683  0.3224
  760MOL0     H  262   9.705  10.922   6.118  1.8545 -0.5405 -1.6140
  760MOL0     H  263   9.554  10.671   6.146  0.6181 -0.3503 -0.0484
  760MOL0     H  264   9.604  10.781   6.288 -0.6119 -3.3040 -0.0685
  760MOL0     H  265   9.366  10.777   6.241 -2.1302  1.6128  0.1784
  760MOL0     H  266   9.385  10.816   6.076 -0.7936 -1.2887  1.9299
  760MOL0     H  267   9.494  11.038   6.124  1.4940 -0.3789  1.0878
  760MOL0     H  268   9.472  10.999   6.296  1.9904  0.0485 -0.7941
  760MOL0     H  269   9.220  10.972   6.258  1.5917 -1.8491 -0.4727
  760MOL0     H  270   9.286  11.136   6.241 -0.6669  0.0864  0.1819
  760MOL0     H  271   9.192  10.931   6.026  0.3823 -0.9680  1.7672
  760MOL0     H  272   9.289  11.076   5.985  1.5918 -1.0008  0.4273
  760MOL0     H  273   8.946  10.979   6.173 -0.0932  0.5806  2.3316
  760MOL0     H  274   8.806  11.182   6.331 -0.4847 -1.5429 -0.2407
  760MOL0     H  275   8.702  11.111   6.197 -0.6521  0.2148 -0.8250
  760MOL0     H  276   8.662  11.314   6.108 -0.5999  0.3093 -0.3335
  760MOL0     H  277   8.766  11.405   6.219  0.5217 -0.8080  1.6148
  760MOL0     H  278   8.643  11.355   6.398 -0.2610 -1.9071  1.6674
  760MOL0     H  279   8.526  11.417   6.279  2.2692  1.9239 -0.6970
  760MOL0     H  280   8.543  11.119   6.339 -1.4147  0.1409  1.9058
  760MOL0     H  281   8.436  11.203   6.225  0.2933  2.2432  0.1507
  760MOL0     H  282   8.616  11.187   6.551  0.3340 -0.5350 -0.1820
  760MOL0     H  283   8.636  11.122   6.778  0.1358 -1.4167 -0.7550
  760MOL0     H  284   8.151  10.967   7.149  1.1826 -4.1799 -0.7752
  760MOL0     H  285   8.127  10.951   7.396  0.3074  2.8369  5.3976
  760MOL0     H  286   8.232  10.853   7.607  2.1746  0.3054 -1.3169
  760MOL0     H  287   8.127  11.002   7.611 -0.6981 -0.9957  1.3566
  760MOL0     H  288   8.203  11.071   7.814  0.6616 -1.4564 -0.8624
  760MOL0     H  289   8.338  10.959   7.821 -0.0240 -1.5206  1.8810
  760MOL0     H  290   8.186  10.758   7.836 -1.7836  0.4114  0.0749
  760MOL0     H  291   8.051  10.856   7.860 -0.2832 -0.6530 -2.3464
  760MOL0     H  292   8.157  10.774   8.060 -3.1527  0.8243  0.1510
  760MOL0     H  293   8.292  10.895   8.027 -0.0358  1.4376  0.0633
  760MOL0     H  294   8.121  11.081   8.077  1.4694 -0.6909 -2.1468
  760MOL0     H  295   8.135  10.990   8.207  2.8505  1.3207 -1.5963
  760MOL0     H  296   7.951  10.833   8.131 -2.2798 -0.0157  1.0229
  760MOL0     H  297   7.909  10.973   8.024  0.7231  1.9784  0.2271
  760MOL0     H  298   7.971  11.060   8.308  0.5231 -1.6700  0.9643
  760MOL0     H  299   7.845  11.109   8.188 -0.1252  0.4176  1.1053
  760MOL0     H  300   7.739  10.871   8.261  0.7336  0.2700 -0.7421
  760MOL0     H  301   7.743  10.989   8.390  1.2208  0.5067 -0.0020
  760MOL0     H  302   8.496  11.168   7.464 -0.2736 -0.7788 -0.7556
  760MOL0     H  303   8.476  11.224   7.203 -1.1391 -0.2729 -2.1971
  760MOL0     H  304   8.216  11.169   6.832  0.8028 -1.0780  0.0260
  760MOL0     H  305   8.199  11.251   6.593  1.6385  3.1616 -0.8367
  760MOL0     H  306   9.993  11.088   6.214 -1.3856 -0.4865 -0.8788
  760MOL0     H  307  10.179  11.247   6.185  2.0826 -0.5692 -0.8724
  760MOL0     H  308  10.518  11.414   5.877 -1.1919  0.9893  0.1861
  760MOL0     H  309  10.697  11.544   5.840 -3.1047 -2.2671 -1.0881
  760MOL0     H  310  11.018  11.557   6.164 -2.6126 -0.3858  1.1075
  760MOL0     H  311  10.922  11.695   6.215 -0.5339 -0.6804  0.8499
  760MOL0     H  312  11.157  11.695   6.009  1.8713  2.5390 -1.1152
  760MOL0     H  313  11.058  11.839   6.041 -2.1675  0.3697  1.1529
  760MOL0     H  314  11.192  11.689   6.269 -0.3861 -1.1758 -0.7329
  760MOL0     H  315  11.122  11.851   6.270 -1.0897  2.5213 -3.0540
  760MOL0     H  316  11.381  11.770   6.134  0.1289 -1.3822  3.0548
  760MOL0     H  317  11.287  11.916   6.073 -0.7053 -0.8982 -0.7669
  760MOL0     H  318  11.479  11.998   6.459 -0.5101  0.7094 -0.8192
  760MOL0     H  319  10.808  11.512   6.264  0.3452 -5.6091 -0.1256
  760MOL0     H  320  10.636  11.347   6.286  2.1705 -0.3592  0.0217
  761MOL0     O  321   4.421  10.480   1.198 -0.4628 -0.8644 -0.4965
  761MOL0     C  322   4.477  10.493   1.306 -0.4231  0.5496 -0.5406
  761MOL0     O  323   4.417  10.501   1.427 -0.5637 -0.4782 -0.2236
  761MOL0     C  324   4.284  10.535   1.424  0.0805 -0.3064 -0.2396
  761MOL0     C  325   4.232  10.666   1.387 -0.4438 -0.8236  0.0928
  761MOL0     C  326   4.096  10.698   1.406 -0.2221  0.5923 -0.8843
  761MOL0     C  327   4.014  10.601   1.445  0.2134 -0.1639 -0.3723
  761MOL0     O  328   3.884  10.649   1.460 -0.5092  0.2778 -0.0429
  761MOL0     C  329   3.785  10.557   1.418  0.0885 -0.0327 -0.3801
  761MOL0     C  330   3.651  10.632   1.385  0.0174 -0.8871 -0.2074
  761MOL0     C  331   3.566  10.661   1.506  0.2567  0.2620  0.2523
  761MOL0     C  332   3.513  10.538   1.587  0.2960 -0.1720  0.4268
  761MOL0     C  333   3.439  10.585   1.712  0.4379  1.0089  0.3540
  761MOL0     C  334   3.365  10.462   1.763  0.4801  0.1897  1.0880
  761MOL0     C  335   3.259  10.504   1.870  0.1207  0.3974  0.6834
  761MOL0     C  336   3.310  10.459   2.007 -0.0588  0.0101 -0.0090
  761MOL0     N  337   3.242  10.513   2.122  0.3165 -0.5051 -0.2572
  761MOL0     C  338   3.111  10.543   2.126  0.6767 -0.1521 -0.6145
  761MOL0     C  339   3.085  10.563   2.257  0.9029  0.3058 -0.1982
  761MOL0     C  340   2.965  10.633   2.303 -0.3030  0.2399 -1.0064
  761MOL0     C  341   2.971  10.776   2.251  0.0660 -0.5470 -0.8373
  761MOL0     C  342   2.887  10.872   2.340 -0.0134 -0.0376 -0.4506
  761MOL0     C  343   2.731  10.850   2.347 -0.1599 -0.0231  0.4202
  761MOL0     O  344   2.667  10.933   2.447 -0.8550 -0.0458 -0.3056
  761MOL0     C  345   2.529  10.915   2.457  0.4811 -1.1640  0.3549
  761MOL0     C  346   2.465  10.785   2.459 -0.6022 -0.9831  0.7694
  761MOL0     C  347   2.330  10.773   2.455  0.0499 -0.0100  0.4183
  761MOL0     C  348   2.251  10.886   2.459 -0.0410 -0.3781 -0.0858
  761MOL0     C  349   2.098  10.875   2.436 -0.8699  0.7103 -0.1484
  761MOL0     O  350   2.042  10.993   2.447  0.5074  0.3665  0.3846
  761MOL0     C  351   1.907  10.996   2.446  0.0267 -0.6621 -0.9477
  761MOL0     C  352   1.827  10.927   2.539  0.5055  0.7334  0.7554
  761MOL0     C  353   1.688  10.949   2.537  0.0062  0.6091  0.5130
  761MOL0     C  354   1.626  11.038   2.445 -0.2487 -0.2528 -0.9415
  761MOL0     O  355   1.491  11.061   2.429  0.3221  0.0402 -0.2884
  761MOL0     C  356   1.404  10.979   2.520 -0.5944 -0.2965 -0.4762
  761MOL0     C  357   1.260  11.004   2.482 -0.0777  0.2811  0.7516
  761MOL0     C  358   1.161  10.959   2.581  0.4739  0.3973 -0.0768
  761MOL0     C  359   1.016  10.960   2.520  0.3318 -0.0693 -0.9129
  761MOL0     C  360   0.903  10.964   2.625 -0.6231  0.5122 -0.0126
  761MOL0     C  361   0.759  10.988   2.567  0.8605  0.1240  0.2090
  761MOL0     C  362   0.657  10.984   2.685 -0.5324  0.0020  0.2707
  761MOL0     C  363   0.538  11.065   2.647  0.3015  0.3045 -0.8837
  761MOL0    Cl  364   0.397  11.004   2.728 -0.2083  0.0314 -0.0841
  761MOL0     C  365   1.715  11.112   2.365  0.2109 -0.6680  1.3533
  761MOL0     C  366   1.853  11.096   2.370  0.0123 -1.0101 -0.4323
  761MOL0     O  367   2.038  10.763   2.427  0.1534  0.0448  0.4100
  761MOL0     C  368   2.307  11.014   2.487 -0.8894 -0.4098 -0.3168
  761MOL0     C  369   2.449  11.031   2.494 -0.0533  0.1916  0.4580
  761MOL0     N  370   3.202  10.548   2.329  0.4886 -0.2734  0.5087
  761MOL0     N  371   3.301  10.520   2.247 -0.4032 -0.1589 -0.7799
  761MOL0     C  372   4.056  10.469   1.470 -0.0482 -0.8409 -0.7559
  761MOL0     C  373   4.189  10.437   1.460  0.5957  0.2413  0.5434
  761MOL0     C  374   4.630  10.472   1.311  0.8804  0.0410 -0.3732
  761MOL0     C  375   4.701  10.466   1.194 -0.1243  0.1480 -0.3685
  761MOL0     C  376   4.843  10.439   1.192 -0.6691  0.0836 -0.1752
  761MOL0     C  377   4.911  10.419   1.319 -0.3457 -0.8598  0.4877
  761MOL0     O  378   5.041  10.382   1.331 -0.6182  0.5486  0.3939
  761MOL0     C  379   5.140  10.395   1.225 -0.4704  1.7378  0.3388
  761MOL0     C  380   5.265  10.313   1.273  1.2180  0.2908  0.7869
  761MOL0     C  381   5.395  10.389   1.259 -0.6182  0.6488  0.7871
  761MOL0     C  382   5.431  10.408   1.109 -0.2053  0.4970  0.0685
  761MOL0     C  383   5.572  10.443   1.089  1.0512  0.0260  0.2839
  761MOL0     C  384   5.683  10.491   1.067 -0.4001  0.0777  0.2387
  761MOL0     C  385   4.841  10.443   1.442  0.5718 -0.0594  0.6805
  761MOL0     C  386   4.700  10.465   1.434  0.3179  0.4389  0.6127
  761MOL0     H  387   4.307  10.737   1.353 -1.9370 -0.1524 -2.0906
  761MOL0     H  388   4.069  10.802   1.397  1.9235  1.1232 -1.9599
  761MOL0     H  389   3.777  10.477   1.491 -0.3017 -0.3441 -0.7587
  761MOL0     H  390   3.819  10.502   1.330  1.3522 -4.2698  2.4837
  761MOL0     H  391   3.597  10.568   1.314 -1.8466  0.1335  0.2340
  761MOL0     H  392   3.675  10.726   1.336 -1.2153  1.3296  3.1227
  761MOL0     H  393   3.479  10.715   1.468  0.0925  1.5987  2.3611
  761MOL0     H  394   3.619  10.734   1.568 -1.7238  2.5001 -0.5306
  761MOL0     H  395   3.457  10.483   1.510  2.5053  0.5012 -1.8141
  761MOL0     H  396   3.605  10.484   1.610  2.6897  2.8985 -1.0428
  761MOL0     H  397   3.364  10.663   1.702 -1.8860 -0.2401  5.0513
  761MOL0     H  398   3.505  10.626   1.790  1.0404 -1.5888  1.3334
  761MOL0     H  399   3.439  10.395   1.809 -0.4557 -0.4792  1.6423
  761MOL0     H  400   3.319  10.408   1.680 -1.8086  0.3460  2.1778
  761MOL0     H  401   3.225  10.607   1.858 -0.3681  0.1636 -0.0466
  761MOL0     H  402   3.169  10.446   1.845  1.7786 -1.0369 -2.5256
  761MOL0     H  403   3.415  10.489   2.010  0.6141 -2.0584 -0.7067
  761MOL0     H  404   3.311  10.350   2.013 -2.2022  0.0231  1.6558
  761MOL0     H  405   3.036  10.560   2.049  1.0965 -0.3238 -1.0654
  761MOL0     H  406   2.951  10.638   2.411 -2.8433  1.8954 -1.3252
  761MOL0     H  407   2.880  10.578   2.261 -2.7033  3.0670 -0.2496
  761MOL0     H  408   2.944  10.765   2.146  0.9611  2.2936 -1.4421
  761MOL0     H  409   3.074  10.812   2.254 -0.6648  1.8403 -2.1849
  761MOL0     H  410   2.915  10.863   2.445 -2.2611 -3.7157 -0.0005
  761MOL0     H  411   2.905  10.972   2.299  0.6820 -0.9393 -2.4639
  761MOL0     H  412   2.706  10.746   2.370 -0.3435  0.1595  1.0734
  761MOL0     H  413   2.691  10.865   2.246  0.7495 -0.5438 -0.0274
  761MOL0     H  414   2.536  10.704   2.472  1.9595  0.9665 -0.2997
  761MOL0     H  415   2.297  10.669   2.447 -0.9949  0.1107  2.4700
  761MOL0     H  416   1.877  10.853   2.601  1.8811  1.2682  0.3178
  761MOL0     H  417   1.640  10.881   2.607 -3.2408  1.6558 -0.5231
  761MOL0     H  418   1.415  11.009   2.625  2.0603 -2.2693 -0.1090
  761MOL0     H  419   1.431  10.876   2.496  0.7839  0.2960 -1.5865
  761MOL0     H  420   1.234  10.955   2.387 -1.2187 -0.5982  1.4935
  761MOL0     H  421   1.244  11.110   2.461  0.5017  0.0087 -1.3152
  761MOL0     H  422   1.164  11.034   2.661 -1.3803  1.2893 -0.7824
  761MOL0     H  423   1.171  10.862   2.630 -1.4813  0.6574  0.9544
  761MOL0     H  424   1.004  11.037   2.444 -2.8250 -0.8581 -1.3756
  761MOL0     H  425   1.003  10.862   2.472  0.4862 -0.6707  0.2414
  761MOL0     H  426   0.922  11.042   2.699 -1.6457 -0.9477  1.8879
  761MOL0     H  427   0.915  10.877   2.691  1.4370  0.7180 -0.0252
  761MOL0     H  428   0.738  10.914   2.489 -1.2206  1.5753 -0.7085
  761MOL0     H  429   0.758  11.090   2.528  0.2666  0.6534  1.5089
  761MOL0     H  430   0.635  10.879   2.709 -1.5351  0.5518  1.9691
  761MOL0     H  431   0.704  11.026   2.775 -0.9979 -2.1788  1.6248
  761MOL0     H  432   0.507  11.056   2.542 -1.4839  0.1356 -0.3804
  761MOL0     H  433   0.558  11.167   2.682  0.0415 -0.4902  1.7811
  761MOL0     H  434   1.670  11.174   2.288  1.0763  0.0012  1.3763
  761MOL0     H  435   1.912  11.154   2.301 -0.3150  1.4157  1.1940
  761MOL0     H  436   2.254  11.108   2.501  2.1469  1.1861  1.5329
  761MOL0     H  437   2.499  11.120   2.531 -0.5825  0.0159  1.6463
  761MOL0     H  438   3.986  10.398   1.513  0.5532 -0.8156  0.2922
  761MOL0     H  439   4.224  10.336   1.477 -3.6312 -1.7948 -1.3463
  761MOL0     H  440   4.642  10.459   1.103 -2.9240 -2.7105  1.4626
  761MOL0     H  441   4.894  10.441   1.096 -1.0569 -0.5196 -0.4007
  761MOL0     H  442   5.156  10.502   1.209 -0.7461  1.3964 -3.0899
  761MOL0     H  443   5.101  10.350   1.133  2.1646 -0.6917  0.2503
  761MOL0     H  444   5.246  10.295   1.380  1.4498 -0.9741  0.6317
  761MOL0     H  445   5.261  10.221   1.213  3.7606  0.8144 -0.3157
  761MOL0     H  446   5.470  10.326   1.309 -0.9738 -1.2334 -0.9212
  761MOL0     H  447   5.390  10.487   1.306 -0.9204  1.1411 -0.2468
  761MOL0     H  448   5.420  10.309   1.063 -0.5782  0.8858 -0.6833
  761MOL0     H  449   5.372  10.481   1.054  1.6496  0.9503 -1.4026
  761MOL0     H  450   5.775  10.545   1.061  0.2408 -0.8551  1.3308
  761MOL0     H  451   4.894  10.456   1.536  1.2519  0.0706  0.2877
  761MOL0     H  452   4.656  10.470   1.533  2.3370 -0.3014  1.6196
  762MOL0     O  453   3.523   5.998   4.737  0.1164 -0.1849  0.2045
  762MOL0     C  454   3.594   6.096   4.757  0.5589  0.4355  1.0430
  762MOL0     O  455   3.555   6.223   4.747 -1.0472  0.3328  0.4678
  762MOL0     C  456   3.422   6.243   4.740 -1.0583 -0.1346 -0.2590
  762MOL0     C  457   3.365   6.309   4.848 -0.5692  0.5493  0.6530
  762MOL0     C  458   3.229   6.340   4.856 -0.4956 -0.0780 -0.4971
  762MOL0     C  459   3.136   6.298   4.758 -0.2813  0.2880  0.7062
  762MOL0     O  460   3.003   6.332   4.774 -0.1689  0.7760 -0.0163
  762MOL0     C  461   2.896   6.252   4.731  0.1937  0.1798  0.3760
  762MOL0     C  462   2.778   6.346   4.707  0.1534  1.0910  0.4146
  762MOL0     C  463   2.794   6.439   4.585 -0.1570 -0.2410  0.0826
  762MOL0     C  464   2.663   6.519   4.576  0.8061  0.3729 -0.3284
  762MOL0     C  465   2.681   6.637   4.482 -0.6614  0.0328 -0.1758
  762MOL0     C  466   2.542   6.697   4.446 -0.3785  0.0490 -0.1971
  762MOL0     C  467   2.468   6.634   4.329 -0.4261  0.8470  1.0876
  762MOL0     C  468   2.537   6.670   4.197 -0.1441 -0.0108  1.2046
  762MOL0     N  469   2.511   6.581   4.075  0.3972 -1.0289 -1.1365
  762MOL0     C  470   2.384   6.528   4.051 -0.3755 -0.1611  0.9925
  762MOL0     C  471   2.390   6.471   3.926 -0.2950  0.5486  0.0430
  762MOL0     C  472   2.272   6.398   3.861 -1.1407 -0.1181  0.8140
  762MOL0     C  473   2.155   6.482   3.830  0.4995 -0.1416  0.4380
  762MOL0     C  474   2.032   6.394   3.805  0.7740 -0.4413 -0.4035
  762MOL0     C  475   2.039   6.273   3.703 -0.4192 -0.7130  0.7904
  762MOL0     O  476   1.914   6.207   3.710  0.4566 -0.0414  0.0433
  762MOL0     C  477   1.806   6.263   3.632  0.2885  0.2840  0.2708
  762MOL0     C  478   1.678   6.201   3.618  0.5309 -0.6010  0.4276
  762MOL0     C  479   1.573   6.254   3.543  0.7829  0.7177 -0.0642
  762MOL0     C  480   1.594   6.374   3.474 -0.2471 -0.0795  0.1169
  762MOL0     C  481   1.480   6.432   3.395 -0.2736 -0.5615  0.4832
  762MOL0     O  482   1.392   6.345   3.337 -0.3949  0.2531  1.1209
  762MOL0     C  483   1.294   6.393   3.262  0.6309 -0.6785  1.3881
  762MOL0     C  484   1.286   6.348   3.133  0.4635  1.4507 -0.2762
  762MOL0     C  485   1.178   6.374   3.046  0.2232  0.7501 -0.7140
  762MOL0     C  486   1.087   6.474   3.084 -0.3320 -1.5025 -0.5157
  762MOL0     O  487   0.973   6.518   3.014  1.0531 -0.7324  0.7086
  762MOL0     C  488   0.976   6.493   2.871 -0.2037 -0.4398  0.2723
  762MOL0     C  489   0.850   6.535   2.786  0.2235  1.3734 -0.5635
  762MOL0     C  490   0.845   6.691   2.764 -0.6942  0.9315  0.4159
  762MOL0     C  491   0.855   6.783   2.881 -0.1308  1.4275 -0.0140
  762MOL0     C  492   0.838   6.922   2.834 -0.3292  0.5682  0.4869
  762MOL0     C  493   0.864   7.021   2.949 -0.1804 -0.5653  0.7668
  762MOL0     C  494   0.753   7.025   3.054  0.2149  0.4453 -0.1419
  762MOL0     C  495   0.813   7.023   3.192 -0.0722 -0.4730  0.0974
  762MOL0    Cl  496   0.695   7.058   3.315 -0.4869  0.0152 -0.0703
  762MOL0     C  497   1.097   6.526   3.213 -0.8100 -0.8798 -1.4851
  762MOL0     C  498   1.195   6.481   3.310 -0.3661  0.2171  0.8366
  762MOL0     O  499   1.475   6.552   3.400  0.5068 -1.1109  0.1731
  762MOL0     C  500   1.719   6.434   3.473 -1.2586  0.3260  0.3257
  762MOL0     C  501   1.816   6.377   3.552 -0.2125  1.0854 -0.1360
  762MOL0     N  502   2.526   6.483   3.887 -0.1255  0.6612  0.0717
  762MOL0     N  503   2.591   6.556   3.976 -0.5357 -0.6872  0.8915
  762MOL0     C  504   3.188   6.237   4.641 -0.0611 -0.2895 -0.5757
  762MOL0     C  505   3.329   6.205   4.634 -0.1517 -0.8215  0.1791
  762MOL0     C  506   3.741   6.068   4.788  0.0511 -0.0757  0.0178
  762MOL0     C  507   3.832   6.178   4.782  0.2863  0.6343 -0.3612
  762MOL0     C  508   3.968   6.152   4.784  0.1093 -0.5424 -0.9209
  762MOL0     C  509   4.017   6.021   4.813  0.0350 -0.6178 -0.3034
  762MOL0     O  510   4.143   5.985   4.837 -0.2433  0.2764 -0.7906
  762MOL0     C  511   4.251   6.082   4.847 -0.5983 -1.0289  0.1138
  762MOL0     C  512   4.379   6.018   4.910 -0.7223 -0.4122  0.7849
  762MOL0     C  513   4.489   6.111   4.938  0.0135  0.3461  0.3231
  762MOL0     C  514   4.604   6.025   4.981  0.1497  0.0144 -0.3162
  762MOL0     C  515   4.726   6.082   4.932 -0.7799  0.5889 -0.6039
  762MOL0     C  516   4.832   6.128   4.897 -1.0528 -0.7328  0.4642
  762MOL0     C  517   3.922   5.911   4.826 -0.6940 -0.3067  0.0458
  762MOL0     C  518   3.791   5.942   4.806 -0.7192  0.4596 -0.8061
  762MOL0     H  519   3.435   6.329   4.929  1.7710 -0.5513 -0.9918
  762MOL0     H  520   3.188   6.394   4.940  0.0767 -1.5820  0.8076
  762MOL0     H  521   2.875   6.186   4.816 -1.3678  1.3862  0.9733
  762MOL0     H  522   2.912   6.195   4.638  0.8689 -0.8015  1.0718
  762MOL0     H  523   2.761   6.414   4.791 -1.8436  0.5175  0.5332
  762MOL0     H  524   2.684   6.290   4.706  0.1596  1.0497  1.2977
  762MOL0     H  525   2.799   6.368   4.502 -1.1398  0.2191 -0.3857
  762MOL0     H  526   2.884   6.500   4.592 -0.0678 -0.5432  2.6276
  762MOL0     H  527   2.583   6.457   4.535  0.8323  1.3399 -1.9618
  762MOL0     H  528   2.639   6.552   4.678  2.5085  2.0722 -0.4192
  762MOL0     H  529   2.731   6.599   4.392 -1.4491 -1.9733  0.1923
  762MOL0     H  530   2.742   6.713   4.531 -1.2592  0.5208 -0.1702
  762MOL0     H  531   2.555   6.802   4.416 -0.8414  0.8342  2.1774
  762MOL0     H  532   2.480   6.697   4.536 -2.8866 -0.2400 -1.8215
  762MOL0     H  533   2.453   6.525   4.335  0.1889  0.7194  0.3755
  762MOL0     H  534   2.371   6.682   4.311 -0.6627 -0.5617 -2.1763
  762MOL0     H  535   2.646   6.664   4.205  0.1564 -2.0013 -2.3157
  762MOL0     H  536   2.517   6.773   4.166  0.1616  0.0466  1.1934
  762MOL0     H  537   2.303   6.536   4.123 -1.7896  2.4025 -0.7258
  762MOL0     H  538   2.233   6.321   3.929  2.4867 -4.7100 -1.7143
  762MOL0     H  539   2.295   6.346   3.768 -2.9445  4.9225 -2.8464
  762MOL0     H  540   2.181   6.548   3.746 -2.5407 -1.4625 -1.7384
  762MOL0     H  541   2.123   6.553   3.906  0.0228  0.1622 -0.0372
  762MOL0     H  542   2.007   6.357   3.904 -1.1907 -0.8595 -1.0247
  762MOL0     H  543   1.957   6.467   3.775 -0.1591 -0.2788  2.0786
  762MOL0     H  544   2.118   6.204   3.733 -0.3179 -1.7907 -1.6847
  762MOL0     H  545   2.073   6.304   3.604 -0.0134  1.4687  1.5626
  762MOL0     H  546   1.674   6.104   3.667  0.5334  0.1355  1.9309
  762MOL0     H  547   1.481   6.199   3.532  0.9206  0.4559  0.0821
  762MOL0     H  548   1.363   6.282   3.095 -1.1093  0.1489 -1.3234
  762MOL0     H  549   1.178   6.343   2.942 -1.6641  0.6929 -0.7353
  762MOL0     H  550   0.990   6.385   2.855 -2.4699 -0.5149 -1.8165
  762MOL0     H  551   1.063   6.545   2.829 -0.4632  0.2411  0.5638
  762MOL0     H  552   0.761   6.499   2.837  1.4967  0.5523  1.1945
  762MOL0     H  553   0.847   6.490   2.687 -3.0427  0.8999 -0.3450
  762MOL0     H  554   0.752   6.706   2.710 -0.4372 -0.7702 -0.5609
  762MOL0     H  555   0.923   6.723   2.693 -0.8184  1.8062  0.6530
  762MOL0     H  556   0.789   6.749   2.962  1.2122 -1.6317 -0.0903
  762MOL0     H  557   0.959   6.775   2.913 -0.5204  1.1693  1.2493
  762MOL0     H  558   0.741   6.937   2.785  0.2461 -0.0166 -0.8873
  762MOL0     H  559   0.911   6.927   2.753 -1.2082 -2.3469 -0.6071
  762MOL0     H  560   0.865   7.118   2.899 -0.6985 -0.6093  0.6563
  762MOL0     H  561   0.955   6.995   3.003 -0.4603  0.1829  1.6218
  762MOL0     H  562   0.699   7.118   3.032  1.2436  0.7069 -1.7575
  762MOL0     H  563   0.684   6.940   3.051  1.8198 -0.9771  1.1781
  762MOL0     H  564   0.889   7.102   3.196  0.8095 -1.1972 -1.5824
  762MOL0     H  565   0.870   6.931   3.207  1.8581  0.6214 -0.1030
  762MOL0     H  566   1.010   6.586   3.235 -0.1705 -0.4565  0.0291
  762MOL0     H  567   1.183   6.525   3.408 -1.2197  0.0342  0.8230
  762MOL0     H  568   1.736   6.519   3.407  0.8154  0.0944  0.4710
  762MOL0     H  569   1.909   6.431   3.537 -0.1557  0.9745 -0.1802
  762MOL0     H  570   3.122   6.218   4.557 -1.2978  1.2672 -0.0137
  762MOL0     H  571   3.373   6.156   4.548  0.5204 -0.0658  0.0858
  762MOL0     H  572   3.802   6.280   4.765 -1.2268  0.7988  2.6392
  762MOL0     H  573   4.037   6.230   4.753  0.3205 -0.7109 -0.8750
  762MOL0     H  574   4.232   6.162   4.920 -1.3732 -3.7746  3.2029
  762MOL0     H  575   4.280   6.122   4.750 -0.7794 -0.2850  0.3653
  762MOL0     H  576   4.343   5.959   4.995  2.9353 -0.9840  2.1235
  762MOL0     H  577   4.415   5.946   4.835  1.3580 -1.1378  2.3787
  762MOL0     H  578   4.455   6.170   5.023  2.2499  0.4798  1.2126
  762MOL0     H  579   4.517   6.178   4.856 -1.8499 -0.1760 -0.7854
  762MOL0     H  580   4.610   6.018   5.090  1.9640  1.6391 -0.2603
  762MOL0     H  581   4.596   5.919   4.952 -4.7281  0.0571  0.0642
  762MOL0     H  582   4.923   6.171   4.863 -0.9438 -1.6573 -0.4716
  762MOL0     H  583   3.971   5.816   4.844  0.5910  0.1248 -1.0268
  762MOL0     H  584   3.720   5.860   4.804  0.7537 -0.8712 -3.0602
  763MOL0     O  585   4.687   7.678  10.269  0.8087 -0.2278 -0.2745
  763MOL0     C  586   4.765   7.768  10.292 -0.0630 -0.1348  0.1535
  763MOL0     O  587   4.732   7.897  10.309  0.3287 -0.9568  0.4764
  763MOL0     C  588   4.605   7.924  10.259  0.0291 -0.5991  1.4370
  763MOL0     C  589   4.561   7.918  10.124 -0.1767 -0.5103 -0.2312
  763MOL0     C  590   4.429   7.962  10.091 -0.5865  0.1094 -0.2711
  763MOL0     C  591   4.341   8.011  10.193 -0.3283  0.5852 -0.6481
  763MOL0     O  592   4.224   8.064  10.152  0.1045  0.4556 -0.3458
  763MOL0     C  593   4.133   8.113  10.246 -0.7015  0.4342  0.3360
  763MOL0     C  594   4.018   8.177  10.171  0.9978 -0.4335 -0.3711
  763MOL0     C  595   3.908   8.228  10.267 -0.2544 -0.1705  1.3300
  763MOL0     C  596   3.787   8.258  10.170  0.2869  0.1747 -0.9816
  763MOL0     C  597   3.660   8.308  10.243 -0.3953 -0.4978 -0.0272
  763MOL0     C  598   3.559   8.378  10.144 -0.0983  0.6625  0.8314
  763MOL0     C  599   3.412   8.409  10.197  0.4263 -0.4869 -0.4840
  763MOL0     C  600   3.317   8.290  10.191 -0.3369 -0.1145 -0.2472
  763MOL0     N  601   3.188   8.314  10.249  0.0761 -0.0014  0.3288
  763MOL0     C  602   3.102   8.419  10.201 -0.4380 -0.3492  0.9899
  763MOL0     C  603   3.023   8.429  10.307 -0.3176  0.2810  0.5489
  763MOL0     C  604   2.920   8.541  10.307  0.2615  0.4751  0.6581
  763MOL0     C  605   2.778   8.491  10.261 -0.3990 -0.6758 -0.0950
  763MOL0     C  606   2.683   8.613  10.246  0.2032  0.3888  0.5245
  763MOL0     C  607   2.542   8.579  10.216 -0.1389  0.7259  0.5509
  763MOL0     O  608   2.478   8.502  10.324  0.3118 -0.3686  0.1933
  763MOL0     C  609   2.343   8.515  10.345 -0.0246  0.3119 -1.0152
  763MOL0     C  610   2.255   8.580  10.251  0.7898 -0.3972  0.9302
  763MOL0     C  611   2.120   8.579  10.277  0.3654 -0.5399  0.0070
  763MOL0     C  612   2.065   8.520  10.387  0.2085 -0.0997 -0.4612
  763MOL0     C  613   1.924   8.518  10.409  0.9735  0.3854  0.2620
  763MOL0     O  614   1.835   8.587  10.326  0.0146  0.0629 -0.7028
  763MOL0     C  615   1.718   8.622  10.379  0.2269  0.4837 -0.0072
  763MOL0     C  616   1.680   8.638  10.504 -0.2016 -0.6780 -0.1599
  763MOL0     C  617   1.560   8.690  10.534  0.3013  0.3813  0.4055
  763MOL0     C  618   1.456   8.698  10.437  0.0272  0.1604 -0.7560
  763MOL0     O  619   1.327   8.724  10.471 -0.0091  0.0115  0.3567
  763MOL0     C  620   1.270   8.600  10.507  0.2414 -0.7438 -0.3674
  763MOL0     C  621   1.117   8.624  10.502 -0.4986  0.4466 -0.4532
  763MOL0     C  622   1.060   8.671  10.362 -0.9683  0.2080 -0.1706
  763MOL0     C  623   0.910   8.638  10.334 -0.1382  0.3701 -0.2026
  763MOL0     C  624   0.816   8.691  10.440 -0.0745 -0.5403 -1.0414
  763MOL0     C  625   0.669   8.632  10.426  0.2138 -0.4502 -0.2879
  763MOL0     C  626   0.594   8.685  10.550 -0.6881 -0.4926  0.2671
  763MOL0     C  627   0.456   8.638  10.547 -0.3709  0.2074 -0.3209
  763MOL0    Cl  628   0.369   8.722  10.689 -0.1491 -0.1062  0.4197
  763MOL0     C  629   1.499   8.686  10.305 -0.1239 -0.1675  0.0127
  763MOL0     C  630   1.626   8.661  10.272 -0.6131  0.2772 -0.1458
  763MOL0     O  631   1.889   8.445  10.502 -0.5366 -0.2856  0.5848
  763MOL0     C  632   2.150   8.457  10.479  0.8213 -0.3148  0.6088
  763MOL0     C  633   2.287   8.459  10.460 -1.0332 -0.0233 -0.5710
  763MOL0     N  634   3.038   8.324  10.401 -0.6439 -1.6334 -0.2152
  763MOL0     N  635   3.142   8.254  10.371 -0.3041 -0.0508  0.5453
  763MOL0     C  636   4.383   8.013  10.327 -0.1024  0.1074 -0.4363
  763MOL0     C  637   4.513   7.971  10.358 -0.3196  0.5589 -0.0241
  763MOL0     C  638   4.896   7.739  10.344  0.9374 -0.5881  0.2339
  763MOL0     C  639   5.007   7.821  10.306  0.1118 -0.1750 -0.1458
  763MOL0     C  640   5.133   7.787  10.347 -0.4829 -0.4720  0.2331
  763MOL0     C  641   5.159   7.659  10.413 -0.0455  0.0675  0.3000
  763MOL0     O  642   5.288   7.593  10.434  0.5591  0.0901  0.9045
  763MOL0     C  643   5.398   7.663  10.390 -0.0720  0.2188 -0.0076
  763MOL0     C  644   5.529   7.603  10.444 -0.4136 -0.1069  0.1874
  763MOL0     C  645   5.536   7.451  10.424  0.5227  0.5882  0.2422
  763MOL0     C  646   5.655   7.383  10.493 -0.0137 -1.7112  0.0279
  763MOL0     C  647   5.792   7.419  10.442  0.3013 -0.1698  0.5446
  763MOL0     C  648   5.894   7.447  10.387 -0.6585  0.9400 -0.4694
  763MOL0     C  649   5.047   7.591  10.450  0.9583  1.1287 -0.1789
  763MOL0     C  650   4.919   7.630  10.424 -0.2213  0.3263  0.1280
  763MOL0     H  651   4.631   7.893  10.045 -1.2376 -1.8035 -0.8122
  763MOL0     H  652   4.397   7.979   9.988  0.8269  2.0761 -0.4411
  763MOL0     H  653   4.181   8.185  10.312 -1.1478  3.0438 -2.0022
  763MOL0     H  654   4.101   8.027  10.305 -1.2806 -0.4846 -1.2486
  763MOL0     H  655   3.979   8.100  10.104 -1.9221 -0.8626  1.6409
  763MOL0     H  656   4.064   8.259  10.115 -2.4440  1.4832 -0.6367
  763MOL0     H  657   3.927   8.318  10.325 -2.1548  0.2768  1.3241
  763MOL0     H  658   3.889   8.150  10.341  0.3563 -1.6019  0.0352
  763MOL0     H  659   3.813   8.326  10.089  2.7049  1.5512  0.7965
  763MOL0     H  660   3.762   8.157  10.134  1.5899 -1.2472  1.7653
  763MOL0     H  661   3.692   8.373  10.325 -1.1360  0.1982 -0.2827
  763MOL0     H  662   3.622   8.220  10.297 -3.8785  0.6420 -0.4091
  763MOL0     H  663   3.547   8.322  10.052  1.1552 -0.1929  1.1660
  763MOL0     H  664   3.604   8.475  10.123  1.6995 -0.4529 -0.6713
  763MOL0     H  665   3.402   8.449  10.298  1.7423 -1.2158 -0.0417
  763MOL0     H  666   3.373   8.488  10.132  0.7204  0.4170  0.4216
  763MOL0     H  667   3.359   8.206  10.247 -1.1571 -0.1755  0.2996
  763MOL0     H  668   3.300   8.260  10.088 -0.6916  1.5662 -0.7102
  763MOL0     H  669   3.114   8.480  10.112  0.6214 -0.0704  1.3061
  763MOL0     H  670   2.941   8.618  10.232 -5.7983  2.7949  0.7541
  763MOL0     H  671   2.916   8.585  10.407 -1.8143 -0.3551  0.9814
  763MOL0     H  672   2.732   8.418  10.329 -2.3831  0.4132 -0.1824
  763MOL0     H  673   2.790   8.446  10.162 -0.0601  0.1501 -0.4331
  763MOL0     H  674   2.690   8.672  10.339  2.6581 -0.5259  0.9782
  763MOL0     H  675   2.720   8.685  10.173  2.2951  0.5550  1.6670
  763MOL0     H  676   2.527   8.512  10.131 -0.3699 -1.0835  1.9682
  763MOL0     H  677   2.488   8.673  10.200 -1.2941 -0.2812 -2.3036
  763MOL0     H  678   2.296   8.618  10.159 -0.8100  0.7389  0.6592
  763MOL0     H  679   2.054   8.624  10.204 -0.6118 -0.2450  1.0453
  763MOL0     H  680   1.748   8.610  10.584  0.6697 -2.9710 -1.5929
  763MOL0     H  681   1.537   8.703  10.639 -1.5250 -2.2913  0.4246
  763MOL0     H  682   1.297   8.562  10.606  0.6083 -2.2855 -1.0175
  763MOL0     H  683   1.293   8.527  10.428  0.4017  1.3120 -2.3224
  763MOL0     H  684   1.093   8.693  10.583 -1.1580 -0.8676  0.4974
  763MOL0     H  685   1.073   8.527  10.526 -0.8075  0.7301  0.1462
  763MOL0     H  686   1.125   8.627  10.285  0.6433 -0.1861  1.3481
  763MOL0     H  687   1.063   8.779  10.347  0.8697 -0.1676 -3.6174
  763MOL0     H  688   0.889   8.690  10.240  0.7405  1.9879  0.4600
  763MOL0     H  689   0.885   8.532  10.320  0.3989  0.2241 -0.0776
  763MOL0     H  690   0.811   8.800  10.430 -0.7599 -0.4456  0.1687
  763MOL0     H  691   0.854   8.663  10.538  0.1973  0.4301 -0.8615
  763MOL0     H  692   0.687   8.526  10.445 -0.2945 -0.2150  1.8023
  763MOL0     H  693   0.612   8.645  10.334 -1.5124  2.7527  1.0487
  763MOL0     H  694   0.642   8.670  10.647 -0.8940 -3.6565 -0.0145
  763MOL0     H  695   0.589   8.793  10.537 -1.2348 -0.3128  1.8409
  763MOL0     H  696   0.447   8.529  10.555 -0.1516  0.2451  0.5354
  763MOL0     H  697   0.400   8.658  10.456  0.4829 -1.0901 -1.1641
  763MOL0     H  698   1.428   8.701  10.225 -0.5357 -2.8858 -0.2165
  763MOL0     H  699   1.662   8.668  10.170 -2.9358 -0.1350 -1.0421
  763MOL0     H  700   2.108   8.393  10.555 -1.6802 -0.5673 -0.8406
  763MOL0     H  701   2.353   8.404  10.527 -1.8582 -0.5671 -0.1823
  763MOL0     H  702   4.315   8.038  10.407  3.6969  0.3796  3.0367
  763MOL0     H  703   4.549   7.965  10.460 -2.4926 -0.2367  0.7504
  763MOL0     H  704   4.976   7.896  10.234 -3.9243 -2.0820 -0.6869
  763MOL0     H  705   5.223   7.841  10.321 -1.8552  1.3572 -0.9096
  763MOL0     H  706   5.394   7.770  10.413  0.1077  1.1647 -3.6546
  763MOL0     H  707   5.397   7.680  10.281  0.4135  1.6069  0.1852
  763MOL0     H  708   5.606   7.656  10.387 -1.7698  1.6292 -0.1367
  763MOL0     H  709   5.539   7.628  10.550  1.0929  2.2435 -0.4307
  763MOL0     H  710   5.539   7.434  10.316 -3.6620  1.1500 -0.1323
  763MOL0     H  711   5.449   7.397  10.464 -0.0459  2.6045  1.9181
  763MOL0     H  712   5.626   7.407  10.596 -2.8998 -2.2906 -0.5676
  763MOL0     H  713   5.641   7.276  10.475 -0.9597 -1.3477 -1.6895
  763MOL0     H  714   5.990   7.477  10.352 -0.1369 -0.6877 -0.5236
  763MOL0     H  715   5.058   7.491  10.491 -2.6043 -0.8947 -3.4566
  763MOL0     H  716   4.835   7.568  10.454 -0.0009  0.3409  0.7916
  764MOL0     O  717   2.213  11.232   1.582 -0.3641  0.0738  0.1440
  764MOL0     C  718   2.103  11.180   1.596  0.5075 -0.9029  0.1285
  764MOL0     O  719   2.076  11.057   1.558  0.1006  0.1525  0.1961
  764MOL0     C  720   2.160  10.960   1.541  0.4498  0.1155  0.2479
  764MOL0     C  721   2.097  10.838   1.520  0.0523 -0.6179 -0.0200
  764MOL0     C  722   2.173  10.724   1.500  0.0699 -0.6706 -0.2660
  764MOL0     C  723   2.316  10.732   1.515 -0.0872  0.1345 -0.5946
  764MOL0     O  724   2.392  10.618   1.499 -1.1149  0.0361  0.3576
  764MOL0     C  725   2.327  10.497   1.486 -0.9765  0.2291 -0.0588
  764MOL0     C  726   2.442  10.397   1.482 -0.3524 -0.4371  0.2495
  764MOL0     C  727   2.403  10.253   1.449  0.5446  0.1890  0.2255
  764MOL0     C  728   2.317  10.241   1.324  0.5554  1.3034  0.0153
  764MOL0     C  729   2.284  10.094   1.281 -0.3691  0.3923 -0.2433
  764MOL0     C  730   2.206  10.022   1.386  0.1397  0.1124  0.0664
  764MOL0     C  731   2.198   9.870   1.360 -0.0672  0.2386 -1.1661
  764MOL0     C  732   2.126   9.807   1.481  0.0711 -0.1213  0.5586
  764MOL0     N  733   1.985   9.827   1.476  0.5422  0.0466  0.6005
  764MOL0     C  734   1.897   9.809   1.573 -0.9165  0.3611  0.0982
  764MOL0     C  735   1.777   9.863   1.546 -1.0638 -1.0493 -0.0664
  764MOL0     C  736   1.653   9.853   1.630 -0.2165  0.6758  0.2277
  764MOL0     C  737   1.549   9.754   1.571  0.2678 -0.7097  0.7131
  764MOL0     C  738   1.404   9.765   1.649  0.5806  0.0021  0.8311
  764MOL0     C  739   1.306   9.670   1.592 -1.0289 -0.3694 -0.4011
  764MOL0     O  740   1.179   9.671   1.655 -0.4025  0.5946  0.0027
  764MOL0     C  741   1.078   9.606   1.592 -0.1513  0.7141 -0.4320
  764MOL0     C  742   1.099   9.532   1.482  0.2090  0.0614  0.0568
  764MOL0     C  743   0.991   9.469   1.416  0.4530 -0.3509 -0.1844
  764MOL0     C  744   0.855   9.484   1.465  0.3654  0.3626  0.3613
  764MOL0     C  745   0.737   9.417   1.395 -0.8716  1.6452 -0.1852
  764MOL0     O  746   0.624   9.438   1.454  0.2065 -0.1305  0.5749
  764MOL0     C  747   0.514   9.379   1.400  0.6035  0.2280  0.7496
  764MOL0     C  748   0.438   9.288   1.474  0.6887  0.3918  0.0858
  764MOL0     C  749   0.320   9.232   1.428  0.2692  0.8946  0.4369
  764MOL0     C  750   0.274   9.262   1.298 -0.3733 -0.1347  0.4060
  764MOL0     O  751   0.152   9.206   1.271 -0.2493 -0.0949 -0.4960
  764MOL0     C  752   0.105   9.209   1.132  0.3640 -0.0961  0.3765
  764MOL0     C  753  -0.039   9.151   1.127 -0.4587 -0.3031 -0.3057
  764MOL0     C  754  -0.141   9.260   1.167  0.0458 -0.7567 -0.2960
  764MOL0     C  755  -0.285   9.200   1.163  0.1717 -0.7573 -0.4818
  764MOL0     C  756  -0.392   9.302   1.202 -0.3772 -0.7124 -0.2357
  764MOL0     C  757  -0.530   9.244   1.220 -0.3949  0.0517  0.0231
  764MOL0     C  758  -0.537   9.182   1.366  0.8035 -0.1563 -0.6162
  764MOL0     C  759  -0.624   9.047   1.360 -0.1562 -0.4766  0.0621
  764MOL0    Cl  760  -0.780   9.085   1.262  0.2524 -0.3205 -0.0889
  764MOL0     C  761   0.345   9.346   1.219  0.4670  0.4719  0.0295
  764MOL0     C  762   0.465   9.405   1.272  1.0063 -0.6044 -0.2832
  764MOL0     O  763   0.757   9.352   1.296  0.2325 -0.1077 -0.0241
  764MOL0     C  764   0.846   9.562   1.573  0.3669  0.0128  0.3674
  764MOL0     C  765   0.950   9.622   1.646  0.4426  0.4857 -0.5023
  764MOL0     N  766   1.788   9.930   1.423 -0.7282  0.0319  0.6809
  764MOL0     N  767   1.912   9.902   1.386 -0.3089  0.0130 -0.4317
  764MOL0     C  768   2.374  10.851   1.547  1.3324 -0.1705 -1.2326
  764MOL0     C  769   2.296  10.966   1.565  0.1862  0.2065 -0.3534
  764MOL0     C  770   1.981  11.264   1.626 -0.2494  1.2488 -0.6462
  764MOL0     C  771   1.987  11.400   1.629 -0.5096 -0.4023 -0.6957
  764MOL0     C  772   1.884  11.476   1.690 -0.7646  0.0510  0.5013
  764MOL0     C  773   1.781  11.414   1.756 -1.2195 -0.0759 -0.0857
  764MOL0     O  774   1.667  11.469   1.813 -0.4280  0.6178 -0.0857
  764MOL0     C  775   1.671  11.607   1.859  0.0000  0.0635  0.1605
  764MOL0     C  776   1.565  11.626   1.964  0.6103  0.2719 -0.7250
  764MOL0     C  777   1.593  11.539   2.088 -1.4229  0.3277  0.8570
  764MOL0     C  778   1.476  11.559   2.180 -0.4754  0.8470 -0.3962
  764MOL0     C  779   1.474  11.469   2.295 -1.3013  0.2186 -1.2764
  764MOL0     C  780   1.492  11.387   2.389 -0.5073  0.6048  0.7195
  764MOL0     C  781   1.771  11.275   1.756  0.1715  0.2901 -0.0680
  764MOL0     C  782   1.870  11.200   1.692 -0.0761 -0.1238 -0.0726
  764MOL0     H  783   1.990  10.849   1.502  0.0152 -1.4152 -0.3073
  764MOL0     H  784   2.128  10.637   1.455  0.3307 -0.0180 -1.8367
  764MOL0     H  785   2.269  10.491   1.394  1.3723  0.7553 -1.6647
  764MOL0     H  786   2.255  10.482   1.568 -0.6758 -1.3961 -0.0464
  764MOL0     H  787   2.503  10.388   1.572 -0.5444 -6.7468  0.1692
  764MOL0     H  788   2.506  10.439   1.403  0.5427 -1.5134  0.3877
  764MOL0     H  789   2.347  10.215   1.534  0.1998 -2.9583 -1.2463
  764MOL0     H  790   2.494  10.195   1.428 -0.1490 -0.3724 -1.4037
  764MOL0     H  791   2.219  10.289   1.333 -0.4874 -0.1799 -2.3500
  764MOL0     H  792   2.376  10.285   1.243  0.6725 -0.8554 -1.1600
  764MOL0     H  793   2.379  10.046   1.257  0.6246  2.3385 -0.3359
  764MOL0     H  794   2.229  10.101   1.187 -1.5316  1.8043  0.4852
  764MOL0     H  795   2.106  10.066   1.387 -2.0579 -4.2290  2.2878
  764MOL0     H  796   2.254  10.040   1.483  1.4854  1.4491 -0.8024
  764MOL0     H  797   2.142   9.861   1.267  0.5076  4.3408 -2.1127
  764MOL0     H  798   2.299   9.829   1.350  0.3867  1.3293 -1.1377
  764MOL0     H  799   2.167   9.834   1.579 -2.3761  0.5908  1.4590
  764MOL0     H  800   2.146   9.699   1.474  0.1154 -0.1235  0.7169
  764MOL0     H  801   1.900   9.754   1.667 -2.8792  0.0191  0.0049
  764MOL0     H  802   1.604   9.949   1.645 -1.4140 -0.3378  3.7640
  764MOL0     H  803   1.672   9.822   1.733 -0.0779 -0.4659 -0.1308
  764MOL0     H  804   1.592   9.654   1.580  3.8309  0.6711  0.9758
  764MOL0     H  805   1.541   9.782   1.466 -3.5868 -1.9149  0.5442
  764MOL0     H  806   1.419   9.732   1.753 -1.2956 -0.7355  0.9180
  764MOL0     H  807   1.354   9.862   1.641  0.8300  0.0018 -1.1624
  764MOL0     H  808   1.353   9.572   1.606 -2.3604 -1.2527 -1.7861
  764MOL0     H  809   1.288   9.703   1.489 -1.1455  0.7143 -0.0457
  764MOL0     H  810   1.197   9.509   1.440 -0.2085 -1.9156  0.0599
  764MOL0     H  811   1.016   9.398   1.338  2.3553 -1.8455  1.6261
  764MOL0     H  812   0.484   9.261   1.569  2.1950 -0.3773 -0.8101
  764MOL0     H  813   0.258   9.167   1.488 -0.6724 -1.8292 -3.1526
  764MOL0     H  814   0.171   9.142   1.075 -0.1519 -2.4383  2.3678
  764MOL0     H  815   0.107   9.309   1.088 -2.3386 -0.1915 -0.1300
  764MOL0     H  816  -0.047   9.066   1.196  1.1224 -1.6224 -1.6458
  764MOL0     H  817  -0.063   9.118   1.026 -2.4646 -0.3469  0.1431
  764MOL0     H  818  -0.134   9.336   1.089  3.0614 -2.6988 -2.0993
  764MOL0     H  819  -0.116   9.297   1.266 -0.0105  0.3503 -0.6806
  764MOL0     H  820  -0.309   9.172   1.060 -0.0998  2.5560 -1.4282
  764MOL0     H  821  -0.304   9.113   1.227 -3.9550 -1.0664 -1.8387
  764MOL0     H  822  -0.396   9.375   1.120 -2.3541  0.3305  0.6907
  764MOL0     H  823  -0.365   9.363   1.288  0.9118 -1.2298 -0.2650
  764MOL0     H  824  -0.551   9.165   1.148  1.8890  1.6478 -2.5888
  764MOL0     H  825  -0.598   9.327   1.199  0.8441  1.2782  0.6904
  764MOL0     H  826  -0.448   9.175   1.428  0.4849  2.6842  0.3162
  764MOL0     H  827  -0.599   9.249   1.427  0.2393 -1.7147  0.5877
  764MOL0     H  828  -0.643   9.020   1.465  0.9497 -0.5840  0.2499
  764MOL0     H  829  -0.562   8.964   1.324 -0.7544 -0.3561 -1.2918
  764MOL0     H  830   0.309   9.368   1.119 -2.1765 -1.6513  0.3832
  764MOL0     H  831   0.517   9.468   1.200  3.3641 -0.7302  1.1850
  764MOL0     H  832   0.746   9.563   1.615 -0.0541 -3.6871 -0.2489
  764MOL0     H  833   0.927   9.683   1.733 -1.1078 -0.2105 -0.3758
  764MOL0     H  834   2.481  10.852   1.563  1.0528 -0.2334  0.9654
  764MOL0     H  835   2.349  11.052   1.606 -3.0245  1.4724  1.5202
  764MOL0     H  836   2.079  11.451   1.603 -1.7130  1.6525 -1.2001
  764MOL0     H  837   1.879  11.584   1.691 -0.0605  0.1058 -0.3598
  764MOL0     H  838   1.646  11.670   1.773 -0.9598 -0.4097  0.0724
  764MOL0     H  839   1.768  11.631   1.903  0.0035 -0.7172  0.5924
  764MOL0     H  840   1.575  11.731   1.991  3.4505  0.5023 -2.2320
  764MOL0     H  841   1.467  11.599   1.923 -0.1099 -0.7250  1.4957
  764MOL0     H  842   1.692  11.561   2.129 -0.2746  0.7052 -1.8854
  764MOL0     H  843   1.608  11.434   2.061  0.7378  0.4178  1.5087
  764MOL0     H  844   1.477  11.662   2.216  1.8229  1.0478 -0.8513
  764MOL0     H  845   1.387  11.542   2.119  0.1869  1.0291 -1.4331
  764MOL0     H  846   1.487  11.314   2.467 -4.2413  0.6753  0.7462
  764MOL0     H  847   1.692  11.223   1.809  0.5986 -1.5038 -1.1135
  764MOL0     H  848   1.854  11.093   1.694  1.8024 -0.4452 -0.3982
  765MOL0     O  849  10.678   1.338   9.452  0.4759 -0.7295 -0.4083
  765MOL0     C  850  10.756   1.364   9.362  0.6561 -0.2563 -0.0114
  765MOL0     O  851  10.721   1.371   9.231 -0.0030 -0.2945 -0.0221
  765MOL0     C  852  10.595   1.352   9.197 -0.7336 -0.4343  0.6801
  765MOL0     C  853  10.542   1.219   9.195 -0.4442  0.1256 -0.3502
  765MOL0     C  854  10.415   1.199   9.143  0.7402 -0.1086 -0.1641
  765MOL0     C  855  10.346   1.301   9.074 -0.1472  0.1779  0.0781
  765MOL0     O  856  10.212   1.287   9.047 -0.1250 -0.7203  0.1729
  765MOL0     C  857  10.150   1.362   8.941  1.2439  0.7185  0.7690
  765MOL0     C  858  10.062   1.465   8.991  0.4986 -0.2141 -0.6144
  765MOL0     C  859   9.917   1.423   9.030  0.0340 -0.3767  0.2395
  765MOL0     C  860   9.838   1.544   9.059  0.1046  0.0478 -0.8558
  765MOL0     C  861   9.705   1.494   9.109  0.5290  0.0751 -0.2117
  765MOL0     C  862   9.625   1.621   9.155 -0.2721  1.1897  0.0974
  765MOL0     C  863   9.483   1.607   9.192 -0.5619  0.2726 -0.0323
  765MOL0     C  864   9.398   1.510   9.100 -0.2380 -0.5272  0.3715
  765MOL0     N  865   9.259   1.498   9.150 -0.1018  0.3282 -0.2167
  765MOL0     C  866   9.217   1.413   9.249 -0.1045  0.5298  0.1246
  765MOL0     C  867   9.075   1.417   9.243 -1.1041  0.9001  0.7425
  765MOL0     C  868   8.980   1.344   9.337 -0.0377 -0.5171 -0.0404
  765MOL0     C  869   9.019   1.192   9.363  0.6248 -0.1495  0.8312
  765MOL0     C  870   8.946   1.138   9.484 -0.1703 -0.1313  0.3412
  765MOL0     C  871   8.799   1.087   9.458 -0.4574  0.5086 -0.7035
  765MOL0     O  872   8.719   1.192   9.412  0.0930 -1.0432  0.0294
  765MOL0     C  873   8.593   1.168   9.363  0.3587 -0.4598  0.4956
  765MOL0     C  874   8.532   1.280   9.312 -0.0145 -0.5862  0.7228
  765MOL0     C  875   8.406   1.280   9.254 -0.5912  0.4046 -0.3257
  765MOL0     C  876   8.339   1.155   9.232  0.0071  0.0539  0.8443
  765MOL0     C  877   8.219   1.147   9.143  0.2461  0.6450  0.5298
  765MOL0     O  878   8.201   1.262   9.072  0.1382 -0.3299  0.1428
  765MOL0     C  879   8.080   1.289   9.011  0.4795 -0.1227 -0.6808
  765MOL0     C  880   8.032   1.419   9.003 -0.0767  1.2479 -0.0651
  765MOL0     C  881   7.906   1.454   8.955 -0.4969  0.4361 -0.1922
  765MOL0     C  882   7.838   1.351   8.885  0.0283  0.7056  0.4051
  765MOL0     O  883   7.710   1.370   8.844 -0.2929  0.1408 -0.1479
  765MOL0     C  884   7.651   1.502   8.848  0.2568 -0.2534  0.6739
  765MOL0     C  885   7.509   1.478   8.797 -0.1092  0.3911 -0.3724
  765MOL0     C  886   7.435   1.608   8.809 -0.7088 -0.6632  0.2165
  765MOL0     C  887   7.289   1.609   8.766 -0.3288 -0.2673  0.2532
  765MOL0     C  888   7.217   1.749   8.779  0.6028 -0.7580  0.1234
  765MOL0     C  889   7.075   1.740   8.737 -0.8657 -0.1762 -0.4804
  765MOL0     C  890   6.987   1.863   8.749 -0.1077 -0.1170 -0.5075
  765MOL0     C  891   6.884   1.886   8.639 -1.1378  0.5655  0.1409
  765MOL0    Cl  892   6.825   2.051   8.651 -0.1688 -0.2479 -0.1178
  765MOL0     C  893   7.885   1.221   8.872  0.0146  0.1964 -0.1305
  765MOL0     C  894   7.996   1.193   8.949 -0.3047  0.3597  0.1996
  765MOL0     O  895   8.168   1.034   9.135 -0.3842 -0.3280 -0.3606
  765MOL0     C  896   8.402   1.040   9.291  0.3751 -0.9379  0.7181
  765MOL0     C  897   8.528   1.047   9.353  0.7439 -0.5347 -0.0324
  765MOL0     N  898   9.043   1.501   9.142 -0.0139  0.1348 -0.6535
  765MOL0     N  899   9.149   1.537   9.088  0.0780  0.1351  0.6327
  765MOL0     C  900  10.410   1.434   9.069  0.5367  0.1703 -0.0029
  765MOL0     C  901  10.533   1.450   9.127 -1.0302 -0.3335 -0.1301
  765MOL0     C  902  10.891   1.395   9.402  0.3362 -0.4470  0.4794
  765MOL0     C  903  10.991   1.435   9.315  0.0319  0.0351 -0.1230
  765MOL0     C  904  11.122   1.451   9.365  0.2597  1.4996 -0.0513
  765MOL0     C  905  11.159   1.449   9.493 -0.4140  0.1464  0.0469
  765MOL0     O  906  11.288   1.474   9.532 -0.1025 -0.4021 -0.3110
  765MOL0     C  907  11.336   1.502   9.667 -0.2899 -0.0481  0.2244
  765MOL0     C  908  11.488   1.520   9.669  0.7051  0.4898  1.2285
  765MOL0     C  909  11.527   1.550   9.809  0.4326 -0.4661  0.4481
  765MOL0     C  910  11.687   1.566   9.819 -0.4108 -0.9689 -0.1729
  765MOL0     C  911  11.716   1.620   9.949  0.3553  0.3761  0.0238
  765MOL0     C  912  11.751   1.668  10.058 -0.7199  0.4476 -0.2813
  765MOL0     C  913  11.060   1.418   9.579  0.3940 -0.3397  0.9402
  765MOL0     C  914  10.930   1.395   9.534 -0.1739 -0.5304  0.4401
  765MOL0     H  915  10.591   1.128   9.229 -0.0035  0.0252 -1.2289
  765MOL0     H  916  10.376   1.099   9.159  3.6806 -1.0405  2.0073
  765MOL0     H  917  10.079   1.292   8.896  0.3222  1.0495  1.6562
  765MOL0     H  918  10.219   1.385   8.859  3.9902 -2.1371  2.0726
  765MOL0     H  919  10.052   1.540   8.913 -0.7056  0.6280  0.3192
  765MOL0     H  920  10.118   1.506   9.076 -1.5793 -0.0092  0.7163
  765MOL0     H  921   9.921   1.362   9.120  1.3521  0.0994  0.5306
  765MOL0     H  922   9.868   1.366   8.951 -2.1070 -1.9556  2.5640
  765MOL0     H  923   9.898   1.603   9.130  1.8121 -1.1121 -1.2613
  765MOL0     H  924   9.830   1.607   8.970  1.6362 -0.5691 -1.4655
  765MOL0     H  925   9.708   1.435   9.201  0.7208  2.1460  1.1778
  765MOL0     H  926   9.649   1.437   9.034  0.5414 -0.1401 -0.0574
  765MOL0     H  927   9.630   1.697   9.076  1.9495 -0.5506 -1.5698
  765MOL0     H  928   9.677   1.657   9.245  1.1218  0.2140 -0.3019
  765MOL0     H  929   9.486   1.567   9.293  0.5282  2.5186  0.8961
  765MOL0     H  930   9.442   1.709   9.187 -1.7694 -0.2452 -2.8943
  765MOL0     H  931   9.436   1.407   9.095 -0.4204 -0.6444  1.1934
  765MOL0     H  932   9.403   1.552   8.999  0.1252 -1.0223  0.1781
  765MOL0     H  933   9.280   1.351   9.312 -0.0200  1.3242  0.8375
  765MOL0     H  934   8.880   1.357   9.294 -0.0602 -1.1440 -0.1851
  765MOL0     H  935   8.996   1.395   9.432  1.9512  0.2161 -0.7089
  765MOL0     H  936   9.127   1.191   9.375  0.9379 -1.6468 -1.6500
  765MOL0     H  937   8.996   1.117   9.288  0.9464 -0.4689  1.0499
  765MOL0     H  938   8.997   1.055   9.534 -2.6416 -2.0487 -0.1755
  765MOL0     H  939   8.941   1.210   9.567 -0.4471  0.2245  0.0196
  765MOL0     H  940   8.751   1.047   9.548  2.0163 -0.0593  0.4516
  765MOL0     H  941   8.802   1.002   9.388 -1.7726  1.5547 -2.0939
  765MOL0     H  942   8.580   1.377   9.310 -1.3325  0.0822  0.3022
  765MOL0     H  943   8.359   1.368   9.210 -2.4412  0.2145  1.1413
  765MOL0     H  944   8.095   1.496   9.048  0.3659 -0.8978  3.3987
  765MOL0     H  945   7.864   1.551   8.978 -2.3852 -0.5624  0.8032
  765MOL0     H  946   7.698   1.573   8.780 -0.1376 -0.9822 -0.3919
  765MOL0     H  947   7.647   1.551   8.945  0.8562 -0.8093  0.9879
  765MOL0     H  948   7.457   1.414   8.869 -3.5597  0.7300 -2.3563
  765MOL0     H  949   7.501   1.431   8.698  1.7196 -1.5952  0.3460
  765MOL0     H  950   7.488   1.685   8.753  1.0824  0.4010  3.1697
  765MOL0     H  951   7.422   1.630   8.915 -0.7204 -2.0028  0.5119
  765MOL0     H  952   7.265   1.564   8.669 -1.6691 -0.2788  0.5648
  765MOL0     H  953   7.238   1.550   8.843 -1.6064  0.5138  0.0378
  765MOL0     H  954   7.276   1.819   8.720 -0.6517  1.6858  1.6387
  765MOL0     H  955   7.216   1.773   8.886  2.3165 -2.1765  0.5103
  765MOL0     H  956   7.033   1.649   8.783 -0.7125 -0.8570 -1.6459
  765MOL0     H  957   7.084   1.724   8.629 -2.8806  2.8189 -1.2132
  765MOL0     H  958   6.936   1.858   8.846 -0.5936  2.5131 -0.5502
  765MOL0     H  959   7.053   1.951   8.753  3.3484 -2.4032 -2.1267
  765MOL0     H  960   6.802   1.815   8.646 -1.8298  1.2164 -1.0129
  765MOL0     H  961   6.937   1.870   8.544  0.0386  0.9521  0.7177
  765MOL0     H  962   7.827   1.151   8.814 -0.0161  1.5663 -1.8481
  765MOL0     H  963   8.026   1.089   8.961 -0.0590  0.6864  3.1363
  765MOL0     H  964   8.347   0.949   9.268 -1.6307  0.2398  0.5974
  765MOL0     H  965   8.560   0.952   9.396 -3.3246 -1.4177  1.4419
  765MOL0     H  966  10.354   1.521   9.038 -0.3177 -0.2675  0.2772
  765MOL0     H  967  10.581   1.547   9.137 -2.1685  0.5070 -2.2296
  765MOL0     H  968  10.973   1.444   9.208 -1.1367 -5.2116 -0.5922
  765MOL0     H  969  11.194   1.470   9.286  0.7600 -0.1014 -0.0138
  765MOL0     H  970  11.303   1.433   9.745  1.5639 -0.1667  0.9691
  765MOL0     H  971  11.299   1.602   9.692  0.5594  0.1305  0.8499
  765MOL0     H  972  11.537   1.428   9.634 -0.6265  0.2081  0.0094
  765MOL0     H  973  11.509   1.611   9.612  0.4747 -0.4453 -0.4045
  765MOL0     H  974  11.497   1.467   9.875  1.2239 -1.2022 -0.0905
  765MOL0     H  975  11.483   1.646   9.835  0.5977 -0.4030  0.4988
  765MOL0     H  976  11.734   1.468   9.806 -0.9510 -1.3611  0.6818
  765MOL0     H  977  11.728   1.637   9.747  0.2613 -2.1054 -0.9594
  765MOL0     H  978  11.788   1.708  10.150 -0.0704  0.0175 -0.3550
  765MOL0     H  979  11.077   1.427   9.686 -6.8911 -1.4153  2.6973
  765MOL0     H  980  10.849   1.383   9.605 -2.2693  1.9938 -1.3085
  766MOL0     O  981   2.179  11.034   9.234 -0.2768  0.2745 -0.2977
  766MOL0     C  982   2.170  10.935   9.313 -0.5444  0.4814  0.2837
  766MOL0     O  983   2.069  10.908   9.396  0.8947 -0.1147 -0.5238
  766MOL0     C  984   1.976  11.017   9.421  0.0874 -0.6464 -0.1169
  766MOL0     C  985   1.835  10.971   9.435 -0.8354 -0.0359 -0.8490
  766MOL0     C  986   1.720  11.053   9.450 -0.2626  0.7395  0.3643
  766MOL0     C  987   1.748  11.180   9.494 -0.2706  0.0744 -0.2055
  766MOL0     O  988   1.656  11.284   9.521  0.2637  0.5596 -0.6360
  766MOL0     C  989   1.524  11.244   9.577 -0.5270  0.1244 -0.0888
  766MOL0     C  990   1.418  11.324   9.508  0.6916  0.6314 -0.4298
  766MOL0     C  991   1.267  11.286   9.555 -0.0358 -0.5094 -0.3080
  766MOL0     C  992   1.169  11.342   9.447  0.7664 -0.2264 -0.7873
  766MOL0     C  993   1.016  11.300   9.477 -0.4329  0.0812 -0.8731
  766MOL0     C  994   0.986  11.304   9.628  0.5442 -0.0370  0.5732
  766MOL0     C  995   0.829  11.292   9.645  0.3133  0.4634  0.7580
  766MOL0     C  996   0.739  11.408   9.604 -0.0134  0.3197  0.4974
  766MOL0     N  997   0.606  11.395   9.655 -0.5600 -0.0847 -0.3386
  766MOL0     C  998   0.563  11.391   9.786 -0.3326 -0.1292  0.3202
  766MOL0     C  999   0.428  11.403   9.776  0.1292  0.0443 -0.2490
  766MOL0     C 1000   0.327  11.433   9.888  0.2704  0.7519  0.3177
  766MOL0     C 1001   0.303  11.587   9.899 -0.5123  0.2656 -0.3601
  766MOL0     C 1002   0.223  11.650   9.782  1.0211 -0.0169  0.1175
  766MOL0     C 1003   0.209  11.798   9.808 -0.2182 -0.6887  0.0939
  766MOL0     O 1004   0.173  11.866   9.690  0.3055 -0.0954  0.0201
  766MOL0     C 1005   0.053  11.846   9.638 -0.0629 -0.6235 -0.1635
  766MOL0     C 1006  -0.071  11.835   9.713 -0.1343  0.5091  0.1925
  766MOL0     C 1007  -0.187  11.818   9.642 -1.0469 -0.9272  0.1496
  766MOL0     C 1008  -0.186  11.811   9.504  0.1860 -0.5733  0.6574
  766MOL0     C 1009  -0.314  11.797   9.439 -0.7970 -0.4094  0.2533
  766MOL0     O 1010  -0.320  11.761   9.306  0.1181  0.1919  0.2735
  766MOL0     C 1011  -0.437  11.784   9.243 -0.3479  1.0421 -0.9513
  766MOL0     C 1012  -0.509  11.673   9.217 -0.1460  0.9502 -0.2620
  766MOL0     C 1013  -0.638  11.675   9.154  0.3384  0.5729  0.8961
  766MOL0     C 1014  -0.687  11.802   9.133 -0.2473  0.1224  0.0616
  766MOL0     O 1015  -0.820  11.805   9.108 -0.0662  0.5251  0.6009
  766MOL0     C 1016  -0.895  11.920   9.145  0.0484  0.3096 -0.3561
  766MOL0     C 1017  -0.954  11.980   9.016 -0.6401 -1.4115 -0.2764
  766MOL0     C 1018  -1.033  12.101   9.046  0.5272 -0.2817  0.2863
  766MOL0     C 1019  -1.171  12.090   9.106  0.1809 -0.9027 -0.0794
  766MOL0     C 1020  -1.245  12.224   9.111 -0.4478  0.2470  0.6167
  766MOL0     C 1021  -1.395  12.194   9.088 -0.7324 -0.8734  0.3800
  766MOL0     C 1022  -1.475  12.320   9.080 -0.2516  0.1043  0.5546
  766MOL0     C 1023  -1.621  12.300   9.106 -0.0519  0.3962  0.5862
  766MOL0    Cl 1024  -1.683  12.445   9.166 -0.1583 -0.0767 -0.3846
  766MOL0     C 1025  -0.609  11.920   9.158  0.3976  0.1883 -0.3946
  766MOL0     C 1026  -0.485  11.907   9.210  0.9092 -0.2559 -0.3164
  766MOL0     O 1027  -0.412  11.823   9.507 -0.2439 -0.5636 -0.1750
  766MOL0     C 1028  -0.069  11.826   9.425  1.1483 -0.8083  0.7500
  766MOL0     C 1029   0.047  11.850   9.496  0.4194 -0.2131  0.7682
  766MOL0     N 1030   0.391  11.381   9.641  0.5476  0.1321 -1.0307
  766MOL0     N 1031   0.495  11.371   9.573  0.2571  0.2619  0.3881
  766MOL0     C 1032   1.875  11.230   9.499  0.2263 -0.0061 -0.2888
  766MOL0     C 1033   1.989  11.149   9.470 -1.3183  0.3162  0.7931
  766MOL0     C 1034   2.289  10.849   9.330  0.9309 -0.4815  0.0514
  766MOL0     C 1035   2.396  10.859   9.236  0.6468 -0.5660 -0.7156
  766MOL0     C 1036   2.508  10.779   9.268  0.3924 -0.1585  0.4651
  766MOL0     C 1037   2.511  10.703   9.388 -0.2260  0.1651  0.6597
  766MOL0     O 1038   2.610  10.610   9.408 -0.0274  0.2721 -0.8942
  766MOL0     C 1039   2.732  10.619   9.339 -0.4754 -0.3672  0.5412
  766MOL0     C 1040   2.817  10.493   9.352  0.9539 -0.1499  0.4144
  766MOL0     C 1041   2.942  10.510   9.273  0.1262  0.4619  0.5377
  766MOL0     C 1042   3.049  10.407   9.308 -0.8335 -0.1744 -0.0035
  766MOL0     C 1043   3.029  10.273   9.256  0.2044 -0.8051  0.5954
  766MOL0     C 1044   3.004  10.160   9.217 -0.3823  1.6521 -0.4580
  766MOL0     C 1045   2.405  10.701   9.474 -0.1896  0.3100 -0.2510
  766MOL0     C 1046   2.289  10.766   9.440 -0.4549 -0.2899 -0.9464
  766MOL0     H 1047   1.817  10.870   9.400  0.1137 -1.1408  1.6363
  766MOL0     H 1048   1.615  11.031   9.433  0.1764 -0.7314 -0.6760
  766MOL0     H 1049   1.520  11.253   9.686  0.5787  1.5040 -0.1213
  766MOL0     H 1050   1.497  11.141   9.556 -3.6735  0.8476 -0.1067
  766MOL0     H 1051   1.440  11.314   9.401  1.7812 -2.6431 -0.0063
  766MOL0     H 1052   1.427  11.428   9.539  1.5030 -0.4879  3.7736
  766MOL0     H 1053   1.243  11.337   9.649 -1.6316 -0.6267 -0.6278
  766MOL0     H 1054   1.254  11.178   9.568  0.6095 -0.7018 -1.1683
  766MOL0     H 1055   1.167  11.451   9.453 -0.5670 -0.1894 -1.5002
  766MOL0     H 1056   1.193  11.318   9.343  0.4589 -0.1286 -0.8829
  766MOL0     H 1057   0.996  11.203   9.432 -1.3800 -1.4580  2.5763
  766MOL0     H 1058   0.953  11.376   9.429 -0.5899  0.4989 -0.0319
  766MOL0     H 1059   1.023  11.399   9.667  1.9571  0.8188 -2.4978
  766MOL0     H 1060   1.039  11.217   9.667  0.4245  0.2483  1.3721
  766MOL0     H 1061   0.789  11.208   9.588  4.1538  0.6941 -2.7185
  766MOL0     H 1062   0.801  11.277   9.750  0.1736 -0.1156  0.6395
  766MOL0     H 1063   0.729  11.414   9.495 -1.2106  2.6077  0.6796
  766MOL0     H 1064   0.775  11.505   9.637  0.1100  0.4210  0.0724
  766MOL0     H 1065   0.614  11.406   9.881  0.4735  3.1257 -0.4945
  766MOL0     H 1066   0.356  11.383   9.981 -0.8196 -1.1615 -0.3196
  766MOL0     H 1067   0.231  11.381   9.876  0.2351  1.0288 -0.6853
  766MOL0     H 1068   0.404  11.627   9.910 -0.6337  0.3617  0.4340
  766MOL0     H 1069   0.250  11.613   9.991  0.8525  0.1363  0.4917
  766MOL0     H 1070   0.264  11.634   9.682  0.9674  2.8552 -0.4215
  766MOL0     H 1071   0.125  11.600   9.778  0.7949  0.4622 -0.3831
  766MOL0     H 1072   0.313  11.828   9.827 -0.2009 -0.4994 -0.2968
  766MOL0     H 1073   0.144  11.817   9.894  1.6444  1.1644  1.1815
  766MOL0     H 1074  -0.067  11.842   9.821 -0.9528 -2.1313  0.4687
  766MOL0     H 1075  -0.271  11.822   9.711 -1.0046 -2.6854  0.3386
  766MOL0     H 1076  -0.469  11.579   9.255 -1.2889  0.3740 -0.4397
  766MOL0     H 1077  -0.696  11.585   9.135  1.6491  0.1382 -1.5240
  766MOL0     H 1078  -0.837  11.997   9.195  0.7535 -0.4950  0.0959
  766MOL0     H 1079  -0.980  11.886   9.206 -0.0173 -2.4159 -1.7936
  766MOL0     H 1080  -1.005  11.900   8.961  2.4890 -3.2295 -0.7838
  766MOL0     H 1081  -0.881  12.018   8.945 -2.3888  0.5638 -1.1301
  766MOL0     H 1082  -1.052  12.138   8.944  3.2076  1.0628  0.1802
  766MOL0     H 1083  -0.978  12.187   9.084  0.0122  0.0001  0.4103
  766MOL0     H 1084  -1.231  12.019   9.047 -0.0059  0.4467 -1.5685
  766MOL0     H 1085  -1.162  12.053   9.209 -1.7341  0.2349  0.5437
  766MOL0     H 1086  -1.199  12.296   9.043 -0.4068 -1.1463 -0.8743
  766MOL0     H 1087  -1.231  12.261   9.213  0.2027 -0.9323  0.9725
  766MOL0     H 1088  -1.436  12.132   9.168 -2.5080  0.0716  0.2446
  766MOL0     H 1089  -1.408  12.145   8.991 -0.1715 -0.7137  0.2206
  766MOL0     H 1090  -1.431  12.388   9.153  0.8579 -0.4142  0.3926
  766MOL0     H 1091  -1.458  12.361   8.980  0.2038 -1.2642  0.0469
  766MOL0     H 1092  -1.638  12.211   9.167 -1.8883 -0.2633 -0.7852
  766MOL0     H 1093  -1.669  12.288   9.008  0.9395  2.6833 -0.2702
  766MOL0     H 1094  -0.645  12.019   9.132 -1.8149 -0.4793 -0.0973
  766MOL0     H 1095  -0.419  11.989   9.236 -0.0701  0.1334  1.0692
  766MOL0     H 1096  -0.076  11.850   9.320  0.0901 -3.2353  0.1834
  766MOL0     H 1097   0.136  11.887   9.447 -0.5067  0.3799 -0.5170
  766MOL0     H 1098   1.885  11.333   9.531 -3.0133  0.1951  0.4037
  766MOL0     H 1099   2.094  11.174   9.480 -0.5965 -2.5764  1.3636
  766MOL0     H 1100   2.395  10.923   9.149  0.0381  1.5261  0.7581
  766MOL0     H 1101   2.581  10.774   9.188 -0.6452  0.8025 -0.5665
  766MOL0     H 1102   2.788  10.709   9.367  1.1126 -0.2628 -2.5330
  766MOL0     H 1103   2.713  10.641   9.233 -2.3709  1.4240  1.1747
  766MOL0     H 1104   2.835  10.484   9.460 -3.1513 -5.0541  1.0631
  766MOL0     H 1105   2.766  10.401   9.322 -0.4739  0.3435  1.2096
  766MOL0     H 1106   2.984  10.610   9.284  0.3903  0.7630 -2.4247
  766MOL0     H 1107   2.913  10.504   9.168  0.7915 -0.1860  0.3833
  766MOL0     H 1108   3.146  10.443   9.272  0.5267  0.0191  3.4522
  766MOL0     H 1109   3.067  10.403   9.416 -0.2983 -2.1765 -0.1315
  766MOL0     H 1110   2.996  10.058   9.188  1.0343  0.9974  1.2781
  766MOL0     H 1111   2.418  10.650   9.568 -1.8028 -0.5401 -0.4462
  766MOL0     H 1112   2.209  10.769   9.514 -0.7079 -4.0673 -0.9089
  767MOL0     O 1113   8.479   6.788  10.876 -0.1393 -0.0459  0.5484
  767MOL0     C 1114   8.510   6.851  10.976 -0.8592  0.3677 -0.0218
  767MOL0     O 1115   8.470   6.820  11.100 -1.1701  0.5959  0.0438
  767MOL0     C 1116   8.388   6.718  11.131  0.4854  1.3312 -1.0227
  767MOL0     C 1117   8.268   6.686  11.060  0.1488 -1.0780  0.3416
  767MOL0     C 1118   8.186   6.586  11.110  0.1030  0.8600  0.3290
  767MOL0     C 1119   8.218   6.508  11.218 -0.0709 -0.1672 -0.8430
  767MOL0     O 1120   8.142   6.402  11.256 -1.1431 -0.9705  0.1076
  767MOL0     C 1121   8.081   6.310  11.171  0.4921 -0.5977 -0.0063
  767MOL0     C 1122   8.026   6.197  11.259  0.1225  0.5633  0.8396
  767MOL0     C 1123   7.937   6.241  11.375  0.2764 -0.5429  0.2708
  767MOL0     C 1124   7.864   6.122  11.449 -0.6832  0.3158 -0.1421
  767MOL0     C 1125   7.743   6.066  11.369 -0.6631  0.2655 -0.5818
  767MOL0     C 1126   7.684   5.946  11.448  0.0895 -0.1679  0.4519
  767MOL0     C 1127   7.540   5.934  11.393  0.0322 -0.2506 -0.2416
  767MOL0     C 1128   7.476   5.808  11.462  0.2153 -0.7444  0.0571
  767MOL0     N 1129   7.335   5.784  11.426  0.1080 -0.3649 -0.3464
  767MOL0     C 1130   7.219   5.846  11.477 -0.2397  0.4096  0.2940
  767MOL0     C 1131   7.121   5.816  11.388  0.3722 -1.0403  0.2766
  767MOL0     C 1132   6.976   5.866  11.386 -0.1390 -0.2424  1.3285
  767MOL0     C 1133   6.893   5.784  11.478 -0.4711 -0.1714  0.1808
  767MOL0     C 1134   6.750   5.832  11.482 -0.1423  0.6346  0.1621
  767MOL0     C 1135   6.688   5.837  11.339 -0.7123 -0.2978 -0.5937
  767MOL0     O 1136   6.540   5.837  11.352  0.0894  0.5693 -0.1824
  767MOL0     C 1137   6.466   5.813  11.241 -1.1410 -0.3547 -0.3446
  767MOL0     C 1138   6.495   5.767  11.116 -0.3321  0.2032 -1.1825
  767MOL0     C 1139   6.406   5.756  11.015  0.4311 -0.0219  0.9510
  767MOL0     C 1140   6.268   5.773  11.033 -0.0055  0.4456 -0.5009
  767MOL0     C 1141   6.169   5.749  10.926  0.3894  0.3283 -0.7762
  767MOL0     O 1142   6.033   5.752  10.965  0.1753 -0.3710  0.1031
  767MOL0     C 1143   5.933   5.738  10.875 -0.0068 -1.1098 -0.7299
  767MOL0     C 1144   5.946   5.769  10.740  0.9876  0.6524  0.1373
  767MOL0     C 1145   5.831   5.757  10.659 -0.6860  0.6384 -0.0239
  767MOL0     C 1146   5.705   5.700  10.710  0.2103 -0.8894  1.0537
  767MOL0     O 1147   5.607   5.698  10.608  0.0261 -0.1917 -0.4351
  767MOL0     C 1148   5.495   5.612  10.637 -0.0613  1.3934 -0.5419
  767MOL0     C 1149   5.414   5.567  10.519  0.5146  0.0743 -0.3631
  767MOL0     C 1150   5.283   5.644  10.501 -1.0315  0.0035  0.5369
  767MOL0     C 1151   5.200   5.574  10.386 -0.5861  0.0435  0.1891
  767MOL0     C 1152   5.063   5.637  10.391 -0.1875  0.5422 -0.4922
  767MOL0     C 1153   4.951   5.560  10.319  0.5093  0.3238  0.6780
  767MOL0     C 1154   4.834   5.652  10.253 -0.0686  1.0063  0.5609
  767MOL0     C 1155   4.749   5.723  10.359 -0.1947  0.4379 -0.5529
  767MOL0    Cl 1156   4.590   5.792  10.316 -0.3821  0.3230  0.0026
  767MOL0     C 1157   5.696   5.668  10.841  1.0618  0.8900 -0.1775
  767MOL0     C 1158   5.808   5.692  10.927  0.2848 -0.5618 -0.0435
  767MOL0     O 1159   6.208   5.693  10.824 -0.1853 -0.4896 -1.0008
  767MOL0     C 1160   6.238   5.811  11.169 -0.4029  1.0378  0.1882
  767MOL0     C 1161   6.334   5.825  11.264  0.0500 -0.9134 -0.3167
  767MOL0     N 1162   7.175   5.723  11.300  0.2739  0.0362 -0.3532
  767MOL0     N 1163   7.302   5.712  11.321  0.5397 -0.2932  0.7988
  767MOL0     C 1164   8.329   6.549  11.295  0.1999 -1.0297  0.2226
  767MOL0     C 1165   8.405   6.661  11.256 -0.5489  0.3660  0.1230
  767MOL0     C 1166   8.623   6.951  10.976 -0.4201 -0.7784  0.2265
  767MOL0     C 1167   8.722   6.946  10.871 -0.0390 -0.9746 -0.3499
  767MOL0     C 1168   8.820   7.049  10.860 -0.6595  0.3528 -0.1578
  767MOL0     C 1169   8.816   7.145  10.966  0.9876  0.3573  0.3290
  767MOL0     O 1170   8.918   7.242  10.986  0.7274  0.3199  0.2747
  767MOL0     C 1171   9.034   7.231  10.901  0.2228  0.5769  0.4694
  767MOL0     C 1172   9.136   7.343  10.928 -1.1540  0.4263 -0.5452
  767MOL0     C 1173   9.256   7.338  10.830  0.1586  0.2777 -0.4457
  767MOL0     C 1174   9.208   7.357  10.679 -1.0962 -0.2609 -0.0134
  767MOL0     C 1175   9.327   7.370  10.597  0.6845 -0.7768  0.2596
  767MOL0     C 1176   9.426   7.376  10.525  0.1983 -0.7767 -0.7444
  767MOL0     C 1177   8.712   7.150  11.063  0.1361  0.4268  0.4536
  767MOL0     C 1178   8.619   7.050  11.073 -1.1703  0.0906  0.0526
  767MOL0     H 1179   8.240   6.751  10.977  3.1628  3.2807  2.3428
  767MOL0     H 1180   8.091   6.561  11.063  1.2740 -1.8334 -0.8000
  767MOL0     H 1181   8.145   6.279  11.088  2.2512  1.0212  0.6644
  767MOL0     H 1182   7.988   6.359  11.141 -2.4606 -4.6316  1.6162
  767MOL0     H 1183   8.108   6.131  11.289  0.3657 -0.1575 -1.2436
  767MOL0     H 1184   7.965   6.139  11.190  0.4453  0.1458  0.9038
  767MOL0     H 1185   7.861   6.318  11.357 -0.2288 -0.7561  1.4065
  767MOL0     H 1186   8.001   6.289  11.449  0.7482 -2.5251  1.2206
  767MOL0     H 1187   7.935   6.041  11.472 -1.8023 -0.8402 -0.6746
  767MOL0     H 1188   7.842   6.151  11.552 -2.1722 -0.7586 -0.1289
  767MOL0     H 1189   7.780   6.035  11.271 -0.6572 -1.1601 -0.1511
  767MOL0     H 1190   7.664   6.141  11.375 -0.9728 -0.1482  0.7112
  767MOL0     H 1191   7.691   5.965  11.555 -0.6764  0.4335  0.3981
  767MOL0     H 1192   7.738   5.852  11.433  0.3291  0.2250 -1.3893
  767MOL0     H 1193   7.488   6.029  11.409  0.0929 -0.1993 -0.3465
  767MOL0     H 1194   7.537   5.923  11.284  0.9534 -1.3720 -0.1781
  767MOL0     H 1195   7.476   5.827  11.569 -0.3560 -2.4683  0.3792
  767MOL0     H 1196   7.528   5.715  11.438  0.7932 -0.5139  0.3990
  767MOL0     H 1197   7.213   5.915  11.560 -1.6902  1.8247 -0.9029
  767MOL0     H 1198   6.945   5.865  11.281  2.5421  3.5204  0.2730
  767MOL0     H 1199   6.970   5.970  11.421 -0.8031 -1.0697  3.8554
  767MOL0     H 1200   6.943   5.765  11.573  1.6684  2.7265 -0.2280
  767MOL0     H 1201   6.883   5.690  11.423 -1.1002  0.2951 -0.5261
  767MOL0     H 1202   6.700   5.766  11.553  1.1160  1.0234  1.4407
  767MOL0     H 1203   6.751   5.932  11.524  4.6801  1.6603 -1.7443
  767MOL0     H 1204   6.723   5.749  11.285  0.0569 -0.6658  0.4830
  767MOL0     H 1205   6.723   5.936  11.306  0.8783  0.2783  2.4356
  767MOL0     H 1206   6.598   5.759  11.081  0.2740  0.5543  0.4140
  767MOL0     H 1207   6.436   5.732  10.914 -3.4292 -2.5687  0.1802
  767MOL0     H 1208   6.035   5.812  10.695  0.5132  0.1083 -1.3873
  767MOL0     H 1209   5.844   5.772  10.552  0.8247  3.0816  0.4365
  767MOL0     H 1210   5.439   5.666  10.715  0.3755 -1.3996  1.8872
  767MOL0     H 1211   5.539   5.521  10.679  1.2774  1.4524 -1.7416
  767MOL0     H 1212   5.384   5.462  10.528  1.7865 -0.5038 -2.2368
  767MOL0     H 1213   5.467   5.568  10.424 -1.1693  3.3795 -1.3958
  767MOL0     H 1214   5.285   5.752  10.485 -1.7665 -0.0618 -0.0360
  767MOL0     H 1215   5.228   5.629  10.595 -0.6630  2.9889  1.3301
  767MOL0     H 1216   5.238   5.585  10.284 -0.8602 -1.5375 -0.1025
  767MOL0     H 1217   5.202   5.466  10.403 -0.7569 -0.1274 -0.7748
  767MOL0     H 1218   5.066   5.736  10.345 -0.1924  0.2347 -1.1561
  767MOL0     H 1219   5.039   5.651  10.497  0.5234 -2.1170  0.0928
  767MOL0     H 1220   4.907   5.482  10.382 -0.5828 -0.1232 -0.5792
  767MOL0     H 1221   4.991   5.515  10.228 -0.5657  0.8142 -0.0634
  767MOL0     H 1222   4.874   5.724  10.180 -0.5099 -0.6174 -1.3721
  767MOL0     H 1223   4.769   5.583  10.199  0.2046  2.1291 -1.3059
  767MOL0     H 1224   4.814   5.804  10.391  2.9271 -1.2512 -2.1217
  767MOL0     H 1225   4.730   5.651  10.439 -0.2818  0.3121 -0.6841
  767MOL0     H 1226   5.602   5.626  10.877  1.6275 -2.0465 -1.8404
  767MOL0     H 1227   5.783   5.664  11.030 -0.2051 -1.5332 -0.4085
  767MOL0     H 1228   6.136   5.824  11.205 -1.4358 -2.1698 -1.2692
  767MOL0     H 1229   6.314   5.851  11.367  1.5686 -3.5239  0.7337
  767MOL0     H 1230   8.345   6.493  11.387 -1.4150 -1.3778  0.3191
  767MOL0     H 1231   8.500   6.679  11.305  0.0565 -3.2666  0.5707
  767MOL0     H 1232   8.724   6.861  10.804 -1.4477 -0.9824 -0.4095
  767MOL0     H 1233   8.898   7.043  10.785  1.8889  0.1705  2.3567
  767MOL0     H 1234   8.998   7.248  10.799 -0.8939  0.2932  0.8056
  767MOL0     H 1235   9.065   7.127  10.917  0.4349  0.8090  1.6223
  767MOL0     H 1236   9.080   7.437  10.930  2.4219  2.7509  0.9770
  767MOL0     H 1237   9.183   7.328  11.026 -0.7456  0.1635 -0.7761
  767MOL0     H 1238   9.315   7.246  10.837 -0.3471 -0.0721 -0.6821
  767MOL0     H 1239   9.335   7.413  10.841  3.4828 -2.7739 -1.4045
  767MOL0     H 1240   9.152   7.277  10.632 -1.2995  0.9307 -1.9062
  767MOL0     H 1241   9.137   7.440  10.676  0.4176  1.0694 -0.4389
  767MOL0     H 1242   9.504   7.379  10.450 -0.7763  0.1518 -1.7646
  767MOL0     H 1243   8.708   7.220  11.147  0.4367 -1.0654  1.7660
  767MOL0     H 1244   8.554   7.047  11.160  0.6015  0.2823  1.4224
  768MOL0     O 1245   9.874   1.769   5.631 -0.0494  0.2970 -0.8591
  768MOL0     C 1246   9.891   1.681   5.546 -0.3308  0.0894  0.5916
  768MOL0     O 1247   9.799   1.618   5.470  0.1822 -0.3970 -0.1131
  768MOL0     C 1248   9.667   1.652   5.461 -0.4873  0.0664 -0.4904
  768MOL0     C 1249   9.583   1.539   5.453  0.3349 -0.1035 -0.7324
  768MOL0     C 1250   9.443   1.550   5.437  0.0842  0.6657  0.5940
  768MOL0     C 1251   9.384   1.679   5.445 -0.6181  0.7099  0.4492
  768MOL0     O 1252   9.246   1.692   5.437  0.3186  0.1662 -0.3620
  768MOL0     C 1253   9.174   1.597   5.358  0.9127  0.0037  0.2465
  768MOL0     C 1254   9.044   1.671   5.326  0.6655  1.1943  0.0152
  768MOL0     C 1255   8.961   1.695   5.455 -0.1416  1.2087 -0.3517
  768MOL0     C 1256   8.816   1.718   5.430  0.0399  0.3131 -0.6002
  768MOL0     C 1257   8.746   1.785   5.554 -0.5893  1.2610  0.4917
  768MOL0     C 1258   8.602   1.754   5.562 -0.2270 -0.5238  0.0595
  768MOL0     C 1259   8.521   1.829   5.668  0.0878  0.2587  1.0906
  768MOL0     C 1260   8.526   1.985   5.640  0.1508  0.2566  0.8042
  768MOL0     N 1261   8.432   2.062   5.724 -0.0296  0.8533  0.4296
  768MOL0     C 1262   8.296   2.028   5.716  0.2795 -0.2982  0.2834
  768MOL0     C 1263   8.239   2.116   5.800 -0.0176 -0.4013 -0.0549
  768MOL0     C 1264   8.094   2.106   5.827  0.9678 -0.3103 -0.6497
  768MOL0     C 1265   8.056   2.078   5.971 -0.2381  0.3314  0.3289
  768MOL0     C 1266   7.905   2.055   6.007 -0.9491  0.1663 -0.3298
  768MOL0     C 1267   7.813   2.165   5.954  0.8702  0.6864 -0.2251
  768MOL0     O 1268   7.675   2.116   5.950  0.9486 -0.0935 -0.0942
  768MOL0     C 1269   7.568   2.206   5.973 -0.2030 -0.1291 -0.5448
  768MOL0     C 1270   7.444   2.145   5.989 -0.0800  0.0679 -0.1830
  768MOL0     C 1271   7.325   2.223   6.008 -0.1401  0.2874 -0.2983
  768MOL0     C 1272   7.329   2.357   6.027  0.3288 -0.5158 -0.0281
  768MOL0     C 1273   7.206   2.436   6.042 -0.2971 -0.4212  0.5501
  768MOL0     O 1274   7.084   2.371   6.056 -0.3413 -0.2556  0.9148
  768MOL0     C 1275   6.979   2.448   6.083  0.4088  1.4284 -0.1646
  768MOL0     C 1276   6.967   2.519   6.201  0.0337  0.4753 -0.3856
  768MOL0     C 1277   6.848   2.582   6.225 -0.5977 -0.0609 -1.2846
  768MOL0     C 1278   6.740   2.585   6.140  0.0692  0.3492  0.7961
  768MOL0     O 1279   6.626   2.649   6.179 -0.3772  0.3543  0.7081
  768MOL0     C 1280   6.505   2.620   6.105  1.1071 -0.1593 -1.0002
  768MOL0     C 1281   6.384   2.674   6.193 -0.4461 -0.2647  0.1477
  768MOL0     C 1282   6.249   2.683   6.122  0.5106  0.5326  0.1600
  768MOL0     C 1283   6.137   2.735   6.233  0.6868  0.4226  0.2086
  768MOL0     C 1284   5.995   2.745   6.186  0.7529 -0.7167 -0.3153
  768MOL0     C 1285   5.975   2.868   6.090  0.5526 -0.6940 -0.1012
  768MOL0     C 1286   5.825   2.877   6.060 -0.0681  0.2810  0.2386
  768MOL0     C 1287   5.746   2.950   6.169  0.0534  1.0003  0.0161
  768MOL0    Cl 1288   5.585   3.001   6.114 -0.1011 -0.1203 -0.0052
  768MOL0     C 1289   6.756   2.516   6.019 -0.0819  0.0137 -0.4262
  768MOL0     C 1290   6.873   2.445   5.987  0.5235 -0.0208 -0.1567
  768MOL0     O 1291   7.233   2.560   6.063 -0.7699 -0.0927 -0.4597
  768MOL0     C 1292   7.452   2.419   6.007 -0.6254 -0.3858 -0.1471
  768MOL0     C 1293   7.569   2.345   5.978  0.0923  0.2057  0.6256
  768MOL0     N 1294   8.336   2.209   5.849 -0.4310  0.0279  0.6879
  768MOL0     N 1295   8.449   2.178   5.794 -0.2439 -0.0116  0.2603
  768MOL0     C 1296   9.466   1.794   5.454 -0.1561  0.5507 -0.3152
  768MOL0     C 1297   9.603   1.780   5.460 -0.1945  0.5420 -0.6194
  768MOL0     C 1298  10.027   1.623   5.526 -0.5598  0.5289 -0.0845
  768MOL0     C 1299  10.054   1.496   5.461  0.6555 -0.0134  0.5029
  768MOL0     C 1300  10.182   1.446   5.449  0.7760  0.1483  0.4937
  768MOL0     C 1301  10.283   1.510   5.524 -0.9332  0.7426  0.4275
  768MOL0     O 1302  10.413   1.465   5.534  0.4269  0.3276  0.5345
  768MOL0     C 1303  10.447   1.343   5.466  0.1037 -0.4536 -0.4876
  768MOL0     C 1304  10.587   1.301   5.519 -0.3915  0.0680  0.0886
  768MOL0     C 1305  10.577   1.273   5.669 -0.0273  0.1935 -0.8826
  768MOL0     C 1306  10.721   1.258   5.727 -0.2211 -0.1487  0.1995
  768MOL0     C 1307  10.801   1.380   5.756 -0.3126  0.1335  0.5383
  768MOL0     C 1308  10.851   1.484   5.790  0.0870  1.1475  0.5388
  768MOL0     C 1309  10.254   1.624   5.597 -0.8719 -0.4270 -0.2492
  768MOL0     C 1310  10.135   1.684   5.591 -0.2853 -0.8474 -0.8521
  768MOL0     H 1311   9.634   1.444   5.454  0.2009 -0.2128 -2.0266
  768MOL0     H 1312   9.373   1.471   5.415 -1.3905  2.4891 -1.8192
  768MOL0     H 1313   9.143   1.514   5.420  0.3430 -0.8587 -1.1366
  768MOL0     H 1314   9.219   1.550   5.269 -1.0789 -0.2100 -0.6946
  768MOL0     H 1315   8.991   1.610   5.253  1.4184  0.7736 -0.1930
  768MOL0     H 1316   9.055   1.772   5.286 -1.4397  1.4517 -0.0391
  768MOL0     H 1317   9.010   1.770   5.518 -1.7672  0.2160  2.2772
  768MOL0     H 1318   8.972   1.603   5.514  0.7402  0.8138 -1.0961
  768MOL0     H 1319   8.815   1.792   5.349  2.1493  0.1301 -0.8473
  768MOL0     H 1320   8.769   1.627   5.394 -0.2287  0.5344 -0.8154
  768MOL0     H 1321   8.769   1.892   5.552 -1.0078  1.3642  1.0212
  768MOL0     H 1322   8.803   1.748   5.639  1.8722  0.2528 -1.4507
  768MOL0     H 1323   8.587   1.646   5.570  0.0016 -0.5611 -0.0159
  768MOL0     H 1324   8.554   1.790   5.470 -0.4522  0.7132  0.6403
  768MOL0     H 1325   8.414   1.806   5.668 -0.0053  0.6461  0.2013
  768MOL0     H 1326   8.567   1.813   5.766 -0.8006  3.1449  2.0716
  768MOL0     H 1327   8.494   2.008   5.538  0.5676  1.3892  0.9196
  768MOL0     H 1328   8.629   2.022   5.641  0.8150 -0.9978 -2.7795
  768MOL0     H 1329   8.240   1.954   5.660  0.2554 -2.7076  3.2033
  768MOL0     H 1330   8.060   2.020   5.769  2.1515 -0.9169 -0.4534
  768MOL0     H 1331   8.041   2.191   5.783 -0.4515 -0.7217  0.1933
  768MOL0     H 1332   8.085   2.157   6.040 -3.0034  1.6651  0.1161
  768MOL0     H 1333   8.117   1.991   5.998  0.0582 -0.1527 -1.7667
  768MOL0     H 1334   7.874   1.967   5.949  1.2756  0.8070 -2.7148
  768MOL0     H 1335   7.888   2.042   6.114 -0.0145  0.5530 -0.1210
  768MOL0     H 1336   7.840   2.200   5.853 -1.2189  0.1715 -1.0005
  768MOL0     H 1337   7.825   2.252   6.019  3.8239  1.2465 -1.3172
  768MOL0     H 1338   7.425   2.040   5.970  1.4469 -0.0187 -1.4481
  768MOL0     H 1339   7.227   2.178   6.016 -0.6175  0.8543 -2.3237
  768MOL0     H 1340   7.057   2.526   6.261 -0.7526  3.1465  0.6387
  768MOL0     H 1341   6.825   2.631   6.319 -3.1971 -1.5973 -1.0132
  768MOL0     H 1342   6.488   2.514   6.083 -1.6063 -0.6426  2.4237
  768MOL0     H 1343   6.496   2.679   6.014  1.4519  1.0026 -0.2984
  768MOL0     H 1344   6.408   2.777   6.220  0.1293 -0.0939 -0.9628
  768MOL0     H 1345   6.367   2.617   6.286  1.0364  2.4179  2.2118
  768MOL0     H 1346   6.215   2.581   6.104  0.1422  0.2399  2.2696
  768MOL0     H 1347   6.256   2.735   6.026  2.9135 -1.4771 -0.8675
  768MOL0     H 1348   6.154   2.667   6.317 -0.0772 -0.9292 -0.6911
  768MOL0     H 1349   6.174   2.833   6.265  1.3735  0.0985  0.4290
  768MOL0     H 1350   5.934   2.777   6.271 -1.0467 -2.4177 -0.8808
  768MOL0     H 1351   5.974   2.649   6.139 -0.1213  0.7607 -3.1922
  768MOL0     H 1352   6.026   2.882   5.994 -0.4314  3.0743 -0.2418
  768MOL0     H 1353   5.995   2.958   6.149 -0.8921 -1.5226  1.7401
  768MOL0     H 1354   5.817   2.933   5.966 -0.1315  0.6883  0.4868
  768MOL0     H 1355   5.788   2.777   6.037 -0.8475  0.5916  0.1184
  768MOL0     H 1356   5.807   3.037   6.194  2.5560  0.1515 -2.4952
  768MOL0     H 1357   5.741   2.887   6.258 -0.1965  1.7019  0.5045
  768MOL0     H 1358   6.673   2.515   5.949 -0.7710 -0.3600  0.3785
  768MOL0     H 1359   6.882   2.398   5.889  1.4336  0.3135 -0.2459
  768MOL0     H 1360   7.470   2.526   6.009  0.9192 -0.6370  0.7760
  768MOL0     H 1361   7.665   2.394   5.969  1.1726 -2.1294 -2.7240
  768MOL0     H 1362   9.413   1.889   5.450  0.8098  1.0718 -1.7440
  768MOL0     H 1363   9.657   1.874   5.459 -3.2086  2.4264  0.4982
  768MOL0     H 1364   9.969   1.433   5.439 -0.6650  1.4564  1.2508
  768MOL0     H 1365  10.191   1.347   5.404 -1.4614  0.0594  0.1122
  768MOL0     H 1366  10.457   1.347   5.357  0.8519  1.8722 -0.3902
  768MOL0     H 1367  10.378   1.264   5.494 -2.3575  1.8932  0.4279
  768MOL0     H 1368  10.611   1.207   5.468 -3.0608 -0.7877  0.2487
  768MOL0     H 1369  10.662   1.377   5.498  0.7571 -0.0188  3.3734
  768MOL0     H 1370  10.514   1.186   5.691 -1.3914  1.0946 -1.0872
  768MOL0     H 1371  10.529   1.350   5.730 -0.8054 -2.1756  1.7496
  768MOL0     H 1372  10.712   1.195   5.816  0.5256 -2.0946 -1.0460
  768MOL0     H 1373  10.781   1.183   5.673  1.4153  1.2915 -0.0753
  768MOL0     H 1374  10.895   1.570   5.836 -1.7250  3.6101 -1.9698
  768MOL0     H 1375  10.321   1.677   5.664 -3.8565  1.7938  1.1930
  768MOL0     H 1376  10.116   1.779   5.641  0.8393 -1.5211  0.9519
  769MOL0     O 1377   6.873   5.916  11.034 -0.1696  0.0737 -0.7736
  769MOL0     C 1378   6.910   6.029  11.008 -0.8246 -0.4178 -0.0420
  769MOL0     O 1379   6.827   6.127  10.956 -0.4125  0.1193  0.3018
  769MOL0     C 1380   6.693   6.099  10.940 -0.2564 -0.2162  0.1111
  769MOL0     C 1381   6.643   6.013  10.846  0.0259  0.5586 -0.8737
  769MOL0     C 1382   6.506   5.998  10.812  0.0285  0.0705 -0.0966
  769MOL0     C 1383   6.415   6.083  10.883 -1.2036 -0.2939  0.5935
  769MOL0     O 1384   6.289   6.096  10.833 -0.5513  0.3951 -0.0291
  769MOL0     C 1385   6.174   6.082  10.917  0.0663 -0.2510  0.1842
  769MOL0     C 1386   6.070   6.201  10.889  1.0476  0.5001 -1.0352
  769MOL0     C 1387   5.976   6.167  10.766  1.0230  0.6438 -0.0806
  769MOL0     C 1388   5.872   6.267  10.739 -0.1783  0.1096  0.2801
  769MOL0     C 1389   5.746   6.214  10.676 -0.1513  0.1674  1.0446
  769MOL0     C 1390   5.653   6.144  10.774 -0.0869 -0.2428 -0.9438
  769MOL0     C 1391   5.550   6.046  10.707 -0.1099  0.0650  0.3670
  769MOL0     C 1392   5.437   6.003  10.797  0.2243  0.5308 -0.0819
  769MOL0     N 1393   5.477   5.940  10.921 -0.3382 -0.3687  0.2696
  769MOL0     C 1394   5.532   6.001  11.033  0.2555 -0.2013 -0.4690
  769MOL0     C 1395   5.520   5.908  11.125 -0.2485  0.6630  0.5673
  769MOL0     C 1396   5.555   5.903  11.275 -0.0547 -0.5771 -0.6276
  769MOL0     C 1397   5.696   5.910  11.305 -0.4710 -0.1055 -0.0163
  769MOL0     C 1398   5.763   6.023  11.239  0.7369  0.3445  0.2271
  769MOL0     C 1399   5.908   6.035  11.302  0.7316 -0.0883  0.5344
  769MOL0     O 1400   5.972   6.153  11.242  0.4326  0.9021  0.1923
  769MOL0     C 1401   6.103   6.189  11.276  0.1283  0.4370  0.3094
  769MOL0     C 1402   6.149   6.311  11.226 -0.1035 -0.2913  0.9552
  769MOL0     C 1403   6.278   6.351  11.249 -0.0907  0.6134  0.0520
  769MOL0     C 1404   6.372   6.264  11.309 -0.1072  0.3314 -0.4793
  769MOL0     C 1405   6.513   6.296  11.328 -0.4104 -0.5429 -0.2398
  769MOL0     O 1406   6.600   6.193  11.359  0.4712 -0.2891 -0.2515
  769MOL0     C 1407   6.728   6.232  11.383 -0.2080 -0.5286  0.8974
  769MOL0     C 1408   6.755   6.315  11.496 -0.0277 -0.8051  0.6643
  769MOL0     C 1409   6.889   6.352  11.524  0.0111 -0.7000 -0.2265
  769MOL0     C 1410   7.001   6.294  11.448 -0.7615  0.1714  0.3297
  769MOL0     O 1411   7.129   6.318  11.500  0.2051  0.2847  0.2916
  769MOL0     C 1412   7.237   6.256  11.433 -0.9507 -0.0985 -0.0382
  769MOL0     C 1413   7.356   6.279  11.522 -0.0307 -0.1312 -0.1995
  769MOL0     C 1414   7.359   6.183  11.636 -0.3187  0.8312  0.3102
  769MOL0     C 1415   7.465   6.227  11.742  0.6324  0.0742  0.7704
  769MOL0     C 1416   7.465   6.135  11.870  0.6543 -0.0987 -0.3077
  769MOL0     C 1417   7.463   5.997  11.837  1.1796  0.5610  0.6184
  769MOL0     C 1418   7.516   5.907  11.953 -0.0355  0.9757 -0.2870
  769MOL0     C 1419   7.486   5.759  11.931  0.2890  0.3545  0.5234
  769MOL0    Cl 1420   7.537   5.669  12.077 -0.1567 -0.3977  0.0109
  769MOL0     C 1421   6.968   6.206  11.344 -0.6626 -0.3640  0.0050
  769MOL0     C 1422   6.834   6.174  11.311 -0.0622  0.7042  0.1799
  769MOL0     O 1423   6.540   6.417  11.311  1.2968  0.0346  0.4146
  769MOL0     C 1424   6.323   6.146  11.365  0.5956  0.2627 -0.2880
  769MOL0     C 1425   6.190   6.108  11.351 -0.7684  0.5451  0.8189
  769MOL0     N 1426   5.468   5.794  11.065 -0.1511  0.0023 -0.8611
  769MOL0     N 1427   5.434   5.821  10.952  0.1366  0.7735  1.0039
  769MOL0     C 1428   6.462   6.166  10.987 -0.6698  0.0712  0.3234
  769MOL0     C 1429   6.599   6.176  11.011 -0.3465  0.5104  0.5444
  769MOL0     C 1430   7.057   6.064  11.035 -0.3566 -0.6059 -0.3428
  769MOL0     C 1431   7.145   5.963  11.092  0.1140 -0.4090 -0.2579
  769MOL0     C 1432   7.275   6.011  11.132 -0.1869  0.3157  1.0961
  769MOL0     C 1433   7.316   6.143  11.117 -1.2972 -0.0149 -0.4825
  769MOL0     O 1434   7.442   6.183  11.144 -0.4759 -0.9761  0.0115
  769MOL0     C 1435   7.543   6.156  11.054 -0.7457  0.0097 -0.1328
  769MOL0     C 1436   7.654   6.269  11.047  0.0960  0.6472 -0.3204
  769MOL0     C 1437   7.604   6.403  10.981  0.1281  0.4097 -0.2247
  769MOL0     C 1438   7.707   6.525  10.982  0.1726  0.2010 -0.4785
  769MOL0     C 1439   7.833   6.476  10.930  0.7314  0.8385  0.5013
  769MOL0     C 1440   7.925   6.427  10.871 -0.5622 -0.1737  0.0558
  769MOL0     C 1441   7.235   6.240  11.065 -0.3056  0.3071  0.5150
  769MOL0     C 1442   7.104   6.204  11.028 -0.4467  0.3360 -0.7312
  769MOL0     H 1443   6.711   5.946  10.794  2.8426  3.2967 -1.0480
  769MOL0     H 1444   6.469   5.936  10.731 -0.5426  1.1207 -0.6568
  769MOL0     H 1445   6.186   6.078  11.025 -0.2968 -1.1216  0.2038
  769MOL0     H 1446   6.120   5.991  10.889  1.7051 -1.3978  0.6561
  769MOL0     H 1447   6.118   6.299  10.881  0.7802  0.7634  0.3139
  769MOL0     H 1448   6.005   6.214  10.976  0.0388 -0.4064 -1.6299
  769MOL0     H 1449   5.924   6.071  10.774 -0.5145  1.1726 -2.4383
  769MOL0     H 1450   6.043   6.167  10.679 -2.0400 -0.2627 -2.6430
  769MOL0     H 1451   5.852   6.315  10.835  2.1036 -0.4999  1.1450
  769MOL0     H 1452   5.908   6.345  10.671 -2.4661 -1.3560 -2.8430
  769MOL0     H 1453   5.756   6.140  10.597  0.1375 -0.9968  2.1398
  769MOL0     H 1454   5.686   6.292  10.628 -0.3348 -1.2483 -1.1834
  769MOL0     H 1455   5.610   6.221  10.840  1.7536 -1.4738  1.8697
  769MOL0     H 1456   5.708   6.076  10.839 -2.1153 -0.0187  1.1816
  769MOL0     H 1457   5.511   6.098  10.619  3.5804  1.0136 -0.9119
  769MOL0     H 1458   5.612   5.966  10.666 -0.4759  0.3840 -0.8468
  769MOL0     H 1459   5.376   5.927  10.747  0.6205 -0.2676  0.6093
  769MOL0     H 1460   5.369   6.083  10.826 -2.7504 -1.1061 -2.0792
  769MOL0     H 1461   5.573   6.101  11.041 -0.3366 -0.0669  1.3943
  769MOL0     H 1462   5.505   5.816  11.318 -1.3792 -0.3400 -1.6152
  769MOL0     H 1463   5.504   5.984  11.327  0.7392 -0.3903 -0.1117
  769MOL0     H 1464   5.748   5.816  11.282  0.5830 -0.5660  3.6333
  769MOL0     H 1465   5.709   5.931  11.411 -0.7657  2.4476 -0.4217
  769MOL0     H 1466   5.773   6.011  11.130 -0.2862  1.7832 -0.0536
  769MOL0     H 1467   5.718   6.121  11.253  0.6623  0.7282 -2.2124
  769MOL0     H 1468   5.966   5.944  11.282 -0.8226 -1.6666  2.7231
  769MOL0     H 1469   5.895   6.052  11.410 -2.6662  0.1497  0.1835
  769MOL0     H 1470   6.065   6.368  11.188 -1.3759 -0.5495  3.1967
  769MOL0     H 1471   6.312   6.449  11.218  2.9745  0.8856  3.4867
  769MOL0     H 1472   6.666   6.339  11.553  2.0925  0.6190  3.6137
  769MOL0     H 1473   6.908   6.428  11.599 -0.2158  3.5910 -4.0685
  769MOL0     H 1474   7.246   6.302  11.334 -1.2721  3.1947  1.3519
  769MOL0     H 1475   7.231   6.147  11.428 -0.3290 -0.1285 -0.2770
  769MOL0     H 1476   7.365   6.382  11.558 -1.2006  0.3636 -1.2466
  769MOL0     H 1477   7.441   6.257  11.456 -2.5704  0.8021 -4.1244
  769MOL0     H 1478   7.401   6.088  11.602 -0.0274  0.3887  1.8310
  769MOL0     H 1479   7.256   6.166  11.669  0.1434  0.4283  1.6143
  769MOL0     H 1480   7.557   6.236  11.683 -0.0612 -1.5821 -0.6563
  769MOL0     H 1481   7.441   6.331  11.765  3.3159  0.6784  1.1781
  769MOL0     H 1482   7.384   6.159  11.940  1.4470  3.7517 -0.4530
  769MOL0     H 1483   7.554   6.157  11.930 -0.9434  1.6144  1.6144
  769MOL0     H 1484   7.524   5.971  11.750  2.1770 -0.2171  1.5331
  769MOL0     H 1485   7.361   5.960  11.820  0.9271 -0.3122  3.4817
  769MOL0     H 1486   7.623   5.924  11.967 -0.1972 -0.4046  4.2679
  769MOL0     H 1487   7.476   5.941  12.049 -0.7630 -0.2813 -0.1199
  769MOL0     H 1488   7.548   5.721  11.849  1.2263  3.2973 -0.2372
  769MOL0     H 1489   7.379   5.748  11.910 -0.6543  5.1751  1.7780
  769MOL0     H 1490   7.049   6.169  11.281  0.9633  3.3575 -0.3352
  769MOL0     H 1491   6.826   6.116  11.220  1.3423 -1.0200  1.0858
  769MOL0     H 1492   6.391   6.078  11.416  1.8770  1.3471 -0.5002
  769MOL0     H 1493   6.162   6.009  11.383  0.3439  0.2702  0.9751
  769MOL0     H 1494   6.394   6.225  11.047 -0.8568 -1.0614  1.2402
  769MOL0     H 1495   6.643   6.251  11.076  1.0338 -0.1569  0.4179
  769MOL0     H 1496   7.110   5.860  11.091  2.8056 -1.4035 -1.8509
  769MOL0     H 1497   7.352   5.938  11.157  1.1689  1.4139  0.2501
  769MOL0     H 1498   7.522   6.143  10.947 -0.4103  2.2281 -0.5365
  769MOL0     H 1499   7.590   6.064  11.088 -0.4025 -0.6766 -2.2700
  769MOL0     H 1500   7.701   6.292  11.143 -0.9296  0.5614  0.2137
  769MOL0     H 1501   7.735   6.240  10.980  1.3026  2.6640  0.1766
  769MOL0     H 1502   7.518   6.449  11.031  1.1526  2.2551 -0.0465
  769MOL0     H 1503   7.573   6.398  10.876  4.0920  0.9715 -1.5939
  769MOL0     H 1504   7.666   6.606  10.921 -2.4567 -0.0022  0.8678
  769MOL0     H 1505   7.733   6.559  11.083  0.0549  2.9758 -1.3026
  769MOL0     H 1506   8.008   6.378  10.826 -0.2451  3.0144 -3.2199
  769MOL0     H 1507   7.267   6.344  11.060 -0.0733  0.1826 -1.9856
  769MOL0     H 1508   7.032   6.277  10.993  0.0987  0.3243 -1.9287
  770MOL0     O 1509   3.473  10.422   3.471 -0.9494 -0.6031 -0.4049
  770MOL0     C 1510   3.459  10.487   3.370 -0.2796 -0.7323  0.4062
  770MOL0     O 1511   3.341  10.540   3.312  0.1201  0.0955  0.3770
  770MOL0     C 1512   3.228  10.567   3.389  0.2121  1.1935  1.0203
  770MOL0     C 1513   3.100  10.559   3.330  0.2887  0.2396  0.1793
  770MOL0     C 1514   2.980  10.570   3.401  0.4170  0.2894 -0.2418
  770MOL0     C 1515   2.981  10.568   3.542  0.0416 -0.2611 -1.2263
  770MOL0     O 1516   2.876  10.546   3.621 -0.0061 -0.6877 -0.5510
  770MOL0     C 1517   2.753  10.505   3.556  0.1586 -0.8453 -0.1179
  770MOL0     C 1518   2.668  10.447   3.663  0.3191 -0.5452  0.6521
  770MOL0     C 1519   2.533  10.394   3.606 -1.2214  0.2193 -0.0607
  770MOL0     C 1520   2.460  10.304   3.713 -0.3615 -0.3646  0.2969
  770MOL0     C 1521   2.317  10.281   3.664 -0.6914 -0.0729 -0.7896
  770MOL0     C 1522   2.239  10.223   3.781 -0.1090  0.9704 -0.2708
  770MOL0     C 1523   2.116  10.148   3.731  0.6788  0.1813  0.6214
  770MOL0     C 1524   2.032  10.081   3.849 -0.2723 -0.0153  0.2578
  770MOL0     N 1525   1.891  10.058   3.810  0.4593 -0.2670 -0.7028
  770MOL0     C 1526   1.824   9.939   3.809 -0.0947  0.2243 -0.4985
  770MOL0     C 1527   1.694   9.975   3.790  0.3384 -0.4367 -0.4291
  770MOL0     C 1528   1.571   9.893   3.769  0.2796  0.0304 -0.7730
  770MOL0     C 1529   1.481   9.890   3.897  0.0022  0.2557  0.2135
  770MOL0     C 1530   1.559   9.821   4.011 -0.8038  0.6758  0.3276
  770MOL0     C 1531   1.557   9.896   4.145  0.9956  0.2900  0.3364
  770MOL0     O 1532   1.642   9.836   4.236 -0.4322 -0.3672 -0.5681
  770MOL0     C 1533   1.774   9.885   4.234 -0.0255 -0.2498 -0.1603
  770MOL0     C 1534   1.867   9.815   4.314 -1.1687  0.1435  0.7692
  770MOL0     C 1535   2.002   9.845   4.316  0.3092 -0.1772 -0.3448
  770MOL0     C 1536   2.052   9.960   4.251 -0.4398  0.0410 -0.1177
  770MOL0     C 1537   2.196   9.978   4.248 -0.5224 -0.1322 -1.1266
  770MOL0     O 1538   2.245  10.087   4.172  0.0694  0.5064 -0.5086
  770MOL0     C 1539   2.378  10.088   4.135 -0.1025  0.1076  0.7254
  770MOL0     C 1540   2.463  10.201   4.165 -0.5853  0.3677 -0.0244
  770MOL0     C 1541   2.595  10.219   4.113  0.0439 -0.7489  0.6914
  770MOL0     C 1542   2.643  10.118   4.030  0.1421  0.8786  0.0283
  770MOL0     O 1543   2.774  10.127   3.988 -0.4315 -0.2315 -0.3766
  770MOL0     C 1544   2.855  10.250   3.988 -0.1242 -1.0673  0.0301
  770MOL0     C 1545   2.960  10.245   3.876  0.4292  0.4666 -0.7529
  770MOL0     C 1546   3.055  10.365   3.866 -0.4605 -0.7214  1.2594
  770MOL0     C 1547   3.134  10.390   3.987  0.2764  0.8454  1.1323
  770MOL0     C 1548   3.252  10.480   3.958  0.1031 -0.4074  0.0408
  770MOL0     C 1549   3.374  10.412   3.892  0.4111 -0.3902  0.0621
  770MOL0     C 1550   3.505  10.491   3.874 -0.1234 -0.7529 -0.3516
  770MOL0     C 1551   3.484  10.640   3.855  0.2373  0.2888 -0.0171
  770MOL0    Cl 1552   3.640  10.728   3.865  0.3746 -0.4346 -0.0141
  770MOL0     C 1553   2.565  10.008   4.003  0.6576  0.1763  0.0825
  770MOL0     C 1554   2.432   9.990   4.049 -0.7607  0.4129  1.0261
  770MOL0     O 1555   2.269   9.886   4.289  0.1922  0.3257  0.1568
  770MOL0     C 1556   1.956  10.050   4.192 -0.3487 -0.1353 -0.5397
  770MOL0     C 1557   1.822  10.003   4.170 -0.4094  1.0247  1.1268
  770MOL0     N 1558   1.688  10.109   3.783 -0.1429 -0.2235 -0.0115
  770MOL0     N 1559   1.807  10.158   3.791  0.5885 -0.6419  0.5645
  770MOL0     C 1560   3.110  10.584   3.609  0.8453  0.0840 -0.5796
  770MOL0     C 1561   3.232  10.572   3.533 -0.1847 -0.0089  0.0414
  770MOL0     C 1562   3.594  10.496   3.291  0.2926 -0.4095 -0.4835
  770MOL0     C 1563   3.714  10.431   3.314 -0.0796  0.2747 -0.7122
  770MOL0     C 1564   3.826  10.458   3.236  0.1639  0.5815  0.3429
  770MOL0     C 1565   3.833  10.544   3.131  0.7474 -0.8957  0.1006
  770MOL0     O 1566   3.951  10.580   3.068  0.7029  0.0264  0.2575
  770MOL0     C 1567   4.079  10.529   3.119 -0.4008  0.2382 -0.7801
  770MOL0     C 1568   4.113  10.618   3.241  0.0711  0.2855  0.5241
  770MOL0     C 1569   4.264  10.624   3.267  0.9401  0.6425  0.0516
  770MOL0     C 1570   4.295  10.583   3.412  0.3379 -0.0622  0.7765
  770MOL0     C 1571   4.441  10.596   3.440  0.2256 -0.8472 -0.2420
  770MOL0     C 1572   4.558  10.590   3.472  0.6805 -0.2064  1.0462
  770MOL0     C 1573   3.713  10.602   3.099  0.3613  0.4609 -0.3115
  770MOL0     C 1574   3.593  10.577   3.175 -0.2224  0.2585  0.8367
  770MOL0     H 1575   3.101  10.547   3.222  1.0211 -0.7419  0.2771
  770MOL0     H 1576   2.890  10.560   3.341 -0.9929  0.8374  1.6817
  770MOL0     H 1577   2.769  10.426   3.482 -1.1781  0.1039 -1.4728
  770MOL0     H 1578   2.707  10.586   3.499 -0.6198 -1.2145 -0.0206
  770MOL0     H 1579   2.637  10.517   3.741 -0.0769  1.9062 -1.5523
  770MOL0     H 1580   2.717  10.357   3.698  1.8554 -0.2436 -0.6111
  770MOL0     H 1581   2.557  10.330   3.520  0.7741  0.3220  0.3624
  770MOL0     H 1582   2.472  10.475   3.567 -2.6785  0.1888  1.9780
  770MOL0     H 1583   2.516  10.216   3.745  0.9481  1.2732  2.7255
  770MOL0     H 1584   2.451  10.364   3.803 -0.0269  2.2555 -1.3066
  770MOL0     H 1585   2.313  10.218   3.575 -2.1878 -0.4126 -0.5018
  770MOL0     H 1586   2.270  10.377   3.646 -0.3760  0.3713  0.6171
  770MOL0     H 1587   2.217  10.307   3.847 -1.1538  1.2473 -0.9588
  770MOL0     H 1588   2.294  10.154   3.846 -2.6145 -0.4688  0.4422
  770MOL0     H 1589   2.053  10.213   3.669  0.0790 -0.7309  0.2574
  770MOL0     H 1590   2.149  10.065   3.668  0.0977  0.2140  0.2651
  770MOL0     H 1591   2.032  10.155   3.930 -0.7571  2.8138 -2.1743
  770MOL0     H 1592   2.078   9.984   3.871 -0.1739 -0.4474 -1.6933
  770MOL0     H 1593   1.858   9.836   3.814 -0.2429 -0.0739 -3.4873
  770MOL0     H 1594   1.597   9.790   3.742  2.6064  0.2347  0.4187
  770MOL0     H 1595   1.523   9.932   3.679 -1.0355  1.9491  0.6591
  770MOL0     H 1596   1.388   9.835   3.879  0.0580  0.5692 -1.1223
  770MOL0     H 1597   1.461   9.992   3.930 -0.8965  1.2326 -3.0159
  770MOL0     H 1598   1.503   9.731   4.038  0.5095 -0.8543 -1.7386
  770MOL0     H 1599   1.655   9.780   3.980 -1.6928 -2.1766  1.0797
  770MOL0     H 1600   1.455   9.881   4.180  0.1025 -1.5316 -2.6797
  770MOL0     H 1601   1.577  10.003   4.133  0.7883  0.4602  1.4223
  770MOL0     H 1602   1.830   9.720   4.350 -1.1269 -0.0299  0.3644
  770MOL0     H 1603   2.072   9.779   4.366  0.3026  0.1223  0.0746
  770MOL0     H 1604   2.438  10.283   4.232  0.4514  1.2400 -0.6547
  770MOL0     H 1605   2.651  10.305   4.147  1.0362 -0.3941 -1.6709
  770MOL0     H 1606   2.918  10.257   4.077 -0.8757 -0.4176  0.5215
  770MOL0     H 1607   2.795  10.341   3.980  2.6572  1.1117  1.8748
  770MOL0     H 1608   2.898  10.234   3.787 -2.1249  1.2829  0.8150
  770MOL0     H 1609   3.021  10.155   3.892  0.2046  0.5253  0.6025
  770MOL0     H 1610   2.996  10.455   3.848 -0.2862 -1.0735 -1.5680
  770MOL0     H 1611   3.129  10.352   3.786 -0.4068 -0.9551  1.3468
  770MOL0     H 1612   3.068  10.443   4.057 -3.6112  0.1388 -1.6965
  770MOL0     H 1613   3.170  10.293   4.023  0.1005  0.4241  0.1992
  770MOL0     H 1614   3.288  10.522   4.053 -1.5650  2.8069 -0.5987
  770MOL0     H 1615   3.215  10.564   3.899  0.9577  0.8149  1.1753
  770MOL0     H 1616   3.340  10.372   3.796 -2.9414 -3.2070  2.1849
  770MOL0     H 1617   3.399  10.329   3.959  3.9434  0.6932  0.2721
  770MOL0     H 1618   3.573  10.482   3.960  1.6874  0.4616 -1.5677
  770MOL0     H 1619   3.560  10.451   3.788  2.9354  1.0386  0.5857
  770MOL0     H 1620   3.404  10.685   3.914 -2.2461 -0.1772 -2.7315
  770MOL0     H 1621   3.454  10.655   3.750  2.2555  0.4458 -0.6210
  770MOL0     H 1622   2.604   9.932   3.935  3.0040 -0.3688  1.8874
  770MOL0     H 1623   2.362   9.911   4.024 -1.7093  1.4001  0.4542
  770MOL0     H 1624   1.988  10.144   4.147  1.9154 -0.7839 -0.4161
  770MOL0     H 1625   1.766  10.072   4.108 -1.3509  0.2399  1.0601
  770MOL0     H 1626   3.119  10.594   3.717 -0.9597 -1.1302 -0.2675
  770MOL0     H 1627   3.320  10.549   3.591 -0.8700 -3.1289  0.0115
  770MOL0     H 1628   3.725  10.378   3.408  3.2036  0.9280 -0.5813
  770MOL0     H 1629   3.915  10.399   3.257 -0.2887 -0.4235 -0.4614
  770MOL0     H 1630   4.157  10.545   3.044  2.1581 -0.1021  1.6609
  770MOL0     H 1631   4.077  10.422   3.137  2.3858  0.4624  1.4091
  770MOL0     H 1632   4.077  10.720   3.230  0.9144  0.7293  1.7052
  770MOL0     H 1633   4.068  10.559   3.321  0.9187  1.0273  1.5809
  770MOL0     H 1634   4.302  10.725   3.250 -0.6071  1.2779  0.2042
  770MOL0     H 1635   4.325  10.557   3.206  1.5920  0.5080  0.8404
  770MOL0     H 1636   4.250  10.653   3.483  0.8698  0.1353  0.9204
  770MOL0     H 1637   4.282  10.475   3.429 -1.4021  0.2484  1.6647
  770MOL0     H 1638   4.659  10.579   3.505  1.8040  2.2603 -1.1590
  770MOL0     H 1639   3.716  10.660   3.008 -0.7085  1.2418  0.1319
  770MOL0     H 1640   3.513  10.641   3.138  1.9380  1.0023 -3.0744
  771MOL0     O 1641   7.267   8.683   0.400  1.0298  0.1753  0.0249
  771MOL0     C 1642   7.261   8.608   0.495  0.7341  0.7216 -0.4461
  771MOL0     O 1643   7.167   8.630   0.597  0.4535  0.0777  0.0211
  771MOL0     C 1644   7.067   8.721   0.579  0.0520  0.3911  0.8221
  771MOL0     C 1645   6.974   8.694   0.477 -0.4497 -0.6175  0.0971
  771MOL0     C 1646   6.869   8.779   0.443  0.0851  0.2565  0.3462
  771MOL0     C 1647   6.853   8.893   0.524  0.0197  0.5848  0.3144
  771MOL0     O 1648   6.745   8.979   0.523 -0.2307 -0.5915 -0.0037
  771MOL0     C 1649   6.607   8.933   0.496 -0.5067  0.1968  0.9533
  771MOL0     C 1650   6.514   9.009   0.592 -0.2347  0.1817 -0.5578
  771MOL0     C 1651   6.366   9.004   0.558  0.5951  0.3416 -0.2115
  771MOL0     C 1652   6.311   8.860   0.582 -0.2616 -0.3266 -0.4794
  771MOL0     C 1653   6.152   8.852   0.608 -0.1337  0.1187  0.2213
  771MOL0     C 1654   6.096   8.710   0.607  0.7112  0.3892  0.0040
  771MOL0     C 1655   5.938   8.723   0.634  0.1037  0.1507 -0.1981
  771MOL0     C 1656   5.868   8.714   0.501  0.1504  0.5950 -0.1748
  771MOL0     N 1657   5.729   8.753   0.514 -0.2545 -0.2471  0.2455
  771MOL0     C 1658   5.676   8.861   0.453 -0.2878  0.0948 -0.1209
  771MOL0     C 1659   5.541   8.839   0.454  0.0515  0.5721 -0.3765
  771MOL0     C 1660   5.430   8.919   0.393  0.7055 -0.2618 -1.2536
  771MOL0     C 1661   5.315   8.832   0.332 -0.5741 -0.3545 -0.2480
  771MOL0     C 1662   5.179   8.907   0.311  0.3214 -0.9675  0.4008
  771MOL0     C 1663   5.107   8.941   0.453 -0.8802  0.2064  0.7659
  771MOL0     O 1664   4.975   8.900   0.446  0.0191 -0.9975  0.2061
  771MOL0     C 1665   4.902   8.919   0.568  0.1854  0.5174  0.5362
  771MOL0     C 1666   4.958   8.942   0.695 -1.0246 -0.7606 -0.5284
  771MOL0     C 1667   4.880   8.942   0.813  0.4104  0.8345  0.2934
  771MOL0     C 1668   4.737   8.921   0.803 -0.9021  0.8689 -0.1451
  771MOL0     C 1669   4.632   8.913   0.910 -0.0286 -0.3193 -0.1585
  771MOL0     O 1670   4.660   8.937   1.037  0.0846  0.4603  0.0995
  771MOL0     C 1671   4.555   8.916   1.124  0.6044  0.1954 -0.0278
  771MOL0     C 1672   4.545   8.801   1.193 -0.0031 -0.0005 -0.7088
  771MOL0     C 1673   4.443   8.775   1.287 -0.0656 -0.1086  0.0406
  771MOL0     C 1674   4.352   8.880   1.317 -0.3233  0.3884 -0.4196
  771MOL0     O 1675   4.257   8.878   1.420 -0.0440 -0.2694  0.5000
  771MOL0     C 1676   4.299   8.807   1.539 -0.1920 -0.7569  0.1758
  771MOL0     C 1677   4.222   8.854   1.659 -0.5894  0.1861  0.4496
  771MOL0     C 1678   4.079   8.893   1.636 -0.9170 -0.5847 -0.1161
  771MOL0     C 1679   4.008   8.946   1.755  0.5240 -0.4924 -1.0403
  771MOL0     C 1680   3.887   9.040   1.727  0.9375 -0.1315  0.0617
  771MOL0     C 1681   3.805   9.061   1.860 -0.7522 -0.0692  0.2125
  771MOL0     C 1682   3.676   9.148   1.841 -0.0829 -0.6660 -0.6880
  771MOL0     C 1683   3.627   9.198   1.979  0.0372 -1.2379  0.4940
  771MOL0    Cl 1684   3.484   9.310   1.948  0.2576 -0.3454  0.5779
  771MOL0     C 1685   4.364   8.995   1.239  0.5966 -0.1994 -0.5575
  771MOL0     C 1686   4.456   9.014   1.136  0.6357  0.1909  0.1883
  771MOL0     O 1687   4.512   8.898   0.865  0.0242 -0.2977 -0.3546
  771MOL0     C 1688   4.689   8.889   0.676 -0.5351  0.7324 -0.5881
  771MOL0     C 1689   4.767   8.886   0.564 -0.2646  0.3941 -0.7638
  771MOL0     N 1690   5.510   8.721   0.519  0.0617  0.6354  0.5319
  771MOL0     N 1691   5.623   8.672   0.551 -0.2711 -0.2689 -0.6114
  771MOL0     C 1692   6.941   8.916   0.628  1.1407 -0.0148 -0.8486
  771MOL0     C 1693   7.050   8.834   0.657  0.3841 -0.2645  0.5529
  771MOL0     C 1694   7.341   8.485   0.490  0.6101 -0.7567 -0.3917
  771MOL0     C 1695   7.429   8.454   0.390 -0.1849  0.5324  0.2609
  771MOL0     C 1696   7.512   8.350   0.397 -0.2273  0.8577 -1.0167
  771MOL0     C 1697   7.512   8.264   0.506 -0.7201 -0.1141 -0.6168
  771MOL0     O 1698   7.592   8.157   0.510 -0.1859 -0.4043  0.1708
  771MOL0     C 1699   7.571   8.069   0.413 -0.0944  0.8722  0.2521
  771MOL0     C 1700   7.636   7.932   0.454 -0.4322 -0.4189  0.0964
  771MOL0     C 1701   7.572   7.833   0.359  0.0608 -0.1962 -0.2721
  771MOL0     C 1702   7.565   7.844   0.212  0.7388 -0.7688  0.2634
  771MOL0     C 1703   7.689   7.871   0.152  0.6803 -0.8225  0.6446
  771MOL0     C 1704   7.792   7.903   0.102 -0.2386 -0.8047  0.7659
  771MOL0     C 1705   7.430   8.294   0.607  0.5775  1.1810 -1.0168
  771MOL0     C 1706   7.342   8.407   0.603  0.4216  0.1885 -0.1629
  771MOL0     H 1707   6.984   8.612   0.406 -1.2318 -0.4184 -0.2541
  771MOL0     H 1708   6.803   8.760   0.360  0.7681  1.5893 -0.5383
  771MOL0     H 1709   6.595   8.825   0.506 -1.1064  0.2796  1.1995
  771MOL0     H 1710   6.574   8.961   0.396 -0.0213  2.4663  1.3750
  771MOL0     H 1711   6.546   9.110   0.563  0.3125 -0.2609 -1.5284
  771MOL0     H 1712   6.533   8.973   0.694 -1.2568  1.8412  0.2757
  771MOL0     H 1713   6.355   9.022   0.451 -0.4245 -3.2303 -0.8219
  771MOL0     H 1714   6.320   9.084   0.617  1.7120 -0.3307  1.6768
  771MOL0     H 1715   6.338   8.804   0.492 -1.3374  0.2242 -1.1582
  771MOL0     H 1716   6.365   8.814   0.666 -1.7104 -1.6996 -0.2464
  771MOL0     H 1717   6.104   8.916   0.534  1.0363  1.1895  0.3649
  771MOL0     H 1718   6.132   8.895   0.706 -0.1259  0.3099  0.1381
  771MOL0     H 1719   6.155   8.657   0.683  0.3214 -0.1675 -0.0788
  771MOL0     H 1720   6.113   8.664   0.510  0.8611 -0.0319  0.2264
  771MOL0     H 1721   5.917   8.639   0.700  2.9577 -2.5304 -2.4198
  771MOL0     H 1722   5.912   8.819   0.681 -1.5925  0.5175 -1.7816
  771MOL0     H 1723   5.873   8.611   0.465  0.4004 -0.1676  1.9225
  771MOL0     H 1724   5.927   8.777   0.434  1.1381  1.8473  1.7890
  771MOL0     H 1725   5.725   8.939   0.395 -0.9464 -0.2128 -1.1269
  771MOL0     H 1726   5.465   8.992   0.319 -4.0248  2.7679 -0.9752
  771MOL0     H 1727   5.385   8.967   0.480  0.2640 -1.7827 -0.6060
  771MOL0     H 1728   5.301   8.739   0.389 -0.7688 -0.9404 -1.2245
  771MOL0     H 1729   5.346   8.803   0.232  0.7917  1.2821 -0.3398
  771MOL0     H 1730   5.205   9.004   0.268  1.0531 -1.1817  0.3403
  771MOL0     H 1731   5.110   8.854   0.245 -1.5676  1.2230  0.4927
  771MOL0     H 1732   5.117   9.046   0.482 -2.7419  0.2548  1.3486
  771MOL0     H 1733   5.159   8.870   0.518  0.8177 -0.7176 -1.4918
  771MOL0     H 1734   5.066   8.945   0.704 -1.0377 -0.8481 -0.3257
  771MOL0     H 1735   4.918   8.954   0.914  1.1638  1.4804 -0.0522
  771MOL0     H 1736   4.624   8.729   1.175 -0.1522 -0.3283 -0.0716
  771MOL0     H 1737   4.434   8.683   1.344 -0.3274  0.0801  0.3030
  771MOL0     H 1738   4.406   8.814   1.559 -0.1797  0.4702 -0.2433
  771MOL0     H 1739   4.257   8.707   1.521 -0.1998 -1.2190  2.4608
  771MOL0     H 1740   4.275   8.945   1.690 -1.1911 -0.0668  2.2978
  771MOL0     H 1741   4.227   8.785   1.744 -1.7741 -0.2013  0.2131
  771MOL0     H 1742   4.023   8.808   1.598 -0.4934 -0.4726 -1.0193
  771MOL0     H 1743   4.077   8.980   1.570  1.4217 -0.0157  0.4676
  771MOL0     H 1744   3.968   8.868   1.820 -1.3976  1.0419 -0.3033
  771MOL0     H 1745   4.074   9.004   1.820 -2.0601 -0.5845  1.8983
  771MOL0     H 1746   3.824   8.995   1.650 -0.3691  1.9220 -0.1208
  771MOL0     H 1747   3.917   9.142   1.701  0.9029 -0.2356 -0.4004
  771MOL0     H 1748   3.874   9.099   1.936  1.1540  1.9625 -2.3675
  771MOL0     H 1749   3.761   8.964   1.885 -0.9793  0.2162  0.9503
  771MOL0     H 1750   3.710   9.230   1.777 -0.1159 -2.8818 -3.7810
  771MOL0     H 1751   3.601   9.088   1.790 -0.0683  1.3087 -3.2516
  771MOL0     H 1752   3.702   9.245   2.044 -0.2975  1.0236 -0.6637
  771MOL0     H 1753   3.599   9.113   2.042 -1.3238 -1.7479 -0.7392
  771MOL0     H 1754   4.296   9.079   1.253  1.1738 -0.0539  1.8252
  771MOL0     H 1755   4.452   9.096   1.066  0.6315 -0.4986 -0.6434
  771MOL0     H 1756   4.588   8.861   0.646  0.1808 -0.8286 -1.7032
  771MOL0     H 1757   4.729   8.857   0.466 -0.6086  0.7852 -0.7458
  771MOL0     H 1758   6.933   9.009   0.683 -0.7052  0.8703 -2.5070
  771MOL0     H 1759   7.114   8.850   0.743  0.6431 -0.1862  0.3452
  771MOL0     H 1760   7.425   8.507   0.295 -1.3385 -0.9551 -0.5581
  771MOL0     H 1761   7.579   8.319   0.318  1.2892 -1.1899  0.9448
  771MOL0     H 1762   7.608   8.103   0.316 -1.5647 -1.6853 -1.3259
  771MOL0     H 1763   7.463   8.050   0.404 -0.1450  0.5172  1.4401
  771MOL0     H 1764   7.745   7.939   0.448 -0.3310 -2.2183 -0.8465
  771MOL0     H 1765   7.613   7.905   0.558  1.9600  2.0052  1.3671
  771MOL0     H 1766   7.468   7.815   0.388  0.2723  2.4895  2.7427
  771MOL0     H 1767   7.617   7.734   0.371 -2.1299 -1.2323 -0.0500
  771MOL0     H 1768   7.523   7.754   0.167  0.0237  0.2538 -1.2408
  771MOL0     H 1769   7.497   7.927   0.187  2.2688  0.5746  0.4145
  771MOL0     H 1770   7.884   7.927   0.052 -0.5397 -2.6274 -0.7868
  771MOL0     H 1771   7.411   8.224   0.688  0.8707 -0.0063 -1.9474
  771MOL0     H 1772   7.284   8.421   0.693  2.0603 -1.0331  1.1397
  772MOL0     O 1773   3.290   0.542   4.360  0.0633  0.3129 -0.4418
  772MOL0     C 1774   3.337   0.489   4.261 -0.0902 -0.2360  0.0072
  772MOL0     O 1775   3.276   0.432   4.155 -0.0683 -0.4799 -0.1364
  772MOL0     C 1776   3.138   0.447   4.157 -0.0816  0.1915 -0.3701
  772MOL0     C 1777   3.073   0.558   4.117  0.3839 -0.3667 -0.8859
  772MOL0     C 1778   2.936   0.561   4.117 -0.0369 -0.5418  0.2009
  772MOL0     C 1779   2.861   0.449   4.171 -0.0859 -0.2112  0.2674
  772MOL0     O 1780   2.722   0.446   4.163 -0.3836 -0.1401 -0.1253
  772MOL0     C 1781   2.672   0.330   4.094 -0.0480 -0.1826  0.1288
  772MOL0     C 1782   2.513   0.325   4.105  0.2741 -0.4893 -0.2609
  772MOL0     C 1783   2.472   0.458   4.054  0.8923  0.0095 -0.4417
  772MOL0     C 1784   2.318   0.484   4.022 -0.0159  0.3620  0.0962
  772MOL0     C 1785   2.307   0.627   3.969  0.0071  0.4721  0.7394
  772MOL0     C 1786   2.162   0.672   3.942  0.0012 -0.0627 -0.1215
  772MOL0     C 1787   2.165   0.815   3.882  0.4504  0.6221  0.3740
  772MOL0     C 1788   2.043   0.875   3.813 -0.2889  0.0335 -0.0578
  772MOL0     N 1789   1.920   0.816   3.870  0.3334  0.4380 -0.1558
  772MOL0     C 1790   1.873   0.818   3.996 -0.5585 -0.2869 -0.4863
  772MOL0     C 1791   1.759   0.757   3.990 -0.0825 -0.1754  0.0927
  772MOL0     C 1792   1.663   0.739   4.108  0.4719  0.4091  0.2464
  772MOL0     C 1793   1.528   0.692   4.062 -0.8833  0.2243  0.8275
  772MOL0     C 1794   1.424   0.707   4.176 -0.4467 -0.4896 -0.2980
  772MOL0     C 1795   1.287   0.673   4.127 -0.9535  0.0018  0.5563
  772MOL0     O 1796   1.283   0.529   4.103 -0.0344  0.0474  0.2552
  772MOL0     C 1797   1.155   0.477   4.077 -0.5412 -1.0225  0.3553
  772MOL0     C 1798   1.043   0.548   4.036 -0.3893 -0.3426 -0.0312
  772MOL0     C 1799   0.917   0.489   4.019 -0.1469 -0.1142  0.0859
  772MOL0     C 1800   0.893   0.356   4.059 -0.1859 -0.9151 -0.9916
  772MOL0     C 1801   0.758   0.293   4.053 -0.2440  0.0024 -0.5297
  772MOL0     O 1802   0.756   0.152   4.080 -0.3911  0.5357  0.0806
  772MOL0     C 1803   0.640   0.083   4.073  0.2219 -0.1391 -0.2147
  772MOL0     C 1804   0.605   0.015   3.963  0.6477  1.1269  0.4314
  772MOL0     C 1805   0.484  -0.064   3.962  0.7949 -0.0170  0.0219
  772MOL0     C 1806   0.403  -0.080   4.069  0.2172  0.3151  0.1039
  772MOL0     O 1807   0.282  -0.153   4.080 -0.5421 -0.0314 -0.0772
  772MOL0     C 1808   0.239  -0.250   3.975  0.4716 -0.0841 -0.0637
  772MOL0     C 1809   0.150  -0.363   4.031 -0.0459 -0.8622  0.6099
  772MOL0     C 1810   0.112  -0.464   3.918 -0.0448 -0.5422  0.4399
  772MOL0     C 1811  -0.006  -0.412   3.831 -0.4867  0.3602  0.5082
  772MOL0     C 1812  -0.036  -0.501   3.717 -0.3667  0.3109 -0.4572
  772MOL0     C 1813  -0.184  -0.498   3.689  0.1384  0.3806  0.8991
  772MOL0     C 1814  -0.210  -0.555   3.551  0.0295  0.3508 -0.1290
  772MOL0     C 1815  -0.358  -0.553   3.525 -0.0619 -0.4235 -0.1816
  772MOL0    Cl 1816  -0.435  -0.395   3.550  0.2976 -0.0849 -0.1201
  772MOL0     C 1817   0.435   0.000   4.172  0.6588 -0.0427 -0.5721
  772MOL0     C 1818   0.552   0.075   4.182 -0.9050  0.2188 -0.5453
  772MOL0     O 1819   0.664   0.358   4.012  0.1155 -0.8541 -0.3429
  772MOL0     C 1820   1.004   0.280   4.088 -0.0115 -0.2518  0.4902
  772MOL0     C 1821   1.129   0.345   4.100 -0.1163  0.6596  0.6539
  772MOL0     N 1822   1.729   0.722   3.857 -0.1803 -0.2044  0.0767
  772MOL0     N 1823   1.824   0.768   3.782  0.1093 -0.2435  0.3052
  772MOL0     C 1824   2.933   0.346   4.228  0.0321  0.3332 -0.0627
  772MOL0     C 1825   3.076   0.341   4.228 -0.4259  0.7799  0.0544
  772MOL0     C 1826   3.490   0.507   4.255 -0.1841 -0.0954  0.7587
  772MOL0     C 1827   3.560   0.560   4.362 -0.7726 -0.8188  0.0901
  772MOL0     C 1828   3.701   0.564   4.362  0.4834 -1.1131 -0.2829
  772MOL0     C 1829   3.773   0.526   4.247  0.1423 -0.2706  0.0363
  772MOL0     O 1830   3.911   0.532   4.243 -0.4197 -0.2787  0.6906
  772MOL0     C 1831   3.976   0.409   4.277 -0.0650 -0.3262 -0.5646
  772MOL0     C 1832   4.081   0.386   4.169 -0.2036 -0.1167 -0.1005
  772MOL0     C 1833   4.146   0.254   4.194  0.5198 -0.1683 -0.0541
  772MOL0     C 1834   4.079   0.134   4.107  0.1724  0.6545 -0.8589
  772MOL0     C 1835   4.166   0.014   4.087  0.6598  0.1515  0.9754
  772MOL0     C 1836   4.227  -0.088   4.065 -0.4617 -0.0033 -0.8349
  772MOL0     C 1837   3.707   0.463   4.145  0.4106 -0.1205 -0.3874
  772MOL0     C 1838   3.566   0.458   4.149  0.4061  0.1579  0.7796
  772MOL0     H 1839   3.130   0.642   4.079 -1.0385  1.9020  1.6345
  772MOL0     H 1840   2.890   0.652   4.081  0.6414 -0.0608  0.5323
  772MOL0     H 1841   2.707   0.232   4.126 -0.6114 -0.3558  0.2282
  772MOL0     H 1842   2.697   0.343   3.988 -3.0011 -1.5815 -0.8397
  772MOL0     H 1843   2.472   0.318   4.206 -4.1358 -1.3114 -1.8790
  772MOL0     H 1844   2.474   0.244   4.043  2.8560 -0.8858 -1.5024
  772MOL0     H 1845   2.529   0.493   3.967 -0.2208  1.6590 -0.5468
  772MOL0     H 1846   2.493   0.526   4.137 -1.0533  3.1196 -2.3014
  772MOL0     H 1847   2.287   0.404   3.955 -0.0830 -1.1877  1.9222
  772MOL0     H 1848   2.260   0.467   4.113  0.2596 -2.0621 -0.1311
  772MOL0     H 1849   2.358   0.638   3.872 -1.9161 -2.0885 -0.6922
  772MOL0     H 1850   2.361   0.680   4.048  1.9449  0.6434 -0.6189
  772MOL0     H 1851   2.110   0.666   4.039 -0.5140 -2.0384 -0.4795
  772MOL0     H 1852   2.124   0.605   3.865  0.6372  0.6223 -1.0444
  772MOL0     H 1853   2.199   0.881   3.962 -0.7467 -0.1996  1.6010
  772MOL0     H 1854   2.248   0.813   3.811  1.6069  1.4605  1.6496
  772MOL0     H 1855   2.044   0.854   3.706 -0.5817  1.5149 -0.3773
  772MOL0     H 1856   2.039   0.983   3.829 -0.9174  0.1401 -0.8665
  772MOL0     H 1857   1.915   0.858   4.088 -1.4514  1.0834 -0.6385
  772MOL0     H 1858   1.645   0.839   4.149 -3.5716  0.2596 -0.7474
  772MOL0     H 1859   1.710   0.665   4.173  1.3656  1.5198  0.9055
  772MOL0     H 1860   1.532   0.589   4.025  0.4997  0.6684 -0.3706
  772MOL0     H 1861   1.490   0.760   3.986 -5.7716  2.9831  5.1192
  772MOL0     H 1862   1.449   0.641   4.260 -2.4578  1.8125  2.2769
  772MOL0     H 1863   1.420   0.810   4.212 -1.2665 -0.9869  1.1130
  772MOL0     H 1864   1.260   0.718   4.032  1.3712  0.5837  0.1059
  772MOL0     H 1865   1.210   0.708   4.197 -0.7713 -0.9407  1.2516
  772MOL0     H 1866   1.041   0.655   4.020  2.3138 -0.1201  0.6499
  772MOL0     H 1867   0.832   0.547   3.986 -0.6966 -0.3706  0.9992
  772MOL0     H 1868   0.657   0.032   3.870  0.0941 -1.8543 -0.5187
  772MOL0     H 1869   0.446  -0.105   3.869 -1.9176  1.6788  0.2700
  772MOL0     H 1870   0.321  -0.298   3.921 -0.3857  0.8206 -2.2919
  772MOL0     H 1871   0.179  -0.192   3.904  0.2748  0.8800  0.8566
  772MOL0     H 1872   0.067  -0.315   4.084 -0.6395  0.5974 -1.5517
  772MOL0     H 1873   0.207  -0.429   4.097  0.5841  0.4346  1.4175
  772MOL0     H 1874   0.080  -0.561   3.956 -0.5312  0.7024  3.5090
  772MOL0     H 1875   0.202  -0.489   3.861  0.7370  1.6212  0.6083
  772MOL0     H 1876  -0.094  -0.402   3.895  0.3104 -0.2172  1.7459
  772MOL0     H 1877   0.014  -0.311   3.793 -1.2919  1.5402  2.9839
  772MOL0     H 1878  -0.003  -0.602   3.742 -0.3044  0.8818  1.9811
  772MOL0     H 1879   0.024  -0.468   3.632  1.7405  0.6293  1.1013
  772MOL0     H 1880  -0.213  -0.393   3.696 -1.3775  0.3531 -2.7471
  772MOL0     H 1881  -0.248  -0.545   3.764 -1.2411 -0.2030 -0.5726
  772MOL0     H 1882  -0.171  -0.497   3.467  1.1457  0.3950  0.4101
  772MOL0     H 1883  -0.162  -0.653   3.554  0.2426  0.4751  0.4803
  772MOL0     H 1884  -0.420  -0.621   3.583  0.9167 -1.6475 -0.5171
  772MOL0     H 1885  -0.371  -0.587   3.421  2.1855 -1.8088 -0.0798
  772MOL0     H 1886   0.364   0.001   4.254  0.0531  0.3304 -1.0807
  772MOL0     H 1887   0.590   0.133   4.265  1.6074  1.0454 -2.1708
  772MOL0     H 1888   1.003   0.175   4.115  1.2821  0.1042  2.0857
  772MOL0     H 1889   1.216   0.287   4.130 -1.3177 -1.0571  0.9506
  772MOL0     H 1890   2.880   0.264   4.274  0.8177 -0.3473 -0.3436
  772MOL0     H 1891   3.138   0.255   4.251 -0.3398  0.2356 -1.9864
  772MOL0     H 1892   3.508   0.599   4.449  0.3722  0.4428  0.2387
  772MOL0     H 1893   3.754   0.604   4.447 -1.8291  1.5642  0.0299
  772MOL0     H 1894   3.900   0.331   4.280  0.2326 -0.5903  1.5469
  772MOL0     H 1895   4.016   0.399   4.379 -0.8552 -1.6386 -0.3542
  772MOL0     H 1896   4.042   0.388   4.067  0.5958 -0.3605 -0.4131
  772MOL0     H 1897   4.156   0.465   4.177 -1.6739  1.3064  0.2452
  772MOL0     H 1898   4.153   0.221   4.298  0.0176 -0.4600 -0.1074
  772MOL0     H 1899   4.248   0.266   4.157  0.9517 -0.8975  0.8708
  772MOL0     H 1900   3.992   0.102   4.165  1.3495  1.2892  1.4096
  772MOL0     H 1901   4.056   0.164   4.005  0.1607 -2.3853 -1.8206
  772MOL0     H 1902   4.286  -0.173   4.039  0.7821  0.6767 -0.3523
  772MOL0     H 1903   3.754   0.430   4.053 -2.4542 -0.6718 -1.7357
  772MOL0     H 1904   3.522   0.409   4.063  0.8758 -0.2432  0.7631
  773MOL0     O 1905   9.215   9.432   1.189  0.1271 -0.6501  0.0741
  773MOL0     C 1906   9.230   9.461   1.073  0.2390  0.6055 -0.2869
  773MOL0     O 1907   9.143   9.435   0.964 -0.1594  0.6164 -0.6330
  773MOL0     C 1908   9.023   9.374   0.987  0.1066 -0.1858 -0.1496
  773MOL0     C 1909   8.919   9.396   0.898 -0.3040 -0.0573 -0.1748
  773MOL0     C 1910   8.800   9.315   0.896  0.4627 -0.5178 -0.4338
  773MOL0     C 1911   8.787   9.207   0.986  1.4677  0.1791  0.0397
  773MOL0     O 1912   8.671   9.137   0.973  0.0267 -0.9754  0.2875
  773MOL0     C 1913   8.609   9.071   1.084  1.0658 -0.6488  0.0116
  773MOL0     C 1914   8.474   9.012   1.044  0.6400  1.2261  0.1001
  773MOL0     C 1915   8.401   8.977   1.177  0.0116  1.1850  0.5505
  773MOL0     C 1916   8.261   8.914   1.149 -0.6696 -0.6425  0.0427
  773MOL0     C 1917   8.215   8.824   1.272 -0.0995  0.6485 -0.1843
  773MOL0     C 1918   8.175   8.908   1.396 -0.0268 -1.4045  1.0215
  773MOL0     C 1919   8.135   8.818   1.513 -0.5061  0.1138  0.8284
  773MOL0     C 1920   8.251   8.733   1.579  0.7742 -0.3960 -0.3643
  773MOL0     N 1921   8.365   8.806   1.632 -0.9258 -0.1346  0.0994
  773MOL0     C 1922   8.489   8.826   1.568  0.1679 -0.1818 -0.9819
  773MOL0     C 1923   8.549   8.922   1.647  0.2131 -0.2502 -0.3479
  773MOL0     C 1924   8.682   8.993   1.629 -0.0113 -0.1999 -0.8569
  773MOL0     C 1925   8.733   8.971   1.479  0.1725 -0.2163  0.1069
  773MOL0     C 1926   8.845   9.071   1.440  0.0161  0.2853  0.5371
  773MOL0     C 1927   8.953   9.092   1.548  0.1760 -0.5968  0.8115
  773MOL0     O 1928   9.074   9.141   1.485  0.4773  0.0506 -0.0055
  773MOL0     C 1929   9.180   9.073   1.430  0.5591  0.0939 -0.4410
  773MOL0     C 1930   9.285   9.145   1.375 -0.8025 -0.6794  0.0102
  773MOL0     C 1931   9.385   9.078   1.295  0.4274 -0.1001  0.0964
  773MOL0     C 1932   9.384   8.937   1.290 -0.2045 -0.4446  0.0000
  773MOL0     C 1933   9.496   8.862   1.224 -0.6080 -0.2467  0.0571
  773MOL0     O 1934   9.608   8.926   1.176 -0.5329 -0.6954  0.4485
  773MOL0     C 1935   9.698   8.863   1.097 -0.4441 -0.1939  0.9218
  773MOL0     C 1936   9.831   8.891   1.110 -1.1866 -1.2182  0.4430
  773MOL0     C 1937   9.936   8.834   1.029  0.1074 -0.2709 -0.2690
  773MOL0     C 1938   9.896   8.748   0.929  0.4982 -1.1373 -0.6901
  773MOL0     O 1939   9.978   8.680   0.841  0.1600  0.4735 -0.0081
  773MOL0     C 1940  10.123   8.716   0.832 -0.2539  0.8994 -0.3145
  773MOL0     C 1941  10.183   8.628   0.717 -0.8829  0.5203  0.5017
  773MOL0     C 1942  10.328   8.656   0.672  0.5986  1.2124 -0.8173
  773MOL0     C 1943  10.380   8.559   0.573 -0.2835 -0.3112  1.2022
  773MOL0     C 1944  10.533   8.581   0.541  0.3715  0.1916  0.3836
  773MOL0     C 1945  10.631   8.557   0.651 -0.4145  0.1996  0.3854
  773MOL0     C 1946  10.775   8.586   0.628 -1.0215 -0.1394  0.4542
  773MOL0     C 1947  10.860   8.484   0.552  0.4352  0.3878  0.5102
  773MOL0    Cl 1948  10.801   8.462   0.387  0.3462 -0.0004  0.3854
  773MOL0     C 1949   9.761   8.717   0.916  0.3998 -0.0422  0.3540
  773MOL0     C 1950   9.661   8.771   0.998  0.8898 -0.2747  0.3836
  773MOL0     O 1951   9.472   8.740   1.212  0.0001 -0.0463  0.2808
  773MOL0     C 1952   9.272   8.874   1.341  0.5634  0.3879 -0.4450
  773MOL0     C 1953   9.173   8.934   1.411  0.1483  0.2637 -0.2282
  773MOL0     N 1954   8.469   8.952   1.755 -0.1676  0.5870 -0.1210
  773MOL0     N 1955   8.359   8.880   1.744 -0.6854  0.2448 -0.6645
  773MOL0     C 1956   8.893   9.169   1.068  0.0010  0.2912 -0.0274
  773MOL0     C 1957   9.010   9.251   1.068  0.2114 -0.2502 -0.1892
  773MOL0     C 1958   9.364   9.512   1.023 -0.1507  0.2325 -0.0382
  773MOL0     C 1959   9.471   9.507   1.113  0.1146  0.8565 -0.6770
  773MOL0     C 1960   9.595   9.545   1.059  0.3296  1.1026 -0.9142
  773MOL0     C 1961   9.615   9.588   0.931 -0.3804 -0.5340 -1.0490
  773MOL0     O 1962   9.746   9.636   0.909  0.6619 -0.6746  0.0053
  773MOL0     C 1963   9.783   9.657   0.770  0.2374  0.7730 -0.3739
  773MOL0     C 1964   9.923   9.721   0.774  0.3026 -0.3210 -0.4110
  773MOL0     C 1965  10.044   9.626   0.833  0.6914 -0.0815 -1.0072
  773MOL0     C 1966  10.171   9.648   0.750  0.2268 -0.3474  0.0665
  773MOL0     C 1967  10.240   9.773   0.776  0.1334  0.5221  0.2582
  773MOL0     C 1968  10.307   9.866   0.806 -0.7861  0.3200  0.0051
  773MOL0     C 1969   9.507   9.577   0.841 -0.2581  0.4010 -0.1638
  773MOL0     C 1970   9.380   9.537   0.888 -0.8428 -1.6158 -0.1424
  773MOL0     H 1971   8.937   9.478   0.828  1.4419 -0.9779 -0.8697
  773MOL0     H 1972   8.731   9.337   0.815 -1.0061  0.3122  0.9742
  773MOL0     H 1973   8.596   9.145   1.163  0.5041  0.6270 -1.2117
  773MOL0     H 1974   8.678   8.989   1.106  0.5247 -0.7611  1.3523
  773MOL0     H 1975   8.493   8.920   0.987 -1.2870  0.9083 -0.0965
  773MOL0     H 1976   8.415   9.089   0.993 -2.6248 -1.5166 -0.6549
  773MOL0     H 1977   8.387   9.064   1.242  1.4737  0.9077  1.2710
  773MOL0     H 1978   8.448   8.902   1.241 -2.5227 -2.3657 -1.4357
  773MOL0     H 1979   8.182   8.986   1.124  0.9895  0.1558 -3.5904
  773MOL0     H 1980   8.268   8.862   1.053  1.2991  2.3246 -1.5935
  773MOL0     H 1981   8.290   8.748   1.296 -0.1509  0.8599  0.6718
  773MOL0     H 1982   8.122   8.782   1.233  0.0985  0.1388 -0.1105
  773MOL0     H 1983   8.090   8.975   1.380  0.0646 -1.2007  1.3807
  773MOL0     H 1984   8.250   8.979   1.434 -0.6545 -0.7103  0.9796
  773MOL0     H 1985   8.102   8.879   1.597  1.5760  1.0893  0.9961
  773MOL0     H 1986   8.050   8.759   1.477 -1.0599  0.0683  2.1551
  773MOL0     H 1987   8.298   8.660   1.513  0.7844 -0.8463  0.1423
  773MOL0     H 1988   8.204   8.684   1.664 -1.0133  0.5581 -0.7612
  773MOL0     H 1989   8.518   8.778   1.475 -0.7988  0.5249 -1.6745
  773MOL0     H 1990   8.751   8.955   1.705 -1.8158  3.7007  3.1755
  773MOL0     H 1991   8.671   9.099   1.656 -0.7833 -0.9958  2.3847
  773MOL0     H 1992   8.645   8.987   1.415  0.4375  0.4377 -0.1088
  773MOL0     H 1993   8.757   8.866   1.461 -1.6909 -1.3267  3.3534
  773MOL0     H 1994   8.892   9.038   1.347 -1.1395 -0.4264  0.1786
  773MOL0     H 1995   8.800   9.168   1.416 -1.2347  0.3254  2.7708
  773MOL0     H 1996   8.975   8.994   1.591  0.4016 -2.0496 -2.3124
  773MOL0     H 1997   8.923   9.160   1.628 -1.5691  0.4850 -0.6717
  773MOL0     H 1998   9.280   9.253   1.385 -3.3428 -0.5570 -1.5804
  773MOL0     H 1999   9.474   9.124   1.251  0.1110  1.8465  1.3330
  773MOL0     H 2000   9.856   8.963   1.187  1.1629  0.5120 -1.7615
  773MOL0     H 2001  10.040   8.853   1.052  0.2469  1.2773 -1.9529
  773MOL0     H 2002  10.169   8.699   0.930 -1.8781  1.9190  0.6822
  773MOL0     H 2003  10.138   8.825   0.825 -1.4971  1.6114  4.4630
  773MOL0     H 2004  10.116   8.638   0.631 -1.9559  1.9639  1.4484
  773MOL0     H 2005  10.163   8.525   0.747  0.2524  0.9845  3.2034
  773MOL0     H 2006  10.393   8.648   0.760 -0.2872 -0.0923 -0.2577
  773MOL0     H 2007  10.322   8.756   0.627 -0.1571  1.5205 -0.0763
  773MOL0     H 2008  10.373   8.455   0.608  0.2526 -0.0398  2.1640
  773MOL0     H 2009  10.313   8.555   0.487  0.2942 -0.8119  0.7742
  773MOL0     H 2010  10.548   8.687   0.520  1.3534 -0.0195 -0.0628
  773MOL0     H 2011  10.568   8.518   0.459  1.0018  1.6810 -0.5264
  773MOL0     H 2012  10.623   8.450   0.674  2.0601 -0.2198 -0.4418
  773MOL0     H 2013  10.599   8.626   0.730 -2.5665  1.5643 -1.5522
  773MOL0     H 2014  10.798   8.687   0.593 -3.2038  0.5992  1.0062
  773MOL0     H 2015  10.809   8.579   0.731  2.9939 -2.2546 -0.8186
  773MOL0     H 2016  10.866   8.386   0.601  2.2649  0.0300 -0.3594
  773MOL0     H 2017  10.960   8.526   0.543 -0.9436  3.9365  0.4040
  773MOL0     H 2018   9.732   8.651   0.835 -1.8097  0.7350  0.4621
  773MOL0     H 2019   9.556   8.744   0.988  1.2234 -1.4786 -0.0536
  773MOL0     H 2020   9.256   8.769   1.319 -0.8930  0.7583 -1.3480
  773MOL0     H 2021   9.079   8.883   1.426 -0.2929  1.1609  0.1440
  773MOL0     H 2022   8.876   9.085   1.136 -1.7829  1.6896  1.3490
  773MOL0     H 2023   9.096   9.239   1.133  1.2069  1.0207 -1.1860
  773MOL0     H 2024   9.456   9.475   1.215  4.4540  2.5420  0.7272
  773MOL0     H 2025   9.682   9.545   1.124  0.4368  1.6846 -1.0543
  773MOL0     H 2026   9.717   9.723   0.714  1.0239  0.6187 -1.5152
  773MOL0     H 2027   9.796   9.562   0.717  1.5591  0.7692 -0.0767
  773MOL0     H 2028   9.955   9.739   0.671 -0.0607 -0.7907 -0.6071
  773MOL0     H 2029   9.915   9.818   0.825 -0.1177 -1.0410  0.9295
  773MOL0     H 2030  10.016   9.520   0.835  1.3975 -0.3124  1.9642
  773MOL0     H 2031  10.067   9.652   0.937  0.0023 -0.7840 -0.6730
  773MOL0     H 2032  10.238   9.563   0.772  0.4808 -1.0896 -3.0460
  773MOL0     H 2033  10.136   9.649   0.647  0.9168  2.8060 -0.2123
  773MOL0     H 2034  10.360   9.956   0.830 -1.3770  0.5883  0.3102
  773MOL0     H 2035   9.503   9.615   0.740  0.5341 -2.6012 -1.4462
  773MOL0     H 2036   9.296   9.552   0.820 -2.1111 -2.4429  1.1989
  774MOL0     O 2037   1.428   0.075   4.812 -0.6748  0.1557  0.3530
  774MOL0     C 2038   1.528   0.023   4.770  0.4731 -0.5975  0.3406
  774MOL0     O 2039   1.527  -0.084   4.686 -0.2371 -0.0253  0.7886
  774MOL0     C 2040   1.409  -0.102   4.607 -0.8702  0.7569 -1.0282
  774MOL0     C 2041   1.319  -0.197   4.648  0.1906  0.1727 -0.4501
  774MOL0     C 2042   1.193  -0.213   4.588  0.1434 -0.4449  0.3767
  774MOL0     C 2043   1.168  -0.149   4.469  0.8599 -0.2081  0.2388
  774MOL0     O 2044   1.040  -0.164   4.422  0.4028  0.2071  0.4430
  774MOL0     C 2045   1.023  -0.162   4.277 -0.4112  0.4953  0.6092
  774MOL0     C 2046   0.906  -0.247   4.217 -0.6580  0.9527  0.8562
  774MOL0     C 2047   0.779  -0.248   4.301 -0.2731 -0.2750  0.8957
  774MOL0     C 2048   0.655  -0.323   4.243  0.5092  0.4792  0.4269
  774MOL0     C 2049   0.537  -0.334   4.340 -0.2700  0.1164  0.1322
  774MOL0     C 2050   0.481  -0.478   4.312  0.1491 -0.3004  0.6609
  774MOL0     C 2051   0.347  -0.517   4.388  0.3338 -0.1053 -0.0599
  774MOL0     C 2052   0.388  -0.560   4.526  0.1382 -0.0683 -0.1041
  774MOL0     N 2053   0.277  -0.602   4.612  0.6008  0.1373 -0.1834
  774MOL0     C 2054   0.137  -0.586   4.591 -0.1051 -0.0049 -0.2735
  774MOL0     C 2055   0.071  -0.678   4.669 -0.2037 -0.2494  0.0122
  774MOL0     C 2056  -0.071  -0.711   4.682  0.1940 -0.1181 -0.9858
  774MOL0     C 2057  -0.132  -0.682   4.822  0.7897  0.0602  0.7467
  774MOL0     C 2058  -0.109  -0.783   4.929  0.7352 -0.1953  0.2704
  774MOL0     C 2059  -0.213  -0.780   5.040 -0.3768  0.6558  0.9587
  774MOL0     O 2060  -0.337  -0.807   4.985 -0.1648 -0.5067  0.7650
  774MOL0     C 2061  -0.446  -0.730   5.025 -0.3943  0.2981  0.3875
  774MOL0     C 2062  -0.575  -0.790   5.004  0.6513 -0.1971 -0.6109
  774MOL0     C 2063  -0.689  -0.715   5.008 -0.2046  0.3910  0.3160
  774MOL0     C 2064  -0.692  -0.581   5.041 -0.1420 -0.6159  0.3632
  774MOL0     C 2065  -0.817  -0.510   5.056  0.2277 -1.2240  0.3944
  774MOL0     O 2066  -0.817  -0.396   5.133  0.1288 -0.2471 -0.5331
  774MOL0     C 2067  -0.929  -0.323   5.150 -0.2492 -0.2997 -0.0486
  774MOL0     C 2068  -0.905  -0.235   5.252 -0.1733 -0.1728 -0.1780
  774MOL0     C 2069  -0.998  -0.136   5.277  0.8813 -0.0477 -0.5365
  774MOL0     C 2070  -1.110  -0.111   5.200  0.6105 -0.2997  0.4817
  774MOL0     O 2071  -1.192   0.004   5.220  0.4499  0.9352  0.3194
  774MOL0     C 2072  -1.337  -0.021   5.216 -0.0005 -0.3872  0.0364
  774MOL0     C 2073  -1.390  -0.127   5.314 -0.5537 -0.0827  0.5723
  774MOL0     C 2074  -1.547  -0.125   5.311 -0.2417  0.4263 -0.6025
  774MOL0     C 2075  -1.612  -0.164   5.179 -0.4266  0.6147 -0.2282
  774MOL0     C 2076  -1.757  -0.208   5.207 -0.0465 -0.0116 -0.0224
  774MOL0     C 2077  -1.853  -0.091   5.182  0.3656  0.6142  0.4813
  774MOL0     C 2078  -1.998  -0.151   5.179  0.2925 -0.1374 -0.5588
  774MOL0     C 2079  -2.110  -0.037   5.151 -0.1785  0.8636 -0.2009
  774MOL0    Cl 2080  -2.265  -0.099   5.201 -0.0477 -0.1911  0.2795
  774MOL0     C 2081  -1.127  -0.205   5.095  0.4967  0.1938 -0.7791
  774MOL0     C 2082  -1.038  -0.305   5.066 -1.0211  0.2996  0.2332
  774MOL0     O 2083  -0.915  -0.572   5.016  0.0247 -0.2406  0.1669
  774MOL0     C 2084  -0.566  -0.521   5.072  0.3866 -0.9864 -0.6255
  774MOL0     C 2085  -0.448  -0.596   5.071 -1.0699  0.0998 -0.2877
  774MOL0     N 2086   0.170  -0.741   4.751  0.5977 -1.1296  0.4388
  774MOL0     N 2087   0.287  -0.695   4.714 -0.0030  0.4800 -0.2827
  774MOL0     C 2088   1.262  -0.059   4.417  0.1796 -0.7187  0.2528
  774MOL0     C 2089   1.385  -0.032   4.487 -0.0670  0.5645 -0.0984
  774MOL0     C 2090   1.661   0.080   4.793  0.2379 -0.1778 -0.8434
  774MOL0     C 2091   1.776   0.025   4.746 -0.2317  0.3161 -1.0586
  774MOL0     C 2092   1.894   0.087   4.786  0.2198 -0.2694  0.8774
  774MOL0     C 2093   1.902   0.205   4.863 -0.4840 -0.2350  1.4680
  774MOL0     O 2094   2.017   0.282   4.881 -0.7883  0.1795  0.7254
  774MOL0     C 2095   2.143   0.218   4.882  0.1884  0.6007  0.0997
  774MOL0     C 2096   2.223   0.244   5.006  0.2214 -0.8603  0.2136
  774MOL0     C 2097   2.275   0.388   5.020  0.2890 -0.9176  0.0198
  774MOL0     C 2098   2.396   0.422   4.926 -0.2744 -0.6208  0.2663
  774MOL0     C 2099   2.522   0.369   4.979  0.5948  0.8543 -0.7195
  774MOL0     C 2100   2.625   0.318   5.018  0.1296 -0.7462  0.2426
  774MOL0     C 2101   1.792   0.252   4.922 -0.1919  0.6026 -0.3106
  774MOL0     C 2102   1.673   0.190   4.885  0.8986  0.6319 -0.2080
  774MOL0     H 2103   1.339  -0.255   4.737 -1.8049 -1.3788 -0.9420
  774MOL0     H 2104   1.114  -0.279   4.623  1.4519 -1.8436  0.7791
  774MOL0     H 2105   1.111  -0.198   4.223  0.4609  2.2823  0.7404
  774MOL0     H 2106   1.016  -0.058   4.242  2.2495  0.3259 -0.7104
  774MOL0     H 2107   0.939  -0.347   4.189  1.4447  2.0167 -0.7326
  774MOL0     H 2108   0.884  -0.197   4.123  0.5826 -1.8674 -1.0675
  774MOL0     H 2109   0.738  -0.147   4.316  0.4796  0.6394 -2.3809
  774MOL0     H 2110   0.803  -0.292   4.398  4.0087  0.3744  0.3258
  774MOL0     H 2111   0.631  -0.281   4.144 -0.8852  0.4780  0.7466
  774MOL0     H 2112   0.692  -0.423   4.221  0.3676  0.5506 -0.1696
  774MOL0     H 2113   0.460  -0.258   4.326  0.5221  0.9564  0.3087
  774MOL0     H 2114   0.567  -0.309   4.442 -2.3471  0.5514  0.6849
  774MOL0     H 2115   0.556  -0.556   4.326  3.3802  2.5063  0.2034
  774MOL0     H 2116   0.460  -0.476   4.204  0.3156 -2.1760  0.5585
  774MOL0     H 2117   0.282  -0.429   4.386 -0.8785 -0.9684 -0.0373
  774MOL0     H 2118   0.295  -0.590   4.326 -1.1350  1.7483 -1.1342
  774MOL0     H 2119   0.431  -0.474   4.579  2.9300 -1.6124  0.3361
  774MOL0     H 2120   0.469  -0.634   4.528  2.0485  1.8933 -0.5292
  774MOL0     H 2121   0.080  -0.520   4.526 -1.7501 -2.3599 -1.3706
  774MOL0     H 2122  -0.090  -0.816   4.657 -3.2202  0.2030 -0.2065
  774MOL0     H 2123  -0.130  -0.654   4.609 -1.4827  1.0852  1.1853
  774MOL0     H 2124  -0.239  -0.681   4.800  1.0326  0.4040 -0.5006
  774MOL0     H 2125  -0.092  -0.591   4.866 -2.1859  1.4335  0.8491
  774MOL0     H 2126  -0.113  -0.883   4.884  0.2504 -0.1495  0.2061
  774MOL0     H 2127  -0.006  -0.763   4.962  1.2304  0.7914 -1.7548
  774MOL0     H 2128  -0.208  -0.682   5.088  0.4919  0.5910  1.0163
  774MOL0     H 2129  -0.191  -0.857   5.115  1.5008  3.4894  3.6086
  774MOL0     H 2130  -0.581  -0.894   4.975 -2.2987 -0.6229  1.1063
  774MOL0     H 2131  -0.777  -0.774   4.985  0.0244 -0.7884  2.2178
  774MOL0     H 2132  -0.816  -0.242   5.314  1.6140 -4.8908 -2.7596
  774MOL0     H 2133  -0.974  -0.074   5.363 -0.1224 -0.3154 -0.0499
  774MOL0     H 2134  -1.380  -0.033   5.116 -1.1503  1.4553  0.2615
  774MOL0     H 2135  -1.384   0.074   5.243 -0.2832 -1.1624  2.5374
  774MOL0     H 2136  -1.347  -0.105   5.412  0.4282 -0.8861  0.3413
  774MOL0     H 2137  -1.358  -0.229   5.291 -0.0483  0.4581 -1.3615
  774MOL0     H 2138  -1.582  -0.027   5.343  1.8115  0.8541  0.5221
  774MOL0     H 2139  -1.577  -0.204   5.381 -1.6617  1.2469 -0.2734
  774MOL0     H 2140  -1.616  -0.084   5.105  0.3987 -0.6153 -1.6560
  774MOL0     H 2141  -1.557  -0.247   5.135  0.9181  1.8718 -0.9723
  774MOL0     H 2142  -1.771  -0.245   5.309 -1.3116 -0.2140 -0.2571
  774MOL0     H 2143  -1.785  -0.299   5.154 -1.0325 -1.5467  2.9028
  774MOL0     H 2144  -1.833  -0.044   5.085  0.6196  1.0021  0.7204
  774MOL0     H 2145  -1.851  -0.013   5.258 -2.8710  3.3861 -1.9656
  774MOL0     H 2146  -2.006  -0.237   5.112 -0.3560 -1.8373  1.5830
  774MOL0     H 2147  -2.022  -0.182   5.281  3.3475  1.8257  0.8739
  774MOL0     H 2148  -2.105  -0.024   5.042 -0.0585 -1.9534 -0.6177
  774MOL0     H 2149  -2.089   0.049   5.214  1.6293  0.0428  0.3894
  774MOL0     H 2150  -1.215  -0.192   5.033 -1.3077 -0.8939  1.3799
  774MOL0     H 2151  -1.060  -0.372   4.984  0.9253 -1.7209  1.2817
  774MOL0     H 2152  -0.554  -0.417   5.103 -0.5807 -0.4872 -1.8359
  774MOL0     H 2153  -0.359  -0.539   5.097 -2.3991  1.8398  0.6352
  774MOL0     H 2154   1.226  -0.000   4.333 -3.5518 -0.7761  1.6351
  774MOL0     H 2155   1.471   0.026   4.457  0.8716 -1.3821 -1.3070
  774MOL0     H 2156   1.769  -0.071   4.695 -0.9796  0.3249 -0.9810
  774MOL0     H 2157   1.980   0.033   4.749 -0.8639 -0.4616 -1.5416
  774MOL0     H 2158   2.196   0.239   4.789  0.2578 -0.3754 -0.0976
  774MOL0     H 2159   2.132   0.109   4.881 -2.1893  0.7916 -0.1802
  774MOL0     H 2160   2.159   0.220   5.092 -0.3173 -1.5495 -0.3693
  774MOL0     H 2161   2.309   0.176   5.007  0.5833 -1.0306 -5.9737
  774MOL0     H 2162   2.309   0.407   5.122  1.4263 -0.3638 -0.4335
  774MOL0     H 2163   2.196   0.462   5.006  1.5712  0.5229  0.1521
  774MOL0     H 2164   2.380   0.378   4.827  3.0782  1.9604 -1.6466
  774MOL0     H 2165   2.417   0.528   4.910  3.4791 -1.3670 -0.7722
  774MOL0     H 2166   2.721   0.280   5.045  1.5444  3.5732  2.2996
  774MOL0     H 2167   1.806   0.339   4.985  2.1732  0.4644 -0.5621
  774MOL0     H 2168   1.581   0.230   4.926  0.9941  0.3534  0.2875
  775MOL0     O 2169   3.238   2.288   7.928 -0.1137 -1.0678  0.3922
  775MOL0     C 2170   3.254   2.348   7.819  0.1166 -0.2879  0.1023
  775MOL0     O 2171   3.149   2.398   7.743 -1.0291  0.2902 -0.8116
  775MOL0     C 2172   3.027   2.413   7.801 -0.3627  0.5319  0.1321
  775MOL0     C 2173   3.014   2.490   7.917  0.1539 -0.5140 -0.3771
  775MOL0     C 2174   2.890   2.516   7.977 -0.4534 -0.0585 -0.5331
  775MOL0     C 2175   2.781   2.455   7.908 -0.5346 -0.7783 -0.8973
  775MOL0     O 2176   2.652   2.491   7.936 -1.0398 -0.3229 -0.5158
  775MOL0     C 2177   2.598   2.425   8.049  0.8300 -0.1792  0.3640
  775MOL0     C 2178   2.468   2.491   8.088  0.7084 -0.0651 -0.2340
  775MOL0     C 2179   2.350   2.447   8.001  0.6513 -0.1239  0.0249
  775MOL0     C 2180   2.248   2.556   8.020  0.1325  0.0024  0.4470
  775MOL0     C 2181   2.182   2.562   8.156 -0.4653 -0.0570 -0.8539
  775MOL0     C 2182   2.042   2.620   8.152 -0.1577 -0.2850 -0.4059
  775MOL0     C 2183   1.985   2.631   8.297  0.3781  0.5626  0.9259
  775MOL0     C 2184   1.839   2.695   8.290 -0.0133  0.2938  0.1238
  775MOL0     N 2185   1.734   2.611   8.234 -0.0184  0.2831 -0.4366
  775MOL0     C 2186   1.692   2.491   8.289 -0.0432  0.2309 -0.4778
  775MOL0     C 2187   1.632   2.425   8.190 -0.1020  0.3333 -0.8909
  775MOL0     C 2188   1.584   2.281   8.198  0.0900 -0.6470 -0.4073
  775MOL0     C 2189   1.456   2.268   8.284 -0.5943  0.7217 -0.5204
  775MOL0     C 2190   1.329   2.310   8.214 -0.3605 -0.3353 -0.3352
  775MOL0     C 2191   1.206   2.254   8.289  0.2493 -0.9274  0.6297
  775MOL0     O 2192   1.111   2.200   8.191 -0.3976  0.1934 -0.8875
  775MOL0     C 2193   0.991   2.152   8.233 -0.0718 -0.1143 -0.4893
  775MOL0     C 2194   0.909   2.072   8.141 -0.3560 -0.4887 -0.0994
  775MOL0     C 2195   0.787   2.020   8.183 -0.9010  0.6179  0.0431
  775MOL0     C 2196   0.742   2.035   8.314 -0.0066 -0.5695 -0.2703
  775MOL0     C 2197   0.622   1.971   8.369  0.4654  0.1256 -0.6623
  775MOL0     O 2198   0.566   1.880   8.280 -0.2367 -1.0361  0.1045
  775MOL0     C 2199   0.436   1.834   8.305 -0.0764 -0.3641 -0.7184
  775MOL0     C 2200   0.395   1.702   8.344 -0.3292 -0.0140  0.4213
  775MOL0     C 2201   0.260   1.684   8.364  0.7500  0.6289  0.2669
  775MOL0     C 2202   0.158   1.770   8.332  0.5298  0.4061  0.2716
  775MOL0     O 2203   0.032   1.726   8.357  0.6937  0.0764  0.0844
  775MOL0     C 2204  -0.001   1.647   8.474 -0.1369 -1.1339 -0.0514
  775MOL0     C 2205  -0.147   1.655   8.489  0.3121 -0.7618  0.7081
  775MOL0     C 2206  -0.199   1.810   8.464 -0.1339  1.0300  0.0592
  775MOL0     C 2207  -0.337   1.809   8.545 -1.0933  0.2624 -0.0712
  775MOL0     C 2208  -0.421   1.932   8.527 -0.0218  0.4208  0.7837
  775MOL0     C 2209  -0.356   2.070   8.562  0.5508  1.1539  0.6166
  775MOL0     C 2210  -0.463   2.180   8.551 -0.1651  0.8136  0.4096
  775MOL0     C 2211  -0.413   2.321   8.562 -0.3408 -1.0892 -1.1584
  775MOL0    Cl 2212  -0.557   2.428   8.565 -0.1952  0.2017  0.2853
  775MOL0     C 2213   0.195   1.890   8.279 -0.3867  0.4088  0.2654
  775MOL0     C 2214   0.330   1.925   8.272  0.0506 -0.0022  0.1101
  775MOL0     O 2215   0.567   2.015   8.471  0.0130  0.8012  0.0377
  775MOL0     C 2216   0.815   2.119   8.398 -0.6089  0.4727  1.6643
  775MOL0     C 2217   0.945   2.172   8.359  0.4814 -0.5895 -0.3117
  775MOL0     N 2218   1.619   2.505   8.077 -0.2299 -0.5986 -0.2662
  775MOL0     N 2219   1.693   2.611   8.103  0.3222 -0.1958  0.7186
  775MOL0     C 2220   2.790   2.373   7.804  0.6147  0.7325  1.1778
  775MOL0     C 2221   2.910   2.357   7.738 -0.5389  0.5816 -0.6455
  775MOL0     C 2222   3.377   2.320   7.743 -0.6042  0.2720  0.3762
  775MOL0     C 2223   3.496   2.310   7.811 -0.1829 -0.3200 -0.5989
  775MOL0     C 2224   3.619   2.318   7.754  0.0675  0.1308  0.2101
  775MOL0     C 2225   3.631   2.325   7.614  0.3397 -0.7026 -0.1471
  775MOL0     O 2226   3.757   2.340   7.558 -0.0799 -0.6388  0.7981
  775MOL0     C 2227   3.769   2.366   7.414  0.1432 -0.0123  0.0709
  775MOL0     C 2228   3.921   2.366   7.383  0.1016 -0.3698 -0.1927
  775MOL0     C 2229   3.982   2.232   7.416  0.8929 -0.7071  0.9020
  775MOL0     C 2230   4.119   2.218   7.348  0.0631 -0.2970  0.1092
  775MOL0     C 2231   4.155   2.074   7.336  0.1545 -0.1665 -0.5478
  775MOL0     C 2232   4.184   1.952   7.320 -0.3563 -0.8065  0.2403
  775MOL0     C 2233   3.506   2.324   7.532  0.1400  0.8603 -0.5004
  775MOL0     C 2234   3.380   2.328   7.604  0.7561 -0.3023 -0.0055
  775MOL0     H 2235   3.101   2.538   7.960  0.4294  0.5953 -2.0871
  775MOL0     H 2236   2.869   2.579   8.063  0.1019 -1.8039  0.9376
  775MOL0     H 2237   2.674   2.432   8.127  0.5694  2.3757  0.4604
  775MOL0     H 2238   2.579   2.320   8.022  1.6161 -0.5421  1.1780
  775MOL0     H 2239   2.477   2.600   8.079 -0.6242  0.5781  3.9936
  775MOL0     H 2240   2.441   2.483   8.194 -1.7343  6.5992  0.1376
  775MOL0     H 2241   2.316   2.345   8.023 -1.8276  0.0157 -2.5670
  775MOL0     H 2242   2.374   2.451   7.894 -0.7052  2.0590 -0.2492
  775MOL0     H 2243   2.274   2.656   7.985 -3.5147  1.2532  0.8208
  775MOL0     H 2244   2.163   2.526   7.958  0.0365  0.4131  0.3799
  775MOL0     H 2245   2.246   2.619   8.224  1.2609  0.3104 -2.6979
  775MOL0     H 2246   2.170   2.460   8.192  0.9704  0.0496 -0.0024
  775MOL0     H 2247   1.970   2.555   8.100 -0.5300 -2.2752  2.3747
  775MOL0     H 2248   2.044   2.719   8.106 -0.0094  0.6607  1.5325
  775MOL0     H 2249   1.980   2.534   8.349 -0.7880  0.1130  0.0311
  775MOL0     H 2250   2.046   2.699   8.357 -1.7606  0.5436  3.2646
  775MOL0     H 2251   1.849   2.780   8.221  0.3619  0.9072  0.9219
  775MOL0     H 2252   1.814   2.744   8.385  0.4083 -1.2055  1.0481
  775MOL0     H 2253   1.714   2.443   8.384 -1.1313  0.4016 -0.1277
  775MOL0     H 2254   1.667   2.215   8.224  1.3249  1.3005  0.8566
  775MOL0     H 2255   1.565   2.245   8.097  2.4298 -3.7974  0.1372
  775MOL0     H 2256   1.471   2.326   8.376 -1.8004 -1.2422  0.9798
  775MOL0     H 2257   1.459   2.160   8.302  2.7276  0.8186  0.1202
  775MOL0     H 2258   1.325   2.419   8.210  0.0174 -0.3507 -1.5843
  775MOL0     H 2259   1.324   2.278   8.110 -1.2835 -4.3801  0.7816
  775MOL0     H 2260   1.159   2.336   8.344 -2.9522 -2.4432  0.3739
  775MOL0     H 2261   1.235   2.173   8.357 -0.6140 -1.2584  0.6125
  775MOL0     H 2262   0.943   2.044   8.042  1.8720 -1.6932  0.9428
  775MOL0     H 2263   0.734   1.967   8.104  2.5124 -1.0882 -1.3007
  775MOL0     H 2264   0.475   1.632   8.367 -0.2584  0.6913  2.5798
  775MOL0     H 2265   0.237   1.582   8.393  0.7851  0.7526  0.7385
  775MOL0     H 2266   0.046   1.671   8.570  0.2909 -1.8234 -0.0823
  775MOL0     H 2267   0.019   1.540   8.460 -0.1681 -1.0631 -0.6654
  775MOL0     H 2268  -0.186   1.619   8.585 -4.9727 -0.4042 -0.9813
  775MOL0     H 2269  -0.193   1.583   8.421 -2.0687  1.3101 -0.0358
  775MOL0     H 2270  -0.222   1.831   8.359  2.1540  1.4744 -0.4060
  775MOL0     H 2271  -0.133   1.887   8.504  0.6597  0.4256 -0.0590
  775MOL0     H 2272  -0.396   1.718   8.532  0.2435 -1.1695  2.9371
  775MOL0     H 2273  -0.311   1.810   8.652  1.2485 -0.6147 -0.5697
  775MOL0     H 2274  -0.496   1.923   8.607  0.6678 -2.1920  1.2136
  775MOL0     H 2275  -0.480   1.922   8.436 -1.6457 -1.3446  1.9475
  775MOL0     H 2276  -0.273   2.096   8.496  0.3656  2.4469  0.8733
  775MOL0     H 2277  -0.321   2.058   8.665  0.0554 -1.5545  0.5514
  775MOL0     H 2278  -0.511   2.165   8.454 -3.4044  0.7208  1.8967
  775MOL0     H 2279  -0.535   2.166   8.632 -1.0115  1.6003 -0.1812
  775MOL0     H 2280  -0.347   2.351   8.480  0.3582 -0.5011 -0.4012
  775MOL0     H 2281  -0.351   2.339   8.651 -0.1361  2.6960 -1.8910
  775MOL0     H 2282   0.109   1.950   8.249 -0.3828 -0.3066 -1.3132
  775MOL0     H 2283   0.343   2.029   8.243 -2.0644  0.1973 -0.3114
  775MOL0     H 2284   0.780   2.135   8.500 -1.2446  1.7425  1.2761
  775MOL0     H 2285   0.995   2.228   8.437 -0.0269 -1.4708  0.6650
  775MOL0     H 2286   2.705   2.337   7.747  2.3566 -1.4592 -0.2285
  775MOL0     H 2287   2.918   2.298   7.647  0.6430 -0.1659 -0.0853
  775MOL0     H 2288   3.511   2.303   7.918  0.9700  0.3036 -0.6965
  775MOL0     H 2289   3.705   2.303   7.818 -1.8746  1.5421  3.4316
  775MOL0     H 2290   3.716   2.459   7.392 -2.6958 -1.7459 -0.9168
  775MOL0     H 2291   3.728   2.284   7.355  1.2828  1.3674 -2.8270
  775MOL0     H 2292   3.928   2.391   7.276 -1.5898  1.8303  0.1432
  775MOL0     H 2293   3.974   2.445   7.436 -0.4148  1.3221 -2.0501
  775MOL0     H 2294   3.924   2.156   7.362  1.8520 -0.4680 -0.5227
  775MOL0     H 2295   3.975   2.207   7.522 -1.3608 -1.7625  0.5640
  775MOL0     H 2296   4.108   2.253   7.245 -1.4850 -1.5716 -0.1913
  775MOL0     H 2297   4.195   2.275   7.402 -1.4863  0.8641  1.1724
  775MOL0     H 2298   4.238   1.860   7.312 -1.1253 -1.4713  2.1918
  775MOL0     H 2299   3.509   2.316   7.424  1.1343 -0.2213 -0.4186
  775MOL0     H 2300   3.293   2.353   7.543  0.9525  0.2181 -0.0779
  776MOL0     O 2301   8.100   2.201   1.022 -0.3080  0.6487 -0.1020
  776MOL0     C 2302   8.158   2.180   0.917  0.4850  0.4846  0.2203
  776MOL0     O 2303   8.101   2.158   0.793  0.2891  0.1612 -0.1692
  776MOL0     C 2304   7.969   2.134   0.766 -0.9383 -0.7105  0.3883
  776MOL0     C 2305   7.952   2.096   0.631  0.0686 -0.7695 -0.4918
  776MOL0     C 2306   7.827   2.089   0.568 -0.7848 -0.3540  0.6068
  776MOL0     C 2307   7.715   2.114   0.645  0.1865 -0.0912  0.1263
  776MOL0     O 2308   7.593   2.108   0.576  0.3324 -0.1767  0.2371
  776MOL0     C 2309   7.479   2.187   0.626  0.6741  0.2337  0.8071
  776MOL0     C 2310   7.389   2.093   0.708 -0.7427 -0.1136 -0.5128
  776MOL0     C 2311   7.297   2.165   0.799  0.2911  0.1057 -0.7423
  776MOL0     C 2312   7.211   2.069   0.878 -1.2366  0.5804 -0.1254
  776MOL0     C 2313   7.076   2.130   0.928  0.5197 -0.8891  0.1018
  776MOL0     C 2314   6.957   2.038   0.916  0.5906  0.5379 -0.1222
  776MOL0     C 2315   6.956   1.943   1.038 -0.0675 -0.9165  0.1862
  776MOL0     C 2316   6.827   1.862   1.052  0.5825 -0.0928 -0.3120
  776MOL0     N 2317   6.697   1.926   1.034  0.2235 -0.1302  0.2500
  776MOL0     C 2318   6.641   1.946   0.917  0.2373  0.5800 -0.1503
  776MOL0     C 2319   6.531   2.024   0.950  0.1120 -0.6110  0.2771
  776MOL0     C 2320   6.440   2.084   0.838 -0.0330 -0.0507 -0.8240
  776MOL0     C 2321   6.329   2.175   0.900 -1.1239 -0.1793  0.5706
  776MOL0     C 2322   6.229   2.106   0.996  0.2414  0.3036  0.6333
  776MOL0     C 2323   6.121   2.214   1.032 -0.3315 -0.1969 -0.2686
  776MOL0     O 2324   6.038   2.153   1.135 -0.1289  0.0024  0.8628
  776MOL0     C 2325   5.919   2.212   1.179 -0.5269 -0.5097  0.9651
  776MOL0     C 2326   5.839   2.120   1.241  0.5616  0.2955  0.2681
  776MOL0     C 2327   5.712   2.160   1.288 -1.1589  0.0893 -0.0794
  776MOL0     C 2328   5.664   2.287   1.254  0.0091 -0.1496 -0.9185
  776MOL0     C 2329   5.534   2.328   1.288 -0.1073  0.0554 -0.1056
  776MOL0     O 2330   5.468   2.392   1.184  0.5577 -0.3844 -0.0983
  776MOL0     C 2331   5.342   2.440   1.201 -0.3347 -1.1682 -0.3018
  776MOL0     C 2332   5.316   2.579   1.203 -0.4075 -0.2650 -0.4853
  776MOL0     C 2333   5.184   2.615   1.233 -0.2799 -0.1170  0.4510
  776MOL0     C 2334   5.078   2.529   1.254  0.0346  1.4326 -0.8930
  776MOL0     O 2335   4.959   2.582   1.298 -0.2928  0.2687 -0.4429
  776MOL0     C 2336   4.835   2.516   1.259  0.7795  0.0427 -0.9297
  776MOL0     C 2337   4.725   2.607   1.306 -0.0626  0.1844 -1.1926
  776MOL0     C 2338   4.721   2.743   1.239 -0.6147  0.1728 -0.3718
  776MOL0     C 2339   4.593   2.828   1.266 -0.2069  0.8145 -1.0921
  776MOL0     C 2340   4.612   2.972   1.221  0.4386  0.4640 -0.7562
  776MOL0     C 2341   4.697   3.068   1.310  0.0475  1.1331  1.0776
  776MOL0     C 2342   4.621   3.132   1.421  0.4586  0.3973 -0.8848
  776MOL0     C 2343   4.604   3.036   1.544  0.4924 -0.8922  0.1248
  776MOL0    Cl 2344   4.542   3.143   1.675 -0.3442  0.2180  0.0318
  776MOL0     C 2345   5.103   2.398   1.250 -0.4267  0.6085  0.2118
  776MOL0     C 2346   5.239   2.358   1.219  0.4102 -0.3529  0.1328
  776MOL0     O 2347   5.485   2.300   1.396 -0.0321 -0.5879  0.5463
  776MOL0     C 2348   5.752   2.374   1.192 -0.1072  0.1030  0.1583
  776MOL0     C 2349   5.875   2.348   1.159 -0.3427 -0.1166  0.3777
  776MOL0     N 2350   6.524   2.041   1.088 -0.6818 -0.1631 -0.0531
  776MOL0     N 2351   6.618   1.972   1.139  0.1585 -0.0706  0.4772
  776MOL0     C 2352   7.727   2.152   0.786  0.6269 -0.1701 -0.2318
  776MOL0     C 2353   7.852   2.164   0.842 -0.9629 -0.5808  0.2697
  776MOL0     C 2354   8.308   2.174   0.916 -0.0436 -0.6719 -0.3555
  776MOL0     C 2355   8.370   2.157   1.038 -0.4272 -0.9641 -0.4610
  776MOL0     C 2356   8.512   2.167   1.051 -0.5582 -0.1288  0.2356
  776MOL0     C 2357   8.587   2.178   0.932 -0.2253  0.3465 -0.3710
  776MOL0     O 2358   8.722   2.204   0.932 -0.7319 -0.0411  0.5828
  776MOL0     C 2359   8.797   2.206   1.063  0.2821  0.8086  0.7365
  776MOL0     C 2360   8.930   2.259   1.030  0.1338 -0.5495  0.4069
  776MOL0     C 2361   9.035   2.256   1.147 -0.1318 -1.0842  0.0847
  776MOL0     C 2362   9.171   2.311   1.102  0.6300  0.3687  0.4285
  776MOL0     C 2363   9.254   2.207   1.033  0.2122  0.7098  0.9902
  776MOL0     C 2364   9.312   2.115   0.981  0.4651 -0.4113 -0.4407
  776MOL0     C 2365   8.524   2.191   0.809 -0.3108 -1.4003 -0.7049
  776MOL0     C 2366   8.390   2.188   0.802 -0.2379  0.4160 -0.0345
  776MOL0     H 2367   8.040   2.079   0.569  1.3432  1.3860  0.5972
  776MOL0     H 2368   7.826   2.078   0.460  2.0030  0.1002  0.4575
  776MOL0     H 2369   7.417   2.214   0.541  1.7000 -0.5878 -0.2328
  776MOL0     H 2370   7.503   2.272   0.690  1.7290 -0.2985  1.1346
  776MOL0     H 2371   7.444   2.013   0.759  0.1226  1.0932  0.4900
  776MOL0     H 2372   7.333   2.026   0.642 -2.6681 -0.5378  1.4603
  776MOL0     H 2373   7.245   2.237   0.735 -0.4007  0.7380  0.4884
  776MOL0     H 2374   7.355   2.223   0.872 -2.5562 -0.2037  1.9478
  776MOL0     H 2375   7.194   1.989   0.806 -0.4387  0.0276  0.2924
  776MOL0     H 2376   7.268   2.030   0.963  0.2531  0.0044 -1.3449
  776MOL0     H 2377   7.044   2.216   0.869  1.3575 -0.4219  0.3198
  776MOL0     H 2378   7.095   2.170   1.028 -2.1546  2.2522 -0.4677
  776MOL0     H 2379   6.963   1.985   0.821 -0.0150  1.8005 -0.8833
  776MOL0     H 2380   6.858   2.085   0.920 -0.1937 -1.1069  1.7832
  776MOL0     H 2381   7.050   1.888   1.045  0.2456 -0.6807 -1.7105
  776MOL0     H 2382   6.955   2.011   1.123  5.5717  1.3012 -1.0461
  776MOL0     H 2383   6.837   1.804   1.144 -1.9880  2.4524  1.7570
  776MOL0     H 2384   6.829   1.795   0.965  2.1861  1.1336 -1.3055
  776MOL0     H 2385   6.666   1.911   0.817 -0.1844  0.0949 -0.0908
  776MOL0     H 2386   6.403   1.988   0.802  3.6655 -1.6113 -0.9384
  776MOL0     H 2387   6.503   2.132   0.762  0.5542  0.0606 -0.2741
  776MOL0     H 2388   6.271   2.216   0.817 -0.3186  1.9352  0.9760
  776MOL0     H 2389   6.373   2.257   0.957  0.2852 -0.1393 -0.5199
  776MOL0     H 2390   6.179   2.018   0.953 -0.7846  0.9098  0.5578
  776MOL0     H 2391   6.281   2.074   1.087  0.2942 -2.5979 -0.3215
  776MOL0     H 2392   6.058   2.247   0.949 -0.6114 -1.6044 -0.6280
  776MOL0     H 2393   6.178   2.304   1.057  0.1262  0.7013 -4.0145
  776MOL0     H 2394   5.875   2.022   1.267  0.0623  0.4719  1.7176
  776MOL0     H 2395   5.655   2.085   1.343 -1.0618  2.1609  3.1458
  776MOL0     H 2396   5.389   2.659   1.209 -1.3833  0.8096 -2.1116
  776MOL0     H 2397   5.161   2.721   1.231 -0.4026 -0.1231  1.2217
  776MOL0     H 2398   4.818   2.419   1.307  0.7852  0.0839 -0.8460
  776MOL0     H 2399   4.822   2.512   1.150  1.0672  1.0627 -1.0092
  776MOL0     H 2400   4.729   2.613   1.415  4.2623 -0.5464 -1.1315
  776MOL0     H 2401   4.629   2.559   1.280 -0.0314 -2.3316  2.5428
  776MOL0     H 2402   4.736   2.735   1.131 -2.1321  1.1739 -0.7022
  776MOL0     H 2403   4.804   2.799   1.283 -0.3764 -1.7301  1.8325
  776MOL0     H 2404   4.507   2.794   1.208 -0.6684  0.4148 -0.1957
  776MOL0     H 2405   4.578   2.832   1.374 -0.0669  0.0846 -1.0412
  776MOL0     H 2406   4.510   3.010   1.210 -1.2928 -3.3884  0.4317
  776MOL0     H 2407   4.669   2.973   1.127  3.4078 -0.2563  0.9231
  776MOL0     H 2408   4.723   3.151   1.245  2.4254 -1.2051 -1.2113
  776MOL0     H 2409   4.786   3.019   1.351  1.3493  2.3996 -0.1043
  776MOL0     H 2410   4.678   3.221   1.450 -0.7868 -0.1392  4.0357
  776MOL0     H 2411   4.523   3.162   1.382 -0.0176 -0.8983 -0.7374
  776MOL0     H 2412   4.695   2.982   1.571 -0.1592 -2.1971 -0.2100
  776MOL0     H 2413   4.518   2.976   1.515 -1.3713  2.1603 -1.2321
  776MOL0     H 2414   5.030   2.323   1.280  0.3835 -0.3599 -0.1756
  776MOL0     H 2415   5.251   2.250   1.230 -1.6523 -0.5073  1.3470
  776MOL0     H 2416   5.712   2.468   1.156  1.5491  0.1411 -1.8028
  776MOL0     H 2417   5.929   2.423   1.101 -3.1179  1.0802 -0.8753
  776MOL0     H 2418   7.642   2.180   0.847  0.0587  0.0155 -1.0990
  776MOL0     H 2419   7.874   2.211   0.937 -1.6120  1.3391 -0.5006
  776MOL0     H 2420   8.305   2.134   1.121 -4.3815  0.9393 -2.7537
  776MOL0     H 2421   8.560   2.148   1.146 -2.3631 -0.7016  1.0701
  776MOL0     H 2422   8.799   2.099   1.088 -0.9673  0.3160 -1.0378
  776MOL0     H 2423   8.740   2.260   1.139  0.3820  1.4260  0.3790
  776MOL0     H 2424   8.973   2.212   0.940  0.2939 -0.3494  0.3774
  776MOL0     H 2425   8.920   2.361   0.991 -0.3767 -0.6527  0.2677
  776MOL0     H 2426   9.043   2.158   1.194 -0.1876 -0.5868  1.1550
  776MOL0     H 2427   9.006   2.328   1.224  2.4326  2.3897 -1.9033
  776MOL0     H 2428   9.173   2.401   1.040  1.0053  0.2730  0.2972
  776MOL0     H 2429   9.214   2.342   1.198  1.4835  0.9753 -0.1335
  776MOL0     H 2430   9.366   2.035   0.934 -0.7745 -0.6501 -1.5041
  776MOL0     H 2431   8.595   2.207   0.728  1.4910 -1.8751  0.7127
  776MOL0     H 2432   8.340   2.208   0.708  1.1049 -1.6222 -1.2638
  777MOL0     O 2433   7.612   3.532  10.993 -0.7545 -0.0008  1.2030
  777MOL0     C 2434   7.617   3.412  10.965  0.2355  0.2698  0.2633
  777MOL0     O 2435   7.611   3.357  10.842 -0.0761  0.4441  0.0524
  777MOL0     C 2436   7.585   3.448  10.742 -0.1517 -0.6432  0.0129
  777MOL0     C 2437   7.676   3.473  10.635 -1.6676  0.1351 -0.1182
  777MOL0     C 2438   7.645   3.564  10.542 -0.1204  0.5392  0.5323
  777MOL0     C 2439   7.519   3.628  10.537 -0.5442  0.5920  0.5065
  777MOL0     O 2440   7.505   3.710  10.429 -0.4096  0.0938  0.6045
  777MOL0     C 2441   7.407   3.808  10.443  0.2964  0.0181  1.0752
  777MOL0     C 2442   7.431   3.910  10.557 -0.6926 -0.2351  0.7147
  777MOL0     C 2443   7.325   3.996  10.592 -0.0241 -0.6232 -0.5454
  777MOL0     C 2444   7.348   4.080  10.719  0.2763 -0.0335  0.1183
  777MOL0     C 2445   7.227   4.132  10.784 -0.8769 -0.6508  0.0219
  777MOL0     C 2446   7.192   4.276  10.723 -0.3359 -0.3995  0.2711
  777MOL0     C 2447   7.050   4.331  10.743 -0.6273  0.1990  0.2880
  777MOL0     C 2448   6.974   4.301  10.875  0.3192 -0.2824 -0.5509
  777MOL0     N 2449   6.835   4.352  10.879 -0.0084  0.9439 -0.0610
  777MOL0     C 2450   6.781   4.480  10.866  1.2118  0.9773  0.2330
  777MOL0     C 2451   6.647   4.467  10.891  0.7188 -0.0376 -0.2869
  777MOL0     C 2452   6.539   4.578  10.883  0.4502 -0.5775  0.8331
  777MOL0     C 2453   6.416   4.545  10.786  0.6747  0.4580  1.1374
  777MOL0     C 2454   6.302   4.464  10.847 -0.2691 -0.4351  0.0216
  777MOL0     C 2455   6.187   4.453  10.760  0.4070  0.5113 -0.0057
  777MOL0     O 2456   6.078   4.391  10.837 -0.4107 -0.5426 -0.2884
  777MOL0     C 2457   5.952   4.416  10.794  0.4307 -0.3160 -0.4113
  777MOL0     C 2458   5.859   4.328  10.850 -0.1785 -0.3180 -0.7370
  777MOL0     C 2459   5.723   4.334  10.826  0.4841  0.3797 -0.6631
  777MOL0     C 2460   5.668   4.415  10.731 -0.3514 -0.7291 -0.6778
  777MOL0     C 2461   5.522   4.418  10.712  0.2148 -0.3316  1.3312
  777MOL0     O 2462   5.437   4.345  10.791 -0.3690  0.0021 -0.9500
  777MOL0     C 2463   5.314   4.315  10.737 -0.2047 -0.2669  1.5741
  777MOL0     C 2464   5.225   4.411  10.685 -0.2598  0.3432 -0.1623
  777MOL0     C 2465   5.109   4.364  10.631  0.7026  0.0249 -0.2285
  777MOL0     C 2466   5.077   4.230  10.614  0.0635  0.2757 -1.1776
  777MOL0     O 2467   4.969   4.178  10.554  0.5566  1.1633  0.5192
  777MOL0     C 2468   4.858   4.258  10.541 -0.1461  0.3570 -0.3890
  777MOL0     C 2469   4.756   4.194  10.443 -0.8981 -0.5489  0.2596
  777MOL0     C 2470   4.674   4.078  10.503  0.8716 -0.5881 -0.0833
  777MOL0     C 2471   4.585   4.011  10.395  0.2196  0.9738  0.2633
  777MOL0     C 2472   4.525   3.883  10.445 -0.5087 -0.8251 -0.2635
  777MOL0     C 2473   4.424   3.815  10.350 -0.3081 -0.4971 -0.1260
  777MOL0     C 2474   4.439   3.667  10.339 -0.4038 -0.2896 -0.0901
  777MOL0     C 2475   4.352   3.593  10.240  0.0473  0.0408  0.3598
  777MOL0    Cl 2476   4.179   3.649  10.249  0.0330  0.3335 -0.0723
  777MOL0     C 2477   5.166   4.139  10.671  0.0598  0.5118  1.1399
  777MOL0     C 2478   5.277   4.182  10.742  0.4350  0.5344  1.0265
  777MOL0     O 2479   5.499   4.470  10.597 -0.2796 -0.4413  0.2074
  777MOL0     C 2480   5.762   4.504  10.663 -0.8099  0.7893 -0.6248
  777MOL0     C 2481   5.900   4.504  10.692 -0.7255 -0.1473 -0.0684
  777MOL0     N 2482   6.623   4.333  10.916  0.8857 -0.7124  0.1722
  777MOL0     N 2483   6.729   4.271  10.920  0.0705  0.2677  0.2276
  777MOL0     C 2484   7.435   3.608  10.644  0.4302 -0.0462  0.1938
  777MOL0     C 2485   7.464   3.514  10.746 -0.3149  0.4696 -0.2114
  777MOL0     C 2486   7.635   3.316  11.073 -0.2916  0.0008  0.2936
  777MOL0     C 2487   7.577   3.329  11.198  0.1028  0.3246  0.2510
  777MOL0     C 2488   7.591   3.231  11.294 -0.4619 -1.0954  0.2989
  777MOL0     C 2489   7.658   3.115  11.268  0.3422  0.0810  0.3331
  777MOL0     O 2490   7.676   3.010  11.350  1.1816  0.1049  0.1238
  777MOL0     C 2491   7.674   3.019  11.494 -0.7688 -0.3231  0.2713
  777MOL0     C 2492   7.541   3.010  11.565  0.3097  0.5555  0.3268
  777MOL0     C 2493   7.465   2.889  11.512  0.2382  0.4265 -0.6757
  777MOL0     C 2494   7.321   2.904  11.561  0.2702 -0.1384  0.2129
  777MOL0     C 2495   7.243   2.782  11.528 -0.4668 -0.4623  0.4232
  777MOL0     C 2496   7.172   2.686  11.497 -0.9000 -0.5626 -0.0151
  777MOL0     C 2497   7.705   3.094  11.142  0.0967  1.5016  0.4269
  777MOL0     C 2498   7.703   3.194  11.048  0.0976  0.1790 -0.1017
  777MOL0     H 2499   7.775   3.430  10.636 -0.8999  1.6894 -2.2598
  777MOL0     H 2500   7.709   3.583  10.456 -0.8826  0.1862 -0.1311
  777MOL0     H 2501   7.309   3.761  10.441  1.1213 -1.8996 -2.6867
  777MOL0     H 2502   7.410   3.869  10.352 -2.7514  0.7130  1.3240
  777MOL0     H 2503   7.528   3.957  10.537 -0.1530 -1.0908  1.2368
  777MOL0     H 2504   7.444   3.859  10.653 -1.7559 -0.7157  0.6202
  777MOL0     H 2505   7.239   3.932  10.610 -2.8374  1.7965 -4.0599
  777MOL0     H 2506   7.302   4.060  10.506 -0.3045 -1.1264 -0.8436
  777MOL0     H 2507   7.398   4.014  10.791  1.9221 -0.3499 -1.2446
  777MOL0     H 2508   7.409   4.169  10.705 -2.8996  2.4191  0.6583
  777MOL0     H 2509   7.239   4.145  10.892  0.6962  0.3576 -0.2439
  777MOL0     H 2510   7.139   4.071  10.762 -0.8723 -0.2095 -1.2655
  777MOL0     H 2511   7.206   4.268  10.615  0.6723  5.0537 -0.2978
  777MOL0     H 2512   7.267   4.348  10.756 -2.0626  0.6251  2.2350
  777MOL0     H 2513   7.058   4.439  10.728 -2.7447  0.4585  0.7466
  777MOL0     H 2514   6.979   4.298  10.667  0.1929 -0.3186 -0.2622
  777MOL0     H 2515   7.021   4.347  10.963 -1.0356 -0.2304  0.1718
  777MOL0     H 2516   6.979   4.193  10.895 -3.4262 -0.4045  0.4296
  777MOL0     H 2517   6.844   4.564  10.838  1.1503  0.1545 -2.7358
  777MOL0     H 2518   6.581   4.675  10.857 -3.6183  1.0216 -0.5816
  777MOL0     H 2519   6.501   4.578  10.986  2.2654 -0.5394  1.5508
  777MOL0     H 2520   6.443   4.494  10.693  3.7136  0.2382  2.0134
  777MOL0     H 2521   6.382   4.644  10.754 -1.5487 -1.5331 -3.5064
  777MOL0     H 2522   6.341   4.366  10.876 -1.8945 -1.5024 -1.1554
  777MOL0     H 2523   6.270   4.504  10.943 -2.0225 -0.1857 -0.6256
  777MOL0     H 2524   6.219   4.385  10.680 -0.0088 -1.2908  1.2882
  777MOL0     H 2525   6.154   4.555  10.739 -2.5976 -0.5634 -0.9714
  777MOL0     H 2526   5.899   4.265  10.929  4.5623  1.6120 -1.2226
  777MOL0     H 2527   5.662   4.264  10.881 -1.5416  2.9365  0.5353
  777MOL0     H 2528   5.242   4.518  10.685  0.1017  0.2971  1.2355
  777MOL0     H 2529   5.045   4.441  10.589 -0.3482 -1.7675 -2.0555
  777MOL0     H 2530   4.888   4.352  10.494  4.1163 -0.7878 -0.3607
  777MOL0     H 2531   4.807   4.250  10.637  0.3413 -2.7257 -0.2965
  777MOL0     H 2532   4.806   4.152  10.355 -0.4102 -3.4110  1.7833
  777MOL0     H 2533   4.679   4.266  10.413 -1.5631 -0.5831  1.7928
  777MOL0     H 2534   4.601   4.109  10.579  0.0391 -0.1037 -1.0590
  777MOL0     H 2535   4.745   4.013  10.554  1.0161 -0.2748  0.1213
  777MOL0     H 2536   4.501   4.074  10.367 -1.1170 -1.5630 -1.9009
  777MOL0     H 2537   4.643   3.985  10.306  2.5492  0.1270  1.9038
  777MOL0     H 2538   4.474   3.908  10.538 -0.5942 -1.6540 -0.0758
  777MOL0     H 2539   4.598   3.806  10.474  0.2771 -0.2467 -0.6624
  777MOL0     H 2540   4.426   3.855  10.248 -1.6296 -3.5377 -1.4610
  777MOL0     H 2541   4.323   3.839  10.385 -0.3367  0.4863 -0.8332
  777MOL0     H 2542   4.546   3.652  10.326  0.3539  2.8224  1.7226
  777MOL0     H 2543   4.420   3.629  10.440  2.2753 -1.1018  0.1677
  777MOL0     H 2544   4.357   3.486  10.260  1.4991  0.0696  0.2846
  777MOL0     H 2545   4.392   3.618  10.141 -0.8375  1.3069  0.3060
  777MOL0     H 2546   5.135   4.037  10.652 -0.9002  0.7895  1.1417
  777MOL0     H 2547   5.342   4.107  10.785 -0.3114 -0.7363  0.0013
  777MOL0     H 2548   5.721   4.566  10.584 -1.5554  1.8331  0.5426
  777MOL0     H 2549   5.975   4.572  10.653 -0.6969 -1.6000 -2.8096
  777MOL0     H 2550   7.348   3.673  10.645  0.2327 -0.3120  0.8746
  777MOL0     H 2551   7.402   3.488  10.831  0.3594  0.8247  0.3999
  777MOL0     H 2552   7.521   3.414  11.237  0.1369 -0.0318  1.0922
  777MOL0     H 2553   7.532   3.242  11.384 -1.5300  0.6614 -0.5634
  777MOL0     H 2554   7.720   3.115  11.516 -2.3998  0.3625  0.8872
  777MOL0     H 2555   7.746   2.946  11.533 -0.6101 -0.4895 -0.3204
  777MOL0     H 2556   7.556   3.017  11.674  0.4705  0.8592  0.2854
  777MOL0     H 2557   7.488   3.098  11.530  0.3155 -0.5573 -2.7247
  777MOL0     H 2558   7.512   2.799  11.552 -1.5281 -0.9805 -1.5650
  777MOL0     H 2559   7.480   2.874  11.404 -3.6874  0.0133 -1.3116
  777MOL0     H 2560   7.323   2.920  11.669 -1.3220 -2.8599  0.7424
  777MOL0     H 2561   7.274   2.988  11.510 -0.1078 -1.0625 -1.0215
  777MOL0     H 2562   7.116   2.596  11.480 -0.1070 -0.8403 -1.2453
  777MOL0     H 2563   7.750   2.997  11.124  0.0498  1.3158  1.2609
  777MOL0     H 2564   7.746   3.171  10.951  0.2906  0.4182 -0.0758
  778MOL0     O 2565   7.026   0.072  11.254  0.2563  0.7385  0.1064
  778MOL0     C 2566   7.019   0.197  11.267 -0.5201 -0.6620  0.2364
  778MOL0     O 2567   6.897   0.262  11.270 -0.2083 -0.0639 -0.1465
  778MOL0     C 2568   6.785   0.183  11.283  0.1197 -0.7238 -0.7435
  778MOL0     C 2569   6.733   0.156  11.415 -0.0936  0.6619  0.3741
  778MOL0     C 2570   6.636   0.059  11.433 -0.1343 -0.6935  0.4412
  778MOL0     C 2571   6.565   0.005  11.328  0.1156  0.5291  0.1710
  778MOL0     O 2572   6.452  -0.071  11.343  0.3826 -0.0616 -0.0279
  778MOL0     C 2573   6.340   0.018  11.382  0.2541  0.7301 -0.6359
  778MOL0     C 2574   6.261  -0.066  11.488 -1.0277  0.4716  0.5600
  778MOL0     C 2575   6.135  -0.137  11.439 -0.7015  0.4164  0.8645
  778MOL0     C 2576   6.089  -0.212  11.571  0.3177 -0.4707 -0.6024
  778MOL0     C 2577   5.953  -0.293  11.571 -0.0837  0.6123  0.4063
  778MOL0     C 2578   5.833  -0.200  11.583  0.2427  0.6375 -0.8390
  778MOL0     C 2579   5.696  -0.264  11.529 -0.2766 -0.5375  0.5732
  778MOL0     C 2580   5.622  -0.343  11.644 -0.4593  0.2371 -0.0457
  778MOL0     N 2581   5.582  -0.260  11.759 -0.1491  0.9037  0.4161
  778MOL0     C 2582   5.479  -0.174  11.769 -0.8168  0.6309 -0.1445
  778MOL0     C 2583   5.489  -0.119  11.897  0.2548 -1.2318  0.1752
  778MOL0     C 2584   5.392  -0.015  11.945 -0.6055 -0.4741  0.8422
  778MOL0     C 2585   5.285  -0.080  12.043  0.5349  0.2472 -0.3636
  778MOL0     C 2586   5.143  -0.022  12.009 -0.4189  0.8345  0.4150
  778MOL0     C 2587   5.117   0.117  12.068  0.1609 -0.4381 -0.7520
  778MOL0     O 2588   4.990   0.176  12.029 -0.4271  0.1694  0.7045
  778MOL0     C 2589   4.873   0.159  12.102 -0.2741 -0.2523  0.2556
  778MOL0     C 2590   4.854   0.065  12.198  0.2864 -0.0220 -0.3181
  778MOL0     C 2591   4.721   0.051  12.251 -0.1237 -0.1568 -0.3389
  778MOL0     C 2592   4.618   0.131  12.208 -0.3760 -0.5864 -0.1086
  778MOL0     C 2593   4.482   0.102  12.254  0.0379 -0.0721  0.5784
  778MOL0     O 2594   4.396   0.190  12.205  0.7000 -0.5431  0.4467
  778MOL0     C 2595   4.266   0.173  12.230  0.9595  0.7685 -0.3445
  778MOL0     C 2596   4.185   0.260  12.304 -0.8698  0.5511 -0.0355
  778MOL0     C 2597   4.054   0.253  12.295  0.3162 -0.4247 -0.0772
  778MOL0     C 2598   3.990   0.162  12.208  0.0219  0.6626 -0.1930
  778MOL0     O 2599   3.855   0.151  12.200 -0.1245  0.8742 -0.9471
  778MOL0     C 2600   3.796   0.167  12.075  0.2993  0.1163 -0.0568
  778MOL0     C 2601   3.693   0.056  12.052 -0.1927  0.0694 -0.2357
  778MOL0     C 2602   3.575   0.046  12.161 -0.2046 -0.7435  0.5512
  778MOL0     C 2603   3.467   0.151  12.139  0.5919  0.6739  0.4220
  778MOL0     C 2604   3.344   0.112  12.211 -0.2659  0.7840 -0.8257
  778MOL0     C 2605   3.213   0.185  12.189 -0.0216  0.2501 -0.0867
  778MOL0     C 2606   3.162   0.150  12.051 -0.0533 -0.2781 -0.2676
  778MOL0     C 2607   3.034   0.231  12.007 -0.7315 -0.4345 -0.0544
  778MOL0    Cl 2608   3.067   0.399  12.026  0.0100  0.1127 -0.2990
  778MOL0     C 2609   4.070   0.064  12.142 -0.4198 -0.2319  0.8196
  778MOL0     C 2610   4.210   0.071  12.156  0.7581  1.0439 -0.6603
  778MOL0     O 2611   4.452   0.006  12.327 -0.4668 -0.7511 -0.8420
  778MOL0     C 2612   4.645   0.235  12.121 -0.1059  0.2916 -0.2314
  778MOL0     C 2613   4.770   0.239  12.057  0.1189  0.4067 -0.2442
  778MOL0     N 2614   5.599  -0.175  11.954  0.1259  0.0076  0.3619
  778MOL0     N 2615   5.655  -0.253  11.870  0.7595 -0.7040  0.9880
  778MOL0     C 2616   6.611   0.037  11.197 -0.0785 -0.6457  0.5488
  778MOL0     C 2617   6.719   0.127  11.175 -0.8751  0.0862  0.0637
  778MOL0     C 2618   7.142   0.275  11.284  0.5074 -0.1154 -0.6291
  778MOL0     C 2619   7.139   0.411  11.312  0.4120 -0.5870 -0.4109
  778MOL0     C 2620   7.260   0.481  11.312  0.0772 -0.1784  0.1167
  778MOL0     C 2621   7.377   0.426  11.282 -0.5202  0.2546 -0.2884
  778MOL0     O 2622   7.487   0.510  11.289  0.1346 -0.2289 -0.0476
  778MOL0     C 2623   7.611   0.464  11.215 -0.5383  0.0639 -0.2346
  778MOL0     C 2624   7.687   0.591  11.180  0.2598 -0.5734  0.5252
  778MOL0     C 2625   7.743   0.655  11.308  1.1580 -0.5590  0.1018
  778MOL0     C 2626   7.781   0.800  11.264 -0.6518  0.0419  0.3146
  778MOL0     C 2627   7.919   0.821  11.301  0.1839  1.0677 -0.2316
  778MOL0     C 2628   8.040   0.830  11.334  0.0854  0.2655 -0.2212
  778MOL0     C 2629   7.374   0.285  11.256 -0.3143 -0.7678  0.1030
  778MOL0     C 2630   7.262   0.212  11.256  0.0227  0.4820 -0.8417
  778MOL0     H 2631   6.790   0.185  11.503  1.3507  0.9519 -0.6193
  778MOL0     H 2632   6.632   0.029  11.537  1.8002 -0.2640  0.6796
  778MOL0     H 2633   6.292   0.059  11.293  1.1475 -1.8246 -2.4105
  778MOL0     H 2634   6.390   0.094  11.444  2.2999 -2.0794  1.4220
  778MOL0     H 2635   6.230   0.000  11.569 -1.8332 -0.5709  1.1329
  778MOL0     H 2636   6.323  -0.150  11.520  1.8053  1.5534 -1.6982
  778MOL0     H 2637   6.165  -0.199  11.354  0.0927  1.1894  0.5613
  778MOL0     H 2638   6.056  -0.078  11.393  0.6012  0.9523 -0.8006
  778MOL0     H 2639   6.178  -0.265  11.607  0.9211 -0.7945 -2.4488
  778MOL0     H 2640   6.069  -0.130  11.641 -0.9633  1.2289 -2.8155
  778MOL0     H 2641   5.953  -0.373  11.646  2.0647  0.4096  0.2630
  778MOL0     H 2642   5.936  -0.346  11.476  1.7072 -3.2056  2.0051
  778MOL0     H 2643   5.859  -0.118  11.516  2.1318 -0.4124 -1.4747
  778MOL0     H 2644   5.815  -0.165  11.684  2.1508 -1.3326  0.2820
  778MOL0     H 2645   5.630  -0.182  11.499  1.5879  0.5195 -0.7905
  778MOL0     H 2646   5.707  -0.323  11.438 -0.6085 -1.7691  1.3143
  778MOL0     H 2647   5.691  -0.424  11.669 -2.1802 -0.6053  2.3726
  778MOL0     H 2648   5.532  -0.392  11.605 -0.4948  0.1921  0.0908
  778MOL0     H 2649   5.401  -0.150  11.697 -0.9466 -1.1996 -0.6497
  778MOL0     H 2650   5.352   0.025  11.851  1.0523  0.3373  0.4387
  778MOL0     H 2651   5.457   0.060  11.991 -0.1620 -0.9796  1.0587
  778MOL0     H 2652   5.326  -0.057  12.142  2.9406 -1.1307 -0.9478
  778MOL0     H 2653   5.285  -0.189  12.033  0.4227  0.0182  1.7607
  778MOL0     H 2654   5.128  -0.024  11.901 -0.0701 -2.3966  0.3173
  778MOL0     H 2655   5.064  -0.086  12.048  0.5453 -1.8657 -1.6995
  778MOL0     H 2656   5.196   0.187  12.040  1.3071 -2.1887 -2.0462
  778MOL0     H 2657   5.112   0.113  12.177 -1.3587 -3.1536 -0.8314
  778MOL0     H 2658   4.933  -0.001  12.232  0.4569  0.9534  1.2840
  778MOL0     H 2659   4.701  -0.026  12.325 -0.3490  0.0304 -0.1993
  778MOL0     H 2660   4.230   0.341  12.360  0.8289  1.3099 -2.3650
  778MOL0     H 2661   3.994   0.324  12.351  1.9329  1.6658 -0.8290
  778MOL0     H 2662   3.868   0.164  11.992 -0.9720 -0.3746 -1.1775
  778MOL0     H 2663   3.739   0.259  12.082  0.1856  0.0561 -0.2057
  778MOL0     H 2664   3.742  -0.041  12.057  0.4430  0.4548  2.0692
  778MOL0     H 2665   3.648   0.071  11.954  0.9505  1.1784 -0.6211
  778MOL0     H 2666   3.622   0.063  12.258 -0.8809 -0.2273  0.7995
  778MOL0     H 2667   3.540  -0.057  12.150  0.5620 -0.9439 -0.1157
  778MOL0     H 2668   3.499   0.249  12.175 -1.6355  1.1952  1.1211
  778MOL0     H 2669   3.439   0.158  12.033 -0.2492  1.3611  0.6875
  778MOL0     H 2670   3.372   0.115  12.316  2.1133  1.4112 -1.4268
  778MOL0     H 2671   3.319   0.010  12.179 -0.2189  1.1749 -2.1888
  778MOL0     H 2672   3.237   0.292  12.189 -0.4662  0.3822 -1.7196
  778MOL0     H 2673   3.143   0.156  12.267 -0.4984 -3.0761 -1.6069
  778MOL0     H 2674   3.248   0.142  11.984  1.3809 -1.7521  1.6410
  778MOL0     H 2675   3.126   0.047  12.053 -3.9180  0.8623 -1.5355
  778MOL0     H 2676   2.942   0.199  12.055  0.0781 -2.6443  0.1483
  778MOL0     H 2677   3.017   0.204  11.902 -1.1364 -1.1795  0.1929
  778MOL0     H 2678   4.028  -0.013  12.078  0.6287  0.4501 -0.7621
  778MOL0     H 2679   4.268   0.001  12.096 -1.2886 -0.0603 -1.4468
  778MOL0     H 2680   4.569   0.306  12.089  0.5149  0.4512 -1.4437
  778MOL0     H 2681   4.778   0.322  11.987 -5.0491  0.6350 -0.8874
  778MOL0     H 2682   6.566  -0.001  11.106  1.4747  0.4835 -0.7479
  778MOL0     H 2683   6.745   0.146  11.072 -4.3426  0.3224 -0.8963
  778MOL0     H 2684   7.046   0.464  11.331 -1.2330 -2.9389 -1.4417
  778MOL0     H 2685   7.246   0.584  11.341  1.2109  0.3731 -1.1479
  778MOL0     H 2686   7.590   0.424  11.115  1.5766 -0.8005 -0.3833
  778MOL0     H 2687   7.665   0.397  11.282 -4.8256 -0.0849  3.5859
  778MOL0     H 2688   7.763   0.579  11.103  1.2580  0.8391  1.2416
  778MOL0     H 2689   7.622   0.660  11.125  0.7667 -0.9991 -0.6359
  778MOL0     H 2690   7.822   0.588  11.344  0.1192 -1.4559  0.7827
  778MOL0     H 2691   7.666   0.664  11.385  0.9501 -0.6517 -0.0923
  778MOL0     H 2692   7.752   0.825  11.161 -3.7485 -0.0992  1.0770
  778MOL0     H 2693   7.722   0.875  11.317 -1.8324 -0.8044  0.2326
  778MOL0     H 2694   8.133   0.867  11.372  0.7451  1.2689 -2.6555
  778MOL0     H 2695   7.467   0.231  11.245  1.2027  1.5019  1.0726
  778MOL0     H 2696   7.265   0.106  11.232 -1.3320  0.6681 -1.9965
  779MOL0     O 2697   4.819   3.665   6.321 -0.7642  0.0567  0.2510
  779MOL0     C 2698   4.909   3.601   6.384 -0.0764  0.8958  0.3112
  779MOL0     O 2699   4.887   3.516   6.489 -0.1217  0.5025 -0.2966
  779MOL0     C 2700   4.771   3.533   6.563 -0.2568  0.2519 -1.1255
  779MOL0     C 2701   4.779   3.578   6.693  0.7702 -0.9128 -0.3183
  779MOL0     C 2702   4.664   3.589   6.776 -0.0412 -0.6371  0.7369
  779MOL0     C 2703   4.541   3.562   6.720  0.5115  0.7026 -0.4003
  779MOL0     O 2704   4.431   3.603   6.798 -0.3353 -0.2322  0.1208
  779MOL0     C 2705   4.308   3.598   6.736  0.0094  0.1072 -0.2519
  779MOL0     C 2706   4.208   3.621   6.853  0.1312 -0.3221 -0.2653
  779MOL0     C 2707   4.079   3.553   6.805 -0.4123 -1.0222 -0.2303
  779MOL0     C 2708   3.960   3.600   6.890  0.6859  0.1373 -0.0341
  779MOL0     C 2709   3.823   3.568   6.829  0.7261 -0.2529 -0.9616
  779MOL0     C 2710   3.785   3.418   6.849  0.2190 -0.7316  0.2819
  779MOL0     C 2711   3.642   3.383   6.809  0.1816  0.6582 -0.2841
  779MOL0     C 2712   3.536   3.469   6.883  0.7453  0.1019  0.1729
  779MOL0     N 2713   3.403   3.415   6.862 -0.0040 -0.4009  0.5056
  779MOL0     C 2714   3.325   3.342   6.956  0.2248 -0.0498  0.4547
  779MOL0     C 2715   3.209   3.341   6.885 -0.8873 -0.1421  0.1727
  779MOL0     C 2716   3.079   3.273   6.944 -0.3547  0.4240 -0.0061
  779MOL0     C 2717   3.004   3.176   6.846 -0.4727 -0.2750 -0.7089
  779MOL0     C 2718   3.050   3.033   6.863  0.1786 -0.4270  0.4273
  779MOL0     C 2719   3.193   3.010   6.829 -0.3986 -0.3661 -0.0999
  779MOL0     O 2720   3.235   3.060   6.701  0.2006  0.0863  0.7659
  779MOL0     C 2721   3.369   3.084   6.679  0.5570 -0.3362  0.7038
  779MOL0     C 2722   3.410   3.153   6.561  0.7587 -0.6808 -0.8157
  779MOL0     C 2723   3.542   3.142   6.516 -0.6078  0.0682 -0.2878
  779MOL0     C 2724   3.648   3.104   6.599 -0.2030 -0.1210  0.1164
  779MOL0     C 2725   3.788   3.123   6.572 -0.7118  0.3288 -0.2299
  779MOL0     O 2726   3.868   3.124   6.686  0.7001 -0.4307  0.5597
  779MOL0     C 2727   4.009   3.127   6.670 -0.6622 -0.5138  0.5330
  779MOL0     C 2728   4.080   3.223   6.595 -0.5697  0.4383 -0.1274
  779MOL0     C 2729   4.221   3.232   6.599 -0.4502 -0.0217 -0.2676
  779MOL0     C 2730   4.295   3.141   6.667 -0.4716 -0.4826 -0.6048
  779MOL0     O 2731   4.432   3.143   6.659  0.3609  0.6208  0.6904
  779MOL0     C 2732   4.501   3.193   6.772  0.4029  0.5333 -1.2385
  779MOL0     C 2733   4.649   3.180   6.767  0.0760 -0.0030 -0.1403
  779MOL0     C 2734   4.679   3.025   6.739 -0.6476 -0.4731 -0.3774
  779MOL0     C 2735   4.816   2.991   6.792  0.1667  0.9387 -0.0248
  779MOL0     C 2736   4.833   2.831   6.809  0.2209 -0.5892 -0.6689
  779MOL0     C 2737   4.828   2.761   6.670 -0.5487  0.0670 -1.0623
  779MOL0     C 2738   4.862   2.615   6.687 -1.4136  0.7031 -0.1373
  779MOL0     C 2739   4.904   2.550   6.561  0.5106 -0.7392 -0.2380
  779MOL0    Cl 2740   5.081   2.501   6.558  0.0970  0.1633  0.1997
  779MOL0     C 2741   4.226   3.041   6.743 -0.8474  0.0925 -0.5555
  779MOL0     C 2742   4.085   3.041   6.746  0.0179 -0.6463  0.0040
  779MOL0     O 2743   3.828   3.138   6.453  0.1669 -0.2399  0.2885
  779MOL0     C 2744   3.610   3.050   6.728  0.0588  0.3249  0.5405
  779MOL0     C 2745   3.477   3.030   6.753  0.3225  0.8899  0.0834
  779MOL0     N 2746   3.219   3.398   6.756  0.7072  0.0247  0.3007
  779MOL0     N 2747   3.344   3.437   6.747  1.0176  0.1091  0.2780
  779MOL0     C 2748   4.531   3.516   6.585 -0.4402 -0.0745  0.1428
  779MOL0     C 2749   4.650   3.488   6.506 -0.3387  0.2104 -0.2847
  779MOL0     C 2750   5.048   3.637   6.359  0.2596  0.3300 -0.0334
  779MOL0     C 2751   5.079   3.749   6.282  0.4068  0.3781 -1.8690
  779MOL0     C 2752   5.210   3.792   6.272  0.2752 -0.4117 -0.0495
  779MOL0     C 2753   5.315   3.729   6.339 -0.8103 -0.2075  0.7321
  779MOL0     O 2754   5.444   3.775   6.347  0.6379  1.1958  0.2423
  779MOL0     C 2755   5.471   3.911   6.327 -0.6054  0.5201  0.0793
  779MOL0     C 2756   5.624   3.944   6.326 -0.5097  0.3279 -0.0208
  779MOL0     C 2757   5.702   3.854   6.228 -0.2261  1.0664 -0.2830
  779MOL0     C 2758   5.845   3.899   6.210  0.4546  0.0646  0.3269
  779MOL0     C 2759   5.911   3.791   6.133  0.7223 -0.0733  0.2271
  779MOL0     C 2760   5.953   3.701   6.063  0.0897 -0.4775 -0.3913
  779MOL0     C 2761   5.286   3.608   6.403  0.7000  0.0707 -1.1328
  779MOL0     C 2762   5.154   3.563   6.418  0.4116  0.4832  0.1570
  779MOL0     H 2763   4.869   3.613   6.742  0.7415  0.9824 -1.5223
  779MOL0     H 2764   4.660   3.623   6.879  1.2143 -2.0558  1.2983
  779MOL0     H 2765   4.296   3.495   6.702 -1.5329  0.5446 -1.1003
  779MOL0     H 2766   4.292   3.665   6.651 -0.1852  1.7883  1.0447
  779MOL0     H 2767   4.217   3.728   6.877  1.9676  0.8036 -5.0037
  779MOL0     H 2768   4.244   3.576   6.946  2.2838 -1.9915 -1.8319
  779MOL0     H 2769   4.091   3.447   6.827 -3.2977 -2.2377 -3.6269
  779MOL0     H 2770   4.056   3.572   6.699 -2.5610  1.2425  0.5399
  779MOL0     H 2771   3.974   3.546   6.984  0.0374  0.6029  0.3389
  779MOL0     H 2772   3.978   3.705   6.913  3.2499 -0.0914 -0.6594
  779MOL0     H 2773   3.815   3.606   6.727  2.8577  1.1065 -0.6904
  779MOL0     H 2774   3.750   3.620   6.891  0.0876  0.1756 -2.0538
  779MOL0     H 2775   3.786   3.394   6.955  1.6236 -1.7821  0.0638
  779MOL0     H 2776   3.860   3.359   6.796  1.2357 -0.8712  1.8423
  779MOL0     H 2777   3.633   3.409   6.703 -4.6581 -0.9395 -0.4940
  779MOL0     H 2778   3.631   3.275   6.820  4.7981 -0.1482 -1.3419
  779MOL0     H 2779   3.530   3.571   6.843  1.1882  0.0178 -0.1150
  779MOL0     H 2780   3.562   3.468   6.989  1.3541  1.5616  0.0690
  779MOL0     H 2781   3.352   3.311   7.057  0.9998 -0.8673  0.0047
  779MOL0     H 2782   3.010   3.358   6.958  2.0664  2.2665  1.6036
  779MOL0     H 2783   3.104   3.235   7.043  2.8694 -0.0996 -0.9333
  779MOL0     H 2784   3.020   3.217   6.746  0.5658  3.3228  0.7457
  779MOL0     H 2785   2.896   3.188   6.858 -0.4420 -0.1522 -0.5324
  779MOL0     H 2786   3.033   3.000   6.965  1.1431 -0.2880  0.6353
  779MOL0     H 2787   2.995   2.974   6.788  0.9760 -1.4714  0.6526
  779MOL0     H 2788   3.217   2.904   6.827 -1.0197 -0.6109  2.1974
  779MOL0     H 2789   3.260   3.048   6.908 -2.2035 -2.0517  2.3735
  779MOL0     H 2790   3.344   3.214   6.501  0.8495 -0.0285 -0.2613
  779MOL0     H 2791   3.562   3.190   6.420  0.4072  3.7748  1.5788
  779MOL0     H 2792   4.026   3.307   6.553  0.3313  1.1803  0.1590
  779MOL0     H 2793   4.259   3.312   6.537 -2.4257  2.4340  1.5089
  779MOL0     H 2794   4.462   3.144   6.861 -0.4174  1.5445 -1.0315
  779MOL0     H 2795   4.481   3.299   6.793 -1.4947  0.3409 -1.9139
  779MOL0     H 2796   4.674   3.214   6.868 -2.7155  0.2866  0.5298
  779MOL0     H 2797   4.703   3.243   6.695  1.1551 -0.0206  0.6190
  779MOL0     H 2798   4.668   3.011   6.631 -0.1884 -0.6651 -0.4043
  779MOL0     H 2799   4.610   2.955   6.787  1.2549 -0.3722  2.7974
  779MOL0     H 2800   4.905   3.018   6.734 -0.3082 -0.9463 -1.7419
  779MOL0     H 2801   4.819   3.028   6.895  1.7810  1.9868 -0.4044
  779MOL0     H 2802   4.752   2.789   6.869 -0.5788 -0.6333 -1.7583
  779MOL0     H 2803   4.929   2.808   6.857 -0.1909  0.1684  0.5783
  779MOL0     H 2804   4.912   2.802   6.613  1.2159 -0.8845  0.7205
  779MOL0     H 2805   4.728   2.773   6.627 -1.7737 -2.2432  0.8775
  779MOL0     H 2806   4.917   2.591   6.778 -2.8999 -1.3269  0.2925
  779MOL0     H 2807   4.771   2.568   6.725 -0.1705  0.8688  3.3694
  779MOL0     H 2808   4.883   2.605   6.469  1.3457 -0.0177 -0.0194
  779MOL0     H 2809   4.840   2.462   6.549 -2.7154  1.6422 -2.1216
  779MOL0     H 2810   4.273   2.959   6.796  2.8652  0.3183 -3.1004
  779MOL0     H 2811   4.039   2.960   6.801 -2.2600 -0.1539 -1.0835
  779MOL0     H 2812   3.685   3.016   6.798 -1.7111 -2.1602  1.3547
  779MOL0     H 2813   3.442   2.969   6.836 -0.2167  0.7646 -0.2374
  779MOL0     H 2814   4.435   3.508   6.535 -1.3247 -0.2321  1.7797
  779MOL0     H 2815   4.642   3.445   6.407 -0.7981  1.3065 -0.7516
  779MOL0     H 2816   5.005   3.820   6.246  0.0819  1.2577  0.3772
  779MOL0     H 2817   5.229   3.878   6.209  1.7874 -0.8038 -0.1865
  779MOL0     H 2818   5.424   3.976   6.402  1.3554  0.2222  1.6298
  779MOL0     H 2819   5.424   3.936   6.231 -1.3856  0.8856  0.5401
  779MOL0     H 2820   5.652   4.048   6.303  4.0472 -0.5011  0.8172
  779MOL0     H 2821   5.663   3.932   6.427 -0.4989  2.9143  0.3529
  779MOL0     H 2822   5.661   3.850   6.127 -0.2015  1.9623 -0.3317
  779MOL0     H 2823   5.686   3.750   6.258 -1.0953  1.6599  1.3729
  779MOL0     H 2824   5.861   3.980   6.139 -1.2678  0.6626  0.5810
  779MOL0     H 2825   5.898   3.924   6.303 -2.0764  1.8342  1.3912
  779MOL0     H 2826   6.006   3.638   5.994  3.3409 -0.9599  2.2983
  779MOL0     H 2827   5.361   3.545   6.449 -2.5035 -3.1486  0.1749
  779MOL0     H 2828   5.136   3.481   6.486  0.9853  0.6787  0.5574
  780MOL0     O 2829   6.760   6.199   6.651  0.0931  1.2864 -0.2769
  780MOL0     C 2830   6.770   6.301   6.710 -0.5676  0.0192  0.7642
  780MOL0     O 2831   6.669   6.378   6.757 -0.5340  0.4490 -0.7057
  780MOL0     C 2832   6.541   6.332   6.751 -0.9762 -0.5895  0.0607
  780MOL0     C 2833   6.465   6.332   6.874 -0.0599  0.4352 -0.1436
  780MOL0     C 2834   6.340   6.268   6.870  0.2704 -0.1411 -0.4207
  780MOL0     C 2835   6.278   6.224   6.756 -0.4670  0.0328  0.4844
  780MOL0     O 2836   6.158   6.164   6.774  0.6124 -0.6833 -0.1775
  780MOL0     C 2837   6.096   6.076   6.677 -0.0550  0.6598 -0.2247
  780MOL0     C 2838   5.956   6.044   6.729 -0.4797 -0.6150  0.1899
  780MOL0     C 2839   5.880   5.991   6.598  0.5747  0.2514 -0.1271
  780MOL0     C 2840   5.735   5.967   6.623 -0.2057  0.2414 -0.0019
  780MOL0     C 2841   5.668   5.862   6.537  0.7181  0.1204 -0.5366
  780MOL0     C 2842   5.510   5.863   6.545  0.8989 -0.3577 -0.8737
  780MOL0     C 2843   5.459   5.830   6.689  0.1152  1.1163 -0.8074
  780MOL0     C 2844   5.465   5.677   6.723 -0.9636 -1.2360 -0.1228
  780MOL0     N 2845   5.397   5.577   6.649 -0.4685 -1.1517 -0.4829
  780MOL0     C 2846   5.268   5.552   6.655  0.6535 -0.8361  0.0668
  780MOL0     C 2847   5.243   5.441   6.573  0.3868  0.5868 -0.8448
  780MOL0     C 2848   5.111   5.372   6.557 -0.2756  0.1708 -0.2634
  780MOL0     C 2849   4.999   5.480   6.560  0.4127  0.0565  0.0966
  780MOL0     C 2850   4.860   5.433   6.527  0.7030  0.2587 -0.1187
  780MOL0     C 2851   4.745   5.529   6.571 -0.4310 -0.7249 -0.2296
  780MOL0     O 2852   4.746   5.646   6.486 -0.0311 -0.0707  0.5240
  780MOL0     C 2853   4.637   5.725   6.477  0.6111  0.5826 -0.5594
  780MOL0     C 2854   4.648   5.848   6.416  0.4692 -0.2555  0.8275
  780MOL0     C 2855   4.542   5.939   6.416 -0.6230  0.2258  0.7574
  780MOL0     C 2856   4.410   5.907   6.455 -0.9571 -0.3995 -0.2808
  780MOL0     C 2857   4.299   5.999   6.451 -0.3099  0.0072  0.8710
  780MOL0     O 2858   4.190   5.978   6.527 -0.1123  0.6421 -0.0695
  780MOL0     C 2859   4.085   6.069   6.516 -0.8639  0.0979 -0.2770
  780MOL0     C 2860   3.956   6.022   6.492  0.4243 -0.1154  0.1835
  780MOL0     C 2861   3.842   6.113   6.488  0.3570 -0.5578 -0.1213
  780MOL0     C 2862   3.870   6.255   6.507 -0.1490 -0.0869 -0.6951
  780MOL0     O 2863   3.765   6.343   6.507  0.2362 -0.2810  0.1493
  780MOL0     C 2864   3.797   6.476   6.464  0.2681 -0.3276  0.4595
  780MOL0     C 2865   3.826   6.479   6.312  0.1805  0.1066  0.3263
  780MOL0     C 2866   3.823   6.627   6.260 -0.2631  0.4310  0.0977
  780MOL0     C 2867   3.835   6.646   6.112 -0.6243  0.0342  0.0004
  780MOL0     C 2868   3.706   6.625   6.038  0.6507 -0.9754  0.1952
  780MOL0     C 2869   3.592   6.719   6.047 -0.3634 -0.7065 -0.5573
  780MOL0     C 2870   3.479   6.677   5.945  0.0985  0.5021  0.1592
  780MOL0     C 2871   3.352   6.753   5.975 -0.3309 -0.2881 -0.5505
  780MOL0    Cl 2872   3.224   6.669   5.891 -0.3556 -0.4235  0.2340
  780MOL0     C 2873   4.000   6.297   6.531 -0.0264 -0.9910 -0.2870
  780MOL0     C 2874   4.106   6.205   6.534  0.3941 -0.0392  0.1850
  780MOL0     O 2875   4.324   6.095   6.382  0.2252  0.7826  0.1118
  780MOL0     C 2876   4.391   5.779   6.512  0.0891 -0.2966  0.6000
  780MOL0     C 2877   4.506   5.689   6.519 -0.0160  0.4591 -0.6408
  780MOL0     N 2878   5.361   5.417   6.505  0.3460 -0.1663  0.5825
  780MOL0     N 2879   5.452   5.485   6.562 -0.3904  0.2243 -0.1532
  780MOL0     C 2880   6.346   6.236   6.636 -1.6397  0.0822  0.4633
  780MOL0     C 2881   6.474   6.296   6.630 -0.0198  0.4422 -0.2662
  780MOL0     C 2882   6.909   6.371   6.719  0.3735  0.5427 -0.0001
  780MOL0     C 2883   6.926   6.505   6.750  0.0198 -0.4129 -0.0312
  780MOL0     C 2884   7.049   6.564   6.789  0.3100 -0.1648 -0.2743
  780MOL0     C 2885   7.160   6.487   6.780  1.1032 -0.1181  0.5496
  780MOL0     O 2886   7.279   6.534   6.821 -0.4097 -0.4055  0.0607
  780MOL0     C 2887   7.321   6.643   6.735 -0.1091  0.0002  0.1515
  780MOL0     C 2888   7.470   6.645   6.747 -0.8888 -0.5263  0.7601
  780MOL0     C 2889   7.535   6.547   6.635  0.0040 -0.4003 -1.0438
  780MOL0     C 2890   7.692   6.552   6.639  0.2644  0.3759  0.3393
  780MOL0     C 2891   7.755   6.492   6.758 -0.2825 -1.2217  0.8585
  780MOL0     C 2892   7.804   6.439   6.859 -0.4035  0.3253  1.4103
  780MOL0     C 2893   7.151   6.351   6.743  0.6610 -0.0448  0.4218
  780MOL0     C 2894   7.021   6.289   6.709 -0.3000 -0.8682  0.1287
  780MOL0     H 2895   6.501   6.372   6.968 -2.4894  3.0804 -0.2073
  780MOL0     H 2896   6.301   6.272   6.971 -0.9030  0.6892 -0.8862
  780MOL0     H 2897   6.152   5.983   6.663 -0.5903  0.1849  0.6635
  780MOL0     H 2898   6.090   6.122   6.578  1.0882 -0.2730 -0.7513
  780MOL0     H 2899   5.900   6.132   6.763  0.1588 -0.1054 -0.0415
  780MOL0     H 2900   5.957   5.969   6.809  1.6570  0.7383  1.5463
  780MOL0     H 2901   5.930   5.898   6.567  3.1470  2.5095 -3.3840
  780MOL0     H 2902   5.877   6.062   6.516 -0.4188  0.8562  0.4144
  780MOL0     H 2903   5.723   5.935   6.727  0.5346 -3.1105 -0.8375
  780MOL0     H 2904   5.678   6.061   6.624 -0.0963  0.3106  0.7385
  780MOL0     H 2905   5.702   5.763   6.568  1.5648  0.3026 -0.8609
  780MOL0     H 2906   5.697   5.876   6.433  0.5130 -0.4375 -0.6701
  780MOL0     H 2907   5.472   5.783   6.481 -0.4877 -0.7276  0.3725
  780MOL0     H 2908   5.470   5.961   6.519 -0.0947  0.3561  2.7430
  780MOL0     H 2909   5.505   5.886   6.770 -0.3964  0.3361  0.0483
  780MOL0     H 2910   5.351   5.846   6.696 -0.1421 -1.1238  2.3865
  780MOL0     H 2911   5.416   5.655   6.818 -2.6374 -2.2694 -1.1837
  780MOL0     H 2912   5.569   5.644   6.733 -0.2968  0.6753 -0.2660
  780MOL0     H 2913   5.208   5.598   6.733 -0.1959 -1.4066 -0.2472
  780MOL0     H 2914   5.094   5.309   6.644 -1.3819  0.1826 -0.4505
  780MOL0     H 2915   5.115   5.313   6.465 -1.1284 -1.6687  0.8485
  780MOL0     H 2916   5.033   5.548   6.481 -0.2075  3.0234  2.1983
  780MOL0     H 2917   5.003   5.528   6.658 -1.3600  2.2036 -0.7938
  780MOL0     H 2918   4.841   5.419   6.420 -3.3701 -2.0481  0.7043
  780MOL0     H 2919   4.843   5.337   6.576  1.3326  0.8366  1.2810
  780MOL0     H 2920   4.760   5.562   6.674 -2.5768  0.7919 -0.3245
  780MOL0     H 2921   4.652   5.471   6.572 -0.8608 -0.2557 -3.0880
  780MOL0     H 2922   4.744   5.889   6.384  0.2405  1.9789  2.7078
  780MOL0     H 2923   4.559   6.028   6.358  3.5699 -1.6498 -1.3248
  780MOL0     H 2924   3.941   5.916   6.476  1.7277 -0.2297 -0.4062
  780MOL0     H 2925   3.739   6.081   6.494  0.4973 -1.1903 -0.9598
  780MOL0     H 2926   3.880   6.519   6.521 -0.4025  0.2307  1.0365
  780MOL0     H 2927   3.710   6.539   6.485  0.6087  0.3180 -0.0481
  780MOL0     H 2928   3.749   6.413   6.272  0.2306 -0.3369  0.9494
  780MOL0     H 2929   3.921   6.429   6.296 -0.1618  0.0829 -1.9108
  780MOL0     H 2930   3.911   6.675   6.305  0.6530 -2.1917  1.3136
  780MOL0     H 2931   3.739   6.676   6.311 -0.0707 -1.8388  2.8477
  780MOL0     H 2932   3.875   6.747   6.098 -2.0220  0.6377  0.1019
  780MOL0     H 2933   3.906   6.575   6.070 -0.5990 -1.8242  2.9044
  780MOL0     H 2934   3.681   6.519   6.034  1.4547 -1.1872 -4.0099
  780MOL0     H 2935   3.746   6.639   5.937 -2.9120  0.7413 -1.1289
  780MOL0     H 2936   3.620   6.820   6.016 -2.9172  0.7591  1.5066
  780MOL0     H 2937   3.551   6.730   6.148  1.7468  0.3816  0.2492
  780MOL0     H 2938   3.506   6.697   5.841 -1.7224  2.7342  0.0549
  780MOL0     H 2939   3.459   6.570   5.957 -0.1655  0.5283 -0.0319
  780MOL0     H 2940   3.360   6.857   5.941 -0.0119  0.5228  1.8106
  780MOL0     H 2941   3.344   6.748   6.084  1.9930  3.1699 -0.0469
  780MOL0     H 2942   4.031   6.401   6.536 -0.6678 -0.8479  0.9321
  780MOL0     H 2943   4.203   6.247   6.560  0.2221  0.0054  0.7696
  780MOL0     H 2944   4.291   5.756   6.545  0.1619  0.3920  1.3278
  780MOL0     H 2945   4.488   5.599   6.578 -2.0424  1.1099 -0.1621
  780MOL0     H 2946   6.301   6.206   6.542 -2.5852  2.7309 -0.0023
  780MOL0     H 2947   6.520   6.311   6.533  1.0072 -1.5177 -0.1238
  780MOL0     H 2948   6.835   6.565   6.750 -1.5943 -2.6926 -1.9210
  780MOL0     H 2949   7.043   6.667   6.822  1.1547  0.2143 -1.2594
  780MOL0     H 2950   7.278   6.733   6.780  0.2546 -0.3420  1.2153
  780MOL0     H 2951   7.282   6.637   6.633 -3.2315  0.3179  1.2353
  780MOL0     H 2952   7.523   6.733   6.709 -1.3442 -0.1780  0.9261
  780MOL0     H 2953   7.503   6.632   6.851  0.6557 -0.1377  0.3495
  780MOL0     H 2954   7.505   6.578   6.534  1.0310 -2.1500 -1.9229
  780MOL0     H 2955   7.497   6.446   6.650 -2.6649  0.6088 -0.4983
  780MOL0     H 2956   7.739   6.503   6.553  2.3155 -0.9602  2.1218
  780MOL0     H 2957   7.724   6.656   6.634  3.1879 -0.4491  0.3390
  780MOL0     H 2958   7.824   6.387   6.950 -0.1155  0.9278  1.6924
  780MOL0     H 2959   7.236   6.284   6.749  0.0246 -1.0312 -1.0488
  780MOL0     H 2960   7.016   6.181   6.699 -2.0885 -0.7399 -0.6693
  781MOL0     O 2961   7.200   4.808   8.169 -0.2595 -0.0651 -0.2825
  781MOL0     C 2962   7.309   4.854   8.195  0.1612  0.3440 -0.0692
  781MOL0     O 2963   7.342   4.944   8.295  0.2706 -0.1667  0.1998
  781MOL0     C 2964   7.230   4.997   8.367 -0.3826  0.1490 -0.0347
  781MOL0     C 2965   7.230   5.126   8.407 -0.1339  0.2689 -1.1511
  781MOL0     C 2966   7.138   5.181   8.499  0.4878  0.5920 -0.4601
  781MOL0     C 2967   7.039   5.099   8.559  0.3511 -0.1682 -0.5950
  781MOL0     O 2968   6.952   5.136   8.655 -0.3487  0.1825 -0.5378
  781MOL0     C 2969   6.966   5.265   8.721  0.2128 -0.3235 -0.6754
  781MOL0     C 2970   6.894   5.376   8.645  0.3370  0.1006 -0.2359
  781MOL0     C 2971   6.737   5.370   8.636  0.7008 -0.1787  0.5841
  781MOL0     C 2972   6.684   5.477   8.538 -0.1131 -0.3926  0.9448
  781MOL0     C 2973   6.533   5.463   8.517  0.3961 -0.2822 -0.0528
  781MOL0     C 2974   6.470   5.517   8.392 -0.2420  0.1970  0.4878
  781MOL0     C 2975   6.490   5.671   8.369 -0.3259  0.0011 -0.2427
  781MOL0     C 2976   6.412   5.757   8.463 -0.4816 -0.3197 -0.1867
  781MOL0     N 2977   6.271   5.759   8.435  0.0940 -1.0667  0.3698
  781MOL0     C 2978   6.170   5.696   8.500  0.2731 -0.4527  0.4769
  781MOL0     C 2979   6.062   5.718   8.418 -0.0525  0.2434  0.5791
  781MOL0     C 2980   5.927   5.650   8.431  0.4705 -0.1924  0.0373
  781MOL0     C 2981   5.812   5.754   8.411 -0.1847 -0.0664 -0.3856
  781MOL0     C 2982   5.680   5.688   8.454  0.7159 -0.9858 -0.2008
  781MOL0     C 2983   5.552   5.774   8.437 -0.0615 -0.4348  1.6717
  781MOL0     O 2984   5.439   5.697   8.480  0.2658  0.4192  0.1907
  781MOL0     C 2985   5.315   5.749   8.480  0.7366 -0.4285  0.7659
  781MOL0     C 2986   5.215   5.675   8.531  0.3633  0.1456 -0.3013
  781MOL0     C 2987   5.082   5.720   8.535 -0.8510 -0.1765  0.2980
  781MOL0     C 2988   5.041   5.839   8.478  0.7744 -1.4476  0.6365
  781MOL0     C 2989   4.896   5.877   8.480 -0.4432  0.0118  0.2529
  781MOL0     O 2990   4.814   5.810   8.569 -0.4835 -1.0438 -0.7289
  781MOL0     C 2991   4.683   5.778   8.542 -0.1339  0.0599  0.7284
  781MOL0     C 2992   4.617   5.726   8.658  0.4179 -1.1765 -0.4525
  781MOL0     C 2993   4.485   5.681   8.645  0.0986  0.4212  0.3710
  781MOL0     C 2994   4.415   5.687   8.529 -0.1303 -0.4650  0.6262
  781MOL0     O 2995   4.283   5.653   8.527 -0.1852 -0.2375 -0.2085
  781MOL0     C 2996   4.211   5.629   8.404  0.2189 -0.1344  0.0025
  781MOL0     C 2997   4.072   5.587   8.430 -0.2574 -0.0225 -0.0700
  781MOL0     C 2998   4.004   5.687   8.520 -0.1194 -0.4353  0.2062
  781MOL0     C 2999   3.854   5.678   8.513 -0.3300 -0.2481  1.2250
  781MOL0     C 3000   3.804   5.793   8.614  0.5731 -0.0666 -0.1865
  781MOL0     C 3001   3.645   5.805   8.595  1.0862  0.6153  0.0738
  781MOL0     C 3002   3.565   5.698   8.675 -0.4205  0.0140  0.5651
  781MOL0     C 3003   3.462   5.764   8.768  0.1635  0.1413 -0.0154
  781MOL0    Cl 3004   3.364   5.882   8.680  0.0059 -0.6115  0.4143
  781MOL0     C 3005   4.479   5.736   8.414 -0.6261 -0.2102 -0.0507
  781MOL0     C 3006   4.613   5.787   8.422  0.6925  0.6132  1.0369
  781MOL0     O 3007   4.863   5.967   8.400  0.2848 -0.5686 -1.2443
  781MOL0     C 3008   5.144   5.911   8.406 -0.5264  0.2514 -0.2858
  781MOL0     C 3009   5.283   5.877   8.423 -0.8638  0.2155  0.8256
  781MOL0     N 3010   6.105   5.805   8.321  0.1997 -0.7432 -0.0811
  781MOL0     N 3011   6.228   5.830   8.326  0.7034  0.3404 -0.4439
  781MOL0     C 3012   7.023   4.977   8.499  0.0122 -0.5782 -0.0496
  781MOL0     C 3013   7.120   4.918   8.417 -0.4299  0.2553 -0.3326
  781MOL0     C 3014   7.423   4.798   8.115  0.8206  0.2017  0.6608
  781MOL0     C 3015   7.551   4.813   8.156 -0.5778  1.0062  0.4090
  781MOL0     C 3016   7.658   4.743   8.084  0.1694  0.6276 -0.0936
  781MOL0     C 3017   7.628   4.660   7.972  0.1226 -0.2582  0.2665
  781MOL0     O 3018   7.722   4.597   7.888  0.2711 -0.0219 -0.8358
  781MOL0     C 3019   7.863   4.595   7.929  0.1566  0.3122  0.7990
  781MOL0     C 3020   7.934   4.487   7.847  0.1424 -0.0373 -0.4220
  781MOL0     C 3021   8.089   4.481   7.882 -0.7369  0.7415 -0.6042
  781MOL0     C 3022   8.108   4.374   8.003 -0.0990 -0.3803  0.6483
  781MOL0     C 3023   8.245   4.327   8.014 -0.8572 -0.6366 -0.1028
  781MOL0     C 3024   8.357   4.288   8.036 -0.2096  0.4006 -0.0383
  781MOL0     C 3025   7.502   4.647   7.930  0.7928  0.4831 -0.8992
  781MOL0     C 3026   7.400   4.709   8.012  0.5870  0.0994  0.4504
  781MOL0     H 3027   7.308   5.199   8.387  2.4997 -2.1960 -0.6563
  781MOL0     H 3028   7.153   5.285   8.524 -1.3817  1.9355 -4.1428
  781MOL0     H 3029   7.069   5.293   8.744 -0.3913 -0.7867  3.2259
  781MOL0     H 3030   6.916   5.258   8.818  3.1747 -1.8756  0.8795
  781MOL0     H 3031   6.941   5.364   8.547  1.1165 -1.2016  0.2597
  781MOL0     H 3032   6.918   5.476   8.681 -0.0936  0.0225  0.2940
  781MOL0     H 3033   6.698   5.380   8.738 -1.0026 -2.7993  0.2845
  781MOL0     H 3034   6.707   5.271   8.599  2.4570 -1.6811  2.9209
  781MOL0     H 3035   6.690   5.581   8.573  1.0019  0.1188 -0.6525
  781MOL0     H 3036   6.745   5.467   8.448 -0.5875  0.9700  0.4405
  781MOL0     H 3037   6.475   5.501   8.602  0.0541  1.1404 -0.8925
  781MOL0     H 3038   6.503   5.358   8.517  0.9562 -0.5216 -2.9286
  781MOL0     H 3039   6.364   5.489   8.384 -0.3138  0.4169  0.6391
  781MOL0     H 3040   6.527   5.465   8.315  0.3430 -0.2999  1.2499
  781MOL0     H 3041   6.596   5.699   8.374 -0.7839  1.8087 -0.0989
  781MOL0     H 3042   6.464   5.701   8.267  1.8151 -0.8748 -1.1082
  781MOL0     H 3043   6.453   5.858   8.462  0.4459 -0.6099 -3.2899
  781MOL0     H 3044   6.430   5.733   8.568  0.8756  4.8296  1.0176
  781MOL0     H 3045   6.176   5.631   8.586 -2.3705 -0.2225  0.9215
  781MOL0     H 3046   5.915   5.591   8.522 -0.1262 -0.5634 -0.2735
  781MOL0     H 3047   5.900   5.584   8.349 -2.3569 -1.2378  1.6456
  781MOL0     H 3048   5.804   5.786   8.306  2.3423  3.9869  0.4326
  781MOL0     H 3049   5.835   5.843   8.470  0.3279  1.8491 -3.2299
  781MOL0     H 3050   5.664   5.598   8.393  2.3485 -2.4072  1.3638
  781MOL0     H 3051   5.680   5.653   8.557 -0.1192 -1.9578 -0.5106
  781MOL0     H 3052   5.559   5.802   8.332 -1.3487  2.2388  2.2164
  781MOL0     H 3053   5.560   5.871   8.487  2.4794  0.1925  0.1884
  781MOL0     H 3054   5.229   5.580   8.582 -2.5137  0.8156  2.0357
  781MOL0     H 3055   5.018   5.650   8.586 -1.7688  1.3434  1.3296
  781MOL0     H 3056   4.675   5.716   8.749 -0.0878 -1.5535 -0.1709
  781MOL0     H 3057   4.430   5.641   8.731  1.1434 -1.0038  0.4130
  781MOL0     H 3058   4.257   5.546   8.349 -0.3985 -1.2867  1.1947
  781MOL0     H 3059   4.213   5.717   8.339 -3.3466 -0.8213 -1.2605
  781MOL0     H 3060   4.071   5.491   8.482 -0.1294  0.5780  1.0610
  781MOL0     H 3061   4.027   5.576   8.330 -1.2194  1.4729  0.1647
  781MOL0     H 3062   4.038   5.788   8.499  0.4585 -0.5126  0.7491
  781MOL0     H 3063   4.049   5.669   8.618 -1.6042  3.1061  1.7032
  781MOL0     H 3064   3.805   5.697   8.417 -2.1178  1.9278  2.4531
  781MOL0     H 3065   3.825   5.580   8.552  1.2706 -1.1565  0.2301
  781MOL0     H 3066   3.856   5.885   8.587  0.8513  0.5263  2.2091
  781MOL0     H 3067   3.825   5.758   8.715 -0.9348 -2.2229 -0.5468
  781MOL0     H 3068   3.622   5.798   8.488 -0.2795 -1.1752  0.4329
  781MOL0     H 3069   3.602   5.902   8.624 -1.5407 -1.0237  2.0764
  781MOL0     H 3070   3.519   5.634   8.599  2.5490 -1.6285  0.0350
  781MOL0     H 3071   3.636   5.637   8.731 -0.4953 -0.6291 -0.0286
  781MOL0     H 3072   3.504   5.827   8.847 -2.2156  2.1493 -0.2359
  781MOL0     H 3073   3.402   5.682   8.809 -0.1059  1.2624  1.9517
  781MOL0     H 3074   4.421   5.746   8.323  0.3140  0.5552 -0.5933
  781MOL0     H 3075   4.644   5.850   8.339  2.0012  0.1899  1.1952
  781MOL0     H 3076   5.126   6.009   8.363 -0.4990  0.9200  1.1521
  781MOL0     H 3077   5.356   5.934   8.368  0.5495 -0.0703  2.3215
  781MOL0     H 3078   6.941   4.924   8.546 -1.8763 -0.1016 -2.5856
  781MOL0     H 3079   7.113   4.811   8.398  0.5113  0.1002  0.1700
  781MOL0     H 3080   7.574   4.876   8.241  0.1428 -0.5135  1.3915
  781MOL0     H 3081   7.753   4.757   8.135 -0.4752  2.1341  0.7652
  781MOL0     H 3082   7.871   4.581   8.037 -2.1523 -1.3177  0.8351
  781MOL0     H 3083   7.910   4.688   7.896  0.7384 -1.3021 -3.5085
  781MOL0     H 3084   7.885   4.389   7.855 -0.8816  0.5312  0.4367
  781MOL0     H 3085   7.923   4.511   7.741 -0.9999 -0.4529 -0.4097
  781MOL0     H 3086   8.132   4.578   7.908 -0.4988  0.0559  1.8222
  781MOL0     H 3087   8.157   4.448   7.803  1.0996  4.4430 -0.7979
  781MOL0     H 3088   8.075   4.417   8.098  0.8603 -2.5496  2.0416
  781MOL0     H 3089   8.040   4.294   7.978  0.3229 -0.0718 -1.6573
  781MOL0     H 3090   8.447   4.236   8.062 -0.9943 -0.3806  1.2416
  781MOL0     H 3091   7.483   4.592   7.839  1.0499  1.4677 -1.5609
  781MOL0     H 3092   7.296   4.697   7.982  1.0093  1.7700 -1.9723
  782MOL0     O 3093   1.975   7.491  11.103  0.2272  0.0868  0.2544
  782MOL0     C 3094   1.972   7.505  10.979  0.3069 -0.8501 -0.1899
  782MOL0     O 3095   1.883   7.590  10.914 -0.0819  0.3248 -0.6895
  782MOL0     C 3096   1.768   7.645  10.954  0.5184  0.7081 -1.7105
  782MOL0     C 3097   1.693   7.615  11.074  0.3448  0.3762 -0.4667
  782MOL0     C 3098   1.566   7.672  11.093  0.7590  0.4308  0.5287
  782MOL0     C 3099   1.512   7.762  11.005  1.0266 -0.7500 -0.1632
  782MOL0     O 3100   1.382   7.806  11.019  0.2913  0.5009  0.3124
  782MOL0     C 3101   1.361   7.936  11.076 -0.2042  0.9482 -0.6091
  782MOL0     C 3102   1.337   7.927  11.217  0.0389  0.8173 -0.3686
  782MOL0     C 3103   1.226   7.817  11.258  0.9986 -0.7289 -0.4830
  782MOL0     C 3104   1.097   7.829  11.182  0.2125 -0.3803  0.9688
  782MOL0     C 3105   1.033   7.965  11.175  0.2252 -0.2509  0.0390
  782MOL0     C 3106   0.995   8.016  11.321 -0.2119 -0.3498 -0.3892
  782MOL0     C 3107   0.897   8.135  11.303  0.1339  0.4421  0.3347
  782MOL0     C 3108   0.859   8.204  11.437  0.9909  0.5853  0.2893
  782MOL0     N 3109   0.746   8.301  11.422  0.0963  0.3443  0.4659
  782MOL0     C 3110   0.740   8.427  11.377  0.2342  0.3349 -0.0962
  782MOL0     C 3111   0.609   8.468  11.381 -0.3410  0.1252 -0.8037
  782MOL0     C 3112   0.552   8.608  11.348  0.2319 -0.2289  0.2717
  782MOL0     C 3113   0.458   8.603  11.221  0.2939  0.3737 -0.3101
  782MOL0     C 3114   0.519   8.599  11.080 -1.0859  0.4486  0.2355
  782MOL0     C 3115   0.627   8.485  11.070 -0.0397 -0.1793  0.5903
  782MOL0     O 3116   0.659   8.494  10.931  0.1038  0.5565  0.7813
  782MOL0     C 3117   0.770   8.430  10.888  0.0586 -0.4504 -0.3537
  782MOL0     C 3118   0.805   8.305  10.939  0.5603  0.4011  0.1604
  782MOL0     C 3119   0.931   8.244  10.912  0.3374  0.0930 -0.0066
  782MOL0     C 3120   1.030   8.311  10.843 -0.5698 -0.8311  0.5034
  782MOL0     C 3121   1.162   8.259  10.816 -0.6183  0.4701 -0.4626
  782MOL0     O 3122   1.215   8.279  10.695 -0.5247 -0.1500 -0.3483
  782MOL0     C 3123   1.329   8.210  10.664 -0.3764  0.3036 -0.3486
  782MOL0     C 3124   1.339   8.072  10.650 -0.5293 -0.8474 -1.2253
  782MOL0     C 3125   1.451   8.012  10.611  0.8872  0.4870 -0.6885
  782MOL0     C 3126   1.566   8.085  10.585 -0.0927 -0.0601  1.0185
  782MOL0     O 3127   1.686   8.017  10.557 -0.3689  0.4898  0.1444
  782MOL0     C 3128   1.791   8.085  10.500 -0.1829  1.0643 -0.3552
  782MOL0     C 3129   1.899   7.983  10.512 -0.6559 -0.1729  1.1407
  782MOL0     C 3130   2.024   8.061  10.469 -0.8527 -0.3773 -0.1035
  782MOL0     C 3131   2.028   8.108  10.319 -0.7279  0.0200 -0.7677
  782MOL0     C 3132   2.167   8.145  10.266  0.6401 -0.7775 -0.6372
  782MOL0     C 3133   2.167   8.200  10.121  0.5327  0.4143  0.4460
  782MOL0     C 3134   2.307   8.246  10.092 -0.9125 -0.2233  0.2615
  782MOL0     C 3135   2.331   8.286   9.941 -0.1495 -0.1921 -0.6723
  782MOL0    Cl 3136   2.228   8.428   9.883  0.2184 -0.0609  0.0060
  782MOL0     C 3137   1.567   8.229  10.606  0.0249  0.4803 -0.8046
  782MOL0     C 3138   1.445   8.288  10.648  0.3882 -0.7871  0.1215
  782MOL0     O 3139   1.210   8.201  10.909  0.1279  0.0821  0.0751
  782MOL0     C 3140   0.991   8.437  10.790 -0.1524  0.6625  0.0560
  782MOL0     C 3141   0.862   8.495  10.809 -0.8843  0.3836  0.9107
  782MOL0     N 3142   0.536   8.359  11.426  0.6640 -0.1555  0.4232
  782MOL0     N 3143   0.621   8.263  11.453  0.2966  0.8877 -0.8673
  782MOL0     C 3144   1.584   7.796  10.890  0.1463  0.4734 -0.0882
  782MOL0     C 3145   1.717   7.745  10.876 -0.1032  0.5561  0.2015
  782MOL0     C 3146   2.071   7.432  10.900 -0.4214  0.4392  0.3439
  782MOL0     C 3147   2.164   7.348  10.955 -0.1600  0.7467 -0.8537
  782MOL0     C 3148   2.268   7.281  10.884 -0.2248 -0.5037  0.2649
  782MOL0     C 3149   2.273   7.287  10.747 -0.0320 -0.2395  0.1883
  782MOL0     O 3150   2.372   7.220  10.685 -0.0647  0.8566 -0.2729
  782MOL0     C 3151   2.382   7.232  10.540 -0.0341 -0.4311 -0.5286
  782MOL0     C 3152   2.489   7.141  10.493 -0.8424  0.6536 -0.1068
  782MOL0     C 3153   2.461   7.022  10.402 -0.0426  0.3392 -0.0684
  782MOL0     C 3154   2.598   6.969  10.359  0.4300  0.2839 -0.3593
  782MOL0     C 3155   2.664   6.899  10.468  0.3177  0.1502 -0.1469
  782MOL0     C 3156   2.722   6.830  10.552  0.0698  0.0642  0.4402
  782MOL0     C 3157   2.187   7.372  10.685  0.9119 -0.4512  0.4300
  782MOL0     C 3158   2.091   7.447  10.759  0.4659 -0.2414  0.0953
  782MOL0     H 3159   1.722   7.537  11.143  0.7695 -1.2825 -2.4556
  782MOL0     H 3160   1.512   7.654  11.186 -0.8855  0.2759 -0.4177
  782MOL0     H 3161   1.272   7.979  11.030 -1.9098 -0.4225  1.2279
  782MOL0     H 3162   1.450   7.998  11.065  1.5411 -0.8428  2.0640
  782MOL0     H 3163   1.300   8.024  11.254 -2.9591 -0.9877  1.8497
  782MOL0     H 3164   1.427   7.899  11.272 -0.4174  0.2348  0.0886
  782MOL0     H 3165   1.195   7.843  11.360  2.3357 -1.5626  0.1488
  782MOL0     H 3166   1.263   7.715  11.265  3.5091 -0.0256 -2.0533
  782MOL0     H 3167   1.122   7.787  11.084  3.0891  2.0683  0.5217
  782MOL0     H 3168   1.024   7.769  11.237  1.5493 -1.2673  1.8405
  782MOL0     H 3169   0.944   7.955  11.113  0.6173  0.1472 -0.5973
  782MOL0     H 3170   1.095   8.039  11.125 -0.6617  0.2050 -0.4055
  782MOL0     H 3171   1.085   8.051  11.371 -2.0954  0.1261  2.9868
  782MOL0     H 3172   0.950   7.933  11.377  1.1398 -2.6635 -2.5123
  782MOL0     H 3173   0.939   8.217  11.243 -1.1746  1.5867  0.9220
  782MOL0     H 3174   0.807   8.098  11.252 -0.1589  1.0446  0.3985
  782MOL0     H 3175   0.946   8.253  11.482  1.6408 -1.2013  1.0756
  782MOL0     H 3176   0.841   8.130  11.515 -1.4297  1.0682  0.2454
  782MOL0     H 3177   0.826   8.490  11.356 -0.8580  1.9240  0.0200
  782MOL0     H 3178   0.629   8.683  11.332 -0.5350  0.5483  0.1386
  782MOL0     H 3179   0.491   8.636  11.435  0.0684 -2.0724  0.7997
  782MOL0     H 3180   0.392   8.690  11.232 -1.6022 -0.9306 -0.9916
  782MOL0     H 3181   0.380   8.526  11.225  0.2025  0.4959  0.5083
  782MOL0     H 3182   0.450   8.581  10.997  0.1981 -1.0245 -0.5786
  782MOL0     H 3183   0.567   8.697  11.069  0.2765 -0.0466  1.4437
  782MOL0     H 3184   0.584   8.387  11.089  0.2395 -0.9356 -2.1551
  782MOL0     H 3185   0.721   8.497  11.125  1.0962 -1.1354 -1.0700
  782MOL0     H 3186   0.740   8.251  11.006 -0.5812  1.9058  0.3167
  782MOL0     H 3187   0.950   8.149  10.961  1.3306 -0.4121 -1.3240
  782MOL0     H 3188   1.247   8.017  10.667 -2.9631  3.8107  3.5217
  782MOL0     H 3189   1.446   7.905  10.595 -1.0119  0.5508 -0.7510
  782MOL0     H 3190   1.814   8.170  10.565  0.4463 -1.2144  2.6149
  782MOL0     H 3191   1.769   8.112  10.396  0.1012 -0.5760 -0.8715
  782MOL0     H 3192   1.888   7.904  10.437  0.5034  1.1250 -0.4519
  782MOL0     H 3193   1.903   7.933  10.609  1.1864  0.4494  1.4176
  782MOL0     H 3194   2.106   7.991  10.489  0.2818  0.7773 -0.5515
  782MOL0     H 3195   2.035   8.144  10.540 -0.9683  0.0073 -0.5292
  782MOL0     H 3196   1.987   8.037  10.247 -1.1125 -0.3024 -0.2385
  782MOL0     H 3197   1.954   8.186  10.300  0.3910  1.3251  0.0363
  782MOL0     H 3198   2.238   8.062  10.276 -0.4704 -1.5917  1.0474
  782MOL0     H 3199   2.199   8.225  10.333 -2.8956  1.0359 -0.8776
  782MOL0     H 3200   2.101   8.288  10.116 -0.4857 -0.3748 -0.5890
  782MOL0     H 3201   2.138   8.121  10.052 -1.2890  2.0928 -0.8350
  782MOL0     H 3202   2.323   8.337  10.150  0.8298  1.3318 -2.4541
  782MOL0     H 3203   2.384   8.174  10.122  1.0549  0.2267 -3.1619
  782MOL0     H 3204   2.319   8.198   9.877  1.1398  0.3141 -1.6563
  782MOL0     H 3205   2.434   8.323   9.940 -0.3054  0.3183  0.4881
  782MOL0     H 3206   1.661   8.282  10.608  2.2003 -2.9814  2.8387
  782MOL0     H 3207   1.447   8.394  10.673 -1.8940 -0.7342  0.2960
  782MOL0     H 3208   1.073   8.480  10.734  1.4100 -1.5064  0.5222
  782MOL0     H 3209   0.833   8.590  10.765  0.0001  0.6428  0.8731
  782MOL0     H 3210   1.542   7.872  10.825 -3.3162 -2.8217 -2.1518
  782MOL0     H 3211   1.768   7.780  10.787 -2.9898 -1.8276 -2.6092
  782MOL0     H 3212   2.162   7.327  11.062 -0.4611 -0.5088 -1.0945
  782MOL0     H 3213   2.339   7.211  10.925 -1.7034 -1.9879  0.3866
  782MOL0     H 3214   2.408   7.336  10.520  0.4609 -0.3789  0.3455
  782MOL0     H 3215   2.286   7.200  10.498  0.6495  0.3860 -2.8831
  782MOL0     H 3216   2.549   7.215  10.439 -3.7391  4.6108  1.6068
  782MOL0     H 3217   2.552   7.107  10.575 -0.7133  2.4142  0.5735
  782MOL0     H 3218   2.409   7.062  10.315 -0.5479  0.4982  0.3001
  782MOL0     H 3219   2.398   6.942  10.443 -0.2358 -0.1890 -1.3469
  782MOL0     H 3220   2.600   6.910  10.266  0.4300 -0.3187  0.0146
  782MOL0     H 3221   2.657   7.054  10.323  1.2260  0.1448  0.5932
  782MOL0     H 3222   2.779   6.767  10.617  0.2728  0.1266  0.3247
  782MOL0     H 3223   2.173   7.381  10.578 -2.0010 -0.4902  0.7417
  782MOL0     H 3224   2.029   7.519  10.706 -0.6708 -0.7629  0.7004
  783MOL0     O 3225   3.843   6.210   2.850 -0.2737  0.5539 -0.8453
  783MOL0     C 3226   3.860   6.264   2.745  0.3493 -0.2483  0.3900
  783MOL0     O 3227   3.754   6.302   2.659 -0.2861  0.6691 -0.2164
  783MOL0     C 3228   3.620   6.281   2.689 -0.7858 -0.0782 -0.6747
  783MOL0     C 3229   3.559   6.253   2.814 -0.0229 -0.6515 -0.8724
  783MOL0     C 3230   3.419   6.220   2.826  0.7348 -0.5599  0.4807
  783MOL0     C 3231   3.341   6.226   2.711 -0.0207 -0.3400  0.1733
  783MOL0     O 3232   3.200   6.207   2.701 -0.2038  0.0487 -0.1914
  783MOL0     C 3233   3.130   6.205   2.824 -0.3995  0.2616 -0.2617
  783MOL0     C 3234   2.982   6.185   2.796  0.6051  1.0099  0.3707
  783MOL0     C 3235   2.887   6.178   2.921  0.8471 -1.1177  0.0109
  783MOL0     C 3236   2.896   6.295   3.016  0.7871  0.2388 -0.0225
  783MOL0     C 3237   2.833   6.249   3.149  0.6993 -0.2612  0.2539
  783MOL0     C 3238   2.677   6.245   3.152 -0.0543  0.0807 -0.1899
  783MOL0     C 3239   2.622   6.196   3.287 -0.2314 -0.7082  0.0048
  783MOL0     C 3240   2.469   6.182   3.265  0.6639 -0.1684  0.3831
  783MOL0     N 3241   2.417   6.107   3.384  0.3073 -0.3765  0.0303
  783MOL0     C 3242   2.414   5.969   3.399 -0.7331 -0.5511  0.0349
  783MOL0     C 3243   2.385   5.960   3.537  0.5245  0.2471  0.2149
  783MOL0     C 3244   2.387   5.835   3.619  0.5622  0.2166 -0.3648
  783MOL0     C 3245   2.265   5.737   3.594 -0.5949  0.6731 -0.4594
  783MOL0     C 3246   2.148   5.802   3.672  0.3023  0.1096  0.2092
  783MOL0     C 3247   2.011   5.728   3.639 -0.2255 -0.1194  0.0237
  783MOL0     O 3248   2.012   5.578   3.636 -0.6193 -0.1526  0.5827
  783MOL0     C 3249   1.892   5.516   3.677 -0.3191 -0.5503  0.8743
  783MOL0     C 3250   1.886   5.441   3.793  0.5870  0.5866 -0.4087
  783MOL0     C 3251   1.759   5.385   3.845 -0.3343 -1.1602  0.2663
  783MOL0     C 3252   1.642   5.410   3.766 -0.2538  0.3788 -0.6590
  783MOL0     C 3253   1.511   5.359   3.805  0.2883  0.0959 -1.2833
  783MOL0     O 3254   1.392   5.393   3.737 -0.0585  0.5023  0.1775
  783MOL0     C 3255   1.272   5.373   3.807 -0.2220 -0.6241  0.3693
  783MOL0     C 3256   1.197   5.259   3.775  0.6543 -0.4037 -0.0355
  783MOL0     C 3257   1.085   5.230   3.858  0.3929  0.1438  0.7147
  783MOL0     C 3258   1.037   5.320   3.954  1.1803 -0.5999 -0.6110
  783MOL0     O 3259   0.929   5.271   4.039 -0.2881  0.5260 -0.9146
  783MOL0     C 3260   0.866   5.361   4.127 -0.7139 -0.2148  1.1005
  783MOL0     C 3261   0.744   5.312   4.190 -0.5579  0.8063  0.3643
  783MOL0     C 3262   0.608   5.345   4.128  0.4042  0.7755  0.9744
  783MOL0     C 3263   0.493   5.278   4.207  0.5634 -0.0110 -0.1881
  783MOL0     C 3264   0.355   5.305   4.145 -0.1977 -0.0670 -0.8416
  783MOL0     C 3265   0.234   5.293   4.235  0.0182  0.3557 -0.9694
  783MOL0     C 3266   0.232   5.157   4.305  0.0270 -0.4530  0.1014
  783MOL0     C 3267   0.094   5.133   4.380  0.1041 -1.6133 -0.1109
  783MOL0    Cl 3268  -0.041   5.131   4.262  0.0986  0.0907 -0.1148
  783MOL0     C 3269   1.113   5.434   3.976 -0.9165 -0.2203 -0.5406
  783MOL0     C 3270   1.231   5.456   3.906 -0.1530  0.6935  1.0169
  783MOL0     O 3271   1.519   5.281   3.901  0.5913 -0.1475 -0.0937
  783MOL0     C 3272   1.658   5.473   3.642  0.0763 -0.0586  0.5226
  783MOL0     C 3273   1.780   5.535   3.603  0.2151 -0.2726  0.6685
  783MOL0     N 3274   2.347   6.086   3.592 -0.6482 -0.3437 -0.1014
  783MOL0     N 3275   2.373   6.171   3.495 -0.4380 -0.1380 -0.5765
  783MOL0     C 3276   3.406   6.254   2.587 -1.1455  0.3120 -0.3639
  783MOL0     C 3277   3.544   6.275   2.572  0.1060  0.2101 -0.5460
  783MOL0     C 3278   3.996   6.307   2.722 -0.2284  0.7772  0.3443
  783MOL0     C 3279   4.085   6.334   2.824  0.1116 -0.0836 -0.5993
  783MOL0     C 3280   4.215   6.378   2.791  0.0687  0.2367  0.2837
  783MOL0     C 3281   4.261   6.408   2.660 -0.6415  0.2395  0.1865
  783MOL0     O 3282   4.391   6.458   2.647  0.4442 -0.2272  0.4661
  783MOL0     C 3283   4.487   6.354   2.615 -1.0055  0.7786  0.1173
  783MOL0     C 3284   4.632   6.404   2.656  0.2373 -0.0542  0.0179
  783MOL0     C 3285   4.637   6.407   2.807 -0.5952  0.7735 -0.1729
  783MOL0     C 3286   4.600   6.276   2.881  0.0978 -0.1618 -0.2512
  783MOL0     C 3287   4.689   6.164   2.851 -0.2586  0.0619 -1.0921
  783MOL0     C 3288   4.746   6.063   2.831 -0.4739  0.4335 -0.8321
  783MOL0     C 3289   4.174   6.376   2.555  0.6365 -0.2473 -0.5606
  783MOL0     C 3290   4.048   6.327   2.593 -0.2908 -0.6362  0.2559
  783MOL0     H 3291   3.616   6.251   2.906 -3.2656  0.8626  1.3687
  783MOL0     H 3292   3.376   6.198   2.924  0.1656  1.0349  0.6232
  783MOL0     H 3293   3.141   6.303   2.873 -0.3804  0.3471 -0.4347
  783MOL0     H 3294   3.175   6.124   2.882  0.1347  0.5759 -0.2216
  783MOL0     H 3295   2.979   6.089   2.742  3.2623  1.3569 -0.5388
  783MOL0     H 3296   2.942   6.261   2.729 -0.5414  1.8554  1.9447
  783MOL0     H 3297   2.909   6.083   2.969  1.7451 -1.1870 -0.5186
  783MOL0     H 3298   2.785   6.171   2.882 -0.1940  1.5161  1.9916
  783MOL0     H 3299   3.002   6.318   3.032  1.1175 -1.0968 -0.1205
  783MOL0     H 3300   2.842   6.378   2.971  0.0387 -0.8595 -1.2172
  783MOL0     H 3301   2.856   6.321   3.227 -2.2242 -1.1976  2.1459
  783MOL0     H 3302   2.874   6.152   3.179  1.3824 -0.1727 -0.3565
  783MOL0     H 3303   2.644   6.168   3.082 -1.1033 -1.8550  2.3156
  783MOL0     H 3304   2.622   6.338   3.138 -1.0535 -0.1655  1.7605
  783MOL0     H 3305   2.668   6.099   3.304  2.4642  0.3500 -0.7123
  783MOL0     H 3306   2.652   6.255   3.374 -0.3163 -0.2244 -0.2915
  783MOL0     H 3307   2.436   6.130   3.175 -0.6720  0.1780  0.6628
  783MOL0     H 3308   2.421   6.279   3.252  1.6605  0.2937 -0.0230
  783MOL0     H 3309   2.423   5.899   3.316 -4.0406 -0.6260 -0.4294
  783MOL0     H 3310   2.397   5.848   3.728  0.1464 -3.3313  0.1938
  783MOL0     H 3311   2.481   5.787   3.591  0.4480 -0.3055  0.1284
  783MOL0     H 3312   2.285   5.638   3.637 -0.6345  0.2033 -1.4894
  783MOL0     H 3313   2.246   5.727   3.487  3.6636 -1.7573 -1.1893
  783MOL0     H 3314   2.170   5.801   3.780  4.3500  1.5440 -0.4263
  783MOL0     H 3315   2.153   5.909   3.650  2.3947  0.2698  1.2084
  783MOL0     H 3316   1.978   5.772   3.545  0.3585 -0.3237 -0.2851
  783MOL0     H 3317   1.936   5.766   3.710 -0.2804  1.5176 -0.8681
  783MOL0     H 3318   1.973   5.417   3.854 -0.5617 -1.8189  0.4440
  783MOL0     H 3319   1.758   5.340   3.944 -0.7717  0.3747  0.9996
  783MOL0     H 3320   1.231   5.184   3.705  1.5727  0.6003 -0.6946
  783MOL0     H 3321   1.041   5.132   3.839 -0.1178  0.1469  1.7954
  783MOL0     H 3322   0.836   5.447   4.066 -0.7639 -1.5113 -0.7842
  783MOL0     H 3323   0.931   5.391   4.210 -1.8676  3.9112  0.7244
  783MOL0     H 3324   0.749   5.343   4.295 -1.4182  2.2255  0.0130
  783MOL0     H 3325   0.756   5.203   4.189 -1.1136  0.7249  1.2378
  783MOL0     H 3326   0.612   5.308   4.025  0.4375  0.7146  0.9973
  783MOL0     H 3327   0.592   5.452   4.119  2.0125  1.0281  0.8705
  783MOL0     H 3328   0.506   5.174   4.239 -2.9127 -1.0417 -1.7049
  783MOL0     H 3329   0.497   5.320   4.308  0.3198 -0.0322 -0.1685
  783MOL0     H 3330   0.339   5.233   4.064 -0.8453  2.0743 -2.7537
  783MOL0     H 3331   0.361   5.410   4.113  0.9472  1.7766  4.4239
  783MOL0     H 3332   0.139   5.307   4.184 -0.1491  0.4671 -0.6255
  783MOL0     H 3333   0.247   5.365   4.316 -0.2391 -1.0039  0.3313
  783MOL0     H 3334   0.252   5.080   4.230 -0.1559 -0.9545  0.5573
  783MOL0     H 3335   0.315   5.144   4.375  0.9715  0.2138 -0.8648
  783MOL0     H 3336   0.069   5.194   4.467  0.2579 -1.3505 -0.2507
  783MOL0     H 3337   0.088   5.036   4.430  1.2563 -0.7882  1.7212
  783MOL0     H 3338   1.083   5.488   4.065  0.2000 -1.2165  0.4916
  783MOL0     H 3339   1.295   5.540   3.933  0.9516  0.6877 -1.3964
  783MOL0     H 3340   1.580   5.493   3.569  0.3848  2.1951  0.7244
  783MOL0     H 3341   1.790   5.598   3.515 -2.9127 -0.3913  0.1203
  783MOL0     H 3342   3.337   6.259   2.504 -0.4439  0.7447 -0.9350
  783MOL0     H 3343   3.588   6.295   2.475 -0.5095  0.1641 -0.8419
  783MOL0     H 3344   4.049   6.321   2.926 -2.0914  1.9478 -1.0224
  783MOL0     H 3345   4.277   6.414   2.873  2.9208  1.3582 -2.1700
  783MOL0     H 3346   4.489   6.323   2.510 -0.0096 -3.6866  1.2365
  783MOL0     H 3347   4.470   6.258   2.665 -1.5712 -0.2167 -1.8577
  783MOL0     H 3348   4.717   6.339   2.633  0.7464 -0.3938  2.5484
  783MOL0     H 3349   4.643   6.505   2.615  2.2816 -0.0294  0.5015
  783MOL0     H 3350   4.562   6.485   2.824 -0.2885  1.6744 -2.6108
  783MOL0     H 3351   4.739   6.442   2.828  0.0434  0.1834 -2.1029
  783MOL0     H 3352   4.629   6.299   2.984  0.3342  1.5405 -0.6681
  783MOL0     H 3353   4.492   6.259   2.878 -0.5338  1.7592  3.8783
  783MOL0     H 3354   4.793   5.975   2.791 -0.8457  0.1627 -0.6779
  783MOL0     H 3355   4.203   6.380   2.450 -1.6812  0.9015 -1.2369
  783MOL0     H 3356   3.976   6.317   2.512 -4.4076  1.0961  3.3253
  784MOL0     O 3357   1.483   5.481   3.323  1.3590 -0.1311 -0.7580
  784MOL0     C 3358   1.474   5.487   3.198 -0.5551  0.1575  0.2502
  784MOL0     O 3359   1.398   5.406   3.120  0.1242  0.7449  0.0440
  784MOL0     C 3360   1.293   5.347   3.188 -0.2322  0.2787  0.6149
  784MOL0     C 3361   1.184   5.427   3.214 -1.0535 -0.4627  0.8367
  784MOL0     C 3362   1.083   5.377   3.294 -0.2349  0.4316  0.9821
  784MOL0     C 3363   1.086   5.255   3.358 -0.0065 -0.1945 -0.4116
  784MOL0     O 3364   1.002   5.239   3.463  0.4763  0.3567 -0.4593
  784MOL0     C 3365   0.948   5.104   3.479  0.3632 -0.5895  0.3982
  784MOL0     C 3366   0.844   5.063   3.367  0.3041 -0.6425  0.7850
  784MOL0     C 3367   0.699   5.099   3.407 -0.1349 -0.2658 -0.3768
  784MOL0     C 3368   0.667   5.243   3.394 -0.8968 -0.0095  0.3569
  784MOL0     C 3369   0.652   5.284   3.240  0.5509 -0.8372  0.3211
  784MOL0     C 3370   0.658   5.445   3.205 -0.2540  0.4537 -0.2460
  784MOL0     C 3371   0.562   5.518   3.288 -0.0086 -0.0871  0.2045
  784MOL0     C 3372   0.417   5.494   3.233  0.4093 -0.2583  0.0289
  784MOL0     N 3373   0.330   5.606   3.282 -0.6742  0.4400  0.0761
  784MOL0     C 3374   0.275   5.712   3.212 -0.4957 -0.2154 -0.1652
  784MOL0     C 3375   0.224   5.793   3.309 -0.0828 -0.1310  0.4777
  784MOL0     C 3376   0.165   5.931   3.290  0.1730 -0.4618  0.4047
  784MOL0     C 3377   0.073   5.966   3.402 -0.2016  0.3347 -1.4667
  784MOL0     C 3378   0.031   6.113   3.386  0.1027  0.7343 -0.3485
  784MOL0     C 3379  -0.051   6.150   3.507 -0.6264 -0.6225 -0.0875
  784MOL0     O 3380  -0.176   6.121   3.460  0.0945 -0.0011 -0.7083
  784MOL0     C 3381  -0.275   6.123   3.552  0.0794  0.3649  0.6284
  784MOL0     C 3382  -0.284   6.218   3.654  0.1091  1.1820 -0.0469
  784MOL0     C 3383  -0.394   6.217   3.744  1.1871 -0.3359  0.8686
  784MOL0     C 3384  -0.498   6.124   3.720  0.4321 -1.1358 -1.1733
  784MOL0     C 3385  -0.621   6.120   3.819  0.0194  0.1669 -0.6360
  784MOL0     O 3386  -0.709   6.016   3.801  0.1808 -0.1747 -0.3174
  784MOL0     C 3387  -0.824   6.030   3.881 -0.4166 -0.4851  0.5416
  784MOL0     C 3388  -0.826   5.997   4.016 -0.4032 -0.3296 -0.4581
  784MOL0     C 3389  -0.942   6.011   4.094 -0.2096  0.0437  0.2138
  784MOL0     C 3390  -1.059   6.062   4.039 -0.1361  0.2003  0.5744
  784MOL0     O 3391  -1.169   6.088   4.113 -0.4544 -0.4314  0.3738
  784MOL0     C 3392  -1.294   6.098   4.045  0.2125  0.4683 -0.1298
  784MOL0     C 3393  -1.404   6.115   4.151 -0.8097  0.0169  0.5349
  784MOL0     C 3394  -1.430   5.981   4.216 -0.4170  0.1181 -0.4051
  784MOL0     C 3395  -1.510   6.000   4.340 -0.4495 -0.0095 -0.7533
  784MOL0     C 3396  -1.564   5.864   4.392 -0.0930  0.6243 -0.2756
  784MOL0     C 3397  -1.665   5.884   4.511 -0.1617 -0.5718 -0.0949
  784MOL0     C 3398  -1.761   5.765   4.530  0.3219  1.1513 -0.3516
  784MOL0     C 3399  -1.848   5.755   4.646  0.3787 -0.2432 -0.5159
  784MOL0    Cl 3400  -1.759   5.743   4.798  0.2388  0.3356 -0.0571
  784MOL0     C 3401  -1.046   6.112   3.903  0.6400  0.3305 -0.1512
  784MOL0     C 3402  -0.937   6.083   3.820  0.0720  0.1539 -0.8862
  784MOL0     O 3403  -0.646   6.219   3.888 -0.0540 -0.1183 -0.0044
  784MOL0     C 3404  -0.498   6.036   3.613 -0.8842  0.5599  0.9548
  784MOL0     C 3405  -0.381   6.030   3.527 -1.0194  0.0947 -0.4313
  784MOL0     N 3406   0.258   5.735   3.436 -0.3750 -0.4546  0.4035
  784MOL0     N 3407   0.327   5.634   3.409  0.1497  0.3726 -0.0635
  784MOL0     C 3408   1.197   5.170   3.329 -0.3270  0.1305  0.7087
  784MOL0     C 3409   1.297   5.214   3.243  0.6767 -0.3833 -0.7412
  784MOL0     C 3410   1.574   5.551   3.119  0.2275 -0.1565 -0.1613
  784MOL0     C 3411   1.711   5.557   3.165  0.4901 -0.5487 -0.0809
  784MOL0     C 3412   1.804   5.608   3.082 -0.8615  0.4322 -0.6835
  784MOL0     C 3413   1.778   5.662   2.951  0.1863  0.8811  0.6178
  784MOL0     O 3414   1.871   5.734   2.880 -0.3025 -0.4428 -0.6930
  784MOL0     C 3415   2.006   5.700   2.885 -0.6329  0.0313  0.1942
  784MOL0     C 3416   2.040   5.568   2.813  0.3167 -0.3215  0.3738
  784MOL0     C 3417   2.192   5.555   2.770  1.0907 -0.2932  0.4253
  784MOL0     C 3418   2.266   5.505   2.887 -0.5115 -0.7084 -0.3097
  784MOL0     C 3419   2.405   5.480   2.858 -0.7330 -0.6654 -0.6226
  784MOL0     C 3420   2.519   5.440   2.846 -0.1903  0.0863  0.5376
  784MOL0     C 3421   1.645   5.657   2.911  0.0627 -0.3075  0.1118
  784MOL0     C 3422   1.543   5.610   2.999  0.5711 -0.1890 -0.2367
  784MOL0     H 3423   1.172   5.530   3.183 -3.7987 -0.5394  1.4615
  784MOL0     H 3424   1.000   5.438   3.327  1.6512  2.2261  2.7270
  784MOL0     H 3425   0.891   5.100   3.572 -1.1887  0.1864 -0.4756
  784MOL0     H 3426   1.020   5.022   3.487  0.7704 -0.2869 -0.1170
  784MOL0     H 3427   0.846   4.954   3.362  1.7300 -0.6834  1.7500
  784MOL0     H 3428   0.863   5.111   3.271  2.8146  1.0935  2.0499
  784MOL0     H 3429   0.683   5.065   3.510  0.1867  0.1343 -0.1905
  784MOL0     H 3430   0.633   5.044   3.340  1.3390 -1.7002 -0.7162
  784MOL0     H 3431   0.573   5.259   3.446 -1.0475  0.1523  0.0395
  784MOL0     H 3432   0.749   5.300   3.439  0.6881 -0.2993 -1.9730
  784MOL0     H 3433   0.560   5.232   3.211 -0.2574  1.3100 -1.2088
  784MOL0     H 3434   0.733   5.244   3.178 -1.2933  0.8938 -3.5323
  784MOL0     H 3435   0.648   5.465   3.098  1.2678 -1.6068 -0.8338
  784MOL0     H 3436   0.758   5.488   3.223 -0.4834  0.9104 -0.0344
  784MOL0     H 3437   0.575   5.495   3.394  2.4589  0.0812 -0.0063
  784MOL0     H 3438   0.588   5.624   3.274 -3.1382  0.5044 -2.3953
  784MOL0     H 3439   0.393   5.398   3.280  1.0746 -0.5715 -0.2679
  784MOL0     H 3440   0.407   5.517   3.126  0.3447  0.7457  0.2420
  784MOL0     H 3441   0.270   5.722   3.104 -1.6548 -0.7782 -0.1730
  784MOL0     H 3442   0.118   5.940   3.192 -0.9135 -1.4687  0.8055
  784MOL0     H 3443   0.247   6.004   3.290 -0.5654  0.7311 -4.7946
  784MOL0     H 3444   0.114   5.951   3.502  0.3519 -2.3455 -2.0008
  784MOL0     H 3445  -0.016   5.902   3.409  0.6889 -0.7777  0.7626
  784MOL0     H 3446   0.113   6.186   3.383  1.3966 -0.4304  2.5801
  784MOL0     H 3447  -0.028   6.122   3.294 -0.4968 -2.8629 -0.4309
  784MOL0     H 3448  -0.059   6.256   3.532  0.4785 -0.7821  1.0045
  784MOL0     H 3449  -0.028   6.097   3.600  1.3958  2.1889  1.1544
  784MOL0     H 3450  -0.204   6.289   3.672 -2.2361  4.5740 -1.8464
  784MOL0     H 3451  -0.406   6.294   3.820  2.0775  2.7567 -1.9203
  784MOL0     H 3452  -0.752   5.939   4.070  0.0186  1.0588  0.4855
  784MOL0     H 3453  -0.950   5.983   4.198 -2.0966 -0.0268  0.0830
  784MOL0     H 3454  -1.320   6.012   3.983 -0.1212  1.6841 -1.7417
  784MOL0     H 3455  -1.298   6.187   3.982 -1.9822  0.3416 -0.2464
  784MOL0     H 3456  -1.496   6.151   4.103 -1.2613 -0.1471  1.2633
  784MOL0     H 3457  -1.380   6.186   4.231  2.5751 -1.5329  1.0943
  784MOL0     H 3458  -1.333   5.939   4.244 -0.0855 -0.8688 -2.7971
  784MOL0     H 3459  -1.484   5.910   4.153 -1.7226 -0.0274  0.8291
  784MOL0     H 3460  -1.454   6.051   4.418 -0.7242 -2.0171  0.8323
  784MOL0     H 3461  -1.598   6.058   4.311  0.3097  1.9672  0.6771
  784MOL0     H 3462  -1.477   5.800   4.410 -2.7096 -2.5190  2.4512
  784MOL0     H 3463  -1.608   5.806   4.311  0.6593  0.6111 -0.6795
  784MOL0     H 3464  -1.724   5.976   4.510  0.4896 -0.1392  0.2475
  784MOL0     H 3465  -1.602   5.890   4.600 -0.8476  0.4178  0.3477
  784MOL0     H 3466  -1.823   5.768   4.440  0.0644  1.3307 -0.1692
  784MOL0     H 3467  -1.707   5.671   4.517 -2.0778 -0.2850 -0.4359
  784MOL0     H 3468  -1.913   5.669   4.622  0.1837 -0.2458 -0.0061
  784MOL0     H 3469  -1.912   5.843   4.645  1.2274  0.3960  0.2522
  784MOL0     H 3470  -1.128   6.167   3.860  2.1309  0.4764 -3.0391
  784MOL0     H 3471  -0.938   6.103   3.713 -0.1728 -0.8793 -1.0849
  784MOL0     H 3472  -0.580   5.969   3.591  0.2366 -0.3313 -0.7115
  784MOL0     H 3473  -0.371   5.956   3.448 -2.4948  0.5970 -1.1166
  784MOL0     H 3474   1.193   5.066   3.360  0.4354 -0.1889 -0.2040
  784MOL0     H 3475   1.380   5.144   3.236  1.3832  0.3863 -0.4080
  784MOL0     H 3476   1.738   5.522   3.264  0.3106 -3.1670 -0.8956
  784MOL0     H 3477   1.904   5.622   3.122 -0.3943  0.4310 -1.8050
  784MOL0     H 3478   2.054   5.698   2.983  0.9227 -4.8085 -0.3889
  784MOL0     H 3479   2.065   5.780   2.839 -0.9932 -0.4996 -1.2583
  784MOL0     H 3480   2.007   5.488   2.880 -0.8674  0.2730  0.5187
  784MOL0     H 3481   1.980   5.565   2.721  1.6515 -0.2959 -0.5245
  784MOL0     H 3482   2.223   5.649   2.723  1.1044 -1.3168 -1.7205
  784MOL0     H 3483   2.199   5.482   2.689  1.2267  3.2725 -3.0818
  784MOL0     H 3484   2.260   5.570   2.975 -0.5842  1.6944 -2.0073
  784MOL0     H 3485   2.223   5.408   2.916 -3.0211  0.3040 -0.3547
  784MOL0     H 3486   2.620   5.415   2.819 -0.1519 -0.1718  0.9145
  784MOL0     H 3487   1.619   5.712   2.821 -0.0067 -3.5000 -1.9747
  784MOL0     H 3488   1.441   5.608   2.962  0.2492  0.0439  0.6086
  785MOL0     O 3489   3.528   7.503  10.410  0.0166  0.8329  0.1347
  785MOL0     C 3490   3.568   7.394  10.456 -0.0420  0.4496  0.8758
  785MOL0     O 3491   3.558   7.351  10.585 -0.3382 -0.2944 -0.0931
  785MOL0     C 3492   3.479   7.423  10.667 -0.3627  0.6124 -0.2370
  785MOL0     C 3493   3.337   7.407  10.666 -0.3460 -0.0107  0.6123
  785MOL0     C 3494   3.264   7.499  10.741 -0.1385 -0.7851 -0.1375
  785MOL0     C 3495   3.317   7.595  10.829 -0.6208  0.5061 -0.1716
  785MOL0     O 3496   3.255   7.693  10.901 -0.0973  0.8046  0.3283
  785MOL0     C 3497   3.126   7.664  10.943 -0.5784 -0.1099 -0.6620
  785MOL0     C 3498   3.074   7.770  11.039 -0.5932 -0.1282 -0.0409
  785MOL0     C 3499   2.939   7.713  11.096  0.8405 -0.0147 -0.3770
  785MOL0     C 3500   2.858   7.834  11.173  0.1758 -0.3932  0.2799
  785MOL0     C 3501   2.705   7.798  11.197  0.0225 -0.8703 -0.1957
  785MOL0     C 3502   2.638   7.875  11.317 -0.7466  0.2283  0.8715
  785MOL0     C 3503   2.491   7.835  11.339  1.1254  0.0278 -1.2350
  785MOL0     C 3504   2.481   7.684  11.377 -0.0011 -0.1915 -0.2600
  785MOL0     N 3505   2.351   7.660  11.437 -1.1120 -0.1403 -0.0887
  785MOL0     C 3506   2.237   7.643  11.360 -0.0332 -0.2378 -0.4514
  785MOL0     C 3507   2.150   7.639  11.465 -0.0958 -0.7673  0.0396
  785MOL0     C 3508   2.004   7.611  11.433  0.2818  1.0669  0.6823
  785MOL0     C 3509   1.894   7.659  11.534 -1.1796 -0.0537  1.1421
  785MOL0     C 3510   1.888   7.811  11.544 -0.3652 -0.7612  0.0134
  785MOL0     C 3511   1.774   7.841  11.634 -0.2206 -0.3322  0.1193
  785MOL0     O 3512   1.641   7.833  11.578  0.3826 -0.2680  0.0732
  785MOL0     C 3513   1.567   7.948  11.554 -0.1517  0.4351 -0.1319
  785MOL0     C 3514   1.612   8.040  11.449 -0.2322  0.0903 -0.6643
  785MOL0     C 3515   1.529   8.143  11.420  0.4580  0.9436  0.1639
  785MOL0     C 3516   1.402   8.163  11.481  0.4801  1.1987  0.4094
  785MOL0     C 3517   1.314   8.274  11.439  0.2721 -0.5321  0.3280
  785MOL0     O 3518   1.347   8.362  11.344  0.3382 -0.7090  0.0374
  785MOL0     C 3519   1.259   8.456  11.298 -0.2649  0.4182  0.5456
  785MOL0     C 3520   1.183   8.431  11.184 -0.1646 -0.7140  1.1133
  785MOL0     C 3521   1.094   8.530  11.137  0.0224  0.2289 -0.1197
  785MOL0     C 3522   1.075   8.646  11.204  0.4767  0.3034 -0.4752
  785MOL0     O 3523   0.972   8.728  11.176  0.3883 -0.5548 -0.0724
  785MOL0     C 3524   0.953   8.775  11.045 -0.2889  0.4672 -0.5878
  785MOL0     C 3525   0.836   8.870  11.057 -0.7439  0.1995 -0.3793
  785MOL0     C 3526   0.781   8.906  10.919  0.6496  0.9017 -0.6273
  785MOL0     C 3527   0.666   9.001  10.939 -0.6300 -1.1810 -0.6637
  785MOL0     C 3528   0.600   9.018  10.799  0.0187 -0.3516  0.9626
  785MOL0     C 3529   0.482   9.109  10.804  0.6389 -0.4044 -0.2438
  785MOL0     C 3530   0.426   9.130  10.665  0.8465 -0.8584 -0.4611
  785MOL0     C 3531   0.281   9.185  10.653  0.2829 -0.2468 -0.7463
  785MOL0    Cl 3532   0.268   9.353  10.715  0.1198 -0.3026  0.0652
  785MOL0     C 3533   1.151   8.673  11.321 -0.6317 -1.0559  0.2736
  785MOL0     C 3534   1.238   8.570  11.363  1.2673  0.0800  0.0027
  785MOL0     O 3535   1.202   8.277  11.501  0.0266  0.2012  0.6191
  785MOL0     C 3536   1.362   8.068  11.581  1.0717  0.3192 -0.2171
  785MOL0     C 3537   1.445   7.963  11.610 -1.0640  0.4391  0.4412
  785MOL0     N 3538   2.204   7.661  11.591 -0.7286  0.7569 -0.7934
  785MOL0     N 3539   2.322   7.671  11.572  0.5374 -0.2663 -0.1339
  785MOL0     C 3540   3.462   7.594  10.833  1.1016  0.9596 -0.8243
  785MOL0     C 3541   3.538   7.512  10.757  0.2825 -0.4999 -0.6321
  785MOL0     C 3542   3.662   7.323  10.374 -0.6601  0.1047 -0.0736
  785MOL0     C 3543   3.707   7.197  10.406 -0.4489  0.5197 -0.1241
  785MOL0     C 3544   3.798   7.130  10.322 -0.3851  0.0206  0.2061
  785MOL0     C 3545   3.844   7.191  10.204  0.0160 -0.3694  0.2149
  785MOL0     O 3546   3.935   7.137  10.116  0.2417  0.1124 -0.2674
  785MOL0     C 3547   4.018   7.018  10.147  0.6086  0.1116  0.1372
  785MOL0     C 3548   4.134   7.044  10.240 -0.0901 -0.7475  0.5226
  785MOL0     C 3549   4.238   7.148  10.186  0.0408  0.2168 -0.2996
  785MOL0     C 3550   4.370   7.149  10.256  0.8336  1.0095 -0.5086
  785MOL0     C 3551   4.367   7.193  10.397 -0.0836  0.6432 -0.7188
  785MOL0     C 3552   4.355   7.228  10.507  0.1578 -0.1906  0.4169
  785MOL0     C 3553   3.799   7.319  10.173  0.0606  1.0558  0.9647
  785MOL0     C 3554   3.712   7.386  10.253  1.0092 -0.0558 -0.2958
  785MOL0     H 3555   3.284   7.335  10.604 -1.6307  0.9966  0.5063
  785MOL0     H 3556   3.158   7.499  10.718  0.2337  2.0547 -2.4999
  785MOL0     H 3557   3.124   7.563  10.985 -0.7873  0.0826 -0.2117
  785MOL0     H 3558   3.050   7.673  10.865 -1.1413  0.8898 -0.0037
  785MOL0     H 3559   3.063   7.861  10.980  1.4173 -0.2745 -0.7423
  785MOL0     H 3560   3.132   7.790  11.129 -3.6440 -1.9967  2.5611
  785MOL0     H 3561   2.957   7.634  11.169 -0.0314  1.7134  1.8362
  785MOL0     H 3562   2.867   7.678  11.021  0.2773 -1.2660  0.7165
  785MOL0     H 3563   2.910   7.857  11.266  0.4028  2.0581 -0.3906
  785MOL0     H 3564   2.862   7.927  11.115  1.9626 -0.4675  0.2443
  785MOL0     H 3565   2.701   7.690  11.215 -0.1020 -0.9918 -0.9168
  785MOL0     H 3566   2.641   7.816  11.110  0.1050 -0.7092 -0.2230
  785MOL0     H 3567   2.649   7.980  11.287  1.5277 -0.3977 -0.7563
  785MOL0     H 3568   2.697   7.863  11.408 -0.6813  0.4714  0.8613
  785MOL0     H 3569   2.459   7.890  11.428  0.3701 -1.0236 -0.8419
  785MOL0     H 3570   2.427   7.861  11.254 -1.8182 -0.6564  0.6117
  785MOL0     H 3571   2.553   7.661  11.456  0.3193  0.8686 -0.2274
  785MOL0     H 3572   2.502   7.616  11.294  0.4626  0.0447 -0.3398
  785MOL0     H 3573   2.216   7.618  11.256 -0.5961 -0.5048 -0.2781
  785MOL0     H 3574   1.982   7.504  11.437  0.1053  1.0946  0.4132
  785MOL0     H 3575   1.988   7.648  11.332  2.8592 -0.0530 -0.2250
  785MOL0     H 3576   1.929   7.609  11.624  0.9085 -0.9656 -0.0918
  785MOL0     H 3577   1.794   7.625  11.505 -1.7874  2.5541 -0.1434
  785MOL0     H 3578   1.981   7.842  11.592 -1.8560  1.1407  1.8803
  785MOL0     H 3579   1.881   7.873  11.454  0.9005  1.6792  1.4744
  785MOL0     H 3580   1.801   7.944  11.659  4.0917 -0.8029 -1.8303
  785MOL0     H 3581   1.780   7.788  11.729 -1.8548  0.0396  0.4648
  785MOL0     H 3582   1.705   8.030  11.393  0.1176 -0.3464 -0.0082
  785MOL0     H 3583   1.586   8.219  11.366  2.1144  1.0909  1.9935
  785MOL0     H 3584   1.182   8.330  11.143  1.9562 -1.2429  2.1960
  785MOL0     H 3585   1.031   8.515  11.050 -0.0009  1.9155 -0.4154
  785MOL0     H 3586   0.937   8.691  10.977  1.9812 -0.8415  0.3614
  785MOL0     H 3587   1.047   8.820  11.012  1.5675 -0.3443  3.0644
  785MOL0     H 3588   0.884   8.962  11.093  0.9611  0.7054 -3.5597
  785MOL0     H 3589   0.760   8.821  11.119 -1.4464 -1.1351 -2.2156
  785MOL0     H 3590   0.736   8.813  10.883 -1.5850  2.1594 -1.3071
  785MOL0     H 3591   0.856   8.949  10.852  0.2636  3.0053  0.1948
  785MOL0     H 3592   0.596   8.973  11.018 -2.3826  2.3031 -0.7865
  785MOL0     H 3593   0.709   9.094  10.978 -1.2459 -1.0701 -0.2388
  785MOL0     H 3594   0.571   8.921  10.759 -0.6535  0.5112 -0.7291
  785MOL0     H 3595   0.668   9.059  10.724  0.0858 -1.5889  0.3345
  785MOL0     H 3596   0.526   9.203  10.836  0.3797 -1.0656  2.2235
  785MOL0     H 3597   0.407   9.069  10.873  0.5667 -2.0270 -1.1942
  785MOL0     H 3598   0.486   9.197  10.602  1.1527 -0.6874  0.0111
  785MOL0     H 3599   0.415   9.036  10.610  0.3553 -1.4885  0.6896
  785MOL0     H 3600   0.201   9.134  10.708 -1.1104  1.5920 -0.9818
  785MOL0     H 3601   0.253   9.179  10.547  2.9154 -2.1472 -1.4426
  785MOL0     H 3602   1.127   8.755  11.388  0.3206 -1.4297  1.0976
  785MOL0     H 3603   1.287   8.597  11.456  2.5975  0.6901 -0.8263
  785MOL0     H 3604   1.263   8.081  11.623  0.1554  0.6708 -2.3759
  785MOL0     H 3605   1.412   7.873  11.661 -0.0752 -1.3450 -1.9003
  785MOL0     H 3606   3.516   7.649  10.909  1.0340 -2.3900  1.8862
  785MOL0     H 3607   3.646   7.518  10.766  0.0535  0.4796  3.0265
  785MOL0     H 3608   3.678   7.148  10.498  2.0732  0.3975  0.6626
  785MOL0     H 3609   3.838   7.037  10.361 -1.0891 -0.3734  0.0120
  785MOL0     H 3610   4.059   6.974  10.056  3.1249  0.4101  1.0458
  785MOL0     H 3611   3.952   6.947  10.198 -1.5865  1.4071 -0.7870
  785MOL0     H 3612   4.083   7.085  10.328  0.6882 -1.8034  1.4973
  785MOL0     H 3613   4.192   6.959  10.275  3.5616  1.1480 -0.4590
  785MOL0     H 3614   4.198   7.250  10.191 -0.1515  0.1357 -0.1694
  785MOL0     H 3615   4.244   7.127  10.079 -4.6802 -1.7647 -0.4112
  785MOL0     H 3616   4.419   7.051  10.250 -0.2211  0.5211 -1.4067
  785MOL0     H 3617   4.451   7.203  10.206 -1.0105  1.8578 -2.7682
  785MOL0     H 3618   4.330   7.265  10.605  2.1060 -1.4342  1.4564
  785MOL0     H 3619   3.839   7.364  10.082  2.1724 -1.4778  0.5309
  785MOL0     H 3620   3.681   7.484  10.217  2.2566 -0.3291 -2.2347
  786MOL0     O 3621   0.676   9.427   8.740 -0.5550 -0.5205 -0.3822
  786MOL0     C 3622   0.685   9.547   8.759  0.2601  0.0956 -0.0375
  786MOL0     O 3623   0.584   9.627   8.787 -0.3618  0.1759  0.5921
  786MOL0     C 3624   0.457   9.580   8.807  0.3060  0.5803 -0.2044
  786MOL0     C 3625   0.403   9.616   8.929 -0.1236  0.1577 -0.2739
  786MOL0     C 3626   0.279   9.572   8.974  0.6516  0.8261 -0.2989
  786MOL0     C 3627   0.209   9.478   8.906  0.3957 -0.1769  0.1263
  786MOL0     O 3628   0.097   9.439   8.969  0.6166 -0.9955  0.8750
  786MOL0     C 3629  -0.027   9.524   8.970 -0.5915  1.1870  0.0488
  786MOL0     C 3630  -0.085   9.546   8.825  0.1797 -1.0194  0.2325
  786MOL0     C 3631  -0.177   9.436   8.766 -0.3021  0.1485 -0.0702
  786MOL0     C 3632  -0.100   9.305   8.757  0.3921 -1.1623 -0.0778
  786MOL0     C 3633  -0.187   9.215   8.664  0.2914 -0.6844 -0.7577
  786MOL0     C 3634  -0.170   9.070   8.706  0.5509 -0.1721  0.0006
  786MOL0     C 3635  -0.214   8.947   8.621  0.0860 -0.0491  0.7931
  786MOL0     C 3636  -0.101   8.896   8.521  0.2336 -0.3500 -0.2503
  786MOL0     N 3637  -0.157   8.787   8.444 -0.1561  0.1505  0.5085
  786MOL0     C 3638  -0.259   8.794   8.348  0.1806  0.1996 -0.0574
  786MOL0     C 3639  -0.271   8.672   8.296 -0.5123  0.2554 -0.0793
  786MOL0     C 3640  -0.358   8.622   8.184  0.5892  0.1351  1.2329
  786MOL0     C 3641  -0.507   8.615   8.226  0.7665  0.3893  0.0470
  786MOL0     C 3642  -0.578   8.507   8.144  0.2416 -0.9160  0.1979
  786MOL0     C 3643  -0.524   8.365   8.162 -0.8135 -0.7803  0.2390
  786MOL0     O 3644  -0.625   8.275   8.115  0.2880  0.3171 -0.0689
  786MOL0     C 3645  -0.698   8.213   8.214  0.1676  0.1557  1.3312
  786MOL0     C 3646  -0.834   8.190   8.181 -0.0989 -0.9545 -0.8323
  786MOL0     C 3647  -0.915   8.110   8.276  0.5330 -0.3912  0.2439
  786MOL0     C 3648  -0.869   8.064   8.395  0.7938 -0.5748  0.0874
  786MOL0     C 3649  -0.947   7.987   8.484 -0.2610 -0.5002 -0.2082
  786MOL0     O 3650  -0.952   8.036   8.610  0.4096  0.7563  0.1756
  786MOL0     C 3651  -1.045   7.992   8.698 -0.4359  0.3394 -0.1297
  786MOL0     C 3652  -1.124   8.080   8.759  0.4181 -0.5349  0.0403
  786MOL0     C 3653  -1.193   8.044   8.866 -0.0137  0.0052 -0.9097
  786MOL0     C 3654  -1.204   7.910   8.911  0.1257  0.1712 -0.0700
  786MOL0     O 3655  -1.292   7.872   9.007 -0.0248 -0.5212 -1.1692
  786MOL0     C 3656  -1.414   7.945   9.009 -0.4961 -0.1172  0.1933
  786MOL0     C 3657  -1.514   7.870   9.093 -0.5028  0.3338  0.0288
  786MOL0     C 3658  -1.655   7.929   9.087  0.5877  0.3118  0.3715
  786MOL0     C 3659  -1.738   7.871   9.197  0.2035  0.2474 -0.3677
  786MOL0     C 3660  -1.885   7.897   9.169 -0.4277 -0.3180 -0.0062
  786MOL0     C 3661  -1.967   7.863   9.298 -0.4509  0.5078 -0.1462
  786MOL0     C 3662  -2.118   7.840   9.273  0.1541 -0.5701  0.2605
  786MOL0     C 3663  -2.197   7.820   9.407 -1.1546  0.3887  0.2113
  786MOL0    Cl 3664  -2.375   7.830   9.388  0.2005 -0.0500  0.2690
  786MOL0     C 3665  -1.130   7.812   8.846 -0.6402 -0.5527  1.1978
  786MOL0     C 3666  -1.040   7.858   8.746  0.4457  0.1817 -0.6433
  786MOL0     O 3667  -1.017   7.888   8.443  0.0683 -0.1070  0.6687
  786MOL0     C 3668  -0.729   8.094   8.421  0.5296 -0.2937 -0.6575
  786MOL0     C 3669  -0.647   8.157   8.333 -0.1375  0.5315 -0.4989
  786MOL0     N 3670  -0.178   8.596   8.362 -0.0232  0.3470  0.3131
  786MOL0     N 3671  -0.093   8.668   8.425 -0.2258 -0.1248 -0.1572
  786MOL0     C 3672   0.262   9.442   8.782  0.1693 -0.8559  0.4686
  786MOL0     C 3673   0.383   9.485   8.732  0.3598 -0.1157 -0.2302
  786MOL0     C 3674   0.825   9.593   8.749 -0.1577 -0.0524  0.4297
  786MOL0     C 3675   0.852   9.727   8.729  0.1278  0.6848 -0.3032
  786MOL0     C 3676   0.981   9.784   8.731  0.2696 -0.8494 -0.1014
  786MOL0     C 3677   1.092   9.694   8.736 -0.9414  0.4528  0.2078
  786MOL0     O 3678   1.210   9.751   8.707  0.3390 -0.4912 -0.5958
  786MOL0     C 3679   1.328   9.678   8.722  0.6353  0.1398 -1.2746
  786MOL0     C 3680   1.456   9.756   8.693 -0.2489  0.8734 -0.4033
  786MOL0     C 3681   1.479   9.884   8.772 -0.8461 -1.0056  0.7897
  786MOL0     C 3682   1.611   9.952   8.763 -0.0004  0.3839 -1.1192
  786MOL0     C 3683   1.667   9.953   8.627  0.0053 -0.2898 -0.1914
  786MOL0     C 3684   1.702   9.972   8.513  0.0264 -0.0290  0.0900
  786MOL0     C 3685   1.068   9.554   8.754 -0.1430  0.7709 -0.2156
  786MOL0     C 3686   0.938   9.502   8.766 -0.1044 -0.8115  0.6957
  786MOL0     H 3687   0.461   9.683   8.991 -0.9404 -1.8867  2.9182
  786MOL0     H 3688   0.248   9.594   9.076  1.4475  0.2667  0.0765
  786MOL0     H 3689   0.014   9.619   9.007  0.0425  0.2876  1.7908
  786MOL0     H 3690  -0.101   9.481   9.038 -0.4813 -1.3703 -1.3040
  786MOL0     H 3691  -0.003   9.561   8.754 -0.4215 -0.1659 -0.2977
  786MOL0     H 3692  -0.143   9.637   8.810 -0.0084 -1.1677  0.0438
  786MOL0     H 3693  -0.208   9.470   8.667  0.8554 -1.3822 -1.0080
  786MOL0     H 3694  -0.267   9.422   8.827  0.5123  0.8110  1.3363
  786MOL0     H 3695  -0.002   9.314   8.710 -1.1585 -4.1158 -4.5024
  786MOL0     H 3696  -0.096   9.257   8.855  2.8277 -2.7702 -0.8625
  786MOL0     H 3697  -0.162   9.237   8.560  2.5815  1.9779  0.2337
  786MOL0     H 3698  -0.285   9.260   8.679  2.0176  2.5454  2.5524
  786MOL0     H 3699  -0.212   9.052   8.806 -2.7177  1.0518 -1.0155
  786MOL0     H 3700  -0.062   9.056   8.716  0.5786  1.1692  2.1582
  786MOL0     H 3701  -0.232   8.859   8.683 -1.1662 -0.6146 -0.3046
  786MOL0     H 3702  -0.306   8.974   8.568  1.6220  0.6476 -1.7269
  786MOL0     H 3703  -0.021   8.847   8.578 -1.5350 -3.3050 -0.0592
  786MOL0     H 3704  -0.054   8.971   8.457  0.0100 -1.1731 -1.4096
  786MOL0     H 3705  -0.309   8.884   8.312  0.8897  0.6619  0.0945
  786MOL0     H 3706  -0.309   8.528   8.158  2.0574  0.8630  1.2691
  786MOL0     H 3707  -0.341   8.695   8.105  3.6110  0.5616  2.1613
  786MOL0     H 3708  -0.559   8.710   8.211  4.0853  2.5539  0.9987
  786MOL0     H 3709  -0.518   8.581   8.329  1.2819 -2.7207 -0.8450
  786MOL0     H 3710  -0.683   8.507   8.176 -0.4002 -1.3599 -1.7632
  786MOL0     H 3711  -0.561   8.540   8.041 -1.3648 -1.5313 -0.3025
  786MOL0     H 3712  -0.486   8.350   8.263 -3.2073 -1.4577  1.1029
  786MOL0     H 3713  -0.443   8.354   8.088 -0.8344 -1.7352  0.3450
  786MOL0     H 3714  -0.895   8.224   8.099 -3.0914  0.9113  1.9108
  786MOL0     H 3715  -1.015   8.084   8.243  0.6323  2.0059 -2.2721
  786MOL0     H 3716  -1.123   8.182   8.724 -1.6192 -0.4146  0.2316
  786MOL0     H 3717  -1.246   8.121   8.921  1.2860  0.7963 -0.7285
  786MOL0     H 3718  -1.458   7.957   8.910 -2.9515 -0.1186  1.2006
  786MOL0     H 3719  -1.389   8.037   9.062  2.0924 -1.0298  0.6955
  786MOL0     H 3720  -1.476   7.869   9.195  0.1444  0.4863 -0.2088
  786MOL0     H 3721  -1.519   7.765   9.062 -0.4247 -0.4360  2.4228
  786MOL0     H 3722  -1.694   7.903   8.988  0.8734 -0.2402  0.4016
  786MOL0     H 3723  -1.649   8.038   9.096 -3.1191  0.5239  2.3661
  786MOL0     H 3724  -1.722   7.764   9.208 -1.4930 -0.8014 -5.2792
  786MOL0     H 3725  -1.709   7.926   9.287 -1.9772  3.6765 -1.5386
  786MOL0     H 3726  -1.911   7.835   9.083 -1.4080  0.1874 -0.0828
  786MOL0     H 3727  -1.906   7.999   9.138  0.5762 -0.2438 -0.4699
  786MOL0     H 3728  -1.952   7.934   9.380  0.8655 -2.3617  2.3011
  786MOL0     H 3729  -1.924   7.768   9.333  0.5479  0.9269 -0.1995
  786MOL0     H 3730  -2.150   7.933   9.226  1.8910 -0.0341  0.0467
  786MOL0     H 3731  -2.129   7.752   9.210  2.0584 -0.8411  0.2298
  786MOL0     H 3732  -2.161   7.900   9.472 -0.3552 -0.2332  0.5640
  786MOL0     H 3733  -2.169   7.727   9.459 -0.1468  0.4386 -0.2230
  786MOL0     H 3734  -1.128   7.713   8.891  2.3463 -1.5171 -0.8263
  786MOL0     H 3735  -0.982   7.781   8.696  0.8166  1.7967 -2.8818
  786MOL0     H 3736  -0.693   8.068   8.521 -1.0825 -0.9103 -0.2033
  786MOL0     H 3737  -0.542   8.165   8.357 -0.1373 -0.1042 -0.2795
  786MOL0     H 3738   0.202   9.370   8.727 -0.3802 -0.5164  0.6239
  786MOL0     H 3739   0.421   9.455   8.635 -1.5133 -0.4197 -0.9163
  786MOL0     H 3740   0.773   9.801   8.730  0.9208  1.5507  0.3722
  786MOL0     H 3741   0.981   9.892   8.719 -4.4361 -0.8243 -2.2857
  786MOL0     H 3742   1.328   9.601   8.644 -0.5585  0.2102 -1.3622
  786MOL0     H 3743   1.325   9.631   8.820  0.6880 -0.7258 -1.6829
  786MOL0     H 3744   1.552   9.708   8.719  1.1155  2.7428 -1.7302
  786MOL0     H 3745   1.456   9.768   8.585 -0.1245 -0.3205 -0.5495
  786MOL0     H 3746   1.456   9.862   8.877  0.1401 -0.9636  1.0238
  786MOL0     H 3747   1.419   9.966   8.731  1.0207 -0.7971 -1.7933
  786MOL0     H 3748   1.604  10.051   8.808  2.5907  0.8354 -1.5486
  786MOL0     H 3749   1.677   9.893   8.828  0.7202  1.0816 -1.1934
  786MOL0     H 3750   1.729   9.999   8.413  2.5116 -0.5794  0.5574
  786MOL0     H 3751   1.152   9.485   8.756 -1.7485 -1.3173  2.6966
  786MOL0     H 3752   0.939   9.395   8.785  1.0557 -0.8029  0.7705
  787MOL0     O 3753  10.003   0.373   1.065 -0.9169 -0.5214  0.5616
  787MOL0     C 3754   9.948   0.483   1.078  0.2960  0.7544  0.5402
  787MOL0     O 3755  10.009   0.599   1.061  0.1421  0.6185  0.5733
  787MOL0     C 3756  10.142   0.620   1.030 -0.4325  0.5755  0.1360
  787MOL0     C 3757  10.249   0.540   1.062 -0.1790  0.1629  0.1651
  787MOL0     C 3758  10.381   0.578   1.021  1.0776  0.7561 -0.8431
  787MOL0     C 3759  10.412   0.701   0.971 -0.2022  0.3761  0.3027
  787MOL0     O 3760  10.545   0.741   0.959  0.4040 -0.3744  0.0145
  787MOL0     C 3761  10.575   0.778   0.825 -0.7284 -0.7147 -0.0118
  787MOL0     C 3762  10.709   0.709   0.808 -0.4383  0.7428  0.0257
  787MOL0     C 3763  10.751   0.708   0.658 -0.4015  0.2372 -0.2910
  787MOL0     C 3764  10.853   0.597   0.637 -1.3356 -0.4303  0.6864
  787MOL0     C 3765  10.912   0.614   0.496 -0.2675 -0.0019  0.2426
  787MOL0     C 3766  10.990   0.492   0.446  0.5873  0.2322 -0.2964
  787MOL0     C 3767  11.095   0.446   0.539 -0.4687  0.0453 -0.0681
  787MOL0     C 3768  11.202   0.361   0.466  1.1955 -0.2530  0.2643
  787MOL0     N 3769  11.149   0.222   0.453 -0.8345 -0.5759 -0.3992
  787MOL0     C 3770  11.158   0.114   0.540  0.3009 -0.9356 -0.3108
  787MOL0     C 3771  11.107   0.012   0.480  0.9566  0.4772  1.4014
  787MOL0     C 3772  11.099  -0.124   0.534  0.0951  0.6630 -0.4696
  787MOL0     C 3773  10.971  -0.205   0.526  1.0669 -0.1592 -0.2364
  787MOL0     C 3774  10.859  -0.143   0.602  0.1800 -0.9094  0.2954
  787MOL0     C 3775  10.768  -0.041   0.522 -0.5179  0.0457 -0.4684
  787MOL0     O 3776  10.643  -0.024   0.592 -0.0989 -0.3637  0.3015
  787MOL0     C 3777  10.534  -0.001   0.508 -0.8744 -0.1871  0.5612
  787MOL0     C 3778  10.533   0.022   0.367 -0.0827 -0.2727 -0.1409
  787MOL0     C 3779  10.409   0.031   0.296  1.0083  0.2187 -1.0825
  787MOL0     C 3780  10.287   0.015   0.369 -0.1462  0.3079  0.2628
  787MOL0     C 3781  10.158   0.008   0.290 -0.7734  0.0072  0.4350
  787MOL0     O 3782  10.037  -0.019   0.351 -0.1909 -0.2131  0.2221
  787MOL0     C 3783   9.913   0.022   0.310  0.4118 -0.2447  0.5643
  787MOL0     C 3784   9.878   0.101   0.194  0.0348  1.0136 -0.1878
  787MOL0     C 3785   9.751   0.145   0.172  0.5710 -0.2912  0.7788
  787MOL0     C 3786   9.642   0.112   0.258 -0.7171  0.4747  0.1266
  787MOL0     O 3787   9.519   0.153   0.207  0.3398 -0.2204  0.5403
  787MOL0     C 3788   9.399   0.083   0.254  0.1731 -0.5347  0.0806
  787MOL0     C 3789   9.272   0.110   0.172  0.1602 -0.0044  0.5084
  787MOL0     C 3790   9.251   0.268   0.174 -0.2203 -0.6770 -0.1306
  787MOL0     C 3791   9.115   0.300   0.113  0.3228  1.0244 -0.1819
  787MOL0     C 3792   9.060   0.443   0.119 -0.0377  0.1410 -0.4944
  787MOL0     C 3793   9.148   0.538   0.041  0.8764 -0.0870 -0.3842
  787MOL0     C 3794   9.075   0.669   0.010  0.0868 -0.8695  0.2893
  787MOL0     C 3795   9.150   0.761  -0.092 -0.0214 -0.7047  0.2838
  787MOL0    Cl 3796   9.041   0.907  -0.112  0.0661 -0.1297  0.0795
  787MOL0     C 3797   9.668   0.044   0.381 -0.0017  1.7622  0.3584
  787MOL0     C 3798   9.803  -0.004   0.403  0.2074  0.0433 -0.7805
  787MOL0     O 3799  10.169   0.023   0.172  0.5299 -0.4846  0.5681
  787MOL0     C 3800  10.285   0.013   0.514  0.3149  0.4146  0.8259
  787MOL0     C 3801  10.409   0.011   0.577  0.2455  0.3652 -0.0822
  787MOL0     N 3802  11.068   0.053   0.353 -0.0067  1.0291  0.1787
  787MOL0     N 3803  11.093   0.173   0.341  0.0999  0.9474 -0.7843
  787MOL0     C 3804  10.304   0.783   0.953  0.0226  0.3193  0.1394
  787MOL0     C 3805  10.173   0.749   0.974  0.4447 -0.0270 -0.7476
  787MOL0     C 3806   9.799   0.476   1.087 -0.5161  0.2559 -0.4473
  787MOL0     C 3807   9.718   0.359   1.105 -0.6694  0.7788  0.2165
  787MOL0     C 3808   9.586   0.363   1.136  0.7814 -0.7031 -0.2278
  787MOL0     C 3809   9.516   0.484   1.132 -0.5742  0.5075 -0.7303
  787MOL0     O 3810   9.373   0.500   1.138  0.0745 -0.2842  0.3716
  787MOL0     C 3811   9.281   0.389   1.159 -0.4273 -0.9839  0.5253
  787MOL0     C 3812   9.145   0.448   1.155  0.2806 -0.0721 -0.1843
  787MOL0     C 3813   9.035   0.340   1.169 -0.1857  0.1644  0.1892
  787MOL0     C 3814   8.902   0.402   1.184 -0.5823  0.1293  0.2870
  787MOL0     C 3815   8.792   0.301   1.187  0.8105 -0.4225  0.0717
  787MOL0     C 3816   8.701   0.221   1.201  0.4090  0.7276  0.6739
  787MOL0     C 3817   9.586   0.601   1.121 -0.5651  0.3858 -0.2032
  787MOL0     C 3818   9.725   0.596   1.101  0.0137 -1.1200  0.7171
  787MOL0     H 3819  10.239   0.447   1.117  2.6449 -0.2063  0.1915
  787MOL0     H 3820  10.465   0.511   1.035  1.5941  1.0962 -2.1622
  787MOL0     H 3821  10.580   0.887   0.825 -1.3901 -0.6419 -2.0862
  787MOL0     H 3822  10.503   0.742   0.752  1.7692 -1.2230 -2.4099
  787MOL0     H 3823  10.694   0.604   0.837 -1.8227  0.5005 -1.4509
  787MOL0     H 3824  10.785   0.757   0.870  0.4837  2.5045 -2.3487
  787MOL0     H 3825  10.801   0.799   0.626 -0.3310 -0.2791 -1.7289
  787MOL0     H 3826  10.663   0.702   0.593  0.8348  0.9687 -2.0966
  787MOL0     H 3827  10.922   0.615   0.720 -2.0951  1.1638  1.0216
  787MOL0     H 3828  10.813   0.496   0.644  0.7055 -1.6006 -2.4743
  787MOL0     H 3829  10.972   0.705   0.492 -0.9724  0.4294 -0.6676
  787MOL0     H 3830  10.821   0.634   0.440 -1.9046 -0.8874  2.4231
  787MOL0     H 3831  11.025   0.498   0.343  1.8521 -0.1476  0.0875
  787MOL0     H 3832  10.916   0.412   0.439  1.0334 -0.1059 -1.2677
  787MOL0     H 3833  11.140   0.529   0.594 -2.2877 -0.6252  2.6052
  787MOL0     H 3834  11.048   0.377   0.609 -3.2961 -0.8711 -2.6134
  787MOL0     H 3835  11.276   0.346   0.545  2.5056  1.6764 -0.5240
  787MOL0     H 3836  11.227   0.408   0.370 -1.4298  0.3650 -0.1935
  787MOL0     H 3837  11.199   0.104   0.640 -0.5690 -1.3269  0.0184
  787MOL0     H 3838  11.134  -0.120   0.637 -0.2183 -0.9971 -0.2695
  787MOL0     H 3839  11.186  -0.177   0.492  0.4557 -0.0106  1.0723
  787MOL0     H 3840  10.998  -0.296   0.580  0.1128 -0.4240 -0.2076
  787MOL0     H 3841  10.944  -0.226   0.423  1.4703  1.8903 -0.8131
  787MOL0     H 3842  10.783  -0.214   0.636 -2.8554  1.0954 -1.8008
  787MOL0     H 3843  10.895  -0.092   0.692  0.0671 -2.2500  1.1384
  787MOL0     H 3844  10.766  -0.086   0.422  3.1097  1.6930 -1.4459
  787MOL0     H 3845  10.814   0.058   0.512 -0.1336  0.0448  1.0074
  787MOL0     H 3846  10.619   0.010   0.301 -0.1327  2.8915 -0.9393
  787MOL0     H 3847  10.416   0.052   0.189 -1.6643  2.9469 -0.8585
  787MOL0     H 3848   9.950   0.124   0.116  1.9126  0.0068  1.1578
  787MOL0     H 3849   9.727   0.206   0.085 -2.5727  0.0905  1.8005
  787MOL0     H 3850   9.378   0.129   0.350 -3.8617  0.1041 -0.9115
  787MOL0     H 3851   9.423  -0.024   0.260  0.8106 -0.3781  0.3580
  787MOL0     H 3852   9.187   0.055   0.214 -0.7595  2.1677  1.6170
  787MOL0     H 3853   9.292   0.078   0.070 -0.1792 -1.8207  0.9720
  787MOL0     H 3854   9.331   0.331   0.133 -0.7477 -0.3413 -0.6611
  787MOL0     H 3855   9.241   0.295   0.280  1.2957  0.9697 -0.3664
  787MOL0     H 3856   9.122   0.269   0.009  1.3784  1.6786 -0.3170
  787MOL0     H 3857   9.042   0.243   0.171  1.3353  0.5509  0.6654
  787MOL0     H 3858   9.058   0.478   0.223  0.0765  1.8616 -1.0330
  787MOL0     H 3859   8.960   0.449   0.077 -0.0487  0.1621 -0.4658
  787MOL0     H 3860   9.174   0.490  -0.054 -0.2694  1.1269 -1.3469
  787MOL0     H 3861   9.232   0.557   0.108 -0.0638  1.3382  0.4324
  787MOL0     H 3862   8.981   0.641  -0.038 -0.2248 -1.6985  1.3368
  787MOL0     H 3863   9.054   0.722   0.104  1.9948 -2.8074  1.9009
  787MOL0     H 3864   9.180   0.713  -0.186  2.2910 -1.6273  1.4215
  787MOL0     H 3865   9.244   0.795  -0.048  0.6973 -0.5477 -1.2742
  787MOL0     H 3866   9.594   0.026   0.458 -0.7293 -0.2674 -0.7210
  787MOL0     H 3867   9.823  -0.048   0.500 -0.6098  2.0658  0.3849
  787MOL0     H 3868  10.194   0.016   0.573 -0.1487  1.6578  0.1083
  787MOL0     H 3869  10.403   0.003   0.685 -3.8312  0.8613 -0.1377
  787MOL0     H 3870  10.325   0.881   0.913 -0.2587 -0.0030 -0.8265
  787MOL0     H 3871  10.107   0.835   0.974 -0.8521 -0.9781  0.1513
  787MOL0     H 3872   9.767   0.263   1.098 -1.8304  0.1564  0.4828
  787MOL0     H 3873   9.528   0.272   1.150 -1.8753  1.0409  0.7773
  787MOL0     H 3874   9.301   0.329   1.249  0.0744 -2.0617 -0.2863
  787MOL0     H 3875   9.287   0.321   1.074  1.6927 -0.8563  0.5180
  787MOL0     H 3876   9.143   0.517   1.240  0.0263  0.0500 -0.2869
  787MOL0     H 3877   9.126   0.486   1.054 -3.0174 -2.9791 -0.8448
  787MOL0     H 3878   9.058   0.286   1.261  0.4258  1.6709  0.9456
  787MOL0     H 3879   9.034   0.270   1.084 -0.4696  1.8250 -1.2308
  787MOL0     H 3880   8.902   0.462   1.276  1.3055  0.5410  0.0623
  787MOL0     H 3881   8.886   0.471   1.101 -0.3265 -0.1108  0.0393
  787MOL0     H 3882   8.636   0.135   1.209  3.0723 -1.2564  2.6171
  787MOL0     H 3883   9.538   0.699   1.114  0.2431  1.0362  2.2739
  787MOL0     H 3884   9.763   0.697   1.099  0.4543 -1.2578  1.4708
  788MOL0     O 3885   8.891   5.675  11.253  0.1088 -0.1940  0.6913
  788MOL0     C 3886   8.859   5.737  11.146  0.5247 -0.0571  0.1592
  788MOL0     O 3887   8.733   5.744  11.090 -0.9575  0.6408  0.0499
  788MOL0     C 3888   8.627   5.667  11.138 -0.1313  0.6832 -0.0086
  788MOL0     C 3889   8.641   5.537  11.191 -0.6421  0.0371  1.2772
  788MOL0     C 3890   8.526   5.455  11.213 -0.4076 -0.4600  0.8057
  788MOL0     C 3891   8.393   5.513  11.195 -0.1091  0.0984 -0.0918
  788MOL0     O 3892   8.285   5.443  11.228  0.8862  0.7573  0.0324
  788MOL0     C 3893   8.182   5.445  11.133  0.2069 -0.5693  0.6072
  788MOL0     C 3894   8.145   5.310  11.076  0.0711 -0.8053 -0.7421
  788MOL0     C 3895   8.074   5.232  11.187 -0.4687 -0.8980 -0.0337
  788MOL0     C 3896   7.997   5.104  11.135 -0.4035 -0.8810  0.3890
  788MOL0     C 3897   7.928   5.025  11.243 -0.0983  0.7584 -0.6079
  788MOL0     C 3898   7.811   5.095  11.307 -0.9562 -0.7931 -0.0680
  788MOL0     C 3899   7.745   5.017  11.417 -0.7719  0.1660 -0.6776
  788MOL0     C 3900   7.630   4.927  11.355 -0.5197  0.2005 -0.4161
  788MOL0     N 3901   7.507   4.932  11.433  0.1987  0.2632 -0.1632
  788MOL0     C 3902   7.410   4.843  11.408  0.1629  1.1749  0.4814
  788MOL0     C 3903   7.302   4.876  11.485 -0.1933  0.8028  0.5136
  788MOL0     C 3904   7.163   4.816  11.515 -0.1143 -0.4686  0.5283
  788MOL0     C 3905   7.079   4.797  11.393  0.1252 -0.0863 -0.0678
  788MOL0     C 3906   6.985   4.912  11.363 -0.3127  0.3255 -0.4010
  788MOL0     C 3907   6.876   4.906  11.466 -0.3993  0.8817  0.2367
  788MOL0     O 3908   6.815   4.776  11.459 -0.3232 -0.1571  0.2739
  788MOL0     C 3909   6.689   4.765  11.492 -0.2780  0.9965 -0.2546
  788MOL0     C 3910   6.617   4.860  11.565  0.2056  0.1246  0.3037
  788MOL0     C 3911   6.479   4.843  11.594  0.5992  0.4998  0.6594
  788MOL0     C 3912   6.406   4.731  11.558 -0.2280  0.5935 -0.5535
  788MOL0     C 3913   6.265   4.707  11.572  0.9072  0.4893 -0.4115
  788MOL0     O 3914   6.204   4.774  11.681 -0.3658 -1.1315  0.0048
  788MOL0     C 3915   6.093   4.713  11.743 -0.7849 -0.1673  1.1431
  788MOL0     C 3916   6.098   4.689  11.886  0.3300 -1.0469  0.1670
  788MOL0     C 3917   5.993   4.616  11.947  0.3063  0.3626 -0.7208
  788MOL0     C 3918   5.880   4.587  11.874  0.5046  0.6143 -0.3481
  788MOL0     O 3919   5.776   4.525  11.941  1.1044 -0.4321  0.0763
  788MOL0     C 3920   5.671   4.620  11.994  0.7739 -0.7298  0.1465
  788MOL0     C 3921   5.570   4.640  11.874  0.0204  0.2165 -0.3986
  788MOL0     C 3922   5.427   4.669  11.926  0.5522  0.1820 -0.4459
  788MOL0     C 3923   5.354   4.547  11.989 -0.0124  0.4628  0.1183
  788MOL0     C 3924   5.203   4.552  11.998 -0.4465 -0.1977 -0.0756
  788MOL0     C 3925   5.148   4.685  12.051 -0.6489  0.6096 -0.7349
  788MOL0     C 3926   4.988   4.688  12.050 -0.1892 -0.1954  0.1628
  788MOL0     C 3927   4.934   4.766  12.175 -0.8678 -0.8333 -0.0888
  788MOL0    Cl 3928   5.007   4.929  12.215  0.1859  0.0374  0.1194
  788MOL0     C 3929   5.868   4.626  11.740  0.2075  0.2882  0.7954
  788MOL0     C 3930   5.974   4.680  11.673 -0.2353  0.2694  0.2477
  788MOL0     O 3931   6.204   4.638  11.492 -1.0000  0.0935 -0.1175
  788MOL0     C 3932   6.488   4.635  11.488  1.1007 -0.0336 -0.1101
  788MOL0     C 3933   6.628   4.647  11.466 -0.8011  0.4233 -0.6164
  788MOL0     N 3934   7.340   4.994  11.551 -0.1686  0.1807 -0.2105
  788MOL0     N 3935   7.460   5.025  11.520 -0.4398  0.4840 -0.3071
  788MOL0     C 3936   8.386   5.645  11.149  0.5362 -0.6666  1.1439
  788MOL0     C 3937   8.498   5.720  11.117 -0.3038 -0.7687 -0.1268
  788MOL0     C 3938   8.966   5.798  11.067 -0.0768 -0.0363  0.0367
  788MOL0     C 3939   9.091   5.804  11.114  0.1917  0.8425 -0.2045
  788MOL0     C 3940   9.197   5.870  11.058 -1.0713  0.8438 -0.2760
  788MOL0     C 3941   9.177   5.941  10.938  0.8383  0.5373  0.7929
  788MOL0     O 3942   9.269   6.012  10.868 -0.9043 -0.5114  0.9637
  788MOL0     C 3943   9.407   6.029  10.914 -0.1538  0.0813 -0.2557
  788MOL0     C 3944   9.504   6.087  10.804 -0.2258 -0.0538 -0.4909
  788MOL0     C 3945   9.521   5.968  10.697 -0.0160 -0.7201  0.6563
  788MOL0     C 3946   9.620   6.001  10.585  0.2550  0.0508  0.1478
  788MOL0     C 3947   9.564   6.079  10.475  0.3455  0.0079  0.5896
  788MOL0     C 3948   9.518   6.148  10.385  1.2854 -0.1482 -0.0165
  788MOL0     C 3949   9.048   5.944  10.893 -0.8740 -0.2552  0.1632
  788MOL0     C 3950   8.942   5.877  10.951 -0.4318  0.2138 -0.1141
  788MOL0     H 3951   8.734   5.481  11.200 -1.2936 -1.3241  0.0471
  788MOL0     H 3952   8.530   5.350  11.243 -1.5433 -0.5743  0.6011
  788MOL0     H 3953   8.231   5.483  11.043  1.6348  2.1749  2.3955
  788MOL0     H 3954   8.102   5.512  11.165  1.7946  1.2504  1.0287
  788MOL0     H 3955   8.240   5.257  11.062  0.8526 -0.6784  3.1062
  788MOL0     H 3956   8.078   5.326  10.992  1.6818  1.7964 -1.6368
  788MOL0     H 3957   8.001   5.301  11.231 -1.2603 -1.0157 -1.1086
  788MOL0     H 3958   8.149   5.206  11.262 -1.5603 -1.4737  0.8899
  788MOL0     H 3959   7.917   5.137  11.069 -2.1634 -2.3402  1.7027
  788MOL0     H 3960   8.063   5.044  11.072  0.4017  1.8348 -1.5310
  788MOL0     H 3961   7.992   4.997  11.327 -1.5823 -0.0351  0.3066
  788MOL0     H 3962   7.895   4.929  11.201 -1.0592  0.0433  1.6038
  788MOL0     H 3963   7.742   5.122  11.227 -0.6117  3.0840  0.7861
  788MOL0     H 3964   7.850   5.183  11.358 -0.7373 -0.0761 -1.4300
  788MOL0     H 3965   7.817   4.961  11.478 -0.0796 -0.7802 -2.3094
  788MOL0     H 3966   7.701   5.091  11.484 -0.5441  0.6353 -1.0387
  788MOL0     H 3967   7.669   4.825  11.366  1.7338  1.1628  1.2192
  788MOL0     H 3968   7.618   4.952  11.249  2.3611  1.9061 -0.4588
  788MOL0     H 3969   7.422   4.757  11.342  0.8165  0.6350  1.2776
  788MOL0     H 3970   7.118   4.880  11.591 -0.9328 -0.8820  0.4000
  788MOL0     H 3971   7.173   4.715  11.556 -0.8273 -1.6971 -2.1041
  788MOL0     H 3972   7.027   4.701  11.393 -0.5135  0.2525  0.2889
  788MOL0     H 3973   7.149   4.785  11.309  2.3987 -0.5775  1.8079
  788MOL0     H 3974   7.040   5.005  11.378  0.9593 -0.1307 -1.9731
  788MOL0     H 3975   6.947   4.889  11.263 -1.9523  2.6155 -0.3694
  788MOL0     H 3976   6.809   4.987  11.435 -0.4500  0.9182  0.4408
  788MOL0     H 3977   6.906   4.929  11.568  0.5508 -1.0721  0.4332
  788MOL0     H 3978   6.657   4.949  11.613 -0.4050  0.5998 -0.0511
  788MOL0     H 3979   6.440   4.914  11.667  2.1358  0.1639  1.8670
  788MOL0     H 3980   6.178   4.730  11.945 -1.5408 -1.1986  2.9981
  788MOL0     H 3981   5.993   4.596  12.054  0.8832  5.8399  0.6094
  788MOL0     H 3982   5.716   4.715  12.022 -0.6641 -0.1406  0.5209
  788MOL0     H 3983   5.622   4.585  12.085  0.5757  0.3204  0.4498
  788MOL0     H 3984   5.563   4.547  11.818 -0.6806 -1.6218  2.4857
  788MOL0     H 3985   5.608   4.724  11.816 -1.1977 -0.1854 -1.8226
  788MOL0     H 3986   5.368   4.701  11.840 -2.0797 -1.5344  0.5912
  788MOL0     H 3987   5.427   4.746  12.004 -0.1361 -1.7838  1.6283
  788MOL0     H 3988   5.375   4.451  11.942 -2.2206  0.3674 -0.7879
  788MOL0     H 3989   5.389   4.535  12.092 -0.7273 -0.7922  0.2431
  788MOL0     H 3990   5.170   4.474  12.068 -0.3746 -1.1301 -1.0553
  788MOL0     H 3991   5.162   4.537  11.898 -1.2610  2.0508 -0.1285
  788MOL0     H 3992   5.191   4.759  11.982  2.9933 -1.0208 -0.4397
  788MOL0     H 3993   5.195   4.711  12.146  1.6407  0.3027 -1.7254
  788MOL0     H 3994   4.960   4.745  11.961  0.4720  1.1274  0.7793
  788MOL0     H 3995   4.941   4.590  12.055 -0.6339  0.0502  1.0066
  788MOL0     H 3996   4.933   4.698  12.262 -0.7264 -0.9490 -0.1764
  788MOL0     H 3997   4.832   4.788  12.142 -0.5497 -0.2650 -0.7004
  788MOL0     H 3998   5.776   4.591  11.696  0.3122 -1.0842  1.6032
  788MOL0     H 3999   5.961   4.705  11.568 -2.1494  2.6259  0.9557
  788MOL0     H 4000   6.435   4.546  11.455  0.6352  0.0406  0.4221
  788MOL0     H 4001   6.693   4.570  11.424 -0.1551 -1.4467  3.3718
  788MOL0     H 4002   8.296   5.697  11.119  2.0588  0.6841 -1.4672
  788MOL0     H 4003   8.493   5.819  11.075  1.3497  0.0137  1.3579
  788MOL0     H 4004   9.095   5.763  11.214 -1.4159  0.5742 -0.2355
  788MOL0     H 4005   9.295   5.871  11.105 -1.2973 -2.0230  0.4599
  788MOL0     H 4006   9.447   5.938  10.959 -0.1363  0.2575  0.0855
  788MOL0     H 4007   9.400   6.108  10.989 -0.1236 -1.2926  1.2505
  788MOL0     H 4008   9.453   6.174  10.761 -2.7252 -0.3114  1.6627
  788MOL0     H 4009   9.605   6.104  10.842 -0.3972 -1.6855  0.7736
  788MOL0     H 4010   9.421   5.940  10.662  0.1163 -1.9972  1.2472
  788MOL0     H 4011   9.553   5.877  10.749  2.5151  0.9849  2.2700
  788MOL0     H 4012   9.699   6.055  10.639 -1.1561  0.4952  1.8268
  788MOL0     H 4013   9.659   5.917  10.527 -1.0404  0.6081 -1.6131
  788MOL0     H 4014   9.475   6.206  10.306 -1.2985 -0.0719  1.3417
  788MOL0     H 4015   9.031   6.006  10.806 -0.6868 -2.2672 -1.3948
  788MOL0     H 4016   8.842   5.879  10.910  0.2172 -1.1012 -1.8813
  789MOL0     O 4017   3.548   9.928   9.700  0.5353  0.2369 -0.4550
  789MOL0     C 4018   3.594  10.018   9.772 -0.0672  0.0527 -0.1265
  789MOL0     O 4019   3.529  10.132   9.822 -0.1818  0.3416  0.4419
  789MOL0     C 4020   3.403  10.170   9.790  0.5444  0.2304  0.4983
  789MOL0     C 4021   3.328  10.133   9.676  0.2792 -1.1043  0.0081
  789MOL0     C 4022   3.184  10.162   9.678  0.2981 -0.9994 -0.8030
  789MOL0     C 4023   3.123  10.227   9.789 -0.7376 -0.6247  0.9979
  789MOL0     O 4024   2.987  10.239   9.780  0.3304  0.6222 -0.4268
  789MOL0     C 4025   2.914  10.317   9.877  0.5162  0.0174  0.1680
  789MOL0     C 4026   2.786  10.362   9.819  0.0351  0.3270 -0.2990
  789MOL0     C 4027   2.686  10.262   9.778 -0.0819 -1.0979  0.5918
  789MOL0     C 4028   2.569  10.326   9.698  0.5275  0.2729  0.0288
  789MOL0     C 4029   2.450  10.228   9.675  0.0309  1.0150  1.1233
  789MOL0     C 4030   2.341  10.304   9.607 -1.1366  0.3518 -0.6213
  789MOL0     C 4031   2.218  10.210   9.582  0.2195 -0.3809  0.2963
  789MOL0     C 4032   2.140  10.181   9.710  1.7342 -0.1910  0.4443
  789MOL0     N 4033   2.074  10.298   9.767  0.0683  0.2585  0.1722
  789MOL0     C 4034   1.983  10.376   9.708 -0.4514  0.3234 -0.3342
  789MOL0     C 4035   1.990  10.497   9.773  0.2295 -0.8155 -0.0470
  789MOL0     C 4036   1.922  10.632   9.740  0.1728 -0.1638  0.5601
  789MOL0     C 4037   1.776  10.593   9.692  1.1076 -1.3139  0.0584
  789MOL0     C 4038   1.710  10.712   9.626 -0.6396 -0.7787  0.2551
  789MOL0     C 4039   1.555  10.716   9.644 -0.2242 -0.3437  0.8407
  789MOL0     O 4040   1.497  10.812   9.547  0.0086 -0.2214 -0.0591
  789MOL0     C 4041   1.355  10.792   9.527  0.2343 -0.5179 -0.1893
  789MOL0     C 4042   1.270  10.696   9.579  0.0947  0.8522  0.2313
  789MOL0     C 4043   1.133  10.704   9.552 -0.3122  0.5993  0.8902
  789MOL0     C 4044   1.077  10.812   9.488 -0.4481  0.3951  0.1644
  789MOL0     C 4045   0.939  10.811   9.459  0.4040  0.2659  0.6201
  789MOL0     O 4046   0.878  10.937   9.480 -0.8970  0.0027  0.3997
  789MOL0     C 4047   0.740  10.951   9.458  0.0644  0.0394 -0.3862
  789MOL0     C 4048   0.685  11.061   9.399  0.2700  0.4077 -0.1982
  789MOL0     C 4049   0.551  11.071   9.370 -0.0177 -0.0721 -0.5317
  789MOL0     C 4050   0.461  10.978   9.415 -0.2076 -0.2043  0.4494
  789MOL0     O 4051   0.326  10.981   9.394 -0.3308 -0.0028 -0.6404
  789MOL0     C 4052   0.261  11.105   9.381 -0.2314 -1.4770  0.7748
  789MOL0     C 4053   0.107  11.093   9.402 -0.4778 -0.2497  0.0696
  789MOL0     C 4054   0.043  11.007   9.284  0.1340  0.5010  0.1185
  789MOL0     C 4055  -0.106  11.018   9.282 -0.2647  0.4895 -0.1825
  789MOL0     C 4056  -0.169  10.965   9.408  0.1199 -0.6167 -0.3453
  789MOL0     C 4057  -0.138  10.814   9.430  0.5301  0.4527 -0.5026
  789MOL0     C 4058  -0.235  10.763   9.535 -0.1498 -0.5078 -0.9088
  789MOL0     C 4059  -0.185  10.641   9.609  0.3667  0.2776 -0.1639
  789MOL0    Cl 4060  -0.319  10.584   9.713  0.2289 -0.1237  0.3826
  789MOL0     C 4061   0.511  10.868   9.481 -0.2081 -0.6911 -0.6483
  789MOL0     C 4062   0.651  10.855   9.503  0.6542  0.0082  0.8499
  789MOL0     O 4063   0.889  10.706   9.416  0.2187 -0.1024  1.0771
  789MOL0     C 4064   1.166  10.914   9.446  0.7203 -0.2962  0.3786
  789MOL0     C 4065   1.301  10.903   9.460 -0.4522 -0.3184  0.2787
  789MOL0     N 4066   2.068  10.494   9.883  0.0474 -0.1518 -0.0543
  789MOL0     N 4067   2.129  10.374   9.869  1.0240 -0.0314  0.2066
  789MOL0     C 4068   3.204  10.272   9.890 -0.9609  0.2431 -1.1341
  789MOL0     C 4069   3.343  10.248   9.891 -0.3678  0.1183  0.0349
  789MOL0     C 4070   3.737  10.005   9.800 -0.0416 -0.7130 -0.3789
  789MOL0     C 4071   3.793  10.089   9.895  0.1172 -0.9128  0.3844
  789MOL0     C 4072   3.933  10.090   9.919 -0.1217  0.5678  0.4308
  789MOL0     C 4073   4.011  10.000   9.852 -0.4099  0.1273  0.1718
  789MOL0     O 4074   4.153  10.004   9.867  0.9063  0.5513 -0.2253
  789MOL0     C 4075   4.226   9.882   9.887  0.7775 -0.1942  0.3171
  789MOL0     C 4076   4.364   9.921   9.924  0.7584 -0.5751  0.6424
  789MOL0     C 4077   4.382   9.986  10.064 -0.1806 -0.0581  0.1261
  789MOL0     C 4078   4.517  10.053  10.084  0.3636  0.0476 -0.1241
  789MOL0     C 4079   4.521  10.110  10.218 -0.8160  0.2093  0.1629
  789MOL0     C 4080   4.551  10.158  10.331  0.7474 -0.0940  0.1220
  789MOL0     C 4081   3.955   9.908   9.760  0.3181 -0.2699  0.2667
  789MOL0     C 4082   3.820   9.915   9.736  0.1779 -0.3051  0.2077
  789MOL0     H 4083   3.367  10.066   9.600  0.9208  0.5454 -1.1681
  789MOL0     H 4084   3.131  10.136   9.587 -0.1546  0.9437 -1.1472
  789MOL0     H 4085   2.970  10.404   9.913 -1.5305  1.0307  1.0313
  789MOL0     H 4086   2.891  10.265   9.970  0.9745 -2.6157 -1.0849
  789MOL0     H 4087   2.821  10.416   9.731  2.4915  3.5571  2.3891
  789MOL0     H 4088   2.745  10.425   9.899 -0.3349 -2.0344  1.4905
  789MOL0     H 4089   2.654  10.212   9.870  0.0311 -0.6670  0.8662
  789MOL0     H 4090   2.741  10.190   9.717  0.2028 -0.5974  0.2499
  789MOL0     H 4091   2.537  10.422   9.739  1.2832 -0.4104  2.3730
  789MOL0     H 4092   2.609  10.346   9.598 -0.3403 -1.4530 -0.7041
  789MOL0     H 4093   2.418  10.198   9.775  2.1978  0.9066  1.8484
  789MOL0     H 4094   2.477  10.141   9.614  0.7937  0.7393  1.8365
  789MOL0     H 4095   2.372  10.334   9.506 -0.9967 -0.7270 -0.9203
  789MOL0     H 4096   2.317  10.390   9.670  0.3627  0.6059 -0.3411
  789MOL0     H 4097   2.158  10.270   9.514 -1.0384  0.7847  2.3451
  789MOL0     H 4098   2.237  10.111   9.538 -2.7357  0.2798 -2.9385
  789MOL0     H 4099   2.217  10.147   9.781  2.1139  1.1718  0.7294
  789MOL0     H 4100   2.065  10.106   9.685  1.0686  0.4805  0.3938
  789MOL0     H 4101   1.929  10.348   9.619  0.5947  2.8304 -1.8766
  789MOL0     H 4102   1.980  10.670   9.655  2.1158 -1.5497  1.2013
  789MOL0     H 4103   1.915  10.704   9.823 -1.5944  1.1282 -0.6103
  789MOL0     H 4104   1.719  10.563   9.781 -1.8973 -1.4925 -1.7749
  789MOL0     H 4105   1.787  10.510   9.621 -0.1384 -0.1011 -1.6255
  789MOL0     H 4106   1.758  10.800   9.672 -1.2303  0.0001 -0.5809
  789MOL0     H 4107   1.730  10.730   9.520 -3.1819  3.2385  0.2175
  789MOL0     H 4108   1.522  10.746   9.744  3.5852 -0.1207  2.2307
  789MOL0     H 4109   1.524  10.614   9.620  1.8952 -0.2672 -3.0230
  789MOL0     H 4110   1.312  10.608   9.627 -0.9528 -1.4892 -2.8574
  789MOL0     H 4111   1.070  10.621   9.579 -1.5391  1.4596  0.7584
  789MOL0     H 4112   0.750  11.145   9.375  1.0930  0.4900  2.0851
  789MOL0     H 4113   0.516  11.159   9.318  1.3496 -0.5324 -2.3368
  789MOL0     H 4114   0.283  11.139   9.279  0.0339 -1.7234  0.7476
  789MOL0     H 4115   0.304  11.175   9.453 -3.2309 -0.2286  1.4715
  789MOL0     H 4116   0.061  11.192   9.402  1.4727  0.7112 -1.5118
  789MOL0     H 4117   0.090  11.038   9.495 -1.9169 -0.2278 -0.1501
  789MOL0     H 4118   0.074  10.903   9.293  0.9755  0.8125  1.0318
  789MOL0     H 4119   0.071  11.049   9.187 -2.5234  1.9769 -0.1094
  789MOL0     H 4120  -0.127  11.123   9.260  3.6150  1.6095  0.7148
  789MOL0     H 4121  -0.159  10.965   9.202 -2.5708 -0.3835  1.7746
  789MOL0     H 4122  -0.276  10.982   9.392  0.4891 -1.1475 -4.6624
  789MOL0     H 4123  -0.144  11.035   9.488 -2.3150 -0.2225  0.1485
  789MOL0     H 4124  -0.033  10.799   9.456 -0.1102 -2.6531  0.7176
  789MOL0     H 4125  -0.160  10.761   9.337 -1.3816 -3.3960  1.8889
  789MOL0     H 4126  -0.250  10.843   9.608 -0.1951  0.2292 -1.7099
  789MOL0     H 4127  -0.331  10.733   9.491  0.3611 -0.7512 -1.8829
  789MOL0     H 4128  -0.100  10.665   9.674  0.2374  1.4760 -0.4191
  789MOL0     H 4129  -0.157  10.566   9.534  1.2384 -0.0083  0.4263
  789MOL0     H 4130   0.455  10.776   9.488  1.4002 -1.6771 -0.1884
  789MOL0     H 4131   0.692  10.774   9.563  0.7754  1.2640  2.5515
  789MOL0     H 4132   1.122  11.006   9.409 -0.9829 -1.6966 -1.2357
  789MOL0     H 4133   1.371  10.983   9.440 -1.3250  0.2757 -0.4818
  789MOL0     H 4134   3.167  10.339   9.967 -0.2810  0.1004 -0.6773
  789MOL0     H 4135   3.401  10.276   9.979 -2.6979 -0.5057  1.8612
  789MOL0     H 4136   3.732  10.153   9.959  0.4943  1.0064 -1.0796
  789MOL0     H 4137   3.974  10.169   9.982 -1.3860  1.1301  0.5728
  789MOL0     H 4138   4.230   9.819   9.798  0.9305  1.1838 -0.6931
  789MOL0     H 4139   4.189   9.830   9.976  1.8032 -0.3477  0.6687
  789MOL0     H 4140   4.407   9.821   9.924 -1.6100 -1.6580  0.5044
  789MOL0     H 4141   4.411   9.981   9.845 -0.1732  2.8732  2.5135
  789MOL0     H 4142   4.347   9.911  10.135  0.3592 -0.3953  0.0444
  789MOL0     H 4143   4.308  10.066  10.069 -2.0329 -1.5446 -1.6662
  789MOL0     H 4144   4.600   9.983  10.069 -1.0011 -1.3133 -1.8934
  789MOL0     H 4145   4.526  10.138  10.016 -0.5379  2.4962  2.6509
  789MOL0     H 4146   4.578  10.191  10.429 -0.2946 -0.8019  0.6684
  789MOL0     H 4147   4.015   9.831   9.712 -3.0562 -2.1688 -1.3013
  789MOL0     H 4148   3.783   9.851   9.656 -0.9357  1.7255 -0.9943
  790MOL0     O 4149   9.167   0.436   9.718 -0.1722  0.0253 -0.3707
  790MOL0     C 4150   9.273   0.481   9.668  0.7819 -0.8684 -0.0037
  790MOL0     O 4151   9.285   0.522   9.540 -0.2870  0.5522  0.3333
  790MOL0     C 4152   9.187   0.528   9.446  0.4117  0.5772 -0.1287
  790MOL0     C 4153   9.066   0.454   9.426  0.0048  0.4985 -0.9121
  790MOL0     C 4154   8.993   0.472   9.312 -0.1520  1.0098  0.0718
  790MOL0     C 4155   9.014   0.572   9.232 -0.4051  0.9730  0.4063
  790MOL0     O 4156   8.925   0.614   9.130  0.6364 -0.4585 -0.3108
  790MOL0     C 4157   8.789   0.632   9.165 -0.1962  0.7263  0.1860
  790MOL0     C 4158   8.769   0.775   9.203  0.5748  0.3625 -0.3517
  790MOL0     C 4159   8.809   0.858   9.083 -0.1017 -0.8040 -0.2961
  790MOL0     C 4160   8.763   1.011   9.086 -1.1368 -0.5217 -0.0879
  790MOL0     C 4161   8.729   1.053   8.942 -0.9643  1.2838  0.2354
  790MOL0     C 4162   8.685   1.199   8.935  0.2320  0.3033 -0.7304
  790MOL0     C 4163   8.796   1.301   8.961 -0.2008  0.0844 -0.5898
  790MOL0     C 4164   8.762   1.443   8.935 -0.5296  0.5182  0.5729
  790MOL0     N 4165   8.670   1.511   9.029  0.4575 -0.7796 -0.5714
  790MOL0     C 4166   8.708   1.570   9.151 -0.0842 -0.0830  0.3823
  790MOL0     C 4167   8.590   1.615   9.205 -0.6592 -0.2598  0.0268
  790MOL0     C 4168   8.565   1.666   9.340 -0.3823  0.4894 -0.9333
  790MOL0     C 4169   8.417   1.680   9.388  0.1234  1.4872 -0.3862
  790MOL0     C 4170   8.366   1.825   9.374  0.2396  0.2196  0.6633
  790MOL0     C 4171   8.211   1.827   9.389  0.6978  0.0346  0.3790
  790MOL0     O 4172   8.157   1.774   9.263  0.5825  0.0054 -0.3660
  790MOL0     C 4173   8.027   1.817   9.228 -0.3921  0.0140 -0.0533
  790MOL0     C 4174   7.931   1.849   9.323  0.5604 -0.3932  0.6909
  790MOL0     C 4175   7.805   1.885   9.282 -0.2913 -0.1311 -0.0910
  790MOL0     C 4176   7.769   1.869   9.145  0.5235 -0.1065  0.7138
  790MOL0     C 4177   7.624   1.891   9.111  0.0214 -0.2490 -0.4693
  790MOL0     O 4178   7.552   1.964   9.201 -0.4960  0.0366  0.0416
  790MOL0     C 4179   7.426   2.024   9.177 -1.7085 -0.1399  0.6081
  790MOL0     C 4180   7.369   2.052   9.049 -0.7041  0.4835 -0.4803
  790MOL0     C 4181   7.250   2.116   9.045  0.3888 -0.2590 -0.4056
  790MOL0     C 4182   7.192   2.161   9.155 -0.3743  0.2055 -0.6020
  790MOL0     O 4183   7.076   2.236   9.160 -0.8629 -0.8726  0.2754
  790MOL0     C 4184   6.981   2.219   9.052 -0.5178 -0.2310 -0.3908
  790MOL0     C 4185   7.008   2.332   8.960  0.0057 -0.0608 -0.0712
  790MOL0     C 4186   6.961   2.470   8.994  0.7443 -0.3808 -0.2036
  790MOL0     C 4187   6.810   2.476   9.016  0.3288 -0.1240  0.3560
  790MOL0     C 4188   6.747   2.615   8.992 -0.2112 -0.0052 -0.4853
  790MOL0     C 4189   6.597   2.620   9.026 -0.2871 -0.6182 -0.0339
  790MOL0     C 4190   6.539   2.563   9.157 -1.0823 -0.8822  0.3502
  790MOL0     C 4191   6.409   2.621   9.193 -0.4882  0.2054 -0.1307
  790MOL0    Cl 4192   6.309   2.582   9.057 -0.0554 -0.1159  0.3010
  790MOL0     C 4193   7.245   2.139   9.279 -0.5739  0.4449 -0.0721
  790MOL0     C 4194   7.372   2.077   9.293  0.1351 -0.7078 -0.7683
  790MOL0     O 4195   7.576   1.833   9.009 -0.9373 -0.3348 -0.5538
  790MOL0     C 4196   7.863   1.823   9.053  0.7971  0.1085  0.1336
  790MOL0     C 4197   8.001   1.805   9.089  1.1203 -0.1820 -0.3994
  790MOL0     N 4198   8.488   1.595   9.110 -0.1556  0.1695  0.0424
  790MOL0     N 4199   8.544   1.547   9.002 -0.2490  0.6102  0.4719
  790MOL0     C 4200   9.133   0.648   9.239  0.2828  0.4148  0.2067
  790MOL0     C 4201   9.223   0.619   9.344 -0.2997 -0.0762 -1.2218
  790MOL0     C 4202   9.386   0.488   9.760  0.2480 -0.6253 -0.4987
  790MOL0     C 4203   9.516   0.504   9.711  0.3509  0.6763 -0.5433
  790MOL0     C 4204   9.620   0.496   9.802  0.6403 -0.0058  0.4383
  790MOL0     C 4205   9.594   0.491   9.942  0.0331 -0.1919 -0.2060
  790MOL0     O 4206   9.708   0.505  10.016  0.3181  0.0397 -0.1705
  790MOL0     C 4207   9.698   0.533  10.158  0.0012  0.2546  0.0533
  790MOL0     C 4208   9.812   0.481  10.239  0.2528  0.8154  1.0675
  790MOL0     C 4209   9.787   0.503  10.391  0.7875 -0.2445  0.0159
  790MOL0     C 4210   9.863   0.622  10.461  0.1759  0.1140  0.1146
  790MOL0     C 4211   9.798   0.749  10.411  0.3052  0.1195 -0.0998
  790MOL0     C 4212   9.751   0.848  10.357 -1.0179  0.8053 -0.5626
  790MOL0     C 4213   9.461   0.481   9.986 -0.7895  0.6747  0.0293
  790MOL0     C 4214   9.360   0.474   9.897  0.3034 -0.1992 -0.3221
  790MOL0     H 4215   9.032   0.377   9.494 -0.7451 -0.0557 -1.8890
  790MOL0     H 4216   8.904   0.409   9.310 -0.5099  1.2829  2.8538
  790MOL0     H 4217   8.769   0.564   9.248  1.3442 -0.1432 -0.1106
  790MOL0     H 4218   8.722   0.598   9.085 -1.4585 -1.7063  2.1466
  790MOL0     H 4219   8.823   0.805   9.293  0.2691 -0.3476  0.0756
  790MOL0     H 4220   8.665   0.793   9.231  1.2109  1.1707  1.6532
  790MOL0     H 4221   8.752   0.811   9.002 -0.4001 -0.4990 -0.2624
  790MOL0     H 4222   8.915   0.848   9.059 -0.5177 -1.0937 -2.2089
  790MOL0     H 4223   8.676   1.034   9.149  0.2001  2.5177  0.8137
  790MOL0     H 4224   8.848   1.065   9.130 -2.0804 -0.0230  1.2146
  790MOL0     H 4225   8.648   0.992   8.899  0.7696 -1.5420  0.7382
  790MOL0     H 4226   8.819   1.041   8.882 -0.1416  1.1516  1.4632
  790MOL0     H 4227   8.602   1.208   9.006  1.0579  3.4657  0.0091
  790MOL0     H 4228   8.644   1.225   8.837 -1.1815 -0.5170 -0.3824
  790MOL0     H 4229   8.827   1.292   9.066 -3.1827  0.6182  0.4479
  790MOL0     H 4230   8.886   1.272   8.906  0.0722 -2.7134  1.0918
  790MOL0     H 4231   8.716   1.445   8.836  0.2002 -4.1151 -0.0501
  790MOL0     H 4232   8.854   1.503   8.937 -0.9988  1.2430  0.6239
  790MOL0     H 4233   8.809   1.570   9.191  0.4581 -1.5283 -0.9002
  790MOL0     H 4234   8.622   1.758   9.353  3.1583 -1.3242 -2.3325
  790MOL0     H 4235   8.622   1.595   9.401  0.5848 -0.0934 -2.4450
  790MOL0     H 4236   8.407   1.636   9.488 -0.1693  0.0811 -1.0136
  790MOL0     H 4237   8.353   1.623   9.321  1.3881  0.7441 -1.0048
  790MOL0     H 4238   8.404   1.894   9.450 -0.4811  0.7105  0.5857
  790MOL0     H 4239   8.392   1.881   9.283 -1.2571 -0.3045 -0.1184
  790MOL0     H 4240   8.176   1.924   9.428 -2.0055 -1.5232  2.1191
  790MOL0     H 4241   8.194   1.763   9.476  3.6874 -3.1095 -1.1014
  790MOL0     H 4242   7.961   1.861   9.426 -1.7798  1.8310  1.2357
  790MOL0     H 4243   7.732   1.911   9.357 -0.0961 -2.7492  1.1099
  790MOL0     H 4244   7.422   2.018   8.961 -2.6718 -2.3392 -0.7078
  790MOL0     H 4245   7.196   2.111   8.950 -0.2466 -2.6309 -0.0053
  790MOL0     H 4246   6.881   2.233   9.093 -0.0609  2.1883  0.1106
  790MOL0     H 4247   6.989   2.126   8.995 -1.1510  0.8545 -2.3341
  790MOL0     H 4248   6.977   2.302   8.859 -0.0936 -0.4110  0.0613
  790MOL0     H 4249   7.118   2.336   8.961  0.1891 -2.5599  2.0827
  790MOL0     H 4250   6.995   2.540   8.916 -0.1969  1.9215  1.3503
  790MOL0     H 4251   7.013   2.497   9.086  0.6159  0.1648 -0.2873
  790MOL0     H 4252   6.764   2.408   8.944  2.6438  0.4484 -1.8257
  790MOL0     H 4253   6.789   2.443   9.118 -0.2437 -1.6188 -0.2232
  790MOL0     H 4254   6.765   2.660   8.894  2.1056  1.5599  0.5608
  790MOL0     H 4255   6.789   2.673   9.075 -0.3120 -0.8225  0.1430
  790MOL0     H 4256   6.539   2.568   8.949 -4.0970  1.7770  0.8918
  790MOL0     H 4257   6.578   2.728   9.028  4.2078  0.3582 -0.0075
  790MOL0     H 4258   6.517   2.456   9.146 -3.0219 -0.3206 -2.1127
  790MOL0     H 4259   6.613   2.587   9.235 -0.5968  2.8693 -1.0784
  790MOL0     H 4260   6.433   2.727   9.203  0.9379  0.0653 -1.6550
  790MOL0     H 4261   6.383   2.573   9.289 -0.3270 -2.4045 -1.2973
  790MOL0     H 4262   7.197   2.195   9.358 -0.8970 -0.5889  0.4733
  790MOL0     H 4263   7.416   2.074   9.392 -3.2791 -0.4474  0.9071
  790MOL0     H 4264   7.827   1.801   8.953 -3.7271  0.0754  1.5595
  790MOL0     H 4265   8.068   1.766   9.014 -0.8144  1.2804 -3.0523
  790MOL0     H 4266   9.148   0.729   9.168  2.1854 -0.5443 -0.5426
  790MOL0     H 4267   9.323   0.660   9.350  1.2604 -3.2472 -3.0344
  790MOL0     H 4268   9.539   0.522   9.607 -1.1660 -0.9472 -1.2167
  790MOL0     H 4269   9.721   0.503   9.765  0.2446  0.3766 -0.6197
  790MOL0     H 4270   9.606   0.490  10.199  0.7312 -1.8444 -0.3690
  790MOL0     H 4271   9.693   0.641  10.167  0.1873  0.1471  1.6795
  790MOL0     H 4272   9.814   0.374  10.219  4.0902  0.5441  2.1027
  790MOL0     H 4273   9.899   0.539  10.205 -1.1986  1.4277 -1.9353
  790MOL0     H 4274   9.819   0.414  10.446 -0.9832 -0.3027  1.0539
  790MOL0     H 4275   9.679   0.498  10.410  0.0602 -1.1189 -3.6334
  790MOL0     H 4276   9.856   0.617  10.570 -0.1142  1.4060  0.1786
  790MOL0     H 4277   9.967   0.622  10.429 -0.0534  0.8722 -0.6862
  790MOL0     H 4278   9.710   0.937  10.313 -4.7215  0.7717  2.3474
  790MOL0     H 4279   9.434   0.476  10.091 -0.8676 -2.9759 -0.0288
  790MOL0     H 4280   9.262   0.467   9.943  0.1417  1.2646 -0.3938
  791MOL0     O 4281   5.465   8.660   2.307  0.2799  0.1566  0.3554
  791MOL0     C 4282   5.460   8.669   2.428 -0.3792  0.6175 -0.0769
  791MOL0     O 4283   5.561   8.716   2.504 -0.2720 -0.1987 -0.2532
  791MOL0     C 4284   5.681   8.736   2.440 -0.0722  0.4893  0.3291
  791MOL0     C 4285   5.738   8.863   2.438 -0.4365  0.2411  0.3960
  791MOL0     C 4286   5.863   8.888   2.383 -0.7459  0.4926 -0.0995
  791MOL0     C 4287   5.947   8.783   2.337  0.9889  0.2093  0.6058
  791MOL0     O 4288   6.069   8.792   2.290 -0.1997 -0.4117  0.0757
  791MOL0     C 4289   6.117   8.926   2.251  0.7424  0.8527  0.1932
  791MOL0     C 4290   6.082   8.942   2.103 -0.0628  0.3834  0.8022
  791MOL0     C 4291   6.132   9.080   2.055 -0.1050 -0.1222  0.2239
  791MOL0     C 4292   6.128   9.083   1.900 -0.7246  0.3787  0.6851
  791MOL0     C 4293   6.234   9.171   1.835 -0.6314 -0.7914  0.0479
  791MOL0     C 4294   6.201   9.321   1.832 -0.3606 -0.4847 -0.9549
  791MOL0     C 4295   6.256   9.397   1.954  0.6718  0.1737  0.1641
  791MOL0     C 4296   6.187   9.535   1.972  0.2405  0.3361  0.8658
  791MOL0     N 4297   6.039   9.541   1.992  0.6993 -0.2014  0.2960
  791MOL0     C 4298   5.958   9.464   2.077  0.6315  0.5193 -0.2266
  791MOL0     C 4299   5.832   9.509   2.050 -0.2816  0.2503  0.1776
  791MOL0     C 4300   5.709   9.453   2.104 -0.5590  0.6757  0.3936
  791MOL0     C 4301   5.594   9.555   2.121 -0.3168 -0.7692 -0.0433
  791MOL0     C 4302   5.638   9.660   2.235 -1.0019 -0.3656 -0.0593
  791MOL0     C 4303   5.557   9.784   2.253  0.2951 -1.1520  0.0377
  791MOL0     O 4304   5.432   9.739   2.290  0.0840  0.2872  0.1034
  791MOL0     C 4305   5.354   9.816   2.367  0.2716 -0.2840  0.3087
  791MOL0     C 4306   5.359   9.953   2.370  0.2385  0.4401  0.4028
  791MOL0     C 4307   5.267  10.039   2.444  0.0517 -0.4276  0.4093
  791MOL0     C 4308   5.156   9.973   2.507  0.0741  0.3625  0.0319
  791MOL0     C 4309   5.043  10.040   2.572 -0.0289 -0.1556 -0.2613
  791MOL0     O 4310   4.947   9.969   2.643  0.0326  0.3303  0.1624
  791MOL0     C 4311   4.854  10.038   2.714  0.1604 -1.8331  0.8849
  791MOL0     C 4312   4.739  10.066   2.649 -0.1435 -0.8430  0.2635
  791MOL0     C 4313   4.635  10.121   2.722  0.7505  0.0487 -0.3492
  791MOL0     C 4314   4.650  10.160   2.860 -0.1147  0.6734  0.0943
  791MOL0     O 4315   4.537  10.196   2.927 -0.4657 -0.5050  0.3731
  791MOL0     C 4316   4.511  10.142   3.051 -0.8603 -0.1623  0.0232
  791MOL0     C 4317   4.364  10.173   3.066  0.3385  0.9133 -0.5082
  791MOL0     C 4318   4.280  10.095   2.964 -0.1418 -0.7413 -0.6233
  791MOL0     C 4319   4.131  10.118   2.988  0.7897 -0.4578 -0.3323
  791MOL0     C 4320   4.076  10.034   3.102 -0.6919  0.9425 -0.9279
  791MOL0     C 4321   3.927  10.044   3.113  0.2004 -0.9580 -0.0271
  791MOL0     C 4322   3.865   9.944   3.217 -1.3061 -0.4029  0.2420
  791MOL0     C 4323   3.716   9.965   3.214  0.3080  0.6018  0.5149
  791MOL0    Cl 4324   3.652   9.839   3.304  0.3970 -0.0485 -0.0805
  791MOL0     C 4325   4.774  10.144   2.917 -0.0250  0.1453  0.1589
  791MOL0     C 4326   4.872  10.077   2.846  0.6891 -0.1772 -1.0112
  791MOL0     O 4327   5.051  10.165   2.560 -0.4809  0.3619 -0.5298
  791MOL0     C 4328   5.162   9.828   2.514 -0.5774  0.2915  0.0165
  791MOL0     C 4329   5.258   9.757   2.439  0.3791  1.0780 -0.6345
  791MOL0     N 4330   5.848   9.605   1.953 -0.4027  0.1315 -0.7182
  791MOL0     N 4331   5.965   9.617   1.915  0.0842 -0.7274  0.3163
  791MOL0     C 4332   5.897   8.652   2.356  0.6329  0.2407 -0.5621
  791MOL0     C 4333   5.762   8.633   2.396 -0.8492  0.3009 -0.1106
  791MOL0     C 4334   5.337   8.650   2.497  0.3265  0.3404  0.4121
  791MOL0     C 4335   5.226   8.603   2.430 -0.1495  0.1365  0.2698
  791MOL0     C 4336   5.104   8.617   2.482  0.2937 -0.2476 -0.3375
  791MOL0     C 4337   5.084   8.664   2.614  0.1971 -0.3664 -0.9247
  791MOL0     O 4338   4.958   8.679   2.663 -0.3712  0.5279 -0.0664
  791MOL0     C 4339   4.906   8.588   2.764 -0.0784 -0.1661  0.1434
  791MOL0     C 4340   4.758   8.624   2.791  0.8400 -0.7416 -0.2821
  791MOL0     C 4341   4.669   8.501   2.830 -1.1328 -0.1682 -0.1326
  791MOL0     C 4342   4.518   8.545   2.827  0.2671  0.6476  0.4488
  791MOL0     C 4343   4.490   8.654   2.921  0.2658  0.0129 -0.5591
  791MOL0     C 4344   4.476   8.746   2.996 -0.0637  0.2413 -0.2363
  791MOL0     C 4345   5.197   8.704   2.687 -0.3024  0.6148  0.4096
  791MOL0     C 4346   5.323   8.703   2.625 -0.0425  0.0894 -0.4840
  791MOL0     H 4347   5.690   8.944   2.493  0.9719  1.0392  0.5275
  791MOL0     H 4348   5.908   8.986   2.392  1.7063 -0.4321 -1.3648
  791MOL0     H 4349   6.226   8.931   2.258  0.8118  2.1767 -1.2166
  791MOL0     H 4350   6.076   9.005   2.314  1.2310  1.6121 -0.4145
  791MOL0     H 4351   5.974   8.926   2.091 -0.2427  1.9811  0.0541
  791MOL0     H 4352   6.138   8.866   2.048 -2.4807  0.5694 -2.1869
  791MOL0     H 4353   6.234   9.095   2.092 -0.3000  2.0555  0.0231
  791MOL0     H 4354   6.065   9.156   2.096  0.2031 -0.3333  1.1468
  791MOL0     H 4355   6.139   8.989   1.846 -1.9852  0.2292  0.6605
  791MOL0     H 4356   6.030   9.114   1.862  0.1540  0.8136 -1.4049
  791MOL0     H 4357   6.247   9.134   1.732 -1.9293 -0.1356 -0.3702
  791MOL0     H 4358   6.329   9.157   1.887 -0.3147  0.3892 -0.1823
  791MOL0     H 4359   6.093   9.335   1.832 -0.3733 -0.2304  1.0166
  791MOL0     H 4360   6.240   9.368   1.742  1.8751  0.4124  0.3906
  791MOL0     H 4361   6.250   9.335   2.044 -0.2237  0.0776  0.0394
  791MOL0     H 4362   6.362   9.410   1.929  0.4250  1.4207 -0.2994
  791MOL0     H 4363   6.208   9.594   1.882  3.1083  0.7781  1.7301
  791MOL0     H 4364   6.241   9.585   2.053 -1.2718  4.9589 -0.6864
  791MOL0     H 4365   5.990   9.382   2.140 -2.5587 -0.7013  0.0082
  791MOL0     H 4366   5.726   9.410   2.203  0.1350  2.5939  1.1468
  791MOL0     H 4367   5.680   9.361   2.051 -0.8812  2.1531 -2.1845
  791MOL0     H 4368   5.512   9.495   2.161 -0.6590 -0.8042 -0.7720
  791MOL0     H 4369   5.559   9.602   2.029  0.9337 -1.6515 -1.0127
  791MOL0     H 4370   5.646   9.602   2.328  0.2745  1.9551  1.3716
  791MOL0     H 4371   5.737   9.697   2.205  0.0085 -2.3838  0.5928
  791MOL0     H 4372   5.535   9.838   2.161 -3.0665 -1.4092  0.5355
  791MOL0     H 4373   5.588   9.858   2.327  0.0029 -0.1361 -0.8239
  791MOL0     H 4374   5.442  10.009   2.326  0.2057  0.7775  0.7654
  791MOL0     H 4375   5.292  10.144   2.437 -2.3067  0.0973 -1.4445
  791MOL0     H 4376   4.719  10.017   2.554  3.9075 -2.6797  0.1665
  791MOL0     H 4377   4.533  10.129   2.686  0.4619  0.0837  0.4603
  791MOL0     H 4378   4.577  10.204   3.113  0.7465  0.4945 -2.2000
  791MOL0     H 4379   4.544  10.038   3.060  0.7318  0.3072 -0.1609
  791MOL0     H 4380   4.346  10.281   3.061  2.3848  1.3891  1.0005
  791MOL0     H 4381   4.333  10.141   3.166  0.0710 -1.5225 -1.2981
  791MOL0     H 4382   4.296   9.987   2.951  1.6847 -0.6657  0.7800
  791MOL0     H 4383   4.300  10.146   2.869 -1.8273  0.5054 -0.3524
  791MOL0     H 4384   4.109  10.225   2.998 -0.0771 -0.3163 -3.0921
  791MOL0     H 4385   4.091  10.092   2.890 -0.8106  0.2640  0.1007
  791MOL0     H 4386   4.117  10.065   3.198  0.2533 -0.0986 -0.9723
  791MOL0     H 4387   4.105   9.933   3.070 -3.1978  0.0154 -0.4721
  791MOL0     H 4388   3.886  10.020   3.015  0.0843  0.1072 -0.2524
  791MOL0     H 4389   3.913  10.151   3.131  0.7597 -0.8964  0.0651
  791MOL0     H 4390   3.897   9.843   3.187  1.5824 -0.1597  2.0332
  791MOL0     H 4391   3.902   9.966   3.318  0.6146  0.4895 -0.6050
  791MOL0     H 4392   3.690   9.957   3.109  2.2893 -0.9072  0.0769
  791MOL0     H 4393   3.691  10.066   3.248 -3.6275  0.5431 -1.6444
  791MOL0     H 4394   4.796  10.177   3.017 -0.7652 -0.1909  0.4458
  791MOL0     H 4395   4.971  10.050   2.880  0.5483  0.2446 -0.2391
  791MOL0     H 4396   5.086   9.780   2.575 -0.6857  3.1070  2.3036
  791MOL0     H 4397   5.248   9.650   2.450  0.3801  1.0144 -1.2331
  791MOL0     H 4398   5.958   8.566   2.331  0.0783  0.3590 -2.4305
  791MOL0     H 4399   5.724   8.532   2.400 -2.9867  1.0661 -0.1593
  791MOL0     H 4400   5.239   8.567   2.329  0.8543 -0.0161  0.4452
  791MOL0     H 4401   5.016   8.580   2.429 -1.4251  2.9890 -0.0221
  791MOL0     H 4402   4.965   8.605   2.855  0.9839  1.6618 -0.8440
  791MOL0     H 4403   4.916   8.484   2.729  0.7362  0.0494 -0.2934
  791MOL0     H 4404   4.751   8.690   2.878  3.2058 -0.0809 -0.5269
  791MOL0     H 4405   4.733   8.673   2.696  3.0027  0.6344 -0.2066
  791MOL0     H 4406   4.692   8.465   2.931  1.4987  1.9615  0.1633
  791MOL0     H 4407   4.686   8.423   2.756 -1.7648 -4.2761  3.6293
  791MOL0     H 4408   4.491   8.571   2.724  0.1090 -0.2779  0.2454
  791MOL0     H 4409   4.468   8.454   2.862  1.6031  0.6052  2.3975
  791MOL0     H 4410   4.457   8.829   3.062 -0.1688 -0.0899  0.1579
  791MOL0     H 4411   5.188   8.742   2.788  0.2412 -2.0278  1.5364
  791MOL0     H 4412   5.411   8.735   2.680  0.4848 -2.9334  0.6371
  792MOL0     O 4413   7.908   9.989   1.653  0.0042 -0.0479 -0.1844
  792MOL0     C 4414   7.891   9.982   1.528  0.6385 -0.7660 -0.0091
  792MOL0     O 4415   7.765   9.972   1.474 -0.3271  0.8764  0.3649
  792MOL0     C 4416   7.655   9.985   1.559 -0.4420  0.6600  0.2281
  792MOL0     C 4417   7.601   9.869   1.617 -1.0691  0.1160  0.4785
  792MOL0     C 4418   7.514   9.877   1.730 -0.7751  0.8852  0.7649
  792MOL0     C 4419   7.460  10.002   1.764 -0.1610  0.5500 -0.3229
  792MOL0     O 4420   7.375  10.028   1.867  1.0518  0.2097  0.5385
  792MOL0     C 4421   7.349   9.918   1.953 -0.2070  0.7072  0.0258
  792MOL0     C 4422   7.231   9.957   2.046  0.3558  0.6674 -0.0381
  792MOL0     C 4423   7.128   9.844   2.055  0.2637  0.1102  0.3263
  792MOL0     C 4424   7.006   9.901   2.132 -0.3011  0.4455 -0.3384
  792MOL0     C 4425   6.891   9.804   2.108  0.3417 -0.0071  0.1268
  792MOL0     C 4426   6.838   9.728   2.233  0.0738  0.6672  0.2401
  792MOL0     C 4427   6.724   9.636   2.175 -0.6234 -0.7133  0.0812
  792MOL0     C 4428   6.652   9.558   2.279 -0.5603  0.5994  0.1936
  792MOL0     N 4429   6.589   9.441   2.226 -0.0266  0.0249  0.1988
  792MOL0     C 4430   6.647   9.326   2.178  0.5480  0.8179  0.0588
  792MOL0     C 4431   6.545   9.235   2.185 -0.7227  0.0272 -0.2314
  792MOL0     C 4432   6.554   9.098   2.107  0.1490 -0.8884 -1.1342
  792MOL0     C 4433   6.639   8.992   2.187 -0.0094  0.5022  0.0323
  792MOL0     C 4434   6.565   8.862   2.230  0.1723  0.0405 -0.2540
  792MOL0     C 4435   6.633   8.758   2.321 -0.0209  0.7357  0.6141
  792MOL0     O 4436   6.583   8.624   2.304 -0.2371 -0.3123  0.4313
  792MOL0     C 4437   6.467   8.592   2.372  0.1780 -0.1689  0.3311
  792MOL0     C 4438   6.394   8.680   2.457  0.3196 -0.2757 -0.3249
  792MOL0     C 4439   6.278   8.631   2.523  0.4922 -0.0193 -0.4293
  792MOL0     C 4440   6.227   8.501   2.514 -0.5620 -0.1038  0.6744
  792MOL0     C 4441   6.110   8.446   2.591  0.0254 -1.1186  0.2359
  792MOL0     O 4442   6.111   8.310   2.599  0.1753  0.0345  0.9649
  792MOL0     C 4443   6.025   8.236   2.670 -0.0243 -0.9334  0.2973
  792MOL0     C 4444   6.079   8.117   2.726  0.8791 -0.4143  0.7365
  792MOL0     C 4445   6.001   8.029   2.801  0.2874 -1.5231 -0.3676
  792MOL0     C 4446   5.858   8.052   2.814  0.1321 -0.2986  0.1324
  792MOL0     O 4447   5.789   7.960   2.883  1.1624  0.2174 -0.2458
  792MOL0     C 4448   5.645   7.948   2.890 -0.0786 -0.4639 -0.0060
  792MOL0     C 4449   5.583   7.897   2.761 -0.1894 -0.3410 -0.1748
  792MOL0     C 4450   5.434   7.921   2.758  0.0917 -0.4420 -0.1997
  792MOL0     C 4451   5.353   7.791   2.805 -1.2281 -0.0512 -0.4796
  792MOL0     C 4452   5.209   7.820   2.810  0.6118 -0.2445 -0.2368
  792MOL0     C 4453   5.140   7.746   2.696 -0.2572  0.0325  0.5463
  792MOL0     C 4454   4.993   7.769   2.710 -0.3917  0.2934 -1.1743
  792MOL0     C 4455   4.920   7.670   2.795  0.8815  0.9865 -0.5032
  792MOL0    Cl 4456   4.754   7.741   2.809 -0.6797  0.2825  0.2662
  792MOL0     C 4457   5.806   8.180   2.772 -0.2320 -0.1364 -1.0625
  792MOL0     C 4458   5.887   8.261   2.685  0.1441  0.1173 -0.6825
  792MOL0     O 4459   6.029   8.523   2.645 -0.0522  0.2402  0.1674
  792MOL0     C 4460   6.306   8.412   2.436 -0.0120 -0.6334  0.0612
  792MOL0     C 4461   6.422   8.456   2.362  0.5531 -0.3328  0.0352
  792MOL0     N 4462   6.427   9.297   2.233  0.5835 -0.6909  0.5399
  792MOL0     N 4463   6.456   9.423   2.238  0.3886  0.4154  0.0798
  792MOL0     C 4464   7.513  10.115   1.704  1.4343  0.0893  0.1086
  792MOL0     C 4465   7.603  10.105   1.605 -0.0808 -0.5001 -0.2993
  792MOL0     C 4466   8.001   9.967   1.438 -0.0027 -0.3213 -0.5112
  792MOL0     C 4467   8.130   9.981   1.486  0.1441  0.0468  1.1734
  792MOL0     C 4468   8.237   9.981   1.395  0.2750  0.4025  0.7051
  792MOL0     C 4469   8.221   9.935   1.265 -0.3375 -0.4445  0.3660
  792MOL0     O 4470   8.329   9.922   1.180 -0.1434  0.3986  0.1620
  792MOL0     C 4471   8.318   9.852   1.059  0.1391  0.3573 -0.1349
  792MOL0     C 4472   8.458   9.794   1.016 -0.2846 -1.4571  0.0605
  792MOL0     C 4473   8.442   9.726   0.877 -0.2591 -0.1188  0.4252
  792MOL0     C 4474   8.576   9.647   0.847  0.7841 -0.6871 -0.0833
  792MOL0     C 4475   8.575   9.569   0.722 -0.1029 -0.6254  0.0493
  792MOL0     C 4476   8.572   9.502   0.626  0.6097  0.6415 -0.3870
  792MOL0     C 4477   8.093   9.907   1.222  0.6444 -0.0344 -0.3275
  792MOL0     C 4478   7.977   9.924   1.306 -0.1117 -0.3127  0.4283
  792MOL0     H 4479   7.644   9.772   1.598  0.6001  0.1121  3.5589
  792MOL0     H 4480   7.491   9.788   1.788 -1.4946  1.6472  1.6920
  792MOL0     H 4481   7.440   9.881   2.002  0.2175 -3.2040 -3.2093
  792MOL0     H 4482   7.313   9.830   1.899 -0.3230  0.5536  0.3497
  792MOL0     H 4483   7.181  10.040   1.997 -2.3750 -0.3922  0.7241
  792MOL0     H 4484   7.263   9.982   2.148 -1.5113  1.6655  0.3585
  792MOL0     H 4485   7.169   9.760   2.113 -1.5697 -0.6383  0.6079
  792MOL0     H 4486   7.103   9.817   1.952 -1.4028  2.3300  0.0852
  792MOL0     H 4487   7.035   9.910   2.237 -1.0778  4.2605 -0.2841
  792MOL0     H 4488   6.972   9.991   2.079 -2.8212  0.2443  0.8494
  792MOL0     H 4489   6.904   9.733   2.027  0.8736 -0.0441  0.2419
  792MOL0     H 4490   6.806   9.867   2.081 -0.4166 -0.9013  0.3968
  792MOL0     H 4491   6.811   9.795   2.316 -0.7168 -1.1612  1.5168
  792MOL0     H 4492   6.908   9.662   2.285 -1.5147 -1.8720 -0.6733
  792MOL0     H 4493   6.654   9.686   2.107  3.0702  1.2834 -2.6058
  792MOL0     H 4494   6.777   9.566   2.111 -0.3438 -0.6596  0.2529
  792MOL0     H 4495   6.569   9.626   2.300 -0.5266  1.6224 -2.6369
  792MOL0     H 4496   6.715   9.533   2.365  1.0468  1.1871 -0.7686
  792MOL0     H 4497   6.748   9.324   2.138  1.4553  0.9398  2.2247
  792MOL0     H 4498   6.612   9.114   2.016  1.8945 -0.1816  0.0604
  792MOL0     H 4499   6.455   9.056   2.084 -0.8133  0.1537  0.8092
  792MOL0     H 4500   6.682   9.034   2.279 -0.4779 -0.0145  0.4931
  792MOL0     H 4501   6.720   8.957   2.124 -1.2323 -1.9169 -0.2901
  792MOL0     H 4502   6.474   8.881   2.287  0.8220  0.7126  0.5796
  792MOL0     H 4503   6.532   8.820   2.134  1.8241 -2.6751  0.2707
  792MOL0     H 4504   6.626   8.795   2.424  0.8127  0.4115  0.8002
  792MOL0     H 4505   6.738   8.753   2.289  0.0318 -0.8261  0.9393
  792MOL0     H 4506   6.421   8.785   2.466  1.9829 -0.7556  0.7018
  792MOL0     H 4507   6.218   8.704   2.578  1.8310 -0.0376  1.1065
  792MOL0     H 4508   6.183   8.100   2.700  1.5476  0.7699  2.4678
  792MOL0     H 4509   6.048   7.944   2.849 -0.7467 -2.3824 -0.8257
  792MOL0     H 4510   5.603   8.045   2.919 -1.1148 -1.8117  3.3699
  792MOL0     H 4511   5.618   7.878   2.969  0.7999 -0.4010  0.3564
  792MOL0     H 4512   5.598   7.791   2.739  0.2870 -0.6210  1.3600
  792MOL0     H 4513   5.620   7.956   2.677 -1.5816 -1.4363 -1.6059
  792MOL0     H 4514   5.401   7.945   2.656 -0.4324  1.1586  0.3333
  792MOL0     H 4515   5.411   8.002   2.826  2.3112 -0.6581  0.9071
  792MOL0     H 4516   5.370   7.712   2.732 -1.3303 -1.4904  1.0046
  792MOL0     H 4517   5.390   7.751   2.900  1.4530 -0.6595 -1.7093
  792MOL0     H 4518   5.201   7.929   2.798 -1.4117 -0.2958  0.3147
  792MOL0     H 4519   5.172   7.787   2.908 -0.5933  0.3900 -0.4627
  792MOL0     H 4520   5.163   7.639   2.703 -2.0311 -0.2897  2.7096
  792MOL0     H 4521   5.163   7.797   2.602  1.4575 -1.2917  0.1974
  792MOL0     H 4522   4.988   7.867   2.760  1.1193  0.9844 -2.3083
  792MOL0     H 4523   4.932   7.784   2.620 -0.3167 -0.1762 -1.3055
  792MOL0     H 4524   4.962   7.664   2.896 -1.4811 -0.4989  0.4747
  792MOL0     H 4525   4.928   7.571   2.750 -0.7514  2.0163 -3.3197
  792MOL0     H 4526   5.704   8.215   2.785 -0.8102 -0.6690 -3.7036
  792MOL0     H 4527   5.833   8.348   2.648 -2.2741 -1.6167 -1.4961
  792MOL0     H 4528   6.274   8.312   2.409  0.0168  0.2189 -3.6136
  792MOL0     H 4529   6.478   8.386   2.302  1.1942 -0.2846  0.5665
  792MOL0     H 4530   7.469  10.214   1.712  0.4524 -0.0925 -2.1475
  792MOL0     H 4531   7.636  10.196   1.556 -1.8980 -0.9743 -2.5937
  792MOL0     H 4532   8.143  10.011   1.590  0.0091 -0.9854  1.4996
  792MOL0     H 4533   8.334  10.017   1.428  1.0254 -1.1200  0.2428
  792MOL0     H 4534   8.283   9.921   0.981 -2.4366  0.7673  1.2865
  792MOL0     H 4535   8.247   9.770   1.070 -3.1273  2.6618 -2.2489
  792MOL0     H 4536   8.540   9.866   1.022 -0.4763 -1.2745  0.5826
  792MOL0     H 4537   8.481   9.721   1.094  1.4986 -0.8215  0.1717
  792MOL0     H 4538   8.432   9.799   0.797 -2.0735  0.3891  1.0854
  792MOL0     H 4539   8.353   9.664   0.886 -0.6594  0.4405  0.3230
  792MOL0     H 4540   8.647   9.727   0.823  1.6685 -1.2727  0.5384
  792MOL0     H 4541   8.603   9.577   0.926 -2.2027 -1.8695  0.0014
  792MOL0     H 4542   8.574   9.436   0.541 -1.4637 -0.0841  0.0718
  792MOL0     H 4543   8.071   9.886   1.117  1.1816  2.1478 -0.9278
  792MOL0     H 4544   7.876   9.925   1.265  0.1978  6.2885 -1.3343
  793MOL0     O 4545   9.055   1.476   7.464 -0.5111 -0.6715  0.3388
  793MOL0     C 4546   9.058   1.524   7.580  0.5250  0.4093  0.9345
  793MOL0     O 4547   8.960   1.591   7.638  0.4327  0.2631  0.7248
  793MOL0     C 4548   8.831   1.546   7.606 -0.6403 -0.0569  0.3016
  793MOL0     C 4549   8.740   1.645   7.560 -0.0293 -0.0392  0.0212
  793MOL0     C 4550   8.617   1.602   7.514 -0.1091 -0.1542  1.0967
  793MOL0     C 4551   8.576   1.468   7.531 -0.4343  0.0836  0.7723
  793MOL0     O 4552   8.445   1.436   7.498  0.0275 -0.2499 -0.2939
  793MOL0     C 4553   8.443   1.370   7.376  0.6600  1.6959 -0.0103
  793MOL0     C 4554   8.361   1.238   7.370  0.8814 -0.7330 -0.2100
  793MOL0     C 4555   8.218   1.273   7.370  0.0758 -0.2708  0.2312
  793MOL0     C 4556   8.126   1.152   7.355  0.5825  0.4566  0.8639
  793MOL0     C 4557   8.075   1.137   7.222  0.8868 -0.0089  0.0569
  793MOL0     C 4558   7.992   1.002   7.204 -1.3259 -0.3243 -0.5110
  793MOL0     C 4559   7.914   1.007   7.077  0.2730 -0.3958 -0.0777
  793MOL0     C 4560   7.871   0.867   7.016 -0.2015  0.3210  0.7343
  793MOL0     N 4561   7.974   0.790   6.947  0.1033 -1.2878  0.4974
  793MOL0     C 4562   8.108   0.822   6.941 -0.0228 -0.5598 -0.8970
  793MOL0     C 4563   8.166   0.715   6.891 -0.0652 -0.2648 -0.0497
  793MOL0     C 4564   8.310   0.715   6.864 -0.5640 -0.3784  0.1615
  793MOL0     C 4565   8.354   0.616   6.752  0.1864 -0.2013  0.9481
  793MOL0     C 4566   8.490   0.655   6.701 -0.9241 -0.0710  0.9413
  793MOL0     C 4567   8.597   0.630   6.809 -0.1279 -0.1599 -0.6273
  793MOL0     O 4568   8.727   0.657   6.762  0.3470 -0.2282 -0.0461
  793MOL0     C 4569   8.802   0.737   6.846  0.0681 -0.6700  0.6091
  793MOL0     C 4570   8.833   0.865   6.801 -0.0845 -0.0390 -1.1688
  793MOL0     C 4571   8.940   0.937   6.860  0.5871  0.7292 -0.5713
  793MOL0     C 4572   8.994   0.887   6.979  0.0940  0.3781 -0.2361
  793MOL0     C 4573   9.092   0.966   7.056  0.4077  0.0275  0.0302
  793MOL0     O 4574   9.126   0.931   7.189  0.2722  0.0483 -0.5876
  793MOL0     C 4575   9.232   0.992   7.249 -1.1194  0.8406  0.1350
  793MOL0     C 4576   9.246   1.129   7.251  0.9451  0.5531  0.6433
  793MOL0     C 4577   9.359   1.183   7.297 -0.0482 -0.3951  0.4660
  793MOL0     C 4578   9.465   1.114   7.356  0.6938 -0.0930  0.9768
  793MOL0     O 4579   9.574   1.180   7.394 -0.2707 -0.3892 -0.0395
  793MOL0     C 4580   9.630   1.157   7.525  0.1640 -0.1150 -0.0186
  793MOL0     C 4581   9.777   1.138   7.524  0.0806 -0.0039  0.3416
  793MOL0     C 4582   9.815   0.999   7.489  0.0239 -0.1144  0.7500
  793MOL0     C 4583   9.961   0.983   7.471  0.0171 -0.0714  0.7806
  793MOL0     C 4584  10.016   0.842   7.441 -0.8791  0.1665 -0.3634
  793MOL0     C 4585  10.165   0.848   7.467 -0.3912  0.0242 -0.3879
  793MOL0     C 4586  10.238   0.712   7.433  0.4857 -0.5009 -0.2390
  793MOL0     C 4587  10.394   0.726   7.447 -0.0679  0.0677  0.1514
  793MOL0    Cl 4588  10.481   0.581   7.384 -0.0088 -0.1090  0.0455
  793MOL0     C 4589   9.453   0.972   7.349  0.2335  0.7126  0.6856
  793MOL0     C 4590   9.333   0.913   7.295  0.0272 -0.5551  0.0938
  793MOL0     O 4591   9.157   1.044   6.990 -0.1239  0.9061  0.7409
  793MOL0     C 4592   8.949   0.760   7.027  0.0036  0.0505  0.6101
  793MOL0     C 4593   8.846   0.687   6.967 -0.1196 -0.4603 -0.4287
  793MOL0     N 4594   8.065   0.621   6.859  0.3414  0.3324  0.2464
  793MOL0     N 4595   7.956   0.664   6.901  0.7252 -0.4694  0.1282
  793MOL0     C 4596   8.665   1.371   7.588  0.0333  0.0683 -0.3315
  793MOL0     C 4597   8.803   1.403   7.606  0.5885 -0.3394 -0.1174
  793MOL0     C 4598   9.182   1.515   7.658  0.2386  0.1106 -0.5003
  793MOL0     C 4599   9.189   1.542   7.794 -0.8343 -0.9584 -0.2497
  793MOL0     C 4600   9.304   1.536   7.866 -0.1270  0.0142 -0.1389
  793MOL0     C 4601   9.422   1.492   7.807 -0.2258 -0.4428  0.1993
  793MOL0     O 4602   9.541   1.491   7.877  0.4891 -0.2972  0.0320
  793MOL0     C 4603   9.553   1.380   7.955 -0.2164  0.1536 -0.5657
  793MOL0     C 4604   9.598   1.247   7.898  0.7501 -0.5974  0.9159
  793MOL0     C 4605   9.662   1.156   7.998  0.2266  0.1762  0.1175
  793MOL0     C 4606   9.728   1.029   7.935 -0.2777 -0.1405 -0.4089
  793MOL0     C 4607   9.637   0.928   7.891 -0.1631  0.5169 -0.5687
  793MOL0     C 4608   9.564   0.851   7.824 -0.1582  0.3516  1.0862
  793MOL0     C 4609   9.419   1.463   7.666 -0.1986  0.0912  0.0344
  793MOL0     C 4610   9.295   1.457   7.599  0.3900 -0.7016 -0.1242
  793MOL0     H 4611   8.761   1.752   7.555  0.4900 -0.1176 -5.4310
  793MOL0     H 4612   8.544   1.670   7.471  0.2390 -1.6125 -2.1243
  793MOL0     H 4613   8.539   1.332   7.339  1.0789  3.6940 -1.1583
  793MOL0     H 4614   8.397   1.438   7.303  0.1162  0.9091 -0.4130
  793MOL0     H 4615   8.385   1.167   7.449  1.3949  1.7157  1.9476
  793MOL0     H 4616   8.387   1.179   7.281  0.2793 -0.5610 -0.5067
  793MOL0     H 4617   8.188   1.338   7.287  2.8773  0.6015 -0.1886
  793MOL0     H 4618   8.192   1.328   7.461  2.6951  1.3225  0.0933
  793MOL0     H 4619   8.167   1.059   7.396 -2.9542 -3.0205 -2.6546
  793MOL0     H 4620   8.040   1.181   7.415 -0.2049  2.4425 -1.0967
  793MOL0     H 4621   8.154   1.127   7.146 -0.0167  1.2902 -1.1101
  793MOL0     H 4622   8.005   1.219   7.206  1.5593  0.4624 -0.5327
  793MOL0     H 4623   7.929   0.980   7.291 -0.1384 -0.4644  0.3344
  793MOL0     H 4624   8.052   0.912   7.190  1.3258  1.4209 -1.0350
  793MOL0     H 4625   7.824   1.063   7.104 -1.5562 -3.6515  1.0560
  793MOL0     H 4626   7.978   1.053   7.001 -2.4400 -1.8718 -3.4764
  793MOL0     H 4627   7.789   0.886   6.946  0.1707  0.0525  0.2165
  793MOL0     H 4628   7.839   0.798   7.095 -0.0611  0.7415  1.1569
  793MOL0     H 4629   8.165   0.911   6.968  1.0770 -1.5302  0.1025
  793MOL0     H 4630   8.367   0.687   6.953  0.8188 -1.6401 -1.0651
  793MOL0     H 4631   8.337   0.817   6.838  2.3846 -0.8926  0.8793
  793MOL0     H 4632   8.287   0.622   6.666  0.3700  0.3327  0.8354
  793MOL0     H 4633   8.350   0.511   6.782 -0.3121 -1.6218 -3.4826
  793MOL0     H 4634   8.512   0.577   6.627 -1.0362 -0.3914  1.2445
  793MOL0     H 4635   8.496   0.756   6.661 -0.3443 -0.2443  0.5598
  793MOL0     H 4636   8.589   0.529   6.850 -0.2102  0.2714  0.4747
  793MOL0     H 4637   8.573   0.702   6.888 -1.2261  0.5377 -1.5604
  793MOL0     H 4638   8.784   0.898   6.710  0.3856 -0.5065 -1.5966
  793MOL0     H 4639   8.974   1.031   6.818  0.6291  0.6622 -0.6859
  793MOL0     H 4640   9.158   1.191   7.235  0.4389  0.1366  1.7154
  793MOL0     H 4641   9.375   1.291   7.294  1.9639 -0.6043  1.4146
  793MOL0     H 4642   9.584   1.066   7.565  0.4224 -1.3071 -2.2705
  793MOL0     H 4643   9.602   1.240   7.591 -0.3868 -0.7042  0.5110
  793MOL0     H 4644   9.823   1.152   7.622 -3.5309  0.4173  2.1051
  793MOL0     H 4645   9.814   1.212   7.452  0.9540 -2.8322 -2.3581
  793MOL0     H 4646   9.763   0.965   7.399  1.6846 -0.7907 -0.0043
  793MOL0     H 4647   9.778   0.933   7.568 -0.0485 -0.6024  0.3193
  793MOL0     H 4648   9.992   1.055   7.394 -1.1795  1.8854  2.0430
  793MOL0     H 4649  10.012   1.017   7.562  2.6372  2.4687 -1.4467
  793MOL0     H 4650  10.000   0.814   7.337  2.8747 -6.2271  0.2437
  793MOL0     H 4651   9.972   0.766   7.507 -0.8797 -2.2785 -2.9843
  793MOL0     H 4652  10.184   0.887   7.567 -4.1772 -0.4144  0.6391
  793MOL0     H 4653  10.200   0.928   7.400 -1.3693  1.9591  1.2984
  793MOL0     H 4654  10.203   0.638   7.506 -0.8404 -2.3165 -2.5689
  793MOL0     H 4655  10.212   0.680   7.332 -2.2476  0.2639  0.1127
  793MOL0     H 4656  10.424   0.753   7.548 -5.0846  2.7494  1.2527
  793MOL0     H 4657  10.427   0.814   7.390 -0.6596  1.0422  1.2699
  793MOL0     H 4658   9.534   0.908   7.381 -0.5845 -0.3498  0.6671
  793MOL0     H 4659   9.317   0.807   7.276  0.1716 -0.5627  0.0108
  793MOL0     H 4660   9.005   0.718   7.109  0.4923  1.7679  1.2004
  793MOL0     H 4661   8.804   0.596   7.007 -3.0085  0.9721  0.0747
  793MOL0     H 4662   8.639   1.266   7.596  0.4741 -0.0594 -0.5393
  793MOL0     H 4663   8.883   1.330   7.613  0.3243 -0.8794 -2.1186
  793MOL0     H 4664   9.103   1.582   7.847  1.5541  0.2022  3.0533
  793MOL0     H 4665   9.306   1.561   7.972 -3.0412 -0.8157  0.1983
  793MOL0     H 4666   9.455   1.369   8.003 -0.6976  0.5459 -1.4394
  793MOL0     H 4667   9.634   1.396   8.028 -0.8535 -1.8697  0.6552
  793MOL0     H 4668   9.513   1.208   7.841  1.7129 -0.6858 -0.5332
  793MOL0     H 4669   9.674   1.266   7.822 -1.8510 -0.7143 -1.9177
  793MOL0     H 4670   9.592   1.127   8.076 -0.9899  0.6276 -0.7760
  793MOL0     H 4671   9.739   1.223   8.038 -1.1253  2.4684 -0.8893
  793MOL0     H 4672   9.788   1.054   7.847 -2.4385  1.7171 -1.4439
  793MOL0     H 4673   9.805   0.994   8.004  3.0773  3.1744 -2.0829
  793MOL0     H 4674   9.491   0.781   7.787 -1.6439  0.8643  2.8651
  793MOL0     H 4675   9.505   1.433   7.607 -1.3195  1.1307 -2.2314
  793MOL0     H 4676   9.298   1.406   7.503 -0.0251 -1.9475  0.5101
  794MOL0     O 4677   6.704   8.902   3.041  0.4178  0.1501  0.4791
  794MOL0     C 4678   6.630   8.812   3.013  0.3100 -0.3403  0.3619
  794MOL0     O 4679   6.669   8.686   2.993 -0.0325  0.4106  0.9961
  794MOL0     C 4680   6.801   8.659   3.022 -0.4118  0.4512 -0.2099
  794MOL0     C 4681   6.858   8.691   3.142  0.3283  0.4891 -0.2029
  794MOL0     C 4682   6.985   8.644   3.171 -0.1045  0.3023 -0.5143
  794MOL0     C 4683   7.070   8.586   3.071 -0.0925 -0.1680  0.0888
  794MOL0     O 4684   7.199   8.563   3.112  0.3212  0.7247  0.5403
  794MOL0     C 4685   7.290   8.499   3.015  0.1994  0.3379 -0.3300
  794MOL0     C 4686   7.439   8.517   3.063 -0.2158 -0.5130 -0.4878
  794MOL0     C 4687   7.541   8.486   2.942 -0.1655  1.0065 -0.0464
  794MOL0     C 4688   7.524   8.335   2.906 -0.2817 -0.2769  0.0464
  794MOL0     C 4689   7.635   8.290   2.817 -0.0029  0.6727  0.9090
  794MOL0     C 4690   7.650   8.133   2.830  0.0788 -0.7148  0.9139
  794MOL0     C 4691   7.748   8.094   2.720 -0.2223  0.2228  0.5524
  794MOL0     C 4692   7.743   7.951   2.668 -0.0492 -0.4637 -0.0576
  794MOL0     N 4693   7.626   7.925   2.588 -1.1039 -0.5806 -0.2588
  794MOL0     C 4694   7.538   7.821   2.628 -0.2295 -0.5020 -0.1883
  794MOL0     C 4695   7.420   7.853   2.572  0.4917  0.3616 -0.7785
  794MOL0     C 4696   7.298   7.758   2.579 -0.4585 -1.0926 -0.0533
  794MOL0     C 4697   7.219   7.789   2.709  0.3732  0.2317  0.0395
  794MOL0     C 4698   7.116   7.683   2.754 -0.5192 -0.7237 -0.6183
  794MOL0     C 4699   7.017   7.647   2.649  0.6556  0.1593  0.9851
  794MOL0     O 4700   6.930   7.748   2.606  0.4161  0.4469 -0.3212
  794MOL0     C 4701   6.808   7.739   2.665  0.7771  1.4007 -0.4892
  794MOL0     C 4702   6.753   7.653   2.765 -0.1719 -0.0977 -0.7391
  794MOL0     C 4703   6.624   7.665   2.809 -0.3115  0.0600  0.2203
  794MOL0     C 4704   6.537   7.764   2.759 -0.1105  0.3317 -0.5635
  794MOL0     C 4705   6.404   7.759   2.799  0.6733 -0.5428 -0.2191
  794MOL0     O 4706   6.354   7.634   2.826 -0.6038 -0.4080  0.0947
  794MOL0     C 4707   6.221   7.621   2.875 -0.5283  0.2035 -0.2923
  794MOL0     C 4708   6.106   7.656   2.795 -0.0012 -0.0361  0.4491
  794MOL0     C 4709   5.977   7.648   2.848 -0.0126 -0.7016  0.6167
  794MOL0     C 4710   5.959   7.599   2.973  0.2071  0.0737 -0.1182
  794MOL0     O 4711   5.831   7.567   3.012 -0.1748 -0.4379  0.0231
  794MOL0     C 4712   5.768   7.587   3.134  0.1007 -0.0292 -0.5605
  794MOL0     C 4713   5.628   7.541   3.120  0.0887  0.4358 -0.1368
  794MOL0     C 4714   5.522   7.608   3.212 -0.0654  0.2595 -0.6239
  794MOL0     C 4715   5.384   7.533   3.207 -1.7548 -0.4169  0.4422
  794MOL0     C 4716   5.282   7.612   3.276  1.1777 -0.6185 -0.4583
  794MOL0     C 4717   5.165   7.525   3.329  0.7180  0.2353 -0.1286
  794MOL0     C 4718   5.045   7.596   3.386  1.0043  0.2753 -0.8512
  794MOL0     C 4719   5.071   7.710   3.495 -0.0554  0.6716 -0.0020
  794MOL0    Cl 4720   5.163   7.648   3.633 -0.3807 -0.2030  0.2426
  794MOL0     C 4721   6.070   7.571   3.055 -1.3849  1.2321 -0.1739
  794MOL0     C 4722   6.203   7.578   3.004  0.0781 -0.2191 -0.0432
  794MOL0     O 4723   6.341   7.871   2.809  0.0737 -0.0216  0.4002
  794MOL0     C 4724   6.592   7.853   2.675 -0.6313  0.7488 -0.3144
  794MOL0     C 4725   6.726   7.845   2.629 -0.0934  0.3244 -0.7633
  794MOL0     N 4726   7.434   7.972   2.499 -0.0450  0.2004  0.2090
  794MOL0     N 4727   7.565   8.011   2.504  0.4969  0.6115 -0.4448
  794MOL0     C 4728   7.002   8.540   2.952  0.6919  0.2128 -0.5285
  794MOL0     C 4729   6.868   8.588   2.923 -0.7632  0.4282 -0.0680
  794MOL0     C 4730   6.485   8.842   2.983  0.5623 -1.0074  0.2124
  794MOL0     C 4731   6.434   8.975   2.963 -0.6550  0.3487  0.4248
  794MOL0     C 4732   6.293   8.993   2.933 -0.4747  0.2862  1.0666
  794MOL0     C 4733   6.207   8.883   2.923  0.3911 -0.6117 -1.0706
  794MOL0     O 4734   6.078   8.905   2.893  0.0968 -0.1518  0.3354
  794MOL0     C 4735   6.030   8.823   2.786 -0.1298  0.7718 -1.2171
  794MOL0     C 4736   5.890   8.870   2.743 -0.1239 -1.0317 -0.7871
  794MOL0     C 4737   5.791   8.875   2.866 -0.1667  0.2118  0.3783
  794MOL0     C 4738   5.646   8.874   2.824 -0.2596 -0.5203 -0.4935
  794MOL0     C 4739   5.559   8.868   2.943  0.4758 -0.4245  0.2414
  794MOL0     C 4740   5.475   8.879   3.036  0.3671  0.6094 -0.6149
  794MOL0     C 4741   6.257   8.754   2.934  0.6702  0.2388  0.8984
  794MOL0     C 4742   6.393   8.733   2.966  0.7939 -0.4949 -0.5009
  794MOL0     H 4743   6.802   8.749   3.214 -0.8276 -0.9317  0.0644
  794MOL0     H 4744   7.030   8.673   3.266  1.7622 -0.2485 -1.1767
  794MOL0     H 4745   7.279   8.541   2.915 -1.0988 -1.5266 -1.0159
  794MOL0     H 4746   7.272   8.391   3.015 -1.1943  0.5204  1.3230
  794MOL0     H 4747   7.458   8.447   3.144  0.0073 -0.5295 -0.5562
  794MOL0     H 4748   7.456   8.620   3.095 -2.0543 -0.5386  0.7364
  794MOL0     H 4749   7.643   8.508   2.975  1.3447 -1.2132 -2.7911
  794MOL0     H 4750   7.527   8.540   2.849 -1.4054 -1.3931 -1.3521
  794MOL0     H 4751   7.525   8.266   2.991 -1.0547 -0.5864 -0.1840
  794MOL0     H 4752   7.425   8.322   2.863 -1.2535 -0.7880  2.2641
  794MOL0     H 4753   7.731   8.332   2.849  0.4651  3.1776 -3.1462
  794MOL0     H 4754   7.613   8.336   2.721  1.8556  0.4851  0.3397
  794MOL0     H 4755   7.549   8.095   2.813 -0.7718  1.5138  0.5788
  794MOL0     H 4756   7.688   8.091   2.923 -0.7385  1.8977  2.5356
  794MOL0     H 4757   7.733   8.154   2.630 -0.4116 -1.4432 -0.5734
  794MOL0     H 4758   7.846   8.114   2.764 -0.6196  0.2358  1.4660
  794MOL0     H 4759   7.756   7.887   2.755 -1.6184 -0.2061  0.3835
  794MOL0     H 4760   7.833   7.937   2.606 -0.0003  1.0241 -0.3630
  794MOL0     H 4761   7.571   7.736   2.687  0.8137  1.6179  2.5253
  794MOL0     H 4762   7.334   7.655   2.585  0.6203 -0.8954 -2.1998
  794MOL0     H 4763   7.241   7.767   2.486  1.9811  0.0400 -1.5386
  794MOL0     H 4764   7.178   7.890   2.707  0.1772  0.2375  2.2333
  794MOL0     H 4765   7.285   7.785   2.796  4.6946  0.3403 -2.8941
  794MOL0     H 4766   7.164   7.601   2.808 -2.9301  0.8943  4.6834
  794MOL0     H 4767   7.064   7.725   2.840  2.7461 -1.9789  2.2049
  794MOL0     H 4768   6.969   7.551   2.673 -2.4543  0.7925 -1.8787
  794MOL0     H 4769   7.070   7.622   2.557  1.0904  0.8571  1.0429
  794MOL0     H 4770   6.816   7.572   2.803 -2.1071 -1.0823  0.5763
  794MOL0     H 4771   6.595   7.590   2.882 -0.5253  1.1558  1.2979
  794MOL0     H 4772   6.117   7.698   2.695 -3.7359  0.9468  0.3043
  794MOL0     H 4773   5.898   7.675   2.779 -1.1174 -0.6722  1.8529
  794MOL0     H 4774   5.758   7.694   3.156 -1.5260  0.0304 -1.4577
  794MOL0     H 4775   5.824   7.545   3.218  0.6067  1.6991  0.0048
  794MOL0     H 4776   5.641   7.436   3.146  2.0259  0.3684 -1.1678
  794MOL0     H 4777   5.594   7.549   3.016  0.4029  0.3623 -0.2487
  794MOL0     H 4778   5.506   7.713   3.187  1.3119  0.7461  0.4171
  794MOL0     H 4779   5.564   7.600   3.312  0.8289 -0.1024 -1.0127
  794MOL0     H 4780   5.357   7.514   3.103 -1.2280  0.6972  0.0929
  794MOL0     H 4781   5.410   7.438   3.256 -0.5178  0.4374  1.5130
  794MOL0     H 4782   5.250   7.698   3.217 -4.6114 -0.6505  1.9389
  794MOL0     H 4783   5.324   7.661   3.364  0.9176  2.8878 -2.1155
  794MOL0     H 4784   5.205   7.463   3.409 -1.3133 -1.1699 -0.1445
  794MOL0     H 4785   5.136   7.455   3.250 -0.1030  1.2184 -0.7314
  794MOL0     H 4786   4.983   7.645   3.311  0.8460  1.7773  0.2023
  794MOL0     H 4787   4.988   7.516   3.432  1.0972  0.5162 -0.3097
  794MOL0     H 4788   4.974   7.754   3.517 -0.6690 -0.1580 -0.9724
  794MOL0     H 4789   5.136   7.781   3.443  1.8425 -1.2714 -0.4547
  794MOL0     H 4790   6.032   7.543   3.153 -0.8005 -0.6594 -0.4421
  794MOL0     H 4791   6.298   7.570   3.056  1.0656 -2.1752 -2.0224
  794MOL0     H 4792   6.528   7.932   2.637 -0.2985  1.5295  0.6919
  794MOL0     H 4793   6.756   7.918   2.554 -1.0694 -2.3746 -4.0609
  794MOL0     H 4794   7.058   8.478   2.884  2.7056  2.6208 -1.2180
  794MOL0     H 4795   6.822   8.540   2.837  0.9459 -0.1041 -0.7530
  794MOL0     H 4796   6.503   9.058   2.962  2.1755 -1.8292 -1.2155
  794MOL0     H 4797   6.265   9.097   2.921 -1.9408  0.2271  3.4197
  794MOL0     H 4798   6.021   8.717   2.810  0.6853  0.5651 -1.7920
  794MOL0     H 4799   6.097   8.825   2.699  3.2865 -0.8801  1.1412
  794MOL0     H 4800   5.911   8.968   2.700  2.5396  0.0980  2.6198
  794MOL0     H 4801   5.858   8.802   2.663  1.6879  0.1224 -2.5829
  794MOL0     H 4802   5.799   8.961   2.933 -0.6192 -1.7246  3.0560
  794MOL0     H 4803   5.822   8.781   2.912 -1.5099 -2.3373 -3.4410
  794MOL0     H 4804   5.621   8.968   2.774 -0.9277 -1.0752 -1.2390
  794MOL0     H 4805   5.628   8.791   2.755 -2.1427 -1.3821  0.9593
  794MOL0     H 4806   5.392   8.861   3.101  0.4765 -1.1383 -0.9024
  794MOL0     H 4807   6.193   8.666   2.934  2.0702 -0.8148  0.5012
  794MOL0     H 4808   6.430   8.632   2.983  2.4384  0.3322  1.2550
  795MOL0     O 4809   0.348   7.036   5.438 -0.7574  0.2442 -1.2572
  795MOL0     C 4810   0.427   7.130   5.425  0.5996 -0.0652  0.2312
  795MOL0     O 4811   0.406   7.237   5.345  0.5998  0.4045  0.3652
  795MOL0     C 4812   0.283   7.248   5.281  0.6537  0.5305  0.6640
  795MOL0     C 4813   0.162   7.226   5.350 -0.6289  0.2397  0.1840
  795MOL0     C 4814   0.038   7.250   5.288 -0.4525  0.0806  0.9575
  795MOL0     C 4815   0.030   7.296   5.153  0.1041 -0.4437 -0.2472
  795MOL0     O 4816  -0.096   7.321   5.107 -0.7571  0.8124 -0.6058
  795MOL0     C 4817  -0.096   7.413   4.992 -0.0310  0.0567  0.1827
  795MOL0     C 4818  -0.239   7.407   4.930  0.3154  0.9372 -0.7155
  795MOL0     C 4819  -0.289   7.272   4.875  0.1213  0.1762  0.4710
  795MOL0     C 4820  -0.436   7.275   4.835 -0.0255 -0.9215 -0.0944
  795MOL0     C 4821  -0.497   7.143   4.790  0.1790  0.4004 -0.4798
  795MOL0     C 4822  -0.426   7.075   4.670 -0.1886 -0.4415 -0.0062
  795MOL0     C 4823  -0.496   6.947   4.623 -0.7363 -1.2521 -0.3165
  795MOL0     C 4824  -0.454   6.891   4.482  0.5808  0.3300  0.3790
  795MOL0     N 4825  -0.305   6.868   4.480 -0.0075  0.6060 -0.5464
  795MOL0     C 4826  -0.209   6.960   4.462  0.2410 -0.3323 -0.4480
  795MOL0     C 4827  -0.098   6.892   4.437 -0.1085  0.0655 -1.7911
  795MOL0     C 4828   0.046   6.934   4.385  0.0774  0.7567 -0.8872
  795MOL0     C 4829   0.165   6.934   4.485 -1.5095 -0.4493 -0.3317
  795MOL0     C 4830   0.295   6.954   4.399  0.3535  0.2590 -0.0225
  795MOL0     C 4831   0.413   6.964   4.493 -0.2384  0.0687  0.2559
  795MOL0     O 4832   0.496   7.065   4.439  0.4146  0.4980 -0.4858
  795MOL0     C 4833   0.618   7.059   4.493 -1.3156  0.0186  0.1827
  795MOL0     C 4834   0.643   7.074   4.628 -0.1181  0.1931  0.1192
  795MOL0     C 4835   0.779   7.077   4.660 -0.0006  0.4018  0.6895
  795MOL0     C 4836   0.887   7.068   4.565  0.2209 -0.5977  0.4607
  795MOL0     C 4837   1.026   7.067   4.620  0.7365 -0.2645  0.5464
  795MOL0     O 4838   1.041   7.052   4.755  0.1297  0.8406 -0.2043
  795MOL0     C 4839   1.166   7.081   4.804 -0.4734 -0.1429  0.0063
  795MOL0     C 4840   1.214   6.997   4.900  0.5371  0.3973 -0.1469
  795MOL0     C 4841   1.333   7.017   4.966  0.5628  0.3579  0.8751
  795MOL0     C 4842   1.416   7.122   4.931  0.5610 -0.1018  0.4579
  795MOL0     O 4843   1.532   7.130   4.999 -0.2232 -0.2077 -0.9343
  795MOL0     C 4844   1.653   7.178   4.946  0.5726  0.2778 -0.7277
  795MOL0     C 4845   1.742   7.237   5.060 -0.5177  0.2705  0.1754
  795MOL0     C 4846   1.832   7.119   5.116  0.1749  0.0630  0.2519
  795MOL0     C 4847   1.913   7.160   5.239  0.7050 -0.8335  0.1927
  795MOL0     C 4848   2.031   7.250   5.222 -0.5028  0.9775  1.0294
  795MOL0     C 4849   2.164   7.198   5.150 -0.2859  1.1976  0.0193
  795MOL0     C 4850   2.258   7.312   5.123 -0.3754  0.4637  0.0674
  795MOL0     C 4851   2.378   7.266   5.033  0.3805 -0.5774 -0.2659
  795MOL0    Cl 4852   2.481   7.163   5.144  0.3303 -0.0967  0.4182
  795MOL0     C 4853   1.375   7.205   4.830  0.4256 -0.8762  0.3151
  795MOL0     C 4854   1.252   7.186   4.768 -0.4139  0.0907 -0.8099
  795MOL0     O 4855   1.112   7.072   4.537 -0.0014 -0.1688  0.3385
  795MOL0     C 4856   0.855   7.059   4.427  0.0281  0.9792 -0.2873
  795MOL0     C 4857   0.726   7.051   4.394 -0.2222 -0.6008 -0.9383
  795MOL0     N 4858  -0.123   6.760   4.480 -0.0727  0.1791  0.2902
  795MOL0     N 4859  -0.247   6.743   4.504 -0.2034  0.3278  0.5281
  795MOL0     C 4860   0.156   7.323   5.090 -0.3513  0.0084 -1.7396
  795MOL0     C 4861   0.279   7.297   5.156 -0.0591 -0.7058  0.3510
  795MOL0     C 4862   0.564   7.113   5.490 -0.5649  0.6779  0.4667
  795MOL0     C 4863   0.655   7.228   5.492 -0.4558  0.3336 -0.2060
  795MOL0     C 4864   0.776   7.213   5.558 -1.1049  0.5348 -0.1681
  795MOL0     C 4865   0.807   7.091   5.618 -0.8156  1.1133  0.1116
  795MOL0     O 4866   0.928   7.081   5.690 -0.0605  0.3669  0.3322
  795MOL0     C 4867   0.970   6.967   5.756  0.7946 -0.6391  0.3012
  795MOL0     C 4868   1.103   7.002   5.811 -0.0733 -0.0327  0.1664
  795MOL0     C 4869   1.115   6.938   5.949 -0.5370  0.4480  0.3504
  795MOL0     C 4870   1.222   7.017   6.030 -0.4705 -0.1209  1.5659
  795MOL0     C 4871   1.348   6.970   5.999  0.0387  0.2022  0.7533
  795MOL0     C 4872   1.462   6.924   5.980  0.3823  0.1228  0.0444
  795MOL0     C 4873   0.716   6.980   5.623  0.6805 -0.3616 -0.2845
  795MOL0     C 4874   0.589   6.993   5.560  0.0054 -0.2504 -1.0035
  795MOL0     H 4875   0.165   7.188   5.451 -1.8081  0.5960  0.3642
  795MOL0     H 4876  -0.055   7.228   5.340 -0.8268  0.6768  0.5536
  795MOL0     H 4877  -0.016   7.399   4.919  2.3626  0.4701  2.5870
  795MOL0     H 4878  -0.088   7.511   5.040 -2.9470 -0.4522  2.0218
  795MOL0     H 4879  -0.234   7.493   4.863 -0.0132  0.5427 -1.2438
  795MOL0     H 4880  -0.302   7.433   5.016  1.1605  1.5271 -0.2605
  795MOL0     H 4881  -0.258   7.204   4.955  1.5128  0.0458 -0.1367
  795MOL0     H 4882  -0.230   7.245   4.787  0.6361 -0.9460  1.1369
  795MOL0     H 4883  -0.490   7.297   4.927  1.1212  3.6921 -0.2762
  795MOL0     H 4884  -0.457   7.354   4.761 -0.1293  0.1912  1.0921
  795MOL0     H 4885  -0.602   7.157   4.761 -0.5943  0.1882  1.9563
  795MOL0     H 4886  -0.495   7.074   4.875  0.9581 -0.9493 -1.5635
  795MOL0     H 4887  -0.324   7.055   4.705 -0.7947 -0.1255  2.1339
  795MOL0     H 4888  -0.429   7.155   4.596 -0.2225  0.1608  0.6375
  795MOL0     H 4889  -0.478   6.874   4.703  2.1039  2.0095  2.3893
  795MOL0     H 4890  -0.600   6.979   4.613  0.5194  3.0320 -2.0248
  795MOL0     H 4891  -0.486   6.963   4.407  0.7368 -0.4579 -0.4662
  795MOL0     H 4892  -0.502   6.793   4.475  1.4090 -0.0840  0.3466
  795MOL0     H 4893  -0.232   7.066   4.457 -1.7429 -0.7729 -2.3422
  795MOL0     H 4894   0.050   7.036   4.347 -0.8064  1.1792  0.0869
  795MOL0     H 4895   0.067   6.854   4.313  1.2237 -0.3670  0.6085
  795MOL0     H 4896   0.162   6.844   4.547 -2.7903  0.0629  0.3975
  795MOL0     H 4897   0.164   7.021   4.550  2.3958 -0.3966 -0.1241
  795MOL0     H 4898   0.306   6.863   4.339  0.6857 -1.3473  2.3464
  795MOL0     H 4899   0.283   7.036   4.327 -0.5448 -0.1511 -0.3570
  795MOL0     H 4900   0.463   6.867   4.496  1.0275  0.6093 -1.4549
  795MOL0     H 4901   0.388   6.993   4.595 -3.0524 -1.8794  0.2458
  795MOL0     H 4902   0.560   7.081   4.698  0.9160  2.8658  1.1784
  795MOL0     H 4903   0.810   7.100   4.762 -2.3040 -0.1787  1.5850
  795MOL0     H 4904   1.145   6.919   4.930 -1.9847  3.5261  3.1533
  795MOL0     H 4905   1.361   6.956   5.051  0.0640 -3.5767 -1.5266
  795MOL0     H 4906   1.630   7.261   4.878 -0.0696  0.9441  0.2752
  795MOL0     H 4907   1.696   7.087   4.904 -1.9701 -2.4736  2.1213
  795MOL0     H 4908   1.684   7.296   5.131  1.7950  0.9974  1.5725
  795MOL0     H 4909   1.807   7.308   5.008  0.2502 -1.0086 -0.6796
  795MOL0     H 4910   1.907   7.090   5.042 -0.4096  2.3754 -1.3566
  795MOL0     H 4911   1.767   7.033   5.131 -0.3795 -0.1195 -2.7065
  795MOL0     H 4912   1.844   7.206   5.311 -0.0813 -1.5364 -0.0955
  795MOL0     H 4913   1.949   7.068   5.286  2.5164 -0.2285  0.0655
  795MOL0     H 4914   2.056   7.299   5.317 -4.7300  1.7078  1.9938
  795MOL0     H 4915   1.987   7.333   5.166  1.4213  0.5852 -1.1905
  795MOL0     H 4916   2.131   7.171   5.049  0.8270  3.3201 -0.9558
  795MOL0     H 4917   2.201   7.111   5.205 -0.6275  1.5593  0.8389
  795MOL0     H 4918   2.213   7.400   5.076  3.1143  3.2402  1.4581
  795MOL0     H 4919   2.295   7.341   5.222 -0.1747  0.3833  0.0159
  795MOL0     H 4920   2.440   7.350   4.999  2.8007 -1.0206  2.7062
  795MOL0     H 4921   2.356   7.204   4.945 -1.2736 -0.8665  0.3193
  795MOL0     H 4922   1.437   7.291   4.807  0.1684 -0.4251  1.2770
  795MOL0     H 4923   1.209   7.240   4.684 -0.2740  0.7108 -0.4845
  795MOL0     H 4924   0.932   7.045   4.353  2.0662 -1.4707  2.0835
  795MOL0     H 4925   0.692   7.036   4.293 -1.0649 -1.9720 -0.4689
  795MOL0     H 4926   0.152   7.360   4.988  3.0445 -0.3312 -2.1111
  795MOL0     H 4927   0.373   7.325   5.109 -0.7940 -0.4347 -1.0003
  795MOL0     H 4928   0.620   7.322   5.449 -1.3834 -0.6858 -1.7565
  795MOL0     H 4929   0.847   7.294   5.570  0.3436 -0.8134  0.9033
  795MOL0     H 4930   0.984   6.876   5.697  0.8518  0.1002 -0.8544
  795MOL0     H 4931   0.899   6.950   5.837  1.0421 -0.5464  0.5392
  795MOL0     H 4932   1.187   6.958   5.757  0.5823  0.1555  1.0068
  795MOL0     H 4933   1.112   7.111   5.814 -2.4596  0.2155  0.1044
  795MOL0     H 4934   1.140   6.832   5.945  0.4865  0.7074 -0.6973
  795MOL0     H 4935   1.025   6.953   6.009  0.9393  0.1988  2.7535
  795MOL0     H 4936   1.200   7.123   6.016 -1.5660 -0.4422  0.6388
  795MOL0     H 4937   1.207   7.003   6.137 -0.7401  1.3517  1.7386
  795MOL0     H 4938   1.551   6.870   5.956 -0.4628 -1.7410  0.9436
  795MOL0     H 4939   0.747   6.885   5.665  2.4588  0.6359  0.7616
  795MOL0     H 4940   0.516   6.913   5.567 -1.8287  1.4550  0.4751
  796MOL0     O 4941   3.488   7.038   2.000  0.1015  0.0874 -0.4192
  796MOL0     C 4942   3.460   7.116   1.914  0.1607  0.1392  0.4370
  796MOL0     O 4943   3.543   7.174   1.831  0.2084  0.1834  0.5032
  796MOL0     C 4944   3.674   7.119   1.819  0.2909 -0.1296 -0.4433
  796MOL0     C 4945   3.784   7.181   1.871  0.5754  0.4977  0.1639
  796MOL0     C 4946   3.909   7.126   1.850 -1.4882  0.6132 -0.3842
  796MOL0     C 4947   3.931   7.023   1.762  0.1679 -0.2040 -0.6456
  796MOL0     O 4948   4.055   6.979   1.741  0.4463  0.1070 -0.2699
  796MOL0     C 4949   4.098   6.937   1.614 -0.4573 -0.6394 -0.2517
  796MOL0     C 4950   4.251   6.905   1.619  0.1441 -0.0791 -0.3980
  796MOL0     C 4951   4.297   6.815   1.737 -0.2446  0.3593  0.7003
  796MOL0     C 4952   4.208   6.692   1.750  0.2198  0.3782  0.6528
  796MOL0     C 4953   4.264   6.604   1.861 -1.1634  0.5729  0.0215
  796MOL0     C 4954   4.180   6.478   1.884  0.6376 -0.2194 -0.9169
  796MOL0     C 4955   4.234   6.385   1.999 -0.1037  0.4027 -0.3400
  796MOL0     C 4956   4.250   6.469   2.131  0.0090  0.3720  0.0929
  796MOL0     N 4957   4.114   6.493   2.184 -0.4893 -0.2094  0.1654
  796MOL0     C 4958   4.044   6.616   2.161  0.0881  0.3135 -0.3786
  796MOL0     C 4959   3.929   6.616   2.228  0.1435 -0.0044  0.0763
  796MOL0     C 4960   3.835   6.738   2.228  0.6155  0.1041  0.9541
  796MOL0     C 4961   3.705   6.704   2.149  0.3546 -0.9878 -0.1290
  796MOL0     C 4962   3.639   6.589   2.223 -0.8913 -0.3824  0.7233
  796MOL0     C 4963   3.503   6.552   2.164  0.2777 -0.1947  0.9772
  796MOL0     O 4964   3.438   6.454   2.248  0.4435 -0.4869 -0.8334
  796MOL0     C 4965   3.302   6.438   2.227 -0.0802  0.5469  0.7428
  796MOL0     C 4966   3.257   6.355   2.121 -0.8332 -0.4734 -0.4347
  796MOL0     C 4967   3.124   6.322   2.106  0.6142  1.0302 -0.3702
  796MOL0     C 4968   3.029   6.375   2.200  0.1603 -0.9226 -0.2891
  796MOL0     C 4969   2.895   6.326   2.189 -0.1759 -0.3790 -0.1670
  796MOL0     O 4970   2.800   6.387   2.269 -0.9235 -0.3198 -0.7430
  796MOL0     C 4971   2.665   6.351   2.260 -0.5670  0.0096  0.4930
  796MOL0     C 4972   2.558   6.444   2.268 -0.3501 -0.3412 -0.9299
  796MOL0     C 4973   2.429   6.404   2.251  0.0465 -0.9940 -0.3803
  796MOL0     C 4974   2.388   6.268   2.255  1.2491  0.0545  0.8995
  796MOL0     O 4975   2.265   6.236   2.281  0.7355 -0.0240  0.3100
  796MOL0     C 4976   2.173   6.335   2.347 -0.1238  0.4076  0.4200
  796MOL0     C 4977   2.032   6.274   2.373 -0.0790  0.9535 -0.1100
  796MOL0     C 4978   1.926   6.387   2.379  0.2044 -0.3374  0.9507
  796MOL0     C 4979   1.881   6.426   2.238  0.0424  0.2318 -0.4684
  796MOL0     C 4980   1.758   6.524   2.230  0.3342  0.7779  0.1532
  796MOL0     C 4981   1.705   6.517   2.086 -1.0988  0.0102 -0.1782
  796MOL0     C 4982   1.567   6.574   2.064 -0.9381  0.1714 -0.4056
  796MOL0     C 4983   1.550   6.615   1.926  0.2224 -0.1488 -0.2645
  796MOL0    Cl 4984   1.374   6.643   1.882  0.5299  0.2896  0.3238
  796MOL0     C 4985   2.488   6.178   2.257  0.3170  0.7621  0.1479
  796MOL0     C 4986   2.623   6.218   2.254  0.5223 -1.1780  0.8657
  796MOL0     O 4987   2.878   6.233   2.107 -0.2359 -0.2980  0.4807
  796MOL0     C 4988   3.085   6.452   2.306 -0.1040  0.6649  0.2630
  796MOL0     C 4989   3.222   6.487   2.317 -0.2400 -0.1438 -1.1556
  796MOL0     N 4990   3.933   6.498   2.302 -0.6017  0.0556 -0.2535
  796MOL0     N 4991   4.039   6.433   2.282  0.3070  0.8760  0.8455
  796MOL0     C 4992   3.817   6.967   1.704 -0.3402 -0.2409  0.1822
  796MOL0     C 4993   3.682   7.006   1.742  0.5415  0.4150  0.2875
  796MOL0     C 4994   3.314   7.160   1.900 -0.1816 -0.3938  0.1829
  796MOL0     C 4995   3.277   7.281   1.830 -0.5606 -0.2042 -0.4494
  796MOL0     C 4996   3.144   7.306   1.795 -1.2918  0.3521  0.2535
  796MOL0     C 4997   3.038   7.228   1.847  0.5034  0.4298 -0.5425
  796MOL0     O 4998   2.904   7.245   1.819 -0.1361  0.6328 -0.7190
  796MOL0     C 4999   2.860   7.373   1.762 -0.6149  0.1710 -0.9890
  796MOL0     C 5000   2.711   7.388   1.783 -0.0294 -0.0163 -0.2766
  796MOL0     C 5001   2.640   7.268   1.726 -0.4776  0.2416 -0.8245
  796MOL0     C 5002   2.495   7.288   1.686  0.3347 -0.5505  0.2237
  796MOL0     C 5003   2.410   7.326   1.797 -1.8139  0.3726  0.1276
  796MOL0     C 5004   2.333   7.359   1.888 -0.0430  0.6981 -0.7936
  796MOL0     C 5005   3.077   7.114   1.923  0.5986 -0.5913  0.9718
  796MOL0     C 5006   3.208   7.080   1.944  0.5419 -0.4901 -0.6610
  796MOL0     H 5007   3.765   7.278   1.916  4.6547  1.9798 -0.9435
  796MOL0     H 5008   3.995   7.178   1.892 -0.1814 -1.5749 -0.1929
  796MOL0     H 5009   4.074   7.006   1.533  1.5640  3.4992  2.3065
  796MOL0     H 5010   4.043   6.844   1.599 -1.4298 -0.2502  0.8136
  796MOL0     H 5011   4.300   7.002   1.632 -0.6129  0.1983  0.4430
  796MOL0     H 5012   4.276   6.848   1.529  2.7463 -1.5478  1.1108
  796MOL0     H 5013   4.297   6.881   1.824 -0.6404  4.0211 -1.8615
  796MOL0     H 5014   4.399   6.779   1.722 -0.6444  0.5464 -3.6670
  796MOL0     H 5015   4.104   6.717   1.775 -0.5778 -1.2777 -0.7634
  796MOL0     H 5016   4.210   6.644   1.652 -2.0592  0.0389  0.7151
  796MOL0     H 5017   4.281   6.661   1.953  0.4039  0.9316 -0.4529
  796MOL0     H 5018   4.363   6.565   1.835  0.5320  4.0490  0.7029
  796MOL0     H 5019   4.166   6.432   1.786 -2.8616  1.4357 -1.3613
  796MOL0     H 5020   4.080   6.514   1.913  1.6197  2.1720 -0.2011
  796MOL0     H 5021   4.165   6.306   2.026 -1.6327  2.6725  3.1469
  796MOL0     H 5022   4.332   6.343   1.973  0.6504  1.1773  1.0795
  796MOL0     H 5023   4.321   6.552   2.126 -0.2388  0.6217  0.6099
  796MOL0     H 5024   4.304   6.406   2.202 -0.3233 -2.9811 -2.3893
  796MOL0     H 5025   4.065   6.689   2.083 -0.4217 -0.0397 -0.8580
  796MOL0     H 5026   3.887   6.820   2.177 -1.4554 -1.0242 -3.4716
  796MOL0     H 5027   3.798   6.758   2.328  1.4507 -1.0467  1.5176
  796MOL0     H 5028   3.725   6.667   2.048 -1.7804  1.7038 -1.6667
  796MOL0     H 5029   3.639   6.791   2.147  0.7330 -0.3466  4.3078
  796MOL0     H 5030   3.713   6.509   2.227  5.0059  4.1201 -1.9438
  796MOL0     H 5031   3.619   6.623   2.325 -0.7924 -0.9580  0.9357
  796MOL0     H 5032   3.505   6.525   2.058 -3.1520 -0.1873  0.8188
  796MOL0     H 5033   3.451   6.648   2.167  0.6628  0.1889 -1.8511
  796MOL0     H 5034   3.330   6.313   2.052 -0.8421  3.4559 -3.1506
  796MOL0     H 5035   3.093   6.244   2.036 -1.9865 -1.1372  2.8680
  796MOL0     H 5036   2.573   6.551   2.281 -1.1012 -0.4298  0.9281
  796MOL0     H 5037   2.362   6.489   2.247  0.6286 -0.5003  0.1940
  796MOL0     H 5038   2.176   6.435   2.304 -2.8112  1.2907  1.9906
  796MOL0     H 5039   2.217   6.348   2.446 -0.3036  2.0824  0.3009
  796MOL0     H 5040   2.019   6.224   2.469  2.3849  1.9658  0.8065
  796MOL0     H 5041   2.005   6.204   2.293  2.3885  0.6933 -0.8091
  796MOL0     H 5042   1.978   6.472   2.424  0.4386 -0.7503  1.4692
  796MOL0     H 5043   1.835   6.365   2.436 -0.5554 -1.6559 -0.7165
  796MOL0     H 5044   1.971   6.459   2.185 -0.3033 -0.2360 -1.3735
  796MOL0     H 5045   1.846   6.333   2.191  1.4761  0.5816 -2.3620
  796MOL0     H 5046   1.772   6.628   2.259 -0.3848  0.7082  0.7834
  796MOL0     H 5047   1.682   6.481   2.296 -0.1406  0.3585 -0.6489
  796MOL0     H 5048   1.712   6.414   2.050  4.4094  0.3662 -1.0319
  796MOL0     H 5049   1.780   6.580   2.038 -3.1982  3.4082  0.7041
  796MOL0     H 5050   1.488   6.500   2.082 -3.0625  2.3650 -0.2595
  796MOL0     H 5051   1.560   6.660   2.131  3.6179  0.1864  0.3811
  796MOL0     H 5052   1.596   6.546   1.854 -1.0053 -0.9006 -0.3700
  796MOL0     H 5053   1.594   6.714   1.911 -0.3185 -0.0190 -1.0799
  796MOL0     H 5054   2.463   6.073   2.267 -2.8282  1.4474  0.4233
  796MOL0     H 5055   2.696   6.138   2.247  1.0841 -0.6552  0.5539
  796MOL0     H 5056   3.011   6.498   2.372 -1.7658 -0.2117 -0.9086
  796MOL0     H 5057   3.258   6.545   2.402 -0.0011  0.3509 -1.5859
  796MOL0     H 5058   3.825   6.884   1.634 -2.3222 -0.4574  0.1524
  796MOL0     H 5059   3.598   6.952   1.702  0.1015  0.9592  0.4653
  796MOL0     H 5060   3.352   7.339   1.778 -1.8648  0.8506 -1.2447
  796MOL0     H 5061   3.123   7.393   1.734 -2.1120 -0.1703 -0.2249
  796MOL0     H 5062   2.876   7.382   1.654 -1.2350  0.5550 -1.0511
  796MOL0     H 5063   2.911   7.446   1.825  1.0405 -1.5676 -0.1777
  796MOL0     H 5064   2.703   7.388   1.892  2.3713 -0.8545 -0.0425
  796MOL0     H 5065   2.683   7.486   1.743  3.8186  0.3310 -2.5715
  796MOL0     H 5066   2.630   7.193   1.806 -3.7649  2.1998  0.8457
  796MOL0     H 5067   2.694   7.229   1.640  0.5573  1.4400 -0.7425
  796MOL0     H 5068   2.496   7.356   1.601  2.6094 -1.2543 -0.3922
  796MOL0     H 5069   2.454   7.198   1.639  1.1803 -0.7126 -0.2294
  796MOL0     H 5070   2.273   7.385   1.972  1.2750 -2.3067  1.2609
  796MOL0     H 5071   2.996   7.052   1.960 -1.0537  2.4255  2.7661
  796MOL0     H 5072   3.221   6.981   1.986  0.1536  0.1030  0.9445
  797MOL0     O 5073   4.529  10.374   8.893 -0.3815 -0.0446  0.2733
  797MOL0     C 5074   4.478  10.389   9.004 -0.0485 -0.6417  0.8223
  797MOL0     O 5075   4.354  10.449   9.019  0.0952  0.2079  0.3046
  797MOL0     C 5076   4.262  10.464   8.915  0.3978 -0.5366 -0.6881
  797MOL0     C 5077   4.218  10.589   8.865 -0.9255 -0.9782  0.3190
  797MOL0     C 5078   4.117  10.604   8.777 -0.0852 -0.1002  0.8550
  797MOL0     C 5079   4.059  10.496   8.723 -0.3373  0.4640 -0.8948
  797MOL0     O 5080   3.969  10.513   8.625  0.4123 -0.8902 -0.2837
  797MOL0     C 5081   3.913  10.395   8.565 -1.0000  0.4809 -0.0170
  797MOL0     C 5082   3.834  10.435   8.449  0.9635 -0.3860 -0.2090
  797MOL0     C 5083   3.705  10.515   8.496 -0.6685 -0.7539 -0.2172
  797MOL0     C 5084   3.626  10.544   8.373  0.8388  0.5246  0.5673
  797MOL0     C 5085   3.491  10.623   8.401  0.2241 -1.1174 -0.4501
  797MOL0     C 5086   3.497  10.733   8.512 -0.1656  0.6919  0.3306
  797MOL0     C 5087   3.367  10.818   8.528 -0.6876  0.6139 -0.3661
  797MOL0     C 5088   3.389  10.948   8.618 -0.3892  0.1193 -0.1674
  797MOL0     N 5089   3.453  11.069   8.554 -0.7405  0.2780  0.4131
  797MOL0     C 5090   3.501  11.181   8.615 -0.1673 -0.5575 -0.0183
  797MOL0     C 5091   3.534  11.263   8.516  0.0921  0.1496 -1.2482
  797MOL0     C 5092   3.606  11.392   8.541  0.2134 -0.2665  0.5269
  797MOL0     C 5093   3.759  11.362   8.552 -0.1856  0.2571  0.1854
  797MOL0     C 5094   3.819  11.492   8.594 -0.7486 -0.8444 -1.7517
  797MOL0     C 5095   3.974  11.491   8.595 -0.1339 -0.6802  0.2588
  797MOL0     O 5096   4.025  11.624   8.599 -0.3374  0.8494  0.4140
  797MOL0     C 5097   4.163  11.647   8.602 -0.2825 -0.3408  0.2320
  797MOL0     C 5098   4.259  11.551   8.636 -0.4337  0.0742  1.1234
  797MOL0     C 5099   4.393  11.591   8.636 -0.3477  0.6143 -0.3815
  797MOL0     C 5100   4.432  11.726   8.625  0.5467  0.4530  0.4113
  797MOL0     C 5101   4.580  11.750   8.626  0.5842 -0.9076  0.6332
  797MOL0     O 5102   4.616  11.848   8.543  0.3135  0.2298 -0.3113
  797MOL0     C 5103   4.750  11.876   8.553  0.2078  0.4729  0.1867
  797MOL0     C 5104   4.819  11.927   8.668  0.0845  0.7633  0.1096
  797MOL0     C 5105   4.959  11.943   8.664 -0.6508  0.3319  0.4203
  797MOL0     C 5106   5.036  11.922   8.544  0.2324 -0.5779  0.5804
  797MOL0     O 5107   5.175  11.911   8.536 -0.3964  0.0191 -0.0996
  797MOL0     C 5108   5.261  11.947   8.644 -0.1808  0.0572  0.3906
  797MOL0     C 5109   5.391  11.872   8.622  0.0237 -0.8309 -0.1844
  797MOL0     C 5110   5.499  11.906   8.737 -0.5616 -0.3421  0.4224
  797MOL0     C 5111   5.634  11.830   8.703 -1.0211 -0.4259  0.7037
  797MOL0     C 5112   5.752  11.865   8.802  0.0730  0.7496  0.8128
  797MOL0     C 5113   5.816  11.997   8.760 -0.0198  0.9153  0.7276
  797MOL0     C 5114   5.911  12.030   8.872 -0.6061  0.5160  0.5842
  797MOL0     C 5115   5.999  12.143   8.834  0.0589 -0.7142 -0.7428
  797MOL0    Cl 5116   6.103  12.078   8.702  0.6279  0.1757 -0.2136
  797MOL0     C 5117   4.971  11.896   8.427 -0.3783  0.3947 -0.2677
  797MOL0     C 5118   4.834  11.862   8.437  0.7495  1.3233  0.0149
  797MOL0     O 5119   4.658  11.683   8.688 -0.4450  0.3186  0.5182
  797MOL0     C 5120   4.329  11.814   8.575 -0.5059  0.2024  0.2563
  797MOL0     C 5121   4.194  11.778   8.567 -0.8913 -0.6595  0.7045
  797MOL0     N 5122   3.508  11.205   8.390 -0.2335  0.0011 -0.2729
  797MOL0     N 5123   3.453  11.093   8.421 -0.5388  0.2597  0.1348
  797MOL0     C 5124   4.118  10.362   8.751  0.1736  0.4545  0.0815
  797MOL0     C 5125   4.216  10.351   8.848  1.1300  0.6360 -0.7865
  797MOL0     C 5126   4.565  10.355   9.115 -0.0006 -1.2489  0.5686
  797MOL0     C 5127   4.692  10.307   9.109 -0.0048  0.2481  0.4702
  797MOL0     C 5128   4.773  10.294   9.222 -0.1083  0.3222 -0.4581
  797MOL0     C 5129   4.734  10.333   9.349 -0.2407  0.4142 -1.3495
  797MOL0     O 5130   4.802  10.335   9.466  0.3994 -0.5675  0.5379
  797MOL0     C 5131   4.941  10.330   9.450 -0.8848  0.2954 -0.6266
  797MOL0     C 5132   5.009  10.371   9.583 -0.8046 -0.1286  0.8433
  797MOL0     C 5133   5.151  10.319   9.579  0.0161  0.1345  0.5355
  797MOL0     C 5134   5.233  10.434   9.513 -0.0848 -0.2046 -0.0868
  797MOL0     C 5135   5.370  10.401   9.543 -0.2538  0.6579  0.2700
  797MOL0     C 5136   5.487  10.363   9.553 -0.3443 -0.7714 -0.0607
  797MOL0     C 5137   4.608  10.380   9.356 -0.2739  0.1142  0.1919
  797MOL0     C 5138   4.526  10.399   9.242  0.2988 -0.1981  0.6995
  797MOL0     H 5139   4.249  10.682   8.912  1.0159 -1.7597  0.6637
  797MOL0     H 5140   4.095  10.711   8.769  0.0385 -0.1176  0.2298
  797MOL0     H 5141   3.857  10.331   8.633  0.0949 -1.2163 -0.6415
  797MOL0     H 5142   3.994  10.334   8.525 -3.1810 -2.0061 -0.9153
  797MOL0     H 5143   3.798  10.348   8.393 -0.2783 -0.3886  0.5450
  797MOL0     H 5144   3.901  10.492   8.384 -1.6908  0.0635 -2.8185
  797MOL0     H 5145   3.731  10.606   8.550  1.8518 -0.8865 -1.0878
  797MOL0     H 5146   3.647  10.456   8.568 -1.6235  0.1085 -0.2518
  797MOL0     H 5147   3.683  10.610   8.307  2.7872  0.1062  1.7338
  797MOL0     H 5148   3.602  10.450   8.322  1.7905  0.6406 -0.1016
  797MOL0     H 5149   3.424  10.540   8.425  1.8099 -3.0275 -2.2922
  797MOL0     H 5150   3.463  10.677   8.310  1.8376 -1.8539 -1.4280
  797MOL0     H 5151   3.587  10.791   8.489 -0.4790 -0.1537 -3.7520
  797MOL0     H 5152   3.509  10.679   8.606 -3.1627 -2.9928 -1.1187
  797MOL0     H 5153   3.340  10.849   8.426 -0.5430 -0.7494 -0.8443
  797MOL0     H 5154   3.293  10.748   8.569  2.2191 -3.2361 -1.1134
  797MOL0     H 5155   3.450  10.925   8.706 -2.2238 -0.2327  1.0637
  797MOL0     H 5156   3.292  10.977   8.659 -0.0525  0.4719  0.3974
  797MOL0     H 5157   3.524  11.195   8.720  0.4707 -1.4116 -0.0301
  797MOL0     H 5158   3.554  11.439   8.625 -2.9275 -2.4237 -0.0286
  797MOL0     H 5159   3.597  11.458   8.455  3.3913 -3.4556 -2.5963
  797MOL0     H 5160   3.801  11.318   8.461 -0.9094  1.2806 -0.6675
  797MOL0     H 5161   3.773  11.278   8.621 -0.2540  0.8355  0.9170
  797MOL0     H 5162   3.793  11.579   8.534  1.7598  1.2166 -0.0623
  797MOL0     H 5163   3.789  11.517   8.696  0.1191 -0.0194 -1.6866
  797MOL0     H 5164   4.012  11.447   8.502  0.7412  0.9540 -0.2041
  797MOL0     H 5165   4.017  11.437   8.679  3.4978  2.9105  1.0001
  797MOL0     H 5166   4.221  11.453   8.664 -0.9644  0.5788  2.2281
  797MOL0     H 5167   4.478  11.527   8.660  2.2670  3.3537 -1.6421
  797MOL0     H 5168   4.768  11.941   8.763 -0.0626  0.4835  0.0722
  797MOL0     H 5169   5.018  11.975   8.749  0.0456 -2.1387  0.9516
  797MOL0     H 5170   5.231  11.922   8.746  1.4772  0.0406  0.8947
  797MOL0     H 5171   5.267  12.056   8.639 -1.3897  0.1257  0.0596
  797MOL0     H 5172   5.438  11.901   8.527  0.3081  0.5054  0.3413
  797MOL0     H 5173   5.362  11.766   8.623  0.1003 -0.8512 -0.0769
  797MOL0     H 5174   5.450  11.889   8.834  0.6293 -0.4671  1.0271
  797MOL0     H 5175   5.523  12.013   8.731  0.8872 -0.7358 -1.6339
  797MOL0     H 5176   5.614  11.723   8.706  0.0994 -0.7288 -1.2420
  797MOL0     H 5177   5.671  11.863   8.606 -0.9854  1.5679  1.3365
  797MOL0     H 5178   5.824  11.783   8.802  0.1815  0.8366 -0.0359
  797MOL0     H 5179   5.710  11.868   8.903 -0.5257  1.5122  0.5511
  797MOL0     H 5180   5.751  12.083   8.739 -2.3102 -0.8493  0.1501
  797MOL0     H 5181   5.868  11.974   8.666 -0.4647 -0.8031  0.8603
  797MOL0     H 5182   5.865  12.063   8.966  0.1366  0.5907  0.9287
  797MOL0     H 5183   5.971  11.941   8.892 -0.9169  0.3598  0.8426
  797MOL0     H 5184   6.057  12.160   8.925  0.6353 -1.0770 -1.0337
  797MOL0     H 5185   5.955  12.240   8.810  2.5003  1.4350  2.5973
  797MOL0     H 5186   5.029  11.875   8.337 -1.1040 -0.8878 -0.4640
  797MOL0     H 5187   4.783  11.832   8.346  2.0510  2.3275 -1.0993
  797MOL0     H 5188   4.362  11.913   8.543  2.6560 -0.6453  0.5946
  797MOL0     H 5189   4.117  11.850   8.540  0.5714  0.9939  0.7352
  797MOL0     H 5190   4.086  10.276   8.693 -0.3366 -0.7109  1.9987
  797MOL0     H 5191   4.246  10.251   8.875  0.5679  1.3175  2.8948
  797MOL0     H 5192   4.748  10.279   9.020 -0.0021  0.3832  0.4290
  797MOL0     H 5193   4.872  10.251   9.211 -1.6518 -3.1988 -1.9191
  797MOL0     H 5194   4.980  10.404   9.380  0.8666  0.8651  0.8669
  797MOL0     H 5195   4.974  10.228   9.426  1.1148  1.0450 -1.2988
  797MOL0     H 5196   4.989  10.475   9.610  0.6683  0.0234  1.4067
  797MOL0     H 5197   4.969  10.322   9.672  2.9971 -0.1660  2.6833
  797MOL0     H 5198   5.164  10.225   9.526  2.2037  1.0223 -0.6551
  797MOL0     H 5199   5.187  10.282   9.675 -1.3541 -0.0310  1.0050
  797MOL0     H 5200   5.217  10.431   9.404 -0.1817 -0.8461 -0.0597
  797MOL0     H 5201   5.214  10.536   9.546 -2.3662 -0.6589  0.1784
  797MOL0     H 5202   5.592  10.342   9.564 -0.7002 -2.2579  0.6789
  797MOL0     H 5203   4.577  10.396   9.459  3.1554 -0.1228  1.4071
  797MOL0     H 5204   4.426  10.436   9.257 -0.5165 -2.4243  1.1944
  798MOL0     O 5205   4.719   1.030   6.935  0.5095 -0.6237 -0.2617
  798MOL0     C 5206   4.662   0.932   6.978 -0.1504 -0.0079  0.5866
  798MOL0     O 5207   4.710   0.805   6.972 -0.0039  0.3254 -0.3005
  798MOL0     C 5208   4.849   0.785   6.948 -0.4552  0.0853 -0.1523
  798MOL0     C 5209   4.896   0.791   6.818 -0.2864 -0.0817  0.5464
  798MOL0     C 5210   5.036   0.767   6.802  0.1192  1.0654 -0.6017
  798MOL0     C 5211   5.119   0.711   6.904  0.1558  0.4788 -0.1223
  798MOL0     O 5212   5.236   0.649   6.896 -1.0250  0.2569  0.2733
  798MOL0     C 5213   5.299   0.640   6.773 -0.3318  0.8189 -0.5632
  798MOL0     C 5214   5.448   0.627   6.793  0.3164  0.5103  0.2170
  798MOL0     C 5215   5.537   0.597   6.669  0.6209  0.5133 -0.7888
  798MOL0     C 5216   5.656   0.513   6.718  0.1010  0.0473  0.8554
  798MOL0     C 5217   5.741   0.567   6.828 -0.5466 -0.4655 -0.5359
  798MOL0     C 5218   5.842   0.460   6.865  0.0284 -0.5877  0.3667
  798MOL0     C 5219   5.950   0.514   6.952 -0.0067  0.4525  0.1159
  798MOL0     C 5220   6.027   0.394   7.020  0.0123 -0.2489 -0.6898
  798MOL0     N 5221   6.100   0.309   6.924  0.4677 -0.1967  0.9019
  798MOL0     C 5222   6.049   0.219   6.840 -0.2427  0.6202  0.1991
  798MOL0     C 5223   6.162   0.191   6.752  1.1085 -0.0810  0.3367
  798MOL0     C 5224   6.166   0.084   6.637  0.0721 -0.2903  1.0934
  798MOL0     C 5225   6.104   0.131   6.510  0.5324 -0.4377  0.7241
  798MOL0     C 5226   5.957   0.108   6.507  0.0045 -0.0101 -0.4138
  798MOL0     C 5227   5.868   0.193   6.411  0.3574  0.5354  0.7216
  798MOL0     O 5228   5.728   0.135   6.401 -0.6722 -0.9672  0.3554
  798MOL0     C 5229   5.625   0.231   6.382  0.2683  0.0401  0.3372
  798MOL0     C 5230   5.646   0.355   6.318  0.2562  0.5804 -0.0443
  798MOL0     C 5231   5.538   0.442   6.302 -0.7435 -0.8437 -0.7266
  798MOL0     C 5232   5.423   0.414   6.385  0.0909 -0.8394  0.7195
  798MOL0     C 5233   5.318   0.517   6.406  0.2819 -0.7089  0.1873
  798MOL0     O 5234   5.333   0.647   6.346  1.0432 -1.1971 -1.0610
  798MOL0     C 5235   5.244   0.750   6.386 -0.1216  0.9157 -0.1833
  798MOL0     C 5236   5.100   0.734   6.356 -0.8849  0.3459  0.1725
  798MOL0     C 5237   5.007   0.830   6.400 -0.1036 -0.2429 -0.7993
  798MOL0     C 5238   5.058   0.944   6.466  0.0465  0.3438 -0.9158
  798MOL0     O 5239   4.960   1.027   6.522 -0.0203  1.1735  0.0451
  798MOL0     C 5240   4.993   1.117   6.627 -0.9228  0.0585  0.0479
  798MOL0     C 5241   4.872   1.204   6.649  0.6361 -0.2228  1.2215
  798MOL0     C 5242   4.915   1.331   6.714 -0.2110  0.0518  0.0737
  798MOL0     C 5243   4.790   1.405   6.772 -0.6886  0.5085  0.4807
  798MOL0     C 5244   4.818   1.538   6.835 -0.7488  0.0019  0.5291
  798MOL0     C 5245   4.691   1.614   6.860  0.7687  0.0531  0.3513
  798MOL0     C 5246   4.724   1.737   6.960 -0.4849 -0.0553  0.8115
  798MOL0     C 5247   4.607   1.824   6.995 -0.2896  0.2091  0.2468
  798MOL0    Cl 5248   4.510   1.750   7.120  0.0688 -0.0350 -0.5742
  798MOL0     C 5249   5.200   0.957   6.487  0.4471  0.2698 -0.1686
  798MOL0     C 5250   5.296   0.860   6.451  0.3387  0.6118  0.3078
  798MOL0     O 5251   5.222   0.488   6.477  0.7847 -0.2587  0.3827
  798MOL0     C 5252   5.407   0.294   6.447 -0.1449 -0.6027 -0.0269
  798MOL0     C 5253   5.500   0.202   6.434  0.2654  0.0649  0.4378
  798MOL0     N 5254   6.260   0.273   6.797 -0.6122  0.1380  0.4739
  798MOL0     N 5255   6.228   0.332   6.896  0.1562 -0.5664 -0.1590
  798MOL0     C 5256   5.061   0.697   7.028  0.9322  0.1095 -0.1363
  798MOL0     C 5257   4.924   0.729   7.051 -0.3701 -0.5618 -0.2349
  798MOL0     C 5258   4.524   0.951   7.045  0.2269  0.2269  1.3060
  798MOL0     C 5259   4.437   1.059   7.008 -0.2143  0.8800  0.2500
  798MOL0     C 5260   4.305   1.071   7.078  0.1121 -0.4087  0.2219
  798MOL0     C 5261   4.269   0.972   7.166 -0.0815 -1.4565 -0.6761
  798MOL0     O 5262   4.148   0.988   7.226 -0.0161 -0.5209  0.0389
  798MOL0     C 5263   4.114   0.902   7.333 -0.3409  0.3084  0.2486
  798MOL0     C 5264   3.966   0.931   7.373  0.2802 -0.4740 -1.0364
  798MOL0     C 5265   3.867   0.844   7.300  0.7331  0.0100  0.1874
  798MOL0     C 5266   3.737   0.841   7.380  0.3798  0.6374 -0.3052
  798MOL0     C 5267   3.629   0.758   7.325 -0.7587  0.6788  0.3625
  798MOL0     C 5268   3.549   0.676   7.269  0.4734 -0.2742 -0.8234
  798MOL0     C 5269   4.356   0.868   7.195 -0.2128  0.0387 -0.5227
  798MOL0     C 5270   4.485   0.865   7.140  0.4497  0.0032  0.3979
  798MOL0     H 5271   4.844   0.827   6.730 -0.5040  1.2776  1.2000
  798MOL0     H 5272   5.080   0.776   6.703 -0.6745  0.1755 -1.0511
  798MOL0     H 5273   5.290   0.727   6.707  2.8201 -0.2215 -2.6288
  798MOL0     H 5274   5.266   0.559   6.708  1.6058  0.7173 -1.5090
  798MOL0     H 5275   5.454   0.547   6.868 -1.0900 -0.5446 -0.7377
  798MOL0     H 5276   5.490   0.720   6.832  0.1250  2.1495 -3.1977
  798MOL0     H 5277   5.573   0.693   6.630 -0.2015  0.2976 -2.1693
  798MOL0     H 5278   5.488   0.538   6.591 -0.9468 -1.2312  1.3981
  798MOL0     H 5279   5.632   0.410   6.742  1.3397 -0.8223 -1.3100
  798MOL0     H 5280   5.714   0.517   6.625 -0.3432  1.8249  0.6036
  798MOL0     H 5281   5.679   0.583   6.917 -0.1468  1.0926 -0.5074
  798MOL0     H 5282   5.790   0.659   6.795  0.0439 -0.8557 -0.7750
  798MOL0     H 5283   5.890   0.418   6.776  0.9764 -0.7017  0.9207
  798MOL0     H 5284   5.796   0.372   6.911  5.0310 -3.6853  0.2224
  798MOL0     H 5285   6.023   0.582   6.908  1.8499 -1.6393 -0.2398
  798MOL0     H 5286   5.899   0.572   7.029 -1.9643  0.8875 -1.4129
  798MOL0     H 5287   5.962   0.327   7.077  2.2424 -1.1302  0.9720
  798MOL0     H 5288   6.103   0.434   7.089  1.8243 -0.4940 -2.4386
  798MOL0     H 5289   5.951   0.172   6.847 -0.0026  0.2765  1.5080
  798MOL0     H 5290   6.118  -0.010   6.665  1.3426 -1.1707  0.4380
  798MOL0     H 5291   6.273   0.062   6.627  0.4883  2.4028 -2.1865
  798MOL0     H 5292   6.162   0.105   6.421 -0.1277  1.3486 -0.2982
  798MOL0     H 5293   6.116   0.240   6.512  5.8942 -0.7162 -1.1299
  798MOL0     H 5294   5.932   0.005   6.477  1.4067 -0.3683 -0.4320
  798MOL0     H 5295   5.928   0.115   6.612  0.1533 -1.1985 -0.2702
  798MOL0     H 5296   5.914   0.184   6.312 -0.5793  1.1065  0.2244
  798MOL0     H 5297   5.868   0.299   6.434 -0.6440  1.2759 -2.2077
  798MOL0     H 5298   5.739   0.366   6.263 -0.7564 -0.7450 -2.1377
  798MOL0     H 5299   5.549   0.534   6.246  1.9466  0.5440  1.7784
  798MOL0     H 5300   5.069   0.641   6.309  2.1359 -0.7489  0.1064
  798MOL0     H 5301   4.900   0.825   6.382 -0.0928  0.3322 -1.0533
  798MOL0     H 5302   5.078   1.181   6.606 -1.7971  1.9052  1.7930
  798MOL0     H 5303   5.012   1.066   6.722 -0.6674 -2.5625 -1.3296
  798MOL0     H 5304   4.801   1.152   6.715  0.7013  0.7517  2.0782
  798MOL0     H 5305   4.836   1.228   6.549  2.7430  0.7517  0.6452
  798MOL0     H 5306   4.970   1.401   6.650  0.0381  0.5412  0.8033
  798MOL0     H 5307   4.982   1.302   6.796  0.1706  0.7137  0.0049
  798MOL0     H 5308   4.722   1.420   6.688  2.0251 -4.1420 -3.0232
  798MOL0     H 5309   4.746   1.345   6.853  0.6302 -0.1845  0.7099
  798MOL0     H 5310   4.861   1.596   6.753 -2.1215  0.2872 -0.0305
  798MOL0     H 5311   4.882   1.549   6.923 -3.0804 -0.8586  2.4664
  798MOL0     H 5312   4.612   1.551   6.902  1.2479 -1.5473 -1.0280
  798MOL0     H 5313   4.664   1.668   6.769  0.8203  0.8360  0.7893
  798MOL0     H 5314   4.776   1.695   7.047  1.3465 -1.6284 -0.9368
  798MOL0     H 5315   4.802   1.800   6.916  0.9399 -2.4537 -0.3282
  798MOL0     H 5316   4.546   1.848   6.907  0.9347  0.7496 -0.4809
  798MOL0     H 5317   4.656   1.912   7.038 -0.1981  0.5197 -0.4783
  798MOL0     H 5318   5.237   1.042   6.545  0.4819 -0.3854  0.7973
  798MOL0     H 5319   5.402   0.868   6.471  0.1543  0.2251  1.4808
  798MOL0     H 5320   5.312   0.281   6.498  1.0972  0.6018  2.7679
  798MOL0     H 5321   5.474   0.108   6.481  0.0590  1.3634  3.1797
  798MOL0     H 5322   5.098   0.645   7.116 -0.2973 -1.2154 -0.3600
  798MOL0     H 5323   4.878   0.716   7.148 -0.8461 -0.5969 -0.4638
  798MOL0     H 5324   4.462   1.131   6.931 -0.1547 -0.9733 -1.5433
  798MOL0     H 5325   4.240   1.156   7.060  0.8321  0.4145  1.3683
  798MOL0     H 5326   4.180   0.919   7.419 -2.4417 -0.5393  2.1589
  798MOL0     H 5327   4.134   0.803   7.291  3.7607  0.9817  0.1947
  798MOL0     H 5328   3.964   0.935   7.483 -0.7027  3.8014 -1.0498
  798MOL0     H 5329   3.937   1.035   7.362 -0.8042 -0.4182  1.6069
  798MOL0     H 5330   3.898   0.741   7.282  0.0191 -0.1997  0.1362
  798MOL0     H 5331   3.844   0.887   7.202 -2.9896 -2.3843 -0.1893
  798MOL0     H 5332   3.762   0.801   7.478  2.3492 -2.3291 -1.8812
  798MOL0     H 5333   3.707   0.945   7.396  0.0913  0.1558  3.0254
  798MOL0     H 5334   3.474   0.607   7.236 -0.9322 -0.0831  1.7492
  798MOL0     H 5335   4.334   0.788   7.264  0.6542  0.4513  0.2526
  798MOL0     H 5336   4.559   0.793   7.176 -0.6795 -1.0663  0.6552
  799MOL0     O 5337   8.150   4.603   3.228 -0.7728 -0.0020  0.2111
  799MOL0     C 5338   8.179   4.485   3.257 -0.2766 -0.2987 -0.3634
  799MOL0     O 5339   8.109   4.374   3.214 -0.9465  1.0137  0.2245
  799MOL0     C 5340   8.005   4.390   3.114  0.1636  0.2966  0.7260
  799MOL0     C 5341   7.877   4.435   3.148 -0.6675  0.0322  0.3044
  799MOL0     C 5342   7.769   4.422   3.053  0.2207 -0.4639  0.2613
  799MOL0     C 5343   7.792   4.383   2.927 -0.4772  0.1769 -0.0622
  799MOL0     O 5344   7.702   4.364   2.830  0.1261 -0.7246 -0.3302
  799MOL0     C 5345   7.562   4.391   2.854  0.0884  0.3170 -0.5356
  799MOL0     C 5346   7.490   4.394   2.726  1.3176  0.5278  0.1121
  799MOL0     C 5347   7.545   4.507   2.631 -0.4073  0.8042 -0.2325
  799MOL0     C 5348   7.496   4.490   2.497  1.3814 -0.0592 -0.5189
  799MOL0     C 5349   7.556   4.577   2.391 -0.4135 -0.0071 -0.2563
  799MOL0     C 5350   7.511   4.528   2.258  0.5306  0.1850 -0.8478
  799MOL0     C 5351   7.602   4.574   2.152 -0.1993 -0.0899  0.9458
  799MOL0     C 5352   7.552   4.548   2.004 -0.5358 -0.7323 -0.1828
  799MOL0     N 5353   7.589   4.420   1.947 -0.2170  0.3991 -0.1367
  799MOL0     C 5354   7.718   4.381   1.934 -0.1585  0.3921  0.6542
  799MOL0     C 5355   7.713   4.260   1.877  0.2344  0.6454 -1.0926
  799MOL0     C 5356   7.835   4.176   1.835  0.3798 -0.0678  1.0438
  799MOL0     C 5357   7.866   4.195   1.685 -0.0343 -0.1736 -0.0070
  799MOL0     C 5358   7.947   4.318   1.646 -0.2602 -0.8901  0.3347
  799MOL0     C 5359   8.080   4.359   1.724 -0.7595  0.6662  0.5347
  799MOL0     O 5360   8.149   4.237   1.753  0.4293 -0.3244  0.2133
  799MOL0     C 5361   8.284   4.237   1.764 -0.4839 -0.4583 -0.1275
  799MOL0     C 5362   8.369   4.352   1.745  0.2917  0.1938  0.8258
  799MOL0     C 5363   8.511   4.344   1.768  0.9256 -0.7470  0.6281
  799MOL0     C 5364   8.569   4.227   1.818 -0.5829  1.1331  0.6390
  799MOL0     C 5365   8.713   4.219   1.840 -0.3126 -0.0133 -0.4030
  799MOL0     O 5366   8.753   4.108   1.901  0.0031 -0.2979  0.0495
  799MOL0     C 5367   8.887   4.077   1.893 -0.8344  0.1670 -0.1008
  799MOL0     C 5368   8.967   4.114   1.778  0.1606  0.4405 -0.6047
  799MOL0     C 5369   9.104   4.076   1.766  0.0156 -0.5121  0.6032
  799MOL0     C 5370   9.160   4.000   1.868 -0.0318  1.1504  0.2289
  799MOL0     O 5371   9.288   3.962   1.869  0.3879 -0.4945  0.0098
  799MOL0     C 5372   9.383   4.022   1.777  0.4068 -0.9050  0.4989
  799MOL0     C 5373   9.519   3.969   1.798  0.3687  0.5090  0.8015
  799MOL0     C 5374   9.616   4.064   1.725  0.0739  0.8186  0.3264
  799MOL0     C 5375   9.770   4.027   1.744 -0.5419 -0.1051 -0.2576
  799MOL0     C 5376   9.855   4.111   1.645  0.1409  0.4981  0.4912
  799MOL0     C 5377  10.008   4.086   1.662  0.8452 -0.6525  0.3655
  799MOL0     C 5378  10.081   4.161   1.553 -0.4368  0.8802  0.0956
  799MOL0     C 5379  10.227   4.124   1.526  0.0474  0.0482 -0.0807
  799MOL0    Cl 5380  10.337   4.212   1.631  0.0845 -0.0843  0.0324
  799MOL0     C 5381   9.087   3.956   1.973 -0.5446  1.2364 -0.1583
  799MOL0     C 5382   8.951   3.993   1.987  0.6777  0.7749 -0.4752
  799MOL0     O 5383   8.779   4.317   1.805 -0.0002  0.3375  0.3370
  799MOL0     C 5384   8.489   4.113   1.835  0.0560 -0.0916  0.7621
  799MOL0     C 5385   8.348   4.118   1.803  0.5764  0.6918 -0.4827
  799MOL0     N 5386   7.584   4.222   1.861 -0.0247  0.5383 -0.4568
  799MOL0     N 5387   7.503   4.319   1.909 -0.4198  0.1007 -0.6351
  799MOL0     C 5388   7.928   4.355   2.896 -0.1619 -0.1236  0.7971
  799MOL0     C 5389   8.035   4.359   2.980  0.4164 -0.6927  0.2134
  799MOL0     C 5390   8.318   4.471   3.315 -0.0803  0.4388  0.2026
  799MOL0     C 5391   8.373   4.342   3.331 -0.5275  0.8783  0.2356
  799MOL0     C 5392   8.503   4.331   3.390  0.3261 -0.4032  0.7131
  799MOL0     C 5393   8.567   4.440   3.444 -0.3287  0.1656 -0.3274
  799MOL0     O 5394   8.694   4.436   3.497  0.4495 -0.8692 -0.3315
  799MOL0     C 5395   8.758   4.316   3.539 -0.1729 -0.2770  0.5068
  799MOL0     C 5396   8.897   4.353   3.592 -0.5441  0.1301  0.0199
  799MOL0     C 5397   8.988   4.233   3.628 -0.4342  0.6042  0.0768
  799MOL0     C 5398   9.089   4.266   3.739 -0.1098 -0.1810 -0.5424
  799MOL0     C 5399   9.175   4.144   3.755  0.9326 -1.1838 -0.0654
  799MOL0     C 5400   9.250   4.054   3.761  0.4911  0.4304  0.3203
  799MOL0     C 5401   8.503   4.561   3.437  0.5525 -1.5336 -0.4144
  799MOL0     C 5402   8.379   4.583   3.379  0.3772 -0.1541 -0.2644
  799MOL0     H 5403   7.844   4.453   3.250 -0.7939 -0.0504  0.2786
  799MOL0     H 5404   7.669   4.443   3.089  1.0473  0.3337  2.2334
  799MOL0     H 5405   7.543   4.489   2.897 -1.8524 -0.2939  0.0897
  799MOL0     H 5406   7.510   4.311   2.907 -0.0314  0.5925 -0.2343
  799MOL0     H 5407   7.382   4.411   2.731  0.8383 -1.6002 -1.5279
  799MOL0     H 5408   7.499   4.295   2.681  1.5600  1.6790 -2.5633
  799MOL0     H 5409   7.652   4.484   2.627 -1.0917 -2.6890 -2.0760
  799MOL0     H 5410   7.538   4.612   2.662  1.7101 -0.0262  3.6856
  799MOL0     H 5411   7.502   4.383   2.475  0.4969 -0.4483  0.9578
  799MOL0     H 5412   7.391   4.518   2.513  1.4430 -0.8452  1.5206
  799MOL0     H 5413   7.664   4.555   2.391 -0.6447 -1.1828 -0.2536
  799MOL0     H 5414   7.538   4.685   2.398 -1.7172 -0.0227 -2.6427
  799MOL0     H 5415   7.414   4.578   2.244  0.1229 -0.4859 -0.5001
  799MOL0     H 5416   7.512   4.418   2.256 -1.0240  0.0403  1.6262
  799MOL0     H 5417   7.625   4.679   2.175  1.1923 -0.7464  2.8147
  799MOL0     H 5418   7.699   4.525   2.152  0.4687  1.1778  0.9573
  799MOL0     H 5419   7.603   4.622   1.942  1.4512 -1.2316  0.7688
  799MOL0     H 5420   7.445   4.566   2.005 -0.0702  2.8291 -1.5236
  799MOL0     H 5421   7.808   4.434   1.965 -0.7936  1.3483  0.9394
  799MOL0     H 5422   7.819   4.069   1.851 -1.0676 -0.1693 -0.8079
  799MOL0     H 5423   7.929   4.198   1.888  2.0289 -0.6748 -1.4485
  799MOL0     H 5424   7.770   4.190   1.632 -0.4413 -0.9526  0.7647
  799MOL0     H 5425   7.917   4.105   1.650  1.0614 -0.0267  1.1340
  799MOL0     H 5426   7.960   4.298   1.540 -1.2440 -1.0190  0.2333
  799MOL0     H 5427   7.880   4.404   1.655  1.0842  0.7163 -2.9827
  799MOL0     H 5428   8.056   4.410   1.817 -3.9675  1.9923 -0.8844
  799MOL0     H 5429   8.142   4.429   1.666  0.3389 -0.4615  0.2911
  799MOL0     H 5430   8.330   4.449   1.717 -3.2524 -0.9011  1.4729
  799MOL0     H 5431   8.564   4.434   1.736  0.9192 -0.7472  0.6182
  799MOL0     H 5432   8.918   4.159   1.692 -0.8405 -0.3096 -0.4553
  799MOL0     H 5433   9.161   4.096   1.676 -2.5227 -2.7798 -1.7102
  799MOL0     H 5434   9.381   4.130   1.798 -2.0822 -0.4477 -1.6323
  799MOL0     H 5435   9.340   4.013   1.677 -0.0887  2.2552  0.3119
  799MOL0     H 5436   9.526   3.866   1.761 -0.5456  0.2322  1.3754
  799MOL0     H 5437   9.543   3.974   1.904  3.3674 -0.8904  0.2843
  799MOL0     H 5438   9.603   4.169   1.754 -0.4495  0.2715  2.2346
  799MOL0     H 5439   9.585   4.067   1.621  0.9415  0.7399  0.0561
  799MOL0     H 5440   9.806   4.064   1.840  0.1178 -2.0794  0.3090
  799MOL0     H 5441   9.788   3.919   1.749 -1.1984 -0.2163 -0.2214
  799MOL0     H 5442   9.822   4.216   1.638  0.2951  0.4548 -2.5293
  799MOL0     H 5443   9.819   4.079   1.546 -1.6305 -0.1551  1.3128
  799MOL0     H 5444  10.038   3.981   1.652  1.1155 -0.4387 -1.3680
  799MOL0     H 5445  10.048   4.124   1.757  0.2752 -2.2186  1.2641
  799MOL0     H 5446  10.036   4.137   1.456  0.5679 -0.2106 -0.1217
  799MOL0     H 5447  10.063   4.267   1.572 -1.1291  1.6257 -3.7520
  799MOL0     H 5448  10.241   4.159   1.423 -2.4136  2.4431  0.2956
  799MOL0     H 5449  10.236   4.016   1.540  0.7000 -0.0234 -0.9464
  799MOL0     H 5450   9.135   3.893   2.047 -0.0910  3.3118  1.3986
  799MOL0     H 5451   8.889   3.960   2.070  0.6478 -0.3547 -0.9425
  799MOL0     H 5452   8.530   4.018   1.869  0.8037  0.7028  2.1622
  799MOL0     H 5453   8.295   4.028   1.831 -0.3891  0.9150 -1.5268
  799MOL0     H 5454   7.944   4.328   2.792  1.9990  1.1526  0.7327
  799MOL0     H 5455   8.137   4.345   2.948 -0.2311  0.6126 -2.6499
  799MOL0     H 5456   8.324   4.253   3.292 -0.4519  0.8011  0.3160
  799MOL0     H 5457   8.542   4.232   3.413 -1.8234 -1.3997  0.4172
  799MOL0     H 5458   8.779   4.256   3.450  2.4407 -1.5066  1.8224
  799MOL0     H 5459   8.692   4.265   3.609 -0.4512 -0.1705  0.3242
  799MOL0     H 5460   8.953   4.418   3.524  0.5076 -0.1507  0.5935
  799MOL0     H 5461   8.881   4.420   3.676 -0.4762  1.2837 -0.8703
  799MOL0     H 5462   9.044   4.192   3.544  0.9296 -0.2725  1.3589
  799MOL0     H 5463   8.934   4.156   3.684  1.1625  0.3942  1.4178
  799MOL0     H 5464   9.150   4.347   3.696  0.4905 -1.2125 -1.7100
  799MOL0     H 5465   9.041   4.300   3.831  1.7200  2.8966 -0.5928
  799MOL0     H 5466   9.308   3.966   3.783  1.0371  0.0465 -2.2814
  799MOL0     H 5467   8.541   4.646   3.493 -2.8484 -1.7046  2.5296
  799MOL0     H 5468   8.326   4.678   3.385 -2.6804 -1.7791  0.6353
  800MOL0     O 5469  10.943   9.690   3.075 -0.2804 -0.4427 -0.5056
  800MOL0     C 5470  10.993   9.728   3.178  0.6591  0.7850  0.0283
  800MOL0     O 5471  10.924   9.778   3.282  0.4978  0.0322  0.2958
  800MOL0     C 5472  10.786   9.774   3.281  0.1423 -0.3515 -1.4010
  800MOL0     C 5473  10.709   9.858   3.194 -0.9486 -0.6595 -0.3657
  800MOL0     C 5474  10.576   9.861   3.193  0.4065  0.3057 -1.6709
  800MOL0     C 5475  10.505   9.776   3.289 -0.7840 -0.4272  0.1379
  800MOL0     O 5476  10.371   9.775   3.288 -0.2405 -0.2355 -0.5221
  800MOL0     C 5477  10.319   9.912   3.303  0.6708 -0.0814 -0.4060
  800MOL0     C 5478  10.175   9.902   3.345 -0.2738  0.5039  0.9306
  800MOL0     C 5479  10.078  10.015   3.315  0.6665 -1.5616 -0.2488
  800MOL0     C 5480  10.084  10.126   3.421 -0.0367  0.2511  0.0315
  800MOL0     C 5481   9.974  10.236   3.400  0.4464 -1.0736  0.0179
  800MOL0     C 5482   9.905  10.259   3.263  0.3058  0.0110 -0.2250
  800MOL0     C 5483   9.809  10.388   3.258 -0.7787 -0.2383 -0.0942
  800MOL0     C 5484   9.668  10.337   3.291  0.7440 -0.1304  0.9937
  800MOL0     N 5485   9.579  10.450   3.317  0.0678 -0.1631 -0.6722
  800MOL0     C 5486   9.509  10.522   3.221 -0.2464 -0.7427 -0.2395
  800MOL0     C 5487   9.433  10.609   3.294  0.3161 -0.4849 -0.0497
  800MOL0     C 5488   9.330  10.718   3.246  0.0823  0.4624 -0.8434
  800MOL0     C 5489   9.192  10.645   3.239 -0.0844 -0.1248  0.1747
  800MOL0     C 5490   9.116  10.680   3.363 -0.6505  0.8415 -0.1873
  800MOL0     C 5491   8.971  10.638   3.363  0.0648 -0.1242  0.4041
  800MOL0     O 5492   8.989  10.496   3.327  0.6246 -0.0822  0.3876
  800MOL0     C 5493   8.880  10.418   3.305  0.2485  0.3277  0.1090
  800MOL0     C 5494   8.761  10.444   3.364 -0.1404 -0.4237 -0.3741
  800MOL0     C 5495   8.648  10.363   3.326 -0.2711  0.0537 -0.9519
  800MOL0     C 5496   8.659  10.257   3.236 -0.3536 -0.2927 -0.1480
  800MOL0     C 5497   8.546  10.173   3.204 -0.5200  0.0949  0.1236
  800MOL0     O 5498   8.516  10.165   3.073  0.6867  0.0094 -0.7084
  800MOL0     C 5499   8.389  10.138   3.027  0.3399  0.2405  0.0401
  800MOL0     C 5500   8.380  10.038   2.937  0.4578 -0.2347 -0.0455
  800MOL0     C 5501   8.262  10.001   2.877 -0.3080  0.0996 -1.2140
  800MOL0     C 5502   8.143  10.068   2.915  0.5887 -0.2906 -0.0452
  800MOL0     O 5503   8.015  10.049   2.873  0.6815  0.0052 -0.5670
  800MOL0     C 5504   7.992   9.960   2.762 -0.4301  1.1823  0.3236
  800MOL0     C 5505   7.846   9.937   2.736 -0.0434 -0.1685 -0.0029
  800MOL0     C 5506   7.762   9.910   2.856  0.5687 -0.2170  0.9201
  800MOL0     C 5507   7.635   9.828   2.848 -0.7859 -0.8414  0.8374
  800MOL0     C 5508   7.540   9.862   2.969 -0.1617  0.2275 -0.1887
  800MOL0     C 5509   7.421   9.763   2.980 -0.7323  0.0137 -0.0219
  800MOL0     C 5510   7.340   9.792   3.105 -1.0340 -0.5637  0.2670
  800MOL0     C 5511   7.235   9.691   3.120 -0.1843 -0.3253  0.0875
  800MOL0    Cl 5512   7.104   9.725   2.997 -0.2450 -0.3576  0.5471
  800MOL0     C 5513   8.149  10.169   3.012  0.5758  0.5868  0.6015
  800MOL0     C 5514   8.275  10.206   3.069 -0.1025  0.2370  0.2687
  800MOL0     O 5515   8.480  10.124   3.295  0.0412 -0.3243 -0.0034
  800MOL0     C 5516   8.782  10.231   3.182 -1.1440  0.2843  0.3681
  800MOL0     C 5517   8.892  10.309   3.217 -0.3197  0.5979 -0.3662
  800MOL0     N 5518   9.458  10.588   3.426  0.1611 -0.0842 -0.5829
  800MOL0     N 5519   9.536  10.489   3.436  0.2970 -0.0104 -0.0843
  800MOL0     C 5520  10.584   9.697   3.376 -0.8340 -1.0223 -0.4704
  800MOL0     C 5521  10.725   9.700   3.378  0.0197  0.6112  0.0003
  800MOL0     C 5522  11.136   9.720   3.193 -0.4722 -1.0226 -0.4866
  800MOL0     C 5523  11.219   9.709   3.081 -0.7884  0.3458 -0.4244
  800MOL0     C 5524  11.357   9.707   3.092  0.0201  0.0677  0.4372
  800MOL0     C 5525  11.419   9.732   3.215  1.2473  0.6471 -0.2991
  800MOL0     O 5526  11.558   9.725   3.239  0.5862  0.2471  0.3042
  800MOL0     C 5527  11.632   9.639   3.140 -0.9872 -0.4999 -0.8715
  800MOL0     C 5528  11.774   9.602   3.197  0.3736 -0.1022 -0.3190
  800MOL0     C 5529  11.877   9.590   3.088  0.0572 -0.2006 -0.5705
  800MOL0     C 5530  11.998   9.504   3.139 -0.9585 -0.2310  0.2254
  800MOL0     C 5531  12.067   9.561   3.255  0.3675  0.1021  0.6527
  800MOL0     C 5532  12.130   9.613   3.345  0.9779 -0.1565 -0.0063
  800MOL0     C 5533  11.331   9.760   3.317 -0.1555  0.6669  0.1820
  800MOL0     C 5534  11.198   9.741   3.311  0.0032 -1.1639  0.2972
  800MOL0     H 5535  10.774   9.909   3.123 -0.8615 -1.3111 -0.7652
  800MOL0     H 5536  10.528   9.921   3.116  3.5633  2.4299 -2.2186
  800MOL0     H 5537  10.322   9.956   3.203  1.8139  1.4811  0.2779
  800MOL0     H 5538  10.366   9.964   3.387 -1.0368 -0.6441  0.9464
  800MOL0     H 5539  10.172   9.855   3.443  1.4957  1.6942  1.6174
  800MOL0     H 5540  10.141   9.821   3.280  1.2800 -2.0089  3.0765
  800MOL0     H 5541   9.977   9.973   3.315  0.4609 -1.0855  0.5183
  800MOL0     H 5542  10.089  10.061   3.216  1.0425  0.7251  0.7822
  800MOL0     H 5543  10.077  10.101   3.527  3.0101  1.5953  0.6818
  800MOL0     H 5544  10.182  10.175   3.416 -0.6903  1.7525  1.1569
  800MOL0     H 5545  10.015  10.331   3.436  1.7710 -1.5183 -0.2363
  800MOL0     H 5546   9.887  10.206   3.460 -0.9633 -1.2094 -2.0027
  800MOL0     H 5547   9.857  10.163   3.239 -0.3539  0.4606 -0.7456
  800MOL0     H 5548   9.984  10.281   3.192 -0.4445  1.7433 -0.5800
  800MOL0     H 5549   9.838  10.463   3.332 -1.7482 -2.0032  2.2311
  800MOL0     H 5550   9.805  10.437   3.161  2.2070  1.1879  0.3988
  800MOL0     H 5551   9.675  10.270   3.377 -0.7321 -4.3498 -1.8549
  800MOL0     H 5552   9.622  10.284   3.206  0.3536 -0.2689  1.2892
  800MOL0     H 5553   9.511  10.516   3.113  3.8946  0.6093 -0.4174
  800MOL0     H 5554   9.354  10.760   3.148  0.9546 -0.3279 -0.9824
  800MOL0     H 5555   9.322  10.797   3.322 -0.5849  1.2946 -1.7452
  800MOL0     H 5556   9.203  10.536   3.229 -0.4568 -0.0685 -1.0522
  800MOL0     H 5557   9.138  10.689   3.155 -2.8440  0.1530  1.9560
  800MOL0     H 5558   9.158  10.625   3.448  2.4758 -0.5945 -2.4841
  800MOL0     H 5559   9.120  10.789   3.371 -0.3576  0.7584  0.9575
  800MOL0     H 5560   8.915  10.694   3.288 -0.1182 -1.4226 -0.4596
  800MOL0     H 5561   8.941  10.663   3.465 -0.2190  2.9955 -0.3542
  800MOL0     H 5562   8.750  10.526   3.434  3.6224  2.2600 -2.5569
  800MOL0     H 5563   8.553  10.385   3.373  0.0608 -0.0614 -0.2181
  800MOL0     H 5564   8.462   9.985   2.890 -0.2268 -0.9930 -0.4104
  800MOL0     H 5565   8.259   9.914   2.812 -0.5807 -2.1775  1.6364
  800MOL0     H 5566   8.042   9.868   2.795  2.3303  3.0728  1.8033
  800MOL0     H 5567   8.047   9.991   2.673 -0.0968  0.6235  0.3260
  800MOL0     H 5568   7.840   9.853   2.666  0.5927  2.0954 -3.0274
  800MOL0     H 5569   7.798  10.019   2.681 -2.2518 -1.0195  0.5506
  800MOL0     H 5570   7.732  10.006   2.899  3.3919  2.1005 -1.8120
  800MOL0     H 5571   7.830   9.865   2.929  1.5776 -2.3867 -1.2191
  800MOL0     H 5572   7.593   9.853   2.750 -0.3363 -0.8328  0.6423
  800MOL0     H 5573   7.665   9.723   2.843  0.4578 -0.4607 -0.6920
  800MOL0     H 5574   7.504   9.964   2.953  0.4366  1.1632  3.4882
  800MOL0     H 5575   7.589   9.873   3.066  0.6402  0.9105 -0.6546
  800MOL0     H 5576   7.469   9.665   2.990 -1.2111 -0.0315  2.3573
  800MOL0     H 5577   7.356   9.769   2.892 -1.6987  2.1195  0.7818
  800MOL0     H 5578   7.407   9.785   3.192 -0.6309 -1.1225 -0.0800
  800MOL0     H 5579   7.300   9.893   3.091  0.1031 -0.4967 -3.4130
  800MOL0     H 5580   7.188   9.698   3.219 -0.6958  0.0324 -0.1741
  800MOL0     H 5581   7.286   9.596   3.103  2.2244  1.2060 -1.8958
  800MOL0     H 5582   8.058  10.223   3.036 -0.9493  0.5801 -4.1224
  800MOL0     H 5583   8.297  10.287   3.137 -1.4270  0.0414  0.9629
  800MOL0     H 5584   8.789  10.148   3.113 -1.3400 -1.1083  1.9606
  800MOL0     H 5585   8.991  10.305   3.172 -1.9178  1.3976 -4.3868
  800MOL0     H 5586  10.530   9.625   3.437 -2.1007 -1.2801 -1.8512
  800MOL0     H 5587  10.799   9.654   3.442  0.3885  0.2511 -0.6769
  800MOL0     H 5588  11.171   9.691   2.985 -0.6993  0.7980 -0.5564
  800MOL0     H 5589  11.408   9.689   2.999 -2.1342  1.5068 -1.1178
  800MOL0     H 5590  11.643   9.717   3.064  0.3254  2.0675  1.7357
  800MOL0     H 5591  11.584   9.545   3.110 -0.1873 -1.9328  1.9125
  800MOL0     H 5592  11.800   9.679   3.271 -1.5321 -0.0317  0.3215
  800MOL0     H 5593  11.757   9.512   3.257 -0.9973  0.0080 -0.5182
  800MOL0     H 5594  11.907   9.691   3.059  2.6636 -1.3290 -2.1467
  800MOL0     H 5595  11.831   9.541   3.001 -2.3350 -0.1423  0.5584
  800MOL0     H 5596  11.976   9.398   3.160  2.4097 -0.9783  0.6047
  800MOL0     H 5597  12.065   9.499   3.053  0.0243  1.0175  0.8810
  800MOL0     H 5598  12.180   9.665   3.424  0.9818  0.9621 -0.7127
  800MOL0     H 5599  11.388   9.791   3.405  0.1796  0.7196 -0.0510
  800MOL0     H 5600  11.138   9.759   3.399 -0.9379 -2.3701 -0.0694
  801MOL0     O 5601  10.682   0.062   5.680 -0.1797  0.4519 -0.8032
  801MOL0     C 5602  10.702   0.069   5.558  0.5453  0.1043  0.4525
  801MOL0     O 5603  10.612   0.104   5.465  0.1577  0.0761 -0.3264
  801MOL0     C 5604  10.479   0.101   5.494  0.1779  0.8235 -0.1944
  801MOL0     C 5605  10.391   0.174   5.403  0.1588  0.3173  0.1173
  801MOL0     C 5606  10.250   0.172   5.434  1.1196  0.7398  0.0034
  801MOL0     C 5607  10.189   0.106   5.546 -0.3572  1.5899  0.7334
  801MOL0     O 5608  10.050   0.110   5.558  0.8829  0.8988 -1.5427
  801MOL0     C 5609   9.986   0.101   5.689 -0.1202  0.1146  0.0195
  801MOL0     C 5610   9.908  -0.037   5.711 -0.1712 -0.6806 -0.4319
  801MOL0     C 5611   9.839  -0.052   5.853 -0.0112 -0.0674  0.1564
  801MOL0     C 5612   9.741   0.061   5.871  0.8898  0.8630 -0.8225
  801MOL0     C 5613   9.633   0.029   5.974  0.5610 -0.1085  0.2633
  801MOL0     C 5614   9.574   0.162   6.038  1.2998 -0.2860 -0.7564
  801MOL0     C 5615   9.447   0.124   6.121 -0.3334  0.9228  0.1714
  801MOL0     C 5616   9.373   0.248   6.167 -0.5037  0.4843  0.0631
  801MOL0     N 5617   9.306   0.210   6.291 -0.0619  0.4474 -0.1651
  801MOL0     C 5618   9.181   0.148   6.300  0.0021  0.7453 -0.4450
  801MOL0     C 5619   9.174   0.112   6.426  0.1844 -0.4704  0.9849
  801MOL0     C 5620   9.061   0.055   6.488 -0.3757  0.2239  0.3154
  801MOL0     C 5621   9.094  -0.008   6.623  0.4668 -0.1183 -0.6749
  801MOL0     C 5622   8.967  -0.087   6.678  0.4624  0.0877 -0.3306
  801MOL0     C 5623   8.952  -0.222   6.609 -0.3850  0.1969 -0.0925
  801MOL0     O 5624   8.865  -0.318   6.680 -0.0204 -0.5378  0.3996
  801MOL0     C 5625   8.898  -0.368   6.801  0.5414  0.8498  0.1553
  801MOL0     C 5626   8.804  -0.384   6.904  0.4972  1.2036 -0.1262
  801MOL0     C 5627   8.825  -0.437   7.025  0.2092 -0.4161  0.5655
  801MOL0     C 5628   8.959  -0.482   7.052 -0.7571  0.2935 -0.0428
  801MOL0     C 5629   9.001  -0.534   7.191 -0.0505 -0.4797  0.1951
  801MOL0     O 5630   8.923  -0.507   7.307 -0.2352 -0.0271 -0.5542
  801MOL0     C 5631   8.967  -0.566   7.419  0.0388  0.1867  0.6524
  801MOL0     C 5632   8.929  -0.696   7.448  0.4241  0.7107  1.0125
  801MOL0     C 5633   8.951  -0.762   7.575  0.0655 -0.9485  0.5849
  801MOL0     C 5634   9.003  -0.682   7.680  0.4371  0.1517  0.5300
  801MOL0     O 5635   9.036  -0.728   7.804 -0.1790 -0.4654  0.0549
  801MOL0     C 5636   8.990  -0.853   7.837  0.0640  0.0239  0.3051
  801MOL0     C 5637   9.003  -0.882   7.991  0.4686  0.8082 -0.1110
  801MOL0     C 5638   8.988  -0.762   8.083 -0.2845 -0.5851 -0.3441
  801MOL0     C 5639   8.992  -0.786   8.238 -0.2159  0.1690  0.2346
  801MOL0     C 5640   9.125  -0.841   8.298 -0.5826 -0.8827  0.1528
  801MOL0     C 5641   9.218  -0.728   8.348  0.4191 -0.0174  0.4890
  801MOL0     C 5642   9.338  -0.796   8.402 -0.7380 -0.5255 -0.1213
  801MOL0     C 5643   9.443  -0.699   8.460 -0.4139 -0.3861 -0.2085
  801MOL0    Cl 5644   9.381  -0.642   8.621  0.0181 -0.3477 -0.0677
  801MOL0     C 5645   9.034  -0.550   7.652 -0.4858 -0.2272  0.0629
  801MOL0     C 5646   9.011  -0.484   7.529 -0.2879  0.7731 -0.0928
  801MOL0     O 5647   9.111  -0.594   7.194  0.4836 -0.7727  0.1591
  801MOL0     C 5648   9.050  -0.492   6.951 -0.2772 -0.0866  0.6374
  801MOL0     C 5649   9.018  -0.429   6.827 -0.0724  0.0372 -0.4176
  801MOL0     N 5650   9.297   0.139   6.494  0.0371  0.1718  0.7428
  801MOL0     N 5651   9.374   0.199   6.415  0.7983  0.2065  0.1365
  801MOL0     C 5652  10.274   0.027   5.623  0.3030  0.4522  0.2834
  801MOL0     C 5653  10.413   0.022   5.593  0.1397 -0.5094 -0.0139
  801MOL0     C 5654  10.839   0.044   5.515  0.5437  0.6115  0.5700
  801MOL0     C 5655  10.871   0.043   5.379 -0.4720  0.3247 -0.1309
  801MOL0     C 5656  11.001   0.003   5.338  0.0531  0.3493  0.2095
  801MOL0     C 5657  11.102  -0.012   5.428  0.1312 -0.1169  0.3719
  801MOL0     O 5658  11.233  -0.029   5.396 -0.3330  0.6152  0.2209
  801MOL0     C 5659  11.289   0.085   5.333 -0.5018 -0.2711  0.7893
  801MOL0     C 5660  11.434   0.047   5.270  0.6595 -0.1760  0.1965
  801MOL0     C 5661  11.530   0.003   5.381 -0.5144 -0.5461  0.1010
  801MOL0     C 5662  11.656  -0.062   5.330 -0.4815  1.3372 -0.7657
  801MOL0     C 5663  11.754   0.035   5.276 -0.1882 -0.1709 -0.6963
  801MOL0     C 5664  11.836   0.109   5.236 -0.1506  0.1239 -0.1778
  801MOL0     C 5665  11.079  -0.001   5.567  0.6082 -0.3496  0.6917
  801MOL0     C 5666  10.943   0.020   5.600  0.2123 -0.4935 -0.0312
  801MOL0     H 5667  10.428   0.235   5.321 -1.3605  1.0646 -0.0294
  801MOL0     H 5668  10.181   0.214   5.361 -0.3613 -3.0484 -1.0659
  801MOL0     H 5669   9.919   0.187   5.690 -0.7870 -0.2903 -2.6670
  801MOL0     H 5670  10.059   0.114   5.770  1.1580 -2.6100 -0.5677
  801MOL0     H 5671   9.978  -0.118   5.687  0.6335 -0.5667  1.3717
  801MOL0     H 5672   9.831  -0.034   5.633 -0.3389  1.6323 -0.2350
  801MOL0     H 5673   9.910  -0.061   5.936  0.5961 -0.9682 -0.4359
  801MOL0     H 5674   9.773  -0.139   5.847 -0.0770 -0.1740  1.8971
  801MOL0     H 5675   9.788   0.157   5.897  2.2116  0.0044  0.0669
  801MOL0     H 5676   9.689   0.073   5.776 -0.2856 -0.5826 -0.4029
  801MOL0     H 5677   9.656  -0.040   6.056 -0.3290  0.6486  1.1770
  801MOL0     H 5678   9.550  -0.019   5.920  1.4056 -2.4640  0.9158
  801MOL0     H 5679   9.536   0.236   5.967  1.5570  1.9566  1.3116
  801MOL0     H 5680   9.650   0.208   6.102  1.5574  0.3671 -1.5173
  801MOL0     H 5681   9.374   0.066   6.064  0.7587  0.5972 -0.9424
  801MOL0     H 5682   9.480   0.056   6.200  0.7878  0.2285 -0.8561
  801MOL0     H 5683   9.301   0.280   6.090 -0.4693 -2.6567 -1.4429
  801MOL0     H 5684   9.448   0.327   6.173  0.0974 -0.1030  0.4572
  801MOL0     H 5685   9.107   0.119   6.227  0.7449 -0.4971 -0.7330
  801MOL0     H 5686   9.041  -0.034   6.428  1.0168 -0.3342  0.6360
  801MOL0     H 5687   8.973   0.120   6.490 -0.1417  0.8199 -2.7095
  801MOL0     H 5688   9.118   0.069   6.697 -0.1056  1.8756 -2.4469
  801MOL0     H 5689   9.184  -0.069   6.633  0.7763  0.5935  1.5276
  801MOL0     H 5690   8.984  -0.106   6.784  0.7451 -2.2292 -0.7472
  801MOL0     H 5691   8.875  -0.027   6.673  0.5488  0.2572  0.0456
  801MOL0     H 5692   9.049  -0.271   6.598 -0.2868  0.5849 -1.1480
  801MOL0     H 5693   8.896  -0.210   6.515  0.1060 -0.4978 -0.4782
  801MOL0     H 5694   8.699  -0.355   6.895 -0.2348 -1.4675 -1.2056
  801MOL0     H 5695   8.746  -0.444   7.099  1.3330 -2.1200  1.6673
  801MOL0     H 5696   8.894  -0.757   7.365  2.5463  2.4478 -1.2848
  801MOL0     H 5697   8.925  -0.866   7.593  1.4584 -1.6350 -1.0540
  801MOL0     H 5698   9.048  -0.932   7.789 -0.2161 -0.5513  0.9063
  801MOL0     H 5699   8.885  -0.859   7.806  0.5717  1.0102 -1.7854
  801MOL0     H 5700   9.103  -0.924   8.003  0.1617 -0.8758 -2.6965
  801MOL0     H 5701   8.932  -0.959   8.024  0.3854  1.8094  2.2078
  801MOL0     H 5702   8.884  -0.730   8.073 -0.2310  0.3285  1.6979
  801MOL0     H 5703   9.055  -0.685   8.042  1.1973 -0.7033  1.7504
  801MOL0     H 5704   8.953  -0.698   8.289 -0.7927 -0.5370  1.0400
  801MOL0     H 5705   8.920  -0.867   8.252  1.9908 -1.4850  3.0227
  801MOL0     H 5706   9.172  -0.906   8.223 -0.9185  1.2205 -1.9764
  801MOL0     H 5707   9.100  -0.906   8.382  1.7863 -2.7285 -0.4520
  801MOL0     H 5708   9.155  -0.679   8.424 -0.0992  1.8890 -1.0781
  801MOL0     H 5709   9.248  -0.661   8.267 -1.4426  1.5409  0.9900
  801MOL0     H 5710   9.314  -0.865   8.484  1.5269  1.4035  2.3875
  801MOL0     H 5711   9.386  -0.858   8.325 -0.1322 -2.0628  1.4050
  801MOL0     H 5712   9.463  -0.616   8.392  1.2569 -1.9546 -1.7417
  801MOL0     H 5713   9.537  -0.746   8.490 -1.6817 -0.7049  3.9608
  801MOL0     H 5714   9.075  -0.489   7.732  0.1979 -1.2224  0.4898
  801MOL0     H 5715   9.017  -0.375   7.535  0.4367  0.6789  1.4539
  801MOL0     H 5716   9.151  -0.531   6.951 -1.1828 -2.5756  0.6778
  801MOL0     H 5717   9.099  -0.436   6.755  1.3075 -1.5162  1.1728
  801MOL0     H 5718  10.235  -0.027   5.709  0.4601 -0.9281 -0.4958
  801MOL0     H 5719  10.467  -0.049   5.655  1.1334 -1.4860 -1.9140
  801MOL0     H 5720  10.803   0.077   5.301 -1.6114  0.1408  0.7430
  801MOL0     H 5721  11.018   0.001   5.231 -0.0949  0.2515  0.1866
  801MOL0     H 5722  11.296   0.175   5.395 -0.4817  1.1246 -1.1234
  801MOL0     H 5723  11.227   0.114   5.248  0.2001 -2.0003 -0.3692
  801MOL0     H 5724  11.421  -0.034   5.198  0.9189 -1.1061  1.1671
  801MOL0     H 5725  11.467   0.134   5.213 -1.9058  0.3407 -0.6612
  801MOL0     H 5726  11.490  -0.072   5.450 -1.4803 -0.3404 -0.2264
  801MOL0     H 5727  11.574   0.085   5.439 -0.1332 -1.6653  1.4536
  801MOL0     H 5728  11.704  -0.110   5.415  3.2154 -0.5350 -3.6661
  801MOL0     H 5729  11.632  -0.141   5.259  1.9243 -0.4101  0.2700
  801MOL0     H 5730  11.899   0.193   5.218 -0.8590  0.8801  0.7411
  801MOL0     H 5731  11.160  -0.000   5.640 -1.0074 -3.3133  2.7507
  801MOL0     H 5732  10.926   0.050   5.703 -1.2835  2.8341 -1.1129
  802MOL0     O 5733   9.062   6.556   2.374 -0.3028  0.2544  0.2193
  802MOL0     C 5734   9.079   6.630   2.275 -0.1960 -0.4606 -0.1202
  802MOL0     O 5735   8.980   6.719   2.235 -0.2218  0.2021  0.7700
  802MOL0     C 5736   8.854   6.700   2.284 -0.3464 -0.4487  0.2841
  802MOL0     C 5737   8.787   6.580   2.305  0.5875 -0.1158  0.1779
  802MOL0     C 5738   8.649   6.584   2.342 -0.2526 -0.4269  0.4924
  802MOL0     C 5739   8.594   6.708   2.363 -0.7143 -0.1623 -0.5887
  802MOL0     O 5740   8.467   6.711   2.405 -0.3125 -0.1881  0.1270
  802MOL0     C 5741   8.366   6.693   2.309  0.3897  0.1350 -0.0770
  802MOL0     C 5742   8.257   6.601   2.367 -0.1736 -0.1428  0.1330
  802MOL0     C 5743   8.156   6.569   2.261  0.9869  1.1818 -0.0417
  802MOL0     C 5744   8.031   6.498   2.316  0.2658  0.6329  0.7819
  802MOL0     C 5745   7.901   6.514   2.239 -0.0081  0.1094  0.7904
  802MOL0     C 5746   7.797   6.435   2.313  0.9180  0.7177 -0.0680
  802MOL0     C 5747   7.652   6.452   2.251  0.0202  0.3912  0.2817
  802MOL0     C 5748   7.551   6.452   2.366  1.8948 -0.6681 -0.3272
  802MOL0     N 5749   7.410   6.480   2.323 -0.1579 -0.1456  0.3842
  802MOL0     C 5750   7.330   6.389   2.247 -0.3365 -0.1711 -0.5619
  802MOL0     C 5751   7.217   6.462   2.223  0.1015  0.5392  0.8802
  802MOL0     C 5752   7.099   6.386   2.163 -0.1918 -0.7069 -0.1108
  802MOL0     C 5753   6.965   6.436   2.203  1.0210 -0.0061  0.4040
  802MOL0     C 5754   6.916   6.539   2.093  0.3790 -0.1391 -0.2933
  802MOL0     C 5755   6.785   6.611   2.140  0.3857 -0.0384  0.1167
  802MOL0     O 5756   6.685   6.507   2.153  0.3182  0.2036 -0.0507
  802MOL0     C 5757   6.555   6.532   2.181  0.2794  0.0400 -0.3928
  802MOL0     C 5758   6.496   6.655   2.198 -0.2737 -0.2299  0.0179
  802MOL0     C 5759   6.359   6.670   2.209  0.1502  0.1418 -0.7350
  802MOL0     C 5760   6.267   6.557   2.212 -0.8938 -0.4211 -0.2460
  802MOL0     C 5761   6.127   6.579   2.207  0.7613  0.3333  0.0715
  802MOL0     O 5762   6.080   6.694   2.253 -0.6235 -0.0529  0.3209
  802MOL0     C 5763   5.948   6.720   2.281  0.4910  0.4783  0.4621
  802MOL0     C 5764   5.911   6.778   2.406 -0.4683 -0.3930 -0.2472
  802MOL0     C 5765   5.782   6.811   2.441  0.3537  0.1953  0.6611
  802MOL0     C 5766   5.678   6.766   2.355  0.9850 -0.0800  0.1898
  802MOL0     O 5767   5.541   6.792   2.374 -0.1396  0.0406 -0.2389
  802MOL0     C 5768   5.508   6.806   2.515 -0.5067 -0.1023  0.5749
  802MOL0     C 5769   5.350   6.798   2.528  0.1425 -0.3726  0.7069
  802MOL0     C 5770   5.288   6.926   2.479  0.3684 -0.1495 -0.5366
  802MOL0     C 5771   5.276   7.027   2.601  0.0541  0.1522  0.5946
  802MOL0     C 5772   5.263   7.172   2.557  0.5882 -0.2209  0.2846
  802MOL0     C 5773   5.136   7.201   2.473 -0.7345  0.4429  0.5911
  802MOL0     C 5774   5.132   7.345   2.420  1.0120 -0.9332  0.5640
  802MOL0     C 5775   5.043   7.361   2.295 -0.4932  0.2766  0.4325
  802MOL0    Cl 5776   5.127   7.272   2.157 -0.1284  0.1713  0.0374
  802MOL0     C 5777   5.710   6.703   2.233  0.1751 -0.0779 -0.0699
  802MOL0     C 5778   5.846   6.686   2.193  0.3586  0.0034  0.0729
  802MOL0     O 5779   6.053   6.484   2.177  0.3791  0.0701  0.0608
  802MOL0     C 5780   6.324   6.434   2.183 -0.9857  0.4104 -0.7480
  802MOL0     C 5781   6.461   6.424   2.174 -0.6384 -0.1301  0.4977
  802MOL0     N 5782   7.228   6.590   2.279  0.3838  0.2139 -0.1180
  802MOL0     N 5783   7.343   6.604   2.334 -0.2380  0.0734  0.6451
  802MOL0     C 5784   8.661   6.826   2.345  0.5285 -0.8733  0.2543
  802MOL0     C 5785   8.793   6.827   2.305  0.4763  0.4165 -0.0958
  802MOL0     C 5786   9.216   6.668   2.240  0.8157 -0.0980 -0.5803
  802MOL0     C 5787   9.312   6.568   2.243 -1.2596  0.0495  0.0390
  802MOL0     C 5788   9.450   6.601   2.220  0.3988  0.6179 -0.1169
  802MOL0     C 5789   9.483   6.735   2.179 -0.3127 -0.5278  0.0155
  802MOL0     O 5790   9.610   6.766   2.127 -0.8025 -0.1552 -0.3774
  802MOL0     C 5791   9.663   6.898   2.137 -0.1580  0.6727  0.2637
  802MOL0     C 5792   9.787   6.897   2.063  0.7318  0.5568  0.8074
  802MOL0     C 5793   9.767   6.878   1.907  0.2706  0.6465 -0.4266
  802MOL0     C 5794   9.892   6.898   1.816  0.6741  0.1411 -0.7419
  802MOL0     C 5795   9.999   6.802   1.853 -0.3184 -0.5711 -0.6969
  802MOL0     C 5796  10.087   6.725   1.850  0.3230  0.9834 -0.2170
  802MOL0     C 5797   9.381   6.835   2.183 -0.3189 -0.4739 -0.1294
  802MOL0     C 5798   9.254   6.802   2.215  0.0786 -0.4305  0.2128
  802MOL0     H 5799   8.841   6.487   2.287  1.6265  0.6170 -0.6081
  802MOL0     H 5800   8.586   6.497   2.359  0.4129 -1.3032 -1.3344
  802MOL0     H 5801   8.406   6.647   2.218 -0.2067 -3.4940  1.3292
  802MOL0     H 5802   8.321   6.787   2.275 -1.7958 -1.2932 -1.4215
  802MOL0     H 5803   8.204   6.638   2.456 -3.2747  0.4026 -1.7798
  802MOL0     H 5804   8.312   6.515   2.404  1.9969  1.0523 -0.1701
  802MOL0     H 5805   8.209   6.510   2.186 -0.6508  1.9257 -1.8745
  802MOL0     H 5806   8.123   6.655   2.202 -1.4635 -1.8775 -3.6368
  802MOL0     H 5807   8.062   6.395   2.338  0.0579  0.9845  2.9776
  802MOL0     H 5808   8.018   6.540   2.416 -2.9951  3.8080 -0.7778
  802MOL0     H 5809   7.916   6.475   2.138 -2.4185 -3.4610  1.6175
  802MOL0     H 5810   7.859   6.615   2.237 -0.2100  0.0801  2.3918
  802MOL0     H 5811   7.803   6.474   2.415  2.9014  2.3948 -0.7440
  802MOL0     H 5812   7.816   6.327   2.318 -1.7443  0.2001  0.0883
  802MOL0     H 5813   7.647   6.552   2.206  1.0476  1.0536  1.5677
  802MOL0     H 5814   7.629   6.380   2.172  4.1627  1.1597 -1.9390
  802MOL0     H 5815   7.574   6.531   2.438 -2.1716 -0.7781  1.3808
  802MOL0     H 5816   7.548   6.359   2.424  1.0192 -0.2172  0.3683
  802MOL0     H 5817   7.349   6.284   2.228 -2.2148 -1.2291  2.6597
  802MOL0     H 5818   7.102   6.282   2.195  1.2714 -0.7606 -0.3398
  802MOL0     H 5819   7.128   6.400   2.058  1.2946  1.5741  0.5198
  802MOL0     H 5820   6.983   6.481   2.300  2.6175 -2.7781  1.5293
  802MOL0     H 5821   6.903   6.349   2.226 -0.1760  1.0194  1.1647
  802MOL0     H 5822   7.001   6.597   2.056  1.2035 -2.0093 -1.4813
  802MOL0     H 5823   6.890   6.484   2.002  1.0898  0.6261 -0.9723
  802MOL0     H 5824   6.760   6.684   2.063  1.0126 -1.0324 -1.0700
  802MOL0     H 5825   6.796   6.671   2.230 -0.8503 -0.9811  0.9204
  802MOL0     H 5826   6.570   6.734   2.186 -0.0884 -0.5885 -1.5509
  802MOL0     H 5827   6.326   6.773   2.219  0.2126 -0.0301  1.6076
  802MOL0     H 5828   5.994   6.821   2.461 -0.0772 -0.6412 -0.6352
  802MOL0     H 5829   5.769   6.870   2.531 -0.5138 -0.2243  0.8205
  802MOL0     H 5830   5.552   6.897   2.558 -1.3088  1.4061 -1.6598
  802MOL0     H 5831   5.559   6.724   2.565  2.6802 -1.3605 -4.0892
  802MOL0     H 5832   5.323   6.768   2.629  1.6974 -3.5498  0.3252
  802MOL0     H 5833   5.316   6.713   2.469 -0.3852  0.0680  0.3702
  802MOL0     H 5834   5.186   6.903   2.446  1.3555 -0.3486 -3.7191
  802MOL0     H 5835   5.357   6.960   2.401  0.0428 -4.8922 -3.2782
  802MOL0     H 5836   5.187   7.009   2.662 -0.2877  1.9412  0.6593
  802MOL0     H 5837   5.366   7.011   2.661  0.8195 -1.2424 -0.8261
  802MOL0     H 5838   5.356   7.196   2.503 -0.4961 -3.4815 -3.5086
  802MOL0     H 5839   5.253   7.233   2.647 -2.4665 -1.4535  0.8989
  802MOL0     H 5840   5.052   7.174   2.537 -1.8396 -0.1822 -1.0727
  802MOL0     H 5841   5.127   7.126   2.394  0.2182 -1.9502  2.5982
  802MOL0     H 5842   5.101   7.421   2.492 -0.0923 -0.0993 -0.7394
  802MOL0     H 5843   5.233   7.375   2.390  0.8437  0.6994  1.5136
  802MOL0     H 5844   5.031   7.465   2.264  1.0099  0.3797  0.1122
  802MOL0     H 5845   4.943   7.322   2.312 -0.5089 -1.0333 -2.2789
  802MOL0     H 5846   5.630   6.665   2.170  0.0857  0.7498 -0.4733
  802MOL0     H 5847   5.861   6.623   2.106 -0.9333 -1.8291  1.0849
  802MOL0     H 5848   6.259   6.347   2.180  1.1613 -1.2543 -2.3060
  802MOL0     H 5849   6.505   6.326   2.157  2.3315  0.7871  2.0715
  802MOL0     H 5850   8.608   6.916   2.373  1.0100 -0.5174  0.0340
  802MOL0     H 5851   8.835   6.925   2.287  1.1916 -0.3384 -3.0925
  802MOL0     H 5852   9.275   6.470   2.272 -2.0928  0.3631  0.0799
  802MOL0     H 5853   9.522   6.521   2.208  0.6166  1.0760 -2.1508
  802MOL0     H 5854   9.706   6.912   2.237  0.0215  0.5342  0.2064
  802MOL0     H 5855   9.596   6.981   2.110  0.1689  0.4458 -1.3987
  802MOL0     H 5856   9.837   6.995   2.065 -1.1924  1.6101  0.2101
  802MOL0     H 5857   9.843   6.813   2.105  2.0855 -0.7274 -3.1746
  802MOL0     H 5858   9.681   6.930   1.862  0.0872 -1.5933 -2.8786
  802MOL0     H 5859   9.725   6.779   1.889  0.6219  0.2791  0.6735
  802MOL0     H 5860   9.849   6.875   1.718  0.0646 -0.5076 -0.3286
  802MOL0     H 5861   9.918   7.004   1.817  2.2207 -0.2141 -1.2669
  802MOL0     H 5862  10.162   6.651   1.831 -0.8477 -0.8081  1.6845
  802MOL0     H 5863   9.393   6.938   2.149 -0.3336 -0.6728 -0.7459
  802MOL0     H 5864   9.174   6.875   2.207 -0.2504 -0.8574 -0.5306
  803MOL0     O 5865   5.435   1.698   7.227 -0.3126  0.5118  0.7322
  803MOL0     C 5866   5.552   1.691   7.271  0.0665 -0.0694 -0.3147
  803MOL0     O 5867   5.586   1.688   7.406  0.2903 -0.2551  0.5912
  803MOL0     C 5868   5.489   1.728   7.488 -0.4022 -0.5790  0.1579
  803MOL0     C 5869   5.464   1.863   7.501 -0.4090 -0.0856 -0.5129
  803MOL0     C 5870   5.366   1.917   7.579 -0.4926 -0.2217 -0.3332
  803MOL0     C 5871   5.290   1.839   7.657  0.9744 -0.9975  0.4315
  803MOL0     O 5872   5.201   1.897   7.743 -0.3333  0.6749 -0.1480
  803MOL0     C 5873   5.107   1.982   7.678  0.5249 -0.6070  0.5118
  803MOL0     C 5874   5.027   2.049   7.789  0.1744  0.6982  0.1087
  803MOL0     C 5875   4.901   2.119   7.737  0.0189  0.0993  0.1238
  803MOL0     C 5876   4.840   2.200   7.853 -0.5733  0.5248 -0.6620
  803MOL0     C 5877   4.726   2.296   7.815 -0.2215 -0.1698 -0.0597
  803MOL0     C 5878   4.679   2.365   7.938  0.1570  0.3538 -0.4742
  803MOL0     C 5879   4.556   2.444   7.934 -0.2692 -1.0463  0.2757
  803MOL0     C 5880   4.431   2.350   7.912  0.4679 -0.4593  0.7465
  803MOL0     N 5881   4.308   2.423   7.879  0.3250 -1.5121  0.0876
  803MOL0     C 5882   4.201   2.418   7.960 -0.5736  0.1355 -0.1967
  803MOL0     C 5883   4.103   2.498   7.897 -0.5855 -0.7031 -1.0805
  803MOL0     C 5884   3.972   2.535   7.947  0.8485 -0.7382  0.7209
  803MOL0     C 5885   3.972   2.544   8.101 -0.2904 -0.8157 -0.2584
  803MOL0     C 5886   4.000   2.681   8.146 -0.6473 -1.1803 -0.0890
  803MOL0     C 5887   4.148   2.727   8.113  0.8384  0.0468  0.3499
  803MOL0     O 5888   4.247   2.665   8.203  0.8537 -1.0301 -0.7899
  803MOL0     C 5889   4.373   2.687   8.177  0.0447 -0.6567  0.2065
  803MOL0     C 5890   4.432   2.739   8.058  0.5324  0.4015 -0.0098
  803MOL0     C 5891   4.563   2.770   8.054 -0.6612  0.2012  0.0702
  803MOL0     C 5892   4.654   2.748   8.162  0.3808  0.0020  0.4192
  803MOL0     C 5893   4.798   2.768   8.145 -1.0322 -0.7342 -0.0243
  803MOL0     O 5894   4.849   2.821   8.031 -0.9949 -0.1212  0.3390
  803MOL0     C 5895   4.982   2.802   8.005  0.1406  0.4172  0.3596
  803MOL0     C 5896   5.072   2.912   8.005 -0.8283  0.4987 -1.1419
  803MOL0     C 5897   5.205   2.890   7.948  0.4076 -0.0745 -0.3957
  803MOL0     C 5898   5.246   2.766   7.912 -1.0209  0.4305  0.6928
  803MOL0     O 5899   5.373   2.779   7.854  0.8932 -0.7497 -0.0910
  803MOL0     C 5900   5.432   2.665   7.803  0.0066  0.6769  0.8258
  803MOL0     C 5901   5.568   2.697   7.757  0.3873  0.8004 -0.1275
  803MOL0     C 5902   5.677   2.707   7.866 -0.3789  0.6511 -0.3440
  803MOL0     C 5903   5.631   2.770   8.002 -0.1768 -0.0741 -0.2085
  803MOL0     C 5904   5.739   2.743   8.114  0.1188 -0.2630  0.6571
  803MOL0     C 5905   5.720   2.838   8.231 -0.3389 -0.8510 -0.0896
  803MOL0     C 5906   5.813   2.807   8.354 -0.3969  0.4750  0.7037
  803MOL0     C 5907   5.818   2.915   8.450 -0.8502  0.1536 -0.7110
  803MOL0    Cl 5908   5.848   3.068   8.372  0.1292  0.4182 -0.0195
  803MOL0     C 5909   5.166   2.653   7.930  0.6092 -0.0448  0.7039
  803MOL0     C 5910   5.032   2.670   7.970 -0.0806 -0.6397 -0.0599
  803MOL0     O 5911   4.869   2.721   8.231  0.3252 -0.2806  0.0150
  803MOL0     C 5912   4.602   2.705   8.278  0.5680 -0.8971 -0.6417
  803MOL0     C 5913   4.465   2.669   8.278 -0.2317 -0.1678 -0.2348
  803MOL0     N 5914   4.165   2.548   7.782 -0.2082 -0.3500 -0.0267
  803MOL0     N 5915   4.285   2.509   7.773  0.4308 -0.3101  0.3722
  803MOL0     C 5916   5.318   1.702   7.653  1.0741 -0.0832 -0.0517
  803MOL0     C 5917   5.418   1.649   7.573  0.0205  0.3885  0.2476
  803MOL0     C 5918   5.669   1.667   7.180  0.4469  0.3364 -0.3915
  803MOL0     C 5919   5.654   1.705   7.046  0.2052  0.3668 -0.1719
  803MOL0     C 5920   5.764   1.718   6.971 -0.7292  0.8889 -0.5240
  803MOL0     C 5921   5.893   1.683   7.017  1.0651  1.3882 -0.6188
  803MOL0     O 5922   6.007   1.705   6.948  0.1414  0.1642  0.0560
  803MOL0     C 5923   6.017   1.786   6.821  0.1751  0.7714 -0.3351
  803MOL0     C 5924   6.161   1.766   6.763 -0.1164  0.4505  1.0800
  803MOL0     C 5925   6.275   1.813   6.858 -0.1922 -0.0910  0.1914
  803MOL0     C 5926   6.335   1.960   6.821  1.6797 -0.1847 -0.5925
  803MOL0     C 5927   6.242   2.054   6.881 -0.6049  0.1355 -0.2006
  803MOL0     C 5928   6.182   2.118   6.961 -0.6209 -0.5514  0.4860
  803MOL0     C 5929   5.905   1.633   7.144 -0.1286 -0.6127  0.2646
  803MOL0     C 5930   5.793   1.623   7.228 -0.3438  0.7186  0.5240
  803MOL0     H 5931   5.531   1.922   7.439 -1.2333  1.8582  0.3729
  803MOL0     H 5932   5.349   2.025   7.579  0.5567 -0.0071 -2.3843
  803MOL0     H 5933   5.028   1.928   7.625 -0.5307  0.1430  1.2749
  803MOL0     H 5934   5.152   2.055   7.610 -1.3802 -0.9179 -1.1806
  803MOL0     H 5935   5.089   2.112   7.854  3.2166 -1.4064 -0.5246
  803MOL0     H 5936   5.001   1.968   7.858  2.5886 -0.6799 -0.4661
  803MOL0     H 5937   4.828   2.042   7.710  3.6007 -3.1717 -1.1207
  803MOL0     H 5938   4.922   2.187   7.654  0.0911 -0.0183  0.0463
  803MOL0     H 5939   4.812   2.132   7.934  0.6604  0.6846 -0.0668
  803MOL0     H 5940   4.927   2.258   7.886  0.2424 -0.9623 -0.0707
  803MOL0     H 5941   4.649   2.229   7.773  0.1802 -0.1091 -0.9086
  803MOL0     H 5942   4.757   2.368   7.739 -0.5770 -2.8174 -2.9367
  803MOL0     H 5943   4.758   2.433   7.971  2.1168 -2.9019  2.2235
  803MOL0     H 5944   4.664   2.287   8.014  2.0664  0.9273  0.5566
  803MOL0     H 5945   4.552   2.512   8.020 -0.7747  0.4054 -0.8463
  803MOL0     H 5946   4.562   2.506   7.844  0.4433 -1.4654  0.0296
  803MOL0     H 5947   4.425   2.281   7.996  1.5082  0.2641  1.4352
  803MOL0     H 5948   4.451   2.285   7.826 -2.0942 -0.4811  0.0922
  803MOL0     H 5949   4.192   2.379   8.061 -0.1044 -0.5836 -0.4298
  803MOL0     H 5950   3.903   2.454   7.923  2.1245 -2.3580  2.2399
  803MOL0     H 5951   3.935   2.632   7.910 -0.3627 -0.4689  2.5351
  803MOL0     H 5952   4.053   2.485   8.145  2.7196  1.4001 -2.3657
  803MOL0     H 5953   3.873   2.514   8.136 -0.6162 -0.7300 -1.0814
  803MOL0     H 5954   3.927   2.750   8.102 -2.2403 -2.2810  0.7374
  803MOL0     H 5955   3.979   2.697   8.252 -2.2011  0.2801 -0.5755
  803MOL0     H 5956   4.144   2.836   8.112  1.7733  0.1079  1.4622
  803MOL0     H 5957   4.171   2.694   8.011 -1.8186 -1.3875  0.1226
  803MOL0     H 5958   4.380   2.752   7.964  1.3018 -1.7887 -0.7886
  803MOL0     H 5959   4.607   2.823   7.970 -0.7718 -0.7391 -0.5983
  803MOL0     H 5960   5.048   3.008   8.049  0.2952  0.8828 -1.3342
  803MOL0     H 5961   5.267   2.976   7.923  1.3113 -0.4555  0.4258
  803MOL0     H 5962   5.368   2.636   7.719 -0.0319 -2.2760  1.7473
  803MOL0     H 5963   5.432   2.584   7.877  2.7182  1.8054  2.1717
  803MOL0     H 5964   5.582   2.793   7.707  1.5185  2.2046  2.6626
  803MOL0     H 5965   5.588   2.617   7.686 -0.4650 -0.6339  1.1746
  803MOL0     H 5966   5.760   2.760   7.819 -0.1289  0.9310  0.3919
  803MOL0     H 5967   5.716   2.605   7.876 -1.2716 -0.0999 -3.4283
  803MOL0     H 5968   5.611   2.876   7.984  0.8863  0.7047  2.6627
  803MOL0     H 5969   5.538   2.722   8.033  0.3953 -0.8667  0.3528
  803MOL0     H 5970   5.840   2.756   8.076  0.1213 -0.3220  0.6441
  803MOL0     H 5971   5.730   2.638   8.144  0.6884 -1.3059 -2.4511
  803MOL0     H 5972   5.621   2.813   8.271  0.1581 -2.6861  0.0770
  803MOL0     H 5973   5.721   2.939   8.188 -1.8763 -1.1573 -0.9258
  803MOL0     H 5974   5.767   2.718   8.397  1.8836 -1.1023  0.0583
  803MOL0     H 5975   5.912   2.781   8.315 -1.6759 -2.0022 -1.2025
  803MOL0     H 5976   5.901   2.897   8.519  0.0276 -2.2268 -2.2689
  803MOL0     H 5977   5.728   2.920   8.513 -0.3782 -0.5032  0.0267
  803MOL0     H 5978   5.202   2.561   7.887  2.0714  1.9778 -2.7745
  803MOL0     H 5979   4.969   2.582   7.966  1.3105 -1.6544 -0.4225
  803MOL0     H 5980   4.653   2.686   8.372 -2.6474 -3.5539  0.7464
  803MOL0     H 5981   4.414   2.627   8.363 -2.2155 -3.1071 -2.6487
  803MOL0     H 5982   5.268   1.644   7.730 -0.9129  0.5797 -0.7772
  803MOL0     H 5983   5.456   1.548   7.578  2.7952  1.0603 -3.1521
  803MOL0     H 5984   5.552   1.721   7.011  0.0575  1.1350  0.5838
  803MOL0     H 5985   5.765   1.752   6.868  2.5765 -0.8326 -1.2166
  803MOL0     H 5986   5.984   1.889   6.839 -3.1386 -0.0458 -1.0409
  803MOL0     H 5987   5.951   1.752   6.741  0.7523  0.1796 -0.5627
  803MOL0     H 5988   6.182   1.661   6.742 -1.8411 -0.1072  1.9130
  803MOL0     H 5989   6.179   1.825   6.673  1.9314 -0.0508  1.1276
  803MOL0     H 5990   6.353   1.736   6.869 -0.1471  0.2289  2.6702
  803MOL0     H 5991   6.241   1.810   6.961  0.0462  0.5072  0.2918
  803MOL0     H 5992   6.432   1.967   6.872  0.0307  1.0765  2.6411
  803MOL0     H 5993   6.339   1.970   6.712  0.1042  0.1160 -0.6363
  803MOL0     H 5994   6.128   2.163   7.042  1.0850 -3.8680  3.7783
  803MOL0     H 5995   5.993   1.589   7.191 -1.4327 -3.9018 -0.0782
  803MOL0     H 5996   5.798   1.583   7.329 -1.6335 -3.4451 -0.8210
  804MOL0     O 5997   6.444   4.740   1.882 -0.7178  0.4472  0.1970
  804MOL0     C 5998   6.324   4.739   1.878  0.2992  0.4887  0.5049
  804MOL0     O 5999   6.242   4.707   1.983 -0.5086 -0.1377  0.3425
  804MOL0     C 6000   6.303   4.663   2.097  0.0197 -0.8684  0.3186
  804MOL0     C 6001   6.384   4.745   2.177 -0.0216 -0.6000  0.3854
  804MOL0     C 6002   6.442   4.700   2.289  0.1312 -0.0408 -0.6035
  804MOL0     C 6003   6.434   4.558   2.314 -0.4113 -0.5861 -0.4159
  804MOL0     O 6004   6.524   4.520   2.413 -0.3895  0.0475 -0.8354
  804MOL0     C 6005   6.529   4.377   2.444  0.9836 -0.5172  0.1325
  804MOL0     C 6006   6.652   4.311   2.399 -0.3391  0.6971 -0.0271
  804MOL0     C 6007   6.778   4.394   2.432 -1.0282  0.9698 -0.0503
  804MOL0     C 6008   6.901   4.291   2.431  0.8532 -0.1291  0.0124
  804MOL0     C 6009   7.018   4.359   2.501 -0.7406 -0.0962 -0.1710
  804MOL0     C 6010   7.144   4.272   2.501  0.0064 -0.4643  0.0382
  804MOL0     C 6011   7.172   4.188   2.371 -1.1011  0.1455 -0.4767
  804MOL0     C 6012   7.317   4.145   2.373 -0.4767 -1.1083  0.1308
  804MOL0     N 6013   7.351   4.040   2.277 -0.4527 -0.0180 -0.7045
  804MOL0     C 6014   7.412   4.056   2.158 -0.6404 -0.8558 -0.8951
  804MOL0     C 6015   7.429   3.929   2.114  0.8333 -1.0060  0.1983
  804MOL0     C 6016   7.479   3.897   1.973  0.2411 -0.4982 -0.2784
  804MOL0     C 6017   7.622   3.850   1.994 -0.4246 -0.5543  0.1875
  804MOL0     C 6018   7.669   3.780   1.872  0.3566  0.1700  0.4609
  804MOL0     C 6019   7.823   3.767   1.865  1.3311 -1.0499 -0.2574
  804MOL0     O 6020   7.853   3.637   1.809  0.1505  0.4166  0.9045
  804MOL0     C 6021   7.987   3.619   1.769  0.4426 -1.0916 -0.1923
  804MOL0     C 6022   8.092   3.711   1.814  0.3000 -0.3208  0.1892
  804MOL0     C 6023   8.223   3.682   1.787  0.3048  0.5319 -0.5297
  804MOL0     C 6024   8.253   3.568   1.700 -0.1005 -0.3320  0.0674
  804MOL0     C 6025   8.383   3.547   1.650 -0.7060 -0.0865  0.1909
  804MOL0     O 6026   8.484   3.625   1.710 -0.8090  0.3988 -0.1322
  804MOL0     C 6027   8.618   3.619   1.681 -0.3892 -0.0283  1.3578
  804MOL0     C 6028   8.698   3.682   1.766 -0.2343  1.6690 -0.0358
  804MOL0     C 6029   8.839   3.686   1.750  0.1601  0.0652 -0.2659
  804MOL0     C 6030   8.897   3.629   1.639  0.8682  0.0760 -0.5243
  804MOL0     O 6031   9.030   3.635   1.602  0.2287  0.2189  1.1121
  804MOL0     C 6032   9.128   3.713   1.687 -0.3080 -0.7293 -0.0332
  804MOL0     C 6033   9.275   3.693   1.637  0.3391 -0.1120  0.0192
  804MOL0     C 6034   9.302   3.745   1.501  0.5035 -0.5019  0.2935
  804MOL0     C 6035   9.449   3.707   1.462  0.1727 -0.7296 -0.5678
  804MOL0     C 6036   9.456   3.715   1.307  0.2525  0.0424  0.0377
  804MOL0     C 6037   9.570   3.637   1.232  0.1667 -0.2203  0.6521
  804MOL0     C 6038   9.717   3.667   1.281  0.1983  0.3336  0.4507
  804MOL0     C 6039   9.772   3.810   1.303  0.2683  0.2717  0.5761
  804MOL0    Cl 6040   9.916   3.817   1.410 -0.1851  0.0172 -0.1203
  804MOL0     C 6041   8.818   3.579   1.534 -0.3927 -0.7678 -0.0227
  804MOL0     C 6042   8.681   3.567   1.557 -0.3082 -0.2010 -0.0970
  804MOL0     O 6043   8.399   3.471   1.555 -0.1073  0.1794  0.1927
  804MOL0     C 6044   8.143   3.480   1.664  0.5769  0.1073  0.2002
  804MOL0     C 6045   8.015   3.503   1.698  0.5748 -0.4021 -1.5101
  804MOL0     N 6046   7.384   3.839   2.210 -0.4124  0.0834  0.3256
  804MOL0     N 6047   7.351   3.912   2.313 -0.2555  0.1821 -0.3612
  804MOL0     C 6048   6.345   4.479   2.238 -0.3565 -0.1515  0.4646
  804MOL0     C 6049   6.277   4.533   2.128 -0.5616  0.3285 -0.5304
  804MOL0     C 6050   6.256   4.785   1.751  0.3411  0.4644 -0.1102
  804MOL0     C 6051   6.329   4.861   1.657 -0.3155  0.5438  0.5064
  804MOL0     C 6052   6.266   4.912   1.542  0.7406  0.2848  0.3522
  804MOL0     C 6053   6.127   4.881   1.515 -0.3891 -0.6075  0.1294
  804MOL0     O 6054   6.069   4.942   1.402 -0.1600  0.1054  0.2936
  804MOL0     C 6055   5.935   4.919   1.375 -1.4121  0.7832  0.5851
  804MOL0     C 6056   5.896   4.964   1.235 -0.8513  0.2415 -0.5773
  804MOL0     C 6057   5.963   4.887   1.120  0.4503  0.2844 -0.1222
  804MOL0     C 6058   5.858   4.841   1.021  0.2411  0.0837  0.0866
  804MOL0     C 6059   5.775   4.732   1.070  0.3139 -0.6758  0.4605
  804MOL0     C 6060   5.716   4.623   1.076  0.3737  0.4853 -0.1351
  804MOL0     C 6061   6.063   4.797   1.602  0.1755 -0.1297 -0.5474
  804MOL0     C 6062   6.120   4.757   1.723 -0.1454 -0.6316 -0.8089
  804MOL0     H 6063   6.399   4.851   2.160  0.3049 -0.5432  0.9780
  804MOL0     H 6064   6.498   4.770   2.350 -2.1407  0.0915  1.5219
  804MOL0     H 6065   6.446   4.314   2.411  0.3554  0.1062  0.5206
  804MOL0     H 6066   6.531   4.368   2.553  2.5205 -0.5908  0.1223
  804MOL0     H 6067   6.665   4.288   2.293  1.1993 -0.9299  0.4735
  804MOL0     H 6068   6.653   4.216   2.453  3.0149  0.9242  0.5278
  804MOL0     H 6069   6.759   4.441   2.529 -1.0986  2.3692 -0.7216
  804MOL0     H 6070   6.796   4.470   2.356 -1.9740  0.1304 -1.1550
  804MOL0     H 6071   6.880   4.198   2.484  1.1153  0.1859  0.6899
  804MOL0     H 6072   6.929   4.270   2.328  1.1299  1.0930 -0.1855
  804MOL0     H 6073   6.980   4.384   2.600  0.4553  1.7220 -0.1269
  804MOL0     H 6074   7.050   4.451   2.452  3.6876 -1.6311 -0.6163
  804MOL0     H 6075   7.139   4.201   2.584 -1.0684 -1.5153 -0.8818
  804MOL0     H 6076   7.234   4.330   2.522 -0.7146  0.1054  1.7265
  804MOL0     H 6077   7.110   4.098   2.364  3.1068 -2.9678 -1.5931
  804MOL0     H 6078   7.149   4.240   2.277  0.9251  0.8776 -0.6124
  804MOL0     H 6079   7.340   4.119   2.477  0.9588 -0.8107 -0.0836
  804MOL0     H 6080   7.376   4.234   2.348 -2.0671 -0.3188 -0.9638
  804MOL0     H 6081   7.414   4.153   2.110  1.2786  0.3159  1.3313
  804MOL0     H 6082   7.476   3.977   1.898 -1.3158  2.6244  2.8194
  804MOL0     H 6083   7.420   3.817   1.927  0.9345  0.1238 -2.3833
  804MOL0     H 6084   7.626   3.777   2.076 -1.2725 -2.2669 -1.2172
  804MOL0     H 6085   7.690   3.932   2.017 -2.0369  0.8518  0.1101
  804MOL0     H 6086   7.618   3.683   1.875  0.4224 -0.1827 -3.7702
  804MOL0     H 6087   7.625   3.817   1.778  1.2023  1.8792  0.7115
  804MOL0     H 6088   7.859   3.791   1.966 -0.6184 -0.9117  0.4558
  804MOL0     H 6089   7.856   3.854   1.807  0.9006  0.0445  1.0649
  804MOL0     H 6090   8.077   3.804   1.868 -3.7123 -0.6923  0.0441
  804MOL0     H 6091   8.303   3.745   1.826  0.5195 -0.2244  0.2884
  804MOL0     H 6092   8.648   3.701   1.861 -0.0424 -0.4129  0.5345
  804MOL0     H 6093   8.895   3.733   1.831  1.0313 -0.4827 -0.5413
  804MOL0     H 6094   9.123   3.673   1.788 -2.5074 -1.8176 -0.5147
  804MOL0     H 6095   9.108   3.819   1.672 -0.9172 -0.9073 -0.5104
  804MOL0     H 6096   9.299   3.587   1.642  0.2313 -0.1343  4.9914
  804MOL0     H 6097   9.335   3.745   1.712  1.9774 -1.3612 -0.3863
  804MOL0     H 6098   9.293   3.853   1.512 -1.1462 -0.7780  2.5087
  804MOL0     H 6099   9.224   3.699   1.439  0.9820  0.2547 -0.8986
  804MOL0     H 6100   9.523   3.771   1.511 -0.8959 -0.1454  0.3539
  804MOL0     H 6101   9.456   3.601   1.490  0.3691 -0.4010  0.7177
  804MOL0     H 6102   9.452   3.819   1.275 -2.4114 -0.5037 -1.8120
  804MOL0     H 6103   9.370   3.663   1.263  1.1513 -2.4979  1.0921
  804MOL0     H 6104   9.562   3.651   1.123 -1.1266 -1.3957  0.5670
  804MOL0     H 6105   9.550   3.531   1.251 -1.0736 -0.2262 -0.5029
  804MOL0     H 6106   9.727   3.624   1.381  0.0622 -1.3830 -0.2301
  804MOL0     H 6107   9.779   3.615   1.207  0.5407 -0.3030  1.1711
  804MOL0     H 6108   9.697   3.876   1.348  0.8143  3.3079 -2.5322
  804MOL0     H 6109   9.799   3.851   1.206  1.6675 -0.1611  0.7663
  804MOL0     H 6110   8.861   3.549   1.439 -0.4143  0.4970 -0.4492
  804MOL0     H 6111   8.624   3.515   1.479  1.1782 -1.7863 -0.1821
  804MOL0     H 6112   8.164   3.392   1.604  2.4036  0.0345  0.8735
  804MOL0     H 6113   7.931   3.434   1.687 -1.9357  1.0929  4.3544
  804MOL0     H 6114   6.349   4.371   2.248  4.7653 -0.5267 -2.1509
  804MOL0     H 6115   6.214   4.473   2.065 -0.2309 -0.9789  0.3400
  804MOL0     H 6116   6.436   4.877   1.672 -0.5603  0.1220  3.3580
  804MOL0     H 6117   6.313   4.981   1.472  1.2840 -1.7783 -1.3974
  804MOL0     H 6118   5.876   4.970   1.452 -2.2035  0.8901 -0.0756
  804MOL0     H 6119   5.904   4.814   1.378 -1.9205  0.8946 -0.2766
  804MOL0     H 6120   5.789   4.954   1.216 -1.0370  1.5368 -0.3470
  804MOL0     H 6121   5.910   5.072   1.223  0.6459  0.4307  2.0496
  804MOL0     H 6122   6.009   4.796   1.159  0.1867  0.2196  0.0359
  804MOL0     H 6123   6.044   4.945   1.075  0.5678  0.3401  0.1646
  804MOL0     H 6124   5.789   4.920   0.989  0.3101  0.4854  0.8821
  804MOL0     H 6125   5.914   4.812   0.932 -1.7918  1.7648 -1.8552
  804MOL0     H 6126   5.665   4.530   1.097  1.0626  0.2509  0.5414
  804MOL0     H 6127   5.960   4.774   1.576  0.4089  1.0734 -2.7513
  804MOL0     H 6128   6.057   4.713   1.800 -2.2399  1.8182 -1.0075
  805MOL0     O 6129   6.572   7.714   6.467  0.2766 -0.1815  0.2893
  805MOL0     C 6130   6.619   7.680   6.579  0.7051  0.2537 -0.7098
  805MOL0     O 6131   6.549   7.636   6.690  0.3214 -0.5157  0.3547
  805MOL0     C 6132   6.430   7.578   6.665  0.4976  0.8151 -0.1859
  805MOL0     C 6133   6.316   7.624   6.735  0.6507 -0.2712  0.3577
  805MOL0     C 6134   6.190   7.570   6.711  0.0981 -0.8329 -0.1562
  805MOL0     C 6135   6.182   7.478   6.611 -0.3712  0.4315 -0.3900
  805MOL0     O 6136   6.051   7.437   6.578 -0.0768  0.0628 -0.3245
  805MOL0     C 6137   6.041   7.308   6.642  0.5344 -0.4495 -0.8881
  805MOL0     C 6138   5.899   7.250   6.645  0.4533 -0.1613 -0.1424
  805MOL0     C 6139   5.815   7.309   6.760 -0.1913  0.4118  0.9734
  805MOL0     C 6140   5.847   7.239   6.890  0.7699 -0.0317 -0.4149
  805MOL0     C 6141   5.748   7.133   6.941  0.4155 -0.2061  1.1966
  805MOL0     C 6142   5.786   7.055   7.068 -0.7700  0.1327 -1.1519
  805MOL0     C 6143   5.674   6.975   7.151 -0.7309 -0.4048 -0.2016
  805MOL0     C 6144   5.581   7.065   7.235  0.9180 -0.4220 -0.5397
  805MOL0     N 6145   5.540   7.013   7.367  0.0102  0.1523  0.1140
  805MOL0     C 6146   5.452   6.903   7.376 -0.6477  0.0029 -0.3428
  805MOL0     C 6147   5.463   6.866   7.504  0.0168 -0.4259  0.1178
  805MOL0     C 6148   5.382   6.766   7.573  0.2795 -0.2977 -0.2356
  805MOL0     C 6149   5.230   6.795   7.553  0.1252  0.5426  0.5013
  805MOL0     C 6150   5.190   6.943   7.593  0.0192  0.0532  0.1641
  805MOL0     C 6151   5.041   6.969   7.597  0.1077 -0.2446 -0.8503
  805MOL0     O 6152   4.983   6.857   7.661  0.1659 -0.3148  0.6911
  805MOL0     C 6153   4.845   6.854   7.672  0.8055 -0.1936  0.2931
  805MOL0     C 6154   4.772   6.738   7.675 -0.1109 -0.1216  0.2847
  805MOL0     C 6155   4.644   6.744   7.727 -0.0610  0.4253  0.2216
  805MOL0     C 6156   4.573   6.860   7.751 -0.1551 -0.1132  0.3307
  805MOL0     C 6157   4.425   6.866   7.780 -1.0338 -0.5918 -0.5759
  805MOL0     O 6158   4.360   6.985   7.784  0.1727 -0.6388  0.0010
  805MOL0     C 6159   4.228   7.008   7.828 -0.1380  0.5812  0.2556
  805MOL0     C 6160   4.150   6.915   7.896 -0.4078  0.0476 -0.5422
  805MOL0     C 6161   4.013   6.931   7.917  0.5414  0.1610  0.0306
  805MOL0     C 6162   3.953   7.051   7.886  0.5654 -0.5135  0.0687
  805MOL0     O 6163   3.819   7.061   7.912 -0.2938  0.6047 -0.0147
  805MOL0     C 6164   3.758   7.191   7.924  0.4880 -0.2933  1.1916
  805MOL0     C 6165   3.611   7.181   7.968  0.8908 -0.4476  0.1837
  805MOL0     C 6166   3.518   7.081   7.902 -0.1226  0.2917 -0.2911
  805MOL0     C 6167   3.382   7.139   7.896  0.4394  0.3276 -0.5439
  805MOL0     C 6168   3.283   7.043   7.817 -0.9279  0.5045  0.5748
  805MOL0     C 6169   3.138   7.099   7.777 -0.0627  0.2917 -0.3190
  805MOL0     C 6170   3.047   7.004   7.691 -0.4021 -0.5599 -0.3542
  805MOL0     C 6171   2.918   7.084   7.652  0.1925  0.5039 -1.5519
  805MOL0    Cl 6172   2.826   7.141   7.800 -0.6516  0.3975  0.0334
  805MOL0     C 6173   4.026   7.152   7.822 -0.6108  0.3736 -0.0775
  805MOL0     C 6174   4.160   7.122   7.784 -0.2640  0.2386 -0.1280
  805MOL0     O 6175   4.370   6.758   7.770 -0.4680 -0.4728  0.2816
  805MOL0     C 6176   4.644   6.978   7.737  0.2506  1.0310  1.1159
  805MOL0     C 6177   4.774   6.969   7.681  0.0578  0.2549 -0.9026
  805MOL0     N 6178   5.565   6.943   7.567  0.3216  0.4823  0.3487
  805MOL0     N 6179   5.602   7.034   7.491 -0.1487 -0.0493  0.5384
  805MOL0     C 6180   6.299   7.424   6.553  0.1947  0.0559 -0.0958
  805MOL0     C 6181   6.423   7.482   6.573 -0.3698 -0.2642  0.8167
  805MOL0     C 6182   6.766   7.706   6.594  0.7860  0.4315 -0.3043
  805MOL0     C 6183   6.840   7.656   6.704 -0.0367 -0.1246  0.1182
  805MOL0     C 6184   6.965   7.714   6.737  0.3623  0.1302  0.2542
  805MOL0     C 6185   7.029   7.786   6.635  0.6129 -0.1048  0.2043
  805MOL0     O 6186   7.150   7.831   6.666  0.0194 -0.0142  0.4802
  805MOL0     C 6187   7.252   7.795   6.577  0.2470 -0.4620  0.0982
  805MOL0     C 6188   7.381   7.761   6.647  0.1241 -0.5892 -0.1622
  805MOL0     C 6189   7.463   7.666   6.565 -0.5466 -0.3511  0.5902
  805MOL0     C 6190   7.601   7.650   6.631  1.2044 -0.2233  0.4680
  805MOL0     C 6191   7.683   7.566   6.553 -0.0777  0.9328  0.4958
  805MOL0     C 6192   7.760   7.509   6.481 -0.8114 -0.8218 -1.1249
  805MOL0     C 6193   6.955   7.825   6.523  0.1844 -0.8489 -0.0984
  805MOL0     C 6194   6.830   7.779   6.501 -0.4136  0.4954 -0.4275
  805MOL0     H 6195   6.328   7.706   6.805 -0.5058 -0.4412  0.7717
  805MOL0     H 6196   6.102   7.612   6.757 -0.8381 -1.1125 -1.6380
  805MOL0     H 6197   6.086   7.305   6.742  1.3811 -1.6471 -1.2876
  805MOL0     H 6198   6.099   7.246   6.573  2.1798  0.6122 -0.5435
  805MOL0     H 6199   5.912   7.143   6.659  0.3602  0.0377  1.7299
  805MOL0     H 6200   5.864   7.285   6.547 -2.6197 -0.1996  0.8366
  805MOL0     H 6201   5.707   7.307   6.749 -0.3494  0.7628  2.2885
  805MOL0     H 6202   5.843   7.415   6.764 -2.4467  1.2413 -2.1152
  805MOL0     H 6203   5.950   7.204   6.889  0.2179 -1.8782  1.3565
  805MOL0     H 6204   5.844   7.310   6.974 -2.6935 -3.1790  2.4428
  805MOL0     H 6205   5.719   7.061   6.863 -2.0670  1.6297  0.2907
  805MOL0     H 6206   5.652   7.182   6.959  0.9911  2.5719 -2.1546
  805MOL0     H 6207   5.836   7.118   7.142 -2.6842 -1.0006  1.2672
  805MOL0     H 6208   5.856   6.975   7.043 -1.9937 -1.8299  1.2473
  805MOL0     H 6209   5.606   6.916   7.089 -3.8262  1.1154  1.5528
  805MOL0     H 6210   5.720   6.906   7.223  0.2177 -0.1051 -0.5066
  805MOL0     H 6211   5.500   7.106   7.174  1.5423  1.5331 -0.1361
  805MOL0     H 6212   5.640   7.155   7.256  4.0342 -2.3563 -0.3010
  805MOL0     H 6213   5.380   6.861   7.305 -2.4640  0.8154  0.9540
  805MOL0     H 6214   5.402   6.764   7.681  0.2060  1.6461 -0.1488
  805MOL0     H 6215   5.404   6.668   7.530 -0.1074 -1.0961  1.2967
  805MOL0     H 6216   5.175   6.718   7.608  1.9740 -0.7954  0.5709
  805MOL0     H 6217   5.197   6.784   7.448 -2.1800  3.4308  0.7925
  805MOL0     H 6218   5.231   6.957   7.693  0.1854 -1.3124  0.3014
  805MOL0     H 6219   5.245   7.013   7.528  1.0574  0.4551  1.4388
  805MOL0     H 6220   4.988   6.982   7.502 -0.8948 -2.7351 -0.7148
  805MOL0     H 6221   5.028   7.059   7.658 -1.0971 -0.4240 -0.8282
  805MOL0     H 6222   4.814   6.647   7.633 -1.1963 -1.0802  1.2250
  805MOL0     H 6223   4.592   6.650   7.739 -1.2650  1.2025  1.2705
  805MOL0     H 6224   4.204   6.825   7.923  2.0050  1.7410  0.6886
  805MOL0     H 6225   3.961   6.854   7.974 -0.9183 -1.4822 -3.2899
  805MOL0     H 6226   3.765   7.245   7.829  2.8871 -2.0691  0.2340
  805MOL0     H 6227   3.809   7.251   7.999 -2.7667  1.0820  2.4744
  805MOL0     H 6228   3.578   7.283   7.948  0.4493 -0.2365  1.8753
  805MOL0     H 6229   3.608   7.169   8.077 -0.3355 -0.1502  0.1959
  805MOL0     H 6230   3.514   6.986   7.956  1.5908  0.0640 -0.5087
  805MOL0     H 6231   3.553   7.082   7.799 -0.7210  1.4072 -0.5036
  805MOL0     H 6232   3.340   7.175   7.990  1.7851  3.4195 -1.0347
  805MOL0     H 6233   3.386   7.226   7.831 -2.7900 -1.5406 -3.6552
  805MOL0     H 6234   3.269   6.942   7.855  0.3717 -0.0347 -0.3016
  805MOL0     H 6235   3.339   7.026   7.725  0.0280 -1.4511  1.4731
  805MOL0     H 6236   3.151   7.194   7.724  0.0628 -0.3844 -1.5499
  805MOL0     H 6237   3.087   7.112   7.873  1.3066  4.4339  0.0308
  805MOL0     H 6238   3.100   6.982   7.598 -0.9529 -0.1457 -0.7747
  805MOL0     H 6239   3.029   6.907   7.738 -1.1540  0.0850  0.7406
  805MOL0     H 6240   2.852   7.029   7.584  2.1690 -2.2177 -1.4129
  805MOL0     H 6241   2.935   7.177   7.596 -1.6870  0.7169 -1.8201
  805MOL0     H 6242   3.985   7.249   7.797 -0.2233  0.9231  1.3309
  805MOL0     H 6243   4.208   7.189   7.713  0.8652 -1.2429 -0.8166
  805MOL0     H 6244   4.599   7.076   7.745 -2.3592 -0.1581  2.0712
  805MOL0     H 6245   4.826   7.062   7.660 -0.1031  0.0513 -2.3223
  805MOL0     H 6246   6.293   7.354   6.470 -3.0011 -0.7321  0.6574
  805MOL0     H 6247   6.504   7.451   6.508  1.4688  0.0566  2.8512
  805MOL0     H 6248   6.792   7.587   6.774  0.2003 -0.8589 -0.4391
  805MOL0     H 6249   7.010   7.685   6.831 -1.1507 -3.3936  0.0530
  805MOL0     H 6250   7.263   7.876   6.504  0.7439  0.4556  1.1819
  805MOL0     H 6251   7.220   7.703   6.525 -2.9269  0.5822 -0.0422
  805MOL0     H 6252   7.431   7.856   6.666 -1.6742  0.3876 -0.1012
  805MOL0     H 6253   7.365   7.714   6.745  1.1318 -0.8170 -0.1001
  805MOL0     H 6254   7.488   7.714   6.470  1.0211 -0.9024  0.6893
  805MOL0     H 6255   7.414   7.569   6.554  1.5272 -1.5332  1.1747
  805MOL0     H 6256   7.639   7.751   6.652  1.5173  0.5894 -3.2096
  805MOL0     H 6257   7.593   7.598   6.727 -0.1973  1.1318  1.1296
  805MOL0     H 6258   7.844   7.481   6.421  3.2088  2.2764  2.4114
  805MOL0     H 6259   7.005   7.889   6.451  2.2607 -2.1092  0.1336
  805MOL0     H 6260   6.784   7.795   6.405  0.6440  1.3091 -0.8214
  806MOL0     O 6261  10.589   8.055   2.619  0.6159  0.1012 -0.5922
  806MOL0     C 6262  10.654   8.035   2.517 -0.6789 -0.6638  1.2450
  806MOL0     O 6263  10.603   7.992   2.396  0.4404  0.1195  0.0217
  806MOL0     C 6264  10.474   7.955   2.392  0.1153 -0.8715  0.5585
  806MOL0     C 6265  10.427   7.830   2.448 -0.3116  0.2074  0.0581
  806MOL0     C 6266  10.291   7.801   2.446  0.5077 -0.5123  0.0546
  806MOL0     C 6267  10.199   7.892   2.388 -0.2195  0.0742  0.2686
  806MOL0     O 6268  10.065   7.864   2.383  0.3380  0.4255  0.1400
  806MOL0     C 6269  10.010   7.738   2.425  0.4047 -0.6598  0.2619
  806MOL0     C 6270   9.869   7.734   2.372  0.3699 -0.5657  0.2015
  806MOL0     C 6271   9.782   7.623   2.447 -0.8406 -0.4193  0.5638
  806MOL0     C 6272   9.643   7.620   2.378  0.3662 -0.1929  0.2331
  806MOL0     C 6273   9.519   7.582   2.454 -0.3055 -1.0721 -0.2813
  806MOL0     C 6274   9.398   7.637   2.380  0.3712 -0.6648  0.4796
  806MOL0     C 6275   9.273   7.645   2.464  0.2745  0.5651  0.1568
  806MOL0     C 6276   9.259   7.506   2.538 -0.1438 -0.4471  0.6332
  806MOL0     N 6277   9.134   7.492   2.611  0.3566  0.0921 -0.3236
  806MOL0     C 6278   9.023   7.443   2.558  0.0208  0.1669 -0.6244
  806MOL0     C 6279   8.927   7.461   2.646 -0.2754  0.0599 -0.1649
  806MOL0     C 6280   8.790   7.403   2.619  0.0782  1.0193  0.0591
  806MOL0     C 6281   8.716   7.497   2.528 -0.0467 -0.1763 -0.5006
  806MOL0     C 6282   8.590   7.431   2.475 -0.2290 -0.3791 -0.0206
  806MOL0     C 6283   8.485   7.393   2.578  0.0483  0.6899 -0.3052
  806MOL0     O 6284   8.360   7.412   2.521 -0.3466 -0.3666  0.4307
  806MOL0     C 6285   8.250   7.358   2.581  0.7505  0.7251  0.1196
  806MOL0     C 6286   8.240   7.297   2.702  0.1444  0.9763  0.0647
  806MOL0     C 6287   8.115   7.263   2.761  0.4222  0.0068  0.5353
  806MOL0     C 6288   7.993   7.285   2.693 -0.4609  0.3158 -0.1396
  806MOL0     C 6289   7.859   7.260   2.754  0.2100 -0.3144 -0.0262
  806MOL0     O 6290   7.748   7.300   2.688  0.2559  0.3041  0.4473
  806MOL0     C 6291   7.620   7.306   2.726  0.8534  0.8572  0.4954
  806MOL0     C 6292   7.523   7.336   2.626 -0.1222 -0.7689  0.2947
  806MOL0     C 6293   7.389   7.360   2.652  0.0907 -0.3887 -0.1136
  806MOL0     C 6294   7.333   7.334   2.780 -0.1497  1.6451  0.2274
  806MOL0     O 6295   7.194   7.329   2.811  0.1062  0.5317  0.3854
  806MOL0     C 6296   7.131   7.212   2.749  0.3433 -0.0352 -0.0765
  806MOL0     C 6297   7.015   7.152   2.835 -0.2196  0.5926  0.3815
  806MOL0     C 6298   6.895   7.248   2.836  0.2627  0.7670 -0.0398
  806MOL0     C 6299   6.782   7.175   2.904  0.4107  0.3346 -0.4071
  806MOL0     C 6300   6.646   7.257   2.901 -0.2285 -0.4087  0.7179
  806MOL0     C 6301   6.531   7.177   2.966  0.0335 -0.3669  0.2527
  806MOL0     C 6302   6.395   7.242   2.937  0.4475 -0.9372 -0.0413
  806MOL0     C 6303   6.356   7.257   2.791  0.0104  0.7921 -0.3028
  806MOL0    Cl 6304   6.310   7.090   2.737  0.1060  0.0735 -0.3794
  806MOL0     C 6305   7.422   7.285   2.880  0.3811 -0.5528  0.5347
  806MOL0     C 6306   7.561   7.280   2.855 -0.2376  0.2077  0.2322
  806MOL0     O 6307   7.862   7.197   2.858  0.1055  0.1439 -0.5819
  806MOL0     C 6308   8.014   7.332   2.565  0.1279  1.1262  0.6270
  806MOL0     C 6309   8.133   7.373   2.509 -0.0616 -0.3297  1.0280
  806MOL0     N 6310   8.982   7.526   2.745 -0.3576 -0.8185 -0.5149
  806MOL0     N 6311   9.108   7.543   2.734 -0.4313  0.4444  0.1028
  806MOL0     C 6312  10.242   8.014   2.338  0.4740  1.0719  0.2035
  806MOL0     C 6313  10.377   8.047   2.332  0.1594  0.0778 -1.0560
  806MOL0     C 6314  10.799   8.074   2.515 -0.0829 -0.0835  0.3543
  806MOL0     C 6315  10.874   8.084   2.396  0.3240 -0.8016  0.6945
  806MOL0     C 6316  11.010   8.111   2.399  0.3700  0.3812  0.0929
  806MOL0     C 6317  11.073   8.158   2.515  0.8013 -0.2131  1.2094
  806MOL0     O 6318  11.203   8.194   2.500 -0.4096 -0.1211 -0.8995
  806MOL0     C 6319  11.281   8.214   2.617 -0.1010  0.5739 -0.6732
  806MOL0     C 6320  11.428   8.210   2.580 -0.5810 -0.7262 -0.0717
  806MOL0     C 6321  11.519   8.242   2.699  0.3826 -1.1605 -0.3515
  806MOL0     C 6322  11.659   8.259   2.654 -0.0505 -0.5832  0.4176
  806MOL0     C 6323  11.715   8.144   2.590  0.3077 -0.2437  0.1613
  806MOL0     C 6324  11.747   8.042   2.519  0.0381  0.8992 -0.0069
  806MOL0     C 6325  10.998   8.160   2.632 -0.5536 -0.2339  0.1958
  806MOL0     C 6326  10.865   8.124   2.627 -0.6797  0.2119 -0.2419
  806MOL0     H 6327  10.505   7.776   2.501  1.9063  1.1903 -2.0382
  806MOL0     H 6328  10.247   7.721   2.504 -1.4938  2.0303  2.3599
  806MOL0     H 6329  10.001   7.726   2.533 -1.4993  3.1358  0.6889
  806MOL0     H 6330  10.070   7.659   2.378 -1.5762 -1.9582 -0.2152
  806MOL0     H 6331   9.874   7.725   2.263  4.2490  3.2231 -0.1923
  806MOL0     H 6332   9.824   7.833   2.389 -1.1801 -1.3908  1.2232
  806MOL0     H 6333   9.768   7.637   2.554 -2.3177 -1.7939  0.5802
  806MOL0     H 6334   9.834   7.531   2.417 -1.1294 -0.1644 -0.7681
  806MOL0     H 6335   9.624   7.722   2.343  1.1089  0.3790  1.4488
  806MOL0     H 6336   9.650   7.568   2.281 -1.0797  1.5845 -0.8986
  806MOL0     H 6337   9.518   7.631   2.551 -0.2490  1.2795 -1.3943
  806MOL0     H 6338   9.522   7.473   2.466 -1.5750 -1.0693  0.2130
  806MOL0     H 6339   9.374   7.567   2.300  0.5418 -1.6529  1.2601
  806MOL0     H 6340   9.410   7.738   2.341  2.6602 -0.6935  0.9189
  806MOL0     H 6341   9.285   7.720   2.543 -2.1418 -0.4944  1.6555
  806MOL0     H 6342   9.183   7.674   2.409  0.2003 -1.5882 -0.9885
  806MOL0     H 6343   9.342   7.489   2.606  0.1643 -0.6120  0.2202
  806MOL0     H 6344   9.264   7.425   2.465 -2.6492 -1.7088  1.7289
  806MOL0     H 6345   9.012   7.389   2.464 -1.8465 -0.1205 -0.2960
  806MOL0     H 6346   8.738   7.378   2.711  2.4978  1.3628  1.6052
  806MOL0     H 6347   8.800   7.307   2.568  2.5398  2.1141 -1.7149
  806MOL0     H 6348   8.784   7.519   2.445  0.4822 -1.7723 -0.5221
  806MOL0     H 6349   8.702   7.589   2.585 -3.5330  0.7752 -2.6033
  806MOL0     H 6350   8.547   7.500   2.402 -0.2805 -2.7848 -2.4359
  806MOL0     H 6351   8.624   7.343   2.419  1.7518 -0.3983  1.1332
  806MOL0     H 6352   8.492   7.476   2.649 -1.3700  1.7280 -1.3250
  806MOL0     H 6353   8.513   7.302   2.631 -2.6157  0.1154  0.2547
  806MOL0     H 6354   8.327   7.288   2.767  0.2069  1.2637  0.0242
  806MOL0     H 6355   8.118   7.229   2.864 -1.6976 -0.5869  0.4375
  806MOL0     H 6356   7.559   7.347   2.524  0.2881 -0.2523  0.4961
  806MOL0     H 6357   7.318   7.381   2.572 -2.2811  0.9229  2.1776
  806MOL0     H 6358   7.208   7.141   2.718  1.0593  1.1292 -1.0755
  806MOL0     H 6359   7.075   7.244   2.660  0.4789  0.7109  0.0993
  806MOL0     H 6360   7.058   7.139   2.935 -1.1720  1.1064  0.8753
  806MOL0     H 6361   6.979   7.062   2.785  1.1542  0.2782 -0.0617
  806MOL0     H 6362   6.857   7.267   2.735 -0.1564  2.2939  0.3786
  806MOL0     H 6363   6.928   7.339   2.887 -0.1831  0.7977  0.2071
  806MOL0     H 6364   6.768   7.072   2.871  0.1652 -0.6407  2.4525
  806MOL0     H 6365   6.801   7.161   3.011  0.2515 -2.0375 -0.6479
  806MOL0     H 6366   6.611   7.266   2.798 -2.3598  0.4232  1.4601
  806MOL0     H 6367   6.660   7.359   2.939 -1.8195  0.4105 -0.7446
  806MOL0     H 6368   6.553   7.184   3.073  2.1478 -1.0821 -0.1006
  806MOL0     H 6369   6.542   7.073   2.934 -0.7218 -0.0756 -1.0410
  806MOL0     H 6370   6.312   7.193   2.990 -1.4732  2.6658  0.6177
  806MOL0     H 6371   6.383   7.341   2.981  2.2197 -0.6947 -0.0336
  806MOL0     H 6372   6.437   7.291   2.726 -0.1407 -0.1137 -0.9872
  806MOL0     H 6373   6.270   7.324   2.779  0.4134  1.4148  0.1862
  806MOL0     H 6374   7.373   7.258   2.973 -0.0438 -0.3650  0.3671
  806MOL0     H 6375   7.627   7.264   2.939 -0.6970  0.6460  0.6842
  806MOL0     H 6376   7.930   7.350   2.499 -0.8881 -1.5689  1.0425
  806MOL0     H 6377   8.136   7.425   2.413 -2.6654 -2.9984 -0.6810
  806MOL0     H 6378  10.172   8.081   2.290  0.8218 -0.4414 -2.5853
  806MOL0     H 6379  10.420   8.130   2.276  1.3651  0.5671  0.4981
  806MOL0     H 6380  10.828   8.067   2.299  0.6862 -1.0872  0.5724
  806MOL0     H 6381  11.063   8.115   2.305 -0.3370  1.3628 -0.2783
  806MOL0     H 6382  11.268   8.140   2.696  3.3446 -0.0120 -0.4934
  806MOL0     H 6383  11.258   8.313   2.659 -0.8396 -0.3014  1.0523
  806MOL0     H 6384  11.461   8.116   2.535  1.3171  0.0007 -0.3244
  806MOL0     H 6385  11.457   8.287   2.507  1.6296 -1.8660 -0.4948
  806MOL0     H 6386  11.506   8.161   2.772 -2.8561 -1.3561 -1.0020
  806MOL0     H 6387  11.481   8.337   2.737 -1.4606 -0.6048 -3.2611
  806MOL0     H 6388  11.672   8.343   2.586 -0.4318 -1.9705 -1.4325
  806MOL0     H 6389  11.722   8.279   2.742 -1.6146  1.9181  1.0566
  806MOL0     H 6390  11.774   7.957   2.460  0.0170  0.7946  0.1331
  806MOL0     H 6391  11.047   8.176   2.727 -1.1549  1.5142  0.2375
  806MOL0     H 6392  10.820   8.124   2.726  2.6435  0.9628  1.4276
  807MOL0     O 6393  10.840   1.761   7.317 -0.1029 -0.1107  0.2690
  807MOL0     C 6394  10.799   1.789   7.206  0.1492 -1.1530  0.4644
  807MOL0     O 6395  10.680   1.847   7.164  0.0612 -0.8914  0.6869
  807MOL0     C 6396  10.580   1.859   7.251  0.8423  0.4470 -0.2142
  807MOL0     C 6397  10.542   1.976   7.319 -0.4521  0.1716  0.6077
  807MOL0     C 6398  10.442   1.974   7.421  0.0814  0.4349  0.7855
  807MOL0     C 6399  10.368   1.857   7.444 -0.5465  0.0292  0.2293
  807MOL0     O 6400  10.278   1.856   7.543  0.0891  0.4621 -0.7495
  807MOL0     C 6401  10.328   1.779   7.652 -0.2694  0.1189  0.4629
  807MOL0     C 6402  10.214   1.769   7.755 -0.8187 -0.2119 -0.2324
  807MOL0     C 6403  10.231   1.667   7.864  0.2712 -0.7642 -0.1732
  807MOL0     C 6404  10.341   1.719   7.951 -0.2559  1.0310 -0.1675
  807MOL0     C 6405  10.363   1.622   8.067  0.0977  0.2120  0.3171
  807MOL0     C 6406  10.468   1.666   8.172 -0.1032 -0.3026  0.4711
  807MOL0     C 6407  10.406   1.777   8.255  0.6251  0.1439 -0.6395
  807MOL0     C 6408  10.506   1.812   8.367  0.5077 -0.5072 -0.7713
  807MOL0     N 6409  10.455   1.929   8.452  0.5882 -0.2302  0.1092
  807MOL0     C 6410  10.452   2.062   8.416 -0.5113  0.3909  0.1715
  807MOL0     C 6411  10.412   2.126   8.529 -0.0841  0.2726 -0.0276
  807MOL0     C 6412  10.388   2.270   8.551  0.7188 -0.9892  0.4919
  807MOL0     C 6413  10.242   2.320   8.592  0.0025 -0.9289  0.4969
  807MOL0     C 6414  10.173   2.367   8.458 -0.0138  1.0676  0.1649
  807MOL0     C 6415  10.031   2.421   8.490  0.7546 -0.3577 -1.0101
  807MOL0     O 6416   9.956   2.334   8.574 -0.3331  0.1663  0.1373
  807MOL0     C 6417   9.843   2.379   8.627  0.8889  0.0645 -0.9496
  807MOL0     C 6418   9.762   2.298   8.714 -0.3506  0.0044  1.0666
  807MOL0     C 6419   9.646   2.343   8.765  0.6439  0.2458 -0.2444
  807MOL0     C 6420   9.597   2.472   8.744 -0.1385 -0.4337 -0.3031
  807MOL0     C 6421   9.489   2.531   8.827  0.0679 -1.0464 -0.9369
  807MOL0     O 6422   9.420   2.640   8.769 -0.7143 -0.4362  0.8695
  807MOL0     C 6423   9.294   2.682   8.819 -0.4538 -0.4422  0.2540
  807MOL0     C 6424   9.265   2.815   8.802 -0.3971  0.1826  0.2567
  807MOL0     C 6425   9.132   2.869   8.837  0.0679  0.8614 -0.5012
  807MOL0     C 6426   9.024   2.784   8.873  0.0303 -0.3386 -1.2353
  807MOL0     O 6427   8.900   2.811   8.914 -0.0349 -0.4496  0.5846
  807MOL0     C 6428   8.885   2.950   8.949  0.6387  0.1326 -0.2532
  807MOL0     C 6429   8.751   2.983   9.022 -0.0769 -0.8857 -0.2768
  807MOL0     C 6430   8.645   3.039   8.923  0.0116  0.2741  0.2714
  807MOL0     C 6431   8.515   3.058   8.996  0.4414  0.9291  0.4932
  807MOL0     C 6432   8.390   3.116   8.925 -0.9093  0.2974  0.5858
  807MOL0     C 6433   8.265   3.106   9.018 -0.2426 -0.7211 -0.7376
  807MOL0     C 6434   8.136   3.153   8.955 -0.0642  0.3643  0.3389
  807MOL0     C 6435   8.036   3.211   9.045  0.7913 -0.7490 -1.1394
  807MOL0    Cl 6436   7.892   3.249   8.956  0.0760 -0.1668 -0.4266
  807MOL0     C 6437   9.056   2.654   8.878  0.4329 -0.6429  0.0984
  807MOL0     C 6438   9.184   2.603   8.857 -0.8838 -0.2719  0.2241
  807MOL0     O 6439   9.459   2.466   8.928  0.2103  0.1031  0.3478
  807MOL0     C 6440   9.668   2.553   8.655 -0.3122 -0.1395  0.5075
  807MOL0     C 6441   9.791   2.504   8.592 -0.3403 -0.4832 -0.2181
  807MOL0     N 6442  10.407   2.037   8.633  0.3677  0.1247  1.2433
  807MOL0     N 6443  10.422   1.916   8.583 -0.0625  0.0961 -0.1569
  807MOL0     C 6444  10.400   1.740   7.370 -0.1333  0.2320  0.1925
  807MOL0     C 6445  10.507   1.744   7.278  0.8891  0.3211  0.4234
  807MOL0     C 6446  10.900   1.790   7.104  1.5150  0.9082  0.5248
  807MOL0     C 6447  10.888   1.860   6.977  0.2277 -0.3256  0.0227
  807MOL0     C 6448  10.995   1.880   6.894  0.4893 -0.8979  0.3092
  807MOL0     C 6449  11.120   1.834   6.920 -0.3709 -0.6153  0.4169
  807MOL0     O 6450  11.211   1.860   6.830 -0.7828 -0.2356 -0.0083
  807MOL0     C 6451  11.348   1.824   6.863  0.1150 -0.0751  0.1355
  807MOL0     C 6452  11.448   1.858   6.750 -0.0608 -0.4109 -0.0590
  807MOL0     C 6453  11.595   1.837   6.798 -0.6626 -0.1732  0.1949
  807MOL0     C 6454  11.693   1.879   6.684 -0.2300  0.1064 -0.1641
  807MOL0     C 6455  11.833   1.877   6.739  0.1083 -0.0270 -0.1862
  807MOL0     C 6456  11.943   1.856   6.793  0.8460 -0.6339  0.0953
  807MOL0     C 6457  11.133   1.755   7.036 -0.8976 -0.0857  1.0233
  807MOL0     C 6458  11.020   1.731   7.126 -1.0345  0.1047  0.2007
  807MOL0     H 6459  10.595   2.065   7.287 -0.7730 -0.6551 -2.5140
  807MOL0     H 6460  10.398   2.055   7.479 -5.4097 -2.6788  1.6611
  807MOL0     H 6461  10.415   1.823   7.702 -1.7005 -0.2581  3.4969
  807MOL0     H 6462  10.358   1.680   7.619  1.8603  1.4651 -2.0333
  807MOL0     H 6463  10.124   1.742   7.698  0.4466 -3.5790 -0.8270
  807MOL0     H 6464  10.189   1.865   7.803  1.4215  0.4524 -0.2783
  807MOL0     H 6465  10.258   1.574   7.814 -0.7173  0.3313 -2.9420
  807MOL0     H 6466  10.137   1.660   7.919 -0.1514  1.2620 -0.5530
  807MOL0     H 6467  10.435   1.729   7.896 -0.8384  0.5237 -1.2700
  807MOL0     H 6468  10.307   1.816   7.990 -0.0010  0.3729  1.8001
  807MOL0     H 6469  10.396   1.526   8.028  0.6899  0.2225  0.7828
  807MOL0     H 6470  10.266   1.613   8.119 -0.4118 -2.2878 -0.9037
  807MOL0     H 6471  10.558   1.697   8.118 -1.3241  1.2408 -0.7608
  807MOL0     H 6472  10.496   1.573   8.223  2.0128  0.0695  0.0847
  807MOL0     H 6473  10.392   1.872   8.201 -1.2925  0.2744 -0.0107
  807MOL0     H 6474  10.311   1.747   8.300  1.0313 -0.0206  0.1061
  807MOL0     H 6475  10.601   1.843   8.323  1.1557  0.0857  0.9710
  807MOL0     H 6476  10.529   1.726   8.431 -2.7822 -0.7634  0.2471
  807MOL0     H 6477  10.482   2.108   8.323  0.8738  0.8617  0.8121
  807MOL0     H 6478  10.421   2.331   8.467 -0.1509 -1.5775 -0.2948
  807MOL0     H 6479  10.448   2.311   8.633  1.8540 -0.1145 -0.7394
  807MOL0     H 6480  10.246   2.403   8.663 -2.8912 -2.9454  3.3712
  807MOL0     H 6481  10.199   2.235   8.646 -2.0556 -0.9260 -1.0064
  807MOL0     H 6482  10.226   2.443   8.401 -1.3495  1.1500 -1.0114
  807MOL0     H 6483  10.170   2.277   8.395  0.2955  1.2919 -0.1716
  807MOL0     H 6484   9.990   2.456   8.395  1.5076 -0.5792 -1.4201
  807MOL0     H 6485  10.057   2.514   8.543  2.0580 -0.9328 -0.5993
  807MOL0     H 6486   9.792   2.193   8.722  1.2906  0.4962  1.8635
  807MOL0     H 6487   9.579   2.275   8.817 -0.1518  0.2007 -1.3055
  807MOL0     H 6488   9.338   2.883   8.759  1.5622 -1.7955  0.2770
  807MOL0     H 6489   9.117   2.977   8.834  2.6160  1.2442 -2.8928
  807MOL0     H 6490   8.893   3.008   8.856  3.2916 -0.7042 -0.6333
  807MOL0     H 6491   8.975   2.987   8.999 -0.1863 -1.9838  3.0706
  807MOL0     H 6492   8.777   3.056   9.099 -0.7073 -0.4097 -0.5056
  807MOL0     H 6493   8.709   2.895   9.072 -0.2911  1.1019  3.3840
  807MOL0     H 6494   8.633   2.956   8.853  0.6035 -0.3753  0.9184
  807MOL0     H 6495   8.681   3.125   8.866  0.3834 -1.3091 -2.0361
  807MOL0     H 6496   8.486   2.961   9.038 -0.4392  0.4423 -1.1502
  807MOL0     H 6497   8.523   3.130   9.078 -2.3424  0.1036  1.6011
  807MOL0     H 6498   8.355   3.065   8.835  2.2058 -1.1861  0.0771
  807MOL0     H 6499   8.421   3.217   8.894 -0.2289 -0.5180 -1.5694
  807MOL0     H 6500   8.295   3.181   9.091  0.0920  1.0371 -2.5937
  807MOL0     H 6501   8.257   3.004   9.058  0.8266 -1.0386 -1.3017
  807MOL0     H 6502   8.158   3.234   8.885 -1.8155  0.1409 -0.5274
  807MOL0     H 6503   8.081   3.070   8.909 -2.4608  0.7275  2.3503
  807MOL0     H 6504   8.078   3.303   9.086  0.8318 -0.9120 -0.8151
  807MOL0     H 6505   8.015   3.150   9.133  1.3955 -1.0131 -1.1728
  807MOL0     H 6506   8.973   2.589   8.899 -1.2460  0.8098 -1.6332
  807MOL0     H 6507   9.206   2.497   8.846  1.7826  0.0073  1.9577
  807MOL0     H 6508   9.635   2.653   8.632  0.8126 -0.2057 -1.7178
  807MOL0     H 6509   9.843   2.572   8.524 -2.1217  3.1363  1.7870
  807MOL0     H 6510  10.348   1.648   7.398  1.7910 -0.4521  1.7161
  807MOL0     H 6511  10.534   1.655   7.223  1.5174 -0.2156  1.5689
  807MOL0     H 6512  10.791   1.898   6.946 -0.5161 -0.6836  1.8078
  807MOL0     H 6513  10.972   1.932   6.802 -2.0244  0.5900  1.6536
  807MOL0     H 6514  11.362   1.720   6.895 -2.6932 -0.9376 -1.1156
  807MOL0     H 6515  11.372   1.874   6.958  4.0116 -3.4747  1.2574
  807MOL0     H 6516  11.423   1.801   6.660  1.8551 -0.8016 -0.3764
  807MOL0     H 6517  11.441   1.967   6.742  1.2822 -0.1637  1.6344
  807MOL0     H 6518  11.605   1.730   6.815 -1.3689 -0.2303  0.2776
  807MOL0     H 6519  11.612   1.898   6.888 -1.3265 -0.1816  0.3342
  807MOL0     H 6520  11.686   1.810   6.599 -0.2036 -1.4501  1.0497
  807MOL0     H 6521  11.670   1.982   6.657 -1.4995 -0.1442 -0.0887
  807MOL0     H 6522  12.032   1.858   6.852  1.8342 -3.0324 -1.1726
  807MOL0     H 6523  11.224   1.698   7.052  0.1079  0.7942 -1.1904
  807MOL0     H 6524  11.031   1.654   7.202 -2.0967 -1.2807 -0.9695
  808MOL0     O 6525   0.696   6.464   8.935 -0.7223 -0.4935  0.1500
  808MOL0     C 6526   0.603   6.394   8.900 -0.2154 -0.7085 -0.5282
  808MOL0     O 6527   0.474   6.411   8.943  0.5853  0.4076  0.2552
  808MOL0     C 6528   0.431   6.504   9.033  0.6436  0.7697  0.2370
  808MOL0     C 6529   0.502   6.606   9.100  0.7405  0.0245 -0.5627
  808MOL0     C 6530   0.448   6.672   9.206  0.4547 -0.2295  0.1969
  808MOL0     C 6531   0.320   6.643   9.252 -0.3860  0.1380  0.6442
  808MOL0     O 6532   0.263   6.711   9.355  0.2297  0.0284  0.1166
  808MOL0     C 6533   0.334   6.795   9.445 -0.4178 -0.0142  0.0245
  808MOL0     C 6534   0.245   6.861   9.562 -0.4808  0.3054  0.1620
  808MOL0     C 6535   0.201   6.755   9.658 -0.0605  0.6655 -0.3932
  808MOL0     C 6536   0.124   6.810   9.772  0.9445 -0.6273  1.1184
  808MOL0     C 6537   0.011   6.714   9.814 -0.3264  0.8388 -0.0706
  808MOL0     C 6538   0.048   6.566   9.863  0.0522  0.8639  0.8483
  808MOL0     C 6539  -0.066   6.520   9.955  0.6778 -0.5601  0.0196
  808MOL0     C 6540  -0.198   6.500   9.889  1.0800  0.0712 -0.2778
  808MOL0     N 6541  -0.311   6.472   9.977 -0.3391  0.3543  0.2585
  808MOL0     C 6542  -0.445   6.476   9.932  0.7224  0.2273 -0.0669
  808MOL0     C 6543  -0.517   6.467  10.047 -0.5499 -0.5674  0.4258
  808MOL0     C 6544  -0.667   6.468  10.051 -0.1119  0.1481  0.1170
  808MOL0     C 6545  -0.728   6.432  10.192 -0.4069 -0.2393  0.4091
  808MOL0     C 6546  -0.778   6.549  10.272  0.6015 -0.3686 -0.3861
  808MOL0     C 6547  -0.848   6.512  10.407 -0.1639  0.3317 -0.4614
  808MOL0     O 6548  -0.969   6.434  10.375  0.2773  0.0748 -0.3370
  808MOL0     C 6549  -1.087   6.455  10.434 -0.0230  0.1923 -0.2595
  808MOL0     C 6550  -1.125   6.566  10.521 -0.0345 -0.4070 -0.0798
  808MOL0     C 6551  -1.248   6.574  10.574 -1.2895  0.3487  0.2017
  808MOL0     C 6552  -1.346   6.482  10.533 -0.8587 -0.1393 -1.1193
  808MOL0     C 6553  -1.487   6.500  10.594  0.1201 -0.5596 -1.0760
  808MOL0     O 6554  -1.575   6.392  10.595  0.3234  0.2595  0.3525
  808MOL0     C 6555  -1.685   6.397  10.675  1.0101 -0.1981  0.3876
  808MOL0     C 6556  -1.811   6.399  10.613 -1.1549  0.0847 -0.3719
  808MOL0     C 6557  -1.926   6.415  10.693  0.1819 -0.0588  0.8031
  808MOL0     C 6558  -1.918   6.416  10.834 -0.3672 -0.1725 -0.1169
  808MOL0     O 6559  -2.044   6.429  10.889  0.4926  0.2380 -0.4343
  808MOL0     C 6560  -2.081   6.328  10.986 -0.2549  0.8636 -0.3801
  808MOL0     C 6561  -2.127   6.413  11.105 -0.3425  0.0926  0.7362
  808MOL0     C 6562  -2.180   6.334  11.219  0.2884 -0.5401  0.1365
  808MOL0     C 6563  -2.316   6.259  11.181 -0.4272 -0.2299 -0.4579
  808MOL0     C 6564  -2.381   6.193  11.300 -0.2554 -0.4124 -1.0825
  808MOL0     C 6565  -2.519   6.155  11.264  0.8839  0.3542 -0.0076
  808MOL0     C 6566  -2.583   6.091  11.388  0.4188  0.7227  0.4397
  808MOL0     C 6567  -2.731   6.061  11.355  0.7588  0.5506 -0.3005
  808MOL0    Cl 6568  -2.806   6.008  11.507  0.4188  0.2227  0.5418
  808MOL0     C 6569  -1.792   6.397  10.897  0.4959  0.0296 -1.0388
  808MOL0     C 6570  -1.679   6.390  10.812 -0.6827 -0.1400 -0.4723
  808MOL0     O 6571  -1.504   6.606  10.673  0.4326  0.0130  0.7394
  808MOL0     C 6572  -1.319   6.373  10.449 -0.7843  0.0807 -1.1307
  808MOL0     C 6573  -1.182   6.366  10.384  1.3951  0.5632 -0.4462
  808MOL0     N 6574  -0.434   6.479  10.154  0.3510 -0.1257 -0.6189
  808MOL0     N 6575  -0.319   6.492  10.114 -1.1352 -0.5342  0.1944
  808MOL0     C 6576   0.250   6.542   9.197  0.0717 -0.3691 -0.0724
  808MOL0     C 6577   0.301   6.473   9.086 -1.0735  0.3686  0.4203
  808MOL0     C 6578   0.632   6.274   8.816 -0.2593  0.5783 -1.2894
  808MOL0     C 6579   0.764   6.243   8.773 -0.4801  0.1338 -0.1241
  808MOL0     C 6580   0.784   6.153   8.671 -0.6960 -0.1940 -0.8314
  808MOL0     C 6581   0.673   6.075   8.622  0.0384  0.1139 -0.6359
  808MOL0     O 6582   0.685   5.979   8.520 -0.4806 -0.6482  0.2236
  808MOL0     C 6583   0.817   5.933   8.482 -0.7485  0.2841  0.4125
  808MOL0     C 6584   0.864   5.838   8.593 -0.3150  0.0300  0.6761
  808MOL0     C 6585   1.025   5.812   8.582  0.0307  0.0475 -0.0750
  808MOL0     C 6586   1.093   5.755   8.704  0.3950 -0.4317 -0.8906
  808MOL0     C 6587   1.235   5.738   8.692  0.2818  0.3086 -0.4123
  808MOL0     C 6588   1.355   5.718   8.690 -0.2671 -0.0441 -0.5546
  808MOL0     C 6589   0.550   6.093   8.681 -0.4456 -0.4048  0.1455
  808MOL0     C 6590   0.531   6.190   8.779 -0.2192 -0.2680 -1.0415
  808MOL0     H 6591   0.610   6.610   9.092  0.8300 -0.9209 -0.0199
  808MOL0     H 6592   0.516   6.739   9.256 -1.4965  0.0030  2.7756
  808MOL0     H 6593   0.375   6.881   9.392  2.2537 -0.3428  1.4006
  808MOL0     H 6594   0.414   6.745   9.501  1.0168  0.1220 -1.8174
  808MOL0     H 6595   0.159   6.903   9.509  0.6278 -0.3721 -2.3168
  808MOL0     H 6596   0.303   6.941   9.608 -0.6862  0.3036  0.4257
  808MOL0     H 6597   0.293   6.711   9.699 -0.2128  0.2941 -0.4412
  808MOL0     H 6598   0.149   6.671   9.611 -0.1558 -0.8520  2.1905
  808MOL0     H 6599   0.197   6.829   9.851  1.1436 -0.6582  0.9434
  808MOL0     H 6600   0.076   6.907   9.753  2.3790 -0.5609 -3.3048
  808MOL0     H 6601  -0.064   6.713   9.734  0.4344  0.2815 -0.7812
  808MOL0     H 6602  -0.038   6.764   9.899 -0.1949  0.7824  0.0382
  808MOL0     H 6603   0.136   6.576   9.927  0.6740 -1.0503  0.3755
  808MOL0     H 6604   0.064   6.495   9.781 -0.4278 -0.5115  1.9002
  808MOL0     H 6605  -0.033   6.426   9.999  1.4957 -0.1841  0.2322
  808MOL0     H 6606  -0.080   6.595  10.033  0.6546 -3.1438  2.6680
  808MOL0     H 6607  -0.198   6.411   9.824 -1.1212 -0.0413 -0.2011
  808MOL0     H 6608  -0.215   6.592   9.832  3.4932  0.8916  0.2021
  808MOL0     H 6609  -0.487   6.479   9.832 -2.7376  0.3128  1.2585
  808MOL0     H 6610  -0.690   6.387   9.981 -0.2396 -0.2786  0.6427
  808MOL0     H 6611  -0.712   6.562  10.015 -2.0011 -0.2600  1.2703
  808MOL0     H 6612  -0.653   6.371  10.243  0.8868 -0.2541 -1.4129
  808MOL0     H 6613  -0.815   6.372  10.163  0.4665 -2.4785  2.1299
  808MOL0     H 6614  -0.687   6.604  10.299 -1.0161  2.4973 -0.3530
  808MOL0     H 6615  -0.836   6.619  10.210 -5.0773  0.3905  4.7285
  808MOL0     H 6616  -0.868   6.604  10.464  1.1401  1.4098 -1.6832
  808MOL0     H 6617  -0.777   6.459  10.470  1.7962  2.0027 -1.1791
  808MOL0     H 6618  -1.051   6.640  10.551 -0.3549  0.4126 -1.2539
  808MOL0     H 6619  -1.261   6.655  10.645 -0.4028  1.5316 -0.9435
  808MOL0     H 6620  -1.823   6.399  10.505  0.1758 -2.3694 -0.6081
  808MOL0     H 6621  -2.020   6.429  10.641 -0.1744  0.7645  1.6564
  808MOL0     H 6622  -2.002   6.269  11.034 -0.8311  1.9942  2.1111
  808MOL0     H 6623  -2.162   6.268  10.944  1.1574 -1.4396 -0.0009
  808MOL0     H 6624  -2.203   6.487  11.078  1.9781  2.4173  0.2444
  808MOL0     H 6625  -2.040   6.463  11.147  0.1863 -1.6912  1.8826
  808MOL0     H 6626  -2.205   6.407  11.297  0.3891 -0.2041 -0.1379
  808MOL0     H 6627  -2.102   6.280  11.273 -0.0097  0.3593  1.5249
  808MOL0     H 6628  -2.384   6.331  11.134 -1.4057  0.6563  2.1426
  808MOL0     H 6629  -2.297   6.174  11.114 -2.9100  0.2509 -1.8846
  808MOL0     H 6630  -2.380   6.266  11.381 -0.4717 -0.7235 -0.7993
  808MOL0     H 6631  -2.316   6.107  11.317  3.0664  2.4316  2.2197
  808MOL0     H 6632  -2.521   6.077  11.186 -0.2406 -0.5514  0.8814
  808MOL0     H 6633  -2.576   6.245  11.243 -0.8647 -0.6781  0.1084
  808MOL0     H 6634  -2.539   5.992  11.405 -0.1614  0.2096 -0.9303
  808MOL0     H 6635  -2.579   6.151  11.479  0.1044  1.7654 -0.2182
  808MOL0     H 6636  -2.739   5.984  11.278 -1.0756  1.3113 -0.9194
  808MOL0     H 6637  -2.774   6.147  11.305  0.8552  0.4654 -0.5328
  808MOL0     H 6638  -1.793   6.380  11.004  0.8727 -3.6486 -1.4845
  808MOL0     H 6639  -1.577   6.380  10.849 -0.9120  0.5818  0.4113
  808MOL0     H 6640  -1.387   6.298  10.412 -3.3128  1.3366  0.7068
  808MOL0     H 6641  -1.163   6.295  10.304  1.2154  1.8104 -1.6474
  808MOL0     H 6642   0.153   6.517   9.239  0.9907 -1.2796  1.6091
  808MOL0     H 6643   0.239   6.396   9.041  0.6464 -1.8168  1.5941
  808MOL0     H 6644   0.853   6.295   8.807  3.9938 -3.8302 -4.2066
  808MOL0     H 6645   0.886   6.141   8.636 -0.1396  2.1887 -0.2152
  808MOL0     H 6646   0.880   6.020   8.466  0.1933 -0.5805 -0.7429
  808MOL0     H 6647   0.806   5.872   8.392 -2.8059 -0.4525  1.1034
  808MOL0     H 6648   0.853   5.888   8.689  2.0183  2.0430  0.0068
  808MOL0     H 6649   0.810   5.743   8.586 -2.4535  1.3380 -3.0191
  808MOL0     H 6650   1.076   5.902   8.547 -1.6954 -0.7991 -5.8940
  808MOL0     H 6651   1.046   5.753   8.492  1.7843  0.2240  0.1897
  808MOL0     H 6652   1.073   5.824   8.787  3.3987  1.0753 -1.3140
  808MOL0     H 6653   1.035   5.663   8.720 -0.2617 -0.0782 -1.1731
  808MOL0     H 6654   1.460   5.710   8.673 -0.4101 -0.7883 -1.1578
  808MOL0     H 6655   0.471   6.031   8.639  1.1102 -2.4176  0.0443
  808MOL0     H 6656   0.426   6.201   8.805  0.1286  0.5478  0.1001
  809MOL0     O 6657  11.049   3.328   8.524  0.0784  0.1481  0.0502
  809MOL0     C 6658  11.111   3.222   8.508 -0.8595 -0.5680  0.4510
  809MOL0     O 6659  11.070   3.097   8.536 -0.2920 -0.2656  0.0965
  809MOL0     C 6660  10.947   3.091   8.595 -0.4553  0.5411  0.0383
  809MOL0     C 6661  10.823   3.146   8.554  0.1634  0.1267  0.7115
  809MOL0     C 6662  10.707   3.126   8.617  0.2591 -0.8389 -0.6535
  809MOL0     C 6663  10.701   3.041   8.726  0.7233  0.5872 -1.4343
  809MOL0     O 6664  10.593   3.029   8.816 -0.5367  0.1059  0.5074
  809MOL0     C 6665  10.472   3.101   8.790  0.2866  0.5724 -0.0053
  809MOL0     C 6666  10.361   3.069   8.893 -0.3616 -0.5950 -0.0508
  809MOL0     C 6667  10.222   3.141   8.873  0.7965 -0.0101 -0.9516
  809MOL0     C 6668  10.107   3.110   8.960  0.7644 -0.1478  0.2879
  809MOL0     C 6669   9.990   3.198   8.914  0.1908 -0.1448 -0.5656
  809MOL0     C 6670   9.857   3.137   8.977  0.3983 -0.0841  0.1090
  809MOL0     C 6671   9.847   3.159   9.130  0.3769  1.3591  0.2190
  809MOL0     C 6672   9.840   3.302   9.164 -0.5653  0.1229  0.5088
  809MOL0     N 6673   9.719   3.382   9.121  0.4530  0.0376  0.6667
  809MOL0     C 6674   9.590   3.383   9.165 -0.1393 -0.1711 -0.0345
  809MOL0     C 6675   9.522   3.460   9.085  0.5280 -0.4664  0.6312
  809MOL0     C 6676   9.376   3.496   9.084 -0.4002  0.0739  0.2227
  809MOL0     C 6677   9.351   3.647   9.097 -0.1072 -0.6421  1.2282
  809MOL0     C 6678   9.201   3.677   9.146 -0.0430 -0.4447 -0.1492
  809MOL0     C 6679   9.100   3.670   9.035 -0.0432 -0.5133  0.5361
  809MOL0     O 6680   9.106   3.781   8.941  0.2359 -0.1679 -0.5032
  809MOL0     C 6681   8.993   3.808   8.874  0.3474  0.0189  0.1040
  809MOL0     C 6682   8.883   3.718   8.863  0.3710 -0.4746  0.4970
  809MOL0     C 6683   8.769   3.747   8.785  0.0339 -0.0373 -0.2674
  809MOL0     C 6684   8.760   3.871   8.724  0.9478 -0.5319  0.5617
  809MOL0     C 6685   8.648   3.912   8.643 -0.2896  0.1428  0.4872
  809MOL0     O 6686   8.630   4.041   8.621 -0.4309  0.2168  0.1128
  809MOL0     C 6687   8.508   4.075   8.578 -0.1561  0.0823 -0.4658
  809MOL0     C 6688   8.425   4.126   8.673 -0.6443 -0.1270 -0.4411
  809MOL0     C 6689   8.291   4.159   8.634 -0.1353 -1.0876  0.2205
  809MOL0     C 6690   8.249   4.160   8.501  0.2594  0.2503 -0.9451
  809MOL0     O 6691   8.116   4.189   8.477  0.1950 -0.2713  0.2953
  809MOL0     C 6692   8.071   4.227   8.342 -0.3606  0.0897  0.0777
  809MOL0     C 6693   7.922   4.197   8.317 -0.5040 -0.0073  0.4028
  809MOL0     C 6694   7.839   4.243   8.442  0.6964 -0.0422 -0.2681
  809MOL0     C 6695   7.687   4.239   8.396 -0.9597 -0.4907  0.3016
  809MOL0     C 6696   7.589   4.277   8.518 -0.2675 -0.2660 -0.0923
  809MOL0     C 6697   7.447   4.286   8.468 -0.1359  0.3274 -0.1960
  809MOL0     C 6698   7.351   4.392   8.535 -0.0210 -0.5632 -0.0446
  809MOL0     C 6699   7.397   4.542   8.505 -0.5029  0.9794  0.4407
  809MOL0    Cl 6700   7.274   4.660   8.546 -0.2015 -0.0781  0.0127
  809MOL0     C 6701   8.342   4.119   8.406 -0.1817 -0.7903 -0.1527
  809MOL0     C 6702   8.478   4.091   8.447  0.3861  0.2815  0.8305
  809MOL0     O 6703   8.567   3.821   8.627  0.1016 -0.1531 -0.3196
  809MOL0     C 6704   8.870   3.965   8.734  0.1492  0.9815  0.9535
  809MOL0     C 6705   8.976   3.930   8.810  0.1737 -0.3281  0.3418
  809MOL0     N 6706   9.607   3.516   8.983 -0.8436  0.4376  0.3402
  809MOL0     N 6707   9.725   3.465   9.017  0.2555  0.8398 -0.1971
  809MOL0     C 6708  10.816   2.990   8.785 -0.2184  0.4567  0.1741
  809MOL0     C 6709  10.934   3.016   8.715 -0.0037  0.4365  0.6570
  809MOL0     C 6710  11.254   3.238   8.474 -0.2452 -0.5445  0.3956
  809MOL0     C 6711  11.336   3.133   8.427  0.5017  0.6863 -0.0585
  809MOL0     C 6712  11.465   3.152   8.381  0.6448 -0.5137  0.2884
  809MOL0     C 6713  11.510   3.276   8.358 -0.3132  0.0729  0.0836
  809MOL0     O 6714  11.632   3.287   8.288  0.7009  0.2454 -0.0765
  809MOL0     C 6715  11.661   3.410   8.236 -1.4668 -0.1474  0.0486
  809MOL0     C 6716  11.781   3.395   8.145 -0.9022 -0.1382  0.5668
  809MOL0     C 6717  11.894   3.347   8.220 -0.2354  0.2258 -0.6614
  809MOL0     C 6718  12.025   3.354   8.146  0.0987  0.2859 -0.3676
  809MOL0     C 6719  12.070   3.496   8.138 -0.6518 -0.0563 -0.6673
  809MOL0     C 6720  12.117   3.607   8.116  0.3823  0.7902 -0.2908
  809MOL0     C 6721  11.439   3.387   8.407  0.1843  0.8341  0.4065
  809MOL0     C 6722  11.315   3.365   8.461 -0.2598 -0.5253  0.3223
  809MOL0     H 6723  10.827   3.192   8.456  1.7642  2.6047  1.8219
  809MOL0     H 6724  10.621   3.181   8.581  0.6653 -1.2529 -2.3652
  809MOL0     H 6725  10.429   3.057   8.700  0.0713  1.4547 -0.3443
  809MOL0     H 6726  10.490   3.208   8.776 -0.9503  0.5350 -2.3694
  809MOL0     H 6727  10.399   3.092   8.993  2.8109 -1.2874 -0.9978
  809MOL0     H 6728  10.340   2.962   8.895 -1.4545 -0.4078  3.0062
  809MOL0     H 6729  10.192   3.113   8.772  0.3223 -1.7054 -0.3633
  809MOL0     H 6730  10.243   3.249   8.877 -0.3953  0.2010  0.3886
  809MOL0     H 6731  10.083   3.003   8.960  0.5888 -0.1202 -1.1939
  809MOL0     H 6732  10.131   3.150   9.060  0.5898 -0.2850  0.3856
  809MOL0     H 6733   9.999   3.197   8.805  0.4527 -0.1958 -0.5440
  809MOL0     H 6734  10.010   3.303   8.940 -2.6045  1.1268 -3.0442
  809MOL0     H 6735   9.842   3.031   8.954  0.0863  0.2630 -1.4084
  809MOL0     H 6736   9.777   3.200   8.935  3.3942  3.4013 -0.9403
  809MOL0     H 6737   9.750   3.127   9.170  1.1819 -1.7060  0.0026
  809MOL0     H 6738   9.927   3.109   9.186  1.3167  1.7578 -0.7351
  809MOL0     H 6739   9.930   3.357   9.134  1.8442 -1.6738  3.7586
  809MOL0     H 6740   9.834   3.300   9.274 -0.5881 -0.1503  0.5029
  809MOL0     H 6741   9.548   3.337   9.254  1.0021 -0.8131  0.1790
  809MOL0     H 6742   9.328   3.441   9.165 -1.4650 -0.0256 -0.4526
  809MOL0     H 6743   9.329   3.446   8.998  0.3703 -2.2896  1.0932
  809MOL0     H 6744   9.378   3.702   9.007  1.6052  0.6709  2.4775
  809MOL0     H 6745   9.417   3.697   9.169 -1.2418  0.5704  1.4700
  809MOL0     H 6746   9.175   3.612   9.230 -0.5194  0.3656  0.3365
  809MOL0     H 6747   9.192   3.776   9.193  1.0043 -1.9973  3.7252
  809MOL0     H 6748   9.002   3.678   9.084  0.5219  3.0674  1.3029
  809MOL0     H 6749   9.104   3.576   8.978 -2.8017  0.6900 -1.9081
  809MOL0     H 6750   8.900   3.627   8.919  0.9138 -0.9294 -0.3824
  809MOL0     H 6751   8.693   3.670   8.784  1.8393 -1.9106  0.3126
  809MOL0     H 6752   8.475   4.140   8.767  0.0371 -4.1406 -0.0105
  809MOL0     H 6753   8.215   4.171   8.711  0.0362  1.9823  0.0180
  809MOL0     H 6754   8.125   4.177   8.261 -1.2240  1.1992 -1.2315
  809MOL0     H 6755   8.090   4.335   8.342  0.9536 -0.1251  0.6185
  809MOL0     H 6756   7.925   4.089   8.300 -0.5142  0.1155 -0.4452
  809MOL0     H 6757   7.890   4.240   8.221  1.2964  2.3874  0.7870
  809MOL0     H 6758   7.867   4.342   8.479 -0.8811  0.1834  0.3738
  809MOL0     H 6759   7.848   4.167   8.520 -0.3331 -1.1354 -1.1896
  809MOL0     H 6760   7.694   4.322   8.324  2.2317  1.7630  2.9111
  809MOL0     H 6761   7.660   4.142   8.352  0.7075 -1.8878  2.2149
  809MOL0     H 6762   7.616   4.375   8.558 -0.8047  0.5758 -1.7137
  809MOL0     H 6763   7.593   4.194   8.589  1.2409  0.8172  1.1613
  809MOL0     H 6764   7.407   4.184   8.471  2.4755 -0.7576  0.0938
  809MOL0     H 6765   7.450   4.297   8.359 -2.0805  0.2726 -0.2941
  809MOL0     H 6766   7.253   4.389   8.486 -0.5177  2.3396  0.6019
  809MOL0     H 6767   7.338   4.367   8.641 -0.7153 -2.3462 -0.5078
  809MOL0     H 6768   7.416   4.552   8.398  2.2630  0.9030  0.8319
  809MOL0     H 6769   7.491   4.561   8.559 -1.6376  1.7743  2.2300
  809MOL0     H 6770   8.330   4.122   8.298  2.5898 -0.8876 -0.5300
  809MOL0     H 6771   8.555   4.049   8.382 -0.0006 -1.6127  1.5150
  809MOL0     H 6772   8.870   4.060   8.683  1.6135  1.1234  1.1893
  809MOL0     H 6773   9.059   4.001   8.809 -0.1936  0.1098  0.5758
  809MOL0     H 6774  10.809   2.941   8.881 -1.6218  3.7886  1.9270
  809MOL0     H 6775  11.027   2.975   8.753  1.8280  2.6089 -1.1773
  809MOL0     H 6776  11.303   3.030   8.437 -1.7198  1.2330 -1.1035
  809MOL0     H 6777  11.531   3.078   8.336  1.6639  0.0148  0.8773
  809MOL0     H 6778  11.690   3.475   8.319  0.3260 -1.5393  0.5819
  809MOL0     H 6779  11.582   3.453   8.175 -2.5311 -2.2379 -0.1320
  809MOL0     H 6780  11.753   3.336   8.057  0.4185  1.2175 -0.8231
  809MOL0     H 6781  11.804   3.492   8.100  2.0031 -1.4254 -1.0124
  809MOL0     H 6782  11.890   3.240   8.245 -2.1802  0.6367  1.0295
  809MOL0     H 6783  11.897   3.400   8.316  0.1556 -0.3341 -0.3580
  809MOL0     H 6784  12.102   3.288   8.188 -0.2289  0.2328  0.1577
  809MOL0     H 6785  12.012   3.318   8.044 -0.2409  1.1040 -0.6140
  809MOL0     H 6786  12.158   3.706   8.110  2.4619  0.0751  1.1399
  809MOL0     H 6787  11.466   3.489   8.380 -2.8465  1.5558 -0.2685
  809MOL0     H 6788  11.255   3.455   8.470  0.1115 -0.0303 -1.7129
  810MOL0     O 6789   6.531  11.232   8.470  0.2459  0.3656 -0.2161
  810MOL0     C 6790   6.588  11.170   8.374  0.0359 -0.3044 -0.0752
  810MOL0     O 6791   6.527  11.116   8.265  0.5500 -0.0677  0.4198
  810MOL0     C 6792   6.387  11.120   8.254 -0.1055  0.0624  0.0126
  810MOL0     C 6793   6.302  11.081   8.356  0.9379 -1.0483 -0.1441
  810MOL0     C 6794   6.167  11.100   8.340  0.2111 -0.5146  0.8705
  810MOL0     C 6795   6.107  11.155   8.224  0.3114 -0.3533  0.7215
  810MOL0     O 6796   5.969  11.173   8.215  0.0455 -0.0503 -0.0014
  810MOL0     C 6797   5.900  11.048   8.210 -0.1353 -1.2784  0.3374
  810MOL0     C 6798   5.745  11.063   8.226  1.4801 -0.5804 -0.5858
  810MOL0     C 6799   5.707  11.085   8.374 -0.6045 -0.3415  0.0177
  810MOL0     C 6800   5.564  11.137   8.390  0.5373  0.0255  0.1329
  810MOL0     C 6801   5.452  11.028   8.405 -0.3349  0.4462 -0.5122
  810MOL0     C 6802   5.322  11.089   8.436 -0.0325  0.1404  0.9741
  810MOL0     C 6803   5.272  11.199   8.340  0.7792  0.1333 -0.1959
  810MOL0     C 6804   5.290  11.161   8.194 -0.9811 -0.2348 -0.2929
  810MOL0     N 6805   5.194  11.233   8.111 -1.2062  0.5031 -0.3116
  810MOL0     C 6806   5.149  11.359   8.146  0.4221 -0.0806  0.0505
  810MOL0     C 6807   5.074  11.405   8.045 -0.4740  1.0381  0.0219
  810MOL0     C 6808   5.001  11.535   8.042 -0.3617 -0.2671 -0.3114
  810MOL0     C 6809   4.939  11.589   8.167 -1.1741  0.7361  0.0350
  810MOL0     C 6810   4.837  11.492   8.219  0.5172 -0.5898 -0.9477
  810MOL0     C 6811   4.749  11.563   8.313  1.0662  0.5655 -0.3998
  810MOL0     O 6812   4.644  11.477   8.367 -0.1650 -0.2753 -0.1849
  810MOL0     C 6813   4.542  11.430   8.289 -1.4539 -0.1390  0.3743
  810MOL0     C 6814   4.521  11.467   8.156  0.2365 -0.0417  0.4402
  810MOL0     C 6815   4.398  11.430   8.079 -0.0675  0.3729 -0.5550
  810MOL0     C 6816   4.300  11.353   8.144  0.0991  0.8654  0.5668
  810MOL0     C 6817   4.178  11.296   8.070 -0.1091 -0.1339  0.0117
  810MOL0     O 6818   4.201  11.272   7.938  0.5197 -0.7507 -0.6902
  810MOL0     C 6819   4.117  11.195   7.865 -0.2671  0.3440  0.5673
  810MOL0     C 6820   4.186  11.113   7.772  0.9529 -0.7281 -0.1096
  810MOL0     C 6821   4.104  11.035   7.689 -0.3006  0.0129  0.6517
  810MOL0     C 6822   3.964  11.027   7.706  0.0732  0.3354  0.5392
  810MOL0     O 6823   3.896  10.943   7.623 -0.3690  0.0348  0.4345
  810MOL0     C 6824   3.758  10.923   7.660  0.2475 -0.0985  0.3498
  810MOL0     C 6825   3.711  10.796   7.581  1.3223  0.2878  0.8807
  810MOL0     C 6826   3.558  10.804   7.557  0.0726 -0.0167  0.4832
  810MOL0     C 6827   3.494  10.682   7.497  0.6668 -0.3425 -0.9443
  810MOL0     C 6828   3.547  10.642   7.355  0.1601  1.3866 -0.0372
  810MOL0     C 6829   3.451  10.680   7.237  0.6109 -0.2975  0.4665
  810MOL0     C 6830   3.321  10.605   7.248 -0.8783  0.2546  0.5124
  810MOL0     C 6831   3.264  10.580   7.109 -0.5438 -0.7767  0.8656
  810MOL0    Cl 6832   3.130  10.477   7.141 -0.2349  0.2272 -0.2174
  810MOL0     C 6833   3.909  11.106   7.809  0.0861 -0.3054 -0.7213
  810MOL0     C 6834   3.977  11.205   7.883  0.6309  0.1833  0.5871
  810MOL0     O 6835   4.080  11.265   8.137 -0.1930 -0.1731  0.3288
  810MOL0     C 6836   4.317  11.325   8.286  0.0308 -0.2887 -0.1503
  810MOL0     C 6837   4.439  11.353   8.349  0.3365  0.0702  0.1679
  810MOL0     N 6838   5.055  11.298   7.962 -0.4154 -0.5275 -0.1592
  810MOL0     N 6839   5.123  11.194   8.005 -0.1206  0.3283  0.8970
  810MOL0     C 6840   6.192  11.189   8.117 -0.0562  1.1278  0.2315
  810MOL0     C 6841   6.329  11.167   8.131  0.1522 -0.4514  0.0422
  810MOL0     C 6842   6.731  11.153   8.370 -0.3360  0.3280  0.1593
  810MOL0     C 6843   6.802  11.072   8.280  0.2223  0.0853 -0.1923
  810MOL0     C 6844   6.942  11.077   8.255 -0.0987 -0.4529 -0.4373
  810MOL0     C 6845   7.024  11.158   8.329  0.0715  0.7310 -1.0931
  810MOL0     O 6846   7.150  11.180   8.297  0.1561  0.1726  0.2257
  810MOL0     C 6847   7.257  11.136   8.386 -1.0963  0.1665 -0.1925
  810MOL0     C 6848   7.395  11.207   8.343  0.4567  0.6800 -0.3910
  810MOL0     C 6849   7.498  11.210   8.462 -0.1732 -0.0789 -0.2709
  810MOL0     C 6850   7.605  11.317   8.469 -0.1954  0.6906  0.2465
  810MOL0     C 6851   7.739  11.273   8.500 -0.1942  0.8623 -0.3768
  810MOL0     C 6852   7.848  11.233   8.543 -0.0427 -0.0798 -0.0742
  810MOL0     C 6853   6.953  11.242   8.422  0.2097  0.3796 -0.6036
  810MOL0     C 6854   6.813  11.240   8.443  0.7934 -0.1180  0.0041
  810MOL0     H 6855   6.346  11.023   8.436  1.1559 -2.0636 -0.9754
  810MOL0     H 6856   6.103  11.075   8.423 -3.2181  0.7195 -1.1823
  810MOL0     H 6857   5.941  10.993   8.295  0.8877  0.8268  1.2874
  810MOL0     H 6858   5.926  10.992   8.120 -2.3486  1.0048 -1.9037
  810MOL0     H 6859   5.698  10.977   8.177  0.8618 -0.5567 -0.0408
  810MOL0     H 6860   5.710  11.152   8.173  2.5344 -0.2285 -0.7221
  810MOL0     H 6861   5.769  11.164   8.419 -1.3528  0.3256 -0.0907
  810MOL0     H 6862   5.712  10.987   8.422  0.2899 -3.7768 -6.0010
  810MOL0     H 6863   5.561  11.205   8.475 -0.3911 -1.5512  1.4243
  810MOL0     H 6864   5.541  11.197   8.302  1.5308  1.8332  1.0615
  810MOL0     H 6865   5.488  10.955   8.477  0.6968 -1.4213 -2.7872
  810MOL0     H 6866   5.436  10.982   8.307  1.4652 -0.5780 -0.3475
  810MOL0     H 6867   5.319  11.125   8.540 -1.9738  2.1940  0.2818
  810MOL0     H 6868   5.248  11.012   8.414 -1.5193  1.9539 -0.7127
  810MOL0     H 6869   5.165  11.206   8.363  1.2398 -0.2343  2.4472
  810MOL0     H 6870   5.332  11.289   8.357  1.6041 -0.3851 -0.2703
  810MOL0     H 6871   5.277  11.054   8.175 -1.1080 -0.3052  0.1899
  810MOL0     H 6872   5.393  11.187   8.166 -0.8199 -1.6705 -1.1298
  810MOL0     H 6873   5.175  11.410   8.238  1.5557 -2.0181  0.8591
  810MOL0     H 6874   4.916  11.537   7.972  1.6089 -0.4418 -2.8476
  810MOL0     H 6875   5.071  11.613   8.010  1.4118 -0.1845  3.3301
  810MOL0     H 6876   4.886  11.675   8.125  1.4390  2.4696  0.0106
  810MOL0     H 6877   5.016  11.626   8.236  0.8036 -0.2855 -1.5174
  810MOL0     H 6878   4.777  11.457   8.134  1.7475 -1.1247 -1.6292
  810MOL0     H 6879   4.881  11.405   8.268 -1.2131  0.1215  2.1352
  810MOL0     H 6880   4.697  11.644   8.261 -0.0483  0.1026 -0.0168
  810MOL0     H 6881   4.806  11.603   8.398  0.7686  0.9769 -0.3882
  810MOL0     H 6882   4.585  11.538   8.105  1.7625  0.1380  2.5031
  810MOL0     H 6883   4.382  11.461   7.977 -1.4562 -1.0936 -0.8243
  810MOL0     H 6884   4.292  11.127   7.755  1.3560 -2.3661  0.8709
  810MOL0     H 6885   4.158  10.982   7.611  0.4011  0.5792  0.7315
  810MOL0     H 6886   3.698  11.011   7.637 -1.0122 -0.3722  2.3255
  810MOL0     H 6887   3.739  10.893   7.764 -2.3922 -1.0367 -0.3105
  810MOL0     H 6888   3.738  10.707   7.638 -0.0798  1.2633  3.2277
  810MOL0     H 6889   3.766  10.784   7.488  0.9609 -4.7056  1.0270
  810MOL0     H 6890   3.528  10.884   7.488 -2.5115 -0.9947  0.3387
  810MOL0     H 6891   3.513  10.828   7.654 -0.8884 -0.7638  0.2471
  810MOL0     H 6892   3.525  10.603   7.566 -2.3457 -1.9393 -1.2403
  810MOL0     H 6893   3.385  10.680   7.503  0.7157  0.1938  0.7741
  810MOL0     H 6894   3.551  10.533   7.351  0.2869  1.4152 -1.0788
  810MOL0     H 6895   3.643  10.685   7.324 -0.8025  3.5624 -0.1901
  810MOL0     H 6896   3.503  10.653   7.145  0.5061 -0.3441  0.4218
  810MOL0     H 6897   3.429  10.787   7.236  2.2856  0.1575  2.5327
  810MOL0     H 6898   3.335  10.510   7.302 -0.2902  0.0591  0.0332
  810MOL0     H 6899   3.245  10.663   7.299 -1.0286 -0.9105  1.6619
  810MOL0     H 6900   3.336  10.524   7.049  1.0153 -0.1225  2.0591
  810MOL0     H 6901   3.227  10.667   7.052  1.9971 -0.5729 -0.6150
  810MOL0     H 6902   3.801  11.109   7.814 -0.1225  0.4959 -3.6165
  810MOL0     H 6903   3.920  11.265   7.953  1.1428  0.1674  1.0273
  810MOL0     H 6904   4.234  11.289   8.346 -0.0819  0.2719  0.0369
  810MOL0     H 6905   4.456  11.336   8.454 -0.8395 -0.7633  0.2446
  810MOL0     H 6906   6.160  11.225   8.020  0.9907  0.4816 -0.3716
  810MOL0     H 6907   6.394  11.194   8.048  0.1676 -0.6312 -0.0058
  810MOL0     H 6908   6.753  11.012   8.204  2.1413 -1.2758 -0.4276
  810MOL0     H 6909   6.986  11.010   8.182 -2.2013 -2.4437  0.0475
  810MOL0     H 6910   7.281  11.029   8.386  0.5236  0.5007 -0.2514
  810MOL0     H 6911   7.221  11.161   8.486 -0.5336  0.4731 -0.0637
  810MOL0     H 6912   7.447  11.157   8.261 -1.1599  0.5266 -1.3623
  810MOL0     H 6913   7.378  11.307   8.303  2.8962  1.7615  1.0345
  810MOL0     H 6914   7.560  11.120   8.464 -0.7320 -0.4660  1.9701
  810MOL0     H 6915   7.445  11.210   8.558 -0.2790  3.8367 -0.1867
  810MOL0     H 6916   7.606  11.377   8.377  0.6420 -2.2178 -1.7994
  810MOL0     H 6917   7.560  11.374   8.550  0.6157 -0.1121  1.2841
  810MOL0     H 6918   7.946  11.195   8.564  0.7630  2.5408  1.2222
  810MOL0     H 6919   7.009  11.310   8.485  0.8067 -1.1833  0.6191
  810MOL0     H 6920   6.760  11.305   8.511  0.6119 -0.4975  0.2319
  811MOL0     O 6921   2.998   2.007   2.199  0.2626 -0.0819 -0.5751
  811MOL0     C 6922   3.028   1.993   2.085 -0.4820 -0.5193  0.9645
  811MOL0     O 6923   2.945   1.990   1.985 -0.2767  0.1815  0.2704
  811MOL0     C 6924   2.814   2.008   1.996  0.9975  1.4254 -0.3409
  811MOL0     C 6925   2.751   2.116   2.059 -0.0281 -0.4298  0.0963
  811MOL0     C 6926   2.612   2.130   2.080  0.0025 -0.3459  0.5639
  811MOL0     C 6927   2.526   2.032   2.026 -0.6367 -0.1896 -0.4916
  811MOL0     O 6928   2.395   2.034   2.074 -0.0140 -0.7373  0.1728
  811MOL0     C 6929   2.325   1.914   2.055 -0.6554  0.0773  0.0494
  811MOL0     C 6930   2.188   1.921   2.124 -0.1440 -0.6809  0.5755
  811MOL0     C 6931   2.200   1.888   2.278  0.0563 -0.6408 -0.0837
  811MOL0     C 6932   2.058   1.907   2.347  0.3795 -0.2185  0.3033
  811MOL0     C 6933   2.073   1.889   2.500  0.6839 -0.5011  0.2130
  811MOL0     C 6934   1.948   1.900   2.577 -0.2074  0.4221 -0.2417
  811MOL0     C 6935   1.901   2.045   2.581  0.6991  0.4126  0.4775
  811MOL0     C 6936   1.781   2.067   2.673 -0.2649 -0.2814  0.2941
  811MOL0     N 6937   1.703   2.193   2.628 -0.7537 -0.3677  0.4247
  811MOL0     C 6938   1.713   2.315   2.672 -0.0280 -0.4757  0.0050
  811MOL0     C 6939   1.614   2.393   2.612 -0.1594  0.4167 -0.4805
  811MOL0     C 6940   1.564   2.526   2.642  0.0002  0.6075 -0.2474
  811MOL0     C 6941   1.449   2.539   2.755  0.5819 -0.1473 -0.7846
  811MOL0     C 6942   1.450   2.679   2.822  0.3771 -0.5813  0.0036
  811MOL0     C 6943   1.421   2.788   2.714 -1.0036 -0.0797  0.9474
  811MOL0     O 6944   1.279   2.793   2.683  0.1268 -0.1067 -0.5834
  811MOL0     C 6945   1.235   2.916   2.629  0.2363  0.1651 -0.4584
  811MOL0     C 6946   1.325   3.002   2.552 -0.0088  0.2729 -1.3596
  811MOL0     C 6947   1.278   3.128   2.508 -0.4769  0.0813 -0.3213
  811MOL0     C 6948   1.141   3.160   2.513  0.2426  0.9065  0.1547
  811MOL0     C 6949   1.105   3.297   2.471 -0.2209  0.4463  0.0784
  811MOL0     O 6950   0.970   3.319   2.446  1.0760  0.1333  0.3025
  811MOL0     C 6951   0.912   3.440   2.412 -0.1149  0.4631 -0.0514
  811MOL0     C 6952   0.945   3.553   2.473 -0.3561  0.3001 -0.3253
  811MOL0     C 6953   0.892   3.666   2.426 -0.4357 -0.9377  0.0410
  811MOL0     C 6954   0.796   3.670   2.324 -0.0342  0.8233 -0.3448
  811MOL0     O 6955   0.734   3.777   2.273 -0.3556 -0.5779 -0.2895
  811MOL0     C 6956   0.741   3.908   2.340  0.1630 -0.1514 -0.3022
  811MOL0     C 6957   0.654   3.883   2.468  0.2791  0.5280  0.1571
  811MOL0     C 6958   0.592   4.012   2.531 -0.1941 -0.2450  0.6739
  811MOL0     C 6959   0.709   4.095   2.571 -0.7051  0.4923  0.5770
  811MOL0     C 6960   0.682   4.194   2.686  0.3006 -0.9713  0.7755
  811MOL0     C 6961   0.819   4.260   2.734  0.5122  0.0327 -0.5970
  811MOL0     C 6962   0.792   4.365   2.848 -0.2856 -0.4342  0.1677
  811MOL0     C 6963   0.916   4.408   2.926 -0.8589  0.2483  0.1664
  811MOL0    Cl 6964   1.015   4.491   2.805 -0.3202 -0.2875 -0.0702
  811MOL0     C 6965   0.760   3.544   2.263  0.0395 -0.9327  0.4229
  811MOL0     C 6966   0.816   3.431   2.315 -0.5418  0.2586  0.0799
  811MOL0     O 6967   1.187   3.382   2.462  0.1741 -0.5370  0.8149
  811MOL0     C 6968   1.057   3.066   2.569  0.7995  0.1264  0.1212
  811MOL0     C 6969   1.107   2.961   2.643  1.3623  0.2562 -1.1179
  811MOL0     N 6970   1.564   2.322   2.513 -0.6297  0.0035  0.2731
  811MOL0     N 6971   1.607   2.201   2.531  0.0392  0.4931 -0.0893
  811MOL0     C 6972   2.596   1.929   1.943  0.3434 -0.0474 -0.0465
  811MOL0     C 6973   2.730   1.909   1.941  1.3327  0.2436 -0.1864
  811MOL0     C 6974   3.177   1.995   2.045 -0.3527 -0.3537  0.3268
  811MOL0     C 6975   3.222   1.950   1.919  0.4625  0.1723 -0.6828
  811MOL0     C 6976   3.357   1.922   1.895  0.2745  0.9478 -0.1147
  811MOL0     C 6977   3.447   1.931   1.996  0.0988 -0.2710  1.0104
  811MOL0     O 6978   3.579   1.893   1.969 -0.1102  0.4667 -0.2642
  811MOL0     C 6979   3.683   1.988   2.001  0.1686 -0.4794 -0.9053
  811MOL0     C 6980   3.803   1.964   1.910 -0.5578 -0.0318 -0.1187
  811MOL0     C 6981   3.836   1.817   1.925 -0.6250  0.0005 -0.2565
  811MOL0     C 6982   3.980   1.794   1.887 -0.5073 -0.1380  0.0558
  811MOL0     C 6983   4.007   1.845   1.745  0.5886 -0.6304 -0.6087
  811MOL0     C 6984   4.053   1.891   1.643 -0.7357 -0.6252 -0.5121
  811MOL0     C 6985   3.406   1.977   2.122 -0.1310  0.2364  0.7223
  811MOL0     C 6986   3.272   2.011   2.146 -0.1481 -0.2872 -1.0417
  811MOL0     H 6987   2.827   2.187   2.091 -0.4925  0.0947  0.0463
  811MOL0     H 6988   2.584   2.213   2.145 -0.6014  0.3942 -0.5991
  811MOL0     H 6989   2.385   1.832   2.096 -1.7896 -0.6976  0.1910
  811MOL0     H 6990   2.313   1.900   1.947 -0.6810 -1.1586  0.2006
  811MOL0     H 6991   2.119   1.852   2.075 -2.3474  1.4245  0.5669
  811MOL0     H 6992   2.153   2.023   2.110  1.6687 -0.0532  0.3185
  811MOL0     H 6993   2.263   1.961   2.330 -1.9597  3.0297 -2.3870
  811MOL0     H 6994   2.246   1.789   2.287 -0.2561 -0.9093 -1.2962
  811MOL0     H 6995   2.023   2.008   2.325 -1.2229 -0.9897 -0.9263
  811MOL0     H 6996   1.974   1.848   2.309 -1.6385  1.0870  2.5011
  811MOL0     H 6997   2.152   1.956   2.536 -0.4452  1.5007 -0.8600
  811MOL0     H 6998   2.107   1.786   2.512  1.8851 -0.1601 -0.1700
  811MOL0     H 6999   1.971   1.869   2.680 -0.5967 -0.2665 -0.3540
  811MOL0     H 7000   1.861   1.839   2.549  0.6689 -1.5169  0.9749
  811MOL0     H 7001   1.973   2.120   2.614 -0.8109  1.7037  1.0219
  811MOL0     H 7002   1.872   2.076   2.480  3.9878  1.5660 -0.2271
  811MOL0     H 7003   1.816   2.078   2.776 -0.9673 -1.4278  0.6687
  811MOL0     H 7004   1.720   1.977   2.664 -0.0883 -0.3900  0.2026
  811MOL0     H 7005   1.780   2.336   2.755 -2.3931  3.8181  1.1262
  811MOL0     H 7006   1.524   2.552   2.543 -1.0812 -2.7351 -0.8165
  811MOL0     H 7007   1.645   2.588   2.681  1.1087  1.2680 -3.3220
  811MOL0     H 7008   1.480   2.463   2.827 -0.4497 -0.9264 -1.1358
  811MOL0     H 7009   1.349   2.526   2.712  1.5653  1.9980 -4.1065
  811MOL0     H 7010   1.366   2.690   2.892  0.8860 -1.1760  0.7105
  811MOL0     H 7011   1.544   2.705   2.870 -0.6332  3.0814  0.3267
  811MOL0     H 7012   1.476   2.770   2.621 -1.7539 -0.7604  0.6198
  811MOL0     H 7013   1.467   2.879   2.755  0.2330  0.2959 -1.1270
  811MOL0     H 7014   1.430   2.974   2.552 -0.0086 -1.2512  5.1727
  811MOL0     H 7015   1.351   3.195   2.463  1.5726 -1.4486  0.5402
  811MOL0     H 7016   1.023   3.552   2.549 -1.1980 -2.7342  0.6433
  811MOL0     H 7017   0.929   3.752   2.482 -0.7595  0.6091 -1.9888
  811MOL0     H 7018   0.699   3.987   2.276  1.4691  1.0329  0.2470
  811MOL0     H 7019   0.839   3.948   2.368  0.7567 -1.3421 -0.6211
  811MOL0     H 7020   0.722   3.833   2.537 -1.9767 -2.1010  0.6629
  811MOL0     H 7021   0.575   3.809   2.446 -0.4833  0.8617  1.6661
  811MOL0     H 7022   0.530   3.992   2.619 -0.9981 -1.4111 -0.1326
  811MOL0     H 7023   0.528   4.065   2.460  0.0066 -0.8679  0.0214
  811MOL0     H 7024   0.794   4.033   2.603  0.0032  1.8711  1.4659
  811MOL0     H 7025   0.756   4.149   2.489 -0.0843  0.3417  0.8282
  811MOL0     H 7026   0.628   4.139   2.763 -0.7488 -2.4190 -0.9082
  811MOL0     H 7027   0.621   4.276   2.646 -0.6421 -2.0488 -0.0793
  811MOL0     H 7028   0.878   4.303   2.652 -0.8435  0.7854 -1.1950
  811MOL0     H 7029   0.890   4.186   2.774 -0.5471 -1.8149 -1.9864
  811MOL0     H 7030   0.767   4.458   2.796  1.3880 -0.3860 -0.6232
  811MOL0     H 7031   0.719   4.332   2.922  2.0559 -1.7190  2.0161
  811MOL0     H 7032   0.972   4.322   2.964  0.4250  0.5342 -0.9676
  811MOL0     H 7033   0.909   4.486   3.002  0.6219  2.1067 -1.4935
  811MOL0     H 7034   0.691   3.545   2.180 -0.0883 -1.9383  0.5139
  811MOL0     H 7035   0.783   3.331   2.287 -3.4470  0.0602  3.4484
  811MOL0     H 7036   0.952   3.091   2.571  0.4044 -1.2137 -1.5415
  811MOL0     H 7037   1.032   2.896   2.687 -1.5904  1.9510 -3.2907
  811MOL0     H 7038   2.530   1.858   1.893 -1.3587  3.1767 -2.8416
  811MOL0     H 7039   2.778   1.827   1.889  1.7563  1.2761 -1.4679
  811MOL0     H 7040   3.160   1.934   1.831  0.2436 -1.5058 -0.2546
  811MOL0     H 7041   3.395   1.880   1.802  1.9915  0.1555  0.8740
  811MOL0     H 7042   3.709   1.993   2.107 -1.8676 -3.2267 -0.1605
  811MOL0     H 7043   3.656   2.089   1.968  0.7692 -1.9303 -7.1706
  811MOL0     H 7044   3.778   1.999   1.809  1.8845 -0.7766 -1.0337
  811MOL0     H 7045   3.885   2.029   1.941  0.4985 -2.0352  1.5424
  811MOL0     H 7046   3.775   1.755   1.859 -1.1162  4.1147 -4.1718
  811MOL0     H 7047   3.821   1.775   2.025  2.8064 -3.6212 -1.0109
  811MOL0     H 7048   4.048   1.842   1.958  0.5423 -1.9326  0.3305
  811MOL0     H 7049   4.004   1.687   1.896 -0.1684 -0.3573 -2.5127
  811MOL0     H 7050   4.098   1.940   1.559  1.3278  0.2586  1.0216
  811MOL0     H 7051   3.477   1.979   2.204  1.1940 -0.9495 -0.3345
  811MOL0     H 7052   3.243   2.043   2.245 -2.6066 -0.1671 -1.7464
  812MOL0     O 7053   0.270   9.290   3.057 -0.2614  0.5269 -0.4295
  812MOL0     C 7054   0.220   9.186   3.092 -0.1399 -1.0457 -0.3241
  812MOL0     O 7055   0.291   9.076   3.138 -0.0003 -0.9108 -0.8117
  812MOL0     C 7056   0.423   9.096   3.146 -0.3054 -0.0804 -0.4315
  812MOL0     C 7057   0.471   9.113   3.274 -0.1990 -0.2221 -0.3774
  812MOL0     C 7058   0.610   9.117   3.292 -0.5995  0.8264  0.0766
  812MOL0     C 7059   0.700   9.105   3.188  0.4213 -0.5027 -1.2767
  812MOL0     O 7060   0.831   9.114   3.229 -0.0400  0.6362  0.2095
  812MOL0     C 7061   0.920   9.187   3.141  0.1511 -0.1228 -0.1015
  812MOL0     C 7062   1.053   9.113   3.130  0.4530  0.3596  0.5373
  812MOL0     C 7063   1.147   9.195   3.043  0.1235  0.2877 -0.5057
  812MOL0     C 7064   1.290   9.136   3.035 -0.4032  0.1144  0.2886
  812MOL0     C 7065   1.353   9.192   2.913  0.3120  0.5139 -0.2888
  812MOL0     C 7066   1.485   9.118   2.869 -0.1729  1.3622 -0.8812
  812MOL0     C 7067   1.596   9.112   2.971  0.2844  0.0649 -1.1124
  812MOL0     C 7068   1.721   9.052   2.912  0.2642  0.3011  1.0059
  812MOL0     N 7069   1.827   9.041   3.017  0.7792  0.0937  0.1944
  812MOL0     C 7070   1.838   8.938   3.107 -0.2555  0.1838  0.6166
  812MOL0     C 7071   1.946   8.982   3.180  0.2409  0.0921  0.4697
  812MOL0     C 7072   1.993   8.919   3.311  0.7342 -0.3183  0.5142
  812MOL0     C 7073   2.018   8.766   3.306 -1.1918  0.2995 -0.1454
  812MOL0     C 7074   2.024   8.701   3.443 -0.1429  0.1790  0.3816
  812MOL0     C 7075   1.895   8.626   3.486 -0.3166 -0.5732  0.2818
  812MOL0     O 7076   1.875   8.502   3.426  0.4037  0.3424 -0.1697
  812MOL0     C 7077   1.748   8.443   3.427 -0.1466 -0.0716 -0.1030
  812MOL0     C 7078   1.730   8.338   3.335  0.0517  0.3933  0.9913
  812MOL0     C 7079   1.606   8.265   3.340  0.1340  0.4328  1.2992
  812MOL0     C 7080   1.500   8.295   3.429 -0.2554 -0.1995  0.1380
  812MOL0     C 7081   1.373   8.212   3.440 -0.0552 -0.0320 -0.3128
  812MOL0     O 7082   1.357   8.114   3.353 -0.9175  0.7155  0.1239
  812MOL0     C 7083   1.234   8.052   3.352 -0.2002  0.2632 -0.4965
  812MOL0     C 7084   1.153   8.047   3.235 -0.1548  0.1711  0.2747
  812MOL0     C 7085   1.024   7.989   3.231 -0.2140  0.9325 -0.0110
  812MOL0     C 7086   0.981   7.916   3.345  0.8896  0.4109 -0.2268
  812MOL0     O 7087   0.859   7.855   3.336  0.3199  0.1094 -0.6409
  812MOL0     C 7088   0.742   7.927   3.305  1.3008  0.1352  0.6160
  812MOL0     C 7089   0.622   7.828   3.288 -0.3157 -1.0936 -0.1437
  812MOL0     C 7090   0.503   7.921   3.251  0.2832 -0.4311  0.7220
  812MOL0     C 7091   0.368   7.841   3.238  0.0449 -0.2625  0.2234
  812MOL0     C 7092   0.246   7.925   3.212  0.7742 -0.3646  1.1546
  812MOL0     C 7093   0.121   7.842   3.198  0.4999 -0.0169  0.1273
  812MOL0     C 7094  -0.008   7.916   3.163  0.6479 -0.1821 -0.3671
  812MOL0     C 7095  -0.120   7.820   3.133  0.6241 -0.6755  0.5114
  812MOL0    Cl 7096  -0.111   7.773   2.957  0.2645 -0.4016 -0.4136
  812MOL0     C 7097   1.064   7.913   3.464 -0.3014  0.2963  0.1742
  812MOL0     C 7098   1.188   7.980   3.461  0.8708  0.6737 -0.6481
  812MOL0     O 7099   1.289   8.256   3.521 -0.8693  0.1059 -0.1466
  812MOL0     C 7100   1.525   8.405   3.519  0.0709  0.1606 -0.2670
  812MOL0     C 7101   1.640   8.480   3.508 -0.3632  0.2148  0.2514
  812MOL0     N 7102   1.996   9.097   3.132  0.1157  0.1544 -0.6357
  812MOL0     N 7103   1.939   9.125   3.027 -0.3531  0.4321 -0.6813
  812MOL0     C 7104   0.642   9.092   3.060 -0.8615  0.9476 -0.1645
  812MOL0     C 7105   0.505   9.095   3.037  0.1919 -0.5326 -0.3433
  812MOL0     C 7106   0.078   9.155   3.073  0.2348 -1.4178 -0.3800
  812MOL0     C 7107   0.026   9.027   3.065  0.0226 -0.3112  0.0646
  812MOL0     C 7108  -0.110   9.001   3.037 -0.0398 -0.4447  0.5854
  812MOL0     C 7109  -0.196   9.113   3.014 -0.2139  0.5324  0.6541
  812MOL0     O 7110  -0.334   9.106   2.989  0.3559 -0.6507  0.1914
  812MOL0     C 7111  -0.391   8.982   3.021  0.7642  0.4047 -0.7614
  812MOL0     C 7112  -0.553   8.990   3.024  0.4128  0.8204 -0.0004
  812MOL0     C 7113  -0.597   9.028   2.883  0.1781 -0.6155  0.8549
  812MOL0     C 7114  -0.738   9.068   2.853  0.2265 -0.5626 -0.2564
  812MOL0     C 7115  -0.816   8.950   2.847  0.3043 -0.7540 -0.1398
  812MOL0     C 7116  -0.884   8.849   2.821  0.3254 -0.7114 -0.4069
  812MOL0     C 7117  -0.146   9.246   3.018 -0.9138  0.1398 -0.1575
  812MOL0     C 7118  -0.015   9.264   3.053  0.6092 -1.4352 -0.1526
  812MOL0     H 7119   0.402   9.108   3.357  0.1681  1.2011  0.0407
  812MOL0     H 7120   0.665   9.126   3.385 -0.1909 -2.5041  0.2989
  812MOL0     H 7121   0.930   9.283   3.193 -1.8418 -1.6457  3.3895
  812MOL0     H 7122   0.877   9.192   3.040  0.1096 -3.5611 -0.3558
  812MOL0     H 7123   1.026   9.015   3.090  0.5149  0.2045  0.8696
  812MOL0     H 7124   1.105   9.104   3.226  0.1929  0.0495  0.6520
  812MOL0     H 7125   1.158   9.298   3.076  1.9819 -0.0625  0.0488
  812MOL0     H 7126   1.094   9.198   2.947  0.9285 -2.9152 -1.1877
  812MOL0     H 7127   1.353   9.150   3.123  2.8527 -0.4977 -1.7440
  812MOL0     H 7128   1.271   9.031   3.010 -1.0555 -0.3993  2.6893
  812MOL0     H 7129   1.373   9.298   2.931  1.4730  0.1331  0.7633
  812MOL0     H 7130   1.285   9.179   2.828 -0.4695  0.2382  0.3637
  812MOL0     H 7131   1.516   9.171   2.778 -1.6164  1.8195 -1.1329
  812MOL0     H 7132   1.451   9.018   2.839 -2.5273  2.5440 -2.5168
  812MOL0     H 7133   1.630   9.207   3.013 -1.6672 -0.8589  3.1846
  812MOL0     H 7134   1.560   9.066   3.064 -1.8332  1.2571 -1.2828
  812MOL0     H 7135   1.753   9.113   2.826  0.3629 -1.5519 -0.3173
  812MOL0     H 7136   1.701   8.949   2.883 -3.1295  0.8268  1.1324
  812MOL0     H 7137   1.776   8.849   3.114  0.0732 -0.4191 -2.3976
  812MOL0     H 7138   1.918   8.932   3.389 -1.5112 -3.8451 -0.8190
  812MOL0     H 7139   2.085   8.970   3.341 -0.6761  1.7991  1.5531
  812MOL0     H 7140   2.118   8.751   3.265 -1.1824  2.3838 -0.9974
  812MOL0     H 7141   1.943   8.724   3.238 -0.3613  0.2468 -1.0504
  812MOL0     H 7142   2.112   8.635   3.446 -0.0198  0.3552  3.7454
  812MOL0     H 7143   2.047   8.784   3.511 -0.7873  1.6180 -1.0766
  812MOL0     H 7144   1.815   8.696   3.457  1.2176  1.3911  0.5383
  812MOL0     H 7145   1.898   8.612   3.594  1.9222 -0.2628  0.3019
  812MOL0     H 7146   1.812   8.304   3.273 -1.6529  2.2112 -2.5815
  812MOL0     H 7147   1.598   8.181   3.272 -0.3225  1.1325  0.4578
  812MOL0     H 7148   1.196   8.102   3.152  0.8327 -1.9033 -0.6735
  812MOL0     H 7149   0.967   7.991   3.138 -1.6569 -0.6093  0.7903
  812MOL0     H 7150   0.760   7.981   3.211 -1.6832  1.1708  0.5484
  812MOL0     H 7151   0.724   7.995   3.389  0.8172 -0.6413  1.1488
  812MOL0     H 7152   0.596   7.781   3.384  0.5035 -1.7178 -0.2143
  812MOL0     H 7153   0.655   7.754   3.215 -1.1471 -1.7385  0.1073
  812MOL0     H 7154   0.521   7.958   3.149 -0.9418 -2.1120 -0.1486
  812MOL0     H 7155   0.485   8.004   3.319 -2.9321  0.8621 -1.4488
  812MOL0     H 7156   0.372   7.772   3.153 -1.8281  0.4918 -0.5265
  812MOL0     H 7157   0.342   7.785   3.328 -2.5138 -0.1130 -0.3509
  812MOL0     H 7158   0.259   7.991   3.126 -2.3334  3.0586  3.0021
  812MOL0     H 7159   0.231   7.986   3.302  0.0333  1.2444 -0.0024
  812MOL0     H 7160   0.098   7.796   3.294 -3.2248  0.3563 -0.4201
  812MOL0     H 7161   0.138   7.770   3.117  0.0814  1.8951 -1.7420
  812MOL0     H 7162  -0.031   7.996   3.234  3.3385 -0.8708  1.4499
  812MOL0     H 7163   0.018   7.978   3.077  1.3591  3.1677  2.0299
  812MOL0     H 7164  -0.215   7.870   3.155  0.5053 -1.0528  0.8714
  812MOL0     H 7165  -0.124   7.732   3.197  0.5232 -0.0897  1.3240
  812MOL0     H 7166   1.018   7.885   3.558  0.6644 -2.0256  0.0221
  812MOL0     H 7167   1.239   7.987   3.557 -1.0981 -0.0885  0.4940
  812MOL0     H 7168   1.459   8.428   3.602 -0.0546 -1.1537  0.0238
  812MOL0     H 7169   1.666   8.562   3.574  2.9790 -2.6948  2.9171
  812MOL0     H 7170   0.705   9.085   2.972 -0.6997 -0.9777  0.0780
  812MOL0     H 7171   0.459   9.077   2.940  1.0625 -3.0035 -0.3614
  812MOL0     H 7172   0.093   8.942   3.068  1.3643  0.6840 -0.4465
  812MOL0     H 7173  -0.148   8.900   3.033 -1.0030 -0.1945  2.2167
  812MOL0     H 7174  -0.358   8.936   3.114  1.5631 -3.8230 -2.9155
  812MOL0     H 7175  -0.354   8.915   2.943  2.6658  2.5337 -1.8062
  812MOL0     H 7176  -0.598   8.892   3.044 -0.0564  1.5102  2.7545
  812MOL0     H 7177  -0.588   9.060   3.101 -0.8496 -1.5302  1.6732
  812MOL0     H 7178  -0.567   8.945   2.818 -0.6210  1.4276 -2.3633
  812MOL0     H 7179  -0.548   9.122   2.854 -0.6450 -1.0070 -2.1973
  812MOL0     H 7180  -0.781   9.126   2.935 -1.0813  0.0956 -1.3518
  812MOL0     H 7181  -0.745   9.122   2.758  1.7701  2.2269  1.0951
  812MOL0     H 7182  -0.940   8.758   2.810 -1.4281  0.3770 -0.8106
  812MOL0     H 7183  -0.208   9.330   2.987 -1.8141  0.3687  2.0753
  812MOL0     H 7184   0.017   9.367   3.046 -3.0478 -0.1479 -0.4911
  813MOL0     O 7185   1.801   7.294   1.246 -0.2986 -0.4126 -0.0872
  813MOL0     C 7186   1.786   7.171   1.234  0.4345  0.3673 -0.1427
  813MOL0     O 7187   1.671   7.103   1.254  0.6759 -0.9406  0.1904
  813MOL0     C 7188   1.550   7.171   1.272 -0.6303 -0.4575  0.4496
  813MOL0     C 7189   1.521   7.283   1.203 -0.5579 -0.4185  0.6809
  813MOL0     C 7190   1.404   7.357   1.218  1.0370  0.1941  0.2462
  813MOL0     C 7191   1.302   7.302   1.303 -0.2284  0.2262 -0.0442
  813MOL0     O 7192   1.179   7.369   1.331 -0.3431 -0.1073  0.2818
  813MOL0     C 7193   1.148   7.494   1.269 -0.5194 -0.3194 -0.2459
  813MOL0     C 7194   1.001   7.539   1.277  0.2041  0.0943  0.6135
  813MOL0     C 7195   0.967   7.554   1.426 -0.6910  0.2622  0.0729
  813MOL0     C 7196   0.841   7.641   1.466 -0.3277 -0.0967  0.7301
  813MOL0     C 7197   0.727   7.556   1.525  0.3119 -0.5909  0.2884
  813MOL0     C 7198   0.621   7.632   1.608 -0.8339 -0.0660 -0.0205
  813MOL0     C 7199   0.498   7.551   1.642 -0.0855 -0.0924 -0.7896
  813MOL0     C 7200   0.396   7.617   1.737  0.1035 -0.2309  0.0955
  813MOL0     N 7201   0.284   7.525   1.769  0.5218  0.7114  0.0803
  813MOL0     C 7202   0.204   7.461   1.677  0.1121 -0.6039 -0.3454
  813MOL0     C 7203   0.134   7.363   1.748 -0.7374 -0.9891  0.2975
  813MOL0     C 7204   0.047   7.264   1.689 -0.8362 -0.3655  0.0162
  813MOL0     C 7205  -0.109   7.307   1.667  0.7551 -0.7731 -0.0995
  813MOL0     C 7206  -0.193   7.291   1.802  0.1565 -1.0893 -0.0124
  813MOL0     C 7207  -0.322   7.367   1.800  0.5308  0.0652  0.2320
  813MOL0     O 7208  -0.422   7.283   1.738 -0.5018  0.2351 -0.5190
  813MOL0     C 7209  -0.519   7.356   1.677  0.7593 -0.2119  0.2334
  813MOL0     C 7210  -0.550   7.326   1.542 -1.2672  0.2719  0.1077
  813MOL0     C 7211  -0.658   7.380   1.480  0.3589  0.4412 -0.7858
  813MOL0     C 7212  -0.731   7.483   1.538  0.1625  0.2871  0.3259
  813MOL0     C 7213  -0.833   7.545   1.446 -0.6150  0.1341 -0.2943
  813MOL0     O 7214  -0.905   7.645   1.502 -0.2182  0.2167 -0.2912
  813MOL0     C 7215  -0.992   7.709   1.425 -0.3621 -0.1982 -0.2787
  813MOL0     C 7216  -1.124   7.729   1.472 -0.5873  0.2994 -0.2857
  813MOL0     C 7217  -1.219   7.804   1.413 -0.3116 -0.8115  0.7515
  813MOL0     C 7218  -1.182   7.880   1.302  0.4030  0.4022  0.7697
  813MOL0     O 7219  -1.280   7.957   1.242  0.0973 -0.3509 -0.4509
  813MOL0     C 7220  -1.239   8.097   1.222  0.7043  0.1492 -0.2569
  813MOL0     C 7221  -1.347   8.180   1.156  1.1776 -0.7066 -0.2712
  813MOL0     C 7222  -1.477   8.166   1.236 -0.1669 -0.0897  0.8233
  813MOL0     C 7223  -1.586   8.261   1.194 -0.0736 -0.4311  0.5615
  813MOL0     C 7224  -1.716   8.255   1.280 -0.2503  0.0202 -0.7470
  813MOL0     C 7225  -1.828   8.342   1.224  0.1495  0.0486  0.1744
  813MOL0     C 7226  -1.960   8.362   1.299 -0.6976  0.1223 -1.5418
  813MOL0     C 7227  -2.033   8.231   1.338  0.2328 -0.0421  0.7543
  813MOL0    Cl 7228  -2.203   8.260   1.396 -0.0317  0.0369 -0.0519
  813MOL0     C 7229  -1.053   7.864   1.249 -0.1548  0.0745  0.6195
  813MOL0     C 7230  -0.960   7.773   1.300 -0.2698 -0.0677 -0.5344
  813MOL0     O 7231  -0.836   7.513   1.328 -0.8159 -0.3658 -0.1974
  813MOL0     C 7232  -0.700   7.523   1.675  0.1347  0.6686  0.3634
  813MOL0     C 7233  -0.593   7.458   1.745 -0.0415  0.4393  0.5240
  813MOL0     N 7234   0.180   7.369   1.873 -0.3116 -0.2875  0.3887
  813MOL0     N 7235   0.258   7.477   1.889 -0.0903 -0.1207  0.0878
  813MOL0     C 7236   1.327   7.181   1.357  0.9129  0.0202 -0.5345
  813MOL0     C 7237   1.447   7.114   1.347 -0.2936  0.9790  0.3403
  813MOL0     C 7238   1.911   7.096   1.199 -0.2321 -1.0003  0.8684
  813MOL0     C 7239   1.951   6.975   1.254 -0.3059 -0.3908  0.0185
  813MOL0     C 7240   2.083   6.930   1.242  0.0671  0.8284  0.0310
  813MOL0     C 7241   2.184   6.994   1.165 -0.1591 -0.0844 -1.0361
  813MOL0     O 7242   2.307   6.935   1.151 -0.8907 -0.3168 -0.3184
  813MOL0     C 7243   2.315   6.839   1.045 -1.1036  0.2425  0.1328
  813MOL0     C 7244   2.455   6.774   1.027  0.5463 -1.5651 -0.2201
  813MOL0     C 7245   2.559   6.894   1.000  0.0603 -0.2180 -0.4525
  813MOL0     C 7246   2.709   6.849   0.994 -0.2185  0.0756 -0.1724
  813MOL0     C 7247   2.750   6.788   0.865 -0.4508  0.1268 -1.2362
  813MOL0     C 7248   2.787   6.756   0.755 -0.1455  0.1818 -0.2697
  813MOL0     C 7249   2.148   7.113   1.110 -0.4882 -0.3392  0.4182
  813MOL0     C 7250   2.019   7.170   1.131 -0.8572 -0.0393 -0.5689
  813MOL0     H 7251   1.590   7.306   1.122 -0.4763 -3.0429 -0.0836
  813MOL0     H 7252   1.391   7.452   1.167 -0.1339 -0.2573 -0.3064
  813MOL0     H 7253   1.185   7.478   1.167  1.8968 -2.6748  0.8659
  813MOL0     H 7254   1.213   7.563   1.324 -0.7612 -0.7577  0.5967
  813MOL0     H 7255   0.946   7.453   1.238 -0.9108  0.2862  1.6910
  813MOL0     H 7256   0.979   7.628   1.217 -1.7350 -1.5306 -1.2303
  813MOL0     H 7257   1.048   7.611   1.472  0.2339  0.4284 -1.6764
  813MOL0     H 7258   0.952   7.460   1.479 -0.7652  1.4546  2.2648
  813MOL0     H 7259   0.875   7.708   1.547  0.3033  1.5538 -0.8144
  813MOL0     H 7260   0.809   7.701   1.381 -0.1346 -0.3712  0.4630
  813MOL0     H 7261   0.763   7.479   1.594 -0.6572 -1.1367  0.1951
  813MOL0     H 7262   0.675   7.509   1.441 -0.5742 -0.1055  0.5579
  813MOL0     H 7263   0.581   7.719   1.554  3.2388  1.8430 -0.3347
  813MOL0     H 7264   0.668   7.671   1.699  0.1092 -0.7318 -0.2020
  813MOL0     H 7265   0.437   7.518   1.558 -2.3589  0.5982  0.5106
  813MOL0     H 7266   0.535   7.468   1.704  0.5176  1.1796  0.6035
  813MOL0     H 7267   0.357   7.713   1.703 -0.9721 -0.0373  1.7806
  813MOL0     H 7268   0.444   7.642   1.833 -0.3135 -0.4463  0.3628
  813MOL0     H 7269   0.198   7.466   1.569 -0.3992  0.6843 -0.2788
  813MOL0     H 7270   0.051   7.180   1.759 -1.4990  0.3555  0.9452
  813MOL0     H 7271   0.090   7.223   1.597 -0.3271  2.8379 -1.3178
  813MOL0     H 7272  -0.154   7.243   1.590  0.8428  2.0226 -2.6309
  813MOL0     H 7273  -0.106   7.410   1.631  1.1637 -0.6405  0.3120
  813MOL0     H 7274  -0.207   7.184   1.814 -2.3320 -0.6075  2.2145
  813MOL0     H 7275  -0.132   7.326   1.886  0.1462 -1.5641  0.1933
  813MOL0     H 7276  -0.324   7.464   1.750 -1.3667 -0.2689 -0.4493
  813MOL0     H 7277  -0.358   7.376   1.903  0.9292 -0.8142  0.4554
  813MOL0     H 7278  -0.491   7.255   1.486  1.1201  2.4316 -0.3348
  813MOL0     H 7279  -0.679   7.359   1.376 -1.3023  0.8115 -0.5429
  813MOL0     H 7280  -1.143   7.669   1.561  0.9192  0.0953 -0.0762
  813MOL0     H 7281  -1.321   7.802   1.450 -0.2885  0.1719  0.8950
  813MOL0     H 7282  -1.146   8.105   1.165  0.1672  3.2723 -0.8873
  813MOL0     H 7283  -1.220   8.139   1.321 -2.3351  0.6969  0.1903
  813MOL0     H 7284  -1.369   8.145   1.055  2.8872 -0.7487 -0.6541
  813MOL0     H 7285  -1.304   8.280   1.146 -0.5686  0.4904  2.8446
  813MOL0     H 7286  -1.449   8.186   1.340  1.8438 -0.5170  0.4229
  813MOL0     H 7287  -1.518   8.065   1.230  1.7646 -0.8613 -0.6362
  813MOL0     H 7288  -1.552   8.365   1.192  0.2959 -0.5554 -1.0650
  813MOL0     H 7289  -1.616   8.232   1.093  0.4367  3.2745 -0.8151
  813MOL0     H 7290  -1.695   8.291   1.381  0.9084 -2.2793 -0.0955
  813MOL0     H 7291  -1.760   8.157   1.300 -1.4276  0.9849  2.0121
  813MOL0     H 7292  -1.844   8.298   1.125  2.9344  0.1562 -0.4099
  813MOL0     H 7293  -1.787   8.444   1.222  0.1753  0.0319 -1.2418
  813MOL0     H 7294  -1.937   8.429   1.383 -4.2758  3.2144 -2.7255
  813MOL0     H 7295  -2.031   8.424   1.244 -2.3765 -0.3479 -0.0108
  813MOL0     H 7296  -1.975   8.178   1.414  0.4283  0.9945  1.3600
  813MOL0     H 7297  -2.037   8.156   1.259  0.3697 -0.4082  1.0895
  813MOL0     H 7298  -1.024   7.924   1.163  2.3139 -0.4809  1.0050
  813MOL0     H 7299  -0.869   7.749   1.246  0.0927 -3.4565  1.2697
  813MOL0     H 7300  -0.752   7.606   1.721 -1.2541 -0.6797  1.3580
  813MOL0     H 7301  -0.568   7.480   1.849 -0.9713  0.9830  0.6488
  813MOL0     H 7302   1.252   7.130   1.416  2.8502 -0.2997  1.8014
  813MOL0     H 7303   1.453   7.011   1.381  1.6280  1.4052  1.4247
  813MOL0     H 7304   1.880   6.920   1.315 -2.5189  1.2017 -0.9861
  813MOL0     H 7305   2.103   6.832   1.284 -2.9304  0.6335  1.3143
  813MOL0     H 7306   2.291   6.892   0.953  1.3703 -2.0242 -2.0248
  813MOL0     H 7307   2.242   6.758   1.052 -3.3855  2.1963  0.2334
  813MOL0     H 7308   2.480   6.736   1.126 -3.0124 -1.0397  1.0549
  813MOL0     H 7309   2.452   6.696   0.951 -1.7640 -4.3739  2.4667
  813MOL0     H 7310   2.545   6.964   1.083 -1.9413 -1.5487  0.3928
  813MOL0     H 7311   2.544   6.936   0.900 -0.4551  0.1907 -0.2126
  813MOL0     H 7312   2.776   6.935   1.008  0.9667 -0.8697  0.1653
  813MOL0     H 7313   2.727   6.780   1.078  0.7108 -0.4558 -0.7933
  813MOL0     H 7314   2.803   6.727   0.653  2.5018 -2.4505  0.7514
  813MOL0     H 7315   2.217   7.171   1.050 -0.3852  0.4045  1.2296
  813MOL0     H 7316   1.995   7.271   1.099 -2.6190  0.1369  1.1258
  814MOL0     O 7317   5.840   6.865   3.987 -0.0157  0.5527  0.6041
  814MOL0     C 7318   5.842   6.981   3.948 -0.1939 -0.1245  0.3169
  814MOL0     O 7319   5.744   7.070   3.952 -0.3926 -0.3123  0.6339
  814MOL0     C 7320   5.614   7.045   3.923  0.6444 -1.2454 -0.2563
  814MOL0     C 7321   5.521   7.150   3.950  0.4094 -0.6979  0.9448
  814MOL0     C 7322   5.382   7.134   3.924  0.5761  0.5111  0.4211
  814MOL0     C 7323   5.336   7.019   3.876 -0.7833  0.7348 -0.0214
  814MOL0     O 7324   5.206   6.980   3.848  0.2616 -0.3751 -0.6268
  814MOL0     C 7325   5.108   7.040   3.930  0.4117 -0.3269 -0.0658
  814MOL0     C 7326   4.976   6.978   3.910 -0.6415  0.1194  1.0353
  814MOL0     C 7327   4.866   7.074   3.922 -0.0217 -1.1947  0.9506
  814MOL0     C 7328   4.744   7.033   3.844  0.6952  0.8273 -0.2545
  814MOL0     C 7329   4.623   7.129   3.863 -0.2292  0.0585  0.6469
  814MOL0     C 7330   4.516   7.054   3.789  0.2357 -0.0133 -0.2910
  814MOL0     C 7331   4.392   7.138   3.796 -0.4115 -0.0660 -0.4137
  814MOL0     C 7332   4.262   7.071   3.752  1.0246 -0.1268 -0.3674
  814MOL0     N 7333   4.154   7.176   3.749 -0.4580 -0.9375 -0.1410
  814MOL0     C 7334   4.098   7.233   3.862 -0.4835 -0.4379  0.5482
  814MOL0     C 7335   3.989   7.299   3.808 -0.2071  0.1165 -0.2561
  814MOL0     C 7336   3.911   7.409   3.883 -1.4786  0.6033  0.2659
  814MOL0     C 7337   3.883   7.376   4.033 -0.1448  0.4883 -0.4589
  814MOL0     C 7338   3.816   7.486   4.110 -0.2972 -0.7089  0.9097
  814MOL0     C 7339   3.681   7.527   4.051  0.3241  0.8904 -0.2548
  814MOL0     O 7340   3.617   7.631   4.126 -0.2133  0.3478 -0.0460
  814MOL0     C 7341   3.512   7.695   4.073 -0.8584 -0.3325  0.1053
  814MOL0     C 7342   3.465   7.802   4.146  0.0597 -0.9259  0.9053
  814MOL0     C 7343   3.355   7.872   4.117  0.9318 -0.5056 -0.3942
  814MOL0     C 7344   3.268   7.839   4.010  0.6028 -0.6852 -1.2277
  814MOL0     C 7345   3.135   7.904   3.975 -0.1520  0.2185  0.5832
  814MOL0     O 7346   3.038   7.829   3.913 -0.7356  1.3229 -0.0259
  814MOL0     C 7347   2.918   7.882   3.873 -0.0534 -0.7637  1.8553
  814MOL0     C 7348   2.897   8.017   3.818  0.9096  0.5380 -0.1337
  814MOL0     C 7349   2.771   8.061   3.781  0.7999  0.4920 -1.0161
  814MOL0     C 7350   2.658   7.981   3.792 -0.5475  0.1122 -0.6374
  814MOL0     O 7351   2.547   8.035   3.739  0.1262 -0.6527 -0.3311
  814MOL0     C 7352   2.436   7.950   3.711 -0.0891  0.7402 -0.2881
  814MOL0     C 7353   2.332   8.035   3.629 -0.1969  0.4237  0.1671
  814MOL0     C 7354   2.250   8.139   3.714 -0.0183 -0.0362  0.6258
  814MOL0     C 7355   2.144   8.213   3.626 -0.6680  0.2671 -0.5741
  814MOL0     C 7356   2.016   8.253   3.705  1.0880  0.1644  0.2478
  814MOL0     C 7357   2.039   8.353   3.824  0.3039 -0.3228 -0.4973
  814MOL0     C 7358   1.923   8.372   3.921  0.5623  0.2251  0.7633
  814MOL0     C 7359   1.823   8.468   3.875  0.5044 -0.5880  0.5661
  814MOL0    Cl 7360   1.899   8.622   3.833  0.9593 -0.3916 -0.0384
  814MOL0     C 7361   2.678   7.851   3.831 -0.2734  0.0420 -0.4072
  814MOL0     C 7362   2.807   7.795   3.869 -0.1471  0.3071  0.5849
  814MOL0     O 7363   3.123   8.023   4.012 -0.0881  0.2861  0.2912
  814MOL0     C 7364   3.315   7.733   3.934 -0.2192 -0.3514  0.2251
  814MOL0     C 7365   3.436   7.671   3.954  0.7598  0.2844 -0.8944
  814MOL0     N 7366   3.989   7.284   3.667  0.2090 -0.1193 -0.2616
  814MOL0     N 7367   4.091   7.219   3.637 -0.0062  0.7354 -0.0090
  814MOL0     C 7368   5.422   6.911   3.846  0.5077 -0.1420  0.1376
  814MOL0     C 7369   5.565   6.919   3.879 -0.0832  1.0308  0.5321
  814MOL0     C 7370   5.974   7.040   3.916 -1.0843  0.0903  0.6053
  814MOL0     C 7371   6.092   6.974   3.959  0.1783  0.1102 -0.5745
  814MOL0     C 7372   6.213   7.036   3.931  0.2409 -0.8058 -1.0114
  814MOL0     C 7373   6.222   7.160   3.876 -0.4968 -0.7914  0.7665
  814MOL0     O 7374   6.345   7.211   3.850  0.0511 -0.0601 -0.4651
  814MOL0     C 7375   6.397   7.287   3.961 -0.7167  0.0357  0.1262
  814MOL0     C 7376   6.550   7.285   3.977  0.2022 -0.5167  0.3088
  814MOL0     C 7377   6.633   7.291   3.845 -0.1794 -0.3253  0.1874
  814MOL0     C 7378   6.778   7.332   3.880  0.4716  0.1921 -0.2494
  814MOL0     C 7379   6.861   7.363   3.762  0.4757 -0.6548 -0.1629
  814MOL0     C 7380   6.933   7.395   3.667 -0.3240 -0.4072  0.6405
  814MOL0     C 7381   6.109   7.218   3.817  0.0602  0.0282 -0.2826
  814MOL0     C 7382   5.980   7.161   3.836  0.0052  0.8220 -0.1705
  814MOL0     H 7383   5.564   7.247   3.973 -2.1364  1.6128 -2.9226
  814MOL0     H 7384   5.316   7.218   3.944 -0.3712  0.5518 -2.4397
  814MOL0     H 7385   5.105   7.147   3.904 -0.5387 -0.7590 -1.9223
  814MOL0     H 7386   5.135   7.043   4.036 -0.7605  0.9356  0.2219
  814MOL0     H 7387   4.956   6.890   3.971  1.5062 -0.8733  0.4008
  814MOL0     H 7388   4.985   6.941   3.807  0.7237  0.0967  1.1536
  814MOL0     H 7389   4.893   7.175   3.889 -0.7731 -1.2688  0.0800
  814MOL0     H 7390   4.845   7.082   4.029  2.7826 -0.8261  1.5732
  814MOL0     H 7391   4.762   7.036   3.736  1.4698  2.5094 -0.1147
  814MOL0     H 7392   4.728   6.928   3.867  2.6292  0.7975  1.1741
  814MOL0     H 7393   4.635   7.227   3.818  2.8244 -0.2770  0.5492
  814MOL0     H 7394   4.604   7.144   3.970  2.1667  0.6945  1.0255
  814MOL0     H 7395   4.499   6.957   3.836  0.4799  0.8078  1.5804
  814MOL0     H 7396   4.539   7.041   3.682 -2.5411 -0.8680 -0.8606
  814MOL0     H 7397   4.384   7.174   3.899  1.0510 -3.6857  1.1570
  814MOL0     H 7398   4.403   7.227   3.733  0.8124 -0.3262 -0.5896
  814MOL0     H 7399   4.230   6.989   3.817 -1.7565  0.6828 -0.5867
  814MOL0     H 7400   4.274   7.039   3.648 -0.8039 -2.8965  0.1826
  814MOL0     H 7401   4.109   7.227   3.969 -0.5129 -1.7783  0.4900
  814MOL0     H 7402   3.817   7.420   3.829  0.3621  1.0800 -3.1117
  814MOL0     H 7403   3.980   7.493   3.881 -0.2823 -0.3596 -1.1182
  814MOL0     H 7404   3.986   7.364   4.069  0.7879  0.4977 -2.9522
  814MOL0     H 7405   3.835   7.280   4.053 -1.7794  1.6406  1.6335
  814MOL0     H 7406   3.796   7.461   4.214  0.6715 -2.0774  0.8054
  814MOL0     H 7407   3.879   7.575   4.113  0.0720 -0.8747 -0.6221
  814MOL0     H 7408   3.617   7.439   4.043 -0.3366  1.3599 -0.2017
  814MOL0     H 7409   3.694   7.570   3.951  2.8001  2.2173  0.5468
  814MOL0     H 7410   3.527   7.833   4.230  0.9236  1.3267 -0.4651
  814MOL0     H 7411   3.331   7.963   4.170  1.1340 -2.9289  4.4097
  814MOL0     H 7412   2.977   8.087   3.796  0.3101  0.5207 -2.6358
  814MOL0     H 7413   2.758   8.162   3.744 -0.2335 -0.5276 -3.7087
  814MOL0     H 7414   2.392   7.917   3.805  3.1271 -1.7138  0.5169
  814MOL0     H 7415   2.462   7.865   3.647 -1.5030  0.5885 -0.6943
  814MOL0     H 7416   2.269   7.966   3.572  0.8759  0.8691 -1.6391
  814MOL0     H 7417   2.379   8.095   3.551 -1.0485 -0.6092 -1.1971
  814MOL0     H 7418   2.323   8.217   3.739  0.3474 -0.3575  0.5649
  814MOL0     H 7419   2.201   8.090   3.798 -0.6290 -0.6126 -0.0613
  814MOL0     H 7420   2.180   8.304   3.577  1.1761 -1.3457 -2.4147
  814MOL0     H 7421   2.132   8.152   3.536  2.2327  1.8620 -2.2040
  814MOL0     H 7422   1.962   8.168   3.748 -1.1501  1.8275  0.9031
  814MOL0     H 7423   1.950   8.294   3.629  0.1446  1.2653  1.6183
  814MOL0     H 7424   2.065   8.445   3.772  1.3770 -1.1789 -1.5360
  814MOL0     H 7425   2.126   8.323   3.883 -2.8091  0.7012  5.4305
  814MOL0     H 7426   1.867   8.279   3.932  0.8805 -0.2265 -1.1149
  814MOL0     H 7427   1.961   8.407   4.018 -0.5941  0.1072  1.2818
  814MOL0     H 7428   1.750   8.480   3.956 -1.3999 -2.3001 -0.7961
  814MOL0     H 7429   1.773   8.423   3.789 -0.9002  2.3636 -0.3172
  814MOL0     H 7430   2.585   7.796   3.840  0.3390 -0.7346  1.6465
  814MOL0     H 7431   2.820   7.692   3.899 -1.6209 -0.4882 -1.3161
  814MOL0     H 7432   3.255   7.708   3.848 -1.4397  1.0508  0.6221
  814MOL0     H 7433   3.458   7.587   3.888 -1.0373 -0.1001 -1.0515
  814MOL0     H 7434   5.385   6.820   3.798  2.4561 -1.5213  1.0907
  814MOL0     H 7435   5.629   6.833   3.857 -0.2929  0.9908  0.0527
  814MOL0     H 7436   6.094   6.880   4.013  1.1894 -0.3515 -1.3862
  814MOL0     H 7437   6.310   6.999   3.962  0.0076  0.3518  1.3328
  814MOL0     H 7438   6.368   7.251   4.060  0.9108  3.2724  1.9360
  814MOL0     H 7439   6.351   7.386   3.951 -0.7045 -0.0487 -0.8162
  814MOL0     H 7440   6.575   7.381   4.024  3.8387  1.0119 -4.0299
  814MOL0     H 7441   6.584   7.197   4.032 -1.1904 -3.1436 -2.7314
  814MOL0     H 7442   6.584   7.370   3.787  1.6118  2.3110  2.0331
  814MOL0     H 7443   6.624   7.199   3.787 -0.7731  0.0846 -0.3824
  814MOL0     H 7444   6.773   7.425   3.937 -1.6359  0.8302 -1.3612
  814MOL0     H 7445   6.826   7.267   3.954  1.1154  3.2757  2.2220
  814MOL0     H 7446   7.006   7.415   3.592 -1.0130 -0.3577 -0.0240
  814MOL0     H 7447   6.120   7.304   3.751  0.2468 -1.5707 -2.4622
  814MOL0     H 7448   5.891   7.209   3.796 -0.7029  1.6065  2.2015
  815MOL0     O 7449   2.622   6.036   2.593 -0.1047  0.1822 -0.1692
  815MOL0     C 7450   2.637   5.968   2.495  0.6927 -0.7258 -0.1565
  815MOL0     O 7451   2.539   5.895   2.435  1.4148  0.1142 -0.8000
  815MOL0     C 7452   2.398   5.895   2.466 -0.0535 -0.0186 -0.6036
  815MOL0     C 7453   2.304   5.863   2.359 -0.6477 -1.1387  1.2101
  815MOL0     C 7454   2.167   5.880   2.373  0.4527 -0.1376  0.6853
  815MOL0     C 7455   2.114   5.913   2.505 -0.0296 -0.0154 -0.5137
  815MOL0     O 7456   1.982   5.916   2.543  0.2487 -0.5189 -0.3995
  815MOL0     C 7457   1.893   5.920   2.425 -0.8229 -0.7197  0.5324
  815MOL0     C 7458   1.754   5.979   2.462  0.6826 -0.2235  0.5800
  815MOL0     C 7459   1.677   6.025   2.331 -0.1365 -0.3161 -0.3248
  815MOL0     C 7460   1.567   6.135   2.351  1.1807 -0.0658  0.4573
  815MOL0     C 7461   1.492   6.166   2.223  0.5950 -0.0255  0.0773
  815MOL0     C 7462   1.345   6.230   2.259  0.3155  0.4300  0.2834
  815MOL0     C 7463   1.270   6.265   2.123 -0.6652 -0.2832 -0.1654
  815MOL0     C 7464   1.211   6.143   2.058  0.5822  0.1554  0.1170
  815MOL0     N 7465   1.097   6.090   2.135  0.6412  0.2299 -0.2883
  815MOL0     C 7466   0.994   6.169   2.187  0.0709 -0.5288 -0.7158
  815MOL0     C 7467   0.890   6.086   2.213 -0.2549 -0.7232  0.7420
  815MOL0     C 7468   0.761   6.120   2.283 -0.3656  0.3666 -0.2878
  815MOL0     C 7469   0.650   6.189   2.192 -0.0564  0.1675 -0.5478
  815MOL0     C 7470   0.616   6.116   2.064  0.0164 -0.9271 -0.4015
  815MOL0     C 7471   0.604   5.958   2.074  0.1698 -0.0328 -0.4676
  815MOL0     O 7472   0.512   5.897   1.978 -0.2192  0.0165  0.4953
  815MOL0     C 7473   0.385   5.930   1.957  0.6768 -0.7760  0.0240
  815MOL0     C 7474   0.319   5.878   1.846 -0.3877  1.2150  0.1689
  815MOL0     C 7475   0.186   5.916   1.816 -0.2139 -0.0480  0.6407
  815MOL0     C 7476   0.111   5.993   1.909  0.5744  0.4602  0.0628
  815MOL0     C 7477  -0.036   6.016   1.884  0.3780 -0.0957 -0.5067
  815MOL0     O 7478  -0.098   5.938   1.783  0.1384 -0.0564  0.0432
  815MOL0     C 7479  -0.228   5.958   1.761 -0.0184  0.4984  0.6489
  815MOL0     C 7480  -0.259   6.001   1.633 -0.5586  0.6148  0.0686
  815MOL0     C 7481  -0.389   6.053   1.606 -0.4618 -0.0824 -0.7437
  815MOL0     C 7482  -0.493   6.041   1.706 -0.1731 -0.6750  0.0736
  815MOL0     O 7483  -0.618   6.078   1.672  0.9270 -0.3670 -0.2567
  815MOL0     C 7484  -0.714   6.073   1.787 -0.2873 -0.1748 -0.0608
  815MOL0     C 7485  -0.828   6.165   1.758 -1.2194 -0.0729  0.0520
  815MOL0     C 7486  -0.938   6.164   1.871 -0.4123 -0.6528  0.8729
  815MOL0     C 7487  -1.047   6.258   1.833 -0.2902 -0.1506  0.3506
  815MOL0     C 7488  -1.135   6.225   1.709 -0.0775  0.0265  0.8200
  815MOL0     C 7489  -1.233   6.343   1.695  0.2563  1.1803 -0.1892
  815MOL0     C 7490  -1.348   6.331   1.799  0.4432  1.3838 -1.0891
  815MOL0     C 7491  -1.399   6.460   1.849  0.2378  0.1741 -0.2707
  815MOL0    Cl 7492  -1.548   6.436   1.936 -0.1028 -0.0737  0.0916
  815MOL0     C 7493  -0.461   5.968   1.818 -0.9704 -0.0643  0.5879
  815MOL0     C 7494  -0.327   5.932   1.858 -0.4471  0.8798  0.0047
  815MOL0     O 7495  -0.089   6.105   1.949 -0.3840  0.9058  0.0102
  815MOL0     C 7496   0.176   6.053   2.015 -0.1138 -0.6950  0.5233
  815MOL0     C 7497   0.311   6.018   2.043 -0.4632  0.3136 -0.0920
  815MOL0     N 7498   0.921   5.965   2.150 -0.0699 -0.0937  0.2523
  815MOL0     N 7499   1.037   5.973   2.104 -0.4337  0.0567  0.9506
  815MOL0     C 7500   2.210   5.941   2.604 -0.0037  0.9510 -0.5552
  815MOL0     C 7501   2.346   5.925   2.589  0.2667 -0.1555  0.2014
  815MOL0     C 7502   2.773   5.967   2.439 -0.0248 -1.0773  0.6977
  815MOL0     C 7503   2.808   5.874   2.339 -0.1849  0.3048  0.5475
  815MOL0     C 7504   2.940   5.876   2.286 -0.1073  0.2050 -0.2392
  815MOL0     C 7505   3.036   5.971   2.322 -0.4745 -0.6992  0.1728
  815MOL0     O 7506   3.150   5.982   2.246  0.5894  0.8721 -0.5559
  815MOL0     C 7507   3.262   6.035   2.301 -1.2869 -0.1334  0.0942
  815MOL0     C 7508   3.405   5.974   2.266  0.2250 -0.3541 -0.0156
  815MOL0     C 7509   3.453   5.993   2.113  0.3741 -0.5090 -0.0080
  815MOL0     C 7510   3.608   5.966   2.099  0.6266  0.0310 -0.3240
  815MOL0     C 7511   3.683   6.064   2.181  0.5033 -0.1927  0.2450
  815MOL0     C 7512   3.738   6.148   2.242 -0.9552 -0.5142 -0.3227
  815MOL0     C 7513   2.998   6.063   2.423 -0.0970  0.3462 -0.1945
  815MOL0     C 7514   2.866   6.067   2.478  0.3174  0.0717  0.5405
  815MOL0     H 7515   2.353   5.827   2.269 -0.4698 -1.6568  1.5064
  815MOL0     H 7516   2.094   5.861   2.295  0.0426  1.7191  0.5578
  815MOL0     H 7517   1.895   5.821   2.380  2.6680 -0.5932  0.0961
  815MOL0     H 7518   1.941   5.990   2.356  0.3213 -2.6639 -0.7407
  815MOL0     H 7519   1.771   6.063   2.530 -2.4410  1.7072 -0.7968
  815MOL0     H 7520   1.694   5.902   2.512  0.7323 -0.6732 -0.0535
  815MOL0     H 7521   1.639   5.934   2.283  1.0120  0.4858 -2.9441
  815MOL0     H 7522   1.745   6.059   2.252  0.5812  1.3612  0.9559
  815MOL0     H 7523   1.494   6.091   2.419 -1.6410 -3.1334 -3.9421
  815MOL0     H 7524   1.615   6.224   2.392 -1.5442  1.9978 -0.5409
  815MOL0     H 7525   1.479   6.076   2.163  0.6136  0.3232 -0.4620
  815MOL0     H 7526   1.547   6.234   2.157 -0.4578 -0.8195 -1.7171
  815MOL0     H 7527   1.349   6.316   2.326  2.0954 -0.1099  0.9208
  815MOL0     H 7528   1.291   6.161   2.325 -0.1628  2.1421  1.7539
  815MOL0     H 7529   1.192   6.341   2.128 -0.5416  0.0388 -2.2865
  815MOL0     H 7530   1.351   6.310   2.065 -1.7136  3.1227  0.7474
  815MOL0     H 7531   1.282   6.060   2.052  0.5697 -0.1095  2.6507
  815MOL0     H 7532   1.177   6.165   1.956  2.3820  0.8324 -0.3751
  815MOL0     H 7533   1.001   6.273   2.214 -1.9716 -0.7336  0.7338
  815MOL0     H 7534   0.785   6.187   2.366 -1.5436  0.5329 -0.0707
  815MOL0     H 7535   0.721   6.027   2.323  1.3602 -0.1080  0.4193
  815MOL0     H 7536   0.676   6.294   2.178 -0.7431  0.3591 -0.4677
  815MOL0     H 7537   0.555   6.192   2.246  0.1438 -4.8794  0.4901
  815MOL0     H 7538   0.525   6.157   2.019  1.5720  1.7773 -1.3231
  815MOL0     H 7539   0.691   6.138   1.987 -0.7032  2.0648 -0.3820
  815MOL0     H 7540   0.566   5.937   2.174 -1.2118  1.8540 -0.5491
  815MOL0     H 7541   0.695   5.898   2.062 -2.1376 -3.8902 -0.4941
  815MOL0     H 7542   0.373   5.806   1.784 -0.6952 -1.3654  2.7057
  815MOL0     H 7543   0.130   5.894   1.725  0.9149  1.1010 -0.3781
  815MOL0     H 7544  -0.180   6.011   1.559  2.9176 -1.9411  3.0733
  815MOL0     H 7545  -0.410   6.092   1.507  3.1276 -1.0420 -2.0595
  815MOL0     H 7546  -0.663   6.103   1.879  2.5877  1.1786 -1.9284
  815MOL0     H 7547  -0.748   5.970   1.803  3.3338 -1.4293  0.5119
  815MOL0     H 7548  -0.875   6.129   1.665 -1.6749 -1.5737  0.8385
  815MOL0     H 7549  -0.791   6.267   1.740  3.0556 -1.1550  1.6603
  815MOL0     H 7550  -0.895   6.199   1.965 -1.7731  1.7091  0.6991
  815MOL0     H 7551  -0.982   6.064   1.865 -1.4277 -0.1550 -0.5353
  815MOL0     H 7552  -1.108   6.266   1.923  0.3119 -1.2342  0.8698
  815MOL0     H 7553  -1.000   6.355   1.810  0.3702 -0.0872  1.8486
  815MOL0     H 7554  -1.188   6.130   1.723 -0.4177 -0.3652 -2.3405
  815MOL0     H 7555  -1.076   6.219   1.616  0.5492  2.3597  1.0091
  815MOL0     H 7556  -1.274   6.357   1.594 -2.0318 -0.9464  0.3373
  815MOL0     H 7557  -1.185   6.438   1.718  1.8676  0.1359  0.9537
  815MOL0     H 7558  -1.416   6.266   1.744 -1.5496  1.0307  1.5692
  815MOL0     H 7559  -1.317   6.277   1.890  0.6021 -0.8171 -2.3789
  815MOL0     H 7560  -1.431   6.516   1.761  0.2894  3.6533  1.7379
  815MOL0     H 7561  -1.318   6.509   1.903  3.3125 -3.1922 -1.4381
  815MOL0     H 7562  -0.541   5.937   1.886 -2.9622 -0.2706 -1.6986
  815MOL0     H 7563  -0.310   5.868   1.944 -2.6410 -1.6886 -1.2766
  815MOL0     H 7564   0.114   6.115   2.080  0.9497 -0.0068  0.9118
  815MOL0     H 7565   0.349   6.074   2.128  0.0830  1.6669 -1.1749
  815MOL0     H 7566   2.171   5.981   2.697  0.8456  1.4580 -0.4158
  815MOL0     H 7567   2.412   5.941   2.674  0.9495  0.1639 -0.3768
  815MOL0     H 7568   2.738   5.801   2.298 -1.3404  0.6055  1.9329
  815MOL0     H 7569   2.969   5.802   2.212 -0.5608 -2.4357  2.0365
  815MOL0     H 7570   3.263   6.053   2.409  1.4390 -3.0360  0.7073
  815MOL0     H 7571   3.261   6.135   2.257 -5.4049 -0.5503 -1.2264
  815MOL0     H 7572   3.478   6.013   2.339  0.6208  1.3275 -1.2704
  815MOL0     H 7573   3.398   5.867   2.288 -2.8109  0.4774  4.4359
  815MOL0     H 7574   3.425   6.088   2.066  0.0769 -1.2510 -1.3635
  815MOL0     H 7575   3.393   5.921   2.057  0.7801 -2.5657  2.0522
  815MOL0     H 7576   3.624   5.864   2.136 -0.1051 -0.5609 -1.5967
  815MOL0     H 7577   3.631   5.974   1.992  3.2377 -2.3721 -0.0727
  815MOL0     H 7578   3.791   6.219   2.303  2.2321 -2.3081 -0.7877
  815MOL0     H 7579   3.068   6.136   2.462 -1.0003  0.7990  0.6205
  815MOL0     H 7580   2.835   6.147   2.544  0.7683  0.2793  0.5102
  816MOL0     O 7581   7.364   7.385   8.508 -0.5900 -0.0911  0.3775
  816MOL0     C 7582   7.369   7.348   8.389 -0.6403  0.4537  0.4011
  816MOL0     O 7583   7.268   7.281   8.316  0.1120  0.2285 -0.0189
  816MOL0     C 7584   7.142   7.274   8.367 -0.3798  0.3610  0.0878
  816MOL0     C 7585   7.083   7.366   8.450 -0.0718  0.1100 -0.4111
  816MOL0     C 7586   6.951   7.356   8.500 -0.0464  0.5157 -0.6977
  816MOL0     C 7587   6.871   7.243   8.467 -0.7638  0.1681  0.4486
  816MOL0     O 7588   6.743   7.220   8.503  0.1429  0.2746  1.4618
  816MOL0     C 7589   6.663   7.333   8.544  0.4392  0.0530 -0.0011
  816MOL0     C 7590   6.533   7.290   8.604 -1.1453 -0.2707  0.6739
  816MOL0     C 7591   6.434   7.234   8.504 -0.6953 -0.4163  0.5592
  816MOL0     C 7592   6.344   7.138   8.571  0.7357 -0.4495 -0.0966
  816MOL0     C 7593   6.249   7.061   8.481 -1.0529  0.2385  0.2888
  816MOL0     C 7594   6.134   7.149   8.431  0.3488 -0.0700  0.9711
  816MOL0     C 7595   6.061   7.080   8.315 -0.8382  0.8131  0.2524
  816MOL0     C 7596   5.975   6.957   8.377  0.4022  0.4098 -0.0584
  816MOL0     N 7597   5.869   6.998   8.471 -0.5211 -0.0487  0.0774
  816MOL0     C 7598   5.740   7.017   8.424 -0.0704  0.1308  0.2688
  816MOL0     C 7599   5.669   7.043   8.528  1.3537 -0.4289  0.1690
  816MOL0     C 7600   5.515   7.070   8.520 -0.3735 -0.2558  0.2145
  816MOL0     C 7601   5.435   6.943   8.475 -0.0241 -0.1564  0.3054
  816MOL0     C 7602   5.413   6.842   8.594 -0.0618 -0.2773  1.2444
  816MOL0     C 7603   5.293   6.861   8.679  0.0604  0.0038 -0.2029
  816MOL0     O 7604   5.176   6.794   8.631 -0.5250 -0.0340  0.4815
  816MOL0     C 7605   5.061   6.829   8.681 -0.5775  0.4579  1.0376
  816MOL0     C 7606   4.949   6.800   8.600 -0.3014  0.6541  0.3638
  816MOL0     C 7607   4.825   6.842   8.641  0.8867 -0.4420 -0.0658
  816MOL0     C 7608   4.806   6.923   8.751  0.0418  1.0854  0.2434
  816MOL0     C 7609   4.667   6.956   8.783  0.2678 -0.4446  0.2274
  816MOL0     O 7610   4.567   6.917   8.694 -0.2136 -0.3936 -0.6876
  816MOL0     C 7611   4.435   6.897   8.726  0.8757  0.0243  0.4762
  816MOL0     C 7612   4.347   6.885   8.617 -0.8450 -0.2642  0.8668
  816MOL0     C 7613   4.211   6.863   8.627 -0.0243 -0.0077 -0.3271
  816MOL0     C 7614   4.157   6.855   8.763  0.4058 -0.6822  0.3419
  816MOL0     O 7615   4.022   6.849   8.771 -0.3991  0.0490  0.7140
  816MOL0     C 7616   3.933   6.864   8.658  0.3789  0.5725  0.3133
  816MOL0     C 7617   3.800   6.807   8.703  0.5407 -0.0548  0.4375
  816MOL0     C 7618   3.782   6.664   8.672 -0.2786 -0.1231 -0.7687
  816MOL0     C 7619   3.641   6.607   8.708  0.2839 -0.7941 -0.0642
  816MOL0     C 7620   3.623   6.456   8.736 -0.3890 -1.2058  0.5643
  816MOL0     C 7621   3.718   6.401   8.843 -0.2055 -0.4290  0.0828
  816MOL0     C 7622   3.693   6.251   8.888 -0.1959 -0.0867 -0.1281
  816MOL0     C 7623   3.648   6.151   8.774 -0.8934  0.2805  0.2522
  816MOL0    Cl 7624   3.769   6.157   8.643 -0.2630 -0.1029 -0.5444
  816MOL0     C 7625   4.239   6.867   8.874 -1.0777 -0.7310 -0.0596
  816MOL0     C 7626   4.381   6.878   8.851 -0.8331 -0.0398 -0.3322
  816MOL0     O 7627   4.649   7.033   8.876 -0.1011  0.7447 -0.2174
  816MOL0     C 7628   4.918   6.937   8.838  0.0612 -0.0384 -0.8461
  816MOL0     C 7629   5.048   6.905   8.796  0.7547  0.2950 -0.3147
  816MOL0     N 7630   5.751   7.031   8.640 -1.4657 -0.3647 -0.4289
  816MOL0     N 7631   5.875   7.014   8.606  0.0259 -0.4956 -1.0811
  816MOL0     C 7632   6.936   7.150   8.381  0.1106 -0.6869 -0.1170
  816MOL0     C 7633   7.064   7.165   8.340 -0.3581  1.1555 -0.1628
  816MOL0     C 7634   7.499   7.379   8.326 -0.3167  0.1338 -0.0863
  816MOL0     C 7635   7.547   7.290   8.224 -0.4485 -0.2672  1.0181
  816MOL0     C 7636   7.682   7.304   8.175  0.0722 -0.6800  0.0091
  816MOL0     C 7637   7.760   7.409   8.217  0.1655 -0.3301 -0.0829
  816MOL0     O 7638   7.890   7.443   8.170 -0.0731 -0.4504  0.3106
  816MOL0     C 7639   7.951   7.360   8.072  0.5006  0.4841 -0.2682
  816MOL0     C 7640   8.082   7.422   8.026 -0.1995  0.0957 -0.4814
  816MOL0     C 7641   8.079   7.576   7.998 -0.3258 -0.6259  0.1982
  816MOL0     C 7642   8.202   7.623   7.908 -0.4978 -0.9879  0.3645
  816MOL0     C 7643   8.332   7.584   7.957 -0.2414  0.0785 -0.1871
  816MOL0     C 7644   8.445   7.549   7.994 -0.8297  0.1550  0.5183
  816MOL0     C 7645   7.707   7.496   8.311 -0.8998  0.3493  0.1772
  816MOL0     C 7646   7.587   7.472   8.379 -0.2626  0.6800  0.3541
  816MOL0     H 7647   7.143   7.453   8.475 -0.2644  0.8920 -2.5053
  816MOL0     H 7648   6.916   7.445   8.550  0.7942  0.9552 -0.8721
  816MOL0     H 7649   6.661   7.403   8.460  2.3118 -0.3940 -0.4698
  816MOL0     H 7650   6.717   7.368   8.632  0.3282 -2.1552  1.0080
  816MOL0     H 7651   6.494   7.381   8.651 -0.4026  1.7261 -2.2783
  816MOL0     H 7652   6.554   7.220   8.686  0.5196  1.4761  1.8368
  816MOL0     H 7653   6.496   7.196   8.422  3.1633  3.6880  1.1450
  816MOL0     H 7654   6.381   7.323   8.468  0.3235  1.4319  3.2266
  816MOL0     H 7655   6.399   7.077   8.644  1.0887  2.4791  2.2824
  816MOL0     H 7656   6.281   7.204   8.631  1.6214  2.0843 -1.7890
  816MOL0     H 7657   6.204   6.981   8.540 -0.1308  1.3226  2.5534
  816MOL0     H 7658   6.311   7.017   8.402  0.2809 -0.3557  1.6162
  816MOL0     H 7659   6.178   7.240   8.389  2.5420 -1.0040  1.0822
  816MOL0     H 7660   6.066   7.174   8.513  0.9275 -1.4987  1.9217
  816MOL0     H 7661   5.997   7.140   8.250  1.7371  1.5075 -1.8134
  816MOL0     H 7662   6.141   7.039   8.252 -2.5372  0.9407 -2.1197
  816MOL0     H 7663   6.043   6.885   8.424  0.0441 -3.4113 -4.6401
  816MOL0     H 7664   5.935   6.894   8.297  2.6336 -0.4222 -0.5874
  816MOL0     H 7665   5.716   7.020   8.318 -1.9421  2.9454  0.6689
  816MOL0     H 7666   5.494   7.149   8.447  0.4273  2.0092  2.2973
  816MOL0     H 7667   5.465   7.106   8.610 -2.2499  1.2284 -1.3368
  816MOL0     H 7668   5.496   6.890   8.401 -0.2040  0.9107 -0.6326
  816MOL0     H 7669   5.337   6.964   8.431  0.6304 -1.3779 -1.8949
  816MOL0     H 7670   5.407   6.738   8.558  2.0661  0.5517 -2.0090
  816MOL0     H 7671   5.506   6.848   8.652  1.7065  1.7558 -1.5119
  816MOL0     H 7672   5.272   6.968   8.693  0.0036  0.2764 -2.1186
  816MOL0     H 7673   5.302   6.826   8.782  1.4590 -1.2227 -0.6947
  816MOL0     H 7674   4.964   6.752   8.503  1.5142  1.9467 -0.0576
  816MOL0     H 7675   4.734   6.832   8.583  0.6343 -0.8424  0.3879
  816MOL0     H 7676   4.408   6.894   8.528  0.7217  2.4658  2.0986
  816MOL0     H 7677   4.152   6.860   8.536  0.8131 -1.2212 -0.8536
  816MOL0     H 7678   3.962   6.802   8.573 -0.0428  1.3360 -0.3999
  816MOL0     H 7679   3.929   6.972   8.638  0.8589  0.2705 -1.6773
  816MOL0     H 7680   3.718   6.848   8.643  0.3294 -0.5786  0.3599
  816MOL0     H 7681   3.771   6.828   8.806 -2.2088 -0.7405 -0.1166
  816MOL0     H 7682   3.870   6.619   8.720  1.0787  2.4110 -0.7216
  816MOL0     H 7683   3.798   6.656   8.564  0.5356  1.9241 -0.8430
  816MOL0     H 7684   3.629   6.649   8.809  3.3642 -0.0683  0.0922
  816MOL0     H 7685   3.567   6.649   8.639  1.4994 -2.2157 -2.3166
  816MOL0     H 7686   3.628   6.401   8.642  0.7527  0.8120 -0.6359
  816MOL0     H 7687   3.524   6.440   8.779 -1.0510 -0.8010 -0.7556
  816MOL0     H 7688   3.722   6.468   8.930  0.8478  2.3890 -1.9748
  816MOL0     H 7689   3.822   6.408   8.810 -0.7661  3.0690 -1.3675
  816MOL0     H 7690   3.781   6.211   8.938 -0.6781  0.4658  1.2030
  816MOL0     H 7691   3.612   6.253   8.962  1.1045 -0.3317  1.3501
  816MOL0     H 7692   3.551   6.193   8.743  1.3674  5.1941 -1.2031
  816MOL0     H 7693   3.631   6.048   8.808 -0.1384  0.4229  1.1127
  816MOL0     H 7694   4.197   6.856   8.974 -0.6299  0.0372  0.2212
  816MOL0     H 7695   4.448   6.881   8.937 -1.3178 -0.1237  0.0526
  816MOL0     H 7696   4.892   6.990   8.929 -1.2942  1.8523 -2.2553
  816MOL0     H 7697   5.132   6.939   8.856  0.7505  0.4908 -0.4196
  816MOL0     H 7698   6.877   7.059   8.372 -1.6232  0.3619  0.0493
  816MOL0     H 7699   7.106   7.089   8.275 -0.3538  0.6599  0.4090
  816MOL0     H 7700   7.485   7.213   8.178  0.7515  0.2352 -1.5868
  816MOL0     H 7701   7.709   7.233   8.097  0.7619 -0.7960  0.3451
  816MOL0     H 7702   7.889   7.339   7.984  1.8938  0.9208 -1.3922
  816MOL0     H 7703   7.967   7.263   8.120 -2.0730  0.3568  0.4884
  816MOL0     H 7704   8.159   7.401   8.101  3.1878  3.3892 -2.6397
  816MOL0     H 7705   8.121   7.372   7.936 -2.1835 -0.6119 -0.9926
  816MOL0     H 7706   8.088   7.640   8.086  3.2225 -0.3005 -0.2248
  816MOL0     H 7707   7.996   7.601   7.932 -0.5350 -2.2647 -0.1894
  816MOL0     H 7708   8.195   7.588   7.805 -1.2323  2.0882 -0.7374
  816MOL0     H 7709   8.200   7.732   7.905  0.2963 -0.9989 -0.9808
  816MOL0     H 7710   8.540   7.514   8.030  0.3033  0.1009 -2.3160
  816MOL0     H 7711   7.778   7.574   8.339 -0.6129  0.3221 -0.4537
  816MOL0     H 7712   7.548   7.527   8.463 -1.5160  2.9032 -1.5609
  817MOL0     O 7713   5.061   7.408   3.888  0.6953  0.3256  0.2064
  817MOL0     C 7714   5.096   7.477   3.982  0.3152  0.6569  0.0267
  817MOL0     O 7715   5.014   7.516   4.091  0.1914  0.4660  0.1967
  817MOL0     C 7716   4.911   7.444   4.120 -0.0779  0.7287 -0.0974
  817MOL0     C 7717   4.934   7.320   4.176 -0.2084  0.6624  0.1655
  817MOL0     C 7718   4.825   7.261   4.230  0.1099  0.8067  0.4667
  817MOL0     C 7719   4.693   7.302   4.231  0.2541  0.7289  0.5670
  817MOL0     O 7720   4.593   7.222   4.288 -0.6212  0.1070  0.2786
  817MOL0     C 7721   4.460   7.250   4.248  0.2874 -0.3161 -0.9160
  817MOL0     C 7722   4.404   7.327   4.368  1.2991 -0.0215 -0.2628
  817MOL0     C 7723   4.258   7.354   4.347 -0.8847 -0.6790  0.5535
  817MOL0     C 7724   4.198   7.455   4.458  0.4617  0.2886  0.2230
  817MOL0     C 7725   4.045   7.461   4.449  1.0538 -0.1444 -0.4224
  817MOL0     C 7726   3.972   7.568   4.530  0.0188  0.6365 -0.3286
  817MOL0     C 7727   3.821   7.586   4.490 -0.3537  0.5841 -0.0274
  817MOL0     C 7728   3.766   7.709   4.555  0.3148 -0.2631  0.5599
  817MOL0     N 7729   3.616   7.687   4.568 -0.4739  0.2646  0.1600
  817MOL0     C 7730   3.542   7.794   4.541  0.8260 -0.4911  0.5021
  817MOL0     C 7731   3.421   7.785   4.607  0.1866  0.1495  1.0136
  817MOL0     C 7732   3.291   7.870   4.617 -0.4801 -0.1849  0.1853
  817MOL0     C 7733   3.273   7.981   4.512  0.0304 -0.4414 -0.1531
  817MOL0     C 7734   3.131   8.042   4.510 -0.2160  0.0539 -1.2808
  817MOL0     C 7735   3.087   8.109   4.384 -0.5973 -0.8011  0.2212
  817MOL0     O 7736   2.952   8.169   4.391 -0.0147  0.3882  0.2790
  817MOL0     C 7737   2.850   8.083   4.363  0.7689 -0.5451  0.2806
  817MOL0     C 7738   2.833   8.050   4.231  0.7104 -0.5267  0.0884
  817MOL0     C 7739   2.730   7.961   4.187  0.1344 -0.3820 -0.0424
  817MOL0     C 7740   2.652   7.893   4.287 -1.6851  0.1063  0.8067
  817MOL0     C 7741   2.541   7.803   4.241  0.1277 -0.4820 -0.3925
  817MOL0     O 7742   2.442   7.772   4.334 -0.0681  0.0717  0.3870
  817MOL0     C 7743   2.356   7.671   4.302  0.4149  0.6893 -0.3428
  817MOL0     C 7744   2.235   7.696   4.359  0.9888  0.1207  0.7885
  817MOL0     C 7745   2.124   7.608   4.336 -0.1774 -0.2186  0.0115
  817MOL0     C 7746   2.134   7.492   4.256  0.0447 -0.3669 -0.7307
  817MOL0     O 7747   2.024   7.416   4.226  0.3470 -0.1255  0.1944
  817MOL0     C 7748   2.037   7.283   4.184 -0.8206  0.1197 -0.0289
  817MOL0     C 7749   1.904   7.237   4.165 -0.1298  0.3399  0.3293
  817MOL0     C 7750   1.888   7.091   4.121 -0.1041  0.2954  1.0090
  817MOL0     C 7751   1.729   7.056   4.110 -0.8536  0.3419  0.0488
  817MOL0     C 7752   1.703   6.920   4.048 -0.6885  0.4553 -0.0901
  817MOL0     C 7753   1.551   6.910   4.028  0.5913  0.1856 -0.0155
  817MOL0     C 7754   1.473   6.899   4.161 -1.3890  0.7238 -0.9633
  817MOL0     C 7755   1.317   6.905   4.148  0.9993 -0.3818  1.1805
  817MOL0    Cl 7756   1.219   6.856   4.301  0.2899 -0.4714 -0.2661
  817MOL0     C 7757   2.263   7.466   4.208 -0.2387 -0.0974  0.0298
  817MOL0     C 7758   2.375   7.554   4.229 -0.3443  1.0926 -0.0313
  817MOL0     O 7759   2.537   7.780   4.121 -0.4408  0.8122  0.3142
  817MOL0     C 7760   2.664   7.934   4.418 -0.3410  1.3065  0.4656
  817MOL0     C 7761   2.766   8.026   4.452 -0.0563  0.5404 -0.4032
  817MOL0     N 7762   3.436   7.668   4.674  0.2954 -0.3961 -0.5816
  817MOL0     N 7763   3.544   7.613   4.651 -0.3473  0.2675  0.1148
  817MOL0     C 7764   4.675   7.426   4.177 -0.4892  0.4457  0.4886
  817MOL0     C 7765   4.784   7.495   4.122 -0.0528  0.9667  0.5715
  817MOL0     C 7766   5.223   7.548   3.977  0.1959 -0.5944 -1.3853
  817MOL0     C 7767   5.254   7.660   4.057 -0.4168  1.0392 -0.2021
  817MOL0     C 7768   5.380   7.713   4.055 -0.2422 -0.5183 -0.7056
  817MOL0     C 7769   5.480   7.674   3.966 -0.0207 -0.0699  0.0549
  817MOL0     O 7770   5.596   7.754   3.969  0.4781  0.9435 -0.8490
  817MOL0     C 7771   5.706   7.682   3.911 -0.7209 -0.4803  0.3219
  817MOL0     C 7772   5.844   7.758   3.948  0.3286  0.2446 -0.1181
  817MOL0     C 7773   5.973   7.685   3.895 -0.0564  0.1072  0.2368
  817MOL0     C 7774   6.101   7.775   3.916 -0.0755 -0.3153 -0.1182
  817MOL0     C 7775   6.144   7.803   4.048 -0.5061  0.1028  0.0303
  817MOL0     C 7776   6.163   7.832   4.167  0.3274 -1.0103  0.2903
  817MOL0     C 7777   5.443   7.570   3.883 -1.3531 -0.5903 -0.7030
  817MOL0     C 7778   5.320   7.503   3.895  0.0549 -0.8145 -0.6203
  817MOL0     H 7779   5.035   7.278   4.172  1.2232  3.4855  2.5480
  817MOL0     H 7780   4.836   7.165   4.279 -2.5687 -1.2892 -2.5984
  817MOL0     H 7781   4.397   7.161   4.239 -0.0393 -0.1862 -0.0325
  817MOL0     H 7782   4.442   7.319   4.166 -1.0060  0.9160  0.3454
  817MOL0     H 7783   4.445   7.428   4.379 -3.4326  2.3347 -1.6440
  817MOL0     H 7784   4.404   7.262   4.456 -3.1248  0.3179  0.2165
  817MOL0     H 7785   4.203   7.259   4.342 -0.2675 -0.9608 -2.9499
  817MOL0     H 7786   4.248   7.400   4.249  2.0144 -0.9851  0.0287
  817MOL0     H 7787   4.219   7.414   4.558 -0.1424 -0.3038  0.1148
  817MOL0     H 7788   4.244   7.553   4.445  1.1337 -0.0930 -0.3847
  817MOL0     H 7789   4.003   7.365   4.481  2.2949 -1.1599 -1.7052
  817MOL0     H 7790   4.024   7.474   4.342 -2.3026 -0.8897  0.0426
  817MOL0     H 7791   4.026   7.663   4.525 -2.1189  1.8455 -1.8749
  817MOL0     H 7792   3.974   7.544   4.636 -0.0044  1.2985 -0.1764
  817MOL0     H 7793   3.812   7.603   4.383  1.1167  2.9408  0.1265
  817MOL0     H 7794   3.774   7.491   4.514  1.9032 -1.1487 -1.9686
  817MOL0     H 7795   3.796   7.799   4.501  1.6752 -0.1822  1.3957
  817MOL0     H 7796   3.798   7.720   4.659 -1.8753 -1.9417  1.5047
  817MOL0     H 7797   3.569   7.873   4.471 -3.1958 -0.6621 -1.5227
  817MOL0     H 7798   3.294   7.906   4.720 -2.3855  1.9872 -0.4279
  817MOL0     H 7799   3.202   7.806   4.617 -2.3280  2.2142  1.4058
  817MOL0     H 7800   3.312   7.943   4.417  1.2551  2.2639 -0.8321
  817MOL0     H 7801   3.324   8.073   4.542 -2.8678  1.7550 -1.4065
  817MOL0     H 7802   3.066   7.954   4.509 -0.0760 -0.0476 -1.5138
  817MOL0     H 7803   3.124   8.110   4.595 -0.2386 -0.8884 -0.5039
  817MOL0     H 7804   3.104   8.050   4.293 -0.4229  0.6525 -0.7172
  817MOL0     H 7805   3.157   8.192   4.376 -0.8192 -0.6993 -0.8113
  817MOL0     H 7806   2.893   8.106   4.161 -0.2052 -0.3976 -0.6133
  817MOL0     H 7807   2.708   7.952   4.081 -0.6152  1.0734 -0.0366
  817MOL0     H 7808   2.223   7.778   4.429 -2.5784 -2.0897  3.1038
  817MOL0     H 7809   2.033   7.626   4.391 -0.7774 -2.0225 -0.3118
  817MOL0     H 7810   2.084   7.232   4.269 -0.3423 -0.4091 -0.6072
  817MOL0     H 7811   2.084   7.274   4.086 -1.7136  1.6780 -0.6274
  817MOL0     H 7812   1.843   7.289   4.090 -1.2283 -1.0867  0.1904
  817MOL0     H 7813   1.858   7.252   4.262 -2.9194 -1.9613 -0.5062
  817MOL0     H 7814   1.942   7.024   4.189  0.9624 -0.4466 -0.5271
  817MOL0     H 7815   1.937   7.079   4.025  1.4474 -1.6003  1.9702
  817MOL0     H 7816   1.696   7.058   4.214 -0.7874 -1.0070  0.1054
  817MOL0     H 7817   1.677   7.137   4.059 -2.3967  2.1917  4.1350
  817MOL0     H 7818   1.734   6.844   4.121 -2.5215  2.7152  3.3632
  817MOL0     H 7819   1.759   6.907   3.956  3.7375 -0.7456  2.4860
  817MOL0     H 7820   1.536   6.816   3.974  3.2277 -1.3636  1.7265
  817MOL0     H 7821   1.500   6.988   3.972 -4.1531 -1.8764  0.9455
  817MOL0     H 7822   1.500   6.801   4.200  4.7060  3.0286  1.7651
  817MOL0     H 7823   1.498   6.979   4.231  0.2305  1.7866 -2.6722
  817MOL0     H 7824   1.286   6.844   4.062 -1.6973  0.5367  1.3962
  817MOL0     H 7825   1.279   7.005   4.125 -1.2882 -1.9717 -3.2050
  817MOL0     H 7826   2.267   7.373   4.152 -1.8326 -0.1757 -0.0027
  817MOL0     H 7827   2.462   7.521   4.174 -0.4436 -1.3341  1.1489
  817MOL0     H 7828   2.602   7.889   4.494  1.2950 -3.9031 -0.8529
  817MOL0     H 7829   2.783   8.044   4.557  2.8950 -1.6512 -0.3870
  817MOL0     H 7830   4.578   7.475   4.186 -0.8027 -0.3896  2.0824
  817MOL0     H 7831   4.761   7.599   4.101  1.6548  1.0290 -1.3128
  817MOL0     H 7832   5.189   7.687   4.140  1.5288  0.8146  1.4834
  817MOL0     H 7833   5.399   7.794   4.125 -2.5894  1.2020 -1.9136
  817MOL0     H 7834   5.695   7.676   3.803 -2.0345 -0.8745  0.4673
  817MOL0     H 7835   5.712   7.579   3.948  1.6743 -0.4780  0.1033
  817MOL0     H 7836   5.837   7.851   3.892  3.0996 -0.1016 -1.2311
  817MOL0     H 7837   5.845   7.772   4.057  3.5160 -3.9413  0.6770
  817MOL0     H 7838   5.964   7.658   3.790 -1.4858  1.9612 -0.1609
  817MOL0     H 7839   6.000   7.596   3.952  0.9492 -0.7153 -1.4526
  817MOL0     H 7840   6.186   7.726   3.867  1.3719  1.0764  0.8913
  817MOL0     H 7841   6.097   7.866   3.855  0.7421  2.1596  3.2165
  817MOL0     H 7842   6.168   7.867   4.268  1.6423  0.0930 -0.1329
  817MOL0     H 7843   5.526   7.522   3.830 -1.1076 -3.1729  1.7833
  817MOL0     H 7844   5.311   7.410   3.839  2.9955 -2.1504  0.8958
  818MOL0     O 7845   6.418  10.868   7.979 -0.4045  0.1411 -0.5392
  818MOL0     C 7846   6.476  10.810   8.065  0.0062  0.3128 -0.1546
  818MOL0     O 7847   6.412  10.735   8.156 -0.1922 -0.2896 -0.2156
  818MOL0     C 7848   6.271  10.737   8.175 -0.8884 -0.8520 -0.0893
  818MOL0     C 7849   6.227  10.757   8.297  0.6512 -0.3407 -0.3062
  818MOL0     C 7850   6.093  10.729   8.325  0.3985 -0.0993 -0.2299
  818MOL0     C 7851   6.005  10.723   8.222  0.2211  1.1401 -0.8425
  818MOL0     O 7852   5.867  10.709   8.244 -0.5245  0.0658 -0.0468
  818MOL0     C 7853   5.817  10.675   8.368  0.6540  0.5863 -0.0578
  818MOL0     C 7854   5.667  10.669   8.333  0.5904 -0.8523 -0.0799
  818MOL0     C 7855   5.596  10.588   8.439 -0.3535 -0.5637 -0.3302
  818MOL0     C 7856   5.449  10.577   8.408  0.4205  0.4387 -0.0715
  818MOL0     C 7857   5.368  10.511   8.522  0.6166 -0.6340 -0.0400
  818MOL0     C 7858   5.379  10.352   8.500  0.0143 -0.6411  0.9997
  818MOL0     C 7859   5.300  10.281   8.612 -0.4762 -0.0005  0.7705
  818MOL0     C 7860   5.351  10.140   8.622 -0.2966  0.3627  0.9511
  818MOL0     N 7861   5.288  10.067   8.724  0.5632  0.6768 -0.7478
  818MOL0     C 7862   5.168  10.004   8.714  0.5905  0.0795  0.3776
  818MOL0     C 7863   5.144   9.950   8.831  0.0894  0.1325 -0.0130
  818MOL0     C 7864   5.027   9.863   8.866 -0.8343 -0.6635 -0.3163
  818MOL0     C 7865   5.009   9.757   8.758  0.1932 -0.4341 -0.1062
  818MOL0     C 7866   4.964   9.625   8.801  0.7941  0.3779  0.7377
  818MOL0     C 7867   4.823   9.632   8.847  0.4906 -0.5897  0.3772
  818MOL0     O 7868   4.740   9.691   8.747  0.0274  0.0430  0.0274
  818MOL0     C 7869   4.608   9.674   8.747 -0.5229  0.0396  0.9639
  818MOL0     C 7870   4.538   9.720   8.634  1.0914 -0.1471  0.4146
  818MOL0     C 7871   4.397   9.701   8.615  0.3899 -0.6677 -0.4955
  818MOL0     C 7872   4.319   9.642   8.720 -0.4352 -0.1338 -0.0007
  818MOL0     C 7873   4.175   9.614   8.704  0.2017  0.6431 -0.3403
  818MOL0     O 7874   4.120   9.536   8.792  0.8386  0.0611 -0.6259
  818MOL0     C 7875   4.000   9.579   8.842  0.2284 -0.1388 -0.3727
  818MOL0     C 7876   3.976   9.707   8.899  0.0555  0.3454  0.3096
  818MOL0     C 7877   3.851   9.743   8.948 -0.1397 -0.1814  0.2858
  818MOL0     C 7878   3.747   9.653   8.944  0.0791 -0.1045 -0.2436
  818MOL0     O 7879   3.626   9.693   9.003  0.6080  0.1193  0.5210
  818MOL0     C 7880   3.550   9.784   8.922 -0.6744  0.1178 -0.1005
  818MOL0     C 7881   3.466   9.725   8.807  0.0295  0.9386  0.1010
  818MOL0     C 7882   3.558   9.719   8.674  0.9853 -0.8284 -0.2839
  818MOL0     C 7883   3.488   9.653   8.557  0.4187  1.4853  0.5877
  818MOL0     C 7884   3.358   9.718   8.511  0.3859 -0.6900  0.1412
  818MOL0     C 7885   3.319   9.659   8.369  0.1866  0.1912 -0.2399
  818MOL0     C 7886   3.181   9.714   8.334 -0.5864 -0.5145 -0.7928
  818MOL0     C 7887   3.163   9.735   8.184 -1.0661 -0.1004 -0.1331
  818MOL0    Cl 7888   3.052   9.861   8.148 -0.5785 -0.2645 -0.2256
  818MOL0     C 7889   3.774   9.523   8.909 -0.4565 -0.1375  0.7089
  818MOL0     C 7890   3.895   9.486   8.843  0.7509 -0.0713  0.2472
  818MOL0     O 7891   4.120   9.669   8.614 -1.1721  0.1373  0.3104
  818MOL0     C 7892   4.398   9.588   8.823  0.1080 -0.0019 -1.0308
  818MOL0     C 7893   4.529   9.602   8.842 -0.8335 -0.1181  0.2750
  818MOL0     N 7894   5.254   9.977   8.914 -0.7769  0.4542 -0.1104
  818MOL0     N 7895   5.333  10.051   8.849  0.4610 -0.8448 -0.3582
  818MOL0     C 7896   6.056  10.713   8.092 -0.4168  0.2923  0.6305
  818MOL0     C 7897   6.183  10.715   8.069 -0.2525 -0.8834 -0.0888
  818MOL0     C 7898   6.627  10.801   8.065  0.0308 -0.1658  0.6287
  818MOL0     C 7899   6.700  10.865   7.963 -0.3115 -0.4141  0.6689
  818MOL0     C 7900   6.841  10.836   7.958 -0.2410  0.1305 -0.0912
  818MOL0     C 7901   6.901  10.751   8.051  0.7906  0.0520 -0.1301
  818MOL0     O 7902   7.035  10.729   8.059 -0.1006 -0.3803 -0.4352
  818MOL0     C 7903   7.129  10.798   7.974  0.5113  0.3408 -0.1608
  818MOL0     C 7904   7.138  10.701   7.858  0.0378 -1.1858 -0.2053
  818MOL0     C 7905   7.229  10.581   7.890  0.4151  0.4743 -0.2039
  818MOL0     C 7906   7.300  10.530   7.770 -0.5167  0.0828 -1.0023
  818MOL0     C 7907   7.398  10.627   7.716 -0.0244  0.6004  0.9181
  818MOL0     C 7908   7.470  10.706   7.665 -0.8015  0.0194 -0.9073
  818MOL0     C 7909   6.822  10.703   8.151 -0.1169  0.0838 -0.3202
  818MOL0     C 7910   6.689  10.736   8.168 -0.8523 -0.1060 -0.6938
  818MOL0     H 7911   6.295  10.745   8.381  0.3545 -1.1633 -0.1786
  818MOL0     H 7912   6.057  10.725   8.427 -1.6594 -0.4922 -0.9214
  818MOL0     H 7913   5.841  10.742   8.452 -3.0962  1.1142  0.8055
  818MOL0     H 7914   5.860  10.581   8.402 -0.0499 -0.5651 -2.2026
  818MOL0     H 7915   5.651  10.620   8.237 -2.4570 -0.2173  0.0098
  818MOL0     H 7916   5.629  10.772   8.325  1.0995 -0.7853 -3.4377
  818MOL0     H 7917   5.606  10.637   8.536 -1.8183 -0.1692 -0.3566
  818MOL0     H 7918   5.654  10.495   8.436  0.7725 -0.0346  2.0864
  818MOL0     H 7919   5.420  10.681   8.393 -0.7715  0.6588  3.1589
  818MOL0     H 7920   5.439  10.524   8.313 -0.6295 -0.4354  0.5052
  818MOL0     H 7921   5.261  10.529   8.520  0.6180 -0.6330 -0.1995
  818MOL0     H 7922   5.394  10.553   8.620 -2.9184 -1.0112  1.1840
  818MOL0     H 7923   5.483  10.319   8.495 -0.0187 -0.5472 -0.9380
  818MOL0     H 7924   5.331  10.333   8.404 -0.4856  0.5883  0.9928
  818MOL0     H 7925   5.310  10.331   8.709  0.7960 -1.8420  1.6411
  818MOL0     H 7926   5.197  10.273   8.575 -0.0786 -0.5051 -0.2638
  818MOL0     H 7927   5.459  10.137   8.638 -0.5175 -0.5024  2.3720
  818MOL0     H 7928   5.333  10.094   8.524  2.3400  2.3132 -0.5995
  818MOL0     H 7929   5.100   9.998   8.630  0.8665 -1.0822  0.2198
  818MOL0     H 7930   4.933   9.917   8.874 -1.3158 -1.1399 -2.1080
  818MOL0     H 7931   5.039   9.822   8.966 -0.0173  1.0814  0.3398
  818MOL0     H 7932   5.103   9.734   8.708  0.9436  1.1846  0.5096
  818MOL0     H 7933   4.942   9.799   8.681 -1.2265  0.7436  1.6654
  818MOL0     H 7934   4.970   9.557   8.716 -2.1078  1.6778 -0.6384
  818MOL0     H 7935   5.030   9.578   8.874 -0.7652 -1.9888  0.7260
  818MOL0     H 7936   4.812   9.689   8.940 -1.1610 -2.0191  1.1099
  818MOL0     H 7937   4.798   9.530   8.874  0.6662 -0.5379  0.7405
  818MOL0     H 7938   4.585   9.781   8.558 -1.5980  2.3285  0.5359
  818MOL0     H 7939   4.347   9.746   8.529  0.0595 -0.9176 -0.4322
  818MOL0     H 7940   4.057   9.779   8.896  1.4374 -1.2029 -1.4208
  818MOL0     H 7941   3.837   9.847   8.977 -2.3876 -0.4036  0.1641
  818MOL0     H 7942   3.612   9.866   8.886  2.0389 -1.7032  0.1077
  818MOL0     H 7943   3.482   9.834   8.992 -1.4890  2.5291 -2.4379
  818MOL0     H 7944   3.379   9.787   8.779 -3.5176 -2.6124  2.2671
  818MOL0     H 7945   3.433   9.625   8.836  2.3436  0.3109  0.7293
  818MOL0     H 7946   3.650   9.672   8.710  0.6213 -0.5006  1.1032
  818MOL0     H 7947   3.587   9.822   8.653  0.0990 -0.8058 -1.4870
  818MOL0     H 7948   3.557   9.657   8.472  1.3297 -2.0068  1.0144
  818MOL0     H 7949   3.453   9.553   8.584  0.8264  1.7527  2.2374
  818MOL0     H 7950   3.385   9.824   8.505 -1.2712 -0.3331 -1.9700
  818MOL0     H 7951   3.283   9.694   8.587  1.2330 -0.5000  1.0620
  818MOL0     H 7952   3.306   9.550   8.374 -0.5435  0.3036  0.7425
  818MOL0     H 7953   3.403   9.680   8.303 -1.1840  0.6142 -1.9077
  818MOL0     H 7954   3.103   9.643   8.362 -0.1484 -0.9169 -0.5929
  818MOL0     H 7955   3.152   9.801   8.395 -1.2343 -0.5402 -1.0546
  818MOL0     H 7956   3.130   9.643   8.136  2.1865 -2.8921  2.4621
  818MOL0     H 7957   3.255   9.763   8.132 -1.7773  0.1785 -1.2635
  818MOL0     H 7958   3.701   9.444   8.924  0.0820 -0.5308  1.3117
  818MOL0     H 7959   3.906   9.386   8.802  1.8078  0.2044 -0.1756
  818MOL0     H 7960   4.351   9.531   8.902 -1.1567 -0.4059 -2.0349
  818MOL0     H 7961   4.566   9.537   8.921 -0.4844 -4.6777 -3.2164
  818MOL0     H 7962   5.989  10.712   8.006  0.3608 -2.0228  0.0031
  818MOL0     H 7963   6.233  10.709   7.972 -0.3851 -0.9213 -0.1548
  818MOL0     H 7964   6.651  10.929   7.891 -0.8843 -2.3155 -0.7145
  818MOL0     H 7965   6.900  10.884   7.881 -0.6392  0.2769 -0.3089
  818MOL0     H 7966   7.230  10.804   8.015  0.1616  1.6909  0.5333
  818MOL0     H 7967   7.100  10.898   7.940 -0.5724  0.5254  1.2280
  818MOL0     H 7968   7.041  10.660   7.827  0.5040 -1.0702 -1.9585
  818MOL0     H 7969   7.188  10.756   7.777 -1.4137 -1.4471 -1.3330
  818MOL0     H 7970   7.176  10.497   7.936 -0.1143  0.9715  0.1160
  818MOL0     H 7971   7.296  10.609   7.973 -1.7490  0.2439  1.7332
  818MOL0     H 7972   7.355  10.439   7.794  0.0474  0.9973  1.4356
  818MOL0     H 7973   7.232  10.497   7.691 -2.5871 -0.0100  0.7224
  818MOL0     H 7974   7.543  10.779   7.636 -0.1911  1.1410  2.8791
  818MOL0     H 7975   6.862  10.640   8.229 -0.9277  0.9313  0.8260
  818MOL0     H 7976   6.644  10.701   8.260  3.7359 -0.9124  1.5005
  819MOL0     O 7977   5.673   8.583   7.688  0.3039  0.0814 -0.6219
  819MOL0     C 7978   5.672   8.701   7.657  0.1488  0.0658  0.1103
  819MOL0     O 7979   5.554   8.769   7.648  0.3030  0.2892 -0.2665
  819MOL0     C 7980   5.450   8.748   7.740  0.2606 -0.0486  0.5895
  819MOL0     C 7981   5.463   8.687   7.864 -0.0338  1.6945  0.4577
  819MOL0     C 7982   5.358   8.655   7.942  0.6307  0.1504 -0.2465
  819MOL0     C 7983   5.232   8.678   7.903 -0.4210  0.8507  0.5089
  819MOL0     O 7984   5.124   8.647   7.984  0.3022 -0.7988 -0.0418
  819MOL0     C 7985   4.997   8.614   7.929 -0.8725  0.2952  1.1827
  819MOL0     C 7986   4.899   8.551   8.027 -0.1999  0.3079 -0.2698
  819MOL0     C 7987   4.764   8.540   7.963  0.5189  0.2258  0.6022
  819MOL0     C 7988   4.655   8.451   8.042 -0.0451 -0.6695 -0.4347
  819MOL0     C 7989   4.693   8.298   8.059  0.1695  0.8229  0.1315
  819MOL0     C 7990   4.559   8.212   8.097  0.5629  0.0771 -0.4810
  819MOL0     C 7991   4.579   8.053   8.093 -1.1180  0.7945 -0.4411
  819MOL0     C 7992   4.692   8.019   8.189  0.0236 -0.0898 -0.3062
  819MOL0     N 7993   4.649   8.039   8.332  0.9868 -0.6421  0.4456
  819MOL0     C 7994   4.618   7.945   8.421  0.2532 -0.2521 -0.5605
  819MOL0     C 7995   4.583   8.014   8.531  1.2000 -0.0561  0.3041
  819MOL0     C 7996   4.521   7.945   8.658 -0.2382  0.4417  1.1804
  819MOL0     C 7997   4.373   7.985   8.674  1.1387  0.5637 -0.1326
  819MOL0     C 7998   4.305   7.911   8.788  0.0343  0.7328  0.0495
  819MOL0     C 7999   4.156   7.933   8.784 -0.0070  0.4120  0.2474
  819MOL0     O 8000   4.133   8.065   8.821 -0.2586 -0.4919 -0.5041
  819MOL0     C 8001   4.003   8.111   8.823 -0.2022  0.3198 -0.3971
  819MOL0     C 8002   3.892   8.026   8.817  0.2410 -1.1370  0.3066
  819MOL0     C 8003   3.758   8.083   8.827 -0.5667  0.0484 -0.0116
  819MOL0     C 8004   3.740   8.216   8.836  0.0941  0.4221 -0.5443
  819MOL0     C 8005   3.602   8.279   8.829 -0.4893  0.1606  0.3045
  819MOL0     O 8006   3.504   8.184   8.820  0.1590  0.7989  0.3409
  819MOL0     C 8007   3.379   8.232   8.842  0.9737  0.0139 -0.6411
  819MOL0     C 8008   3.315   8.327   8.754 -0.4858 -0.2390  0.5723
  819MOL0     C 8009   3.184   8.375   8.769 -0.1833 -0.1489  0.8615
  819MOL0     C 8010   3.116   8.320   8.875 -0.7619  0.3335 -0.0916
  819MOL0     O 8011   2.987   8.355   8.909  0.2024 -0.6079 -0.1496
  819MOL0     C 8012   2.922   8.466   8.842  0.3396 -0.0540 -0.0447
  819MOL0     C 8013   2.779   8.437   8.879 -0.4578 -0.2323  0.4604
  819MOL0     C 8014   2.678   8.528   8.814  0.8071 -0.4140  0.8380
  819MOL0     C 8015   2.543   8.469   8.829 -0.0582  0.5495  0.0818
  819MOL0     C 8016   2.473   8.513   8.956  0.6507  0.1006 -0.4143
  819MOL0     C 8017   2.317   8.475   8.950  0.5140  0.6858  0.4942
  819MOL0     C 8018   2.238   8.562   9.035 -0.6049  0.2594 -0.4221
  819MOL0     C 8019   2.088   8.520   9.029 -0.6744 -0.7455  0.0736
  819MOL0    Cl 8020   2.051   8.356   9.107 -0.4017 -0.3049  0.0515
  819MOL0     C 8021   3.174   8.225   8.960 -0.4938  0.4268  0.3612
  819MOL0     C 8022   3.308   8.190   8.954 -0.2558  0.0338  0.2111
  819MOL0     O 8023   3.584   8.402   8.841 -0.3358  0.2409  0.1835
  819MOL0     C 8024   3.851   8.295   8.856  0.1180 -1.3110  0.4335
  819MOL0     C 8025   3.980   8.242   8.855  0.3422 -0.3390 -0.5041
  819MOL0     N 8026   4.602   8.154   8.513 -0.0655  0.1550 -0.0222
  819MOL0     N 8027   4.639   8.162   8.396  0.3035  0.4182 -0.9886
  819MOL0     C 8028   5.213   8.739   7.778  0.7415 -0.5549 -0.4684
  819MOL0     C 8029   5.323   8.784   7.704  0.6668  0.2373  1.5467
  819MOL0     C 8030   5.807   8.758   7.627 -0.8775 -0.0546  0.4383
  819MOL0     C 8031   5.840   8.887   7.636  0.0408 -0.2769 -0.1735
  819MOL0     C 8032   5.976   8.937   7.618 -0.8691  0.1707 -0.9513
  819MOL0     C 8033   6.084   8.841   7.602  0.3924  0.0165 -0.0842
  819MOL0     O 8034   6.207   8.900   7.587  0.6085  0.3944  0.0834
  819MOL0     C 8035   6.318   8.817   7.596  0.4408  0.2871  0.0127
  819MOL0     C 8036   6.445   8.889   7.557  0.7626 -0.3879  0.0117
  819MOL0     C 8037   6.432   8.922   7.401  0.3884  0.9622 -0.9391
  819MOL0     C 8038   6.445   9.074   7.383  0.5950 -0.0056  0.4821
  819MOL0     C 8039   6.333   9.151   7.430  0.3292  1.5175 -0.5956
  819MOL0     C 8040   6.221   9.208   7.450 -0.0647 -0.1591 -0.1251
  819MOL0     C 8041   6.050   8.708   7.599 -0.1387  1.0946  0.0117
  819MOL0     C 8042   5.919   8.672   7.610 -0.0360  0.3873  0.8153
  819MOL0     H 8043   5.564   8.667   7.898  0.7125 -0.7637 -2.6957
  819MOL0     H 8044   5.367   8.597   8.034 -3.1169 -1.1029 -0.5262
  819MOL0     H 8045   5.015   8.546   7.845  0.5980 -0.3415  1.9809
  819MOL0     H 8046   4.953   8.707   7.891  1.9109  0.5293 -1.8458
  819MOL0     H 8047   4.879   8.622   8.107 -2.4641  0.3755 -0.8294
  819MOL0     H 8048   4.924   8.452   8.067  0.3985  0.5869  0.0614
  819MOL0     H 8049   4.757   8.484   7.869 -2.6247  0.8534  0.3618
  819MOL0     H 8050   4.713   8.634   7.942  5.1673  2.6113 -1.4631
  819MOL0     H 8051   4.630   8.490   8.141 -3.0887 -2.9487 -0.1665
  819MOL0     H 8052   4.563   8.461   7.984  0.1365  0.4983 -0.5437
  819MOL0     H 8053   4.766   8.282   8.138  1.0875  0.2807 -0.8033
  819MOL0     H 8054   4.746   8.266   7.969 -0.7107 -0.4144  0.0357
  819MOL0     H 8055   4.486   8.243   8.022  1.3577  1.0656 -0.8717
  819MOL0     H 8056   4.515   8.240   8.193 -3.1881 -6.0853  0.1194
  819MOL0     H 8057   4.486   8.007   8.127  0.0036 -0.4553  1.0696
  819MOL0     H 8058   4.607   8.010   7.997  2.9808 -0.0675  0.9310
  819MOL0     H 8059   4.785   8.070   8.162  0.6950 -0.8486  0.4922
  819MOL0     H 8060   4.720   7.913   8.181 -0.1383 -0.3185  1.5907
  819MOL0     H 8061   4.609   7.838   8.404 -1.6546 -0.1184 -0.6994
  819MOL0     H 8062   4.575   7.974   8.748 -0.0028 -0.0043  1.1868
  819MOL0     H 8063   4.543   7.838   8.645  1.7297  0.7363  1.8537
  819MOL0     H 8064   4.325   7.963   8.578  1.1884  0.2263 -0.0809
  819MOL0     H 8065   4.359   8.090   8.700  0.2754  0.7385 -1.2234
  819MOL0     H 8066   4.328   7.808   8.760 -1.9671  0.4192 -0.6216
  819MOL0     H 8067   4.357   7.938   8.880  1.4068  2.4553 -1.1789
  819MOL0     H 8068   4.103   7.862   8.849 -1.2961  0.6549 -0.5076
  819MOL0     H 8069   4.121   7.923   8.681  1.4326  3.4224 -0.6651
  819MOL0     H 8070   3.907   7.920   8.800 -1.7622 -1.4994  0.5257
  819MOL0     H 8071   3.682   8.006   8.814 -1.8404  0.9995  1.4131
  819MOL0     H 8072   3.387   8.365   8.682  1.1676 -1.4236  1.5226
  819MOL0     H 8073   3.144   8.449   8.701  2.4012 -2.1505 -3.2669
  819MOL0     H 8074   2.933   8.468   8.733 -0.3008  0.0996 -0.1099
  819MOL0     H 8075   2.965   8.561   8.874  1.9440 -0.4772 -0.8585
  819MOL0     H 8076   2.756   8.438   8.986  0.3204 -0.4186  0.6379
  819MOL0     H 8077   2.750   8.335   8.852 -2.1495  0.5917 -1.0720
  819MOL0     H 8078   2.695   8.537   8.707 -3.0480  2.5009  0.2449
  819MOL0     H 8079   2.694   8.634   8.837 -0.3811  0.0993 -0.5121
  819MOL0     H 8080   2.483   8.501   8.744  1.3746  1.3541 -0.6571
  819MOL0     H 8081   2.547   8.359   8.832  0.3153  0.5703  0.4803
  819MOL0     H 8082   2.472   8.623   8.961 -2.3413  0.1457 -0.1327
  819MOL0     H 8083   2.524   8.473   9.044  2.7198  2.9894 -0.1411
  819MOL0     H 8084   2.303   8.369   8.977  0.5723  0.5119 -0.1460
  819MOL0     H 8085   2.288   8.483   8.845  1.6657 -0.5119  0.0527
  819MOL0     H 8086   2.274   8.562   9.138  2.9818  2.8084 -1.4703
  819MOL0     H 8087   2.256   8.664   8.999 -0.3044 -0.1073 -1.3348
  819MOL0     H 8088   2.055   8.511   8.925  0.0633 -0.1654 -0.2204
  819MOL0     H 8089   2.023   8.596   9.074  1.0432 -0.1820  1.7671
  819MOL0     H 8090   3.099   8.185   9.027 -1.7348 -0.9868 -1.7248
  819MOL0     H 8091   3.351   8.119   9.024 -0.1118  2.1610  2.3790
  819MOL0     H 8092   3.846   8.402   8.872  2.4941 -0.9023 -1.0680
  819MOL0     H 8093   4.061   8.306   8.887 -1.0081  0.2754  1.9978
  819MOL0     H 8094   5.114   8.760   7.739  0.8939 -0.8972 -1.0572
  819MOL0     H 8095   5.313   8.836   7.610  0.4499 -2.8567 -0.2917
  819MOL0     H 8096   5.761   8.957   7.662 -1.8758 -1.0163 -3.4829
  819MOL0     H 8097   6.000   9.042   7.625  0.5885 -0.1552 -0.8480
  819MOL0     H 8098   6.311   8.728   7.533  0.7635  1.2654 -1.4792
  819MOL0     H 8099   6.316   8.775   7.697 -0.2020 -1.5103 -0.7085
  819MOL0     H 8100   6.443   8.980   7.618 -2.2791 -0.8695  0.8264
  819MOL0     H 8101   6.532   8.824   7.573  1.2508 -0.3183 -2.1203
  819MOL0     H 8102   6.343   8.885   7.350  1.1553 -1.0267 -0.8913
  819MOL0     H 8103   6.517   8.866   7.362  0.2439 -1.7329  2.2242
  819MOL0     H 8104   6.541   9.101   7.427 -0.3132 -0.5337  2.9776
  819MOL0     H 8105   6.453   9.092   7.275  2.1675  2.6408  0.9549
  819MOL0     H 8106   6.129   9.263   7.458  0.6352  0.7824  2.1716
  819MOL0     H 8107   6.131   8.635   7.595  0.4213  1.3699  3.3027
  819MOL0     H 8108   5.906   8.564   7.614  1.9466 -0.0793 -2.1895
  820MOL0     O 8109   4.608   5.250   7.547  0.5621 -0.2607 -0.0842
  820MOL0     C 8110   4.667   5.224   7.441 -0.2097  0.4145 -0.3232
  820MOL0     O 8111   4.605   5.187   7.329 -0.7522  0.0286 -0.5564
  820MOL0     C 8112   4.471   5.148   7.318 -0.1543  0.7763 -0.5593
  820MOL0     C 8113   4.365   5.214   7.379 -0.5652  0.0232 -0.3482
  820MOL0     C 8114   4.231   5.199   7.341  0.2241  0.0257  0.1266
  820MOL0     C 8115   4.208   5.115   7.229  0.9686  0.5982  0.0279
  820MOL0     O 8116   4.082   5.088   7.184  0.2818 -0.3127 -0.1397
  820MOL0     C 8117   3.967   5.160   7.240  0.2642  0.2081  0.4620
  820MOL0     C 8118   3.838   5.083   7.212  0.3207 -0.9096  0.0065
  820MOL0     C 8119   3.719   5.178   7.223  0.7606 -0.6398 -0.2370
  820MOL0     C 8120   3.581   5.109   7.211  0.0263  0.4487  0.7450
  820MOL0     C 8121   3.469   5.201   7.265 -0.4212  0.3694  0.3204
  820MOL0     C 8122   3.339   5.118   7.263 -0.8231  0.8339 -0.1922
  820MOL0     C 8123   3.202   5.174   7.325  0.0568 -0.3550  0.1490
  820MOL0     C 8124   3.222   5.248   7.463  0.2822  0.3471  0.2625
  820MOL0     N 8125   3.097   5.309   7.517 -0.2307  0.4872 -0.3168
  820MOL0     C 8126   3.029   5.264   7.626  0.4966 -0.8092  0.1894
  820MOL0     C 8127   2.926   5.355   7.641 -0.2939  0.4012 -0.0513
  820MOL0     C 8128   2.827   5.359   7.756 -0.0326  0.6568  0.3615
  820MOL0     C 8129   2.698   5.430   7.702  0.0453  0.7266  0.3847
  820MOL0     C 8130   2.573   5.411   7.798 -0.1112 -0.3247 -0.0478
  820MOL0     C 8131   2.477   5.524   7.787  0.5248 -1.0396  0.7200
  820MOL0     O 8132   2.374   5.515   7.878  0.0283  0.0129  0.9231
  820MOL0     C 8133   2.261   5.445   7.843  0.4227  0.2528 -0.1196
  820MOL0     C 8134   2.179   5.396   7.954  0.5858 -0.5206  0.0971
  820MOL0     C 8135   2.068   5.318   7.926 -0.3801  0.8730  0.1241
  820MOL0     C 8136   2.030   5.274   7.797 -0.3947 -0.6363  0.1085
  820MOL0     C 8137   1.917   5.179   7.773  0.7458  0.8968  0.1199
  820MOL0     O 8138   1.868   5.113   7.888  0.2208  0.3674  0.1985
  820MOL0     C 8139   1.772   5.017   7.870  0.0470  0.2362 -1.1614
  820MOL0     C 8140   1.804   4.883   7.886 -0.2475  0.4221  1.1920
  820MOL0     C 8141   1.702   4.787   7.879 -0.1488 -0.5601  0.3035
  820MOL0     C 8142   1.571   4.833   7.866  0.1923 -0.0055  0.3366
  820MOL0     O 8143   1.458   4.752   7.877  0.0288 -0.2545  0.5513
  820MOL0     C 8144   1.472   4.618   7.920  0.1803  0.2310 -0.0951
  820MOL0     C 8145   1.336   4.567   7.975  0.1587  0.2693 -0.1821
  820MOL0     C 8146   1.232   4.565   7.867  0.5304  0.7474  0.2766
  820MOL0     C 8147   1.099   4.525   7.925  0.0183  0.9402  0.1540
  820MOL0     C 8148   1.043   4.632   8.016  0.1398 -0.0306 -0.2781
  820MOL0     C 8149   0.911   4.588   8.058  0.4241 -0.1279  0.1609
  820MOL0     C 8150   0.849   4.700   8.145 -0.3671 -0.1603 -0.2702
  820MOL0     C 8151   0.733   4.634   8.215 -1.2359  0.9678  0.4516
  820MOL0    Cl 8152   0.600   4.598   8.102 -0.1790  0.1103 -0.0982
  820MOL0     C 8153   1.542   4.965   7.843  0.2202  0.4528  0.2839
  820MOL0     C 8154   1.649   5.059   7.842  0.2329  0.9232 -0.4127
  820MOL0     O 8155   1.879   5.155   7.654 -0.0878 -0.2598 -0.0731
  820MOL0     C 8156   2.105   5.325   7.691  0.1285 -0.6360  0.7060
  820MOL0     C 8157   2.215   5.409   7.711  0.6509 -0.2734  0.3628
  820MOL0     N 8158   2.935   5.453   7.544  0.6809  0.4806 -0.1959
  820MOL0     N 8159   3.033   5.418   7.466 -0.0938  0.7646 -0.0979
  820MOL0     C 8160   4.313   5.048   7.164 -0.4482 -0.6532 -1.0291
  820MOL0     C 8161   4.442   5.067   7.207 -0.4176 -0.6189  0.2155
  820MOL0     C 8162   4.815   5.227   7.440 -1.0833 -0.8569  1.0182
  820MOL0     C 8163   4.887   5.213   7.320 -0.1332 -0.1560  0.6205
  820MOL0     C 8164   5.025   5.222   7.313 -0.3668  0.3825  0.5200
  820MOL0     C 8165   5.095   5.246   7.437 -0.3395 -0.2698 -0.4446
  820MOL0     O 8166   5.232   5.257   7.435  0.2355 -0.4732 -0.3179
  820MOL0     C 8167   5.313   5.246   7.555  0.0552 -0.6656  0.5122
  820MOL0     C 8168   5.459   5.244   7.499 -0.2834  0.5399  0.4580
  820MOL0     C 8169   5.503   5.382   7.492  0.4268 -0.3957 -0.1918
  820MOL0     C 8170   5.642   5.407   7.475  0.2803  0.2390  0.0077
  820MOL0     C 8171   5.664   5.552   7.512  0.0582 -0.2480  0.1644
  820MOL0     C 8172   5.674   5.673   7.521  0.0538 -0.5818 -1.1549
  820MOL0     C 8173   5.024   5.256   7.554 -0.3548 -0.8665  0.1259
  820MOL0     C 8174   4.884   5.245   7.558 -0.4761  0.5862  0.4989
  820MOL0     H 8175   4.394   5.282   7.458  2.9877 -1.8768  0.1648
  820MOL0     H 8176   4.156   5.260   7.390 -0.7260  0.6202 -1.9347
  820MOL0     H 8177   3.964   5.259   7.193  1.0450  0.4337  0.8857
  820MOL0     H 8178   3.986   5.169   7.347  0.9401 -0.8955  0.4435
  820MOL0     H 8179   3.827   5.006   7.289 -0.9536 -1.1820 -0.4314
  820MOL0     H 8180   3.845   5.048   7.108  0.3142  1.5956 -0.9140
  820MOL0     H 8181   3.742   5.254   7.148 -1.1049 -0.4884 -0.7035
  820MOL0     H 8182   3.716   5.219   7.324 -2.3735 -1.0512 -0.0820
  820MOL0     H 8183   3.555   5.079   7.109  3.9179 -2.3255  0.3232
  820MOL0     H 8184   3.593   5.013   7.262  3.9524 -0.3573 -1.2929
  820MOL0     H 8185   3.461   5.290   7.202 -1.1024 -0.1525 -0.3560
  820MOL0     H 8186   3.479   5.219   7.372 -1.7600 -0.3068  0.5761
  820MOL0     H 8187   3.351   5.027   7.321  2.3792  1.1050 -0.2370
  820MOL0     H 8188   3.323   5.079   7.162 -2.0042 -0.5554  0.5013
  820MOL0     H 8189   3.154   5.239   7.251  2.3970  0.5886 -0.6325
  820MOL0     H 8190   3.140   5.084   7.329  0.1865 -0.4269  0.6118
  820MOL0     H 8191   3.287   5.333   7.440  1.2732 -0.4709 -0.0844
  820MOL0     H 8192   3.281   5.195   7.538  0.4987  2.8602  1.9627
  820MOL0     H 8193   3.052   5.173   7.681 -2.8812 -1.1881  1.2041
  820MOL0     H 8194   2.861   5.398   7.852 -0.6769 -0.7084  1.1608
  820MOL0     H 8195   2.795   5.258   7.782 -1.9974  1.2138  0.2726
  820MOL0     H 8196   2.676   5.377   7.609  0.8787  0.9430  0.0580
  820MOL0     H 8197   2.712   5.535   7.675 -0.4799  0.3769 -1.3571
  820MOL0     H 8198   2.523   5.314   7.789 -1.0587 -0.1349  2.3666
  820MOL0     H 8199   2.609   5.429   7.900 -1.2352  2.6356 -0.0653
  820MOL0     H 8200   2.438   5.506   7.687 -1.1400 -0.3523  1.2176
  820MOL0     H 8201   2.511   5.628   7.779 -1.7292 -0.2915  0.2033
  820MOL0     H 8202   2.217   5.414   8.054  0.0244  0.2417  0.1799
  820MOL0     H 8203   2.017   5.285   8.016  1.0126 -2.0472 -0.0596
  820MOL0     H 8204   1.910   4.863   7.894 -0.3152 -0.5552 -0.0467
  820MOL0     H 8205   1.721   4.681   7.894  0.1189 -0.6775 -0.7345
  820MOL0     H 8206   1.550   4.608   7.996  0.4147 -0.3205 -0.3992
  820MOL0     H 8207   1.503   4.561   7.832  4.5607 -1.7046  2.3519
  820MOL0     H 8208   1.308   4.639   8.052 -0.8679 -2.7227  2.4511
  820MOL0     H 8209   1.344   4.468   8.019 -0.4390  0.0263 -0.6090
  820MOL0     H 8210   1.267   4.483   7.804  3.3415 -0.7188  3.4902
  820MOL0     H 8211   1.225   4.658   7.809  2.2882  0.1468 -0.9833
  820MOL0     H 8212   1.032   4.502   7.841  0.2754 -1.3950  0.5226
  820MOL0     H 8213   1.115   4.428   7.972  1.9903 -0.3842 -2.9315
  820MOL0     H 8214   1.035   4.734   7.977  1.2251  0.0912 -0.2011
  820MOL0     H 8215   1.108   4.638   8.103  1.6444  0.7764 -1.4043
  820MOL0     H 8216   0.916   4.495   8.115  0.4948 -2.5889 -3.5234
  820MOL0     H 8217   0.845   4.576   7.972 -0.0316 -0.4568  0.5498
  820MOL0     H 8218   0.920   4.736   8.220 -0.5607  0.3147 -0.3113
  820MOL0     H 8219   0.830   4.790   8.086  2.0783 -0.9362 -2.4327
  820MOL0     H 8220   0.706   4.693   8.304  2.4693 -0.0237  2.4119
  820MOL0     H 8221   0.755   4.531   8.244 -1.0268 -0.2733 -3.5617
  820MOL0     H 8222   1.441   5.002   7.835  0.7644  2.3822  1.6373
  820MOL0     H 8223   1.627   5.165   7.836  0.0332  0.8657 -0.7390
  820MOL0     H 8224   2.078   5.299   7.589  0.1660  0.4227  0.4096
  820MOL0     H 8225   2.261   5.446   7.620  0.5814  1.4562  0.9973
  820MOL0     H 8226   4.301   5.000   7.067 -1.8505  0.6070 -1.5260
  820MOL0     H 8227   4.531   5.029   7.157  2.4391  1.6606  3.1008
  820MOL0     H 8228   4.824   5.206   7.232 -1.4793  1.5423  1.3876
  820MOL0     H 8229   5.076   5.209   7.218  0.0633  0.1446  0.7813
  820MOL0     H 8230   5.298   5.155   7.614 -1.5286 -0.6369  0.1966
  820MOL0     H 8231   5.283   5.327   7.622 -3.4630 -0.5531 -0.9954
  820MOL0     H 8232   5.504   5.186   7.580 -2.4431  0.0417  1.3657
  820MOL0     H 8233   5.478   5.189   7.406  0.3357 -2.0220  2.0238
  820MOL0     H 8234   5.485   5.434   7.586  3.4772 -1.1670  0.9324
  820MOL0     H 8235   5.447   5.434   7.413  0.0337  0.0984  0.4027
  820MOL0     H 8236   5.690   5.347   7.552 -3.0366 -0.9660  1.3221
  820MOL0     H 8237   5.657   5.373   7.372 -4.3710 -1.1012 -0.4586
  820MOL0     H 8238   5.680   5.780   7.529  1.9738 -0.6664 -0.9731
  820MOL0     H 8239   5.076   5.281   7.646  1.2277  1.0583 -1.2074
  820MOL0     H 8240   4.839   5.265   7.655  3.3342 -0.5607  2.7197
  821MOL0     O 8241   2.900   1.217   6.736  0.6348 -0.1217 -0.5035
  821MOL0     C 8242   2.831   1.154   6.819 -0.4671 -1.0845  0.1338
  821MOL0     O 8243   2.887   1.055   6.897 -0.1868 -0.1317  0.3208
  821MOL0     C 8244   3.017   1.008   6.895 -0.5543 -0.4722  0.2904
  821MOL0     C 8245   3.139   1.080   6.881  0.4530 -0.4756 -0.0159
  821MOL0     C 8246   3.266   1.015   6.895  0.1511 -1.3170 -0.8179
  821MOL0     C 8247   3.268   0.878   6.928 -0.1793  0.1553  0.0724
  821MOL0     O 8248   3.382   0.804   6.929 -0.1851  0.0567 -0.0185
  821MOL0     C 8249   3.434   0.771   6.796  0.3532  0.2559 -1.0385
  821MOL0     C 8250   3.582   0.801   6.812 -0.4896 -0.4989  0.0513
  821MOL0     C 8251   3.649   0.845   6.680 -0.4742 -0.2172 -0.2220
  821MOL0     C 8252   3.650   0.746   6.558 -0.7310  0.4725 -0.4539
  821MOL0     C 8253   3.715   0.613   6.582  0.3786  0.5993  0.0852
  821MOL0     C 8254   3.734   0.533   6.458  0.4626  0.0430 -0.4476
  821MOL0     C 8255   3.770   0.382   6.477 -0.2153 -0.6001 -0.3541
  821MOL0     C 8256   3.674   0.318   6.580 -1.1619 -0.0043 -0.0160
  821MOL0     N 8257   3.540   0.345   6.553  0.1129  0.2773 -0.5284
  821MOL0     C 8258   3.458   0.391   6.654  0.3147  0.3320  0.1041
  821MOL0     C 8259   3.336   0.397   6.595  0.7546  0.6578 -0.3165
  821MOL0     C 8260   3.218   0.452   6.657  0.4447  0.0737 -0.8302
  821MOL0     C 8261   3.170   0.551   6.554 -0.7761  0.7193 -0.7300
  821MOL0     C 8262   3.046   0.636   6.602 -0.6704  0.2829 -0.0389
  821MOL0     C 8263   2.918   0.559   6.658  0.3560 -0.2770  0.2536
  821MOL0     O 8264   2.861   0.658   6.732 -0.2324 -0.2663 -0.2399
  821MOL0     C 8265   2.739   0.653   6.783  0.8296  0.7929 -0.0959
  821MOL0     C 8266   2.685   0.772   6.836  0.3480  0.5048  0.1300
  821MOL0     C 8267   2.559   0.779   6.891 -0.0422 -0.6688  0.1453
  821MOL0     C 8268   2.475   0.667   6.890 -0.0620 -0.1474 -1.1569
  821MOL0     C 8269   2.344   0.683   6.949 -0.4941  0.0339 -0.7194
  821MOL0     O 8270   2.313   0.792   7.027  0.4834 -0.5903  0.3305
  821MOL0     C 8271   2.196   0.794   7.102  0.5834  0.2384  0.2426
  821MOL0     C 8272   2.114   0.688   7.136 -0.1861  0.0046  0.2677
  821MOL0     C 8273   2.003   0.702   7.213 -0.3399  0.2277  0.2552
  821MOL0     C 8274   1.966   0.830   7.259 -1.1166  0.1662  0.2989
  821MOL0     O 8275   1.849   0.837   7.322  0.3143  0.5117 -0.0551
  821MOL0     C 8276   1.812   0.954   7.401 -0.1314 -0.8485  0.2580
  821MOL0     C 8277   1.680   0.931   7.484  0.2572  0.8623 -0.2030
  821MOL0     C 8278   1.551   0.922   7.395 -0.3767 -0.3059 -0.4150
  821MOL0     C 8279   1.550   0.810   7.282  0.2774  0.6726  0.4331
  821MOL0     C 8280   1.425   0.720   7.257  0.2062  0.3537 -0.0952
  821MOL0     C 8281   1.309   0.805   7.227  0.1878  0.6191 -0.5928
  821MOL0     C 8282   1.177   0.726   7.220  0.5906  0.4955 -0.1385
  821MOL0     C 8283   1.056   0.811   7.171 -0.5514 -0.3845 -0.1997
  821MOL0    Cl 8284   1.101   0.892   7.024 -0.1601  0.5107  0.0457
  821MOL0     C 8285   2.041   0.942   7.217  0.0464  0.9211 -0.0643
  821MOL0     C 8286   2.152   0.921   7.139 -0.8549  0.6770  0.2528
  821MOL0     O 8287   2.270   0.595   6.917 -0.3963  0.5251 -0.4739
  821MOL0     C 8288   2.523   0.544   6.841  0.0612 -0.4819  0.3047
  821MOL0     C 8289   2.653   0.541   6.787  0.7616  0.3599  0.0763
  821MOL0     N 8290   3.352   0.350   6.463 -0.1871 -0.3368  0.5792
  821MOL0     N 8291   3.470   0.310   6.439  0.2959  0.4752  0.0849
  821MOL0     C 8292   3.144   0.809   6.942 -0.3600 -0.5110 -0.4071
  821MOL0     C 8293   3.019   0.871   6.925 -0.2038  0.3313  0.6295
  821MOL0     C 8294   2.695   1.203   6.838 -0.7191 -0.4448  0.4041
  821MOL0     C 8295   2.624   1.165   6.951  0.4016  0.5612  1.3225
  821MOL0     C 8296   2.485   1.193   6.976 -0.2720  0.1803  0.2395
  821MOL0     C 8297   2.420   1.275   6.883 -0.1730 -0.8280 -0.1685
  821MOL0     O 8298   2.286   1.307   6.903 -0.4858  0.6621  0.5409
  821MOL0     C 8299   2.215   1.405   6.822  0.0364  0.5150 -0.0362
  821MOL0     C 8300   2.061   1.397   6.867  0.0825  1.1551  0.1268
  821MOL0     C 8301   2.020   1.416   7.016  0.4505 -0.8190  0.4329
  821MOL0     C 8302   1.874   1.433   7.055  0.3024 -0.0437  0.4201
  821MOL0     C 8303   1.800   1.298   7.046 -0.3874 -0.0112 -0.5747
  821MOL0     C 8304   1.749   1.189   7.052  0.5142  0.3351 -0.4062
  821MOL0     C 8305   2.493   1.329   6.777  0.6506  0.7800  0.5120
  821MOL0     C 8306   2.636   1.300   6.750  0.5049 -0.9545 -0.9038
  821MOL0     H 8307   3.136   1.186   6.856  0.8116 -0.0055  1.7822
  821MOL0     H 8308   3.359   1.069   6.880 -1.1999  2.1580  1.8029
  821MOL0     H 8309   3.387   0.828   6.715 -1.4278 -0.2760 -0.4354
  821MOL0     H 8310   3.421   0.665   6.772  1.6189  0.1390 -1.2904
  821MOL0     H 8311   3.631   0.715   6.858  0.6982  1.8444  3.5636
  821MOL0     H 8312   3.592   0.883   6.884  0.0760  0.1356 -0.7297
  821MOL0     H 8313   3.757   0.854   6.694  0.0077  0.2264 -3.5746
  821MOL0     H 8314   3.618   0.942   6.641  2.6287 -0.1553 -2.8808
  821MOL0     H 8315   3.545   0.716   6.546 -0.3637 -1.3352  0.5993
  821MOL0     H 8316   3.701   0.790   6.472  0.4283 -0.1711 -0.1149
  821MOL0     H 8317   3.661   0.558   6.660  0.2467 -0.2404 -0.5891
  821MOL0     H 8318   3.815   0.631   6.624  0.3553 -0.2523  0.5431
  821MOL0     H 8319   3.816   0.577   6.400  0.8795  0.1567  0.2290
  821MOL0     H 8320   3.645   0.538   6.394  0.8909  1.0073 -0.9905
  821MOL0     H 8321   3.760   0.341   6.376  0.8701 -1.7742 -0.0131
  821MOL0     H 8322   3.875   0.366   6.501 -0.1113  1.7456  0.9724
  821MOL0     H 8323   3.707   0.340   6.682 -0.2201  0.4132 -0.3959
  821MOL0     H 8324   3.687   0.210   6.582  1.2176  0.1598 -1.9185
  821MOL0     H 8325   3.485   0.415   6.757  0.1592 -0.9785  0.4708
  821MOL0     H 8326   3.247   0.498   6.752  0.6829 -0.4841 -0.6320
  821MOL0     H 8327   3.156   0.366   6.681  1.2781 -0.1476  0.6284
  821MOL0     H 8328   3.141   0.489   6.468  1.6491  0.5553 -1.4871
  821MOL0     H 8329   3.250   0.607   6.506  1.0124  0.4294  1.7427
  821MOL0     H 8330   3.091   0.705   6.675  0.1801 -2.7915  2.5637
  821MOL0     H 8331   3.023   0.706   6.521  0.1451  0.4768 -0.1153
  821MOL0     H 8332   2.943   0.477   6.726 -0.0944 -0.9979 -0.4386
  821MOL0     H 8333   2.851   0.525   6.579 -1.3398  2.6539  0.2751
  821MOL0     H 8334   2.751   0.858   6.823  3.6980 -1.8721  0.0205
  821MOL0     H 8335   2.531   0.876   6.930  0.4659  0.5436 -2.3165
  821MOL0     H 8336   2.136   0.588   7.102  1.6114 -0.1348  1.6602
  821MOL0     H 8337   1.935   0.621   7.235 -1.9006  0.1775 -3.9129
  821MOL0     H 8338   1.797   1.041   7.336  0.7368 -0.8226  0.0820
  821MOL0     H 8339   1.899   0.971   7.464  1.1077 -1.6274 -1.1682
  821MOL0     H 8340   1.665   1.015   7.553 -0.2369  2.4676 -2.1408
  821MOL0     H 8341   1.701   0.849   7.553  1.0013 -0.3055 -1.7575
  821MOL0     H 8342   1.544   1.018   7.342  1.2209 -0.7050 -1.4285
  821MOL0     H 8343   1.468   0.901   7.463  1.2985 -1.1285  1.4731
  821MOL0     H 8344   1.587   0.845   7.186  0.6071 -1.6893 -0.3726
  821MOL0     H 8345   1.633   0.743   7.308  0.2933  0.9414  1.0943
  821MOL0     H 8346   1.406   0.661   7.347 -0.7507  0.5325 -0.1737
  821MOL0     H 8347   1.446   0.640   7.185 -0.6881  0.6793 -0.7290
  821MOL0     H 8348   1.327   0.853   7.131  0.6318  2.0179  0.1576
  821MOL0     H 8349   1.296   0.881   7.305 -1.1293 -0.8463  0.7021
  821MOL0     H 8350   1.201   0.655   7.140  0.2857  1.8752 -1.5171
  821MOL0     H 8351   1.163   0.685   7.320  3.2292 -0.6795 -0.1666
  821MOL0     H 8352   1.021   0.879   7.250 -1.2779  1.1666 -1.7797
  821MOL0     H 8353   0.973   0.740   7.163  0.0860 -1.5927  2.7041
  821MOL0     H 8354   2.030   1.045   7.252  1.9675 -0.0455  4.0851
  821MOL0     H 8355   2.206   1.005   7.096  0.5792 -1.5339 -2.6218
  821MOL0     H 8356   2.464   0.455   6.859 -0.7343 -0.0255 -0.0005
  821MOL0     H 8357   2.689   0.442   6.762  1.3023 -0.5696  3.8900
  821MOL0     H 8358   3.147   0.705   6.972  1.1519  0.1270  1.9002
  821MOL0     H 8359   2.925   0.818   6.933 -1.3117  1.6927 -2.1862
  821MOL0     H 8360   2.677   1.098   7.018 -1.1534 -2.3404 -0.1476
  821MOL0     H 8361   2.442   1.155   7.068  3.0415  0.0090  1.8746
  821MOL0     H 8362   2.209   1.379   6.715  0.3824  4.4656 -1.1434
  821MOL0     H 8363   2.243   1.510   6.825  0.3632  0.4328 -0.1670
  821MOL0     H 8364   1.999   1.463   6.806 -0.5886 -0.5405 -1.0898
  821MOL0     H 8365   2.026   1.297   6.840 -0.6246  1.6555 -0.8661
  821MOL0     H 8366   2.072   1.509   7.038 -1.5126  0.7456 -1.1643
  821MOL0     H 8367   2.063   1.329   7.066  0.8442 -1.1829 -0.5190
  821MOL0     H 8368   1.860   1.474   7.156 -4.5901  1.7015 -0.6634
  821MOL0     H 8369   1.823   1.499   6.985 -1.4722 -1.7317  0.0164
  821MOL0     H 8370   1.709   1.092   7.073 -0.9353  1.4484  2.6178
  821MOL0     H 8371   2.441   1.373   6.693 -0.1798  0.2547  0.7498
  821MOL0     H 8372   2.687   1.341   6.663  0.3197  0.3493 -0.4084
  822MOL0     O 8373  10.380   0.813   5.565 -0.3059  0.4002  0.1999
  822MOL0     C 8374  10.397   0.886   5.662 -0.8643  0.4760  0.3117
  822MOL0     O 8375  10.320   0.993   5.686  0.1473 -0.1912 -0.5742
  822MOL0     C 8376  10.188   1.012   5.658 -1.0290  0.5718  0.6591
  822MOL0     C 8377  10.097   0.916   5.611 -0.0941  0.1431  0.5126
  822MOL0     C 8378   9.970   0.957   5.577  0.1320 -0.7680 -0.6696
  822MOL0     C 8379   9.919   1.081   5.599  0.5819  0.6163 -0.0810
  822MOL0     O 8380   9.778   1.090   5.593  0.3500  0.4593 -0.4942
  822MOL0     C 8381   9.710   1.220   5.615 -0.0072  0.9485  0.3409
  822MOL0     C 8382   9.553   1.200   5.636 -1.4617  0.2845 -0.4001
  822MOL0     C 8383   9.484   1.300   5.722  1.2363 -0.1346 -0.1586
  822MOL0     C 8384   9.329   1.269   5.706 -0.1126 -0.4029 -0.2628
  822MOL0     C 8385   9.243   1.370   5.786 -0.6847  0.7891  0.1388
  822MOL0     C 8386   9.280   1.514   5.758 -0.1496 -0.6047  0.7597
  822MOL0     C 8387   9.154   1.596   5.802 -0.2435 -0.2129 -0.0990
  822MOL0     C 8388   9.187   1.746   5.824 -0.5291 -0.0763  0.2076
  822MOL0     N 8389   9.060   1.828   5.831 -0.9383  0.0931  0.5357
  822MOL0     C 8390   8.978   1.828   5.939 -0.5105 -0.4844 -0.5509
  822MOL0     C 8391   8.889   1.923   5.910  0.8171  0.0208 -0.9761
  822MOL0     C 8392   8.779   1.977   5.998  0.0339 -0.2382  0.4466
  822MOL0     C 8393   8.826   2.109   6.065  0.3979 -0.0124  0.3283
  822MOL0     C 8394   8.751   2.161   6.188  0.5649  0.4391 -0.6726
  822MOL0     C 8395   8.595   2.151   6.186  0.7370 -0.3598 -0.2464
  822MOL0     O 8396   8.545   2.016   6.197 -1.2286 -0.5451 -0.8700
  822MOL0     C 8397   8.432   1.991   6.274 -0.7274  0.1407  0.4257
  822MOL0     C 8398   8.402   1.857   6.303 -0.5577 -0.1674 -0.0824
  822MOL0     C 8399   8.282   1.812   6.353 -0.4719  1.1353 -0.6708
  822MOL0     C 8400   8.186   1.909   6.381  0.1211  0.0665  0.2965
  822MOL0     C 8401   8.048   1.876   6.427 -0.6833  0.6280  1.4267
  822MOL0     O 8402   8.020   1.740   6.437 -0.3309  0.1770  0.1011
  822MOL0     C 8403   7.907   1.707   6.506 -0.0451  0.0174  0.0382
  822MOL0     C 8404   7.804   1.641   6.430 -0.1132 -0.2508 -0.2235
  822MOL0     C 8405   7.693   1.604   6.491 -0.0328  0.8379  0.6687
  822MOL0     C 8406   7.670   1.632   6.622  0.6184  0.1383 -0.7063
  822MOL0     O 8407   7.542   1.624   6.669  0.4131 -0.6628  0.0460
  822MOL0     C 8408   7.462   1.737   6.624  0.1724  0.9200  0.4902
  822MOL0     C 8409   7.326   1.723   6.687  0.0002 -0.4723  0.0527
  822MOL0     C 8410   7.262   1.589   6.655 -0.4893  0.5714  0.2813
  822MOL0     C 8411   7.126   1.569   6.724  1.1776 -0.3578 -0.5356
  822MOL0     C 8412   7.014   1.664   6.682  0.1468 -1.4865  0.9119
  822MOL0     C 8413   6.876   1.608   6.714  0.5780  0.2097 -0.4039
  822MOL0     C 8414   6.757   1.689   6.655  0.7124 -0.2074  0.6892
  822MOL0     C 8415   6.626   1.657   6.727  0.8204 -0.0611 -0.0023
  822MOL0    Cl 8416   6.618   1.704   6.894 -0.7533 -0.3007  0.2157
  822MOL0     C 8417   7.773   1.692   6.700 -0.2117  0.4415  0.3809
  822MOL0     C 8418   7.886   1.735   6.638  0.9364 -0.1623  0.3644
  822MOL0     O 8419   7.971   1.970   6.455  0.0829 -0.1050 -0.4575
  822MOL0     C 8420   8.217   2.048   6.361  0.2773 -0.5626 -0.0865
  822MOL0     C 8421   8.341   2.091   6.314 -0.2600  0.9957  0.0868
  822MOL0     N 8422   8.905   1.971   5.787 -0.2146 -0.5538  0.5463
  822MOL0     N 8423   9.010   1.905   5.732  0.8658  0.0888 -0.8515
  822MOL0     C 8424  10.012   1.180   5.631 -0.1340 -0.3200 -0.6863
  822MOL0     C 8425  10.148   1.146   5.660 -0.2919  0.4547  0.3173
  822MOL0     C 8426  10.515   0.880   5.745  0.7782  0.5152  0.4255
  822MOL0     C 8427  10.539   0.958   5.864  0.2927  0.2262  0.6452
  822MOL0     C 8428  10.646   0.933   5.949  0.8974  0.6012  0.3632
  822MOL0     C 8429  10.741   0.836   5.914  0.6451 -0.0873  0.6125
  822MOL0     O 8430  10.847   0.804   5.991  0.3607 -0.4370  0.3276
  822MOL0     C 8431  10.924   0.908   6.062 -0.0354 -0.2016 -0.5639
  822MOL0     C 8432  11.005   0.993   5.973 -0.4281 -0.2522 -0.2350
  822MOL0     C 8433  11.123   1.063   6.052  0.0527  0.2181  0.3273
  822MOL0     C 8434  11.199   1.156   5.952  0.1657 -0.0552  1.0915
  822MOL0     C 8435  11.281   1.062   5.873 -0.9039  0.0705 -0.3182
  822MOL0     C 8436  11.344   0.967   5.825  0.2759  0.0904  0.2125
  822MOL0     C 8437  10.715   0.760   5.801 -0.1398  0.2258 -0.0731
  822MOL0     C 8438  10.604   0.776   5.723 -0.0919  0.4569  0.1575
  822MOL0     H 8439  10.136   0.815   5.606 -1.2061 -0.3553  1.4674
  822MOL0     H 8440   9.896   0.884   5.547  1.8006 -2.2379 -1.3672
  822MOL0     H 8441   9.730   1.276   5.524 -1.7934  2.4300  0.8036
  822MOL0     H 8442   9.743   1.272   5.705  1.8670  0.1727  0.1473
  822MOL0     H 8443   9.554   1.095   5.666  1.5084  0.8133  1.7542
  822MOL0     H 8444   9.505   1.207   5.538 -1.6665  0.9326 -0.2566
  822MOL0     H 8445   9.509   1.399   5.685 -1.9267  0.0816 -2.0461
  822MOL0     H 8446   9.514   1.278   5.825 -0.9576 -2.0491  0.1532
  822MOL0     H 8447   9.300   1.285   5.602 -1.0350 -0.5538 -0.0369
  822MOL0     H 8448   9.303   1.163   5.720  2.3824 -0.9990  0.2966
  822MOL0     H 8449   9.254   1.349   5.893 -0.9290  0.4753  0.1024
  822MOL0     H 8450   9.140   1.344   5.761 -0.5783  0.5140 -0.0155
  822MOL0     H 8451   9.291   1.524   5.650 -1.5239  1.1025  0.7379
  822MOL0     H 8452   9.372   1.546   5.809  3.1209 -3.9332 -2.3701
  822MOL0     H 8453   9.081   1.596   5.720  0.0880  1.9535 -0.4733
  822MOL0     H 8454   9.106   1.567   5.895 -0.9797 -2.2100 -1.0380
  822MOL0     H 8455   9.248   1.775   5.738 -1.3006  1.3342  0.1042
  822MOL0     H 8456   9.242   1.747   5.918  3.0396 -0.0615 -1.7276
  822MOL0     H 8457   8.995   1.770   6.030  0.9947 -1.6522 -1.5284
  822MOL0     H 8458   8.741   1.907   6.072 -0.9050  0.4680  0.6515
  822MOL0     H 8459   8.696   2.000   5.932  3.1077  2.6578 -2.8660
  822MOL0     H 8460   8.833   2.190   5.992 -0.4877 -0.2596 -0.0410
  822MOL0     H 8461   8.927   2.084   6.099  0.8823  0.9591 -0.3409
  822MOL0     H 8462   8.795   2.116   6.277  1.4807 -0.3180 -1.4911
  822MOL0     H 8463   8.785   2.265   6.196  1.8644  0.0760 -1.3194
  822MOL0     H 8464   8.547   2.184   6.094 -4.8626 -1.8205  1.7286
  822MOL0     H 8465   8.566   2.214   6.270 -1.1277 -2.2952  0.6571
  822MOL0     H 8466   8.484   1.789   6.284 -0.1590 -0.1943  1.5611
  822MOL0     H 8467   8.271   1.706   6.374  0.5071  0.9045 -1.2832
  822MOL0     H 8468   7.819   1.617   6.326 -1.0186  4.3302 -1.6380
  822MOL0     H 8469   7.616   1.557   6.431  3.7156 -1.4896 -2.8154
  822MOL0     H 8470   7.459   1.734   6.515  0.6107  0.2057  0.4902
  822MOL0     H 8471   7.505   1.831   6.661  1.5493  0.3996  0.2563
  822MOL0     H 8472   7.261   1.805   6.654  0.6536 -0.3475 -0.9792
  822MOL0     H 8473   7.329   1.720   6.796 -0.7057  1.6833  0.1740
  822MOL0     H 8474   7.328   1.505   6.682 -1.0898 -0.3551 -1.0305
  822MOL0     H 8475   7.238   1.587   6.549 -1.8634  0.2278  0.5694
  822MOL0     H 8476   7.088   1.469   6.701 -3.9379  1.0658  0.4050
  822MOL0     H 8477   7.126   1.572   6.833 -0.5086  1.9939 -0.5156
  822MOL0     H 8478   7.019   1.687   6.576 -1.7267  2.4282  1.4918
  822MOL0     H 8479   7.029   1.757   6.738 -2.4012 -0.0921 -0.5531
  822MOL0     H 8480   6.848   1.595   6.819 -4.6326  0.0922 -1.5461
  822MOL0     H 8481   6.869   1.511   6.662  0.5825  1.4290 -2.8365
  822MOL0     H 8482   6.777   1.797   6.657 -1.1349  0.2208 -0.9127
  822MOL0     H 8483   6.731   1.656   6.554  0.9066 -1.3744  1.0064
  822MOL0     H 8484   6.619   1.549   6.711  3.5940 -0.2459 -0.4576
  822MOL0     H 8485   6.548   1.711   6.674  0.6009  0.2328  0.6092
  822MOL0     H 8486   7.760   1.710   6.806  3.4281  2.3654  0.6363
  822MOL0     H 8487   7.961   1.776   6.705 -1.5068  0.1280  3.1247
  822MOL0     H 8488   8.151   2.131   6.383  1.4410  1.3394 -3.0585
  822MOL0     H 8489   8.364   2.195   6.292  0.2121  1.0610  0.8397
  822MOL0     H 8490   9.992   1.287   5.630  1.7133  0.0614 -1.3623
  822MOL0     H 8491  10.225   1.221   5.675  0.3729  0.3552 -2.2417
  822MOL0     H 8492  10.463   1.029   5.897 -2.8877 -2.7707  0.3204
  822MOL0     H 8493  10.660   0.996   6.036  3.9490  0.6709 -0.0598
  822MOL0     H 8494  11.001   0.869   6.129 -1.2619 -0.4607  0.7278
  822MOL0     H 8495  10.856   0.973   6.118 -1.1821 -1.8482  0.0232
  822MOL0     H 8496  11.037   0.919   5.899 -2.0751 -0.7095 -0.5145
  822MOL0     H 8497  10.936   1.065   5.926 -2.8052 -0.3943  2.7611
  822MOL0     H 8498  11.195   0.988   6.088  0.8663  0.9972  0.3734
  822MOL0     H 8499  11.095   1.126   6.137 -0.9057 -0.0618  0.2238
  822MOL0     H 8500  11.138   1.231   5.901 -2.0209 -0.6215  2.7028
  822MOL0     H 8501  11.270   1.211   6.015  2.7420 -1.9376  0.0364
  822MOL0     H 8502  11.407   0.887   5.791 -0.5574 -0.6747  0.4198
  822MOL0     H 8503  10.780   0.674   5.787  0.8164  1.0694 -0.8814
  822MOL0     H 8504  10.572   0.703   5.650  0.4119  0.4845 -0.0912
  823MOL0     O 8505   9.843   1.464   5.131  0.7447  0.0978  0.1619
  823MOL0     C 8506   9.805   1.579   5.142  1.0432  0.0479  0.0379
  823MOL0     O 8507   9.881   1.685   5.167  0.5047 -0.1228  0.0927
  823MOL0     C 8508  10.011   1.676   5.137  0.5920  0.1126 -0.5000
  823MOL0     C 8509  10.107   1.734   5.223  0.3143 -0.2944  0.8846
  823MOL0     C 8510  10.244   1.732   5.182  0.0653 -0.2963 -0.4537
  823MOL0     C 8511  10.296   1.667   5.068 -0.0490  0.0213  0.1674
  823MOL0     O 8512  10.430   1.684   5.046  0.2112  0.4286 -0.6521
  823MOL0     C 8513  10.506   1.603   4.952 -0.4603 -0.1330  0.4988
  823MOL0     C 8514  10.520   1.452   5.011 -0.3144  0.8016 -0.3455
  823MOL0     C 8515  10.605   1.441   5.135  0.1527  0.5029 -0.2659
  823MOL0     C 8516  10.749   1.493   5.131 -0.0181  0.0202  1.1779
  823MOL0     C 8517  10.833   1.486   5.250 -0.1533 -0.8431 -0.3540
  823MOL0     C 8518  10.802   1.607   5.345  0.6650 -0.8205 -0.0795
  823MOL0     C 8519  10.890   1.601   5.473 -0.8455  0.2878  0.6734
  823MOL0     C 8520  11.028   1.651   5.433 -0.0676 -0.6296 -0.3655
  823MOL0     N 8521  11.041   1.795   5.477 -0.5335 -0.4127  0.1593
  823MOL0     C 8522  10.961   1.897   5.447 -0.5219  0.1738  0.1309
  823MOL0     C 8523  11.036   2.005   5.471  0.0465 -0.3617  0.2832
  823MOL0     C 8524  10.989   2.147   5.452 -0.4830 -0.2037  0.1167
  823MOL0     C 8525  10.844   2.181   5.486  0.3869 -0.1323  0.2627
  823MOL0     C 8526  10.794   2.173   5.636  0.9687 -0.2002 -0.2646
  823MOL0     C 8527  10.651   2.210   5.652 -0.1956  0.0489 -0.2115
  823MOL0     O 8528  10.628   2.350   5.619 -0.3242 -0.4272 -0.3452
  823MOL0     C 8529  10.525   2.420   5.671  0.2739  0.8336 -0.4275
  823MOL0     C 8530  10.508   2.558   5.663  0.4995 -0.9776 -0.5912
  823MOL0     C 8531  10.410   2.621   5.734  0.6111 -0.2996 -0.1722
  823MOL0     C 8532  10.299   2.550   5.777 -0.4021 -0.1413 -0.0219
  823MOL0     C 8533  10.174   2.615   5.819  0.1276 -0.5109 -0.3022
  823MOL0     O 8534  10.068   2.546   5.883  0.3292 -0.5439 -0.1428
  823MOL0     C 8535   9.955   2.626   5.911  0.2746 -0.1221  0.0416
  823MOL0     C 8536   9.953   2.724   6.005 -0.2496 -0.3174  0.3784
  823MOL0     C 8537   9.836   2.783   6.039  0.4647 -0.3705 -1.0386
  823MOL0     C 8538   9.713   2.756   5.974  0.2704  0.9832  0.8147
  823MOL0     O 8539   9.591   2.814   6.021 -0.1522  0.9422  0.5089
  823MOL0     C 8540   9.472   2.725   6.008  0.2771 -0.5771  0.3731
  823MOL0     C 8541   9.362   2.791   6.086 -0.0476  0.3259  0.1479
  823MOL0     C 8542   9.290   2.871   5.975  0.4754  0.5045  0.7566
  823MOL0     C 8543   9.151   2.905   6.032 -0.1705  0.2211 -0.8515
  823MOL0     C 8544   9.062   2.995   5.942 -0.7274  0.4951  0.3753
  823MOL0     C 8545   8.913   2.988   5.987 -0.3785  0.7562  0.7277
  823MOL0     C 8546   8.850   3.117   5.939 -0.5211 -0.4524 -0.5475
  823MOL0     C 8547   8.701   3.141   5.969  0.0442  1.1723 -0.0973
  823MOL0    Cl 8548   8.607   3.275   5.890 -0.0879 -0.3639  0.3286
  823MOL0     C 8549   9.718   2.656   5.879 -0.4642 -0.8390  0.2367
  823MOL0     C 8550   9.841   2.589   5.851 -0.1128 -0.4600  0.4473
  823MOL0     O 8551  10.172   2.733   5.801  0.4909 -0.4357  0.6471
  823MOL0     C 8552  10.302   2.411   5.774 -0.6268  0.4982 -0.3548
  823MOL0     C 8553  10.421   2.351   5.735  0.5171 -0.2150  1.5532
  823MOL0     N 8554  11.149   1.969   5.530  0.7933  0.0504 -0.2790
  823MOL0     N 8555  11.158   1.842   5.528 -0.6701  0.5647  0.0460
  823MOL0     C 8556  10.198   1.609   4.988  0.4103  0.3035  0.6720
  823MOL0     C 8557  10.056   1.611   5.019 -0.4256 -0.4128  0.0508
  823MOL0     C 8558   9.655   1.602   5.125  0.0137 -0.2170  0.9605
  823MOL0     C 8559   9.572   1.507   5.065 -0.0938  0.5648 -0.6372
  823MOL0     C 8560   9.436   1.521   5.040  0.3522 -0.0998  0.7852
  823MOL0     C 8561   9.382   1.645   5.056  0.8825  0.7084 -0.0032
  823MOL0     O 8562   9.260   1.665   5.003  0.4412 -0.0419 -0.6379
  823MOL0     C 8563   9.243   1.783   4.921  0.6170  0.2524 -0.0611
  823MOL0     C 8564   9.097   1.798   4.866 -0.1148  0.0837  0.5268
  823MOL0     C 8565   8.999   1.807   4.979 -0.6024 -0.0628  0.8390
  823MOL0     C 8566   8.858   1.811   4.917  0.4469  0.1072  0.5049
  823MOL0     C 8567   8.756   1.795   5.021 -0.0476  0.0769  0.3970
  823MOL0     C 8568   8.661   1.796   5.095  1.1444  0.4114  0.3474
  823MOL0     C 8569   9.454   1.747   5.122  0.4522  0.0216  0.0416
  823MOL0     C 8570   9.592   1.723   5.154  0.0105 -0.1990 -0.1131
  823MOL0     H 8571  10.078   1.795   5.307  1.2345 -2.3272  2.7791
  823MOL0     H 8572  10.308   1.781   5.255  2.2231 -2.3782 -0.8456
  823MOL0     H 8573  10.606   1.639   4.927  0.6385 -0.7826  3.5114
  823MOL0     H 8574  10.456   1.597   4.855  0.8184 -1.0464 -0.1443
  823MOL0     H 8575  10.570   1.396   4.931 -0.7387 -2.2632  1.3758
  823MOL0     H 8576  10.420   1.409   5.023  0.9515 -2.7618 -1.3881
  823MOL0     H 8577  10.609   1.336   5.166  0.6762  0.9886  1.3806
  823MOL0     H 8578  10.540   1.486   5.211 -1.8455 -0.8369 -1.0837
  823MOL0     H 8579  10.802   1.434   5.056 -1.2142  0.3623  0.0321
  823MOL0     H 8580  10.750   1.596   5.095  1.3454 -0.0467  0.9491
  823MOL0     H 8581  10.939   1.497   5.225 -0.3041 -1.1020 -1.1517
  823MOL0     H 8582  10.805   1.390   5.294 -2.0233  0.2604  1.0148
  823MOL0     H 8583  10.698   1.594   5.378  0.2150 -1.4980 -1.7068
  823MOL0     H 8584  10.811   1.702   5.291  3.4235 -0.7780  0.3188
  823MOL0     H 8585  10.847   1.650   5.561  1.8338  1.1444  1.6074
  823MOL0     H 8586  10.903   1.494   5.493 -0.3006 -0.0602 -1.3780
  823MOL0     H 8587  11.054   1.639   5.327  1.5330 -1.8701  0.1373
  823MOL0     H 8588  11.105   1.592   5.483 -2.2810 -1.7394  1.9319
  823MOL0     H 8589  10.868   1.887   5.391  0.4441 -1.5488 -1.2707
  823MOL0     H 8590  11.012   2.170   5.348 -0.1237 -0.1154  0.2142
  823MOL0     H 8591  11.062   2.212   5.501  0.4549 -0.2905 -1.1254
  823MOL0     H 8592  10.777   2.114   5.430 -0.3070  0.0655  0.8467
  823MOL0     H 8593  10.833   2.281   5.444  2.0875 -1.1746 -3.0236
  823MOL0     H 8594  10.821   2.071   5.666  3.0561  0.3154 -0.2517
  823MOL0     H 8595  10.843   2.252   5.692 -0.9626  0.7789  0.1271
  823MOL0     H 8596  10.633   2.187   5.758  0.9684 -0.8409 -0.1915
  823MOL0     H 8597  10.592   2.146   5.586 -1.8479 -1.0544  2.1700
  823MOL0     H 8598  10.585   2.613   5.610 -0.0176  1.8836  1.4502
  823MOL0     H 8599  10.407   2.729   5.726  0.0144 -0.3708 -0.9855
  823MOL0     H 8600  10.044   2.750   6.059 -1.8048  3.4601  1.5271
  823MOL0     H 8601   9.851   2.838   6.132  0.0009 -1.2745 -0.4123
  823MOL0     H 8602   9.492   2.620   6.031  1.5870 -0.2676  0.7404
  823MOL0     H 8603   9.443   2.716   5.903 -1.7788 -1.6511  0.9724
  823MOL0     H 8604   9.406   2.846   6.170  0.5283 -2.0104  1.5006
  823MOL0     H 8605   9.303   2.715   6.138 -0.1008  1.8368  2.4636
  823MOL0     H 8606   9.266   2.814   5.885 -0.8578  2.1280  0.0304
  823MOL0     H 8607   9.342   2.963   5.947 -2.2532  1.9793  0.1356
  823MOL0     H 8608   9.093   2.814   6.050  0.6518  0.2302  2.7261
  823MOL0     H 8609   9.157   2.958   6.128 -3.1538  0.8365 -0.9314
  823MOL0     H 8610   9.074   2.955   5.841  1.2351 -1.3692  1.2727
  823MOL0     H 8611   9.098   3.098   5.944  0.6350  0.0221  0.8664
  823MOL0     H 8612   8.908   2.964   6.094  2.5571 -3.6378  0.1761
  823MOL0     H 8613   8.873   2.899   5.937  2.1486 -0.6624  1.0497
  823MOL0     H 8614   8.906   3.205   5.973  0.1266 -1.2039  0.3682
  823MOL0     H 8615   8.850   3.105   5.830 -1.2079  0.4005 -0.6550
  823MOL0     H 8616   8.699   3.174   6.073  1.3414  3.2017 -0.6798
  823MOL0     H 8617   8.636   3.053   5.955 -0.0832  1.2903 -0.2561
  823MOL0     H 8618   9.630   2.634   5.819 -0.8809  1.1488  0.0553
  823MOL0     H 8619   9.834   2.508   5.779  1.7837 -0.2245 -0.0566
  823MOL0     H 8620  10.226   2.346   5.817 -0.7747  0.6704 -0.3545
  823MOL0     H 8621  10.417   2.243   5.746  1.4560 -0.2764  1.3808
  823MOL0     H 8622  10.229   1.578   4.889 -1.0929 -1.4221  0.7003
  823MOL0     H 8623   9.983   1.594   4.940  0.3736  0.4933 -0.9069
  823MOL0     H 8624   9.623   1.411   5.063 -1.5481 -0.3799  2.1403
  823MOL0     H 8625   9.379   1.434   5.010  0.5271 -0.0498  0.2938
  823MOL0     H 8626   9.311   1.784   4.836  0.2200  1.5174 -0.3933
  823MOL0     H 8627   9.261   1.871   4.984 -0.6450 -0.3202  1.1448
  823MOL0     H 8628   9.092   1.892   4.811  2.0069  1.5458  2.6237
  823MOL0     H 8629   9.061   1.712   4.809 -1.2494 -1.0336  2.8064
  823MOL0     H 8630   9.015   1.906   5.022 -2.6146  1.1500 -0.9932
  823MOL0     H 8631   9.008   1.718   5.042 -1.8581 -0.4413  0.5201
  823MOL0     H 8632   8.846   1.913   4.881  0.3144 -0.9011 -2.5590
  823MOL0     H 8633   8.831   1.739   4.840 -0.1073  1.4086 -0.5530
  823MOL0     H 8634   8.582   1.799   5.167  0.3814 -0.6428 -0.4251
  823MOL0     H 8635   9.395   1.838   5.124  0.4429 -0.0015  1.2423
  823MOL0     H 8636   9.651   1.802   5.198  0.6926 -0.0511 -1.2688
  824MOL0     O 8637   0.784   3.404   7.301  0.7409 -0.2679  0.5310
  824MOL0     C 8638   0.840   3.302   7.332  0.4458 -0.2915 -0.7226
  824MOL0     O 8639   0.784   3.188   7.400  0.0471 -0.4302 -0.5338
  824MOL0     C 8640   0.657   3.159   7.418  0.6327 -0.1118  0.4064
  824MOL0     C 8641   0.631   3.030   7.475 -0.1262 -0.1638  0.8253
  824MOL0     C 8642   0.501   3.000   7.501  0.0204  0.3064 -0.2072
  824MOL0     C 8643   0.388   3.083   7.474 -0.0489  0.2529  0.1597
  824MOL0     O 8644   0.266   3.033   7.478 -0.0746  0.0065  0.0430
  824MOL0     C 8645   0.160   3.128   7.462  0.3157 -0.0274 -0.8053
  824MOL0     C 8646   0.018   3.080   7.503 -0.5691 -0.6856 -0.2184
  824MOL0     C 8647   0.022   3.019   7.646  1.0690  0.0894 -0.1058
  824MOL0     C 8648  -0.100   3.060   7.736 -0.3982  0.4060 -0.1137
  824MOL0     C 8649  -0.237   2.995   7.701 -0.1648 -0.6154  0.2433
  824MOL0     C 8650  -0.360   3.030   7.801  0.3153 -0.4659 -0.5236
  824MOL0     C 8651  -0.485   2.952   7.755 -0.6950  0.4774 -0.2345
  824MOL0     C 8652  -0.468   2.802   7.787  0.8325 -0.1810 -0.0050
  824MOL0     N 8653  -0.604   2.740   7.805  1.5729 -1.0068  0.5266
  824MOL0     C 8654  -0.708   2.739   7.719  0.0581 -0.3267 -0.4073
  824MOL0     C 8655  -0.794   2.645   7.766 -0.3080 -0.9267  0.3572
  824MOL0     C 8656  -0.914   2.606   7.706  0.5973  0.2122  0.4374
  824MOL0     C 8657  -1.038   2.647   7.795  0.0941 -0.0447  0.4436
  824MOL0     C 8658  -1.162   2.626   7.720  0.3460  0.1295 -0.0891
  824MOL0     C 8659  -1.271   2.682   7.810 -0.2735  0.5006 -0.2310
  824MOL0     O 8660  -1.388   2.651   7.750  0.2822 -0.0344  0.0518
  824MOL0     C 8661  -1.502   2.699   7.793 -0.1303 -0.3117 -0.7702
  824MOL0     C 8662  -1.608   2.672   7.707 -0.3742 -0.1500 -0.7162
  824MOL0     C 8663  -1.738   2.712   7.736 -0.1283 -1.1458 -0.1155
  824MOL0     C 8664  -1.773   2.779   7.859 -1.1105  0.2436 -0.2866
  824MOL0     C 8665  -1.910   2.806   7.899  0.4164  0.7750  0.2198
  824MOL0     O 8666  -1.997   2.811   7.793  0.0952  0.0820 -0.3847
  824MOL0     C 8667  -2.128   2.821   7.809  0.5830  0.2825  0.2310
  824MOL0     C 8668  -2.212   2.738   7.884 -0.1887  0.4989  0.0276
  824MOL0     C 8669  -2.355   2.757   7.893 -0.6006  0.0124 -0.7312
  824MOL0     C 8670  -2.411   2.872   7.835 -0.5938  0.4038 -0.0138
  824MOL0     O 8671  -2.544   2.872   7.852 -0.1075 -0.5659  0.1360
  824MOL0     C 8672  -2.609   2.992   7.816  0.5011  0.7691 -1.1625
  824MOL0     C 8673  -2.753   2.982   7.871  1.0588 -0.1901 -0.7770
  824MOL0     C 8674  -2.849   3.078   7.812 -0.2450 -0.3599  0.0035
  824MOL0     C 8675  -2.993   3.031   7.838 -0.6877 -0.5246  0.3334
  824MOL0     C 8676  -3.118   3.119   7.792  0.4730 -0.4004  0.0405
  824MOL0     C 8677  -3.234   3.100   7.891 -0.2626  0.1822  0.1897
  824MOL0     C 8678  -3.366   3.153   7.835  0.2596 -0.0012 -0.1512
  824MOL0     C 8679  -3.391   3.304   7.856 -0.2234 -0.3282 -0.9187
  824MOL0    Cl 8680  -3.538   3.346   7.784  0.4634 -0.4355 -0.4871
  824MOL0     C 8681  -2.325   2.950   7.751  0.6584  0.7016 -0.2884
  824MOL0     C 8682  -2.189   2.923   7.736  0.0784 -0.8194 -0.2753
  824MOL0     O 8683  -1.934   2.834   8.018 -0.3184 -0.7997  0.1693
  824MOL0     C 8684  -1.662   2.799   7.945  0.0237 -0.0083  0.3505
  824MOL0     C 8685  -1.535   2.750   7.919  0.0732 -0.1049  0.4176
  824MOL0     N 8686  -0.736   2.589   7.877 -0.3653  0.0006  0.4444
  824MOL0     N 8687  -0.626   2.650   7.897 -0.1183 -0.5911  0.2558
  824MOL0     C 8688   0.418   3.209   7.412 -0.3819  0.5076  0.6790
  824MOL0     C 8689   0.547   3.242   7.381  0.9313 -0.0118 -1.0048
  824MOL0     C 8690   0.987   3.296   7.318 -0.4211  0.8433  0.1576
  824MOL0     C 8691   1.060   3.188   7.368 -0.1492  0.9253 -0.3956
  824MOL0     C 8692   1.202   3.184   7.356  0.9469  0.6607 -0.2311
  824MOL0     C 8693   1.276   3.286   7.301  0.4316  0.3944  0.5156
  824MOL0     O 8694   1.406   3.262   7.291  0.4610  0.1904 -0.3296
  824MOL0     C 8695   1.486   3.368   7.241  0.3451  1.0783  1.2631
  824MOL0     C 8696   1.633   3.320   7.230 -0.4039 -0.0001 -0.4470
  824MOL0     C 8697   1.730   3.438   7.203 -0.4835 -0.5585 -0.4990
  824MOL0     C 8698   1.685   3.537   7.081  0.2600  0.2697 -0.5479
  824MOL0     C 8699   1.685   3.465   6.954 -0.0007 -0.1730 -0.2237
  824MOL0     C 8700   1.673   3.407   6.848 -0.3009  1.0307  1.2960
  824MOL0     C 8701   1.203   3.394   7.248  0.6584  0.0332  0.3890
  824MOL0     C 8702   1.067   3.405   7.259  0.6617  0.4782 -0.6719
  824MOL0     H 8703   0.722   2.972   7.489  0.7807  0.8522 -0.5011
  824MOL0     H 8704   0.483   2.907   7.554 -0.4968  0.3467 -0.3057
  824MOL0     H 8705   0.152   3.154   7.356  2.3247  1.9795 -0.5484
  824MOL0     H 8706   0.186   3.215   7.524  4.1574 -1.9625  0.6520
  824MOL0     H 8707  -0.037   3.009   7.441 -1.4729 -0.2971  0.1141
  824MOL0     H 8708  -0.047   3.168   7.514  0.1752 -0.2720  1.0442
  824MOL0     H 8709   0.101   3.060   7.710 -0.5584 -1.3756  3.0641
  824MOL0     H 8710   0.030   2.911   7.632 -1.1306  0.0525 -1.5833
  824MOL0     H 8711  -0.074   3.025   7.836  0.3025 -2.7710 -1.3014
  824MOL0     H 8712  -0.107   3.169   7.737  0.3993  0.5522 -2.6542
  824MOL0     H 8713  -0.217   2.888   7.708  0.9992 -0.3006  2.5140
  824MOL0     H 8714  -0.279   3.032   7.606 -1.4157  1.0602  1.3857
  824MOL0     H 8715  -0.381   3.137   7.795  2.9315  0.1642  0.1836
  824MOL0     H 8716  -0.341   3.015   7.908  0.5919  0.5503 -0.4141
  824MOL0     H 8717  -0.554   2.992   7.830 -2.7020 -2.3044 -0.4515
  824MOL0     H 8718  -0.524   2.965   7.654 -2.3215 -1.0067  0.1493
  824MOL0     H 8719  -0.402   2.792   7.874  1.1232 -1.9779 -0.3949
  824MOL0     H 8720  -0.416   2.759   7.701 -2.0120 -3.9769 -0.0509
  824MOL0     H 8721  -0.723   2.800   7.630 -0.1772  0.8391  0.4168
  824MOL0     H 8722  -0.923   2.498   7.690 -1.3535  0.2607  0.8783
  824MOL0     H 8723  -0.918   2.654   7.608  0.1946 -0.0215  0.3316
  824MOL0     H 8724  -1.025   2.755   7.812 -0.2239  0.0157  0.3097
  824MOL0     H 8725  -1.036   2.593   7.890  1.7168  4.1945  3.1560
  824MOL0     H 8726  -1.164   2.685   7.628  0.5847 -0.3503 -0.4075
  824MOL0     H 8727  -1.182   2.524   7.686  2.1847 -0.6722  1.0761
  824MOL0     H 8728  -1.268   2.790   7.797 -0.1846  0.2903 -2.3126
  824MOL0     H 8729  -1.262   2.651   7.914  0.4413  0.7579 -0.2125
  824MOL0     H 8730  -1.591   2.609   7.620 -3.9438  0.8348 -2.3123
  824MOL0     H 8731  -1.810   2.715   7.655  0.6217 -0.0565 -0.7597
  824MOL0     H 8732  -2.170   2.656   7.942  0.1328  0.4723 -0.2426
  824MOL0     H 8733  -2.419   2.688   7.947 -1.0305 -0.0356 -1.2895
  824MOL0     H 8734  -2.606   3.010   7.708 -1.4753  1.8392 -1.0909
  824MOL0     H 8735  -2.560   3.070   7.874 -1.8200  1.8581 -0.5390
  824MOL0     H 8736  -2.763   2.998   7.979 -2.2767  1.2685 -1.1832
  824MOL0     H 8737  -2.784   2.877   7.866  1.1179 -0.5335  2.9638
  824MOL0     H 8738  -2.836   3.096   7.704  2.2557 -2.1415 -0.0885
  824MOL0     H 8739  -2.845   3.174   7.864 -1.0284 -0.5572  0.4377
  824MOL0     H 8740  -3.009   2.931   7.796 -2.0532 -0.6235  1.0558
  824MOL0     H 8741  -3.000   3.027   7.947  1.4588  0.6631  0.5769
  824MOL0     H 8742  -3.133   3.092   7.687  0.6248 -0.8560  0.1349
  824MOL0     H 8743  -3.099   3.227   7.791 -0.3179 -0.2575 -0.3672
  824MOL0     H 8744  -3.211   3.137   7.991 -1.3231  1.0166  0.1551
  824MOL0     H 8745  -3.248   2.994   7.912  3.5529 -0.6531 -0.7095
  824MOL0     H 8746  -3.368   3.137   7.727  0.9584 -0.9810 -0.0350
  824MOL0     H 8747  -3.439   3.092   7.888  2.3599 -1.2294  1.5366
  824MOL0     H 8748  -3.308   3.363   7.816 -1.4467  0.7673 -1.9313
  824MOL0     H 8749  -3.389   3.333   7.962  2.9672  0.9658 -1.2124
  824MOL0     H 8750  -2.369   3.022   7.682  0.7689 -0.6069 -1.7940
  824MOL0     H 8751  -2.133   2.989   7.670  0.6497  0.0697  1.0299
  824MOL0     H 8752  -1.690   2.836   8.043 -1.1945 -0.6084  0.2358
  824MOL0     H 8753  -1.455   2.752   7.993  2.5653 -5.3701 -1.5970
  824MOL0     H 8754   0.341   3.279   7.381 -0.4087  0.9325  1.6912
  824MOL0     H 8755   0.556   3.338   7.329 -1.7010  2.0184  1.9099
  824MOL0     H 8756   1.028   3.094   7.412  0.1389 -0.5707 -3.1766
  824MOL0     H 8757   1.257   3.099   7.397 -0.4679 -0.2290 -0.0956
  824MOL0     H 8758   1.483   3.463   7.296  1.7153  2.4171 -0.8133
  824MOL0     H 8759   1.456   3.384   7.137  2.0163 -0.1672  0.5472
  824MOL0     H 8760   1.669   3.276   7.324 -0.7875 -3.4945 -1.7810
  824MOL0     H 8761   1.646   3.251   7.146  0.3487  0.7726 -0.9857
  824MOL0     H 8762   1.834   3.411   7.180  0.3737  1.5109  0.6250
  824MOL0     H 8763   1.729   3.495   7.296 -1.4452 -0.2436 -0.6908
  824MOL0     H 8764   1.589   3.590   7.092  0.5430  0.7062 -0.1191
  824MOL0     H 8765   1.762   3.615   7.076  3.0180 -2.1995  0.3675
  824MOL0     H 8766   1.654   3.347   6.762 -2.8741 -0.1205  2.5540
  824MOL0     H 8767   1.254   3.484   7.214  1.1345  0.3454  1.8425
  824MOL0     H 8768   1.020   3.495   7.221 -0.3580 -0.5142 -1.8414
  825MOL0     O 8769   1.412   0.542   1.671  0.2021  0.8338  0.5074
  825MOL0     C 8770   1.473   0.622   1.603  0.2221 -0.0526  0.7123
  825MOL0     O 8771   1.463   0.763   1.604 -0.1863  0.1412  0.9241
  825MOL0     C 8772   1.353   0.831   1.661  1.0909  0.1416  0.4097
  825MOL0     C 8773   1.231   0.760   1.700  0.2881 -0.9814 -0.2573
  825MOL0     C 8774   1.124   0.833   1.768 -0.4555 -0.4378  1.1455
  825MOL0     C 8775   1.136   0.970   1.793  0.0941  0.9555 -0.5496
  825MOL0     O 8776   1.047   1.053   1.857 -0.3113  0.0149 -0.3931
  825MOL0     C 8777   0.908   1.016   1.880 -0.1632  0.2416  0.0920
  825MOL0     C 8778   0.894   0.984   2.025 -0.4053 -0.1328 -0.2428
  825MOL0     C 8779   0.750   0.925   2.047  0.4469  0.1556 -0.6716
  825MOL0     C 8780   0.741   0.894   2.192 -0.3056 -0.2829  0.9957
  825MOL0     C 8781   0.607   0.833   2.232 -0.7903  0.5849  1.0134
  825MOL0     C 8782   0.474   0.924   2.219 -0.5298  0.2797  0.2333
  825MOL0     C 8783   0.457   1.038   2.326 -0.0877  0.4591 -0.4062
  825MOL0     C 8784   0.546   1.161   2.330 -0.6604  0.1405  0.6457
  825MOL0     N 8785   0.480   1.269   2.255 -0.0269  0.1530  1.0655
  825MOL0     C 8786   0.388   1.354   2.305 -0.1327 -0.2548  0.4083
  825MOL0     C 8787   0.335   1.412   2.196  0.4716  0.0878  0.5769
  825MOL0     C 8788   0.218   1.504   2.184  0.7038 -0.4733 -0.1429
  825MOL0     C 8789   0.089   1.432   2.164 -0.4774 -0.4637  0.0703
  825MOL0     C 8790  -0.034   1.525   2.144  1.1486  1.0117  0.0810
  825MOL0     C 8791  -0.050   1.639   2.244 -0.6935 -0.4023 -0.7586
  825MOL0     O 8792  -0.162   1.734   2.206 -0.1197  0.4145 -0.8993
  825MOL0     C 8793  -0.289   1.708   2.249  0.1456  0.1192 -0.1159
  825MOL0     C 8794  -0.391   1.784   2.188 -0.0505  0.3544 -0.8187
  825MOL0     C 8795  -0.525   1.770   2.227 -0.4592 -0.7136  0.8127
  825MOL0     C 8796  -0.560   1.678   2.329  0.5541 -0.0118  0.2451
  825MOL0     C 8797  -0.702   1.662   2.362 -0.6883  0.3837 -0.1307
  825MOL0     O 8798  -0.729   1.563   2.463  0.7551 -0.7049 -0.4240
  825MOL0     C 8799  -0.863   1.560   2.492 -0.7196 -0.3394  0.0993
  825MOL0     C 8800  -0.955   1.467   2.438  0.1107  0.2210  0.6039
  825MOL0     C 8801  -1.093   1.461   2.478  0.1877  0.3951 -0.1749
  825MOL0     C 8802  -1.140   1.575   2.543  0.7181  0.2482 -0.2087
  825MOL0     O 8803  -1.268   1.609   2.564  0.6040 -0.2336  0.0793
  825MOL0     C 8804  -1.372   1.558   2.479  0.9601  0.1585 -0.5642
  825MOL0     C 8805  -1.514   1.613   2.508 -0.1028  0.8481 -0.2124
  825MOL0     C 8806  -1.630   1.532   2.447 -1.1268  0.9399  0.2326
  825MOL0     C 8807  -1.761   1.603   2.468 -0.0658  0.8512 -0.2116
  825MOL0     C 8808  -1.897   1.537   2.420 -0.4954  0.4243 -0.5494
  825MOL0     C 8809  -2.017   1.615   2.481 -0.6477 -0.6641  0.4383
  825MOL0     C 8810  -2.050   1.738   2.402  0.2539 -0.1529 -0.2544
  825MOL0     C 8811  -2.157   1.817   2.491  0.6685  0.0034 -0.2614
  825MOL0    Cl 8812  -2.303   1.728   2.479  0.1084 -0.0979  0.4408
  825MOL0     C 8813  -1.050   1.665   2.597 -0.0736 -0.2879 -0.4843
  825MOL0     C 8814  -0.918   1.661   2.574 -0.1480 -0.2579 -0.1311
  825MOL0     O 8815  -0.789   1.726   2.304  0.1192  0.6709 -0.7350
  825MOL0     C 8816  -0.456   1.607   2.400  0.0085  0.2172  0.5922
  825MOL0     C 8817  -0.317   1.634   2.367 -0.3159  0.6531 -0.1908
  825MOL0     N 8818   0.404   1.367   2.081 -0.2244 -0.2391 -0.2119
  825MOL0     N 8819   0.488   1.272   2.116 -0.1688 -0.2741 -0.1034
  825MOL0     C 8820   1.250   1.037   1.740  0.1531  0.6858 -0.0337
  825MOL0     C 8821   1.356   0.972   1.673  0.4004  0.4420 -0.2091
  825MOL0     C 8822   1.574   0.562   1.509  0.1006  0.6282  0.8700
  825MOL0     C 8823   1.680   0.647   1.454  0.7583 -0.5649  0.1763
  825MOL0     C 8824   1.794   0.593   1.386  0.1223  0.7524  1.0427
  825MOL0     C 8825   1.801   0.452   1.380  0.1677  0.7291  0.0194
  825MOL0     O 8826   1.905   0.380   1.314  0.1065 -0.4869  0.0409
  825MOL0     C 8827   1.986   0.451   1.222 -0.5894 -0.0874  0.4005
  825MOL0     C 8828   1.894   0.478   1.095 -0.6671 -0.3995  0.9425
  825MOL0     C 8829   1.970   0.551   0.985  0.4772  0.6077 -0.0649
  825MOL0     C 8830   1.968   0.695   1.009 -0.1566  0.1698 -0.5395
  825MOL0     C 8831   2.056   0.768   0.921  0.5048 -0.2516 -0.2342
  825MOL0     C 8832   2.117   0.827   0.835  0.3534  0.0132 -0.3481
  825MOL0     C 8833   1.695   0.372   1.426 -0.0384  0.5446 -0.3231
  825MOL0     C 8834   1.578   0.424   1.488 -0.6400 -0.4644  0.3515
  825MOL0     H 8835   1.213   0.656   1.679  0.0866 -0.9361 -0.3084
  825MOL0     H 8836   1.038   0.775   1.799 -2.5719  3.2814  2.8806
  825MOL0     H 8837   0.885   0.928   1.820  2.8574 -1.5861  1.3686
  825MOL0     H 8838   0.837   1.091   1.844 -1.7187 -0.1265  2.2108
  825MOL0     H 8839   0.916   1.070   2.088  0.2923 -1.0457  0.7896
  825MOL0     H 8840   0.969   0.911   2.055 -1.0015 -0.4186  0.6106
  825MOL0     H 8841   0.738   0.839   1.980  1.9285 -0.6934  0.0853
  825MOL0     H 8842   0.672   0.988   2.005  0.2862  1.8210  1.9259
  825MOL0     H 8843   0.816   0.815   2.200 -0.7765 -0.7884  0.5205
  825MOL0     H 8844   0.770   0.977   2.258 -0.4059  0.4242  0.1711
  825MOL0     H 8845   0.614   0.791   2.333 -1.3227 -0.9554  0.4429
  825MOL0     H 8846   0.595   0.746   2.167 -0.8835  1.3633 -0.0426
  825MOL0     H 8847   0.394   0.851   2.230  0.0859 -0.8503 -2.1212
  825MOL0     H 8848   0.470   0.976   2.123  4.0691  0.3257 -0.1943
  825MOL0     H 8849   0.351   1.062   2.325 -0.5848 -1.3383  1.5851
  825MOL0     H 8850   0.475   0.998   2.427  0.9991 -0.2673 -0.8623
  825MOL0     H 8851   0.649   1.144   2.296 -0.0701 -0.3647  2.5874
  825MOL0     H 8852   0.548   1.185   2.436  2.2098 -1.6236  1.1088
  825MOL0     H 8853   0.361   1.365   2.409  1.5595 -0.9036  0.9542
  825MOL0     H 8854   0.223   1.575   2.101 -0.1220 -1.7784 -1.3447
  825MOL0     H 8855   0.209   1.553   2.282 -1.6578  0.8739 -0.9576
  825MOL0     H 8856   0.073   1.371   2.253 -0.7592 -2.7289 -1.4478
  825MOL0     H 8857   0.098   1.366   2.077  0.8174  1.2570 -1.1561
  825MOL0     H 8858  -0.036   1.558   2.039  0.6765  0.0104 -0.2402
  825MOL0     H 8859  -0.127   1.468   2.153  0.9651  1.4794  1.2551
  825MOL0     H 8860   0.044   1.695   2.239 -0.3018 -1.0009 -0.2488
  825MOL0     H 8861  -0.050   1.602   2.347  2.2284 -0.6058 -0.7648
  825MOL0     H 8862  -0.368   1.826   2.091 -0.7294  0.7623 -0.8128
  825MOL0     H 8863  -0.603   1.821   2.172 -0.1691 -0.8680  0.2507
  825MOL0     H 8864  -0.934   1.389   2.365 -2.1334  1.9862 -2.1474
  825MOL0     H 8865  -1.164   1.380   2.463 -0.4089  1.3071 -2.7258
  825MOL0     H 8866  -1.370   1.449   2.491 -1.5986 -0.0617 -1.5520
  825MOL0     H 8867  -1.344   1.585   2.377  0.3733  3.3088  0.0073
  825MOL0     H 8868  -1.514   1.714   2.465 -1.0596  1.1018  0.3628
  825MOL0     H 8869  -1.531   1.618   2.616 -1.0482 -1.4542 -0.1981
  825MOL0     H 8870  -1.638   1.441   2.506  0.0561 -0.0641 -1.0972
  825MOL0     H 8871  -1.621   1.497   2.344 -1.4383 -0.2979  0.6167
  825MOL0     H 8872  -1.768   1.631   2.574  2.6389 -0.1640  0.3246
  825MOL0     H 8873  -1.751   1.699   2.417 -0.7852 -0.0297 -2.0990
  825MOL0     H 8874  -1.895   1.434   2.456  1.6114  0.3108 -0.8632
  825MOL0     H 8875  -1.892   1.523   2.312 -2.0368 -3.0451 -0.2829
  825MOL0     H 8876  -1.988   1.650   2.580  2.2018  2.7838 -1.4098
  825MOL0     H 8877  -2.108   1.554   2.477 -0.4506 -0.9514 -2.8027
  825MOL0     H 8878  -1.961   1.801   2.391  0.1596  0.2963  1.3163
  825MOL0     H 8879  -2.072   1.713   2.298  0.2928  1.6026 -0.7141
  825MOL0     H 8880  -2.176   1.920   2.459 -3.0393 -0.0282  1.3300
  825MOL0     H 8881  -2.136   1.822   2.598  2.2807  0.8413 -0.5899
  825MOL0     H 8882  -1.088   1.751   2.650  0.0708 -0.0621 -0.7423
  825MOL0     H 8883  -0.853   1.729   2.627  2.7674  1.3397 -5.0586
  825MOL0     H 8884  -0.481   1.544   2.485  0.3088 -1.7934 -0.7428
  825MOL0     H 8885  -0.245   1.604   2.443  1.3610  4.1910 -0.2145
  825MOL0     H 8886   1.247   1.146   1.745 -0.4736  0.7313 -1.0387
  825MOL0     H 8887   1.445   1.029   1.646  0.9881 -1.2390 -2.1263
  825MOL0     H 8888   1.675   0.755   1.466  0.8572 -0.1371 -2.8039
  825MOL0     H 8889   1.869   0.657   1.340  0.2213 -2.9107 -4.9013
  825MOL0     H 8890   2.076   0.391   1.206 -0.7196 -1.1477  3.1208
  825MOL0     H 8891   2.021   0.543   1.270 -0.9865 -0.3475  1.2078
  825MOL0     H 8892   1.874   0.381   1.048 -0.1730 -0.8275  1.5926
  825MOL0     H 8893   1.797   0.521   1.121 -0.8445 -0.1976 -0.0302
  825MOL0     H 8894   1.940   0.526   0.883 -0.1565 -2.8911  0.8706
  825MOL0     H 8895   2.075   0.523   0.997 -0.1817 -1.8129  0.6248
  825MOL0     H 8896   1.868   0.733   0.987 -0.2184 -0.7151 -1.8675
  825MOL0     H 8897   1.982   0.724   1.114 -2.1706  1.9791 -0.7080
  825MOL0     H 8898   2.173   0.873   0.756  0.6836 -0.6942 -0.5260
  825MOL0     H 8899   1.716   0.266   1.414  1.4776  0.5838  1.3962
  825MOL0     H 8900   1.495   0.358   1.510 -1.4179 -0.0364 -1.1659
  826MOL0     O 8901   0.011   9.461   7.233  0.2337  0.3520 -0.8765
  826MOL0     C 8902   0.079   9.450   7.134 -0.2134 -0.6338 -0.2476
  826MOL0     O 8903   0.038   9.408   7.006 -0.0902  0.1401 -0.3625
  826MOL0     C 8904  -0.088   9.360   7.001  0.1816  0.0538  0.3377
  826MOL0     C 8905  -0.219   9.426   6.987 -0.9366  0.0086 -0.0587
  826MOL0     C 8906  -0.343   9.357   6.982 -0.0732 -0.2230  0.0330
  826MOL0     C 8907  -0.343   9.217   6.987 -0.1962  0.3629 -1.3840
  826MOL0     O 8908  -0.460   9.146   6.978  0.4494  0.1792  0.4016
  826MOL0     C 8909  -0.448   9.004   6.988 -0.1947 -0.9484  1.0913
  826MOL0     C 8910  -0.586   8.940   6.972  0.8174  0.1781 -0.4842
  826MOL0     C 8911  -0.693   9.004   7.058 -0.1406  0.1807 -0.8881
  826MOL0     C 8912  -0.802   8.905   7.097  0.6565 -0.7277 -0.6790
  826MOL0     C 8913  -0.940   8.968   7.108 -0.3082  0.0497  0.3163
  826MOL0     C 8914  -1.045   8.933   7.003  0.1155 -0.5346 -0.4798
  826MOL0     C 8915  -0.985   8.933   6.858  0.1973  0.0124  0.7516
  826MOL0     C 8916  -1.106   8.916   6.752 -0.3501 -0.5839 -0.5374
  826MOL0     N 8917  -1.049   8.923   6.619 -0.2610  0.3889  0.7685
  826MOL0     C 8918  -0.994   9.025   6.555  0.1272  0.3540  0.9353
  826MOL0     C 8919  -0.952   8.980   6.438  0.4217 -0.0860 -0.0894
  826MOL0     C 8920  -0.898   9.062   6.332  0.1011 -0.2410 -0.8463
  826MOL0     C 8921  -0.757   9.020   6.301 -0.0043 -0.9658  0.9040
  826MOL0     C 8922  -0.686   9.090   6.182  0.5210  0.2264  0.3499
  826MOL0     C 8923  -0.771   9.093   6.054 -0.4184  0.1651 -0.5299
  826MOL0     O 8924  -0.814   8.958   6.026 -0.6710  0.0635  0.7942
  826MOL0     C 8925  -0.835   8.922   5.890 -0.7356  0.1648 -0.5690
  826MOL0     C 8926  -0.844   9.009   5.777  0.0046 -0.1810 -0.1981
  826MOL0     C 8927  -0.873   8.954   5.652  0.3104 -0.3218 -0.5651
  826MOL0     C 8928  -0.920   8.820   5.641  0.4759  0.4761 -0.0448
  826MOL0     C 8929  -0.980   8.768   5.514 -0.4084  0.0688  0.2603
  826MOL0     O 8930  -1.018   8.865   5.426 -1.0348  0.5220  0.1985
  826MOL0     C 8931  -1.053   8.830   5.294 -0.0516 -0.5563 -0.5563
  826MOL0     C 8932  -1.158   8.910   5.237 -0.4546  0.9417  0.2003
  826MOL0     C 8933  -1.214   8.870   5.108 -0.3359  0.0803 -0.1370
  826MOL0     C 8934  -1.151   8.759   5.036  0.1466 -0.3308  0.7305
  826MOL0     O 8935  -1.204   8.704   4.920 -0.4925 -0.5487  0.1567
  826MOL0     C 8936  -1.244   8.790   4.814 -0.0142  0.3630  0.0080
  826MOL0     C 8937  -1.188   8.717   4.692  0.2406  0.4373  0.2446
  826MOL0     C 8938  -1.263   8.745   4.553  0.0679  0.2558  0.0529
  826MOL0     C 8939  -1.408   8.688   4.547 -0.0021 -0.8254 -1.0974
  826MOL0     C 8940  -1.504   8.746   4.440  0.3802 -0.8306  0.3735
  826MOL0     C 8941  -1.483   8.695   4.293  0.3401 -0.2002 -0.2234
  826MOL0     C 8942  -1.562   8.769   4.187 -0.1153  0.2121  0.7000
  826MOL0     C 8943  -1.547   8.691   4.057  0.5766  1.5582 -0.4176
  826MOL0    Cl 8944  -1.379   8.697   4.011 -0.6192 -0.0532  0.1760
  826MOL0     C 8945  -1.046   8.692   5.090 -0.3020  0.4078 -0.4148
  826MOL0     C 8946  -1.005   8.722   5.221  1.1729  0.2093  0.6214
  826MOL0     O 8947  -0.980   8.645   5.492  0.2737 -0.1398  0.3566
  826MOL0     C 8948  -0.920   8.735   5.757 -0.4449 -0.2272  0.1869
  826MOL0     C 8949  -0.864   8.787   5.870  0.0178 -0.5742 -0.7674
  826MOL0     N 8950  -0.975   8.845   6.431 -0.0854  0.7004  0.7658
  826MOL0     N 8951  -1.047   8.811   6.533  0.0054  0.3109  0.5223
  826MOL0     C 8952  -0.215   9.149   6.991  0.7779  0.5326 -0.0672
  826MOL0     C 8953  -0.093   9.221   7.009  0.1386 -0.2379 -0.0557
  826MOL0     C 8954   0.224   9.496   7.147  0.1989  0.9328 -0.5751
  826MOL0     C 8955   0.299   9.502   7.026  0.3309  0.3258 -0.7753
  826MOL0     C 8956   0.430   9.558   7.041  0.6728 -0.6810  0.2123
  826MOL0     C 8957   0.491   9.602   7.162 -0.1745 -0.2103  0.5985
  826MOL0     O 8958   0.616   9.654   7.143 -0.3205  1.0091  0.0254
  826MOL0     C 8959   0.662   9.754   7.238  0.6148  0.5039  0.2465
  826MOL0     C 8960   0.746   9.856   7.149 -0.4045  0.0622 -0.2023
  826MOL0     C 8961   0.861   9.780   7.080 -1.2045 -0.0091  0.6501
  826MOL0     C 8962   0.946   9.857   6.978  0.3386 -0.6691  1.7236
  826MOL0     C 8963   1.041   9.962   7.022 -0.0339  0.6642 -1.1099
  826MOL0     C 8964   1.131  10.040   7.031  0.0436 -0.3069  0.0828
  826MOL0     C 8965   0.414   9.592   7.276 -0.1387 -0.0670 -0.2860
  826MOL0     C 8966   0.285   9.535   7.268  0.1484  0.1676  0.6473
  826MOL0     H 8967  -0.208   9.533   6.981 -0.4384 -0.1137 -3.1718
  826MOL0     H 8968  -0.429   9.425   6.980  1.7379  2.2050 -1.7268
  826MOL0     H 8969  -0.409   8.979   7.087  0.1990  1.8407  1.7233
  826MOL0     H 8970  -0.392   8.964   6.903 -3.4343 -0.5423 -1.4666
  826MOL0     H 8971  -0.573   8.835   6.998  2.1240  0.2236 -0.8964
  826MOL0     H 8972  -0.623   8.934   6.869 -0.5911  1.5509 -0.0963
  826MOL0     H 8973  -0.734   9.090   7.004 -1.4679  0.2878  0.2420
  826MOL0     H 8974  -0.651   9.038   7.153  1.8553 -1.9925 -0.8814
  826MOL0     H 8975  -0.811   8.824   7.023  2.4431 -0.2415 -1.5038
  826MOL0     H 8976  -0.790   8.858   7.195 -1.4914 -3.9442 -1.8010
  826MOL0     H 8977  -0.927   9.076   7.109 -0.5191  0.0793  0.0753
  826MOL0     H 8978  -0.975   8.939   7.207 -1.2064  0.4244  0.1203
  826MOL0     H 8979  -1.123   9.010   7.001  2.4137  1.9338 -1.1094
  826MOL0     H 8980  -1.086   8.835   7.030 -0.0219  0.5922  4.1379
  826MOL0     H 8981  -0.940   9.031   6.840 -0.4573  0.3814  1.0744
  826MOL0     H 8982  -0.905   8.861   6.838  0.6670  0.9359 -0.7919
  826MOL0     H 8983  -1.191   8.983   6.764  0.3880  0.6259 -1.8332
  826MOL0     H 8984  -1.138   8.813   6.774  1.9484 -1.5238 -1.2562
  826MOL0     H 8985  -0.998   9.123   6.601  0.6337 -0.3519  2.5797
  826MOL0     H 8986  -0.903   9.166   6.367 -2.1149 -0.7333  0.4626
  826MOL0     H 8987  -0.963   9.067   6.244 -2.3673 -1.7162  0.8001
  826MOL0     H 8988  -0.764   8.911   6.290  1.0897 -1.0538  1.0225
  826MOL0     H 8989  -0.695   9.048   6.387  0.2794  1.8480 -0.1063
  826MOL0     H 8990  -0.665   9.195   6.204  1.7195  0.0460  0.1127
  826MOL0     H 8991  -0.587   9.044   6.172 -0.1473 -0.8654 -1.7742
  826MOL0     H 8992  -0.704   9.124   5.974  0.0757  1.0087  0.1810
  826MOL0     H 8993  -0.861   9.154   6.067 -1.5067 -1.6597  0.9097
  826MOL0     H 8994  -0.820   9.114   5.792  1.4246  0.6556 -5.9700
  826MOL0     H 8995  -0.884   9.030   5.575  2.7540  2.6366  1.7339
  826MOL0     H 8996  -1.196   9.001   5.282 -1.0017 -0.3940  2.6395
  826MOL0     H 8997  -1.308   8.908   5.070 -0.6396  0.3313  0.8435
  826MOL0     H 8998  -1.195   8.888   4.814  0.4385  0.1403 -0.3187
  826MOL0     H 8999  -1.353   8.799   4.818 -0.0167  0.2364  0.2106
  826MOL0     H 9000  -1.177   8.612   4.721  1.0035 -0.3562 -2.5451
  826MOL0     H 9001  -1.084   8.747   4.678  0.8124 -1.2655  0.5990
  826MOL0     H 9002  -1.201   8.695   4.478  2.8856 -1.3456  3.1395
  826MOL0     H 9003  -1.271   8.852   4.531 -1.5472 -0.2809 -2.2338
  826MOL0     H 9004  -1.395   8.580   4.534  1.0987 -0.7905 -0.4174
  826MOL0     H 9005  -1.474   8.701   4.634  0.3897  1.0602 -1.0566
  826MOL0     H 9006  -1.478   8.853   4.437  3.4944 -1.5140 -0.7143
  826MOL0     H 9007  -1.609   8.731   4.467  0.4597  1.5459  2.4479
  826MOL0     H 9008  -1.487   8.586   4.290  0.2620 -0.2173  0.4548
  826MOL0     H 9009  -1.375   8.710   4.285  0.5751 -1.5900  0.1089
  826MOL0     H 9010  -1.667   8.762   4.220 -0.7155 -1.0224 -1.2565
  826MOL0     H 9011  -1.517   8.867   4.169  1.1428 -0.2209  1.4157
  826MOL0     H 9012  -1.603   8.738   3.976  0.2169  1.0865 -0.4428
  826MOL0     H 9013  -1.571   8.586   4.075  0.3394  1.8024  0.8173
  826MOL0     H 9014  -1.014   8.609   5.029 -1.3690 -1.4208  1.3868
  826MOL0     H 9015  -0.926   8.664   5.266  0.7567 -0.5090  0.4396
  826MOL0     H 9016  -0.930   8.627   5.751  2.0678 -0.5660  0.6604
  826MOL0     H 9017  -0.838   8.728   5.958  0.9411  1.0683  0.1169
  826MOL0     H 9018  -0.212   9.042   7.003  2.6592  0.5124 -0.3892
  826MOL0     H 9019  -0.003   9.163   7.024  0.9309  1.1927  0.9150
  826MOL0     H 9020   0.257   9.470   6.932 -1.7737  0.9904 -0.1176
  826MOL0     H 9021   0.491   9.552   6.951 -2.3020 -1.7887 -1.9062
  826MOL0     H 9022   0.727   9.714   7.317 -1.9509  0.8229  2.7136
  826MOL0     H 9023   0.594   9.823   7.290  1.0543  2.3610 -1.5206
  826MOL0     H 9024   0.677   9.903   7.078  1.2416 -0.6928 -2.4484
  826MOL0     H 9025   0.792   9.940   7.201  0.9356  1.3303 -3.1627
  826MOL0     H 9026   0.805   9.699   7.032  1.6870 -1.4770 -0.4607
  826MOL0     H 9027   0.926   9.740   7.158 -1.1220  0.0820  0.6278
  826MOL0     H 9028   1.008   9.784   6.924 -1.0456  1.6402 -3.7006
  826MOL0     H 9029   0.881   9.908   6.906  0.0153  0.5703  2.8786
  826MOL0     H 9030   1.229  10.080   7.046 -0.3060  0.7101 -0.3134
  826MOL0     H 9031   0.462   9.618   7.370 -0.6908 -0.9974  0.2671
  826MOL0     H 9032   0.230   9.513   7.359 -2.3035  1.1059 -0.5096
  827MOL0     O 9033  10.637   3.356   0.607  0.8239 -0.5171 -0.2116
  827MOL0     C 9034  10.575   3.258   0.644 -1.3876 -0.4227  0.3783
  827MOL0     O 9035  10.443   3.254   0.663 -0.1873  1.3907  0.2185
  827MOL0     C 9036  10.364   3.346   0.593  0.9333 -0.0838 -0.2503
  827MOL0     C 9037  10.374   3.372   0.454 -0.2459 -1.5738 -0.1745
  827MOL0     C 9038  10.276   3.456   0.388  0.4905 -0.2143  0.9711
  827MOL0     C 9039  10.178   3.525   0.463 -0.0661  1.0138 -0.1886
  827MOL0     O 9040  10.088   3.622   0.413 -0.9095 -0.0775 -0.3169
  827MOL0     C 9041  10.057   3.631   0.279 -0.6638 -0.0028  0.4805
  827MOL0     C 9042   9.940   3.730   0.266  0.0235  0.7306 -0.5668
  827MOL0     C 9043   9.889   3.737   0.117  0.9519 -1.0563 -0.6816
  827MOL0     C 9044   9.817   3.617   0.064  0.0626  0.0488 -0.9652
  827MOL0     C 9045   9.700   3.653  -0.034 -0.0666  0.0771 -0.7681
  827MOL0     C 9046   9.566   3.596   0.033 -0.7815  0.3865 -0.4953
  827MOL0     C 9047   9.430   3.627  -0.039  0.4410  0.1773 -0.2915
  827MOL0     C 9048   9.389   3.771  -0.001  0.2322 -0.2451 -0.1982
  827MOL0     N 9049   9.272   3.805  -0.089  0.0483  0.1105 -0.5289
  827MOL0     C 9050   9.146   3.768  -0.076  1.0075  0.7146  0.3107
  827MOL0     C 9051   9.075   3.824  -0.176 -0.3253 -0.5969 -0.5019
  827MOL0     C 9052   8.933   3.802  -0.211 -0.5769  0.2641  0.4995
  827MOL0     C 9053   8.844   3.919  -0.158  0.3825  0.4301  0.0257
  827MOL0     C 9054   8.700   3.907  -0.215  0.3985 -0.6981  0.5746
  827MOL0     C 9055   8.622   4.031  -0.202  0.3246  0.1731  0.4179
  827MOL0     O 9056   8.480   4.006  -0.210 -0.1752  0.4721  0.1554
  827MOL0     C 9057   8.413   4.004  -0.332 -0.7523  0.1948 -0.3295
  827MOL0     C 9058   8.278   3.971  -0.315  0.2430 -0.4946 -1.0518
  827MOL0     C 9059   8.198   3.972  -0.431 -0.2730  0.8823 -0.9035
  827MOL0     C 9060   8.250   3.998  -0.562  0.4358 -0.6744 -0.5696
  827MOL0     C 9061   8.159   4.015  -0.673 -0.4245 -1.2464  0.2115
  827MOL0     O 9062   8.042   3.950  -0.660 -0.0817 -0.3606 -0.0290
  827MOL0     C 9063   7.952   3.972  -0.760  0.2712  0.7029 -0.6193
  827MOL0     C 9064   7.914   4.098  -0.809 -1.1932  0.8913  0.5689
  827MOL0     C 9065   7.820   4.108  -0.910  0.2353  0.3558 -0.6763
  827MOL0     C 9066   7.752   3.990  -0.956  0.5075 -0.1972  0.3721
  827MOL0     O 9067   7.649   4.020  -1.045 -1.4146 -0.4850 -0.3222
  827MOL0     C 9068   7.617   3.927  -1.145 -0.0267  0.0382  0.3541
  827MOL0     C 9069   7.534   4.006  -1.245  0.2899 -0.3800  0.3717
  827MOL0     C 9070   7.419   3.902  -1.286 -0.4880 -0.4475 -0.4839
  827MOL0     C 9071   7.327   3.982  -1.375  0.6441  0.4876  0.3381
  827MOL0     C 9072   7.218   3.887  -1.432  0.9001 -0.5323 -0.4058
  827MOL0     C 9073   7.088   3.970  -1.455  0.3294  0.2654  0.6631
  827MOL0     C 9074   6.957   3.887  -1.441 -0.9644  0.3250 -0.2955
  827MOL0     C 9075   6.849   3.963  -1.519 -0.3587 -0.2518 -0.4304
  827MOL0    Cl 9076   6.870   3.946  -1.699  0.4348  0.3372  0.1045
  827MOL0     C 9077   7.785   3.864  -0.917  0.3141 -1.3578 -1.2200
  827MOL0     C 9078   7.884   3.859  -0.816  0.2023  0.3484 -0.6871
  827MOL0     O 9079   8.200   4.074  -0.779 -0.6529  0.0789 -0.4340
  827MOL0     C 9080   8.388   4.015  -0.571  0.2256 -0.3126  1.3869
  827MOL0     C 9081   8.459   4.025  -0.457 -0.1132  0.1251  1.2187
  827MOL0     N 9082   9.164   3.890  -0.265 -0.5291 -0.0469  0.1303
  827MOL0     N 9083   9.279   3.873  -0.210 -0.3045 -0.2600  0.4555
  827MOL0     C 9084  10.172   3.496   0.603  0.1906 -0.0231  0.4625
  827MOL0     C 9085  10.262   3.414   0.667 -0.8473 -0.5863 -0.0460
  827MOL0     C 9086  10.658   3.146   0.685  0.6575  0.0526  0.6946
  827MOL0     C 9087  10.625   3.082   0.809 -0.3040 -0.4906  0.3479
  827MOL0     C 9088  10.712   3.001   0.868  0.4461  0.2559  0.3745
  827MOL0     C 9089  10.828   2.960   0.814 -0.2434  0.4756  0.0810
  827MOL0     O 9090  10.899   2.872   0.895 -0.5977  0.4799  0.1200
  827MOL0     C 9091  11.005   2.811   0.824 -0.0058  0.0570  0.2491
  827MOL0     C 9092  11.066   2.698   0.915 -0.3244 -0.7409  0.2608
  827MOL0     C 9093  11.142   2.746   1.045  0.9977  0.5545  0.6766
  827MOL0     C 9094  11.182   2.637   1.138  0.1041 -0.0608 -0.5110
  827MOL0     C 9095  11.290   2.560   1.085 -0.2106 -0.3401 -0.0096
  827MOL0     C 9096  11.374   2.485   1.058 -0.9258  0.0750  0.1865
  827MOL0     C 9097  10.863   3.017   0.688 -0.3674 -0.1020 -0.0036
  827MOL0     C 9098  10.784   3.121   0.626 -0.1880  0.2782 -0.2282
  827MOL0     H 9099  10.443   3.313   0.395  1.0106 -1.4688  1.1390
  827MOL0     H 9100  10.291   3.471   0.282  0.2156 -0.6969  0.8628
  827MOL0     H 9101  10.037   3.530   0.242  0.1301 -0.1615  0.4626
  827MOL0     H 9102  10.140   3.681   0.229 -1.6760  0.7907 -0.4679
  827MOL0     H 9103   9.977   3.826   0.303 -0.1207  0.4398  0.3600
  827MOL0     H 9104   9.857   3.688   0.323 -0.3496  0.6608 -1.1490
  827MOL0     H 9105   9.975   3.775   0.062  1.2830 -2.6546 -1.3191
  827MOL0     H 9106   9.812   3.814   0.127  0.9933 -1.2328  1.4991
  827MOL0     H 9107   9.891   3.563   0.004 -0.9027  0.7594 -2.8700
  827MOL0     H 9108   9.788   3.549   0.145  0.8156  1.0902  0.2059
  827MOL0     H 9109   9.724   3.598  -0.126  2.1267  0.9544 -0.7797
  827MOL0     H 9110   9.699   3.758  -0.063  2.6046  0.3664 -0.0234
  827MOL0     H 9111   9.554   3.636   0.134 -1.9873  0.1210 -0.5250
  827MOL0     H 9112   9.577   3.488   0.052 -1.1208  0.5223  0.5592
  827MOL0     H 9113   9.426   3.609  -0.147 -0.9996 -0.0112 -0.2203
  827MOL0     H 9114   9.355   3.564   0.010  2.1845 -0.8219  1.2320
  827MOL0     H 9115   9.472   3.838  -0.027  0.7770  0.0415  2.0515
  827MOL0     H 9116   9.374   3.774   0.107 -2.2566  2.0228 -0.4806
  827MOL0     H 9117   9.103   3.706   0.002 -1.5029  2.4792  0.4564
  827MOL0     H 9118   8.896   3.710  -0.165 -1.8229  0.8247  0.6536
  827MOL0     H 9119   8.936   3.798  -0.320 -1.8658 -0.5004  0.4669
  827MOL0     H 9120   8.880   4.018  -0.189 -1.0185  0.6008 -1.1694
  827MOL0     H 9121   8.835   3.913  -0.049  2.9710 -3.3683  0.2175
  827MOL0     H 9122   8.696   3.888  -0.323  2.2365 -0.9468  0.5273
  827MOL0     H 9123   8.652   3.827  -0.157 -1.4158  0.7696  1.1886
  827MOL0     H 9124   8.660   4.099  -0.279  0.8693  0.2744  0.7692
  827MOL0     H 9125   8.643   4.072  -0.103 -1.8481 -3.0373  2.4093
  827MOL0     H 9126   8.238   3.963  -0.215 -2.1518  0.2890 -1.8669
  827MOL0     H 9127   8.092   3.957  -0.420  0.2593 -2.7879  0.6912
  827MOL0     H 9128   7.955   4.191  -0.770 -0.3710  0.4106  0.8888
  827MOL0     H 9129   7.764   4.196  -0.940 -1.5022  0.3185  2.0881
  827MOL0     H 9130   7.560   3.841  -1.109 -2.2886  0.5476 -1.7397
  827MOL0     H 9131   7.699   3.890  -1.206 -1.6232 -3.2020 -0.0466
  827MOL0     H 9132   7.589   4.041  -1.333 -0.2381  0.6054  0.4267
  827MOL0     H 9133   7.502   4.102  -1.205  0.4852  0.9057 -2.3129
  827MOL0     H 9134   7.368   3.860  -1.200  0.5439  0.2026  0.4811
  827MOL0     H 9135   7.453   3.818  -1.347 -0.8645 -0.5710 -0.5222
  827MOL0     H 9136   7.279   4.073  -1.339 -1.5323  0.4831 -2.2756
  827MOL0     H 9137   7.379   4.020  -1.462  0.0655  1.6739  0.4907
  827MOL0     H 9138   7.203   3.807  -1.359 -1.2923  1.9632  2.1224
  827MOL0     H 9139   7.254   3.840  -1.524  1.6669  0.7933 -0.8301
  827MOL0     H 9140   7.098   4.025  -1.548 -0.3535 -1.7926 -0.6992
  827MOL0     H 9141   7.091   4.037  -1.369  0.2653  1.7240 -0.4377
  827MOL0     H 9142   6.964   3.787  -1.484 -0.3915  0.3445 -0.2528
  827MOL0     H 9143   6.938   3.886  -1.333  0.2787  0.8941 -0.0533
  827MOL0     H 9144   6.855   4.070  -1.495  0.7641 -0.2811 -0.5421
  827MOL0     H 9145   6.748   3.926  -1.496 -0.2648 -1.7122 -2.1620
  827MOL0     H 9146   7.741   3.772  -0.955  0.3690 -2.1897  0.6596
  827MOL0     H 9147   7.908   3.758  -0.787 -2.2780 -1.0232 -2.9445
  827MOL0     H 9148   8.456   4.036  -0.652  1.7574  0.7119  2.8628
  827MOL0     H 9149   8.563   4.049  -0.477  0.5540 -2.3963  1.2517
  827MOL0     H 9150  10.116   3.555   0.676  3.5074  2.5943  1.1897
  827MOL0     H 9151  10.265   3.384   0.771  1.5905 -1.6842 -0.3578
  827MOL0     H 9152  10.528   3.096   0.854 -0.1774 -3.0778  1.5831
  827MOL0     H 9153  10.676   2.951   0.958 -4.7415 -0.7087 -1.8693
  827MOL0     H 9154  11.085   2.884   0.815 -0.5223  0.8358  1.6105
  827MOL0     H 9155  10.983   2.769   0.725 -0.9756 -0.2512  0.5798
  827MOL0     H 9156  10.990   2.637   0.965 -0.4579  1.6336  3.2605
  827MOL0     H 9157  11.134   2.638   0.854  0.8013  3.3929 -3.0546
  827MOL0     H 9158  11.066   2.811   1.090  0.5080  1.7432 -1.7269
  827MOL0     H 9159  11.236   2.794   1.017  0.4824  1.3611  0.2879
  827MOL0     H 9160  11.204   2.672   1.240 -0.7544 -3.7137  1.0640
  827MOL0     H 9161  11.094   2.574   1.149  0.7335 -0.5351  3.3486
  827MOL0     H 9162  11.446   2.412   1.025 -0.0156  2.1360 -2.8615
  827MOL0     H 9163  10.958   2.987   0.645  0.2544  0.9232  0.6131
  827MOL0     H 9164  10.811   3.167   0.531 -0.0562  0.1917 -0.2330
  828MOL0     O 9165   0.233   3.269   7.834  0.3083  0.2544  0.4796
  828MOL0     C 9166   0.302   3.184   7.889  1.2954 -0.1038 -0.1546
  828MOL0     O 9167   0.254   3.090   7.984 -0.3144  0.0708  0.2283
  828MOL0     C 9168   0.130   3.095   8.038  0.7550  0.4819  0.3270
  828MOL0     C 9169   0.039   3.210   8.053 -1.0661  0.7167  0.3680
  828MOL0     C 9170  -0.092   3.193   8.094  0.0301 -0.2749 -0.7265
  828MOL0     C 9171  -0.135   3.069   8.145 -0.0777 -0.6363  0.1987
  828MOL0     O 9172  -0.268   3.058   8.170  0.3356  0.1244 -0.2635
  828MOL0     C 9173  -0.327   2.927   8.178  0.7347 -0.3926  0.0478
  828MOL0     C 9174  -0.474   2.954   8.153 -0.3971  0.8956 -0.0901
  828MOL0     C 9175  -0.567   2.840   8.195 -0.5380 -0.8354 -1.1345
  828MOL0     C 9176  -0.610   2.855   8.344  0.6367 -1.3031  0.1945
  828MOL0     C 9177  -0.640   2.714   8.400 -0.9027 -0.4771 -0.2753
  828MOL0     C 9178  -0.752   2.625   8.338  0.0413 -0.2930  0.4163
  828MOL0     C 9179  -0.877   2.700   8.299  0.0043 -0.6654  0.3000
  828MOL0     C 9180  -0.951   2.608   8.194  0.1197 -0.5517 -0.5219
  828MOL0     N 9181  -1.083   2.635   8.170  0.3139  0.3451  0.8379
  828MOL0     C 9182  -1.136   2.765   8.197 -0.5059  0.4177 -0.3462
  828MOL0     C 9183  -1.270   2.747   8.200 -0.4506  0.5308 -0.1479
  828MOL0     C 9184  -1.371   2.847   8.238 -0.8783  0.5572  0.2469
  828MOL0     C 9185  -1.366   2.870   8.396 -0.3284  0.6359  0.2457
  828MOL0     C 9186  -1.441   2.994   8.448  0.0364 -0.6605 -0.0348
  828MOL0     C 9187  -1.451   2.996   8.595 -0.1164  0.6380 -0.3146
  828MOL0     O 9188  -1.490   3.123   8.647  0.2788 -0.0000  0.0511
  828MOL0     C 9189  -1.619   3.162   8.636  0.6497  0.5775 -0.4607
  828MOL0     C 9190  -1.721   3.086   8.578  1.2556 -0.3769 -0.9607
  828MOL0     C 9191  -1.852   3.128   8.569 -0.3818 -0.5566  0.0745
  828MOL0     C 9192  -1.879   3.245   8.634 -0.1984 -0.0950  0.2111
  828MOL0     C 9193  -2.018   3.301   8.650 -0.1085 -0.1822 -0.4481
  828MOL0     O 9194  -2.120   3.228   8.586  0.5056  0.0017 -0.4846
  828MOL0     C 9195  -2.255   3.264   8.595 -0.4115  0.6951  0.1329
  828MOL0     C 9196  -2.310   3.395   8.625 -0.4770  0.0295  0.2947
  828MOL0     C 9197  -2.446   3.410   8.628  0.7273  0.5350  1.1431
  828MOL0     C 9198  -2.532   3.303   8.588 -0.5757 -0.0472  0.2351
  828MOL0     O 9199  -2.670   3.313   8.601 -0.2858  0.5642  0.3727
  828MOL0     C 9200  -2.718   3.440   8.632  0.1438 -0.6551  0.0410
  828MOL0     C 9201  -2.867   3.437   8.631 -0.4777 -1.3452 -0.1587
  828MOL0     C 9202  -2.926   3.582   8.619 -0.2105 -0.1252  0.3155
  828MOL0     C 9203  -3.075   3.575   8.637 -0.1272  0.3774 -0.4296
  828MOL0     C 9204  -3.158   3.702   8.596  0.0957  0.0836 -1.1332
  828MOL0     C 9205  -3.289   3.722   8.683 -0.3184 -0.2283 -0.2695
  828MOL0     C 9206  -3.382   3.606   8.689  0.2831  0.1163 -0.2122
  828MOL0     C 9207  -3.489   3.612   8.578 -0.3837 -0.6100  0.4240
  828MOL0    Cl 9208  -3.603   3.745   8.612 -0.0320  0.0586  0.1103
  828MOL0     C 9209  -2.478   3.187   8.548 -0.2300  0.3477  1.4235
  828MOL0     C 9210  -2.343   3.165   8.562 -0.2334 -0.2453 -0.1074
  828MOL0     O 9211  -2.031   3.400   8.727  0.1827  0.1159 -0.3212
  828MOL0     C 9212  -1.774   3.327   8.688  1.2220  0.9483  0.7747
  828MOL0     C 9213  -1.646   3.289   8.686 -0.1714  0.0914  1.0054
  828MOL0     N 9214  -1.301   2.610   8.179  0.1498 -0.1201 -0.0687
  828MOL0     N 9215  -1.185   2.552   8.152  0.9820  0.3064 -0.7765
  828MOL0     C 9216  -0.039   2.959   8.146  0.9876  0.0068  0.3122
  828MOL0     C 9217   0.087   2.974   8.093  0.7510  0.5382  0.9671
  828MOL0     C 9218   0.437   3.159   7.841 -0.0268 -0.5120  0.1801
  828MOL0     C 9219   0.523   3.065   7.905 -0.3463  0.5094  0.6443
  828MOL0     C 9220   0.666   3.056   7.873  0.5392 -0.5492 -0.3899
  828MOL0     C 9221   0.724   3.149   7.787  0.1937  0.6866 -0.2306
  828MOL0     O 9222   0.861   3.151   7.783  0.3389  0.4384  0.2653
  828MOL0     C 9223   0.922   3.271   7.724  0.1773 -0.6715 -0.3706
  828MOL0     C 9224   1.061   3.285   7.775 -0.7947  0.1381 -0.6011
  828MOL0     C 9225   1.077   3.312   7.934 -0.0077 -0.4267  0.2386
  828MOL0     C 9226   1.214   3.271   7.991 -0.0372 -0.4463  0.6210
  828MOL0     C 9227   1.227   3.263   8.139  0.2768 -0.7738 -0.0948
  828MOL0     C 9228   1.230   3.259   8.262 -0.1006  0.5630 -1.2557
  828MOL0     C 9229   0.642   3.247   7.727  0.4850  0.3937  0.4183
  828MOL0     C 9230   0.505   3.251   7.754  0.9176  0.4358 -0.5564
  828MOL0     H 9231   0.063   3.313   8.026  0.1473  1.2760  3.2226
  828MOL0     H 9232  -0.160   3.277   8.105 -1.4712 -1.5157 -0.1012
  828MOL0     H 9233  -0.311   2.894   8.282  1.4874 -0.0594  0.0428
  828MOL0     H 9234  -0.293   2.857   8.102 -0.1257 -1.0030  0.2139
  828MOL0     H 9235  -0.493   2.967   8.046  2.0239  0.1558 -0.6686
  828MOL0     H 9236  -0.489   3.050   8.204  0.7247  0.2468  1.5427
  828MOL0     H 9237  -0.514   2.744   8.193  0.5785 -0.2495 -0.8646
  828MOL0     H 9238  -0.660   2.839   8.138 -2.9238  1.9376  2.3119
  828MOL0     H 9239  -0.532   2.900   8.406  0.4793  2.0324 -1.8183
  828MOL0     H 9240  -0.696   2.922   8.343  0.5957 -1.3445  0.6260
  828MOL0     H 9241  -0.665   2.730   8.505 -0.1147  2.7927 -0.4694
  828MOL0     H 9242  -0.544   2.661   8.397 -0.5152  0.1836  0.0694
  828MOL0     H 9243  -0.781   2.550   8.411  0.8569 -0.1280  0.9172
  828MOL0     H 9244  -0.714   2.572   8.250  1.1002 -0.2339  0.8194
  828MOL0     H 9245  -0.933   2.710   8.392  0.4657  0.0658  0.5079
  828MOL0     H 9246  -0.859   2.804   8.270  2.2567 -0.6381  1.5992
  828MOL0     H 9247  -0.948   2.506   8.232 -5.2055 -0.6785  0.3772
  828MOL0     H 9248  -0.897   2.601   8.100  0.6864 -1.4850 -0.1432
  828MOL0     H 9249  -1.076   2.852   8.220  2.4098 -2.0702  2.3959
  828MOL0     H 9250  -1.471   2.813   8.209 -1.1760  1.2471  0.4410
  828MOL0     H 9251  -1.348   2.944   8.192  2.6451  0.2972  1.1867
  828MOL0     H 9252  -1.257   2.871   8.407  0.2237 -1.9719 -3.2749
  828MOL0     H 9253  -1.414   2.787   8.448 -0.0777 -0.1040 -0.6818
  828MOL0     H 9254  -1.381   3.082   8.424 -0.7388 -0.3479 -0.9193
  828MOL0     H 9255  -1.539   2.990   8.399 -0.7564 -0.0241  1.4606
  828MOL0     H 9256  -1.347   2.981   8.623 -0.2007  0.4110 -0.1246
  828MOL0     H 9257  -1.508   2.909   8.630 -0.8274  2.3531  3.2371
  828MOL0     H 9258  -1.699   2.986   8.544 -0.1850 -1.3281  0.7485
  828MOL0     H 9259  -1.928   3.071   8.517  0.4842  0.2090 -2.1353
  828MOL0     H 9260  -2.235   3.469   8.651 -0.0225 -0.1307 -0.5031
  828MOL0     H 9261  -2.474   3.509   8.665  0.3466  0.2788  1.5476
  828MOL0     H 9262  -2.679   3.509   8.557  1.5294 -1.0814  0.3265
  828MOL0     H 9263  -2.695   3.475   8.733  0.0522  2.1640 -0.8232
  828MOL0     H 9264  -2.899   3.399   8.728  1.2169  2.5957  2.2029
  828MOL0     H 9265  -2.907   3.379   8.547  0.1059  1.7608 -2.8113
  828MOL0     H 9266  -2.904   3.623   8.520 -2.6256  1.6352  0.4338
  828MOL0     H 9267  -2.878   3.646   8.693  1.1687 -1.8597  1.0049
  828MOL0     H 9268  -3.104   3.496   8.566  0.5656 -0.4921  0.2375
  828MOL0     H 9269  -3.090   3.544   8.740 -2.1605  1.2416 -0.4131
  828MOL0     H 9270  -3.180   3.696   8.489  1.3024  3.2628 -1.7041
  828MOL0     H 9271  -3.100   3.795   8.607 -0.3432  0.2109  0.4357
  828MOL0     H 9272  -3.345   3.806   8.641  1.2527  0.5189 -0.9819
  828MOL0     H 9273  -3.259   3.751   8.784  1.7260  0.0709 -0.9063
  828MOL0     H 9274  -3.331   3.509   8.689 -2.1138 -1.2343 -0.3516
  828MOL0     H 9275  -3.431   3.604   8.787  0.3552 -1.7520 -0.1799
  828MOL0     H 9276  -3.550   3.521   8.574  0.0034 -0.8662  0.3816
  828MOL0     H 9277  -3.447   3.634   8.479  0.4873  0.9367  1.1054
  828MOL0     H 9278  -2.544   3.114   8.504 -0.8581  0.9438  1.3593
  828MOL0     H 9279  -2.293   3.077   8.523 -1.1238 -0.0808 -1.7368
  828MOL0     H 9280  -1.792   3.421   8.738 -0.7653 -0.5170  3.0351
  828MOL0     H 9281  -1.560   3.345   8.723 -1.0543  2.8793 -0.8832
  828MOL0     H 9282  -0.073   2.861   8.177 -1.9330  0.5167 -1.0067
  828MOL0     H 9283   0.140   2.880   8.084 -3.3716 -1.8771 -0.6895
  828MOL0     H 9284   0.474   2.998   7.974 -0.5004  2.1744  2.2107
  828MOL0     H 9285   0.737   2.985   7.916  0.9883  0.0167 -0.1846
  828MOL0     H 9286   0.865   3.355   7.768  1.9048 -0.7835  2.3103
  828MOL0     H 9287   0.910   3.258   7.616  1.8975 -2.4007 -0.3935
  828MOL0     H 9288   1.122   3.196   7.757  1.6790  1.7455 -0.7461
  828MOL0     H 9289   1.115   3.360   7.716  1.7561 -1.3546 -0.3114
  828MOL0     H 9290   1.007   3.254   7.994 -0.0798  0.6501  1.2244
  828MOL0     H 9291   1.061   3.419   7.950  2.0485  0.3635 -2.2653
  828MOL0     H 9292   1.244   3.172   7.956 -0.0180 -0.4391  0.6168
  828MOL0     H 9293   1.290   3.340   7.953  1.7928 -2.0548  1.1758
  828MOL0     H 9294   1.237   3.254   8.369 -2.6197 -1.4036 -1.0878
  828MOL0     H 9295   0.680   3.317   7.653 -1.4326  0.1468 -0.8814
  828MOL0     H 9296   0.434   3.325   7.720 -1.8174 -1.6152  0.2881
  829MOL0     O 9297   2.696   9.043   9.309  0.0638  0.2211 -0.8388
  829MOL0     C 9298   2.755   9.135   9.368 -0.3692 -0.7450  0.4593
  829MOL0     O 9299   2.699   9.249   9.425  0.2166  0.0103  0.4876
  829MOL0     C 9300   2.580   9.297   9.373 -0.0791  0.4338 -0.0288
  829MOL0     C 9301   2.576   9.403   9.287  0.7956 -0.4564 -0.3206
  829MOL0     C 9302   2.441   9.452   9.257 -0.1425 -0.3067 -0.5506
  829MOL0     C 9303   2.323   9.389   9.301 -0.0823 -1.0285 -0.0645
  829MOL0     O 9304   2.206   9.443   9.245  0.3522  0.1419 -0.1571
  829MOL0     C 9305   2.083   9.399   9.305 -1.1006  0.2574 -0.3638
  829MOL0     C 9306   1.969   9.496   9.282  0.1099 -0.1707 -0.1119
  829MOL0     C 9307   1.840   9.426   9.326 -0.1264 -0.1185 -0.0189
  829MOL0     C 9308   1.717   9.531   9.312 -0.0582  0.4524 -0.2518
  829MOL0     C 9309   1.716   9.629   9.436  0.5186 -0.5545  0.0334
  829MOL0     C 9310   1.587   9.711   9.425 -0.6967  0.1269  0.1247
  829MOL0     C 9311   1.596   9.839   9.501 -0.2748  0.6956 -0.7489
  829MOL0     C 9312   1.470   9.920   9.481  0.0214  0.1873  0.2983
  829MOL0     N 9313   1.472  10.041   9.569  0.0838 -0.1926 -0.0652
  829MOL0     C 9314   1.411  10.041   9.689 -0.1987 -0.8380 -0.1381
  829MOL0     C 9315   1.438  10.167   9.739 -0.9211  0.0082  0.2998
  829MOL0     C 9316   1.406  10.224   9.870 -0.2747 -0.0006 -0.3861
  829MOL0     C 9317   1.264  10.223   9.911  0.5019 -0.3133 -0.5599
  829MOL0     C 9318   1.172  10.283   9.804 -0.1177 -0.6890 -0.5854
  829MOL0     C 9319   1.028  10.302   9.864 -0.8907  0.0954  0.5233
  829MOL0     O 9320   0.978  10.410   9.783 -0.0919  0.7049 -0.0141
  829MOL0     C 9321   0.856  10.398   9.734  0.0514 -0.8349 -0.0423
  829MOL0     C 9322   0.746  10.354   9.813 -0.5759  0.0275  0.3601
  829MOL0     C 9323   0.619  10.359   9.765 -0.3921  0.1131 -0.4948
  829MOL0     C 9324   0.604  10.394   9.631 -0.0407  0.8437 -0.6637
  829MOL0     C 9325   0.469  10.388   9.570 -0.1076  0.5992 -0.1267
  829MOL0     O 9326   0.364  10.324   9.643 -1.0284 -0.8930 -0.0763
  829MOL0     C 9327   0.233  10.319   9.603  0.5219 -0.9734 -0.7721
  829MOL0     C 9328   0.176  10.413   9.517  0.0027 -0.5515  1.5383
  829MOL0     C 9329   0.042  10.391   9.468 -0.4836  0.6134 -0.0393
  829MOL0     C 9330  -0.040  10.291   9.526 -0.5582  0.1102 -0.6805
  829MOL0     O 9331  -0.168  10.272   9.474 -0.0344  0.3801  0.3812
  829MOL0     C 9332  -0.248  10.159   9.517 -0.2079  0.1597  0.2380
  829MOL0     C 9333  -0.396  10.176   9.469 -0.6279 -0.3919  0.5915
  829MOL0     C 9334  -0.453  10.311   9.517  0.2487 -0.5123  0.0737
  829MOL0     C 9335  -0.604  10.316   9.473  0.1790  0.3468 -0.0004
  829MOL0     C 9336  -0.665  10.457   9.465 -0.1326  0.3644 -0.3408
  829MOL0     C 9337  -0.624  10.519   9.325 -0.1140  0.3949  0.6820
  829MOL0     C 9338  -0.704  10.654   9.319 -0.3440  0.3599 -1.1135
  829MOL0     C 9339  -0.644  10.732   9.200 -0.3494 -0.4489 -0.5536
  829MOL0    Cl 9340  -0.471  10.770   9.213  0.2074  0.1090  0.5949
  829MOL0     C 9341   0.020  10.195   9.614 -0.5564  0.1267  0.0926
  829MOL0     C 9342   0.153  10.212   9.649 -0.4633 -0.0332  0.7511
  829MOL0     O 9343   0.465  10.439   9.459 -0.6839  0.4519  0.3729
  829MOL0     C 9344   0.714  10.431   9.548  0.7350  0.0243 -0.2823
  829MOL0     C 9345   0.834  10.436   9.592 -0.6201  0.0237  0.4527
  829MOL0     N 9346   1.517  10.234   9.645 -0.3718  0.2280 -0.1315
  829MOL0     N 9347   1.536  10.156   9.548 -0.3559 -0.4561  0.3183
  829MOL0     C 9348   2.333   9.293   9.401 -0.7890  0.7715 -0.1201
  829MOL0     C 9349   2.460   9.243   9.434  0.8302  0.4047  0.4423
  829MOL0     C 9350   2.897   9.105   9.395 -0.0928 -0.1654  0.1543
  829MOL0     C 9351   2.964   8.999   9.333  0.6249  1.1540 -0.5955
  829MOL0     C 9352   3.095   8.973   9.377 -0.3990 -0.4343  0.4274
  829MOL0     C 9353   3.164   9.051   9.467  0.1625 -0.6162 -0.1155
  829MOL0     O 9354   3.292   9.023   9.492  0.6558 -0.8980  0.1684
  829MOL0     C 9355   3.353   9.080   9.608 -0.3185 -0.0543 -0.5325
  829MOL0     C 9356   3.458   8.992   9.666  0.0754 -0.4024 -0.1642
  829MOL0     C 9357   3.571   8.949   9.559  0.2147 -0.3751 -0.0696
  829MOL0     C 9358   3.687   9.042   9.559 -0.4135  0.7201 -0.7374
  829MOL0     C 9359   3.800   8.985   9.480 -0.0753 -0.0639 -0.2424
  829MOL0     C 9360   3.887   8.936   9.408  0.1252 -0.8910 -0.5191
  829MOL0     C 9361   3.091   9.149   9.534 -0.1892 -0.2170 -1.2875
  829MOL0     C 9362   2.961   9.180   9.495 -0.0976 -0.9000 -0.5199
  829MOL0     H 9363   2.662   9.451   9.244 -0.4401  1.8081 -0.4223
  829MOL0     H 9364   2.432   9.534   9.187 -2.9799 -1.6417 -1.8904
  829MOL0     H 9365   2.097   9.391   9.413 -0.6148  0.5424 -0.4056
  829MOL0     H 9366   2.053   9.304   9.259  1.3616 -1.4738  1.3362
  829MOL0     H 9367   1.955   9.513   9.175 -0.3246 -4.0799 -0.8303
  829MOL0     H 9368   1.993   9.590   9.333 -0.2220  0.1192 -0.4777
  829MOL0     H 9369   1.845   9.377   9.423 -1.0955 -0.8883 -0.3382
  829MOL0     H 9370   1.815   9.345   9.256 -0.4124  1.8553 -2.3537
  829MOL0     H 9371   1.716   9.578   9.214 -1.0284  2.0854  0.5091
  829MOL0     H 9372   1.624   9.472   9.314 -0.5912  1.2985  0.5266
  829MOL0     H 9373   1.807   9.689   9.430 -0.2057  0.4966 -4.4438
  829MOL0     H 9374   1.711   9.585   9.535 -0.5715 -0.5865 -0.0169
  829MOL0     H 9375   1.502   9.655   9.465 -1.0620  1.3529  1.0972
  829MOL0     H 9376   1.564   9.735   9.321  1.1352 -1.9564 -0.8451
  829MOL0     H 9377   1.617   9.821   9.607  0.0938  2.4205 -0.4877
  829MOL0     H 9378   1.680   9.896   9.460  2.1006 -2.8870 -1.2536
  829MOL0     H 9379   1.387   9.857   9.511 -1.6254  2.2368  0.2705
  829MOL0     H 9380   1.467   9.938   9.373 -0.1621  0.2959  0.3219
  829MOL0     H 9381   1.362   9.963   9.747 -1.7215 -0.5504 -0.9884
  829MOL0     H 9382   1.440  10.327   9.885 -1.4739  0.1710  1.4728
  829MOL0     H 9383   1.461  10.168   9.946  0.8652  1.7616  0.1531
  829MOL0     H 9384   1.246  10.272  10.007 -0.3134 -0.1134 -0.8037
  829MOL0     H 9385   1.245  10.117   9.929  0.3107 -0.2816 -0.5717
  829MOL0     H 9386   1.215  10.383   9.794 -0.9892 -0.2795 -0.3156
  829MOL0     H 9387   1.164  10.225   9.711 -1.0550 -2.4629  0.5479
  829MOL0     H 9388   1.026  10.322   9.972  3.1078 -0.7136  0.8947
  829MOL0     H 9389   0.982  10.204   9.859  1.9951 -1.5303  2.6700
  829MOL0     H 9390   0.773  10.318   9.912  2.1963  0.3835 -0.1855
  829MOL0     H 9391   0.533  10.327   9.823 -2.2114  4.1052 -0.6662
  829MOL0     H 9392   0.237  10.497   9.486 -2.7503  0.2298 -2.4836
  829MOL0     H 9393   0.012  10.464   9.393  0.9501  0.6085 -0.6426
  829MOL0     H 9394  -0.250  10.160   9.627 -0.4711  2.7102  0.2570
  829MOL0     H 9395  -0.204  10.068   9.474  1.2456  0.2512  1.4163
  829MOL0     H 9396  -0.464  10.096   9.499 -1.1112  0.7250  2.6683
  829MOL0     H 9397  -0.398  10.188   9.360  0.8636 -0.0023  0.5827
  829MOL0     H 9398  -0.396  10.395   9.477 -1.1073  1.5328  2.1610
  829MOL0     H 9399  -0.444  10.321   9.625  0.3537  0.6110 -0.0318
  829MOL0     H 9400  -0.625  10.267   9.377 -0.9256 -0.6695  0.7282
  829MOL0     H 9401  -0.663  10.247   9.535  1.0243 -4.0658 -3.5633
  829MOL0     H 9402  -0.622  10.487   9.561 -0.0564 -2.1214  0.4691
  829MOL0     H 9403  -0.774  10.455   9.473 -0.2240  3.5643  0.8812
  829MOL0     H 9404  -0.662  10.465   9.239  0.5534  0.9256  0.0431
  829MOL0     H 9405  -0.517  10.535   9.312  0.0721 -0.7671  0.6538
  829MOL0     H 9406  -0.806  10.624   9.295 -0.4186 -0.1891 -0.1536
  829MOL0     H 9407  -0.675  10.710   9.408  0.9655 -2.3924  0.3236
  829MOL0     H 9408  -0.702  10.824   9.195 -2.8286 -1.8083  1.2136
  829MOL0     H 9409  -0.650  10.682   9.102  3.1394 -0.0529 -1.0948
  829MOL0     H 9410  -0.035  10.105   9.639 -1.2192 -0.2394 -2.4067
  829MOL0     H 9411   0.202  10.138   9.710 -0.9628 -0.3010  0.8333
  829MOL0     H 9412   0.693  10.452   9.444  3.7880 -0.5704 -1.1367
  829MOL0     H 9413   0.907  10.457   9.515  0.2211  0.4957  1.3416
  829MOL0     H 9414   2.249   9.242   9.447 -1.1542  1.8595  0.4568
  829MOL0     H 9415   2.459   9.176   9.520 -0.8052  0.2004  0.2922
  829MOL0     H 9416   2.926   8.930   9.259  1.4905  1.1570 -1.0584
  829MOL0     H 9417   3.145   8.889   9.331 -1.1996  0.6619 -2.7122
  829MOL0     H 9418   3.293   9.120   9.690  0.2225  0.1681 -0.2326
  829MOL0     H 9419   3.399   9.172   9.569 -0.9587  0.0219 -1.1232
  829MOL0     H 9420   3.497   9.059   9.743 -1.6018 -0.0650  0.4319
  829MOL0     H 9421   3.407   8.907   9.713 -1.5571  0.8341  0.4018
  829MOL0     H 9422   3.535   8.946   9.455  1.5947  2.1835 -0.7029
  829MOL0     H 9423   3.598   8.849   9.594 -0.5832 -0.0489  1.5580
  829MOL0     H 9424   3.666   9.142   9.521  4.3433  2.5987  0.7976
  829MOL0     H 9425   3.727   9.056   9.659  0.4063  0.0341 -0.9534
  829MOL0     H 9426   3.962   8.881   9.357  2.3503  0.5560  1.0188
  829MOL0     H 9427   3.135   9.209   9.613  0.1503 -2.7320  0.5698
  829MOL0     H 9428   2.916   9.260   9.552 -0.6733 -0.1881 -1.9188
  830MOL0     O 9429   8.490   2.457   9.850 -0.6744  1.5590 -0.4405
  830MOL0     C 9430   8.572   2.426   9.937 -0.4275  1.1076 -0.3764
  830MOL0     O 9431   8.549   2.328  10.034  0.0989 -0.2806  0.0023
  830MOL0     C 9432   8.427   2.261  10.022 -0.0032  0.8639 -0.2988
  830MOL0     C 9433   8.407   2.151   9.941 -0.2721  0.5782  0.2702
  830MOL0     C 9434   8.283   2.092   9.933  0.7769 -0.0869 -0.3817
  830MOL0     C 9435   8.177   2.142  10.003 -0.4007 -0.1268  0.2787
  830MOL0     O 9436   8.057   2.080   9.988  0.3297 -0.0564  0.3429
  830MOL0     C 9437   7.933   2.116  10.064 -0.4626 -0.0338  0.5876
  830MOL0     C 9438   7.835   2.006  10.042  0.0151 -0.7077  0.7482
  830MOL0     C 9439   7.712   2.026  10.131  0.2106  0.0097 -0.2520
  830MOL0     C 9440   7.600   2.087  10.052  1.2282  0.6840 -0.0963
  830MOL0     C 9441   7.463   2.079  10.136 -0.6591 -0.5261  0.4928
  830MOL0     C 9442   7.364   2.175  10.087  0.0373 -0.7781 -0.3754
  830MOL0     C 9443   7.235   2.180  10.177  0.3593 -0.4202  0.2064
  830MOL0     C 9444   7.156   2.053  10.181 -0.6177 -0.0742  0.1754
  830MOL0     N 9445   7.024   2.069  10.239  0.0188  0.5841  0.2711
  830MOL0     C 9446   7.001   2.127  10.359 -0.0846  0.6995  0.9085
  830MOL0     C 9447   6.879   2.076  10.398  0.1845 -0.1939 -0.4552
  830MOL0     C 9448   6.811   2.130  10.524  0.0819 -0.5323  0.6402
  830MOL0     C 9449   6.802   2.023  10.634 -0.6742 -0.5589 -0.0438
  830MOL0     C 9450   6.712   2.066  10.752 -0.0712  0.0790 -1.3718
  830MOL0     C 9451   6.587   1.998  10.743  0.1007  0.1825 -0.0971
  830MOL0     O 9452   6.492   2.038  10.843  0.0478 -0.4592  0.6475
  830MOL0     C 9453   6.360   1.998  10.815  0.3828  0.3001 -0.4692
  830MOL0     C 9454   6.256   2.056  10.886 -0.4555 -0.8570  0.4355
  830MOL0     C 9455   6.121   2.023  10.870 -0.5348  0.1770 -0.1151
  830MOL0     C 9456   6.092   1.927  10.768  0.7221 -1.0906  0.1599
  830MOL0     C 9457   5.949   1.881  10.743 -0.3092 -0.1540 -0.2465
  830MOL0     O 9458   5.938   1.783  10.637 -0.4276  0.6647  0.2441
  830MOL0     C 9459   5.818   1.728  10.594  0.2846 -0.1840  0.8976
  830MOL0     C 9460   5.825   1.586  10.599 -0.4225  0.1057 -1.0248
  830MOL0     C 9461   5.713   1.512  10.570  0.4304 -0.3237  0.4939
  830MOL0     C 9462   5.595   1.588  10.529  0.0435  0.5895  0.6827
  830MOL0     O 9463   5.490   1.508  10.496  0.7160  0.2993 -0.0413
  830MOL0     C 9464   5.411   1.459  10.610  0.3683 -0.7301 -0.2640
  830MOL0     C 9465   5.304   1.558  10.648 -0.0675 -0.1801 -0.2688
  830MOL0     C 9466   5.182   1.512  10.732  0.2394 -0.1113  0.7930
  830MOL0     C 9467   5.067   1.615  10.704 -0.2004 -0.2871 -0.6204
  830MOL0     C 9468   4.930   1.571  10.761  0.5985 -0.2994 -0.2728
  830MOL0     C 9469   4.874   1.442  10.710 -0.0189 -0.2383 -0.4468
  830MOL0     C 9470   4.727   1.431  10.746  0.0122 -0.1698  0.0014
  830MOL0     C 9471   4.665   1.287  10.726  0.1296  0.5475  0.4015
  830MOL0    Cl 9472   4.500   1.294  10.782  0.1185 -0.0263  0.2288
  830MOL0     C 9473   5.591   1.729  10.521  0.2913 -0.1721 -0.4977
  830MOL0     C 9474   5.707   1.799  10.545  0.8918  0.1969  0.5159
  830MOL0     O 9475   5.854   1.944  10.792  0.5451 -0.3365 -0.1808
  830MOL0     C 9476   6.190   1.878  10.689  0.5277  0.3094 -0.6185
  830MOL0     C 9477   6.324   1.904  10.715 -1.3777  0.2483  1.2592
  830MOL0     N 9478   6.825   2.004  10.293  0.0247 -0.6661  0.7229
  830MOL0     N 9479   6.912   1.999  10.206 -0.3275  0.3751  1.3807
  830MOL0     C 9480   8.189   2.263  10.073 -0.2024 -0.5730  1.3230
  830MOL0     C 9481   8.319   2.311  10.093  0.1581 -0.5397  0.3610
  830MOL0     C 9482   8.699   2.486   9.937 -0.6211  0.0404  0.5798
  830MOL0     C 9483   8.791   2.459  10.041  0.1875 -0.3166  0.6714
  830MOL0     C 9484   8.917   2.521  10.037 -0.5000  0.0442 -0.2490
  830MOL0     C 9485   8.967   2.587   9.931 -0.5729  0.5906  1.0353
  830MOL0     O 9486   9.100   2.639   9.945 -0.1376  0.1679 -0.4485
  830MOL0     C 9487   9.137   2.745   9.865  0.7184 -0.4032  0.2586
  830MOL0     C 9488   9.267   2.794   9.924  0.1644  0.5229 -0.2631
  830MOL0     C 9489   9.373   2.685   9.932  0.0587 -0.0153 -0.2259
  830MOL0     C 9490   9.515   2.740   9.949  0.0260  0.3079 -0.6537
  830MOL0     C 9491   9.516   2.797  10.087  0.8353 -0.1655 -0.2297
  830MOL0     C 9492   9.513   2.846  10.202 -1.3077 -0.5365  0.7826
  830MOL0     C 9493   8.882   2.608   9.820  0.2186  0.1592 -0.5461
  830MOL0     C 9494   8.745   2.555   9.827 -0.2805 -0.0360  0.2617
  830MOL0     H 9495   8.487   2.119   9.875  1.0860 -1.4910  2.7795
  830MOL0     H 9496   8.263   2.006   9.870 -0.8335 -1.8536  2.3303
  830MOL0     H 9497   7.900   2.213  10.025  0.5617 -0.5271 -1.6758
  830MOL0     H 9498   7.950   2.132  10.171  2.8256  2.8333 -0.2102
  830MOL0     H 9499   7.883   1.911  10.068  3.5762  0.8283  0.3690
  830MOL0     H 9500   7.818   2.002   9.935  4.1053  2.6874 -0.3032
  830MOL0     H 9501   7.716   2.077  10.227 -3.9945  0.0656  0.0715
  830MOL0     H 9502   7.684   1.926  10.166  2.1620 -1.3139 -2.2158
  830MOL0     H 9503   7.627   2.190  10.027  3.0854  0.2463 -0.0525
  830MOL0     H 9504   7.582   2.036   9.957  0.5811 -1.5542  1.1673
  830MOL0     H 9505   7.487   2.095  10.241  1.7091  0.5248 -0.1184
  830MOL0     H 9506   7.421   1.979  10.124 -5.0143  1.2710 -1.2264
  830MOL0     H 9507   7.344   2.150   9.982  1.3631  0.9382 -1.0783
  830MOL0     H 9508   7.408   2.274  10.092  1.0019 -1.2644  1.3783
  830MOL0     H 9509   7.257   2.196  10.283 -0.6276 -0.8799  0.4924
  830MOL0     H 9510   7.170   2.262  10.143  0.3751 -0.0277  1.0833
  830MOL0     H 9511   7.210   1.978  10.238  0.1623 -0.5484 -1.1460
  830MOL0     H 9512   7.155   2.025  10.076  2.1458 -0.7043  0.2504
  830MOL0     H 9513   7.075   2.190  10.407  1.7136 -1.0524  0.5305
  830MOL0     H 9514   6.714   2.153  10.480 -0.4169  0.3985  2.1407
  830MOL0     H 9515   6.854   2.220  10.569  0.1147 -0.9462  1.4656
  830MOL0     H 9516   6.899   2.007  10.681  0.1584 -0.5939 -1.6980
  830MOL0     H 9517   6.778   1.923  10.595  2.5320 -0.3155 -3.1950
  830MOL0     H 9518   6.754   2.041  10.849  1.7886  0.1396 -2.1175
  830MOL0     H 9519   6.705   2.175  10.748 -1.7900  0.1616  1.4028
  830MOL0     H 9520   6.601   1.890  10.729 -3.4154 -0.1075 -2.6548
  830MOL0     H 9521   6.546   2.017  10.643 -3.0348 -3.7557  0.1762
  830MOL0     H 9522   6.281   2.130  10.960 -1.2585 -0.1785  0.0426
  830MOL0     H 9523   6.031   2.063  10.915 -0.5784 -4.0076  4.3016
  830MOL0     H 9524   5.918   1.533  10.619 -0.1890  0.5514 -0.9198
  830MOL0     H 9525   5.696   1.405  10.576  0.4733 -0.2842  1.3903
  830MOL0     H 9526   5.469   1.449  10.702 -3.8075 -2.1277  2.5419
  830MOL0     H 9527   5.350   1.370  10.590 -1.8683  0.6729  0.0172
  830MOL0     H 9528   5.263   1.594  10.553  0.4673 -2.7344 -1.5549
  830MOL0     H 9529   5.358   1.642  10.693  1.4780 -0.9554 -0.6001
  830MOL0     H 9530   5.205   1.512  10.839 -1.1687 -2.9599  1.1924
  830MOL0     H 9531   5.153   1.412  10.699  1.4961 -0.2065 -0.1103
  830MOL0     H 9532   5.085   1.711  10.752 -1.8368 -1.1340  1.8518
  830MOL0     H 9533   5.049   1.609  10.596 -0.9880 -3.3888 -0.4197
  830MOL0     H 9534   4.847   1.642  10.756  0.4324 -0.5259 -0.8968
  830MOL0     H 9535   4.953   1.553  10.866  1.2802 -1.9112 -0.6677
  830MOL0     H 9536   4.932   1.361  10.756  1.6977 -0.1975 -2.3900
  830MOL0     H 9537   4.885   1.442  10.601  0.5926  0.4383 -0.3940
  830MOL0     H 9538   4.726   1.466  10.850  0.3893  0.9402 -0.3589
  830MOL0     H 9539   4.665   1.500  10.689 -0.2067 -0.4272 -0.0773
  830MOL0     H 9540   4.721   1.217  10.789 -0.1735 -1.7788 -1.7263
  830MOL0     H 9541   4.673   1.261  10.620  1.6151 -0.1021  0.6551
  830MOL0     H 9542   5.498   1.783  10.504  0.2459  1.2873  3.4587
  830MOL0     H 9543   5.706   1.907  10.539  0.1232  0.1315 -1.8504
  830MOL0     H 9544   6.161   1.801  10.618 -3.1779 -1.2016  2.1715
  830MOL0     H 9545   6.391   1.843  10.655 -4.8828 -3.5037  0.6871
  830MOL0     H 9546   8.102   2.306  10.123 -0.9526  1.6791 -1.6442
  830MOL0     H 9547   8.330   2.408  10.140 -0.7545  0.0911 -0.7083
  830MOL0     H 9548   8.767   2.396  10.126 -1.9501  3.1067  2.8729
  830MOL0     H 9549   8.993   2.504  10.112  1.4387  2.5847 -1.5109
  830MOL0     H 9550   9.069   2.831   9.875 -0.0571 -0.8221 -1.1530
  830MOL0     H 9551   9.142   2.717   9.760 -0.6569  0.6216 -0.1127
  830MOL0     H 9552   9.301   2.881   9.866 -0.9835  0.8471 -0.4667
  830MOL0     H 9553   9.247   2.824  10.027 -0.5034 -0.4952 -0.0823
  830MOL0     H 9554   9.370   2.629   9.838  3.0308  2.2495 -1.8143
  830MOL0     H 9555   9.346   2.615  10.012 -0.3781  2.0569  1.5399
  830MOL0     H 9556   9.596   2.668   9.934 -0.7861 -0.8592  0.2994
  830MOL0     H 9557   9.533   2.825   9.883 -1.8001  1.2417 -0.0243
  830MOL0     H 9558   9.505   2.871  10.306 -0.5840 -4.1506  1.8660
  830MOL0     H 9559   8.896   2.660   9.726 -2.7261 -0.3150 -1.3188
  830MOL0     H 9560   8.676   2.566   9.743  2.3408 -1.2244 -2.2382
  831MOL0     O 9561  10.890   8.680   4.555 -0.5576  0.4737 -0.1539
  831MOL0     C 9562  10.923   8.786   4.500  0.1443 -0.2842  0.2012
  831MOL0     O 9563  10.839   8.860   4.425  0.2220  0.5274  0.1140
  831MOL0     C 9564  10.716   8.820   4.400 -0.4454 -0.5399 -0.6484
  831MOL0     C 9565  10.617   8.810   4.502 -0.1365  0.1560  0.2210
  831MOL0     C 9566  10.483   8.787   4.470  1.4080  0.5311 -0.7970
  831MOL0     C 9567  10.452   8.752   4.340  0.1384  0.1814  0.5947
  831MOL0     O 9568  10.324   8.719   4.304  0.4465 -0.6783 -0.3489
  831MOL0     C 9569  10.245   8.815   4.231  0.6999  0.3144 -0.4202
  831MOL0     C 9570  10.233   8.942   4.313 -0.1268  0.1280  0.0846
  831MOL0     C 9571  10.142   9.051   4.260  0.3675  0.3136 -0.0731
  831MOL0     C 9572   9.993   9.014   4.220  0.3408  0.1010  0.1534
  831MOL0     C 9573   9.922   9.145   4.223 -0.6610  0.0127  0.2876
  831MOL0     C 9574   9.770   9.137   4.193  0.8542 -0.4310  0.1637
  831MOL0     C 9575   9.690   9.271   4.168  0.2932 -0.1666 -0.0136
  831MOL0     C 9576   9.659   9.350   4.290 -0.0331 -0.6800  0.0416
  831MOL0     N 9577   9.526   9.412   4.295 -0.7782 -0.0901  0.3071
  831MOL0     C 9578   9.485   9.508   4.207  0.0217 -1.0790 -1.2917
  831MOL0     C 9579   9.362   9.537   4.250  0.9043  0.8191 -0.1755
  831MOL0     C 9580   9.260   9.624   4.180  0.9332 -0.4469 -0.3248
  831MOL0     C 9581   9.127   9.549   4.159 -1.0283 -0.7694 -0.9580
  831MOL0     C 9582   9.033   9.631   4.071  0.2152 -0.3283  0.2672
  831MOL0     C 9583   8.885   9.591   4.104  0.1606 -0.1275 -0.4241
  831MOL0     O 9584   8.808   9.708   4.091 -0.2577  0.4749 -0.6548
  831MOL0     C 9585   8.669   9.707   4.080 -0.8865  0.5761  0.0080
  831MOL0     C 9586   8.609   9.821   4.035 -0.6790  0.8182  0.2132
  831MOL0     C 9587   8.479   9.817   3.995 -1.2429  0.0174 -0.0346
  831MOL0     C 9588   8.395   9.715   4.026 -0.7180  0.5429 -0.3721
  831MOL0     C 9589   8.247   9.715   4.008  1.1398 -0.1537 -1.3978
  831MOL0     O 9590   8.183   9.830   3.985 -0.6828 -0.1556 -0.5158
  831MOL0     C 9591   8.048   9.838   4.004  0.3023 -0.4738 -0.2686
  831MOL0     C 9592   7.980   9.887   3.894 -0.2421  0.1785  0.1760
  831MOL0     C 9593   7.841   9.914   3.908 -0.4232 -0.5878  0.2946
  831MOL0     C 9594   7.771   9.887   4.030  0.6884 -0.1444 -0.4665
  831MOL0     O 9595   7.642   9.918   4.018 -0.5923 -0.2881 -0.0676
  831MOL0     C 9596   7.541   9.863   4.097 -0.1992  0.5465 -0.2635
  831MOL0     C 9597   7.424   9.968   4.089  0.3000 -0.6746 -0.7935
  831MOL0     C 9598   7.292   9.907   4.027  0.8616  0.2814  0.4360
  831MOL0     C 9599   7.299   9.888   3.871 -0.1335 -0.9192 -0.0999
  831MOL0     C 9600   7.161   9.865   3.805 -0.5589  0.3296 -0.1603
  831MOL0     C 9601   7.186   9.846   3.652  0.5703  0.1265 -0.1061
  831MOL0     C 9602   7.049   9.805   3.590 -0.0018 -0.3816 -0.1525
  831MOL0     C 9603   7.080   9.769   3.440  0.9571 -0.2137  0.3056
  831MOL0    Cl 9604   6.930   9.728   3.354 -0.2765  0.3619 -0.2655
  831MOL0     C 9605   7.847   9.847   4.143  0.4413  0.5669  0.4166
  831MOL0     C 9606   7.986   9.827   4.125  0.9020 -1.1161  0.2686
  831MOL0     O 9607   8.184   9.609   4.041  0.5870 -0.5241  0.5350
  831MOL0     C 9608   8.458   9.602   4.092 -0.6868 -0.4764 -0.0096
  831MOL0     C 9609   8.594   9.597   4.122 -0.1242 -0.6520  0.2716
  831MOL0     N 9610   9.342   9.467   4.372  0.0042 -0.1363  0.0476
  831MOL0     N 9611   9.443   9.400   4.393  0.5273  0.3503 -0.4453
  831MOL0     C 9612  10.550   8.762   4.244  0.5636  0.3798  0.8728
  831MOL0     C 9613  10.676   8.809   4.271  0.1090  0.4590 -0.0117
  831MOL0     C 9614  11.063   8.833   4.512  0.6468  0.1573 -0.5908
  831MOL0     C 9615  11.102   8.966   4.481 -0.1955  1.2316  0.0919
  831MOL0     C 9616  11.232   9.019   4.502  0.3493  0.1464  0.2412
  831MOL0     C 9617  11.332   8.937   4.548 -0.4796  1.0334 -0.3805
  831MOL0     O 9618  11.464   8.986   4.568  0.6001 -0.3952 -0.5025
  831MOL0     C 9619  11.572   8.893   4.582 -0.0327 -0.0999 -1.4780
  831MOL0     C 9620  11.703   8.963   4.581  0.1464  0.3823  0.5594
  831MOL0     C 9621  11.809   8.866   4.613 -0.8126  0.2279 -0.1891
  831MOL0     C 9622  11.934   8.941   4.648  0.8974  0.1277  1.1893
  831MOL0     C 9623  11.977   9.021   4.524  0.3577  0.1946 -0.3144
  831MOL0     C 9624  12.004   9.076   4.424 -0.3571 -0.2578  0.0469
  831MOL0     C 9625  11.300   8.802   4.565 -0.5898 -0.2098 -0.4621
  831MOL0     C 9626  11.167   8.755   4.548 -0.0100 -0.0027  0.7773
  831MOL0     H 9627  10.646   8.826   4.605 -0.2248 -0.5225  0.3583
  831MOL0     H 9628  10.413   8.753   4.546  0.8658 -0.1235 -1.5755
  831MOL0     H 9629  10.153   8.754   4.230  1.2449 -0.5991  1.5171
  831MOL0     H 9630  10.286   8.842   4.133  3.9645  2.3124  1.3355
  831MOL0     H 9631  10.332   8.987   4.325  0.1007 -0.1437 -0.6969
  831MOL0     H 9632  10.190   8.913   4.408  0.9427 -4.4795 -0.6077
  831MOL0     H 9633  10.186   9.101   4.173  2.1593 -0.5862  0.2711
  831MOL0     H 9634  10.142   9.133   4.332 -1.9646 -3.0174  4.1421
  831MOL0     H 9635   9.992   8.957   4.127  1.2308 -2.8523  1.8445
  831MOL0     H 9636   9.949   8.954   4.300 -1.2222  2.2665  1.0102
  831MOL0     H 9637   9.956   9.204   4.137  1.4298 -0.3397  0.8036
  831MOL0     H 9638   9.939   9.208   4.310 -1.8807  0.9782 -0.1503
  831MOL0     H 9639   9.721   9.071   4.266 -0.8468 -0.4679 -0.9424
  831MOL0     H 9640   9.754   9.079   4.102  0.3081 -1.3922  0.8586
  831MOL0     H 9641   9.747   9.332   4.097 -0.1973 -0.5099 -0.7116
  831MOL0     H 9642   9.594   9.258   4.117 -0.1550 -1.5875  1.1182
  831MOL0     H 9643   9.737   9.426   4.295 -0.8969  0.1098  2.6730
  831MOL0     H 9644   9.656   9.283   4.376 -2.5028  0.7272  1.1456
  831MOL0     H 9645   9.531   9.554   4.120  2.9963  3.0931  2.0143
  831MOL0     H 9646   9.283   9.655   4.077 -0.7110  0.4772 -0.4604
  831MOL0     H 9647   9.247   9.715   4.239  0.4873 -1.0531  0.5363
  831MOL0     H 9648   9.084   9.532   4.258  0.9498  1.1530  0.3317
  831MOL0     H 9649   9.140   9.449   4.116 -2.9136 -1.4035 -0.1525
  831MOL0     H 9650   9.057   9.738   4.067  1.3256 -0.5731 -0.0808
  831MOL0     H 9651   9.050   9.613   3.965  0.9983  0.8336  0.1768
  831MOL0     H 9652   8.875   9.554   4.206 -0.3080  0.8120 -0.1121
  831MOL0     H 9653   8.855   9.512   4.035  2.2537 -1.8967  0.5566
  831MOL0     H 9654   8.677   9.904   4.019 -1.1728  1.2738  0.4564
  831MOL0     H 9655   8.444   9.897   3.931  0.7046  1.8275  1.0362
  831MOL0     H 9656   8.024   9.899   3.795 -0.4905 -2.1851 -0.2659
  831MOL0     H 9657   7.778   9.956   3.831 -4.0634  0.6693  3.6404
  831MOL0     H 9658   7.573   9.839   4.199  2.7475 -3.1529 -1.8563
  831MOL0     H 9659   7.504   9.770   4.055 -0.1698  1.1616 -1.7050
  831MOL0     H 9660   7.444  10.060   4.033 -3.8617 -1.0180 -3.2303
  831MOL0     H 9661   7.415  10.012   4.189 -2.6083 -0.9112 -0.8749
  831MOL0     H 9662   7.218   9.985   4.046  1.1407  0.5303  0.5201
  831MOL0     H 9663   7.262   9.815   4.078  1.0974  0.5024  0.9841
  831MOL0     H 9664   7.350   9.970   3.819  2.0735 -2.4734 -0.5737
  831MOL0     H 9665   7.358   9.797   3.853 -0.7123 -1.2386 -0.3810
  831MOL0     H 9666   7.094   9.946   3.833 -1.9131 -1.3435  1.7439
  831MOL0     H 9667   7.120   9.772   3.845  0.3375 -0.7038 -1.5009
  831MOL0     H 9668   7.265   9.773   3.637 -0.4214 -1.6307  2.5357
  831MOL0     H 9669   7.214   9.939   3.601  1.8647  0.4180  1.0632
  831MOL0     H 9670   7.010   9.716   3.640 -2.9485 -0.3863 -2.1841
  831MOL0     H 9671   6.977   9.886   3.600 -0.0671 -0.5516  0.7877
  831MOL0     H 9672   7.159   9.693   3.430 -0.2924 -1.8596  2.1389
  831MOL0     H 9673   7.129   9.860   3.405  1.9118 -0.3173  1.3132
  831MOL0     H 9674   7.801   9.826   4.239 -0.5708 -0.8271 -0.3400
  831MOL0     H 9675   8.043   9.806   4.215  0.4739  0.1428  0.8419
  831MOL0     H 9676   8.397   9.516   4.119 -0.3651 -0.5926  0.3403
  831MOL0     H 9677   8.637   9.505   4.160  0.2771 -1.3178 -1.6593
  831MOL0     H 9678  10.523   8.758   4.139 -0.2120 -2.2274  1.0916
  831MOL0     H 9679  10.751   8.820   4.193  0.2214 -2.7320 -0.4838
  831MOL0     H 9680  11.019   9.032   4.459 -0.5406  0.2840 -1.5286
  831MOL0     H 9681  11.250   9.125   4.495  1.4751 -0.0193  0.3849
  831MOL0     H 9682  11.567   8.826   4.496  1.0964 -0.6889 -1.1070
  831MOL0     H 9683  11.564   8.837   4.676  3.7359 -0.8148 -1.4328
  831MOL0     H 9684  11.705   9.012   4.483 -1.1533 -0.1107  0.2646
  831MOL0     H 9685  11.708   9.046   4.652 -1.9599  0.6905  0.4041
  831MOL0     H 9686  11.829   8.808   4.523  2.8594 -0.0993  0.7035
  831MOL0     H 9687  11.788   8.794   4.693 -0.4505  0.8727  0.5015
  831MOL0     H 9688  11.907   9.017   4.722 -3.4975  5.6122 -4.9106
  831MOL0     H 9689  12.012   8.883   4.699  3.2218  0.6262 -1.5324
  831MOL0     H 9690  12.049   9.107   4.332 -2.5213  0.7922 -0.7321
  831MOL0     H 9691  11.379   8.731   4.587 -2.0914 -1.0948  2.7648
  831MOL0     H 9692  11.152   8.649   4.565 -1.5701  0.1646  0.6171
  832MOL0     O 9693   3.215   7.906   1.044  0.1188 -0.2028 -0.6908
  832MOL0     C 9694   3.308   7.914   1.126 -0.2839  0.3054 -0.4193
  832MOL0     O 9695   3.299   7.960   1.257 -0.0185  0.0553 -0.2047
  832MOL0     C 9696   3.182   8.024   1.298  0.1595  0.2417  0.2274
  832MOL0     C 9697   3.135   7.980   1.417 -0.4166 -1.3692  0.1793
  832MOL0     C 9698   3.017   8.041   1.469 -0.5772  0.3864 -0.0160
  832MOL0     C 9699   2.937   8.131   1.395 -0.2045  0.7019 -0.2550
  832MOL0     O 9700   2.818   8.193   1.437 -0.3642  0.7489  0.2492
  832MOL0     C 9701   2.760   8.142   1.556 -0.5676 -0.3495  0.5742
  832MOL0     C 9702   2.612   8.153   1.556  1.3252  0.3551 -0.9936
  832MOL0     C 9703   2.574   8.309   1.544 -0.6068  1.0976 -0.0571
  832MOL0     C 9704   2.418   8.325   1.532 -0.8230 -0.3087 -0.0668
  832MOL0     C 9705   2.386   8.470   1.494  0.1744 -0.1700 -0.0270
  832MOL0     C 9706   2.241   8.481   1.446 -0.5441 -0.6112 -0.6738
  832MOL0     C 9707   2.200   8.626   1.420  0.6044 -1.6002 -0.0637
  832MOL0     C 9708   2.072   8.634   1.342  0.4496  0.3251 -0.6562
  832MOL0     N 9709   1.959   8.575   1.409  0.2334 -0.1634 -0.4576
  832MOL0     C 9710   1.878   8.655   1.498  0.4196 -0.0167 -0.1241
  832MOL0     C 9711   1.789   8.559   1.546 -0.6032 -0.4968 -0.4128
  832MOL0     C 9712   1.674   8.589   1.646  0.8153 -0.5831 -0.3451
  832MOL0     C 9713   1.633   8.468   1.734  0.5505 -0.1760 -0.1418
  832MOL0     C 9714   1.538   8.501   1.848  0.1359  0.1638 -0.6062
  832MOL0     C 9715   1.478   8.373   1.909 -0.5075  0.5277  1.0223
  832MOL0     O 9716   1.414   8.297   1.804  0.8501  0.5535 -0.4074
  832MOL0     C 9717   1.281   8.328   1.783  0.3020  0.0988 -0.2446
  832MOL0     C 9718   1.183   8.359   1.882  0.1154  0.3963 -0.2989
  832MOL0     C 9719   1.050   8.391   1.842  0.1374  0.2667 -0.6861
  832MOL0     C 9720   1.009   8.385   1.711  0.9744 -0.1322  0.5402
  832MOL0     C 9721   0.867   8.415   1.680  0.5257 -0.4734  0.5463
  832MOL0     O 9722   0.797   8.488   1.770 -0.5233  0.2469 -0.7034
  832MOL0     C 9723   0.663   8.497   1.761  0.1149 -0.4164 -0.4381
  832MOL0     C 9724   0.592   8.387   1.806 -0.2592  1.0188  0.4331
  832MOL0     C 9725   0.451   8.380   1.803  0.6392 -0.9431  0.6202
  832MOL0     C 9726   0.382   8.496   1.759  0.2189 -0.0700 -0.2582
  832MOL0     O 9727   0.248   8.512   1.755 -0.5074  0.1664  0.2290
  832MOL0     C 9728   0.176   8.389   1.752 -0.0494 -0.2491 -0.2417
  832MOL0     C 9729   0.051   8.418   1.651 -0.5992 -0.4363 -0.2780
  832MOL0     C 9730  -0.036   8.548   1.676  0.0777 -0.0885  0.2031
  832MOL0     C 9731  -0.180   8.515   1.730  0.1802  0.0326 -0.0163
  832MOL0     C 9732  -0.272   8.638   1.692 -0.1034 -0.4365  0.6912
  832MOL0     C 9733  -0.426   8.607   1.708  0.8733  0.1758  0.6685
  832MOL0     C 9734  -0.475   8.503   1.608  0.2517  0.6281  1.0076
  832MOL0     C 9735  -0.556   8.574   1.499 -0.0116  0.1662 -0.2729
  832MOL0    Cl 9736  -0.556   8.453   1.373  0.2664 -0.1643 -0.5850
  832MOL0     C 9737   0.459   8.608   1.730  0.0425 -0.0984  0.0539
  832MOL0     C 9738   0.593   8.609   1.731 -0.7966  1.0094  0.5585
  832MOL0     O 9739   0.812   8.363   1.585 -0.1522 -0.8237  0.3927
  832MOL0     C 9740   1.104   8.378   1.612 -0.4844 -0.2560 -0.1756
  832MOL0     C 9741   1.236   8.349   1.650 -0.8942  0.2587  0.1080
  832MOL0     N 9742   1.808   8.431   1.487 -0.4771 -0.4810 -0.6790
  832MOL0     N 9743   1.909   8.454   1.409  0.8546 -0.4483 -0.7721
  832MOL0     C 9744   2.989   8.178   1.279  0.1404  0.1192 -0.2921
  832MOL0     C 9745   3.108   8.121   1.226  0.2222  0.2923  0.0746
  832MOL0     C 9746   3.439   7.870   1.079 -0.9877 -0.0605 -0.2304
  832MOL0     C 9747   3.468   7.802   0.956  1.2610  0.0468 -0.5069
  832MOL0     C 9748   3.590   7.739   0.934 -0.5539  0.2568  0.0205
  832MOL0     C 9749   3.700   7.752   1.026  0.0088  0.8125  0.1212
  832MOL0     O 9750   3.822   7.691   1.011 -0.9214  0.9507  1.0747
  832MOL0     C 9751   3.866   7.649   0.880  1.1151 -0.5200 -0.4394
  832MOL0     C 9752   4.006   7.605   0.893 -0.0232  0.7835  0.0244
  832MOL0     C 9753   4.014   7.482   0.993 -0.2451 -0.5590 -0.6609
  832MOL0     C 9754   4.147   7.406   1.016  0.3897  0.4281  0.4784
  832MOL0     C 9755   4.268   7.483   0.994 -0.4873  0.5502  0.7314
  832MOL0     C 9756   4.354   7.561   0.979 -0.3079  0.3528  0.0325
  832MOL0     C 9757   3.674   7.814   1.148  0.3818  0.1403  0.2629
  832MOL0     C 9758   3.547   7.875   1.170 -0.1426  0.4949  0.1686
  832MOL0     H 9759   3.191   7.915   1.483  0.7390 -0.8825 -0.2998
  832MOL0     H 9760   2.985   8.003   1.566 -1.6679  1.1793 -0.0362
  832MOL0     H 9761   2.797   8.196   1.644 -0.9381  3.1723 -1.2766
  832MOL0     H 9762   2.768   8.033   1.563 -2.8228 -0.6035 -0.1705
  832MOL0     H 9763   2.582   8.105   1.649  0.0710 -1.7268 -2.3866
  832MOL0     H 9764   2.553   8.101   1.480  0.6062 -1.3989  0.6983
  832MOL0     H 9765   2.623   8.370   1.469  0.0038  0.2970 -0.3165
  832MOL0     H 9766   2.612   8.352   1.637  1.5125 -1.4450  0.3804
  832MOL0     H 9767   2.380   8.270   1.446 -0.9756  2.6254 -1.9889
  832MOL0     H 9768   2.368   8.293   1.624 -0.0239  0.3385  0.6098
  832MOL0     H 9769   2.452   8.503   1.412 -1.4253 -2.8614 -2.6368
  832MOL0     H 9770   2.405   8.525   1.586 -0.1089  0.2830 -0.2393
  832MOL0     H 9771   2.170   8.433   1.513  1.3396 -1.2080  0.9927
  832MOL0     H 9772   2.239   8.437   1.346  2.3072 -1.1755 -0.5646
  832MOL0     H 9773   2.190   8.682   1.514 -1.6849 -1.8589 -0.0850
  832MOL0     H 9774   2.278   8.680   1.366  2.2241 -4.3620 -0.6845
  832MOL0     H 9775   2.093   8.588   1.244 -0.2076 -0.5344 -0.4088
  832MOL0     H 9776   2.061   8.740   1.318  1.4798  0.5808 -0.0478
  832MOL0     H 9777   1.888   8.758   1.530 -1.1032  0.2611 -0.4671
  832MOL0     H 9778   1.582   8.622   1.597 -0.2657  1.8281  2.9690
  832MOL0     H 9779   1.709   8.672   1.707 -0.0489  0.2576 -0.9587
  832MOL0     H 9780   1.723   8.416   1.770 -0.5251 -1.9376  0.1424
  832MOL0     H 9781   1.576   8.401   1.669 -1.6535  0.6823  0.8022
  832MOL0     H 9782   1.602   8.558   1.915 -0.4571  1.0596 -0.7907
  832MOL0     H 9783   1.451   8.563   1.825 -0.2837  0.3657  1.3442
  832MOL0     H 9784   1.414   8.382   1.998 -1.0483 -0.2222  0.7188
  832MOL0     H 9785   1.557   8.313   1.955  0.1009  0.4216 -0.1525
  832MOL0     H 9786   1.194   8.356   1.990 -0.4482 -0.0428 -0.2500
  832MOL0     H 9787   0.976   8.413   1.919 -0.6761  3.7628 -2.2716
  832MOL0     H 9788   0.652   8.307   1.848  1.1222  1.9470  0.3090
  832MOL0     H 9789   0.394   8.293   1.834 -1.0048  0.3377  1.4003
  832MOL0     H 9790   0.141   8.351   1.849  1.0736 -1.5135 -0.2948
  832MOL0     H 9791   0.231   8.306   1.705  0.9159  1.2688 -1.8849
  832MOL0     H 9792  -0.012   8.328   1.653 -1.1931 -0.0086  0.9516
  832MOL0     H 9793   0.095   8.441   1.554  0.7070  0.2497  0.4529
  832MOL0     H 9794  -0.020   8.614   1.590 -0.9663  0.4682  0.4084
  832MOL0     H 9795   0.005   8.610   1.756  1.6567 -1.0873  0.1943
  832MOL0     H 9796  -0.228   8.425   1.691 -0.8898  0.4561  0.2696
  832MOL0     H 9797  -0.173   8.505   1.838  0.4410 -0.4201 -0.0755
  832MOL0     H 9798  -0.268   8.665   1.585 -0.7656 -2.2477  0.1759
  832MOL0     H 9799  -0.255   8.730   1.748 -1.6401 -0.2043  0.8258
  832MOL0     H 9800  -0.491   8.695   1.702 -1.1797 -1.3063  0.0180
  832MOL0     H 9801  -0.440   8.572   1.810  3.1566 -1.0561  0.6237
  832MOL0     H 9802  -0.393   8.454   1.555 -0.3180 -0.0136  0.6951
  832MOL0     H 9803  -0.522   8.414   1.652  0.0647  0.7850  1.1274
  832MOL0     H 9804  -0.502   8.664   1.468  0.5038  0.2012  0.6713
  832MOL0     H 9805  -0.655   8.611   1.529  0.3522  1.3604 -0.5060
  832MOL0     H 9806   0.411   8.701   1.699 -0.7235 -0.3157  0.5648
  832MOL0     H 9807   0.645   8.703   1.712 -0.1610  0.9807  2.0036
  832MOL0     H 9808   1.066   8.372   1.511 -0.4503 -1.2105 -0.1408
  832MOL0     H 9809   1.310   8.348   1.570  1.0402  0.2009  1.7990
  832MOL0     H 9810   2.948   8.257   1.217 -0.2568 -1.2035 -1.7404
  832MOL0     H 9811   3.145   8.159   1.131  2.9827 -0.8388  0.5888
  832MOL0     H 9812   3.382   7.793   0.891 -3.2058 -0.6405  4.8017
  832MOL0     H 9813   3.600   7.689   0.837  1.6330 -1.1529  0.8874
  832MOL0     H 9814   3.858   7.728   0.805  0.4510 -0.9853 -0.8638
  832MOL0     H 9815   3.803   7.564   0.853  1.7128 -1.1123 -0.0199
  832MOL0     H 9816   4.043   7.583   0.792  1.2740  0.6881  0.5033
  832MOL0     H 9817   4.073   7.683   0.928  1.8306 -1.0106  0.6412
  832MOL0     H 9818   3.937   7.414   0.956 -0.5781 -0.2026 -0.6380
  832MOL0     H 9819   3.988   7.514   1.095  2.1556  0.5419 -0.3214
  832MOL0     H 9820   4.155   7.370   1.119 -3.8012  1.4274  1.3301
  832MOL0     H 9821   4.143   7.312   0.959 -4.2390 -1.0220  2.7120
  832MOL0     H 9822   4.437   7.628   0.965 -0.6492  0.5187 -1.3273
  832MOL0     H 9823   3.740   7.820   1.233 -0.1490  2.0829  0.5893
  832MOL0     H 9824   3.532   7.923   1.266 -0.0566 -0.9916  0.9618
  833MOL0     O 9825   9.734   4.304   2.162 -0.3736  0.2571 -0.0604
  833MOL0     C 9826   9.747   4.331   2.039 -0.2516  0.3894 -0.7470
  833MOL0     O 9827   9.643   4.350   1.948  0.0424 -0.4070  0.7861
  833MOL0     C 9828   9.511   4.341   1.990 -0.0216 -0.9238 -0.2767
  833MOL0     C 9829   9.465   4.216   2.047 -1.1676  0.3793  0.6936
  833MOL0     C 9830   9.333   4.216   2.087  0.9098  0.2307 -0.1803
  833MOL0     C 9831   9.247   4.327   2.085 -0.5009  1.1545 -0.2646
  833MOL0     O 9832   9.122   4.314   2.144 -0.6618 -0.5739  0.0918
  833MOL0     C 9833   9.023   4.413   2.121  0.7048  0.0746  0.4035
  833MOL0     C 9834   8.892   4.361   2.183 -0.0969 -0.3654  0.8732
  833MOL0     C 9835   8.798   4.483   2.211 -0.7139 -0.1601  0.9791
  833MOL0     C 9836   8.656   4.439   2.260  0.5139 -0.1047 -1.0827
  833MOL0     C 9837   8.547   4.408   2.160  0.5620 -0.4924 -0.5319
  833MOL0     C 9838   8.412   4.380   2.234 -0.1888 -0.3523 -0.0770
  833MOL0     C 9839   8.338   4.254   2.200 -0.5175  0.9251  0.8881
  833MOL0     C 9840   8.417   4.119   2.232 -0.2287  0.3113  0.2400
  833MOL0     N 9841   8.336   4.007   2.197  0.4414  0.7559 -0.1378
  833MOL0     C 9842   8.261   3.923   2.283  0.0610 -0.6963 -0.2531
  833MOL0     C 9843   8.190   3.832   2.208  0.4425 -0.0421 -0.3356
  833MOL0     C 9844   8.096   3.723   2.258 -0.4466  0.6457  0.2967
  833MOL0     C 9845   7.968   3.792   2.289  1.2638 -0.3105 -0.5546
  833MOL0     C 9846   7.868   3.697   2.353 -1.0070  0.2195  0.1228
  833MOL0     C 9847   7.741   3.757   2.402  0.1301  1.0010  0.4886
  833MOL0     O 9848   7.647   3.648   2.430 -0.6380 -0.1443 -0.5732
  833MOL0     C 9849   7.676   3.554   2.527 -1.2302  1.0764  0.9176
  833MOL0     C 9850   7.681   3.417   2.499 -0.3465 -0.4075  0.1497
  833MOL0     C 9851   7.740   3.329   2.591  0.6130 -0.9522  1.1551
  833MOL0     C 9852   7.788   3.370   2.715  0.0285 -1.3008 -0.1850
  833MOL0     C 9853   7.860   3.287   2.816  0.3072 -0.0329 -0.1825
  833MOL0     O 9854   7.866   3.162   2.784  0.2552 -0.4066  0.2291
  833MOL0     C 9855   7.900   3.063   2.867 -0.2179 -0.2139 -0.2005
  833MOL0     C 9856   7.813   3.004   2.954 -0.5212  0.0795 -0.1588
  833MOL0     C 9857   7.857   2.903   3.041  0.3374  0.8925  0.3295
  833MOL0     C 9858   7.985   2.851   3.038  0.6142 -0.0114  0.8668
  833MOL0     O 9859   8.018   2.741   3.117  0.2281 -0.4839  0.4663
  833MOL0     C 9860   7.992   2.756   3.254  0.0586 -0.4915 -0.7452
  833MOL0     C 9861   7.880   2.661   3.281  0.0460 -0.4234  0.0299
  833MOL0     C 9862   7.876   2.637   3.439  0.2657 -0.0169 -0.1283
  833MOL0     C 9863   7.755   2.541   3.484  0.0203  0.6964  0.1953
  833MOL0     C 9864   7.688   2.594   3.604  0.1225 -0.7387 -0.5163
  833MOL0     C 9865   7.609   2.718   3.585  0.6538 -0.3098  0.0144
  833MOL0     C 9866   7.473   2.712   3.508  0.3497 -0.0114  0.3059
  833MOL0     C 9867   7.390   2.840   3.512  0.4347 -0.3394  0.9074
  833MOL0    Cl 9868   7.252   2.823   3.401  0.5383  0.4297 -0.2092
  833MOL0     C 9869   8.075   2.902   2.940  0.2741  0.1836  1.0046
  833MOL0     C 9870   8.029   3.009   2.861 -1.6363 -0.3237 -0.9347
  833MOL0     O 9871   7.902   3.334   2.927 -0.1441 -0.3219 -0.2210
  833MOL0     C 9872   7.772   3.509   2.744  0.4097 -0.0847  0.1543
  833MOL0     C 9873   7.724   3.597   2.645  0.0750  0.3301 -0.8813
  833MOL0     N 9874   8.233   3.848   2.080 -0.4210 -0.1215  0.3461
  833MOL0     N 9875   8.316   3.954   2.071 -0.0894 -0.3211 -0.1750
  833MOL0     C 9876   9.298   4.453   2.037 -0.3968 -0.6201 -0.0485
  833MOL0     C 9877   9.425   4.454   1.981 -0.4158  0.5238  0.0411
  833MOL0     C 9878   9.881   4.363   1.987 -0.4228  0.3602  0.8193
  833MOL0     C 9879   9.904   4.416   1.852  0.1264  0.0819  0.3610
  833MOL0     C 9880  10.032   4.445   1.812 -0.3394  0.2478 -0.1434
  833MOL0     C 9881  10.150   4.437   1.893 -0.2106  0.6052  0.2331
  833MOL0     O 9882  10.268   4.487   1.838 -0.2628  1.3293 -0.6217
  833MOL0     C 9883  10.390   4.449   1.904  0.4816 -0.3125 -0.5287
  833MOL0     C 9884  10.507   4.486   1.810 -0.1744 -0.0485  0.5024
  833MOL0     C 9885  10.627   4.392   1.817 -0.6208  0.1200 -0.1783
  833MOL0     C 9886  10.697   4.387   1.955 -0.1757  0.3989  0.2686
  833MOL0     C 9887  10.809   4.291   1.944 -0.0460 -0.9659 -0.0000
  833MOL0     C 9888  10.905   4.218   1.942 -0.3656 -0.6853  0.5194
  833MOL0     C 9889  10.126   4.385   2.027 -0.3137  0.1845  0.5528
  833MOL0     C 9890   9.997   4.347   2.072 -0.4568 -1.0316 -0.4334
  833MOL0     H 9891   9.530   4.130   2.063 -1.3946 -0.1866 -1.1503
  833MOL0     H 9892   9.290   4.126   2.128 -0.3889  1.2982  0.8547
  833MOL0     H 9893   9.011   4.434   2.014  2.7233  1.9430  0.4646
  833MOL0     H 9894   9.056   4.505   2.170  1.1266  1.1629 -1.7707
  833MOL0     H 9895   8.919   4.310   2.276 -0.2763 -3.2612 -0.5273
  833MOL0     H 9896   8.838   4.289   2.120  1.4687 -0.6772 -0.1816
  833MOL0     H 9897   8.788   4.542   2.120  0.1808  4.8728  3.8114
  833MOL0     H 9898   8.851   4.554   2.275  0.1742 -0.6633  0.8281
  833MOL0     H 9899   8.668   4.348   2.320 -0.7423  1.2415  1.3262
  833MOL0     H 9900   8.620   4.512   2.332 -1.5923 -1.5203 -0.6143
  833MOL0     H 9901   8.574   4.319   2.102  0.5651  0.3031 -1.7694
  833MOL0     H 9902   8.538   4.494   2.094  1.2521  1.2546  1.5488
  833MOL0     H 9903   8.347   4.468   2.224  0.2439  0.1667  1.4370
  833MOL0     H 9904   8.437   4.372   2.340  2.2594  0.7210 -0.5052
  833MOL0     H 9905   8.235   4.243   2.237 -1.0989 -2.2268 -1.2647
  833MOL0     H 9906   8.328   4.262   2.092 -0.7179 -2.9173  0.5012
  833MOL0     H 9907   8.451   4.115   2.336  0.2264  1.0062  0.1201
  833MOL0     H 9908   8.506   4.119   2.169  0.6255 -1.6473  1.3757
  833MOL0     H 9909   8.249   3.920   2.391  1.5573 -1.1265 -0.0780
  833MOL0     H 9910   8.148   3.690   2.349  0.1318  3.8004  1.2276
  833MOL0     H 9911   8.082   3.641   2.188  0.3650  2.5616 -2.2605
  833MOL0     H 9912   7.928   3.835   2.196 -3.0321  2.8086  2.3414
  833MOL0     H 9913   7.979   3.875   2.358 -0.2137 -1.2086  0.8209
  833MOL0     H 9914   7.844   3.622   2.278 -5.6083  3.6667 -2.3357
  833MOL0     H 9915   7.919   3.658   2.442 -2.1419 -2.6548 -0.3832
  833MOL0     H 9916   7.703   3.812   2.316 -2.7585  0.5570  1.3627
  833MOL0     H 9917   7.758   3.835   2.477 -1.7834  1.8955  0.0274
  833MOL0     H 9918   7.643   3.373   2.408 -2.9960 -1.3429  1.6024
  833MOL0     H 9919   7.758   3.229   2.554  1.6116 -0.0505 -0.9919
  833MOL0     H 9920   7.711   3.041   2.952 -0.2311  1.0148 -3.0125
  833MOL0     H 9921   7.778   2.856   3.099  2.6399 -4.2992 -0.1787
  833MOL0     H 9922   7.981   2.858   3.289  0.2273  0.3443 -2.9652
  833MOL0     H 9923   8.081   2.727   3.311  0.1089  1.4135  0.2174
  833MOL0     H 9924   7.901   2.565   3.233 -0.4035  0.5749 -2.2767
  833MOL0     H 9925   7.787   2.707   3.248  1.1196 -0.0825 -2.7397
  833MOL0     H 9926   7.876   2.735   3.487  0.6779 -0.6899  1.3066
  833MOL0     H 9927   7.966   2.589   3.478  0.1867 -0.7220 -0.7888
  833MOL0     H 9928   7.690   2.529   3.397 -0.9273  1.4173  0.7888
  833MOL0     H 9929   7.787   2.439   3.508 -1.8625 -0.4390 -1.7440
  833MOL0     H 9930   7.767   2.620   3.674  1.7711  0.2816 -2.6155
  833MOL0     H 9931   7.632   2.513   3.652 -1.3422  0.3148 -0.4093
  833MOL0     H 9932   7.678   2.791   3.541  0.8599 -0.9877 -0.8114
  833MOL0     H 9933   7.578   2.742   3.687 -0.2061 -0.8679 -0.1101
  833MOL0     H 9934   7.476   2.693   3.400 -0.2211  0.9974  0.1021
  833MOL0     H 9935   7.414   2.629   3.547  0.3992 -2.0639 -3.4672
  833MOL0     H 9936   7.450   2.917   3.464  0.2630 -1.2006 -0.7612
  833MOL0     H 9937   7.349   2.865   3.611 -1.8658 -1.5016  0.3296
  833MOL0     H 9938   8.174   2.859   2.944  1.9572  3.4818 -0.8180
  833MOL0     H 9939   8.100   3.051   2.792 -0.5620  1.4143  1.1017
  833MOL0     H 9940   7.798   3.546   2.843 -3.1977  1.8768  0.5187
  833MOL0     H 9941   7.702   3.701   2.666 -2.4291 -0.3140  0.1041
  833MOL0     H 9942   9.240   4.545   2.026  0.5584  0.0930  0.7499
  833MOL0     H 9943   9.461   4.550   1.945 -1.2615  1.8652  2.5446
  833MOL0     H 9944   9.816   4.430   1.791  1.6983 -1.6242 -2.4750
  833MOL0     H 9945  10.054   4.497   1.720  3.0136 -0.1531  0.2948
  833MOL0     H 9946  10.394   4.340   1.907  0.2845 -0.3055  0.0979
  833MOL0     H 9947  10.389   4.505   1.998 -0.7361 -1.4406  0.1618
  833MOL0     H 9948  10.468   4.478   1.709  1.1834  1.4670 -0.1878
  833MOL0     H 9949  10.530   4.592   1.825  1.7220  0.1478 -2.8831
  833MOL0     H 9950  10.696   4.422   1.738  0.5911  0.6905  1.0416
  833MOL0     H 9951  10.605   4.289   1.787  0.1642  0.3066 -1.4744
  833MOL0     H 9952  10.728   4.484   1.993 -3.4221  1.1297  1.3464
  833MOL0     H 9953  10.630   4.336   2.025 -0.0790  0.1467  0.1789
  833MOL0     H 9954  10.981   4.146   1.920  1.0782  0.9804 -0.2173
  833MOL0     H 9955  10.219   4.369   2.081  0.7663  1.7072 -0.7789
  833MOL0     H 9956   9.988   4.303   2.171 -0.8440  1.0443  0.5055
  834MOL0     O 9957   6.176   8.413   4.255 -0.1102  0.5308 -0.0160
  834MOL0     C 9958   6.219   8.296   4.226 -0.5060  0.0939  0.7188
  834MOL0     O 9959   6.160   8.204   4.149 -0.4508  0.4329  0.4015
  834MOL0     C 9960   6.027   8.210   4.118 -0.5452 -0.2107  0.4173
  834MOL0     C 9961   5.920   8.275   4.197  0.0463  0.9222  0.4309
  834MOL0     C 9962   5.778   8.254   4.165 -0.2018 -0.4915 -0.4476
  834MOL0     C 9963   5.753   8.183   4.049 -0.4239 -0.1503  1.2352
  834MOL0     O 9964   5.624   8.197   4.004 -0.2984  0.0426  0.4073
  834MOL0     C 9965   5.529   8.113   4.064 -0.7506 -0.0238  0.2243
  834MOL0     C 9966   5.396   8.187   4.079 -0.3986  0.1213  0.3229
  834MOL0     C 9967   5.296   8.112   4.164 -0.0927  0.4131  0.2513
  834MOL0     C 9968   5.160   8.177   4.154 -0.5445  1.1273  1.3785
  834MOL0     C 9969   5.058   8.102   4.233 -0.1357  0.1334  0.6819
  834MOL0     C 9970   4.924   8.183   4.226 -0.2649 -0.3408 -0.2920
  834MOL0     C 9971   4.818   8.128   4.323  0.1119 -0.0117 -0.5156
  834MOL0     C 9972   4.682   8.199   4.305  0.1264  0.4176  0.1132
  834MOL0     N 9973   4.698   8.346   4.315  0.4352 -0.5999 -0.0632
  834MOL0     C 9974   4.734   8.423   4.423  0.0032  0.0780 -0.8473
  834MOL0     C 9975   4.736   8.553   4.385 -0.6894 -0.0755  0.8171
  834MOL0     C 9976   4.773   8.665   4.477 -0.7418 -0.2081 -0.2429
  834MOL0     C 9977   4.699   8.794   4.454 -0.0718 -0.0352 -0.3067
  834MOL0     C 9978   4.549   8.775   4.485  0.5533 -0.2826 -1.1073
  834MOL0     C 9979   4.534   8.780   4.641 -0.0588 -1.1648 -1.0580
  834MOL0     O 9980   4.554   8.919   4.681  0.7348 -0.0730 -0.3545
  834MOL0     C 9981   4.585   8.937   4.817  0.3625 -0.4126 -0.1278
  834MOL0     C 9982   4.572   8.838   4.920  0.0279 -0.6723 -0.1030
  834MOL0     C 9983   4.598   8.861   5.058 -0.5029 -0.5534 -0.4122
  834MOL0     C 9984   4.661   8.987   5.093  0.1179 -0.0613  0.0388
  834MOL0     C 9985   4.713   9.017   5.231 -0.4637  0.7641 -0.0731
  834MOL0     O 9986   4.744   9.138   5.268  0.4960 -1.1468  0.3502
  834MOL0     C 9987   4.736   9.167   5.401 -0.5309 -0.2734 -0.3683
  834MOL0     C 9988   4.849   9.207   5.479 -0.3127  0.7620  0.6947
  834MOL0     C 9989   4.843   9.242   5.608  0.7834  0.2368 -0.4486
  834MOL0     C 9990   4.720   9.252   5.674  0.2556 -0.1086 -0.0386
  834MOL0     O 9991   4.703   9.297   5.807  0.1393 -0.3654  0.1215
  834MOL0     C 9992   4.656   9.200   5.901 -0.2712  0.1135  0.5589
  834MOL0     C 9993   4.586   9.265   6.020 -0.6627 -0.5362 -0.7746
  834MOL0     C 9994   4.677   9.351   6.108 -0.2741  0.6184 -0.3686
  834MOL0     C 9995   4.583   9.429   6.193  1.0383 -1.0781 -1.0997
  834MOL0     C 9996   4.659   9.538   6.278 -0.1514 -0.6810  0.0707
  834MOL0     C 9997   4.759   9.461   6.364 -0.9861 -0.1394 -0.0754
  834MOL0     C 9998   4.840   9.555   6.461 -0.0594 -0.1121  0.2877
  834MOL0     C 9999   4.897   9.681   6.397 -0.5635  0.0190  0.2349
  834MOL0    Cl10000   4.987   9.631   6.245 -0.4397 -0.1286 -0.1735
  834MOL0     C10001   4.607   9.206   5.609  0.4402  0.6949  0.5427
  834MOL0     C10002   4.620   9.169   5.473  0.0436 -0.4532  0.0199
  834MOL0     O10003   4.703   8.917   5.307 -0.2959 -0.5295 -0.1371
  834MOL0     C10004   4.673   9.085   4.986  0.7291 -0.2392 -0.1108
  834MOL0     C10005   4.637   9.058   4.852  0.0723 -0.6297 -1.2224
  834MOL0     N10006   4.701   8.553   4.251  0.1498  0.2496 -0.0038
  834MOL0     N10007   4.691   8.433   4.211 -0.4175  0.6621 -0.5584
  834MOL0     C10008   5.857   8.119   3.969 -0.6141 -0.1459 -0.1765
  834MOL0     C10009   5.989   8.131   4.006  0.4091 -0.5827 -0.3752
  834MOL0     C10010   6.349   8.248   4.288 -0.4836  0.6712 -0.3435
  834MOL0     C10011   6.427   8.331   4.375 -0.8533  0.2005  0.2990
  834MOL0     C10012   6.554   8.284   4.420 -0.8471  0.7240 -0.0847
  834MOL0     C10013   6.597   8.153   4.404 -0.3457  0.6051 -0.1738
  834MOL0     O10014   6.718   8.115   4.436 -0.0864  0.0389  0.5264
  834MOL0     C10015   6.731   8.043   4.562  0.7586  0.7025  0.5241
  834MOL0     C10016   6.870   7.992   4.559 -0.8829 -0.2771  0.5204
  834MOL0     C10017   6.977   8.096   4.520  0.5138  0.4313  0.0222
  834MOL0     C10018   7.111   8.046   4.559  0.0154 -0.2898 -0.9860
  834MOL0     C10019   7.209   8.153   4.551 -0.3281  0.5733 -0.0571
  834MOL0     C10020   7.305   8.227   4.535  0.5546 -0.9615  0.6180
  834MOL0     C10021   6.525   8.069   4.315  0.3500 -0.3586  0.1246
  834MOL0     C10022   6.406   8.119   4.264  0.0128  0.3405  0.8835
  834MOL0     H10023   5.957   8.336   4.278  1.5047  0.1873  0.3574
  834MOL0     H10024   5.697   8.295   4.225 -0.1939  0.7685 -1.2714
  834MOL0     H10025   5.565   8.093   4.165  2.1514  0.3180 -0.6717
  834MOL0     H10026   5.511   8.020   4.010  0.7730  0.4304 -1.1317
  834MOL0     H10027   5.352   8.221   3.985  2.9281  1.6923 -0.8275
  834MOL0     H10028   5.418   8.286   4.121 -1.1745  0.7988 -0.7899
  834MOL0     H10029   5.338   8.112   4.265 -0.0003 -0.1157  0.2196
  834MOL0     H10030   5.290   8.005   4.141  0.2515  0.4180  0.1314
  834MOL0     H10031   5.182   8.277   4.194 -0.3488  1.9519 -0.6803
  834MOL0     H10032   5.140   8.176   4.047  0.1329 -3.3704  1.0867
  834MOL0     H10033   5.098   8.103   4.334 -0.7856  4.0261  1.0574
  834MOL0     H10034   5.055   8.001   4.191  0.0199  0.4043 -0.0005
  834MOL0     H10035   4.890   8.172   4.122 -0.0584 -0.3495 -0.3596
  834MOL0     H10036   4.952   8.286   4.249 -1.7668  0.3159 -1.2016
  834MOL0     H10037   4.807   8.020   4.308  1.8773 -0.0522 -1.8048
  834MOL0     H10038   4.846   8.147   4.427  0.3961  1.6740 -0.8736
  834MOL0     H10039   4.615   8.168   4.386  0.2985 -1.7832 -0.5277
  834MOL0     H10040   4.631   8.173   4.211 -0.1419  2.5297 -0.3962
  834MOL0     H10041   4.766   8.399   4.524  1.5854  0.2674 -1.2775
  834MOL0     H10042   4.874   8.695   4.449 -0.3031 -0.0488  1.3773
  834MOL0     H10043   4.776   8.635   4.582 -1.5950  0.6365  0.0439
  834MOL0     H10044   4.709   8.827   4.351 -0.3388 -1.5282 -0.8298
  834MOL0     H10045   4.754   8.873   4.506  1.4521  0.2991 -2.3097
  834MOL0     H10046   4.489   8.855   4.441 -0.4688 -1.6213 -2.2374
  834MOL0     H10047   4.520   8.679   4.441 -2.2239  0.3966 -0.9603
  834MOL0     H10048   4.592   8.706   4.696 -1.1171 -2.4560 -1.6219
  834MOL0     H10049   4.433   8.757   4.676  0.2096  0.8932  1.3980
  834MOL0     H10050   4.539   8.737   4.899 -0.1813 -0.6193 -0.0364
  834MOL0     H10051   4.578   8.779   5.126 -2.6957  0.4072  0.2031
  834MOL0     H10052   4.940   9.206   5.420 -0.4476 -1.2448  0.4549
  834MOL0     H10053   4.928   9.281   5.663 -1.0597  1.1016  1.9825
  834MOL0     H10054   4.744   9.150   5.944 -0.1996 -0.4671 -0.2271
  834MOL0     H10055   4.578   9.137   5.857  2.2725 -2.3818 -0.7461
  834MOL0     H10056   4.544   9.183   6.078  2.0959 -2.5641 -1.4551
  834MOL0     H10057   4.510   9.321   5.964 -0.6754 -2.7597 -3.1801
  834MOL0     H10058   4.737   9.417   6.045  1.5450 -1.7949 -1.3066
  834MOL0     H10059   4.736   9.281   6.167 -1.6929  0.9465  1.5243
  834MOL0     H10060   4.499   9.470   6.137  0.8833 -1.2263 -0.9785
  834MOL0     H10061   4.532   9.353   6.252  0.3766  0.5223  0.4969
  834MOL0     H10062   4.596   9.590   6.351 -0.7285  0.1448 -0.9917
  834MOL0     H10063   4.708   9.608   6.210 -0.3209  0.1785  0.8158
  834MOL0     H10064   4.828   9.412   6.295 -1.3248  0.7047 -1.0342
  834MOL0     H10065   4.699   9.387   6.418 -2.4994 -0.3281 -1.9204
  834MOL0     H10066   4.780   9.588   6.546 -0.7281 -0.5090 -0.0213
  834MOL0     H10067   4.913   9.495   6.516 -0.8207 -1.9081 -0.5865
  834MOL0     H10068   4.958   9.736   6.470  0.7499 -2.1094  0.8097
  834MOL0     H10069   4.815   9.747   6.367 -0.9232 -0.7631 -0.5497
  834MOL0     H10070   4.510   9.209   5.657 -0.1868 -1.2895 -0.4978
  834MOL0     H10071   4.530   9.144   5.419  0.3596 -0.6894 -0.4006
  834MOL0     H10072   4.700   9.187   5.013 -2.7626  0.8138 -0.0578
  834MOL0     H10073   4.643   9.135   4.776 -1.6793  2.0956  1.1782
  834MOL0     H10074   5.814   8.073   3.880 -1.0294  3.9884 -2.3294
  834MOL0     H10075   6.079   8.097   3.956  3.4754  3.0001  2.1123
  834MOL0     H10076   6.393   8.431   4.401 -0.3488  0.2287  0.8589
  834MOL0     H10077   6.624   8.341   4.480  2.8309 -2.6825 -0.6780
  834MOL0     H10078   6.667   7.955   4.574 -0.8662  1.9539  1.2958
  834MOL0     H10079   6.699   8.107   4.644 -1.3626 -1.4387  1.4834
  834MOL0     H10080   6.895   7.954   4.658  1.7822  0.1852  0.1012
  834MOL0     H10081   6.884   7.902   4.498 -0.5100  0.4890 -0.5533
  834MOL0     H10082   6.963   8.192   4.569  1.1324  2.0386 -2.7635
  834MOL0     H10083   6.984   8.115   4.412  2.1262 -2.2172 -0.4485
  834MOL0     H10084   7.105   8.010   4.662 -1.8773  3.1749  0.2997
  834MOL0     H10085   7.145   7.965   4.494 -0.6278 -0.6504 -0.8906
  834MOL0     H10086   7.395   8.281   4.515 -0.5919  0.7538 -0.1295
  834MOL0     H10087   6.552   7.971   4.278 -1.2050 -0.8425  0.2271
  834MOL0     H10088   6.354   8.058   4.190  2.3976 -3.5866  2.1379
  835MOL0     O10089   5.918   5.857   6.267 -0.0388 -0.3784 -0.1862
  835MOL0     C10090   5.990   5.790   6.197  0.6477  0.8359  0.3462
  835MOL0     O10091   5.951   5.681   6.123  0.3351 -0.1688  0.3432
  835MOL0     C10092   5.819   5.644   6.129 -0.2132  0.4238 -0.5887
  835MOL0     C10093   5.736   5.628   6.246  0.4373  1.0278 -0.3588
  835MOL0     C10094   5.604   5.583   6.233 -0.3640  0.1737  0.3969
  835MOL0     C10095   5.551   5.563   6.099  0.5252 -0.5101  0.0467
  835MOL0     O10096   5.423   5.521   6.080 -0.6410 -0.2531 -0.2763
  835MOL0     C10097   5.414   5.379   6.089 -0.5386 -0.1319 -0.2845
  835MOL0     C10098   5.271   5.331   6.093  0.1086  0.2307  0.3630
  835MOL0     C10099   5.240   5.201   6.167 -0.0432 -0.4461 -0.1283
  835MOL0     C10100   5.103   5.130   6.146  1.2057 -0.1099 -0.0896
  835MOL0     C10101   4.984   5.223   6.158 -0.3037 -0.0337 -0.2109
  835MOL0     C10102   4.858   5.150   6.146 -0.6440  0.1467 -0.0393
  835MOL0     C10103   4.738   5.233   6.196 -0.1530 -0.0878  0.4411
  835MOL0     C10104   4.611   5.160   6.155 -1.0541  0.3418  0.3232
  835MOL0     N10105   4.498   5.217   6.225  0.3183  0.1981 -0.0238
  835MOL0     C10106   4.460   5.176   6.354  1.1402  0.4222 -0.0687
  835MOL0     C10107   4.354   5.253   6.383  0.8873 -0.2795 -0.3325
  835MOL0     C10108   4.291   5.234   6.517  0.3765 -0.2510  0.5393
  835MOL0     C10109   4.131   5.244   6.517  0.3435 -0.2154  0.1976
  835MOL0     C10110   4.059   5.378   6.466  0.0060  0.2924  0.3110
  835MOL0     C10111   4.132   5.498   6.524  0.1195 -0.1945 -0.8128
  835MOL0     O10112   4.065   5.619   6.483 -0.5143  0.3764 -0.2975
  835MOL0     C10113   3.942   5.637   6.539 -0.7829 -0.4453  0.2635
  835MOL0     C10114   3.828   5.604   6.472  0.5349  0.4067  0.2044
  835MOL0     C10115   3.699   5.619   6.528  0.0393 -0.0662 -0.2191
  835MOL0     C10116   3.687   5.690   6.654 -0.5775 -0.5475  0.5644
  835MOL0     C10117   3.563   5.741   6.719 -0.0468  0.7618 -0.2530
  835MOL0     O10118   3.453   5.743   6.628 -0.4063  0.7879  0.2810
  835MOL0     C10119   3.339   5.759   6.695  0.0053 -0.4299 -0.0965
  835MOL0     C10120   3.257   5.653   6.698  1.0631  0.0722 -0.4036
  835MOL0     C10121   3.118   5.668   6.741 -0.1008 -0.2514  0.2689
  835MOL0     C10122   3.075   5.782   6.803  1.1912 -0.4686  0.2116
  835MOL0     O10123   2.950   5.791   6.861 -0.1095 -0.0448  0.7935
  835MOL0     C10124   2.892   5.910   6.920  0.1698  1.0152 -0.4022
  835MOL0     C10125   2.745   5.850   6.950 -1.1060 -0.0015  0.9083
  835MOL0     C10126   2.663   5.965   6.999 -0.8208  0.7226  0.1385
  835MOL0     C10127   2.525   5.909   7.047  0.2620  0.5733 -0.8125
  835MOL0     C10128   2.418   6.002   7.117 -0.1636  0.0603  0.4064
  835MOL0     C10129   2.300   5.915   7.164  0.8018  0.1816  0.9818
  835MOL0     C10130   2.205   5.982   7.269  0.0002 -0.1344  0.7281
  835MOL0     C10131   2.124   6.103   7.213  0.5505 -0.0827  0.0544
  835MOL0    Cl10132   2.009   6.168   7.334  0.2692  0.5701 -0.2061
  835MOL0     C10133   3.169   5.889   6.812  0.5430  0.4374  0.1108
  835MOL0     C10134   3.295   5.878   6.756 -0.6038 -0.7505  0.2474
  835MOL0     O10135   3.571   5.761   6.841  0.1441 -0.3998  0.1954
  835MOL0     C10136   3.810   5.731   6.713  0.2016  0.7628 -0.3577
  835MOL0     C10137   3.939   5.699   6.654 -0.6391 -0.7883  0.1305
  835MOL0     N10138   4.321   5.332   6.273  0.3912  0.0645  0.0119
  835MOL0     N10139   4.406   5.305   6.173  0.0223 -0.2922 -0.9725
  835MOL0     C10140   5.629   5.569   5.988 -0.3938 -0.0225  1.2182
  835MOL0     C10141   5.762   5.615   6.005  0.7304  0.2961 -0.0388
  835MOL0     C10142   6.136   5.818   6.203 -0.6938 -0.5736 -0.0287
  835MOL0     C10143   6.222   5.771   6.099 -1.0016 -0.3355 -0.0758
  835MOL0     C10144   6.356   5.809   6.096 -0.3430 -0.2472 -0.3496
  835MOL0     C10145   6.413   5.894   6.188 -0.7810  0.3933  0.0395
  835MOL0     O10146   6.547   5.918   6.175 -0.6971  0.9310  0.2199
  835MOL0     C10147   6.608   6.038   6.227 -0.0102 -0.4649  0.5534
  835MOL0     C10148   6.662   6.014   6.373 -0.4917  0.1405 -0.3487
  835MOL0     C10149   6.783   5.922   6.368 -0.1650 -0.8378 -0.3438
  835MOL0     C10150   6.837   5.886   6.509 -0.0438  0.0068 -0.0999
  835MOL0     C10151   6.942   5.784   6.500 -0.4445  0.5625  0.7173
  835MOL0     C10152   7.031   5.708   6.486 -0.0489 -0.0960 -0.2028
  835MOL0     C10153   6.334   5.952   6.283  0.8948  0.1129 -0.0170
  835MOL0     C10154   6.196   5.915   6.291  0.4935  0.5109  0.0472
  835MOL0     H10155   5.783   5.651   6.341 -1.3486  2.6516  0.2085
  835MOL0     H10156   5.533   5.558   6.312 -1.8278 -2.4748 -1.6001
  835MOL0     H10157   5.475   5.333   6.166 -1.6508 -2.8545 -0.9112
  835MOL0     H10158   5.453   5.342   5.993 -1.8192 -1.0341 -0.4812
  835MOL0     H10159   5.228   5.314   5.994  0.6687 -0.5001  0.2391
  835MOL0     H10160   5.216   5.405   6.152 -0.1067 -0.9782  1.7152
  835MOL0     H10161   5.252   5.200   6.276  1.5667 -0.7735 -0.2828
  835MOL0     H10162   5.320   5.132   6.140  0.3334 -0.1007  0.0943
  835MOL0     H10163   5.106   5.090   6.044  2.2581  0.7861 -0.4307
  835MOL0     H10164   5.092   5.046   6.215 -1.2713  0.8556  0.8089
  835MOL0     H10165   4.993   5.295   6.076  0.0228 -0.3163 -0.4313
  835MOL0     H10166   4.981   5.272   6.255 -1.6414 -0.3097 -0.0948
  835MOL0     H10167   4.865   5.058   6.205  0.8705 -0.7129 -1.4454
  835MOL0     H10168   4.846   5.128   6.039  3.3084 -0.7162 -0.4625
  835MOL0     H10169   4.747   5.237   6.305  0.2559  5.0774  0.4611
  835MOL0     H10170   4.736   5.336   6.158  0.5280 -0.1356  0.2546
  835MOL0     H10171   4.619   5.053   6.176  0.9821  0.2134 -0.8834
  835MOL0     H10172   4.610   5.164   6.045  2.1661 -0.6780  0.1644
  835MOL0     H10173   4.508   5.102   6.417 -1.3646 -1.7479 -0.5474
  835MOL0     H10174   4.337   5.303   6.588  0.2883 -0.5051  0.8475
  835MOL0     H10175   4.308   5.134   6.560 -2.1534 -0.5884  0.9238
  835MOL0     H10176   4.100   5.232   6.621 -0.3155  0.0078  0.0349
  835MOL0     H10177   4.097   5.153   6.468  1.7947 -0.2759 -0.7509
  835MOL0     H10178   4.075   5.375   6.358 -0.1331  0.7042  0.2789
  835MOL0     H10179   3.954   5.381   6.497  0.5232  0.7468  2.1943
  835MOL0     H10180   4.234   5.499   6.485  0.8010  0.8536  0.9218
  835MOL0     H10181   4.145   5.498   6.632  2.3786 -2.6156 -0.9873
  835MOL0     H10182   3.851   5.564   6.374  0.4533  1.8261 -0.4193
  835MOL0     H10183   3.605   5.585   6.484  1.1502 -0.8953 -2.0799
  835MOL0     H10184   3.281   5.557   6.653 -2.1514 -0.4263 -1.3103
  835MOL0     H10185   3.044   5.590   6.726 -1.7898  1.2523  0.5029
  835MOL0     H10186   2.889   5.986   6.841 -0.0030 -1.9009 -3.4668
  835MOL0     H10187   2.944   5.935   7.012 -2.3463 -1.9857  2.0703
  835MOL0     H10188   2.748   5.773   7.028 -4.0775  0.3268  1.4513
  835MOL0     H10189   2.701   5.809   6.858 -0.6090  0.4768  0.4522
  835MOL0     H10190   2.660   6.030   6.912  0.0797  1.4356  0.6251
  835MOL0     H10191   2.712   6.026   7.076 -0.4562  1.2870 -0.5353
  835MOL0     H10192   2.477   5.857   6.964  1.1154  0.1966 -1.0831
  835MOL0     H10193   2.563   5.846   7.128  1.4092  2.0476 -0.1627
  835MOL0     H10194   2.388   6.077   7.043  0.5238 -2.1006 -2.2236
  835MOL0     H10195   2.462   6.044   7.207  1.2840  0.0138 -0.2469
  835MOL0     H10196   2.337   5.824   7.213 -0.2533 -1.6646 -1.4388
  835MOL0     H10197   2.244   5.883   7.075  0.7111  1.6082  0.5061
  835MOL0     H10198   2.138   5.905   7.308 -1.4582 -0.3262 -1.9766
  835MOL0     H10199   2.265   6.032   7.346  0.1216 -1.2200  1.3714
  835MOL0     H10200   2.078   6.095   7.114 -2.1019  1.6620  1.0258
  835MOL0     H10201   2.194   6.187   7.203  0.1645  0.5638  2.1949
  835MOL0     H10202   3.142   5.979   6.864  0.5199  2.0647 -2.5393
  835MOL0     H10203   3.363   5.962   6.761  0.7477 -1.6894 -1.1591
  835MOL0     H10204   3.810   5.789   6.805 -2.2786 -0.1780  0.3032
  835MOL0     H10205   4.029   5.731   6.707 -0.6052 -0.5533 -0.0667
  835MOL0     H10206   5.593   5.541   5.890 -0.6543 -1.9816  1.8193
  835MOL0     H10207   5.837   5.619   5.926  1.8385 -2.4166  0.7526
  835MOL0     H10208   6.176   5.713   6.021 -1.4799  2.1783 -1.8015
  835MOL0     H10209   6.415   5.764   6.017  0.0039 -1.9882  0.8458
  835MOL0     H10210   6.529   6.113   6.238  0.3233  0.1756 -1.1713
  835MOL0     H10211   6.674   6.076   6.148 -0.3555 -0.7025  0.1504
  835MOL0     H10212   6.688   6.110   6.419  1.4084 -1.3211  1.8835
  835MOL0     H10213   6.590   5.965   6.439  0.8958 -0.6985  0.5945
  835MOL0     H10214   6.862   5.965   6.306  0.0494 -0.0670  0.4485
  835MOL0     H10215   6.742   5.833   6.318 -0.8822 -0.1775 -0.9515
  835MOL0     H10216   6.878   5.977   6.553 -1.6639  0.8571 -0.2858
  835MOL0     H10217   6.767   5.846   6.582  1.6846 -0.7434  1.2141
  835MOL0     H10218   7.114   5.639   6.488  0.1114  0.0993  0.1375
  835MOL0     H10219   6.369   6.028   6.352 -1.8648  1.0059  0.5344
  835MOL0     H10220   6.130   5.967   6.360  0.2025  2.4645 -1.6004
  836MOL0     O10221   8.486   5.568   1.973  0.3699  0.8573  0.6544
  836MOL0     C10222   8.445   5.676   2.010 -0.8194  0.4453  0.7673
  836MOL0     O10223   8.523   5.782   2.039 -0.7580 -0.0795 -0.3896
  836MOL0     C10224   8.657   5.779   2.075 -0.0408 -1.1212  1.1891
  836MOL0     C10225   8.719   5.672   2.141  0.1559 -0.7130 -0.8322
  836MOL0     C10226   8.849   5.687   2.190 -0.8018 -0.2337 -0.9930
  836MOL0     C10227   8.919   5.810   2.174 -0.1555 -0.1203 -0.5106
  836MOL0     O10228   9.042   5.822   2.229 -0.3931 -0.3731  0.2055
  836MOL0     C10229   9.137   5.716   2.217 -1.0528  0.2209  0.5587
  836MOL0     C10230   9.277   5.770   2.233 -0.3542  0.7503  0.0736
  836MOL0     C10231   9.319   5.856   2.111  0.6715 -0.0471 -0.5570
  836MOL0     C10232   9.463   5.902   2.107 -0.3478  0.5604  0.3716
  836MOL0     C10233   9.492   6.027   2.035  0.2133 -0.1434  0.2152
  836MOL0     C10234   9.636   6.052   1.969 -0.1357  0.8126 -0.9916
  836MOL0     C10235   9.753   6.076   2.072 -0.2561 -0.3276 -0.9490
  836MOL0     C10236   9.811   5.944   2.125  0.0315 -0.1733 -0.0271
  836MOL0     N10237   9.867   5.867   2.022 -0.4094  1.0167  0.4841
  836MOL0     C10238   9.983   5.904   1.956 -0.3247  0.9324 -0.5972
  836MOL0     C10239  10.006   5.789   1.877 -0.2013 -0.2008 -0.1268
  836MOL0     C10240  10.121   5.777   1.775 -0.0117  0.1795 -0.0513
  836MOL0     C10241  10.077   5.799   1.632 -0.2142 -0.3179  0.2824
  836MOL0     C10242  10.185   5.843   1.524  0.4462  0.2283 -0.0469
  836MOL0     C10243  10.334   5.795   1.557  0.9272  0.1450 -0.1800
  836MOL0     O10244  10.342   5.647   1.545  0.1217  0.0384 -0.3380
  836MOL0     C10245  10.460   5.593   1.595 -0.2394  0.5854 -0.6641
  836MOL0     C10246  10.583   5.658   1.607 -0.3932  0.2326  0.1942
  836MOL0     C10247  10.688   5.590   1.668  0.9125 -0.2060 -0.5998
  836MOL0     C10248  10.677   5.453   1.705 -0.3362 -0.3869 -0.0088
  836MOL0     C10249  10.795   5.373   1.763 -0.3092  0.3616 -0.1641
  836MOL0     O10250  10.780   5.235   1.774 -0.4768  0.0967  0.6400
  836MOL0     C10251  10.885   5.171   1.825 -0.1701  0.1308 -0.1294
  836MOL0     C10252  10.870   5.096   1.941 -0.5686  0.1691 -0.3186
  836MOL0     C10253  10.989   5.036   1.986  0.1043 -0.2943 -0.0935
  836MOL0     C10254  11.113   5.051   1.930  0.5365  0.3429  0.4549
  836MOL0     O10255  11.220   5.008   2.007  0.6845  0.1052 -0.3792
  836MOL0     C10256  11.355   5.039   1.973 -0.1392 -0.3074 -0.0154
  836MOL0     C10257  11.429   4.924   2.020 -0.2885  0.5026 -0.6386
  836MOL0     C10258  11.572   4.898   1.959 -0.4696  0.1972 -0.1883
  836MOL0     C10259  11.621   4.752   2.003  0.6882 -0.8152 -0.0415
  836MOL0     C10260  11.757   4.725   1.948  0.2160  0.3401 -0.7565
  836MOL0     C10261  11.861   4.805   2.018  0.2048  0.8946 -0.0389
  836MOL0     C10262  11.996   4.765   1.968  0.0712  0.1418 -0.1859
  836MOL0     C10263  12.093   4.853   2.032 -0.1309 -0.7187  0.0446
  836MOL0    Cl10264  12.097   4.844   2.211  0.3427 -0.2170  0.0679
  836MOL0     C10265  11.126   5.119   1.811 -0.5275  0.1967 -0.0663
  836MOL0     C10266  11.010   5.176   1.758 -0.5752 -0.1665  0.3870
  836MOL0     O10267  10.899   5.439   1.782  0.0404 -0.1154  0.3002
  836MOL0     C10268  10.550   5.393   1.683 -0.3832  0.9024  0.0333
  836MOL0     C10269  10.444   5.463   1.624  1.2735  1.0925 -0.3236
  836MOL0     N10270   9.908   5.698   1.900  0.3040 -0.2529  0.9458
  836MOL0     N10271   9.823   5.740   1.989  0.4224  0.4859 -0.7491
  836MOL0     C10272   8.863   5.910   2.095 -0.1924  0.0763  1.5926
  836MOL0     C10273   8.730   5.896   2.044 -0.5238 -0.1834 -0.7558
  836MOL0     C10274   8.302   5.701   2.005  0.7901 -0.1677  0.2423
  836MOL0     C10275   8.217   5.590   1.994 -0.3686 -0.9030  0.0338
  836MOL0     C10276   8.076   5.606   2.010  1.1975 -0.1453 -0.5352
  836MOL0     C10277   8.022   5.731   2.029  0.3180  1.4967  0.3430
  836MOL0     O10278   7.882   5.741   2.014 -0.8114 -0.0977 -0.1646
  836MOL0     C10279   7.823   5.828   2.112 -0.3705 -0.5984 -0.6161
  836MOL0     C10280   7.693   5.772   2.172 -1.0127  0.4064 -0.6042
  836MOL0     C10281   7.581   5.722   2.082  0.0458  0.4587  0.4110
  836MOL0     C10282   7.504   5.836   2.036  0.9970 -0.2259  0.0026
  836MOL0     C10283   7.438   5.807   1.912 -0.0113  0.1621 -0.1009
  836MOL0     C10284   7.376   5.788   1.803 -0.1143 -1.1007  0.0911
  836MOL0     C10285   8.110   5.841   2.033 -0.1259 -0.7122 -0.3656
  836MOL0     C10286   8.246   5.827   2.017 -0.3764  0.1728  0.0180
  836MOL0     H10287   8.647   5.593   2.158 -0.9324  0.6393  1.3799
  836MOL0     H10288   8.894   5.602   2.241 -1.3662  0.0767  0.0673
  836MOL0     H10289   9.118   5.669   2.120 -0.6907 -1.3169  1.2033
  836MOL0     H10290   9.122   5.635   2.288 -1.5491 -1.2364 -1.1364
  836MOL0     H10291   9.354   5.695   2.252 -1.8976 -0.8734  0.2675
  836MOL0     H10292   9.274   5.838   2.318  0.2710 -2.2555  2.6732
  836MOL0     H10293   9.255   5.944   2.113  0.5775 -0.1234 -0.2021
  836MOL0     H10294   9.296   5.797   2.022 -0.3477 -0.6463  0.0771
  836MOL0     H10295   9.506   5.913   2.207 -0.2588 -0.8602  0.5110
  836MOL0     H10296   9.516   5.816   2.066 -2.4271 -0.8815  0.6058
  836MOL0     H10297   9.468   6.119   2.090 -1.7888  0.3722 -1.3604
  836MOL0     H10298   9.437   6.037   1.940  1.3601 -1.1231 -0.5874
  836MOL0     H10299   9.640   6.142   1.907 -3.6206  0.4663 -1.9200
  836MOL0     H10300   9.668   5.974   1.900  2.4747  1.1446 -0.2830
  836MOL0     H10301   9.822   6.138   2.014  2.2426 -1.9956  0.0703
  836MOL0     H10302   9.711   6.128   2.159 -1.3573 -0.7434 -1.2146
  836MOL0     H10303   9.729   5.881   2.162 -0.7790  0.7344 -0.2571
  836MOL0     H10304   9.884   5.962   2.205 -0.1798  1.3684 -0.1463
  836MOL0     H10305  10.044   5.993   1.961 -0.0909  0.7100  1.8673
  836MOL0     H10306  10.164   5.677   1.782  1.8095  0.9739  0.7051
  836MOL0     H10307  10.195   5.848   1.814  0.3643 -0.9101  1.3028
  836MOL0     H10308   9.997   5.874   1.627 -1.1259 -1.2455 -4.6201
  836MOL0     H10309  10.031   5.706   1.600 -1.0075  0.1992 -0.1115
  836MOL0     H10310  10.147   5.801   1.431  0.3962  3.4262 -1.5934
  836MOL0     H10311  10.188   5.950   1.504  4.1912  0.4995  1.1346
  836MOL0     H10312  10.368   5.844   1.649  0.6805  3.9107 -1.8728
  836MOL0     H10313  10.381   5.841   1.469 -1.9200 -1.0421 -2.4780
  836MOL0     H10314  10.587   5.766   1.608 -0.6152  0.3271 -2.2954
  836MOL0     H10315  10.779   5.647   1.686  1.8101 -0.8586 -2.7468
  836MOL0     H10316  10.775   5.100   1.994  1.2669  3.1132  3.2435
  836MOL0     H10317  11.002   4.991   2.084  1.4746  2.0953  0.9083
  836MOL0     H10318  11.371   5.137   2.019 -0.1135  0.9987 -2.6169
  836MOL0     H10319  11.369   5.048   1.865  1.0891  1.4347  0.2432
  836MOL0     H10320  11.370   4.834   2.003  0.5297 -0.0213 -0.7388
  836MOL0     H10321  11.435   4.923   2.129 -1.3966 -1.8900 -0.5470
  836MOL0     H10322  11.637   4.979   1.993 -2.3854  2.0397 -0.7122
  836MOL0     H10323  11.573   4.919   1.852 -1.0519 -0.0119 -0.2348
  836MOL0     H10324  11.611   4.751   2.111 -2.0371 -0.2587 -0.2203
  836MOL0     H10325  11.541   4.689   1.961 -1.6386  1.1398  1.1765
  836MOL0     H10326  11.771   4.731   1.840 -1.3351  2.4659 -0.8950
  836MOL0     H10327  11.791   4.623   1.969  0.0556  0.3509 -0.4278
  836MOL0     H10328  11.864   4.774   2.123  0.8117  2.5261  0.4531
  836MOL0     H10329  11.842   4.913   2.013 -4.3892  0.3196  0.3940
  836MOL0     H10330  12.010   4.668   2.015  1.9580  1.5084  2.3443
  836MOL0     H10331  12.012   4.762   1.860 -0.3702  0.5322 -0.2672
  836MOL0     H10332  12.079   4.958   2.005 -1.6906 -0.5095  1.4694
  836MOL0     H10333  12.186   4.815   1.989 -0.0438 -1.8348  1.1687
  836MOL0     H10334  11.222   5.129   1.761  1.0036 -0.8637  2.4345
  836MOL0     H10335  11.021   5.243   1.673 -1.8708  4.4143  3.4549
  836MOL0     H10336  10.554   5.289   1.712  3.8909  1.5124  2.4689
  836MOL0     H10337  10.346   5.418   1.609  1.6130 -0.4275  1.5941
  836MOL0     H10338   8.918   6.003   2.087  2.7967 -1.7130 -1.2685
  836MOL0     H10339   8.688   5.981   1.992 -1.3699 -1.6613 -2.6295
  836MOL0     H10340   8.259   5.490   1.990 -0.5717 -1.0064  0.4768
  836MOL0     H10341   8.005   5.525   1.995  0.4391  0.6805 -1.6453
  836MOL0     H10342   7.803   5.921   2.058  0.7780  0.2438  0.3632
  836MOL0     H10343   7.892   5.852   2.193 -1.5722 -1.8630  0.8591
  836MOL0     H10344   7.721   5.696   2.245 -0.7355 -1.7428 -2.8571
  836MOL0     H10345   7.647   5.858   2.223 -0.5600 -1.0725  2.5168
  836MOL0     H10346   7.510   5.655   2.132 -0.7257 -0.5237 -1.8673
  836MOL0     H10347   7.619   5.670   1.993 -2.5267 -1.0761  0.1092
  836MOL0     H10348   7.426   5.869   2.106 -0.8880 -1.2090 -1.5379
  836MOL0     H10349   7.562   5.927   2.016 -0.0204  0.4089 -0.1852
  836MOL0     H10350   7.317   5.788   1.714 -1.3286 -1.5864  0.8811
  836MOL0     H10351   8.067   5.941   2.035  3.9812  1.2502  1.7469
  836MOL0     H10352   8.313   5.913   2.020 -0.0710 -0.0295 -0.6273
  837MOL0     O10353   5.370   6.323   1.828  0.2916  0.0300 -0.1614
  837MOL0     C10354   5.372   6.226   1.906  0.4051  0.3049 -0.7888
  837MOL0     O10355   5.265   6.145   1.930  0.3448 -0.2540 -0.4849
  837MOL0     C10356   5.141   6.165   1.871  0.1674 -0.5562  0.0747
  837MOL0     C10357   5.043   6.099   1.950  0.2239  0.0674  0.2026
  837MOL0     C10358   4.918   6.077   1.895 -0.1888  0.5758 -0.3935
  837MOL0     C10359   4.875   6.142   1.775  0.4227  0.3014  0.4423
  837MOL0     O10360   4.743   6.155   1.731  0.3084  0.4389  0.0345
  837MOL0     C10361   4.637   6.068   1.786 -0.6327 -0.3170 -0.4118
  837MOL0     C10362   4.490   6.130   1.784 -0.1937  0.3392  0.5589
  837MOL0     C10363   4.381   6.074   1.868  0.1172  0.3949  0.4076
  837MOL0     C10364   4.414   6.053   2.012 -0.2210  0.1016  0.2193
  837MOL0     C10365   4.294   5.992   2.084 -0.2351  0.3765  0.7080
  837MOL0     C10366   4.328   5.945   2.225  0.9104  0.1067 -0.7766
  837MOL0     C10367   4.203   5.901   2.294 -0.0241  0.5347  0.0139
  837MOL0     C10368   4.126   5.786   2.241  0.2470 -0.5253  1.2605
  837MOL0     N10369   4.007   5.770   2.323 -0.2913 -0.0577  0.6346
  837MOL0     C10370   3.925   5.869   2.376 -0.4127  0.5178  0.1177
  837MOL0     C10371   3.819   5.806   2.424  0.6345 -0.3156 -0.6511
  837MOL0     C10372   3.700   5.868   2.491  0.2914 -0.3759  0.3959
  837MOL0     C10373   3.702   5.829   2.643  0.2299 -0.6651 -0.6026
  837MOL0     C10374   3.572   5.869   2.708  1.2924  0.2348  0.2563
  837MOL0     C10375   3.605   5.872   2.859  0.6010  1.1307  0.3032
  837MOL0     O10376   3.481   5.919   2.924 -0.4686  0.6474 -0.0393
  837MOL0     C10377   3.441   5.865   3.042  0.2682  0.1592  0.2009
  837MOL0     C10378   3.498   5.757   3.105 -0.0316 -0.9123 -0.7043
  837MOL0     C10379   3.432   5.686   3.206  0.0627  0.4042  0.5318
  837MOL0     C10380   3.302   5.720   3.248  0.0237  0.8322  0.6256
  837MOL0     C10381   3.224   5.636   3.344  0.1545 -0.2846  1.1241
  837MOL0     O10382   3.089   5.664   3.356 -0.6783  0.4801  0.8074
  837MOL0     C10383   3.017   5.610   3.462  0.6215 -0.7944 -0.4929
  837MOL0     C10384   2.892   5.676   3.473 -0.4030  0.3163  0.1290
  837MOL0     C10385   2.805   5.643   3.570  0.0590  0.0776 -0.4260
  837MOL0     C10386   2.826   5.540   3.667  0.1079  0.2975 -0.6709
  837MOL0     O10387   2.752   5.500   3.770 -0.2036  0.3525 -0.2963
  837MOL0     C10388   2.651   5.584   3.806 -0.2018  0.1066 -0.5767
  837MOL0     C10389   2.597   5.518   3.930 -0.0688  0.7491 -0.6521
  837MOL0     C10390   2.463   5.574   3.972 -0.1302  0.0717  0.0831
  837MOL0     C10391   2.400   5.486   4.079  0.0868  1.0132  0.8495
  837MOL0     C10392   2.255   5.535   4.100  0.2234  0.4599  0.2368
  837MOL0     C10393   2.190   5.421   4.187 -0.3380 -0.0634  0.9677
  837MOL0     C10394   2.040   5.447   4.200  0.3657  0.7970 -1.0132
  837MOL0     C10395   1.962   5.333   4.267 -0.9226  0.6160  0.7210
  837MOL0    Cl10396   1.812   5.392   4.351  0.4069 -0.2453  0.3525
  837MOL0     C10397   2.949   5.477   3.657 -1.2467 -0.0041  0.3762
  837MOL0     C10398   3.045   5.515   3.561  0.2210  0.2145 -0.4716
  837MOL0     O10399   3.289   5.557   3.406 -0.4330 -0.0202  0.0598
  837MOL0     C10400   3.248   5.831   3.176 -0.2501 -0.6014 -1.2026
  837MOL0     C10401   3.316   5.905   3.081 -0.0699  0.1904 -0.9933
  837MOL0     N10402   3.827   5.670   2.381 -0.2170 -0.6064 -0.5939
  837MOL0     N10403   3.938   5.657   2.319  0.4477  0.6242 -0.1569
  837MOL0     C10404   4.976   6.205   1.697 -0.3908  0.2995  0.1416
  837MOL0     C10405   5.098   6.226   1.750 -0.5078  0.1899 -0.4193
  837MOL0     C10406   5.492   6.179   1.970  0.1019  0.4030  0.4616
  837MOL0     C10407   5.616   6.251   1.950 -0.6973  0.6156 -0.4068
  837MOL0     C10408   5.733   6.217   2.021  0.2612  0.3207  0.1558
  837MOL0     C10409   5.728   6.107   2.112 -0.3562 -0.6896  0.6753
  837MOL0     O10410   5.836   6.055   2.184  0.0133 -0.9034  0.7925
  837MOL0     C10411   5.970   6.060   2.123 -0.4729 -1.0235 -0.5932
  837MOL0     C10412   6.071   6.026   2.236  0.0858 -0.0838 -0.7089
  837MOL0     C10413   6.213   5.992   2.176 -0.6168  0.9214 -0.2206
  837MOL0     C10414   6.278   5.887   2.266 -0.0466  0.5266 -0.5133
  837MOL0     C10415   6.308   5.953   2.401  0.5758  0.0817 -0.4200
  837MOL0     C10416   6.331   5.997   2.513 -0.0552  0.3435 -0.7635
  837MOL0     C10417   5.614   6.039   2.130 -0.7267 -1.3140 -0.1007
  837MOL0     C10418   5.498   6.069   2.065 -0.5859 -0.4166  0.5342
  837MOL0     H10419   5.077   6.040   2.035  1.4013  0.6976  0.1959
  837MOL0     H10420   4.844   6.013   1.942  1.1115 -0.1747  0.6814
  837MOL0     H10421   4.653   6.035   1.889 -1.5586 -1.5768 -0.6550
  837MOL0     H10422   4.644   5.978   1.725 -0.3245 -1.2021  0.8917
  837MOL0     H10423   4.451   6.148   1.683 -0.7174 -0.2912  0.6398
  837MOL0     H10424   4.508   6.234   1.813 -0.9254  0.6216  0.0388
  837MOL0     H10425   4.352   5.982   1.817 -1.6306 -0.7866  3.2545
  837MOL0     H10426   4.295   6.141   1.863 -1.0825 -0.8068  2.9953
  837MOL0     H10427   4.493   5.980   2.032 -1.3996 -1.0055  1.0088
  837MOL0     H10428   4.450   6.145   2.060 -0.2209 -0.0665  0.5465
  837MOL0     H10429   4.245   5.911   2.029 -0.2344 -0.2877  1.6579
  837MOL0     H10430   4.220   6.071   2.100  1.7376  2.2680  0.9943
  837MOL0     H10431   4.381   6.023   2.281  2.4032  0.0024 -1.9728
  837MOL0     H10432   4.389   5.855   2.235  0.2785 -0.2909 -0.4593
  837MOL0     H10433   4.237   5.864   2.391 -0.8359  0.5921  0.3330
  837MOL0     H10434   4.147   5.991   2.322 -0.8953 -0.3828  1.3492
  837MOL0     H10435   4.197   5.703   2.239  1.4912  0.5158  0.1911
  837MOL0     H10436   4.088   5.810   2.142  0.9116  3.6176  1.7926
  837MOL0     H10437   3.929   5.977   2.380 -1.4284  0.6010 -0.6671
  837MOL0     H10438   3.609   5.836   2.440 -0.2047  2.6753 -0.8416
  837MOL0     H10439   3.709   5.977   2.485  1.6298 -0.4551  0.6224
  837MOL0     H10440   3.794   5.873   2.682 -0.3891  0.2472 -0.1390
  837MOL0     H10441   3.720   5.722   2.659  0.4215 -0.2172  3.2284
  837MOL0     H10442   3.540   5.962   2.660  2.0037 -0.9350 -2.6773
  837MOL0     H10443   3.495   5.793   2.694 -0.0632  1.6323 -0.2471
  837MOL0     H10444   3.673   5.957   2.853  0.6765  0.9848 -4.0229
  837MOL0     H10445   3.641   5.772   2.884 -0.3807  0.0467 -2.1859
  837MOL0     H10446   3.595   5.717   3.080 -0.9276 -2.2952 -2.1550
  837MOL0     H10447   3.487   5.602   3.246 -1.6608 -1.2601 -0.4106
  837MOL0     H10448   2.872   5.752   3.399  2.5318 -1.5780 -2.9402
  837MOL0     H10449   2.722   5.712   3.579  0.5388  0.7021 -0.7104
  837MOL0     H10450   2.576   5.601   3.728 -1.2656 -1.1356  0.1325
  837MOL0     H10451   2.679   5.687   3.826 -0.7577  0.1228  0.1716
  837MOL0     H10452   2.671   5.520   4.011 -0.8645  1.2502  0.0744
  837MOL0     H10453   2.575   5.414   3.903 -2.3123  0.5889  1.4370
  837MOL0     H10454   2.401   5.583   3.882 -1.8169 -0.2147  1.1657
  837MOL0     H10455   2.479   5.669   4.024 -1.4571  0.6372 -0.4889
  837MOL0     H10456   2.401   5.384   4.039  0.3572  0.8689  1.2192
  837MOL0     H10457   2.459   5.488   4.171  0.1065  2.7343  0.8346
  837MOL0     H10458   2.206   5.555   4.004  2.2142 -0.1562 -0.9758
  837MOL0     H10459   2.248   5.626   4.161  1.1836 -0.4475  1.7637
  837MOL0     H10460   2.240   5.422   4.284  3.8113  1.8331 -0.9332
  837MOL0     H10461   2.200   5.330   4.127 -0.6410  1.0841 -0.9291
  837MOL0     H10462   2.035   5.531   4.269  0.4492 -0.1277  0.1617
  837MOL0     H10463   2.001   5.484   4.105 -1.0390  0.8919 -0.4229
  837MOL0     H10464   2.026   5.282   4.339 -0.8027  1.7238  1.4288
  837MOL0     H10465   1.939   5.259   4.190  2.3984 -0.4392  0.5979
  837MOL0     H10466   2.989   5.399   3.721 -3.6608 -1.9898 -0.3973
  837MOL0     H10467   3.143   5.470   3.567  0.9728  1.8349 -0.0203
  837MOL0     H10468   3.143   5.855   3.191  0.2307  1.5209 -1.0348
  837MOL0     H10469   3.262   5.985   3.030  0.2632  0.2630 -1.2368
  837MOL0     H10470   4.968   6.250   1.599  3.1702 -0.5431 -0.6825
  837MOL0     H10471   5.167   6.266   1.676  2.1970  1.4925  2.5645
  837MOL0     H10472   5.601   6.337   1.886 -2.7956  0.5755 -0.0364
  837MOL0     H10473   5.818   6.275   1.987 -1.5691  0.6006 -4.7177
  837MOL0     H10474   6.001   6.151   2.071 -0.5941  0.4247  1.7353
  837MOL0     H10475   5.964   5.978   2.051 -3.7929 -0.5760 -1.0213
  837MOL0     H10476   6.083   6.120   2.291 -0.0596 -1.9554  2.7880
  837MOL0     H10477   6.028   5.949   2.300 -0.6205  0.5935 -0.3429
  837MOL0     H10478   6.283   6.076   2.168  1.5523 -0.7937 -0.1188
  837MOL0     H10479   6.199   5.943   2.079  0.9641  0.9917 -0.5137
  837MOL0     H10480   6.218   5.797   2.278 -1.1632  0.9947 -2.1943
  837MOL0     H10481   6.367   5.843   2.218 -1.0677 -0.4116 -1.6161
  837MOL0     H10482   6.354   6.028   2.613 -1.1085  0.8586 -0.6743
  837MOL0     H10483   5.612   5.945   2.185  0.4739 -1.4252 -0.2194
  837MOL0     H10484   5.413   6.004   2.085  0.4863 -1.0413  3.5089
  838MOL0     O10485   5.161   0.255   4.115 -0.4927  0.0298  0.1261
  838MOL0     C10486   5.181   0.161   4.194  0.5454 -0.1139  0.2147
  838MOL0     O10487   5.120   0.133   4.314  0.4575  0.5073  0.4430
  838MOL0     C10488   5.005   0.201   4.342  0.6211  0.4055 -0.1073
  838MOL0     C10489   5.003   0.338   4.343  0.5161 -0.1243 -0.0541
  838MOL0     C10490   4.894   0.405   4.397  0.7954 -0.0770 -0.4795
  838MOL0     C10491   4.777   0.337   4.434  0.7073  0.7674 -0.0920
  838MOL0     O10492   4.681   0.412   4.494  0.3777 -0.7395 -0.6393
  838MOL0     C10493   4.579   0.339   4.567  0.3025  0.6346 -0.1797
  838MOL0     C10494   4.476   0.428   4.639 -1.0081 -0.1345  0.3765
  838MOL0     C10495   4.353   0.454   4.543 -0.1927 -0.0486 -0.3819
  838MOL0     C10496   4.234   0.520   4.601 -0.6176 -0.2252  0.1279
  838MOL0     C10497   4.165   0.436   4.707 -0.2341  0.7776  0.6358
  838MOL0     C10498   4.039   0.493   4.774  0.4157  0.1869 -0.4488
  838MOL0     C10499   3.986   0.387   4.875 -0.1431 -1.5864 -0.1158
  838MOL0     C10500   3.839   0.426   4.918 -0.0589  1.2612  0.2051
  838MOL0     N10501   3.742   0.434   4.801 -0.2320  0.5230 -0.2981
  838MOL0     C10502   3.703   0.330   4.730 -0.7349 -0.6707  0.9851
  838MOL0     C10503   3.605   0.363   4.653  0.0809 -0.9563 -0.2136
  838MOL0     C10504   3.516   0.266   4.591  0.4917  0.2239 -0.6879
  838MOL0     C10505   3.365   0.277   4.645  0.3339  0.4761 -0.9982
  838MOL0     C10506   3.271   0.214   4.547 -0.2247 -0.0028  0.6821
  838MOL0     C10507   3.127   0.222   4.609 -0.7154  1.0115  1.0768
  838MOL0     O10508   3.027   0.158   4.520 -0.0938  0.1299  0.5743
  838MOL0     C10509   2.895   0.131   4.560 -0.2037  0.2020  0.0333
  838MOL0     C10510   2.809   0.066   4.474 -0.4061  0.0519  0.5601
  838MOL0     C10511   2.676   0.030   4.498  0.9030  0.7808  0.7583
  838MOL0     C10512   2.622   0.052   4.624  0.1351 -0.3489  1.0205
  838MOL0     C10513   2.488   0.000   4.659  0.9068 -1.1210  0.0433
  838MOL0     O10514   2.443  -0.107   4.583  0.2408  0.8497 -0.3079
  838MOL0     C10515   2.324  -0.177   4.599  0.2230  0.1495 -0.3772
  838MOL0     C10516   2.285  -0.260   4.490 -0.2500 -0.0003  0.1612
  838MOL0     C10517   2.164  -0.329   4.486 -0.2707  0.3697  0.5182
  838MOL0     C10518   2.077  -0.319   4.591  1.2392  0.2403 -0.6680
  838MOL0     O10519   1.945  -0.373   4.584 -0.3864  0.3620  1.0581
  838MOL0     C10520   1.908  -0.436   4.459  0.3014  0.0374  0.2546
  838MOL0     C10521   1.774  -0.508   4.477 -0.0548  0.4425  0.0102
  838MOL0     C10522   1.650  -0.414   4.510 -0.2139  0.4660 -0.1972
  838MOL0     C10523   1.527  -0.501   4.549 -0.3852  0.3627 -0.8213
  838MOL0     C10524   1.538  -0.581   4.680  1.0332  0.1228  0.1888
  838MOL0     C10525   1.571  -0.478   4.792  0.3027  0.6865 -0.1018
  838MOL0     C10526   1.540  -0.532   4.931  0.0407 -0.6610  0.2240
  838MOL0     C10527   1.591  -0.417   5.015 -1.1640  0.1516  0.7411
  838MOL0    Cl10528   1.468  -0.290   5.034  0.2840 -0.3738  0.0481
  838MOL0     C10529   2.106  -0.238   4.697 -0.6666 -0.1598  0.6007
  838MOL0     C10530   2.223  -0.161   4.696  1.0678 -0.3972  0.3156
  838MOL0     O10531   2.432   0.054   4.752 -0.2057 -1.0146  0.5044
  838MOL0     C10532   2.704   0.123   4.720  0.1550  0.5187  0.6402
  838MOL0     C10533   2.833   0.169   4.684  0.3410 -0.0728  0.1828
  838MOL0     N10534   3.581   0.500   4.672  0.1251 -0.2939 -0.2515
  838MOL0     N10535   3.676   0.543   4.755  0.6003 -0.2209 -0.1624
  838MOL0     C10536   4.770   0.198   4.406 -0.0054 -0.7551 -0.1763
  838MOL0     C10537   4.886   0.131   4.365 -0.1465 -0.7923 -0.1335
  838MOL0     C10538   5.310   0.088   4.186 -0.2254 -0.2569  1.0717
  838MOL0     C10539   5.363   0.007   4.294  0.1268  0.2196 -0.0153
  838MOL0     C10540   5.476  -0.068   4.271  0.1667  0.4886  0.1951
  838MOL0     C10541   5.559  -0.050   4.154 -0.0394 -0.4628 -0.0629
  838MOL0     O10542   5.674  -0.113   4.118  0.5181  0.2660  0.0605
  838MOL0     C10543   5.720  -0.212   4.205  0.3698  0.7153  0.5222
  838MOL0     C10544   5.817  -0.303   4.122 -0.3751  0.5670  0.8603
  838MOL0     C10545   5.933  -0.224   4.062 -0.0098  0.3467 -0.0086
  838MOL0     C10546   6.005  -0.299   3.943  0.2131  0.7430 -0.9489
  838MOL0     C10547   6.145  -0.235   3.926  0.6746  1.1430  0.4261
  838MOL0     C10548   6.243  -0.168   3.921 -0.7193 -0.6104 -0.1509
  838MOL0     C10549   5.513   0.040   4.055  0.3482  0.1816 -0.7111
  838MOL0     C10550   5.390   0.102   4.066  0.0585 -1.0115  0.0285
  838MOL0     H10551   5.084   0.406   4.318 -1.0768  1.8116 -0.1804
  838MOL0     H10552   4.901   0.511   4.417 -0.9538  0.9992 -4.5045
  838MOL0     H10553   4.611   0.281   4.654 -1.1616  2.2373  1.4843
  838MOL0     H10554   4.526   0.265   4.506 -3.1676  3.0660 -0.4278
  838MOL0     H10555   4.523   0.525   4.658  1.5669 -1.3111  0.4818
  838MOL0     H10556   4.447   0.378   4.732  0.0010 -0.5341  0.4821
  838MOL0     H10557   4.319   0.358   4.502 -0.4658 -0.1875  0.1651
  838MOL0     H10558   4.395   0.509   4.458 -1.1870  4.0622  1.5336
  838MOL0     H10559   4.271   0.618   4.632  4.0031 -1.0673 -2.0091
  838MOL0     H10560   4.169   0.533   4.514 -1.1523  0.7768  0.6582
  838MOL0     H10561   4.235   0.410   4.788  0.1455 -0.1285  0.0320
  838MOL0     H10562   4.146   0.341   4.658  3.8155 -0.3797  0.9245
  838MOL0     H10563   3.961   0.515   4.701  0.0586 -1.9253 -0.7639
  838MOL0     H10564   4.068   0.578   4.837 -0.3294 -1.2417  1.9511
  838MOL0     H10565   3.979   0.292   4.822 -3.9138 -1.3230 -0.4138
  838MOL0     H10566   4.049   0.369   4.963 -0.8494  1.6952  1.2355
  838MOL0     H10567   3.835   0.527   4.960 -1.7744  1.5030 -0.4575
  838MOL0     H10568   3.803   0.365   5.002  1.4719  0.9942  0.7004
  838MOL0     H10569   3.734   0.231   4.761 -0.2184 -0.9784 -0.4293
  838MOL0     H10570   3.560   0.169   4.620 -0.7770 -0.4838 -1.0767
  838MOL0     H10571   3.526   0.274   4.483  0.1462  0.8274 -0.6743
  838MOL0     H10572   3.332   0.378   4.668  0.7154  0.3291  0.2897
  838MOL0     H10573   3.367   0.216   4.736 -3.5610  1.2792 -0.2329
  838MOL0     H10574   3.267   0.257   4.446 -1.6730  0.0990  0.7584
  838MOL0     H10575   3.306   0.112   4.532  0.5609  0.1725  1.2865
  838MOL0     H10576   3.114   0.329   4.628  2.8319  1.6396  0.5779
  838MOL0     H10577   3.122   0.168   4.705 -1.7499  0.7924  0.9217
  838MOL0     H10578   2.854   0.028   4.382 -1.4559 -0.8244  0.3983
  838MOL0     H10579   2.615  -0.018   4.421 -1.3226  1.0356  2.2583
  838MOL0     H10580   2.352  -0.265   4.405  1.9832  3.2279  1.5147
  838MOL0     H10581   2.148  -0.392   4.399 -0.1770  2.3217 -0.9677
  838MOL0     H10582   1.984  -0.508   4.425  0.1831  0.0391 -0.0233
  838MOL0     H10583   1.890  -0.358   4.384  1.4060 -0.0878 -0.1725
  838MOL0     H10584   1.778  -0.581   4.558 -2.2915 -0.3944 -0.5504
  838MOL0     H10585   1.754  -0.560   4.383 -0.3790  0.3146  0.1480
  838MOL0     H10586   1.635  -0.357   4.418 -0.3091  2.5790  1.0591
  838MOL0     H10587   1.679  -0.342   4.587  2.4392 -2.8891  2.2405
  838MOL0     H10588   1.433  -0.446   4.553 -0.7283 -0.1703 -1.3455
  838MOL0     H10589   1.497  -0.568   4.468 -2.5100 -2.0265  1.7339
  838MOL0     H10590   1.609  -0.663   4.668 -0.8369 -1.5505  0.2026
  838MOL0     H10591   1.443  -0.630   4.701  1.3954 -1.2972 -1.2228
  838MOL0     H10592   1.516  -0.384   4.781  0.6043  0.7313 -1.3417
  838MOL0     H10593   1.676  -0.448   4.781  0.3508  0.6008  0.1011
  838MOL0     H10594   1.435  -0.544   4.957  0.4328 -1.8599  1.4019
  838MOL0     H10595   1.598  -0.623   4.951  1.6914  0.2799 -0.0525
  838MOL0     H10596   1.682  -0.365   4.984 -1.6516  2.2885  2.6600
  838MOL0     H10597   1.615  -0.452   5.116  1.0093  0.8687  0.5161
  838MOL0     H10598   2.029  -0.231   4.773 -4.1085 -2.6547 -2.3141
  838MOL0     H10599   2.224  -0.089   4.777  0.1146  1.6419 -1.3758
  838MOL0     H10600   2.662   0.160   4.813 -1.3549 -0.7375  0.4980
  838MOL0     H10601   2.877   0.236   4.757 -2.0291  0.1349  1.5423
  838MOL0     H10602   4.679   0.145   4.435 -1.2809  0.7057 -1.3353
  838MOL0     H10603   4.878   0.023   4.369 -0.7843 -0.7900 -1.0121
  838MOL0     H10604   5.298  -0.015   4.378  0.5257  1.1644  0.5575
  838MOL0     H10605   5.508  -0.134   4.351  2.3809  1.6278  0.3303
  838MOL0     H10606   5.639  -0.275   4.244  1.4003 -1.0555 -0.0746
  838MOL0     H10607   5.779  -0.166   4.285  4.0608 -2.4278 -0.1108
  838MOL0     H10608   5.849  -0.382   4.191 -1.5709 -2.6068 -1.9229
  838MOL0     H10609   5.761  -0.353   4.042 -0.1412  0.0355  1.0251
  838MOL0     H10610   6.013  -0.213   4.136 -1.3157  1.0538  1.3620
  838MOL0     H10611   5.885  -0.132   4.028  0.7062  0.7431  0.0485
  838MOL0     H10612   6.013  -0.405   3.968  1.7112  0.7268 -1.3661
  838MOL0     H10613   5.941  -0.283   3.856 -1.7049 -0.1769  0.2217
  838MOL0     H10614   6.331  -0.108   3.919  0.8871 -2.8333 -2.4596
  838MOL0     H10615   5.560   0.052   3.958  0.2237  0.3741 -0.7481
  838MOL0     H10616   5.362   0.165   3.982  1.0127 -1.6573 -0.7970
  839MOL0     O10617   5.175   7.961   1.463 -0.1617 -0.1060 -0.3949
  839MOL0     C10618   5.080   8.018   1.525  0.5421 -0.4005  0.0854
  839MOL0     O10619   5.073   8.158   1.551  0.1626  0.2240 -0.5218
  839MOL0     C10620   5.187   8.216   1.503  0.3757 -0.1222 -0.8907
  839MOL0     C10621   5.299   8.210   1.588 -0.0681  1.0080 -0.2016
  839MOL0     C10622   5.423   8.275   1.551  0.3569  0.3741  0.0802
  839MOL0     C10623   5.438   8.336   1.427  0.2355  0.6482  0.3029
  839MOL0     O10624   5.559   8.397   1.403 -0.0706  0.1581 -0.5903
  839MOL0     C10625   5.601   8.451   1.275 -0.0224  0.6973 -0.0320
  839MOL0     C10626   5.674   8.342   1.186  0.4457 -0.4354 -0.4963
  839MOL0     C10627   5.729   8.410   1.064 -1.0205 -0.2238  0.0344
  839MOL0     C10628   5.766   8.294   0.969  0.1385  0.1828  0.1097
  839MOL0     C10629   5.858   8.334   0.855 -0.4137  0.0504  0.2630
  839MOL0     C10630   5.907   8.204   0.796 -0.4158 -1.1182  0.4471
  839MOL0     C10631   5.812   8.106   0.733 -0.0403 -0.3860  0.6619
  839MOL0     C10632   5.884   7.983   0.668 -0.0299 -0.3156  0.1177
  839MOL0     N10633   5.800   7.911   0.581 -0.2873 -0.0719  0.9401
  839MOL0     C10634   5.731   7.799   0.615 -0.2396 -0.5270  0.0418
  839MOL0     C10635   5.643   7.778   0.518  0.4080  0.8917  0.2240
  839MOL0     C10636   5.558   7.664   0.501  0.6082 -0.4493 -0.0059
  839MOL0     C10637   5.409   7.692   0.538 -0.3845  0.5379  0.1211
  839MOL0     C10638   5.386   7.724   0.680  1.1927 -0.5212 -0.0852
  839MOL0     C10639   5.233   7.723   0.719 -0.1146  0.1445  0.2459
  839MOL0     O10640   5.149   7.813   0.651  0.4366  0.5060 -0.4201
  839MOL0     C10641   5.010   7.813   0.674 -0.0662  0.3835 -0.5899
  839MOL0     C10642   4.949   7.903   0.583  0.4646  0.1660 -1.0936
  839MOL0     C10643   4.811   7.922   0.597 -0.3851 -0.7726 -0.1673
  839MOL0     C10644   4.733   7.865   0.698  0.4521  0.6495  0.6789
  839MOL0     C10645   4.592   7.903   0.729 -0.4418  0.1931  0.0137
  839MOL0     O10646   4.510   7.825   0.801 -0.3282  0.6008 -0.1141
  839MOL0     C10647   4.391   7.880   0.827  0.4746  0.2812  0.2300
  839MOL0     C10648   4.310   7.880   0.723 -0.4321  0.1140  0.2893
  839MOL0     C10649   4.176   7.925   0.737 -0.4459 -0.1008 -0.5143
  839MOL0     C10650   4.129   7.966   0.866 -0.1046 -0.2962  0.8663
  839MOL0     O10651   4.001   7.994   0.873 -0.2609 -0.0456 -0.3733
  839MOL0     C10652   3.953   8.047   0.997 -0.3931  0.3145  0.1846
  839MOL0     C10653   3.824   8.119   0.976  0.8451  0.1977  0.1026
  839MOL0     C10654   3.799   8.175   1.121  0.9198  0.3123 -0.5861
  839MOL0     C10655   3.681   8.271   1.119 -0.4835 -0.4444 -0.6166
  839MOL0     C10656   3.671   8.353   1.249  0.9025 -0.3224  0.8826
  839MOL0     C10657   3.558   8.456   1.230  0.5469 -0.2058 -0.0040
  839MOL0     C10658   3.436   8.380   1.263  0.3101  0.6164 -0.0775
  839MOL0     C10659   3.318   8.471   1.266 -0.6326 -0.5951 -0.1091
  839MOL0    Cl10660   3.328   8.594   1.383  0.3529  0.2070  0.1500
  839MOL0     C10661   4.220   7.954   0.976 -0.7240  0.3127  0.3729
  839MOL0     C10662   4.354   7.926   0.952  0.7893  0.5034 -0.2526
  839MOL0     O10663   4.563   8.019   0.687 -0.1758 -0.4446  0.3075
  839MOL0     C10664   4.795   7.770   0.788  0.1181 -0.2202 -0.0503
  839MOL0     C10665   4.934   7.743   0.773 -0.8453  0.3775  0.1252
  839MOL0     N10666   5.656   7.876   0.421  0.3898 -0.3226 -0.0092
  839MOL0     N10667   5.750   7.954   0.458 -0.7111 -0.8389 -0.4783
  839MOL0     C10668   5.327   8.342   1.339 -1.2284 -0.0439 -0.2006
  839MOL0     C10669   5.201   8.280   1.383  0.3160  1.0525 -0.5387
  839MOL0     C10670   4.981   7.932   1.591  0.5153 -0.1406  0.6217
  839MOL0     C10671   4.850   7.964   1.585  0.2607  0.1930  0.9511
  839MOL0     C10672   4.742   7.874   1.626 -0.5144 -0.6594  0.9831
  839MOL0     C10673   4.781   7.755   1.693 -0.0604 -0.2698  0.3058
  839MOL0     O10674   4.682   7.669   1.743  0.3277 -0.5229  0.3655
  839MOL0     C10675   4.711   7.578   1.853 -0.0727 -0.0301  0.3048
  839MOL0     C10676   4.683   7.655   1.974 -0.1674 -0.6163 -0.5352
  839MOL0     C10677   4.686   7.578   2.103 -0.2872 -0.5090 -0.0667
  839MOL0     C10678   4.684   7.660   2.226 -0.3136 -0.0679 -0.1612
  839MOL0     C10679   4.816   7.715   2.255  0.0898 -0.6062 -0.3425
  839MOL0     C10680   4.922   7.753   2.305 -0.0235  0.1152 -0.1876
  839MOL0     C10681   4.920   7.726   1.700  0.2316 -0.0943 -1.0111
  839MOL0     C10682   5.021   7.821   1.661  0.5263  0.6144  0.2206
  839MOL0     H10683   5.283   8.159   1.683 -2.1533 -1.4634 -1.7382
  839MOL0     H10684   5.515   8.274   1.608  0.4651  0.5991 -0.0863
  839MOL0     H10685   5.673   8.531   1.293  2.1467 -1.3049  0.6226
  839MOL0     H10686   5.516   8.498   1.225 -0.4499  1.2222  1.1608
  839MOL0     H10687   5.596   8.269   1.163  1.0151 -1.7873  1.5898
  839MOL0     H10688   5.757   8.307   1.248  1.5372 -0.6878 -2.0410
  839MOL0     H10689   5.815   8.473   1.088 -1.8307  0.9385 -0.0221
  839MOL0     H10690   5.650   8.471   1.019 -2.1875  0.4003  2.7649
  839MOL0     H10691   5.803   8.212   1.030 -0.3056 -0.8954 -1.0135
  839MOL0     H10692   5.671   8.265   0.923  0.6842 -0.7964 -0.4405
  839MOL0     H10693   5.946   8.387   0.892 -0.1100  0.5811 -1.1356
  839MOL0     H10694   5.800   8.398   0.788 -1.3991 -1.1848 -0.1001
  839MOL0     H10695   5.962   8.145   0.871  1.3031 -2.4261 -1.7267
  839MOL0     H10696   5.976   8.239   0.720 -1.8603  2.3752  0.5893
  839MOL0     H10697   5.748   8.060   0.809 -0.6868  0.3201  0.5595
  839MOL0     H10698   5.750   8.164   0.663 -0.9482 -1.4036  0.5944
  839MOL0     H10699   5.916   7.912   0.744 -0.7672  0.6845  1.4123
  839MOL0     H10700   5.967   8.025   0.609  0.0990  0.7310  1.0025
  839MOL0     H10701   5.737   7.733   0.701  0.2104 -1.4692 -0.6917
  839MOL0     H10702   5.592   7.576   0.557  2.5762 -0.9958 -1.8940
  839MOL0     H10703   5.563   7.623   0.400 -1.0060 -2.0472  0.5074
  839MOL0     H10704   5.360   7.599   0.507  2.2446 -0.8387 -0.1828
  839MOL0     H10705   5.373   7.783   0.488 -2.7222 -1.1957 -1.5841
  839MOL0     H10706   5.439   7.650   0.741  0.5089 -1.7057 -0.9106
  839MOL0     H10707   5.433   7.822   0.697  1.9812 -1.0948  1.2018
  839MOL0     H10708   5.229   7.731   0.828 -2.2794 -1.0087  0.3172
  839MOL0     H10709   5.192   7.626   0.688 -0.3793 -0.2350  1.7037
  839MOL0     H10710   4.993   7.971   0.512 -0.8706  1.9736 -0.2470
  839MOL0     H10711   4.764   7.987   0.523  0.0919  0.0111  0.2042
  839MOL0     H10712   4.343   7.838   0.629 -0.7141 -0.7718  0.5801
  839MOL0     H10713   4.106   7.913   0.654  0.9950 -0.6499 -1.6917
  839MOL0     H10714   4.028   8.111   1.045  3.1514 -1.9237 -1.9529
  839MOL0     H10715   3.945   7.962   1.066  0.0839  0.7998  0.8606
  839MOL0     H10716   3.738   8.056   0.956 -0.2639  1.0350  1.9850
  839MOL0     H10717   3.839   8.206   0.912  4.9123  0.3947  1.0351
  839MOL0     H10718   3.892   8.212   1.165  2.7926 -3.3751 -1.0627
  839MOL0     H10719   3.767   8.086   1.176 -1.1861  0.2686 -1.7766
  839MOL0     H10720   3.706   8.343   1.040 -0.8044 -2.1638 -2.3786
  839MOL0     H10721   3.588   8.217   1.098 -0.5968 -0.2866 -0.5149
  839MOL0     H10722   3.765   8.408   1.257  2.9499 -2.8507 -2.6148
  839MOL0     H10723   3.660   8.281   1.331  1.7808 -1.5603 -0.0362
  839MOL0     H10724   3.564   8.509   1.134  3.1587  1.1313  0.7901
  839MOL0     H10725   3.572   8.530   1.309  0.5994  0.1333 -0.3310
  839MOL0     H10726   3.418   8.295   1.197 -3.0989  2.1778 -1.4336
  839MOL0     H10727   3.443   8.328   1.359  0.6557 -0.1849 -0.5301
  839MOL0     H10728   3.235   8.408   1.300 -1.3859  0.6941  0.5155
  839MOL0     H10729   3.287   8.512   1.170  2.6970  1.6046 -0.3959
  839MOL0     H10730   4.197   7.978   1.079  2.2266  2.9678  0.5618
  839MOL0     H10731   4.432   7.932   1.028  1.7639  0.6205 -1.2388
  839MOL0     H10732   4.743   7.723   0.871  0.1045 -1.2118 -0.6045
  839MOL0     H10733   4.993   7.686   0.844 -1.2368 -1.5996 -1.0603
  839MOL0     H10734   5.321   8.402   1.249 -0.7465  2.0675  1.1118
  839MOL0     H10735   5.115   8.276   1.316 -0.6830  0.4178  0.7328
  839MOL0     H10736   4.839   8.062   1.539 -1.7515  0.1800  1.2927
  839MOL0     H10737   4.640   7.910   1.633  0.3437  2.2250  0.3504
  839MOL0     H10738   4.809   7.534   1.832  0.3841  1.4761 -0.9009
  839MOL0     H10739   4.633   7.501   1.851  0.1567 -0.2724 -1.7738
  839MOL0     H10740   4.768   7.723   1.985  0.8364 -1.5644 -2.0654
  839MOL0     H10741   4.586   7.705   1.964 -0.5719 -1.3388 -0.2517
  839MOL0     H10742   4.766   7.504   2.117  1.5757  1.9563  4.0363
  839MOL0     H10743   4.594   7.520   2.110 -0.3730 -0.3212  0.3667
  839MOL0     H10744   4.609   7.740   2.234  1.4320  1.4572  2.4559
  839MOL0     H10745   4.652   7.599   2.311 -0.2166 -1.2025 -0.9083
  839MOL0     H10746   5.016   7.778   2.351  1.1289 -3.4947 -0.3258
  839MOL0     H10747   4.962   7.635   1.742  0.7910 -0.9215 -3.2509
  839MOL0     H10748   5.124   7.792   1.678  0.7195  1.1077 -0.0708
  840MOL0     O10749   8.704   7.945   3.865  0.1084 -0.1283 -0.4676
  840MOL0     C10750   8.661   8.013   3.962 -0.3404 -0.2165 -1.1304
  840MOL0     O10751   8.727   8.116   4.015 -0.4160 -0.1557  1.1102
  840MOL0     C10752   8.841   8.156   3.953  0.2057 -0.2634  0.5425
  840MOL0     C10753   8.965   8.113   4.001  0.8804  0.2667 -0.1197
  840MOL0     C10754   9.086   8.149   3.933 -0.1473 -1.0004 -0.1093
  840MOL0     C10755   9.079   8.231   3.819 -0.2565 -1.0301  0.3165
  840MOL0     O10756   9.185   8.265   3.744 -0.3993  0.3769  0.6051
  840MOL0     C10757   9.320   8.259   3.795  0.1258 -0.3765 -0.6181
  840MOL0     C10758   9.403   8.332   3.687 -0.1210  1.0505 -0.4244
  840MOL0     C10759   9.544   8.362   3.738 -0.7882 -0.0834  0.1529
  840MOL0     C10760   9.625   8.407   3.622  0.3999 -0.6223 -0.6783
  840MOL0     C10761   9.769   8.458   3.651 -0.1203 -0.1208 -0.8205
  840MOL0     C10762   9.869   8.459   3.538 -0.3357  0.2557 -0.7696
  840MOL0     C10763   9.999   8.530   3.582  0.0072  0.1989 -0.3000
  840MOL0     C10764  10.114   8.516   3.482 -0.0461 -0.5073  0.1231
  840MOL0     N10765  10.229   8.588   3.537 -0.0624 -0.1445 -0.5224
  840MOL0     C10766  10.336   8.518   3.598  0.6096  0.4575  0.5532
  840MOL0     C10767  10.435   8.606   3.579 -0.0198 -0.1859 -0.2588
  840MOL0     C10768  10.579   8.557   3.608 -0.6648 -0.0998 -0.4628
  840MOL0     C10769  10.600   8.559   3.757 -0.2150  0.2124 -0.1679
  840MOL0     C10770  10.750   8.538   3.789  0.0883 -0.0530 -0.4153
  840MOL0     C10771  10.766   8.524   3.945  0.3094  0.0447 -0.9403
  840MOL0     O10772  10.905   8.521   3.970  0.0674 -0.2041 -0.0086
  840MOL0     C10773  10.958   8.506   4.092 -0.8137 -1.0838 -0.1693
  840MOL0     C10774  11.093   8.520   4.086 -0.9089  0.2683  0.5232
  840MOL0     C10775  11.167   8.501   4.205  0.9776  0.5348  1.1187
  840MOL0     C10776  11.098   8.462   4.321 -0.3032  0.1687 -0.0530
  840MOL0     C10777  11.179   8.416   4.430  0.2082 -0.9630 -0.1152
  840MOL0     O10778  11.298   8.373   4.398  0.0472 -0.7371 -0.2637
  840MOL0     C10779  11.392   8.377   4.497  1.3246  0.2086 -0.4890
  840MOL0     C10780  11.470   8.491   4.515  0.5005 -0.1029  0.3506
  840MOL0     C10781  11.560   8.501   4.616 -0.7315 -0.2664 -0.5721
  840MOL0     C10782  11.568   8.393   4.701  0.2496  0.2646 -0.8845
  840MOL0     O10783  11.656   8.406   4.805 -0.0441  0.1650 -0.1532
  840MOL0     C10784  11.716   8.292   4.867 -0.2950  0.5037  0.2800
  840MOL0     C10785  11.847   8.350   4.928 -0.2520  0.3725 -0.1202
  840MOL0     C10786  11.945   8.227   4.953 -0.6630 -0.4757 -0.2988
  840MOL0     C10787  12.081   8.291   4.983 -0.2494 -0.7765 -0.1867
  840MOL0     C10788  12.178   8.175   5.003 -0.5547  0.2476 -0.0886
  840MOL0     C10789  12.302   8.230   5.088  0.5706  0.0145 -0.0554
  840MOL0     C10790  12.411   8.127   5.095  0.0909  0.1532  0.2782
  840MOL0     C10791  12.547   8.178   5.147  0.0174  0.0915 -0.0824
  840MOL0    Cl10792  12.657   8.258   5.037 -0.4151 -0.3704 -0.1588
  840MOL0     C10793  11.486   8.284   4.689 -0.1863  0.0707  0.3276
  840MOL0     C10794  11.403   8.268   4.581 -0.6671 -0.4025 -1.0694
  840MOL0     O10795  11.123   8.413   4.538  0.6883 -0.0489  0.5380
  840MOL0     C10796  10.957   8.466   4.330  0.1837 -0.8562 -0.0339
  840MOL0     C10797  10.880   8.493   4.214 -0.1868  1.0435 -0.0251
  840MOL0     N10798  10.399   8.730   3.530  0.8961  0.6858 -0.1111
  840MOL0     N10799  10.274   8.718   3.495  0.3568  0.1399 -0.5029
  840MOL0     C10800   8.951   8.274   3.778 -0.1120 -0.2754 -0.5483
  840MOL0     C10801   8.832   8.246   3.851  0.0179 -0.2821 -0.1362
  840MOL0     C10802   8.532   7.977   4.031  0.3868 -0.4845  0.1908
  840MOL0     C10803   8.440   7.895   3.968 -0.6362 -0.2427  0.5650
  840MOL0     C10804   8.312   7.871   4.021 -0.1830  0.8037  0.8512
  840MOL0     C10805   8.276   7.919   4.140 -0.4822  1.1101 -0.6786
  840MOL0     O10806   8.151   7.890   4.196  0.0038  0.5129  0.0721
  840MOL0     C10807   8.103   7.927   4.330  0.1323 -0.3309  0.5978
  840MOL0     C10808   7.973   7.859   4.378 -1.1206 -0.1663  0.6814
  840MOL0     C10809   7.990   7.726   4.451 -0.6582 -0.2169  0.9003
  840MOL0     C10810   7.862   7.694   4.535  0.0732 -0.3264 -0.4936
  840MOL0     C10811   7.744   7.667   4.453 -0.5109  0.0917  0.4680
  840MOL0     C10812   7.656   7.664   4.368 -0.0940  0.9280  0.7409
  840MOL0     C10813   8.366   8.002   4.206  0.4636 -0.0713 -0.9569
  840MOL0     C10814   8.491   8.033   4.148  0.7725 -0.4521 -0.2410
  840MOL0     H10815   8.970   8.044   4.084 -0.7386 -0.2772 -0.4480
  840MOL0     H10816   9.180   8.107   3.967 -1.7917 -2.1154  3.5940
  840MOL0     H10817   9.352   8.157   3.817 -2.0973 -1.0681 -0.3736
  840MOL0     H10818   9.330   8.314   3.889  1.1562  2.4311 -2.2089
  840MOL0     H10819   9.358   8.431   3.673 -1.5693  0.8096  1.9843
  840MOL0     H10820   9.412   8.266   3.600 -0.2867  0.0534  0.3043
  840MOL0     H10821   9.592   8.277   3.788  0.2757  0.5471  0.2311
  840MOL0     H10822   9.531   8.442   3.812  1.1228 -0.1552  0.6288
  840MOL0     H10823   9.629   8.322   3.553 -2.1141 -2.3491  1.1388
  840MOL0     H10824   9.567   8.486   3.574  0.0387  0.0718  0.8390
  840MOL0     H10825   9.819   8.405   3.733 -0.3858  0.5686 -0.1985
  840MOL0     H10826   9.759   8.557   3.698 -0.5187 -0.3081 -0.5057
  840MOL0     H10827   9.823   8.512   3.454 -0.4173 -1.1905 -1.6611
  840MOL0     H10828   9.887   8.354   3.511  4.1091  0.3860  0.7633
  840MOL0     H10829   9.978   8.636   3.595  0.3775  0.2130  0.2172
  840MOL0     H10830  10.035   8.490   3.677 -1.9931 -0.2915  0.3118
  840MOL0     H10831  10.100   8.572   3.388  1.2338 -1.1791 -0.4865
  840MOL0     H10832  10.129   8.409   3.465  0.4317 -0.1279 -2.1745
  840MOL0     H10833  10.337   8.429   3.660  3.2165 -0.0351 -0.0803
  840MOL0     H10834  10.637   8.640   3.566 -1.3713  1.1821  0.9524
  840MOL0     H10835  10.592   8.464   3.553 -3.4114 -0.9878  0.2024
  840MOL0     H10836  10.532   8.493   3.812 -3.1082  3.2089  0.2019
  840MOL0     H10837  10.566   8.658   3.788 -1.0757  0.7758 -2.6407
  840MOL0     H10838  10.779   8.440   3.751 -1.0293 -0.5614  0.0147
  840MOL0     H10839  10.806   8.618   3.739  0.3291  1.7564  2.5162
  840MOL0     H10840  10.721   8.430   3.977 -0.2165  0.6480  0.1227
  840MOL0     H10841  10.725   8.605   4.006  2.2593 -0.2230  0.8481
  840MOL0     H10842  11.149   8.537   3.994 -2.0449 -3.4312 -1.0244
  840MOL0     H10843  11.274   8.489   4.187  0.9914  2.9156 -1.0860
  840MOL0     H10844  11.463   8.573   4.443 -1.8557 -0.0793  0.5301
  840MOL0     H10845  11.634   8.580   4.621  0.6222 -1.2292 -3.2563
  840MOL0     H10846  11.739   8.219   4.788  2.6870  0.8781  0.6758
  840MOL0     H10847  11.651   8.246   4.942  1.1478 -2.2307  0.0119
  840MOL0     H10848  11.815   8.410   5.014  1.5226 -0.2658  1.0280
  840MOL0     H10849  11.890   8.410   4.847 -2.9385  0.8956 -1.2544
  840MOL0     H10850  11.945   8.178   4.855 -0.9626  0.0508 -0.5652
  840MOL0     H10851  11.918   8.162   5.038  2.2878  0.8401  1.7926
  840MOL0     H10852  12.107   8.366   4.907 -1.5322 -1.2541 -1.1329
  840MOL0     H10853  12.060   8.338   5.080  1.2236 -2.1317  0.8356
  840MOL0     H10854  12.220   8.138   4.910 -2.1987  1.0898 -1.2228
  840MOL0     H10855  12.129   8.090   5.053  1.6646 -0.5849  0.7769
  840MOL0     H10856  12.273   8.262   5.188  1.1702 -2.0374  0.8140
  840MOL0     H10857  12.345   8.317   5.036  1.6651  0.8728  2.1441
  840MOL0     H10858  12.388   8.051   5.171  3.0676 -1.5808 -0.3869
  840MOL0     H10859  12.425   8.067   5.005  1.9563  0.5798  0.2486
  840MOL0     H10860  12.596   8.091   5.192 -0.5812 -0.2047  0.0094
  840MOL0     H10861  12.532   8.249   5.228  0.1979  1.2082 -1.0070
  840MOL0     H10862  11.493   8.199   4.756  1.3520 -1.6358 -1.8596
  840MOL0     H10863  11.351   8.174   4.563 -1.6639  0.3619 -2.4452
  840MOL0     H10864  10.905   8.449   4.424  1.0105 -0.9415  0.4260
  840MOL0     H10865  10.772   8.496   4.215 -0.2402  0.3059 -1.4216
  840MOL0     H10866   8.938   8.320   3.681 -3.6076 -2.7285 -1.4744
  840MOL0     H10867   8.736   8.282   3.815  1.1567 -0.6829 -3.9957
  840MOL0     H10868   8.466   7.841   3.878  0.1087  1.0136 -0.0082
  840MOL0     H10869   8.243   7.801   3.975 -2.1691  3.0542  0.2154
  840MOL0     H10870   8.076   8.033   4.320 -1.3919 -0.7865 -0.4666
  840MOL0     H10871   8.183   7.901   4.400 -0.0942 -0.6852  0.7217
  840MOL0     H10872   7.933   7.926   4.455 -1.5593 -1.7019  1.8423
  840MOL0     H10873   7.903   7.852   4.294 -0.0390  0.8009 -0.3340
  840MOL0     H10874   8.070   7.743   4.523 -0.8986  0.2581  1.0602
  840MOL0     H10875   8.024   7.642   4.390 -0.7649  1.0286 -0.9585
  840MOL0     H10876   7.887   7.608   4.597 -0.5896  1.5684  2.6559
  840MOL0     H10877   7.834   7.783   4.592 -3.7105 -1.4826 -0.2796
  840MOL0     H10878   7.585   7.657   4.288  1.3252  1.2597 -0.5744
  840MOL0     H10879   8.345   8.036   4.307 -0.5387 -1.6371 -0.6119
  840MOL0     H10880   8.554   8.107   4.195 -1.3705  1.6567 -0.4571
  841MOL0     O10881   3.683   2.809   7.349 -0.2371  0.0753 -0.0043
  841MOL0     C10882   3.759   2.773   7.435 -0.0568  0.1308  0.4561
  841MOL0     O10883   3.724   2.739   7.555 -0.0500  0.0083  0.2084
  841MOL0     C10884   3.592   2.758   7.588 -0.3160  0.5074 -0.5027
  841MOL0     C10885   3.492   2.660   7.562  0.4803  0.3196 -0.5413
  841MOL0     C10886   3.359   2.681   7.617 -0.2373 -0.9353  0.3033
  841MOL0     C10887   3.325   2.800   7.684  0.1455  0.5099  0.2755
  841MOL0     O10888   3.200   2.808   7.729 -0.0730 -0.5478 -0.6082
  841MOL0     C10889   3.160   2.920   7.820 -0.3125 -0.2115 -0.1592
  841MOL0     C10890   3.004   2.919   7.848  0.4659  0.7792  0.4150
  841MOL0     C10891   2.979   3.033   7.949  0.0203 -0.2934  0.1743
  841MOL0     C10892   2.843   3.029   8.031  0.5628 -0.1681  0.2460
  841MOL0     C10893   2.734   3.008   7.928 -0.1516  0.8708 -1.1701
  841MOL0     C10894   2.592   3.006   7.985 -0.7099  0.0296  0.1126
  841MOL0     C10895   2.491   3.019   7.859 -0.0035  0.2400 -0.0090
  841MOL0     C10896   2.467   3.163   7.807  0.4215  0.1275 -0.3618
  841MOL0     N10897   2.390   3.158   7.683 -0.6367 -1.2346  0.6721
  841MOL0     C10898   2.262   3.123   7.664  0.2866 -0.0931  0.1786
  841MOL0     C10899   2.226   3.138   7.535  0.1597  0.6035  1.0136
  841MOL0     C10900   2.090   3.120   7.479  0.1716  0.4966  0.5633
  841MOL0     C10901   1.991   3.232   7.515  0.3866 -0.2471 -0.2418
  841MOL0     C10902   1.943   3.229   7.659 -0.1050 -0.6143 -0.5044
  841MOL0     C10903   1.834   3.322   7.710  0.1602 -0.7311 -0.3456
  841MOL0     O10904   1.714   3.310   7.637 -0.3352 -0.1460 -0.4756
  841MOL0     C10905   1.619   3.409   7.635  0.1804  0.7249 -0.0859
  841MOL0     C10906   1.621   3.538   7.695 -0.0169 -0.5246 -0.3639
  841MOL0     C10907   1.505   3.606   7.687 -0.0036 -0.0339  0.3090
  841MOL0     C10908   1.378   3.563   7.629 -0.1606  0.4072 -0.1110
  841MOL0     C10909   1.251   3.642   7.628 -0.0995  0.4444  0.2205
  841MOL0     O10910   1.133   3.582   7.581  0.8750  0.0174  0.1971
  841MOL0     C10911   1.015   3.649   7.605 -0.4152 -0.0408 -0.5556
  841MOL0     C10912   0.909   3.630   7.522 -0.5228  0.1788 -0.3158
  841MOL0     C10913   0.779   3.662   7.561 -0.1165  0.5937  0.2796
  841MOL0     C10914   0.750   3.719   7.683  0.3615 -0.1986  0.5772
  841MOL0     O10915   0.623   3.764   7.703 -0.1451 -0.3126  0.4386
  841MOL0     C10916   0.579   3.820   7.826  0.5517  0.4697  0.2399
  841MOL0     C10917   0.421   3.848   7.821  0.8531 -0.1759 -0.0523
  841MOL0     C10918   0.346   3.721   7.845 -0.0112  0.0555 -0.0740
  841MOL0     C10919   0.192   3.750   7.808  0.2778  0.4563  0.3972
  841MOL0     C10920   0.122   3.622   7.839 -0.0702 -0.1365 -0.0957
  841MOL0     C10921  -0.024   3.635   7.822 -0.2972  0.0495  0.1448
  841MOL0     C10922  -0.100   3.511   7.823 -0.9767 -0.6769 -0.0660
  841MOL0     C10923  -0.226   3.518   7.903  0.0876 -0.4721  0.0190
  841MOL0    Cl10924  -0.321   3.637   7.823  0.0471 -0.1547  0.1977
  841MOL0     C10925   0.849   3.749   7.770  0.1964  0.2653  0.1585
  841MOL0     C10926   0.980   3.703   7.734 -0.0275  0.3106 -0.6699
  841MOL0     O10927   1.259   3.758   7.680  0.3476  1.3464  0.5794
  841MOL0     C10928   1.386   3.440   7.569 -0.3326  0.5173 -0.5186
  841MOL0     C10929   1.505   3.366   7.567 -0.0038 -0.4136  1.0321
  841MOL0     N10930   2.341   3.185   7.474 -0.2462 -1.0827 -0.1016
  841MOL0     N10931   2.437   3.203   7.563 -0.5076 -1.1197 -0.0445
  841MOL0     C10932   3.424   2.899   7.700  0.3421 -0.0199  1.1563
  841MOL0     C10933   3.561   2.868   7.669  0.7386 -0.2556 -0.4534
  841MOL0     C10934   3.903   2.767   7.403 -0.2516  0.7296  0.6940
  841MOL0     C10935   3.989   2.741   7.507  0.0071  0.1970 -0.1480
  841MOL0     C10936   4.126   2.737   7.498 -0.0140  0.3807  0.3905
  841MOL0     C10937   4.180   2.757   7.373  0.3341 -0.6577 -0.0934
  841MOL0     O10938   4.312   2.748   7.347 -0.3689 -0.5240  0.7903
  841MOL0     C10939   4.401   2.677   7.439  0.2212 -0.2758 -0.0342
  841MOL0     C10940   4.356   2.524   7.429  1.3719  0.1711 -0.6213
  841MOL0     C10941   4.437   2.426   7.508 -0.3029 -0.3485  0.1605
  841MOL0     C10942   4.553   2.373   7.424  0.4875 -0.1558 -0.3603
  841MOL0     C10943   4.510   2.287   7.312 -0.3230  0.5824 -0.5312
  841MOL0     C10944   4.465   2.217   7.235 -0.8557  1.1539 -0.1254
  841MOL0     C10945   4.088   2.791   7.267  0.1500 -1.0294 -0.3346
  841MOL0     C10946   3.952   2.799   7.278  0.4660 -0.6816 -0.1292
  841MOL0     H10947   3.523   2.567   7.517 -1.5332 -1.8632  2.2398
  841MOL0     H10948   3.271   2.618   7.608 -1.4942  0.7137  0.8094
  841MOL0     H10949   3.192   3.012   7.771  2.0165  1.1533  3.4586
  841MOL0     H10950   3.207   2.909   7.919  1.6134  0.3424 -0.9713
  841MOL0     H10951   2.978   2.822   7.890  0.7040  0.8686  0.7768
  841MOL0     H10952   2.954   2.934   7.752  0.6843 -2.4477 -0.3067
  841MOL0     H10953   2.976   3.116   7.877  0.0746  0.0561  0.5688
  841MOL0     H10954   3.073   3.038   8.005 -0.4748 -0.2842  1.0172
  841MOL0     H10955   2.842   2.950   8.107  0.1506  2.1914  2.8422
  841MOL0     H10956   2.818   3.120   8.085 -2.4186 -0.6552 -0.1784
  841MOL0     H10957   2.751   2.912   7.878 -0.3924  0.2552 -0.1008
  841MOL0     H10958   2.739   3.084   7.849  2.0324 -0.0218 -1.9525
  841MOL0     H10959   2.575   3.093   8.049  1.5106  0.4906  0.1604
  841MOL0     H10960   2.576   2.910   8.035 -0.1252 -0.9623 -1.5190
  841MOL0     H10961   2.526   2.965   7.771 -0.1017  0.0532  0.0665
  841MOL0     H10962   2.392   2.985   7.888 -0.3704  1.7106  0.5465
  841MOL0     H10963   2.558   3.211   7.771  1.2937 -1.7803 -0.8655
  841MOL0     H10964   2.407   3.224   7.875 -2.3413  0.4549 -2.8783
  841MOL0     H10965   2.182   3.080   7.725 -1.0012 -0.5721 -1.7657
  841MOL0     H10966   2.055   3.032   7.534 -0.8336  1.3226  1.2739
  841MOL0     H10967   2.093   3.114   7.369  0.8193 -0.3943  0.6230
  841MOL0     H10968   1.909   3.219   7.443  0.7734  2.4721 -1.2998
  841MOL0     H10969   2.025   3.336   7.508 -2.3607  0.9891  2.4882
  841MOL0     H10970   1.911   3.125   7.675 -3.0181  0.3186  0.2564
  841MOL0     H10971   2.027   3.252   7.725 -1.7459  2.5767  0.6742
  841MOL0     H10972   1.874   3.423   7.699  2.4716 -1.5670 -0.1189
  841MOL0     H10973   1.820   3.307   7.817 -1.2183 -1.0625 -0.5536
  841MOL0     H10974   1.706   3.593   7.733 -2.6279  3.9768 -0.1977
  841MOL0     H10975   1.498   3.710   7.716  2.1375 -0.4064  2.4183
  841MOL0     H10976   0.927   3.584   7.425  0.2685  0.9146 -0.5309
  841MOL0     H10977   0.719   3.650   7.471  5.2824  0.1287 -3.7940
  841MOL0     H10978   0.643   3.909   7.831  1.2626  0.0190 -0.6369
  841MOL0     H10979   0.606   3.757   7.911  1.0338 -0.7963 -0.8283
  841MOL0     H10980   0.394   3.884   7.722 -1.5526 -2.5116 -0.3445
  841MOL0     H10981   0.402   3.924   7.898  1.9923  0.4807 -0.3882
  841MOL0     H10982   0.350   3.685   7.948 -3.0299 -1.7971 -0.5019
  841MOL0     H10983   0.396   3.643   7.787 -0.3571 -1.9352  2.1502
  841MOL0     H10984   0.146   3.835   7.859  2.3564  1.2892  0.9882
  841MOL0     H10985   0.192   3.772   7.701  2.5731  2.7032  0.7625
  841MOL0     H10986   0.134   3.598   7.945 -2.1909 -2.4335 -0.2764
  841MOL0     H10987   0.158   3.535   7.783 -2.0716  0.3102 -2.2502
  841MOL0     H10988  -0.035   3.689   7.728 -1.3891  3.5043  2.0475
  841MOL0     H10989  -0.059   3.702   7.902  1.8447  0.1806  1.0383
  841MOL0     H10990  -0.137   3.486   7.723 -2.0929  2.4880 -0.5726
  841MOL0     H10991  -0.031   3.436   7.862  4.8838  3.9623 -0.0403
  841MOL0     H10992  -0.196   3.547   8.004 -0.4824 -0.0134  0.0587
  841MOL0     H10993  -0.280   3.423   7.899 -2.9819  1.1636  0.0044
  841MOL0     H10994   0.815   3.788   7.866 -1.3106  1.7247 -0.9181
  841MOL0     H10995   1.063   3.708   7.804 -1.1058 -0.0393  0.6777
  841MOL0     H10996   1.299   3.403   7.516  0.0144 -2.0366  0.5600
  841MOL0     H10997   1.508   3.265   7.525 -1.3283 -0.0803  0.0727
  841MOL0     H10998   3.410   2.992   7.755 -2.3669  1.4304 -1.5877
  841MOL0     H10999   3.622   2.958   7.673 -1.3366  1.2902 -1.5467
  841MOL0     H11000   3.954   2.734   7.610 -1.1927  1.0072 -0.4767
  841MOL0     H11001   4.179   2.725   7.592  1.0993  2.1176  0.0237
  841MOL0     H11002   4.389   2.719   7.539 -2.0258  2.6169 -1.3388
  841MOL0     H11003   4.504   2.688   7.403  0.5608 -0.7865  0.7566
  841MOL0     H11004   4.253   2.525   7.465  1.5738  0.0428 -0.0175
  841MOL0     H11005   4.349   2.487   7.327 -1.1053 -0.7454 -0.1698
  841MOL0     H11006   4.365   2.349   7.536  2.5103 -2.6045  1.7098
  841MOL0     H11007   4.478   2.482   7.592  1.2413 -2.8800  1.2062
  841MOL0     H11008   4.619   2.453   7.390 -1.1417  1.4106 -0.0356
  841MOL0     H11009   4.610   2.313   7.495  0.5446  0.1288 -0.1641
  841MOL0     H11010   4.443   2.149   7.155  1.4011  1.3469 -0.9815
  841MOL0     H11011   4.137   2.796   7.170 -2.9742 -2.2487 -2.1174
  841MOL0     H11012   3.896   2.841   7.195  2.7330  0.9933 -0.9086
  842MOL0     O11013   2.493   2.978   6.324 -0.3600 -0.2260  0.0988
  842MOL0     C11014   2.488   2.956   6.202  0.9999  0.3128 -0.2052
  842MOL0     O11015   2.392   2.999   6.119  0.1756 -1.4190 -0.5725
  842MOL0     C11016   2.278   3.048   6.172 -1.1456  1.2103 -0.4584
  842MOL0     C11017   2.243   3.182   6.165 -0.1476  0.3942  0.0517
  842MOL0     C11018   2.128   3.223   6.222 -0.4962  0.3360  0.2952
  842MOL0     C11019   2.039   3.134   6.288 -0.6105  0.3959 -1.1886
  842MOL0     O11020   1.912   3.174   6.329 -0.3754 -0.2771 -0.2600
  842MOL0     C11021   1.894   3.312   6.360  0.7894  0.0100  0.1718
  842MOL0     C11022   1.754   3.342   6.428  0.3088 -0.4756  0.0362
  842MOL0     C11023   1.632   3.331   6.327  0.1244 -0.2338 -0.1872
  842MOL0     C11024   1.611   3.440   6.214 -0.9330  0.0945 -0.7459
  842MOL0     C11025   1.528   3.399   6.102 -1.1151 -0.2421  0.5893
  842MOL0     C11026   1.538   3.505   5.979 -0.4865  1.0586  0.2564
  842MOL0     C11027   1.470   3.449   5.847 -0.1108 -1.0346  0.3612
  842MOL0     C11028   1.489   3.553   5.741  0.1649  0.0017  0.8267
  842MOL0     N11029   1.427   3.684   5.773  0.0935 -0.1500 -0.4624
  842MOL0     C11030   1.307   3.719   5.815 -0.1807  0.0068 -0.2288
  842MOL0     C11031   1.310   3.851   5.840  0.3465  0.1422  0.2554
  842MOL0     C11032   1.196   3.931   5.890  0.5299  0.8311  0.6096
  842MOL0     C11033   1.156   4.034   5.780  0.0325  0.1766 -1.5589
  842MOL0     C11034   1.033   4.102   5.832 -0.1437 -1.5835  0.4573
  842MOL0     C11035   1.007   4.230   5.749  0.3824 -0.2937 -0.1864
  842MOL0     O11036   0.885   4.294   5.804 -0.7421 -0.8596 -0.5742
  842MOL0     C11037   0.761   4.250   5.772 -0.4713  0.0365 -0.2410
  842MOL0     C11038   0.741   4.143   5.685 -0.7805 -0.6958 -0.5152
  842MOL0     C11039   0.604   4.110   5.660 -0.7082  0.1172  1.1241
  842MOL0     C11040   0.501   4.174   5.730  0.6729  0.5953  0.9768
  842MOL0     C11041   0.362   4.132   5.707  0.3477  0.2164  1.3130
  842MOL0     O11042   0.271   4.232   5.714 -0.3113 -0.7022 -0.4881
  842MOL0     C11043   0.135   4.217   5.696  0.3475 -0.7350  0.4259
  842MOL0     C11044   0.079   4.119   5.605  0.0217 -0.3851  0.2791
  842MOL0     C11045  -0.058   4.099   5.592 -0.0663  0.3320  0.8112
  842MOL0     C11046  -0.151   4.178   5.659 -1.1052  0.1007 -0.6699
  842MOL0     O11047  -0.287   4.173   5.643  0.5433 -0.4330  0.9713
  842MOL0     C11048  -0.346   4.047   5.581  0.1870  0.6405  0.5589
  842MOL0     C11049  -0.498   4.054   5.578 -0.4776  0.1205 -0.1045
  842MOL0     C11050  -0.565   4.088   5.710 -0.1381  0.6679 -0.1307
  842MOL0     C11051  -0.699   4.150   5.680  0.7185  0.6920  0.0651
  842MOL0     C11052  -0.765   4.193   5.812  0.1169  0.1520 -0.0560
  842MOL0     C11053  -0.917   4.239   5.775 -0.7693 -0.2444  0.1305
  842MOL0     C11054  -0.993   4.238   5.907 -0.0124  0.2730 -0.0845
  842MOL0     C11055  -1.144   4.219   5.893 -0.1025 -0.5030 -0.3105
  842MOL0    Cl11056  -1.192   4.060   5.822  0.3576 -0.1683  0.2304
  842MOL0     C11057  -0.098   4.279   5.745 -0.3932  0.7691  0.1747
  842MOL0     C11058   0.040   4.305   5.759  0.7740 -0.0529 -0.1246
  842MOL0     O11059   0.335   4.013   5.684  0.7327 -0.3825  0.1163
  842MOL0     C11060   0.526   4.279   5.818  0.0417  0.3391 -0.1110
  842MOL0     C11061   0.658   4.314   5.843  0.4362  0.1115  0.5075
  842MOL0     N11062   1.428   3.906   5.792 -0.8585 -0.1293  0.0273
  842MOL0     N11063   1.494   3.802   5.746  0.1022 -0.5761 -1.0726
  842MOL0     C11064   2.069   2.999   6.293  0.3909  0.6921 -0.5923
  842MOL0     C11065   2.193   2.956   6.233  0.8399 -0.7591  0.3159
  842MOL0     C11066   2.607   2.905   6.137 -0.6277 -0.1171  0.7706
  842MOL0     C11067   2.612   2.910   5.996  0.2741  0.0482  0.0514
  842MOL0     C11068   2.727   2.886   5.925  0.0101 -1.0954 -0.1064
  842MOL0     C11069   2.852   2.860   5.987 -0.3475  0.1870 -0.1362
  842MOL0     O11070   2.964   2.848   5.902 -0.3149  0.7346 -0.1496
  842MOL0     C11071   3.090   2.840   5.970  0.3416 -0.2971 -0.2132
  842MOL0     C11072   3.120   2.696   5.995  0.1716  0.0658  0.3118
  842MOL0     C11073   3.256   2.690   6.064 -0.5896 -0.0856 -1.2615
  842MOL0     C11074   3.381   2.684   5.973  0.1694 -0.2185  0.2052
  842MOL0     C11075   3.387   2.546   5.907 -0.5335 -0.4363 -0.4283
  842MOL0     C11076   3.399   2.428   5.886  0.4720 -0.1591  0.1991
  842MOL0     C11077   2.847   2.842   6.134  0.1472 -0.0691 -0.2046
  842MOL0     C11078   2.718   2.868   6.208 -0.9252  0.5165  1.2397
  842MOL0     H11079   2.313   3.255   6.128  0.8249  1.7044  4.0253
  842MOL0     H11080   2.103   3.329   6.224 -0.9140  0.2327  1.7297
  842MOL0     H11081   1.902   3.374   6.270  0.3586 -0.9008 -0.5064
  842MOL0     H11082   1.972   3.340   6.431 -0.9052  1.1833  1.6423
  842MOL0     H11083   1.746   3.438   6.479  1.4923 -1.0136  1.3043
  842MOL0     H11084   1.749   3.259   6.500  0.5934  0.6010  1.3344
  842MOL0     H11085   1.543   3.325   6.389  0.5447 -1.6771  0.3269
  842MOL0     H11086   1.641   3.233   6.280  2.1907 -0.6841  1.0180
  842MOL0     H11087   1.581   3.534   6.262  1.0962  0.3351  0.1676
  842MOL0     H11088   1.714   3.462   6.183 -0.6394  0.7044  0.5617
  842MOL0     H11089   1.431   3.396   6.153 -2.7602 -2.9688 -2.3359
  842MOL0     H11090   1.547   3.298   6.062  1.5065  0.7604 -0.9926
  842MOL0     H11091   1.645   3.524   5.962 -0.1619 -1.8721 -1.5153
  842MOL0     H11092   1.496   3.597   6.022  0.1562  0.3196  2.6329
  842MOL0     H11093   1.517   3.358   5.807  1.6609  0.7404 -1.8462
  842MOL0     H11094   1.365   3.424   5.867 -0.5646  0.6025  0.1275
  842MOL0     H11095   1.440   3.525   5.647 -2.6999  0.0299  2.2095
  842MOL0     H11096   1.597   3.566   5.729 -0.0928  1.2482 -0.5382
  842MOL0     H11097   1.234   3.640   5.827 -0.2747 -0.0595 -1.1433
  842MOL0     H11098   1.237   3.985   5.976  0.4860  0.3847  0.9161
  842MOL0     H11099   1.120   3.857   5.916 -0.1143  0.8737 -1.0075
  842MOL0     H11100   1.139   3.988   5.683 -1.3306  0.6481 -1.5620
  842MOL0     H11101   1.236   4.108   5.773 -0.5645  1.1709  0.9742
  842MOL0     H11102   0.950   4.032   5.833  0.2620 -2.0929  1.9794
  842MOL0     H11103   1.045   4.141   5.934 -3.9527 -1.6223  1.0571
  842MOL0     H11104   0.980   4.216   5.644  1.4064 -0.5480 -0.4264
  842MOL0     H11105   1.089   4.301   5.763  0.8790 -1.1641  1.6485
  842MOL0     H11106   0.827   4.093   5.642  0.8995 -1.2627  3.1751
  842MOL0     H11107   0.589   4.019   5.602  0.6752  0.0109  0.8974
  842MOL0     H11108   0.149   4.063   5.544 -1.5265 -2.6977  0.4770
  842MOL0     H11109  -0.087   4.014   5.530  0.8544  1.2381 -0.9462
  842MOL0     H11110  -0.322   3.963   5.647  1.8930 -0.5316 -1.4151
  842MOL0     H11111  -0.295   4.033   5.486  0.9480  0.7272  0.9470
  842MOL0     H11112  -0.546   3.968   5.531  0.5579  0.0108 -0.9903
  842MOL0     H11113  -0.524   4.128   5.502 -2.0656 -0.5756 -0.2887
  842MOL0     H11114  -0.503   4.165   5.756  1.8503 -0.4983 -0.7202
  842MOL0     H11115  -0.584   4.000   5.773 -1.7255 -2.1669 -4.1278
  842MOL0     H11116  -0.679   4.233   5.612  1.8820 -0.1978 -0.7132
  842MOL0     H11117  -0.751   4.067   5.632  3.4987 -0.9298 -0.3522
  842MOL0     H11118  -0.701   4.267   5.862 -1.2043  1.4364 -0.2058
  842MOL0     H11119  -0.777   4.095   5.859 -1.4849  0.5008  0.3014
  842MOL0     H11120  -0.965   4.166   5.708  0.2148  0.4187 -1.3697
  842MOL0     H11121  -0.925   4.335   5.723 -1.5122 -0.2218  0.2821
  842MOL0     H11122  -0.963   4.151   5.966 -0.0061 -1.4715 -2.5259
  842MOL0     H11123  -0.982   4.325   5.973 -1.0893 -1.2603  2.2844
  842MOL0     H11124  -1.177   4.304   5.833  0.2201  1.2140  1.8171
  842MOL0     H11125  -1.189   4.230   5.993 -2.8428  1.1977 -1.6210
  842MOL0     H11126  -0.161   4.348   5.801 -0.0014  0.6746  0.7362
  842MOL0     H11127   0.074   4.385   5.824 -0.3640  1.4819 -1.3177
  842MOL0     H11128   0.451   4.329   5.878  2.4063  1.5597  2.0116
  842MOL0     H11129   0.682   4.378   5.926 -2.9880  0.9557  1.0082
  842MOL0     H11130   2.003   2.927   6.341 -3.4850  4.8403  1.0849
  842MOL0     H11131   2.237   2.857   6.230  4.5878  0.6873  1.2133
  842MOL0     H11132   2.523   2.938   5.941 -0.6501  2.1005  2.4023
  842MOL0     H11133   2.714   2.881   5.818 -0.1891 -0.7310 -0.1005
  842MOL0     H11134   3.087   2.903   6.059 -0.7255 -1.5384  0.6796
  842MOL0     H11135   3.166   2.878   5.902  0.1043 -1.4546 -1.1546
  842MOL0     H11136   3.057   2.655   6.075  2.8774 -1.6020  1.7418
  842MOL0     H11137   3.137   2.636   5.905  3.9075  1.6855 -0.2649
  842MOL0     H11138   3.253   2.600   6.126  0.7117  0.8583  0.2627
  842MOL0     H11139   3.270   2.769   6.138  0.2415  0.0923 -1.5929
  842MOL0     H11140   3.375   2.763   5.898 -0.2379  0.7399  1.2093
  842MOL0     H11141   3.468   2.688   6.039 -0.9313  3.6076  1.7463
  842MOL0     H11142   3.406   2.325   5.860  0.3297  0.1578 -1.1473
  842MOL0     H11143   2.935   2.823   6.193 -0.3176  1.5480  1.0767
  842MOL0     H11144   2.710   2.857   6.316 -0.6049 -0.2306  1.1918
  843MOL0     O11145   0.914   5.883  10.797  0.0251  0.1705  0.3956
  843MOL0     C11146   0.918   5.990  10.860  0.2265  0.9177 -0.0705
  843MOL0     O11147   0.831   6.036  10.955  0.1923  0.1019  0.4136
  843MOL0     C11148   0.735   5.940  10.999 -0.2888  0.0428  0.0286
  843MOL0     C11149   0.745   5.902  11.139  0.0256  0.2687  0.5406
  843MOL0     C11150   0.645   5.821  11.195  0.2182  0.0462  0.5811
  843MOL0     C11151   0.538   5.769  11.115 -0.8283 -0.3660  0.1823
  843MOL0     O11152   0.436   5.693  11.153  0.2085  0.1041 -0.3910
  843MOL0     C11153   0.417   5.676  11.294  0.0102 -0.3119 -0.5653
  843MOL0     C11154   0.313   5.577  11.345 -0.3702  0.2222  0.9097
  843MOL0     C11155   0.292   5.580  11.496 -0.4649 -0.2721  0.1411
  843MOL0     C11156   0.178   5.478  11.518 -0.3725  0.5149 -0.3202
  843MOL0     C11157   0.128   5.470  11.655  0.2227 -0.7846  0.2212
  843MOL0     C11158   0.035   5.589  11.685 -0.8528  0.1695  0.0641
  843MOL0     C11159  -0.011   5.586  11.831  0.6432 -0.4435  0.3064
  843MOL0     C11160  -0.090   5.461  11.886 -0.4544  0.0129  0.1362
  843MOL0     N11161  -0.210   5.441  11.812 -0.1146 -0.7546  0.4524
  843MOL0     C11162  -0.296   5.334  11.846 -0.4857  0.2156  0.2420
  843MOL0     C11163  -0.417   5.372  11.779  0.4183 -0.0149  0.1397
  843MOL0     C11164  -0.536   5.272  11.778 -0.0047 -0.2244 -0.2123
  843MOL0     C11165  -0.653   5.324  11.851  0.1519  1.5128 -0.4121
  843MOL0     C11166  -0.623   5.355  11.998  0.3426  0.3843  0.9091
  843MOL0     C11167  -0.749   5.325  12.075 -0.0338  0.1845 -0.7100
  843MOL0     O11168  -0.778   5.192  12.071 -0.8194  0.1774  0.6245
  843MOL0     C11169  -0.892   5.150  12.135  0.2860 -0.0887 -0.6005
  843MOL0     C11170  -0.924   5.015  12.116  0.0781  0.5987  0.2296
  843MOL0     C11171  -1.042   4.962  12.174 -0.8761  0.6984 -0.5295
  843MOL0     C11172  -1.138   5.044  12.234 -0.2588 -1.0684 -0.1369
  843MOL0     C11173  -1.267   4.990  12.275 -0.0468 -0.4887  0.0295
  843MOL0     O11174  -1.328   5.057  12.384 -0.0142 -0.1037 -0.0057
  843MOL0     C11175  -1.462   5.042  12.389 -0.5901  0.5761 -0.0974
  843MOL0     C11176  -1.509   4.975  12.504  0.0402 -0.1005  0.2986
  843MOL0     C11177  -1.648   4.959  12.521  0.9565 -0.4818  0.1720
  843MOL0     C11178  -1.741   5.007  12.417 -0.1619  0.2530 -0.6673
  843MOL0     O11179  -1.865   4.968  12.438  0.8007 -0.1494  0.5478
  843MOL0     C11180  -1.966   5.065  12.422 -0.3663  0.6085 -1.3700
  843MOL0     C11181  -2.104   4.994  12.440  0.4601  0.3757 -0.6203
  843MOL0     C11182  -2.118   4.951  12.590  0.5957 -0.3751  0.6871
  843MOL0     C11183  -2.263   4.931  12.629  0.6555  0.2287 -0.5863
  843MOL0     C11184  -2.282   4.922  12.782  0.0152  1.0349 -0.3965
  843MOL0     C11185  -2.191   4.807  12.850  0.3895 -0.1636 -0.0713
  843MOL0     C11186  -2.213   4.811  12.996 -0.3508 -0.3631 -0.4941
  843MOL0     C11187  -2.179   4.941  13.074 -0.2553  0.2400 -0.8272
  843MOL0    Cl11188  -2.146   4.881  13.247 -0.0183  0.3174  0.6206
  843MOL0     C11189  -1.687   5.073  12.301  1.1459  0.5524  0.8352
  843MOL0     C11190  -1.550   5.097  12.290 -0.1413 -0.3946  0.0825
  843MOL0     O11191  -1.310   4.882  12.222 -0.1564  0.0444 -0.1663
  843MOL0     C11192  -1.108   5.183  12.253 -0.4477  0.0844  0.3645
  843MOL0     C11193  -0.983   5.227  12.211  0.1847 -0.2627 -0.4091
  843MOL0     N11194  -0.405   5.501  11.732  0.4262  0.0657 -0.5615
  843MOL0     N11195  -0.284   5.536  11.744  0.1553  0.2265 -0.3522
  843MOL0     C11196   0.536   5.806  10.974  0.3331  0.6899 -0.3940
  843MOL0     C11197   0.634   5.886  10.919 -0.3099  0.6167 -0.8947
  843MOL0     C11198   1.034   6.068  10.838 -0.7764 -0.6182  0.3713
  843MOL0     C11199   1.121   6.052  10.730 -0.7987 -0.5225  0.3193
  843MOL0     C11200   1.241   6.141  10.722 -0.0975  1.0351 -0.3099
  843MOL0     C11201   1.273   6.230  10.822 -0.6911 -0.4735  0.1947
  843MOL0     O11202   1.383   6.312  10.820  0.1510  0.1917 -0.2589
  843MOL0     C11203   1.475   6.315  10.710 -1.0303 -0.6141  0.4665
  843MOL0     C11204   1.577   6.202  10.718  0.8829 -0.6068  0.7806
  843MOL0     C11205   1.691   6.229  10.617 -0.5753 -0.5901  0.0681
  843MOL0     C11206   1.654   6.242  10.470  0.1251  0.1208 -0.8235
  843MOL0     C11207   1.607   6.114  10.423  0.5159 -0.0667 -0.0815
  843MOL0     C11208   1.563   6.011  10.391 -1.0812 -0.8984  0.4940
  843MOL0     C11209   1.181   6.255  10.920  1.1560  1.1135 -0.8287
  843MOL0     C11210   1.066   6.179  10.933  0.1692  0.2483  0.5953
  843MOL0     H11211   0.834   5.929  11.195  0.5197  1.2872 -0.6756
  843MOL0     H11212   0.658   5.775  11.293  0.8804 -2.6920 -0.7119
  843MOL0     H11213   0.407   5.772  11.347  0.5731 -1.4293  1.6928
  843MOL0     H11214   0.511   5.641  11.339 -0.6878 -1.9701 -0.3515
  843MOL0     H11215   0.345   5.479  11.308  0.9922  1.0321 -0.1814
  843MOL0     H11216   0.220   5.594  11.290  0.8103 -0.0940 -1.3153
  843MOL0     H11217   0.257   5.678  11.531  2.4443  1.1131 -0.5562
  843MOL0     H11218   0.380   5.539  11.545 -0.8738 -1.6761 -0.2598
  843MOL0     H11219   0.088   5.500  11.460 -0.2236  1.4366 -0.2098
  843MOL0     H11220   0.221   5.379  11.502 -1.8341 -0.4628  1.3295
  843MOL0     H11221   0.212   5.465  11.726  0.5145  0.6263 -0.0036
  843MOL0     H11222   0.072   5.376  11.663  2.2187 -1.9788  1.0029
  843MOL0     H11223  -0.049   5.572  11.617  0.3111 -0.7104 -1.1980
  843MOL0     H11224   0.085   5.682  11.656 -0.0277 -0.4030 -0.3782
  843MOL0     H11225   0.075   5.586  11.898  0.4139 -7.0282  1.2975
  843MOL0     H11226  -0.077   5.671  11.853 -2.3671 -1.5946 -3.0671
  843MOL0     H11227  -0.113   5.464  11.993  3.1207  0.6763  0.9965
  843MOL0     H11228  -0.011   5.386  11.878  0.0163  0.4368  0.7080
  843MOL0     H11229  -0.280   5.242  11.902 -0.2341  0.2572  0.2392
  843MOL0     H11230  -0.492   5.181  11.819  3.4090  0.6743 -1.5185
  843MOL0     H11231  -0.567   5.257  11.674  1.2585  0.4966 -0.7221
  843MOL0     H11232  -0.734   5.256  11.827  1.8696 -0.3911 -1.1211
  843MOL0     H11233  -0.684   5.414  11.797 -1.0925 -0.4776 -3.2212
  843MOL0     H11234  -0.541   5.297  12.040 -0.2520 -0.1131  1.4101
  843MOL0     H11235  -0.602   5.462  12.005 -1.0882  0.7675 -0.1588
  843MOL0     H11236  -0.829   5.377  12.022  1.1061 -0.8933 -3.6628
  843MOL0     H11237  -0.734   5.365  12.176  2.0565 -4.2882  1.0184
  843MOL0     H11238  -0.858   4.952  12.058  0.8206  2.5192 -1.1064
  843MOL0     H11239  -1.049   4.854  12.167  2.6888  0.0889  2.4927
  843MOL0     H11240  -1.443   4.918  12.569  1.6192 -3.2112 -3.6069
  843MOL0     H11241  -1.690   4.911  12.609  0.0081  2.0510  1.1811
  843MOL0     H11242  -1.976   5.099  12.319 -3.2364 -2.5342 -2.2928
  843MOL0     H11243  -1.951   5.144  12.497 -1.5867  0.3410 -0.8233
  843MOL0     H11244  -2.118   4.908  12.374  0.3946  0.7030 -1.0396
  843MOL0     H11245  -2.181   5.070  12.421 -0.4219 -0.3180  0.0866
  843MOL0     H11246  -2.078   5.025  12.660  2.1225  0.3870 -0.9207
  843MOL0     H11247  -2.063   4.859  12.609 -1.0573 -1.3675  0.9003
  843MOL0     H11248  -2.324   5.013  12.590  0.9790  0.2514 -1.0524
  843MOL0     H11249  -2.300   4.839  12.584 -1.5242  0.3892  0.7387
  843MOL0     H11250  -2.385   4.910  12.814 -0.5906  2.0847 -1.8438
  843MOL0     H11251  -2.254   5.020  12.821  0.5676  0.7388 -0.0230
  843MOL0     H11252  -2.086   4.828  12.829  1.0651 -1.6117  1.6044
  843MOL0     H11253  -2.230   4.711  12.814 -1.4740  0.6310 -0.3179
  843MOL0     H11254  -2.316   4.789  13.026 -0.2154  1.2270  1.2595
  843MOL0     H11255  -2.157   4.731  13.045 -0.7258  0.8990  2.1629
  843MOL0     H11256  -2.267   5.005  13.080 -2.1202 -2.1401 -1.1695
  843MOL0     H11257  -2.099   4.994  13.022  0.1809  2.2992  1.7531
  843MOL0     H11258  -1.759   5.115  12.231 -0.8372 -0.4649  2.1691
  843MOL0     H11259  -1.518   5.157  12.205 -0.6099 -2.5796 -1.7392
  843MOL0     H11260  -1.183   5.253  12.289 -1.4414  0.8579 -2.8206
  843MOL0     H11261  -0.964   5.333  12.229  2.6693 -0.7461  0.2098
  843MOL0     H11262   0.446   5.772  10.925 -1.0669  3.2547  0.2388
  843MOL0     H11263   0.635   5.920  10.816  0.7075  2.2232 -0.3797
  843MOL0     H11264   1.103   5.972  10.658 -1.0354  1.5476 -2.0358
  843MOL0     H11265   1.300   6.128  10.632 -0.0609  1.5363 -0.3591
  843MOL0     H11266   1.525   6.413  10.712 -1.7131 -0.2503  0.2839
  843MOL0     H11267   1.426   6.317  10.613 -2.4223 -2.0979  1.0992
  843MOL0     H11268   1.612   6.197  10.821 -0.0878 -5.6924  1.1277
  843MOL0     H11269   1.528   6.107  10.697 -1.3061  0.5125  0.4652
  843MOL0     H11270   1.771   6.155  10.633  1.3137  1.8679  3.0949
  843MOL0     H11271   1.731   6.330  10.624 -0.7101 -0.3682 -1.8391
  843MOL0     H11272   1.575   6.317  10.455 -0.5302 -0.3846 -0.0228
  843MOL0     H11273   1.742   6.257  10.407  0.8733 -2.3731 -0.4770
  843MOL0     H11274   1.520   5.917  10.361  1.2167 -1.6975 -0.5739
  843MOL0     H11275   1.193   6.343  10.982 -1.6760  2.5598 -2.1882
  843MOL0     H11276   0.996   6.215  11.008 -3.6050 -0.1769 -2.4108
  844MOL0     O11277   1.202   9.740   3.379 -0.4881 -0.4193  0.3454
  844MOL0     C11278   1.297   9.676   3.417 -0.6277  0.4629 -0.2611
  844MOL0     O11279   1.296   9.572   3.502 -0.1884  0.0788 -0.5236
  844MOL0     C11280   1.171   9.519   3.539 -0.0381 -0.1065 -0.5836
  844MOL0     C11281   1.129   9.542   3.670 -0.0197  0.3722 -0.4834
  844MOL0     C11282   1.009   9.493   3.719 -0.1034  0.2799  0.5204
  844MOL0     C11283   0.930   9.409   3.637 -0.0195  0.0321 -0.1621
  844MOL0     O11284   0.817   9.369   3.706  0.5165  0.6728  0.7351
  844MOL0     C11285   0.726   9.288   3.630  0.0190  0.6715 -0.9858
  844MOL0     C11286   0.590   9.283   3.705 -0.1405 -0.4487 -0.2619
  844MOL0     C11287   0.465   9.254   3.621  0.4557  0.3900  0.0478
  844MOL0     C11288   0.336   9.266   3.707 -0.1700 -1.2207  0.1833
  844MOL0     C11289   0.212   9.206   3.633  0.4836  0.5834  0.4500
  844MOL0     C11290   0.162   9.290   3.515 -0.4235  0.2549 -0.0074
  844MOL0     C11291   0.127   9.432   3.548 -0.8060 -0.5292 -0.6562
  844MOL0     C11292   0.032   9.446   3.669  0.7817 -0.5885  1.0478
  844MOL0     N11293  -0.007   9.586   3.676  0.0308 -0.2645 -0.6324
  844MOL0     C11294  -0.142   9.628   3.705 -0.4793  0.2935 -0.9925
  844MOL0     C11295  -0.132   9.764   3.735  0.7139  0.2467  1.0499
  844MOL0     C11296  -0.245   9.864   3.761 -0.0658  0.0057  0.4888
  844MOL0     C11297  -0.381   9.842   3.690 -1.0310  0.7235 -0.8373
  844MOL0     C11298  -0.482   9.955   3.726  0.0555 -0.6666 -0.7790
  844MOL0     C11299  -0.616   9.961   3.656 -0.2635  0.8627 -0.3999
  844MOL0     O11300  -0.699  10.055   3.722  0.1570 -0.2658  0.1082
  844MOL0     C11301  -0.837  10.045   3.741 -0.5274  0.0937 -0.2477
  844MOL0     C11302  -0.905  10.135   3.818  0.2543 -0.1915 -0.0784
  844MOL0     C11303  -1.040  10.128   3.837  0.0626  1.0435 -0.0064
  844MOL0     C11304  -1.114  10.016   3.793 -0.5362 -0.1937  0.2059
  844MOL0     C11305  -1.261   9.995   3.826  0.3047  0.0742  0.4612
  844MOL0     O11306  -1.323  10.110   3.873  0.8820  0.5830 -0.0580
  844MOL0     C11307  -1.454  10.109   3.911  0.6086 -0.6480 -0.0691
  844MOL0     C11308  -1.565  10.156   3.838  0.2028 -0.1063 -0.0390
  844MOL0     C11309  -1.695  10.141   3.882 -0.3027  0.2329 -0.5216
  844MOL0     C11310  -1.715  10.087   4.012 -0.7285 -0.3103 -0.6812
  844MOL0     O11311  -1.849  10.046   4.037 -0.7282 -0.4961  0.2136
  844MOL0     C11312  -1.877   9.968   4.154 -0.5890  0.7781 -0.6007
  844MOL0     C11313  -1.905  10.043   4.291 -0.5278  0.3805 -1.1273
  844MOL0     C11314  -1.990  10.174   4.262 -0.3834 -0.7576  0.8320
  844MOL0     C11315  -2.130  10.138   4.217  0.3729 -0.8065 -1.4395
  844MOL0     C11316  -2.213  10.265   4.198 -0.3570 -0.2877 -0.2502
  844MOL0     C11317  -2.351  10.229   4.155 -0.4070  0.8936  0.2574
  844MOL0     C11318  -2.446  10.347   4.153  0.2397 -0.0879  0.4905
  844MOL0     C11319  -2.593  10.308   4.147 -0.0656 -0.8777 -1.1367
  844MOL0    Cl11320  -2.619  10.247   4.318  0.4608  0.0257 -0.4600
  844MOL0     C11321  -1.602  10.065   4.098 -0.4474 -0.7611  0.8781
  844MOL0     C11322  -1.474  10.068   4.040  0.1449  0.6104 -0.1006
  844MOL0     O11323  -1.319   9.888   3.789  0.2693 -0.1141  0.2629
  844MOL0     C11324  -1.056   9.944   3.691  0.0341 -0.6448 -0.6788
  844MOL0     C11325  -0.914   9.945   3.676  0.2663  0.1036 -0.0864
  844MOL0     N11326  -0.003   9.799   3.706 -0.5547  1.5389 -0.2387
  844MOL0     N11327   0.072   9.695   3.676  0.1354  0.2267 -0.1166
  844MOL0     C11328   0.971   9.383   3.510  0.2812  0.0601 -0.7745
  844MOL0     C11329   1.090   9.436   3.460 -0.5937 -0.6048  0.4773
  844MOL0     C11330   1.428   9.734   3.388  0.0658  0.3447 -0.1195
  844MOL0     C11331   1.538   9.711   3.476 -0.5423 -0.5768  0.0453
  844MOL0     C11332   1.655   9.790   3.455 -0.3712 -0.1091  0.2353
  844MOL0     C11333   1.662   9.891   3.354  0.1189 -0.8299  0.3068
  844MOL0     O11334   1.765   9.969   3.318 -0.2302 -0.0544  0.5526
  844MOL0     C11335   1.882   9.966   3.404 -0.6592 -0.2836 -0.3044
  844MOL0     C11336   1.974  10.076   3.355  0.3958  0.4350  0.4654
  844MOL0     C11337   1.907  10.206   3.387 -0.6516  0.1046 -0.0151
  844MOL0     C11338   2.008  10.322   3.396  0.4345  0.6570  0.1127
  844MOL0     C11339   2.062  10.346   3.266 -0.1035 -0.0251  0.5880
  844MOL0     C11340   2.105  10.380   3.160  0.3763 -0.0622  1.0055
  844MOL0     C11341   1.551   9.905   3.269 -0.0722 -0.2214 -0.1940
  844MOL0     C11342   1.440   9.821   3.278  0.5152  0.3922  0.2888
  844MOL0     H11343   1.202   9.595   3.730  0.1202 -0.0917 -0.2399
  844MOL0     H11344   0.983   9.518   3.821  4.5372  1.7054  1.6086
  844MOL0     H11345   0.772   9.190   3.613  3.0260  1.7083  0.3898
  844MOL0     H11346   0.708   9.334   3.533  2.4941  0.0779 -1.8016
  844MOL0     H11347   0.573   9.384   3.745 -0.1719 -1.1924  1.7486
  844MOL0     H11348   0.613   9.217   3.789  2.1796  1.3067  0.5733
  844MOL0     H11349   0.459   9.158   3.569 -0.7072 -0.0594  0.9559
  844MOL0     H11350   0.461   9.335   3.547 -1.0289  3.1594  2.8945
  844MOL0     H11351   0.351   9.206   3.797  0.5677 -2.9886 -1.0616
  844MOL0     H11352   0.317   9.371   3.732  1.0419 -1.2215  1.1974
  844MOL0     H11353   0.125   9.194   3.698 -1.3935  2.0021 -1.6395
  844MOL0     H11354   0.222   9.100   3.608 -3.5619  0.5883 -2.2337
  844MOL0     H11355   0.063   9.249   3.493 -0.5803 -0.8218  2.3953
  844MOL0     H11356   0.225   9.287   3.425  0.0089 -0.4909  0.3075
  844MOL0     H11357   0.217   9.491   3.566 -1.2303 -0.2994  0.9103
  844MOL0     H11358   0.082   9.473   3.457  0.2351 -0.5434 -1.1795
  844MOL0     H11359   0.082   9.417   3.762  0.9273  1.6591  1.7278
  844MOL0     H11360  -0.055   9.382   3.656  0.5611 -0.0849 -0.0891
  844MOL0     H11361  -0.231   9.566   3.707 -2.8222  3.4519 -0.5380
  844MOL0     H11362  -0.208   9.960   3.725 -0.5172  0.0152  0.0412
  844MOL0     H11363  -0.267   9.872   3.868  2.4073 -0.3257  1.0837
  844MOL0     H11364  -0.414   9.738   3.701  2.1897 -0.2129  1.0731
  844MOL0     H11365  -0.360   9.847   3.583  0.1985 -2.1467 -0.8330
  844MOL0     H11366  -0.494   9.956   3.834  2.1542 -3.2359 -0.4021
  844MOL0     H11367  -0.440  10.050   3.690  0.4146 -0.4094  0.3061
  844MOL0     H11368  -0.666   9.864   3.653  0.4027  0.5209 -0.7987
  844MOL0     H11369  -0.593   9.991   3.553 -0.8567 -0.7238 -1.0276
  844MOL0     H11370  -0.840  10.208   3.866 -0.3350  1.0317 -1.0701
  844MOL0     H11371  -1.090  10.206   3.893  0.2576  0.6972  0.6630
  844MOL0     H11372  -1.560  10.199   3.738  0.7199 -2.1259 -0.9439
  844MOL0     H11373  -1.776  10.175   3.819 -0.2912  1.9161  0.3385
  844MOL0     H11374  -1.812   9.884   4.179 -1.3969 -0.5878 -2.7392
  844MOL0     H11375  -1.971   9.925   4.118  0.2627 -1.7320  0.0203
  844MOL0     H11376  -1.820  10.062   4.358 -2.0442 -2.2626  1.8117
  844MOL0     H11377  -1.972   9.984   4.353 -0.6626  0.8448 -0.8356
  844MOL0     H11378  -1.941  10.229   4.181  0.0579 -1.5715  0.5398
  844MOL0     H11379  -1.983  10.233   4.354  2.6080  2.2667 -1.1180
  844MOL0     H11380  -2.131  10.069   4.132  1.0179 -2.0679 -0.4720
  844MOL0     H11381  -2.170  10.079   4.300 -0.4912  1.5238 -0.1173
  844MOL0     H11382  -2.163  10.341   4.137  4.2110 -0.9733  2.1688
  844MOL0     H11383  -2.215  10.310   4.298  4.3440  3.0671 -1.3283
  844MOL0     H11384  -2.390  10.143   4.211 -2.0674  2.5306  1.7254
  844MOL0     H11385  -2.347  10.201   4.049 -2.1107 -0.0119  0.4003
  844MOL0     H11386  -2.440  10.403   4.247 -0.6053  0.0120  0.4919
  844MOL0     H11387  -2.421  10.413   4.070 -2.1333  0.6335  0.2666
  844MOL0     H11388  -2.612  10.236   4.067 -0.1581 -0.5885 -1.3776
  844MOL0     H11389  -2.645  10.403   4.130 -1.6805 -1.6146 -0.4897
  844MOL0     H11390  -1.609  10.022   4.197 -0.5577 -1.5517  0.5320
  844MOL0     H11391  -1.403  10.014   4.101  0.5043 -2.4601 -2.9521
  844MOL0     H11392  -1.112   9.874   3.631  0.0317 -1.4866  0.2810
  844MOL0     H11393  -0.874   9.871   3.608 -0.5989  0.8428 -1.4613
  844MOL0     H11394   0.922   9.313   3.443 -0.1505 -1.1888  0.7881
  844MOL0     H11395   1.126   9.407   3.362 -1.4210  1.8524 -0.6360
  844MOL0     H11396   1.538   9.648   3.564  3.2673 -0.8523 -0.0216
  844MOL0     H11397   1.731   9.778   3.532 -1.9603  0.6324  1.9869
  844MOL0     H11398   1.943   9.876   3.396 -1.4028 -0.8338  0.1523
  844MOL0     H11399   1.862   9.971   3.512 -2.0705 -1.4255 -0.4774
  844MOL0     H11400   2.070  10.078   3.407 -0.0239 -0.0791  1.2756
  844MOL0     H11401   1.989  10.070   3.247 -0.6751  0.0798  0.3264
  844MOL0     H11402   1.848  10.209   3.479 -0.4415  3.6978  0.1575
  844MOL0     H11403   1.843  10.224   3.300  0.9750  3.9579 -0.6534
  844MOL0     H11404   1.960  10.418   3.421  0.5382  1.0733 -1.1949
  844MOL0     H11405   2.089  10.309   3.468  1.6205 -1.6212 -1.5155
  844MOL0     H11406   2.132  10.402   3.059 -1.9465  4.6420  1.1334
  844MOL0     H11407   1.549   9.982   3.193  3.6944  1.6686  1.3601
  844MOL0     H11408   1.364   9.835   3.202  2.1837 -0.1880 -1.5626
  845MOL0     O11409   2.742   0.915   2.717  0.0976  0.2763  0.6032
  845MOL0     C11410   2.798   1.025   2.707  0.6406 -0.5542  0.6352
  845MOL0     O11411   2.748   1.141   2.767  0.1715 -0.4175 -0.1405
  845MOL0     C11412   2.644   1.125   2.846  0.8762  0.3717  0.2537
  845MOL0     C11413   2.608   1.030   2.940 -0.3592 -0.1844 -0.0423
  845MOL0     C11414   2.480   1.033   2.998  0.2076 -0.4383  0.6216
  845MOL0     C11415   2.392   1.132   2.976  0.0253  0.6700 -0.3359
  845MOL0     O11416   2.275   1.115   3.041 -0.0676  0.2877  0.4280
  845MOL0     C11417   2.174   1.037   2.969  0.2020  0.3553 -0.5134
  845MOL0     C11418   2.056   1.122   2.949  1.4621 -0.6227  0.3328
  845MOL0     C11419   1.983   1.175   3.078  0.3672 -0.2158 -0.2255
  845MOL0     C11420   1.909   1.313   3.063  0.0800 -0.4612 -0.0052
  845MOL0     C11421   1.866   1.391   3.195  0.4695 -0.4480 -0.0151
  845MOL0     C11422   1.796   1.293   3.285  0.3204  0.1845 -0.7283
  845MOL0     C11423   1.724   1.363   3.402 -1.0509  0.5579  0.2649
  845MOL0     C11424   1.598   1.278   3.446  0.1478  0.4088  0.2932
  845MOL0     N11425   1.485   1.302   3.351  0.0671 -0.2133 -0.0485
  845MOL0     C11426   1.452   1.228   3.238 -0.2301  0.1121 -0.3644
  845MOL0     C11427   1.339   1.286   3.181 -0.4968  0.1803 -0.2666
  845MOL0     C11428   1.267   1.255   3.049 -0.0786  0.1944 -0.1144
  845MOL0     C11429   1.196   1.116   3.053  0.2282 -0.1377 -0.0961
  845MOL0     C11430   1.158   1.077   2.904 -0.2715 -0.2726 -0.7647
  845MOL0     C11431   1.068   0.953   2.916 -1.1968 -0.3683 -0.3309
  845MOL0     O11432   0.938   1.001   2.965 -0.0121 -0.6154  0.8024
  845MOL0     C11433   0.829   0.927   2.947 -0.3498 -0.1078 -0.0371
  845MOL0     C11434   0.826   0.783   2.919 -0.4627  0.2051  0.4672
  845MOL0     C11435   0.704   0.710   2.902 -0.3226  0.0078  0.4491
  845MOL0     C11436   0.581   0.782   2.916 -0.0896  0.3562 -0.6982
  845MOL0     C11437   0.450   0.715   2.919  0.2179 -0.1377 -0.1125
  845MOL0     O11438   0.337   0.793   2.918 -0.3330 -0.1053 -0.0544
  845MOL0     C11439   0.216   0.727   2.929 -0.6095  0.3336 -0.1347
  845MOL0     C11440   0.178   0.604   2.869  0.1664  0.2914  0.0469
  845MOL0     C11441   0.044   0.569   2.876 -0.2096  0.0837 -0.3864
  845MOL0     C11442  -0.050   0.650   2.947 -0.2812  0.3060 -0.1115
  845MOL0     O11443  -0.177   0.616   2.957 -0.5456  0.2999 -0.6592
  845MOL0     C11444  -0.275   0.695   2.893 -0.9441 -0.0167  0.0141
  845MOL0     C11445  -0.370   0.744   3.000  0.0211  0.0706  0.5869
  845MOL0     C11446  -0.453   0.628   3.053 -0.1597 -0.2816 -0.6847
  845MOL0     C11447  -0.585   0.663   3.132  0.3612  0.5037 -0.1364
  845MOL0     C11448  -0.645   0.526   3.165  0.3477  0.2902  0.6475
  845MOL0     C11449  -0.787   0.537   3.238 -0.9099  0.7049 -0.2831
  845MOL0     C11450  -0.908   0.533   3.148  0.4493 -0.0427  0.4850
  845MOL0     C11451  -0.956   0.392   3.121  0.4693  0.0090  0.7891
  845MOL0    Cl11452  -1.089   0.391   3.002 -0.1458 -0.3353 -0.2667
  845MOL0     C11453  -0.010   0.767   3.003 -0.2658  0.1504  0.6143
  845MOL0     C11454   0.123   0.807   2.992  0.7430  0.1203 -0.5017
  845MOL0     O11455   0.455   0.590   2.926 -0.6647 -0.1281 -0.2762
  845MOL0     C11456   0.590   0.923   2.935  0.1029 -1.1894  0.0302
  845MOL0     C11457   0.710   0.989   2.941  0.4599 -0.1026  0.5375
  845MOL0     N11458   1.307   1.390   3.261 -0.0636 -0.2060  0.3777
  845MOL0     N11459   1.393   1.404   3.358 -0.2058 -0.2329 -0.6633
  845MOL0     C11460   2.420   1.238   2.893 -0.5261 -0.6256  0.1030
  845MOL0     C11461   2.547   1.235   2.823  0.8073  0.0625 -0.7180
  845MOL0     C11462   2.923   1.020   2.626 -0.8196 -0.7633 -0.0552
  845MOL0     C11463   2.973   0.894   2.568 -0.0548 -0.2242 -0.0629
  845MOL0     C11464   3.101   0.894   2.501  0.0555 -0.2216  0.0731
  845MOL0     C11465   3.177   1.000   2.496  0.4793 -0.2931  0.1878
  845MOL0     O11466   3.307   0.992   2.453 -0.1534  0.3660 -0.6219
  845MOL0     C11467   3.393   1.106   2.452 -0.2017  0.1108 -0.7458
  845MOL0     C11468   3.505   1.074   2.348  0.1618  0.5874  0.6256
  845MOL0     C11469   3.587   1.205   2.313  0.2525  0.0005  0.4763
  845MOL0     C11470   3.653   1.270   2.435 -0.0970  0.1412 -0.8510
  845MOL0     C11471   3.763   1.184   2.486  0.1030  0.0950 -0.2084
  845MOL0     C11472   3.847   1.108   2.534 -0.6738 -0.2008 -0.0138
  845MOL0     C11473   3.130   1.117   2.560  0.2573 -0.4372 -0.8075
  845MOL0     C11474   3.006   1.128   2.623  0.0490  0.3468 -0.4530
  845MOL0     H11475   2.669   0.947   2.973 -1.5181 -1.2562 -0.5317
  845MOL0     H11476   2.442   0.950   3.057  2.3363 -1.3141  0.8606
  845MOL0     H11477   2.140   0.958   3.036  0.7339  1.1708  0.7545
  845MOL0     H11478   2.214   1.002   2.873  0.6974 -0.2586 -0.0971
  845MOL0     H11479   1.981   1.061   2.897  1.0141 -0.7660  1.1295
  845MOL0     H11480   2.081   1.212   2.892  3.8937 -0.3271  1.7399
  845MOL0     H11481   2.067   1.174   3.148  0.5075  2.0781 -0.2698
  845MOL0     H11482   1.907   1.101   3.105 -2.6842  2.5747 -0.4690
  845MOL0     H11483   1.974   1.385   3.012  0.3995  1.3068  2.6988
  845MOL0     H11484   1.816   1.288   3.011  1.7660 -4.7887 -1.4307
  845MOL0     H11485   1.807   1.478   3.167 -0.0010 -1.4518 -2.3353
  845MOL0     H11486   1.954   1.430   3.247 -1.2953  2.5991  0.9565
  845MOL0     H11487   1.853   1.222   3.344  1.8514  2.4535  0.6965
  845MOL0     H11488   1.726   1.239   3.220  1.8292 -1.6485 -0.8814
  845MOL0     H11489   1.802   1.380   3.477  0.1294  2.2153 -1.2658
  845MOL0     H11490   1.691   1.464   3.375  1.3228  1.6548  1.1912
  845MOL0     H11491   1.571   1.303   3.549  3.9467  0.7113  1.3529
  845MOL0     H11492   1.633   1.175   3.443 -0.3717  0.2455 -1.1330
  845MOL0     H11493   1.516   1.150   3.199  0.3539 -0.3325  1.3984
  845MOL0     H11494   1.338   1.242   2.967 -1.7600  0.7201 -1.7154
  845MOL0     H11495   1.184   1.321   3.020 -0.1214  0.5244  0.7296
  845MOL0     H11496   1.109   1.123   3.119  0.4317  2.1137  0.0270
  845MOL0     H11497   1.263   1.049   3.108  0.0811  1.5549  2.3453
  845MOL0     H11498   1.106   1.156   2.848 -0.2899 -0.3733 -0.8897
  845MOL0     H11499   1.249   1.052   2.849 -0.0632 -4.3185  1.1042
  845MOL0     H11500   1.112   0.877   2.981 -3.5485  0.9849  3.1153
  845MOL0     H11501   1.057   0.908   2.816  0.2256 -0.9910 -0.2341
  845MOL0     H11502   0.920   0.729   2.928  0.0131  0.4424 -2.2342
  845MOL0     H11503   0.708   0.603   2.883 -1.6136  0.3308 -2.2662
  845MOL0     H11504   0.259   0.550   2.821 -0.0611 -0.1396  0.1491
  845MOL0     H11505   0.012   0.488   2.812  1.1228 -1.1893  0.5009
  845MOL0     H11506  -0.325   0.642   2.811 -1.2254  1.4687 -0.8136
  845MOL0     H11507  -0.225   0.779   2.845 -0.5737  1.5500  2.9378
  845MOL0     H11508  -0.441   0.818   2.964 -2.1786 -1.2441  1.9846
  845MOL0     H11509  -0.314   0.788   3.083  0.8873 -0.0738  0.0938
  845MOL0     H11510  -0.385   0.564   3.110 -0.3643 -1.0352 -1.2691
  845MOL0     H11511  -0.484   0.570   2.966 -1.7688  1.5348 -1.4034
  845MOL0     H11512  -0.558   0.709   3.228 -0.0335 -0.7514  0.5957
  845MOL0     H11513  -0.658   0.728   3.083 -1.1982 -0.9981  0.0959
  845MOL0     H11514  -0.570   0.477   3.228  2.2997  2.5768  0.2582
  845MOL0     H11515  -0.659   0.481   3.066 -0.8981  1.6438  0.1763
  845MOL0     H11516  -0.800   0.629   3.296 -2.3127 -0.3026  1.0837
  845MOL0     H11517  -0.783   0.446   3.299  3.6247 -0.8987 -2.4784
  845MOL0     H11518  -0.988   0.598   3.184  0.0099 -1.1390  1.5726
  845MOL0     H11519  -0.890   0.566   3.045  0.6616 -3.7681 -0.8313
  845MOL0     H11520  -0.988   0.354   3.219 -3.0486 -0.2407 -0.3150
  845MOL0     H11521  -0.877   0.328   3.082  0.6338  0.5237  0.2733
  845MOL0     H11522  -0.089   0.820   3.054 -0.2346 -1.2938  2.2332
  845MOL0     H11523   0.161   0.898   3.039 -0.0730 -0.1429  0.7221
  845MOL0     H11524   0.497   0.978   2.950 -0.4640 -2.2737  0.6651
  845MOL0     H11525   0.710   1.098   2.945 -0.4338 -0.0066 -1.3026
  845MOL0     H11526   2.348   1.317   2.878  1.7883  1.8128  1.0667
  845MOL0     H11527   2.567   1.312   2.749 -3.4690  2.1489  0.0073
  845MOL0     H11528   2.920   0.801   2.581 -0.3848 -0.0711 -0.3047
  845MOL0     H11529   3.154   0.804   2.471 -0.5901  0.4866 -3.6913
  845MOL0     H11530   3.433   1.118   2.553 -1.3128 -1.2698 -0.1093
  845MOL0     H11531   3.337   1.194   2.421 -2.4653  0.2143  2.9927
  845MOL0     H11532   3.572   0.999   2.391  1.0472  2.2684  2.2721
  845MOL0     H11533   3.455   1.027   2.262 -0.3180  0.8381  0.7610
  845MOL0     H11534   3.509   1.273   2.276  0.7953  0.4993  0.2243
  845MOL0     H11535   3.660   1.175   2.236  0.0196  0.8758 -0.1038
  845MOL0     H11536   3.701   1.367   2.416  2.0076 -0.7351 -0.2571
  845MOL0     H11537   3.585   1.268   2.521 -0.0117 -1.8915 -0.7873
  845MOL0     H11538   3.930   1.057   2.579 -1.2894 -0.5969  0.7003
  845MOL0     H11539   3.188   1.209   2.557 -1.6464  0.8311 -0.6296
  845MOL0     H11540   2.977   1.209   2.690 -0.0822  0.1558 -0.2757
  846MOL0     O11541   7.262   2.529  10.156 -0.3138 -1.1670 -0.4209
  846MOL0     C11542   7.224   2.644  10.155  0.5513 -0.3597  0.4939
  846MOL0     O11543   7.099   2.681  10.119  0.1953 -0.3484 -0.3136
  846MOL0     C11544   6.992   2.600  10.129  0.7785  0.5376 -0.3025
  846MOL0     C11545   6.882   2.635  10.047 -0.4844  0.4933  0.3494
  846MOL0     C11546   6.770   2.543  10.041 -0.1821  0.4666 -0.1477
  846MOL0     C11547   6.758   2.436  10.127 -0.0503  0.5927  0.3151
  846MOL0     O11548   6.633   2.378  10.137 -0.6081  0.1910 -0.1280
  846MOL0     C11549   6.596   2.312  10.263  0.3961 -0.5096  1.2839
  846MOL0     C11550   6.450   2.280  10.273  0.0414  0.4130 -0.2502
  846MOL0     C11551   6.437   2.198  10.412  1.0569 -0.6636 -0.2124
  846MOL0     C11552   6.285   2.153  10.432  0.2431 -0.2281 -0.5099
  846MOL0     C11553   6.207   2.250  10.508  0.0210 -0.8403  0.3996
  846MOL0     C11554   6.058   2.213  10.491 -0.2715 -0.2590  0.4089
  846MOL0     C11555   5.950   2.300  10.567  0.0895  1.0653  0.5876
  846MOL0     C11556   5.814   2.235  10.522 -0.5267  0.8002  0.0193
  846MOL0     N11557   5.702   2.309  10.591 -0.1071 -0.0472  0.4946
  846MOL0     C11558   5.634   2.412  10.542  1.6500  0.6073 -0.5710
  846MOL0     C11559   5.549   2.448  10.638  1.0186 -1.4697 -0.3393
  846MOL0     C11560   5.450   2.569  10.631 -0.6266  0.1477 -0.4229
  846MOL0     C11561   5.305   2.522  10.597 -0.2769 -0.1805 -0.5738
  846MOL0     C11562   5.245   2.416  10.685  0.7076 -0.1256 -0.8132
  846MOL0     C11563   5.096   2.393  10.663 -0.0412 -0.1520 -0.7081
  846MOL0     O11564   5.069   2.250  10.684 -0.2582 -0.0838 -0.6090
  846MOL0     C11565   4.938   2.203  10.705 -0.8382 -0.1304 -0.1071
  846MOL0     C11566   4.940   2.066  10.745  0.6441 -0.6641  0.6760
  846MOL0     C11567   4.809   2.008  10.758 -0.0068 -0.2653 -0.0455
  846MOL0     C11568   4.692   2.088  10.741  0.0149 -0.5420 -0.3419
  846MOL0     C11569   4.555   2.029  10.762 -0.7210  0.2842  0.3530
  846MOL0     O11570   4.550   1.899  10.806  0.2542  0.3118 -1.1971
  846MOL0     C11571   4.450   1.829  10.758  0.3510  0.3769  0.1670
  846MOL0     C11572   4.469   1.747  10.650 -0.3883 -0.1114  0.0689
  846MOL0     C11573   4.367   1.675  10.596  0.0344  0.0525  0.2408
  846MOL0     C11574   4.235   1.682  10.640  0.6408  0.0509  0.8241
  846MOL0     O11575   4.123   1.610  10.593 -0.1914  0.1916 -0.0115
  846MOL0     C11576   4.155   1.501  10.507  0.1708  0.5991  0.7583
  846MOL0     C11577   4.032   1.395  10.488 -0.8463 -0.1539  0.0704
  846MOL0     C11578   3.972   1.341  10.615  0.4340  0.8230  0.0917
  846MOL0     C11579   3.846   1.253  10.586 -0.1843 -0.0167 -0.6439
  846MOL0     C11580   3.728   1.317  10.510  0.1631  0.1102  0.3420
  846MOL0     C11581   3.708   1.454  10.575  0.0636  0.7216  0.4437
  846MOL0     C11582   3.593   1.521  10.503 -0.1210 -0.7757  0.7246
  846MOL0     C11583   3.471   1.483  10.583  0.3364  0.5923  0.4048
  846MOL0    Cl11584   3.338   1.600  10.557  0.0180  0.1297  0.1682
  846MOL0     C11585   4.209   1.764  10.752  0.0585 -0.8597  0.5349
  846MOL0     C11586   4.310   1.839  10.811 -0.7565  0.2499 -0.3519
  846MOL0     O11587   4.455   2.098  10.745  0.5513  0.3277  0.0359
  846MOL0     C11588   4.702   2.218  10.708 -0.5684 -0.6858 -0.8426
  846MOL0     C11589   4.826   2.276  10.679  0.3586 -0.3130 -0.2705
  846MOL0     N11590   5.574   2.377  10.755 -0.1289  0.0537 -0.2461
  846MOL0     N11591   5.666   2.294  10.717 -0.0224 -0.3739 -0.6895
  846MOL0     C11592   6.870   2.407  10.211 -0.1606 -0.0568  0.2639
  846MOL0     C11593   6.985   2.488  10.211 -0.0073  0.2870  0.3986
  846MOL0     C11594   7.320   2.751  10.178  0.2059 -0.4101  0.2102
  846MOL0     C11595   7.285   2.893  10.189 -0.2468  0.5157 -0.1293
  846MOL0     C11596   7.384   2.985  10.191 -0.0473  0.7483  0.3531
  846MOL0     C11597   7.521   2.958  10.211  1.1270  0.0791 -0.8078
  846MOL0     O11598   7.602   3.063  10.203  0.2122  1.0600  0.2159
  846MOL0     C11599   7.732   3.034  10.250 -0.3217  0.3176  0.0074
  846MOL0     C11600   7.806   3.153  10.304 -0.0803 -0.3808  0.2872
  846MOL0     C11601   7.756   3.195  10.442 -0.4142  0.8265 -0.6079
  846MOL0     C11602   7.797   3.100  10.555 -1.0021  1.1810 -0.4481
  846MOL0     C11603   7.947   3.102  10.571  0.2040  0.9733  0.0071
  846MOL0     C11604   8.062   3.109  10.605 -0.2109  0.4464 -0.6567
  846MOL0     C11605   7.556   2.822  10.204  0.9855 -0.9067 -0.3524
  846MOL0     C11606   7.456   2.726  10.181 -0.4273 -0.1319  0.5213
  846MOL0     H11607   6.877   2.721   9.982 -0.5245  1.5517  1.7021
  846MOL0     H11608   6.687   2.575   9.979 -1.0767  2.3287  1.9067
  846MOL0     H11609   6.620   2.364  10.356 -0.0787  0.1194  1.0598
  846MOL0     H11610   6.642   2.212  10.266 -0.2982 -0.8381  1.2101
  846MOL0     H11611   6.420   2.226  10.183 -2.3993  2.7090 -0.9342
  846MOL0     H11612   6.387   2.369  10.273  1.0124  1.1206 -0.6291
  846MOL0     H11613   6.456   2.255  10.503  0.1704 -0.8536  0.0999
  846MOL0     H11614   6.501   2.110  10.411 -0.0707 -1.5513  1.5020
  846MOL0     H11615   6.243   2.136  10.332  0.4914  2.1429 -1.0713
  846MOL0     H11616   6.279   2.054  10.479  0.9295 -0.3093 -0.5786
  846MOL0     H11617   6.217   2.345  10.455  1.1906 -3.0047 -3.7449
  846MOL0     H11618   6.240   2.250  10.612  1.6252 -0.7164 -0.0933
  846MOL0     H11619   6.032   2.113  10.527 -2.4749 -0.7597 -2.2692
  846MOL0     H11620   6.024   2.205  10.388  0.6723 -1.8504  0.1802
  846MOL0     H11621   5.952   2.294  10.677  0.7839  1.1131  0.5824
  846MOL0     H11622   5.966   2.407  10.553 -2.8416  1.2393 -3.0139
  846MOL0     H11623   5.806   2.132  10.558  2.1484  1.0816  1.7018
  846MOL0     H11624   5.800   2.239  10.414 -0.5454  0.0219 -0.0107
  846MOL0     H11625   5.639   2.473  10.453 -0.8918  2.4150  0.4319
  846MOL0     H11626   5.482   2.649  10.563  2.1570 -1.9091 -1.7219
  846MOL0     H11627   5.443   2.612  10.731 -1.0056  1.2224 -0.8830
  846MOL0     H11628   5.305   2.492  10.492 -1.1621  0.9087 -0.9151
  846MOL0     H11629   5.236   2.607  10.599  0.6486  0.5884  1.6524
  846MOL0     H11630   5.294   2.324  10.651  2.3301  0.4217 -0.0359
  846MOL0     H11631   5.268   2.440  10.789  0.5238  1.5881 -1.1322
  846MOL0     H11632   5.079   2.426  10.560  1.8624 -0.8561 -1.2862
  846MOL0     H11633   5.044   2.452  10.741 -0.8547  0.8304 -1.9480
  846MOL0     H11634   5.018   1.993  10.763  0.9287 -0.8128 -1.0032
  846MOL0     H11635   4.800   1.909  10.802 -1.6461  0.1224  0.5779
  846MOL0     H11636   4.573   1.741  10.622 -0.6724 -2.0959 -0.6990
  846MOL0     H11637   4.387   1.611  10.511 -1.2601  0.9874 -0.8136
  846MOL0     H11638   4.240   1.442  10.541  0.1897  1.4237  2.2215
  846MOL0     H11639   4.188   1.539  10.410  0.4292  0.1917  0.6872
  846MOL0     H11640   4.061   1.306  10.431 -2.5004 -0.8877  0.2994
  846MOL0     H11641   3.956   1.446  10.428 -1.6378  1.9438  2.6678
  846MOL0     H11642   3.954   1.414  10.694  0.7944  0.2476  0.7207
  846MOL0     H11643   4.049   1.279  10.663  0.7590  2.7475  2.2750
  846MOL0     H11644   3.874   1.165  10.527  0.9755  0.1966 -0.4216
  846MOL0     H11645   3.813   1.220  10.685 -0.8017  2.2790 -0.0237
  846MOL0     H11646   3.635   1.258  10.512  1.4605 -2.0421  2.1543
  846MOL0     H11647   3.756   1.346  10.408 -0.5734  2.8956  0.8652
  846MOL0     H11648   3.794   1.516  10.550 -0.2738  1.3234  0.7523
  846MOL0     H11649   3.697   1.451  10.683  3.4278 -2.8040  0.8946
  846MOL0     H11650   3.611   1.627  10.524  1.4252 -0.6662 -0.8872
  846MOL0     H11651   3.599   1.513  10.394  4.1545  0.3085  0.6886
  846MOL0     H11652   3.499   1.476  10.689 -0.6228 -0.9710  0.5917
  846MOL0     H11653   3.444   1.383  10.547 -2.5093  1.0654  0.9732
  846MOL0     H11654   4.110   1.783  10.792  0.1966 -2.1456  1.5549
  846MOL0     H11655   4.299   1.890  10.906 -1.6281 -3.4092  1.7156
  846MOL0     H11656   4.615   2.280  10.691  1.6998  2.6066 -1.3458
  846MOL0     H11657   4.829   2.376  10.638  3.0434  0.4196  1.4719
  846MOL0     H11658   6.865   2.316  10.270  0.1198 -1.4012 -1.6726
  846MOL0     H11659   7.075   2.459  10.265 -0.0495 -0.1614  0.2279
  846MOL0     H11660   7.184   2.932  10.181 -0.5350 -0.3924 -1.2665
  846MOL0     H11661   7.339   3.084  10.186  0.2475  0.8746  0.1663
  846MOL0     H11662   7.796   2.989  10.173  1.5216  0.0270  1.6188
  846MOL0     H11663   7.736   2.963  10.333  0.5306  0.7119  0.3223
  846MOL0     H11664   7.915   3.145  10.310  0.1278  1.2935 -0.5636
  846MOL0     H11665   7.781   3.236  10.237 -0.9995 -0.2203  0.8044
  846MOL0     H11666   7.649   3.213  10.439 -0.8179 -0.8021  1.7098
  846MOL0     H11667   7.799   3.295  10.456 -0.4158  0.4922  2.2513
  846MOL0     H11668   7.762   3.142  10.650  3.2790  2.3126  0.8563
  846MOL0     H11669   7.767   2.995  10.548  0.0575  0.8593 -0.2830
  846MOL0     H11670   8.159   3.127  10.647 -0.6626  3.4077 -0.6857
  846MOL0     H11671   7.659   2.790  10.219  2.1203  2.5454  0.1046
  846MOL0     H11672   7.486   2.622  10.176  1.3307  0.4113 -1.8494
  847MOL0     O11673   4.629   9.762   1.338 -0.3493  0.9940  0.5608
  847MOL0     C11674   4.678   9.868   1.315  0.4120 -0.1867 -1.0120
  847MOL0     O11675   4.606   9.991   1.299 -0.4346  0.2853 -0.0431
  847MOL0     C11676   4.474  10.008   1.345 -0.5938 -0.4812  0.1224
  847MOL0     C11677   4.396  10.108   1.284 -0.8547  0.6214 -1.1910
  847MOL0     C11678   4.263  10.137   1.309 -0.1407  0.2960 -0.1928
  847MOL0     C11679   4.204  10.063   1.416 -0.4267  0.3343  0.0507
  847MOL0     O11680   4.089  10.106   1.473 -0.0054 -0.2519  0.6667
  847MOL0     C11681   3.983  10.006   1.465  0.4580  0.2059  0.1134
  847MOL0     C11682   3.850  10.075   1.502 -0.1825  0.0928  0.4694
  847MOL0     C11683   3.734   9.986   1.482  0.0593  0.1581  0.0020
  847MOL0     C11684   3.602  10.055   1.524  0.4031 -0.6330  0.5073
  847MOL0     C11685   3.476   9.998   1.450  0.0250  0.1154 -0.0081
  847MOL0     C11686   3.347  10.075   1.486  0.9118 -0.9008  0.1137
  847MOL0     C11687   3.334  10.221   1.452  0.4056  0.5670  0.0769
  847MOL0     C11688   3.346  10.246   1.304  0.2432 -1.1214 -0.4925
  847MOL0     N11689   3.296  10.381   1.261  0.1257  0.0538  0.1485
  847MOL0     C11690   3.159  10.418   1.245 -0.4441 -0.1906  0.1309
  847MOL0     C11691   3.165  10.553   1.236 -0.0155  0.0336 -0.9068
  847MOL0     C11692   3.052  10.641   1.220  0.7839  0.2238  0.2374
  847MOL0     C11693   2.937  10.593   1.315  0.8760 -0.2326  0.3338
  847MOL0     C11694   2.816  10.689   1.297  0.8777 -0.5880 -0.3344
  847MOL0     C11695   2.844  10.835   1.363 -0.1531 -0.5157 -0.1036
  847MOL0     O11696   2.724  10.910   1.361  0.2050 -0.2484  0.1870
  847MOL0     C11697   2.720  11.031   1.431 -0.1231 -0.2281  0.4061
  847MOL0     C11698   2.836  11.085   1.487 -0.0192  0.5755  0.1865
  847MOL0     C11699   2.840  11.216   1.536 -0.0224 -0.4175 -0.6894
  847MOL0     C11700   2.723  11.299   1.524  0.1619  0.1903 -0.2940
  847MOL0     C11701   2.717  11.450   1.558 -0.2164  1.6403 -0.2378
  847MOL0     O11702   2.599  11.508   1.575  0.2794 -0.5652  0.7731
  847MOL0     C11703   2.590  11.634   1.617 -0.1965  0.3541  0.0752
  847MOL0     C11704   2.647  11.740   1.540  1.0155 -0.1455  0.1028
  847MOL0     C11705   2.632  11.877   1.570 -0.3337 -0.2448  0.2383
  847MOL0     C11706   2.576  11.916   1.688  0.5047 -0.7008 -0.0566
  847MOL0     O11707   2.553  12.051   1.707 -0.0100 -0.4715  0.1217
  847MOL0     C11708   2.475  12.089   1.820  0.0727 -0.6988  0.0112
  847MOL0     C11709   2.447  12.238   1.831 -0.5277 -0.5005 -0.0419
  847MOL0     C11710   2.374  12.308   1.713 -0.1937 -0.2388 -0.7060
  847MOL0     C11711   2.322  12.447   1.752  0.2965  0.3256 -0.2085
  847MOL0     C11712   2.259  12.540   1.642 -0.3416  0.1324 -0.3616
  847MOL0     C11713   2.143  12.484   1.575 -0.0927  0.5052 -0.5423
  847MOL0     C11714   2.027  12.452   1.663 -0.5807 -0.3680  0.9516
  847MOL0     C11715   1.916  12.359   1.599  0.4755 -0.3200 -0.3715
  847MOL0    Cl11716   1.778  12.326   1.715  0.1135 -0.2318  0.0433
  847MOL0     C11717   2.517  11.811   1.769 -0.9133 -0.6105  0.3927
  847MOL0     C11718   2.531  11.679   1.733  0.2109  0.0655 -0.2207
  847MOL0     O11719   2.830  11.505   1.565  0.0829  0.8465 -0.0922
  847MOL0     C11720   2.603  11.242   1.474 -0.1184  0.0453 -0.2758
  847MOL0     C11721   2.604  11.109   1.431 -0.3107 -1.0041  0.0994
  847MOL0     N11722   3.296  10.597   1.259 -0.5162  0.2907 -0.1893
  847MOL0     N11723   3.371  10.491   1.274  0.2253  0.4363 -0.3710
  847MOL0     C11724   4.278   9.968   1.484 -0.6326  0.1608  0.0651
  847MOL0     C11725   4.408   9.935   1.452  0.2614  0.2262 -0.3567
  847MOL0     C11726   4.820   9.880   1.320 -0.7244 -0.5929  1.1652
  847MOL0     C11727   4.885  10.008   1.321  0.3401  0.1156  0.4173
  847MOL0     C11728   5.028  10.013   1.317 -0.2187 -0.0087  0.5261
  847MOL0     C11729   5.117   9.904   1.329  0.3898  0.4182  1.9238
  847MOL0     O11730   5.247   9.932   1.316  0.0576 -1.2117  0.0182
  847MOL0     C11731   5.337   9.843   1.382  1.0816 -0.4593  0.8130
  847MOL0     C11732   5.487   9.889   1.346 -1.2141  0.0916 -0.7235
  847MOL0     C11733   5.596   9.802   1.405 -0.9168 -0.1592 -0.1368
  847MOL0     C11734   5.735   9.853   1.388  0.7541  0.4786 -0.4916
  847MOL0     C11735   5.834   9.764   1.451  0.8578  0.6929 -0.3456
  847MOL0     C11736   5.922   9.690   1.500 -0.1013  0.1794  0.1698
  847MOL0     C11737   5.053   9.776   1.336  0.3985 -0.3840  1.1171
  847MOL0     C11738   4.909   9.769   1.337  0.2606  0.3507  0.2564
  847MOL0     H11739   4.452  10.150   1.201  0.8005 -0.4306 -0.6621
  847MOL0     H11740   4.207  10.210   1.252 -2.0758 -0.8453  0.1636
  847MOL0     H11741   3.990   9.919   1.532  4.6504  1.7148  2.0212
  847MOL0     H11742   3.982   9.967   1.363  3.1407 -1.0404  0.4721
  847MOL0     H11743   3.823  10.161   1.441  0.5120 -1.7193 -2.6332
  847MOL0     H11744   3.872  10.103   1.606 -1.5279 -2.2650  1.4919
  847MOL0     H11745   3.739   9.895   1.543 -2.8359 -0.7618 -0.9366
  847MOL0     H11746   3.733   9.958   1.376 -2.1063 -0.7313  0.1891
  847MOL0     H11747   3.588  10.044   1.632  1.1275  0.0608  0.6745
  847MOL0     H11748   3.609  10.161   1.500  1.0471 -0.4477  1.4748
  847MOL0     H11749   3.457   9.894   1.476  0.6229  0.3949  1.6777
  847MOL0     H11750   3.486  10.005   1.341 -0.3701 -0.9667 -0.1186
  847MOL0     H11751   3.328  10.073   1.593 -0.3820  0.4281 -0.0586
  847MOL0     H11752   3.261  10.026   1.438 -0.8768  0.3356  1.8844
  847MOL0     H11753   3.234  10.255   1.481 -0.6069 -0.7900 -1.6272
  847MOL0     H11754   3.409  10.271   1.514  0.2073 -1.5227  2.1217
  847MOL0     H11755   3.287  10.181   1.238  2.3934 -1.6034 -2.0407
  847MOL0     H11756   3.453  10.243   1.281  0.8865  0.8432  1.8363
  847MOL0     H11757   3.069  10.360   1.226 -2.1787  2.9384 -2.2084
  847MOL0     H11758   3.016  10.634   1.116 -1.9690  0.7764  1.0612
  847MOL0     H11759   3.079  10.742   1.250  1.4873 -0.6319  2.6752
  847MOL0     H11760   2.964  10.596   1.421  0.4224 -0.0885  0.4480
  847MOL0     H11761   2.899  10.494   1.289  0.3380  0.4016 -1.4840
  847MOL0     H11762   2.808  10.688   1.188 -2.9430 -4.3838 -0.2561
  847MOL0     H11763   2.722  10.650   1.336 -1.6684  1.4844 -3.7346
  847MOL0     H11764   2.927  10.884   1.310 -1.3842  1.0758 -0.6352
  847MOL0     H11765   2.872  10.835   1.469 -4.5992 -1.3095  1.2722
  847MOL0     H11766   2.929  11.030   1.482 -0.3247  0.1658 -1.9504
  847MOL0     H11767   2.935  11.255   1.572 -0.9969  1.6527 -0.2338
  847MOL0     H11768   2.690  11.707   1.445  1.4604  0.2002  0.1815
  847MOL0     H11769   2.681  11.947   1.503  0.3892  0.7237  1.7285
  847MOL0     H11770   2.538  12.079   1.908  0.8628  0.2833 -0.4191
  847MOL0     H11771   2.381  12.034   1.833 -0.3393  0.5901  4.0014
  847MOL0     H11772   2.534  12.302   1.851 -1.2918  1.5152 -2.6716
  847MOL0     H11773   2.384  12.259   1.918 -1.4400  2.9375 -1.3913
  847MOL0     H11774   2.290  12.243   1.686 -0.4177 -0.5424  0.6282
  847MOL0     H11775   2.447  12.312   1.631  0.6448  1.8636  0.0664
  847MOL0     H11776   2.255  12.436   1.838  0.3511 -1.2671 -0.3408
  847MOL0     H11777   2.403  12.512   1.786 -1.2955  2.4078 -0.1646
  847MOL0     H11778   2.336  12.567   1.568  2.2348 -0.4103  1.9336
  847MOL0     H11779   2.237  12.633   1.695 -0.5562  0.8624 -1.6908
  847MOL0     H11780   2.164  12.390   1.523  0.4165 -0.1944  0.8917
  847MOL0     H11781   2.105  12.560   1.505 -2.2697 -1.0948 -1.2174
  847MOL0     H11782   2.065  12.403   1.752  1.4698 -3.0192 -1.2145
  847MOL0     H11783   1.992  12.553   1.689  4.2555  1.5933  0.7976
  847MOL0     H11784   1.955  12.261   1.571  0.0534 -1.1876  1.8548
  847MOL0     H11785   1.870  12.401   1.510  0.6656 -0.3290 -0.4734
  847MOL0     H11786   2.448  11.840   1.847 -0.7196 -2.2834  1.2160
  847MOL0     H11787   2.507  11.600   1.803  0.0269  1.8087  1.7826
  847MOL0     H11788   2.511  11.301   1.472  1.0044  1.8757 -0.5701
  847MOL0     H11789   2.519  11.056   1.388  1.4710 -2.3073 -1.9929
  847MOL0     H11790   4.237   9.921   1.572 -0.8716  0.4936  0.1342
  847MOL0     H11791   4.457   9.857   1.510 -1.1031  0.3694  1.0572
  847MOL0     H11792   4.838  10.106   1.319 -1.7026 -0.7955  1.1080
  847MOL0     H11793   5.047  10.112   1.278 -2.7345 -0.4821 -2.3153
  847MOL0     H11794   5.319   9.740   1.348  0.8060  0.2854 -1.4751
  847MOL0     H11795   5.324   9.854   1.490  3.8005  0.0465  1.1580
  847MOL0     H11796   5.512   9.887   1.240  0.2561 -0.2940 -0.3993
  847MOL0     H11797   5.500   9.989   1.388 -0.7048 -0.9810  1.8865
  847MOL0     H11798   5.584   9.696   1.378  0.4987 -1.0856  2.5246
  847MOL0     H11799   5.578   9.793   1.512  0.9087  0.6865  0.2806
  847MOL0     H11800   5.751   9.853   1.280 -0.9307  0.2896 -0.7614
  847MOL0     H11801   5.740   9.955   1.429  3.6637  0.6146 -0.9702
  847MOL0     H11802   5.992   9.615   1.532  0.8567  1.0137  0.0726
  847MOL0     H11803   5.113   9.689   1.357 -1.5134 -1.2942  3.1955
  847MOL0     H11804   4.859   9.674   1.354  1.0482  0.2319  2.1770
  848MOL0     O11805   4.928  10.659  10.563 -0.3524  0.2226  0.1076
  848MOL0     C11806   5.010  10.701  10.483  0.5542 -0.9931  0.2551
  848MOL0     O11807   4.979  10.796  10.386 -0.1231 -0.2121  0.7592
  848MOL0     C11808   4.848  10.832  10.372  0.3610  0.5071 -0.0197
  848MOL0     C11809   4.796  10.947  10.437 -0.3295  0.6888  0.3384
  848MOL0     C11810   4.661  10.975  10.432  0.0515  0.4904  0.5896
  848MOL0     C11811   4.581  10.910  10.341  0.4094  0.3137 -0.2449
  848MOL0     O11812   4.449  10.933  10.335 -0.1095 -0.7853  0.0849
  848MOL0     C11813   4.388  11.050  10.405 -0.2208  0.7122 -0.2068
  848MOL0     C11814   4.246  11.069  10.365 -0.3398 -0.3308 -0.0371
  848MOL0     C11815   4.188  11.208  10.389  0.2591  0.0227  0.4174
  848MOL0     C11816   4.190  11.246  10.538 -0.3297  0.0877 -0.2296
  848MOL0     C11817   4.089  11.360  10.551  0.5708 -1.3873 -0.0265
  848MOL0     C11818   3.952  11.324  10.580 -0.0250  0.3847 -0.1463
  848MOL0     C11819   3.865  11.451  10.592  0.3171  0.1332 -0.5558
  848MOL0     C11820   3.719  11.410  10.603 -0.7875 -0.2317 -0.6220
  848MOL0     N11821   3.642  11.524  10.562 -0.6092  0.1438  0.9997
  848MOL0     C11822   3.548  11.610  10.630 -0.5040 -0.1906  0.2694
  848MOL0     C11823   3.498  11.697  10.535 -0.4449  0.6820  0.0129
  848MOL0     C11824   3.399  11.798  10.554 -0.3722 -0.0124  0.1724
  848MOL0     C11825   3.262  11.749  10.504 -0.6622 -0.2415  0.1679
  848MOL0     C11826   3.167  11.869  10.497  0.9375 -0.5641 -0.3185
  848MOL0     C11827   3.016  11.819  10.472  0.3680  0.8599 -0.2765
  848MOL0     O11828   2.957  11.760  10.588  0.3326 -0.7583 -0.5826
  848MOL0     C11829   2.839  11.694  10.576 -0.3087 -0.3979 -0.0021
  848MOL0     C11830   2.710  11.755  10.578 -0.4865 -0.4500  0.5747
  848MOL0     C11831   2.593  11.681  10.555  0.8734 -0.0841  0.2911
  848MOL0     C11832   2.606  11.545  10.529 -0.6021  0.2793 -0.3009
  848MOL0     C11833   2.489  11.468  10.501 -0.4163  0.1675  0.0448
  848MOL0     O11834   2.507  11.353  10.429  0.7483 -0.3260  0.4883
  848MOL0     C11835   2.399  11.271  10.398  0.3379 -0.4477 -0.1662
  848MOL0     C11836   2.275  11.323  10.354 -0.2764  0.8274  0.7437
  848MOL0     C11837   2.175  11.230  10.319  0.4436  0.6731 -0.0660
  848MOL0     C11838   2.197  11.094  10.340  0.1089  0.6224 -0.0308
  848MOL0     O11839   2.091  10.998  10.310 -0.6619 -0.3507  0.9130
  848MOL0     C11840   2.121  10.860  10.332  0.3166  0.6143 -0.0237
  848MOL0     C11841   2.022  10.783  10.258  0.2029  0.0343 -0.4105
  848MOL0     C11842   2.076  10.642  10.234 -0.4476  0.2039 -0.0883
  848MOL0     C11843   2.144  10.559  10.351  0.0260  0.4699 -0.1490
  848MOL0     C11844   2.192  10.419  10.303  1.1435  0.1285  0.7767
  848MOL0     C11845   2.092  10.316  10.246  0.0394  0.4847 -0.3782
  848MOL0     C11846   2.157  10.200  10.174  0.3543 -0.8769  0.4564
  848MOL0     C11847   2.050  10.126  10.081 -0.5808  0.2337  0.6984
  848MOL0    Cl11848   2.154   9.987  10.022  0.0651  0.0430  0.0656
  848MOL0     C11849   2.325  11.049  10.396 -0.8613 -0.6436 -0.5443
  848MOL0     C11850   2.427  11.140  10.414  0.5621  0.2521  0.1607
  848MOL0     O11851   2.383  11.516  10.533  0.6907 -0.8805  1.6474
  848MOL0     C11852   2.733  11.476  10.546  0.2873 -0.2259  0.6875
  848MOL0     C11853   2.844  11.557  10.573 -0.6610 -0.7430  0.1775
  848MOL0     N11854   3.551  11.658  10.411 -0.2960  0.8964 -0.4968
  848MOL0     N11855   3.630  11.557  10.429 -0.0791  0.1781  0.7942
  848MOL0     C11856   4.627  10.799  10.274 -0.6347 -0.2219 -0.3315
  848MOL0     C11857   4.759  10.755  10.294 -0.9174 -0.4033  0.4800
  848MOL0     C11858   5.150  10.661  10.490  0.4916 -0.5104  0.6393
  848MOL0     C11859   5.248  10.711  10.402 -0.1617  0.0308  0.2201
  848MOL0     C11860   5.381  10.663  10.406  0.1888 -0.0647 -0.0511
  848MOL0     C11861   5.423  10.574  10.506 -0.8638 -0.2365 -0.3640
  848MOL0     O11862   5.555  10.527  10.519  0.0282 -0.6792 -0.1923
  848MOL0     C11863   5.664  10.624  10.485 -0.7682  0.8124 -0.6648
  848MOL0     C11864   5.790  10.541  10.466 -0.1986 -0.4563  0.0052
  848MOL0     C11865   5.904  10.585  10.568  0.4555 -0.7886  0.9039
  848MOL0     C11866   6.026  10.501  10.567  0.1398 -0.2088 -0.2462
  848MOL0     C11867   6.115  10.567  10.655 -0.2048 -0.3493 -0.3455
  848MOL0     C11868   6.173  10.643  10.736 -0.8581  0.4111 -0.1797
  848MOL0     C11869   5.326  10.511  10.578  0.4562  0.1791  0.6199
  848MOL0     C11870   5.197  10.561  10.578 -0.2037 -0.4920 -0.5956
  848MOL0     H11871   4.847  11.008  10.511  0.8198 -1.9034  1.8261
  848MOL0     H11872   4.628  11.047  10.507  1.4828  1.5101  0.2898
  848MOL0     H11873   4.446  11.141  10.389  1.1890  0.4480  2.6268
  848MOL0     H11874   4.383  11.031  10.513  2.4899 -1.1957 -0.3046
  848MOL0     H11875   4.179  10.996  10.412  0.7890 -2.1500 -1.1355
  848MOL0     H11876   4.242  11.047  10.258 -0.3855 -3.0338  0.4409
  848MOL0     H11877   4.086  11.202  10.350  0.1898  1.7691  0.2573
  848MOL0     H11878   4.237  11.279  10.321  0.0843 -0.6584 -0.4346
  848MOL0     H11879   4.160  11.160  10.599 -1.1539 -2.2324 -3.6362
  848MOL0     H11880   4.291  11.278  10.566 -1.3224  0.9529  2.8388
  848MOL0     H11881   4.088  11.433  10.470  0.5674 -2.2270 -0.8044
  848MOL0     H11882   4.119  11.414  10.642 -0.7021  0.9483 -0.9068
  848MOL0     H11883   3.959  11.265  10.672  2.1505  0.2574 -0.3346
  848MOL0     H11884   3.917  11.259  10.499  0.1233  0.0562  0.0506
  848MOL0     H11885   3.905  11.507  10.677 -2.2052  0.3454  0.5839
  848MOL0     H11886   3.881  11.519  10.507 -0.2048  3.0745  1.5437
  848MOL0     H11887   3.692  11.394  10.707 -0.2604  0.3095 -0.3935
  848MOL0     H11888   3.682  11.332  10.536 -2.4404 -2.0111  2.1760
  848MOL0     H11889   3.510  11.601  10.732 -0.0448 -4.4113  0.2392
  848MOL0     H11890   3.438  11.884  10.498 -0.1698  0.5134  1.1154
  848MOL0     H11891   3.393  11.818  10.661  1.3436 -0.4269  0.3791
  848MOL0     H11892   3.224  11.669  10.568  1.1732 -2.3235 -1.1914
  848MOL0     H11893   3.263  11.698  10.407  1.9702 -1.4466  0.7586
  848MOL0     H11894   3.169  11.926  10.590 -0.2020 -0.6239 -0.2378
  848MOL0     H11895   3.194  11.928  10.409 -1.1136  1.5058  0.3345
  848MOL0     H11896   3.016  11.752  10.386  2.8739  2.5817 -1.7386
  848MOL0     H11897   2.949  11.899  10.441  0.0687  0.2674 -1.1889
  848MOL0     H11898   2.701  11.862  10.595  2.0846 -0.1767  0.5081
  848MOL0     H11899   2.500  11.736  10.542  1.4519  1.4073  1.9610
  848MOL0     H11900   2.267  11.430  10.333 -2.9556  0.3681 -1.1926
  848MOL0     H11901   2.079  11.262  10.282 -0.7955 -1.4484  1.0936
  848MOL0     H11902   2.107  10.851  10.440 -1.5463 -0.3592 -0.3144
  848MOL0     H11903   2.223  10.828  10.309  0.4081  0.6590  0.3091
  848MOL0     H11904   2.002  10.817  10.156 -0.0576 -3.4830 -1.6715
  848MOL0     H11905   1.927  10.794  10.311  1.2633  1.3203  1.3170
  848MOL0     H11906   2.148  10.656  10.152 -2.3823 -0.3557 -1.9744
  848MOL0     H11907   1.992  10.584  10.194  0.4086 -1.0322 -0.1585
  848MOL0     H11908   2.236  10.605  10.390 -0.7133  0.8681  1.1727
  848MOL0     H11909   2.075  10.554  10.435  0.0617  1.4406 -0.0543
  848MOL0     H11910   2.248  10.367  10.382 -0.7201 -1.7732  0.9217
  848MOL0     H11911   2.258  10.447  10.220  0.9955 -1.4422  0.1131
  848MOL0     H11912   2.026  10.360  10.172 -1.8413 -0.3494  0.7323
  848MOL0     H11913   2.026  10.284  10.327  0.2041  0.1005 -0.3886
  848MOL0     H11914   2.225  10.245  10.101 -0.9520 -0.3893 -0.4935
  848MOL0     H11915   2.195  10.134  10.253 -1.7186 -1.2048  1.2278
  848MOL0     H11916   2.014  10.182   9.995 -0.8795  2.2424  2.0547
  848MOL0     H11917   1.965  10.091  10.140 -0.6249  0.1213  0.5676
  848MOL0     H11918   2.349  10.947  10.422  3.6404  0.5655  0.8711
  848MOL0     H11919   2.528  11.108  10.440  0.7539  0.2619 -0.5692
  848MOL0     H11920   2.754  11.370  10.535 -0.9152 -0.6515  2.0972
  848MOL0     H11921   2.945  11.518  10.575 -0.6972 -0.8428  0.0751
  848MOL0     H11922   4.558  10.741  10.214  0.3966 -2.6157  0.6473
  848MOL0     H11923   4.798  10.662  10.254  2.0269  1.3215 -0.9265
  848MOL0     H11924   5.233  10.782  10.321 -0.3557 -2.2392 -1.8647
  848MOL0     H11925   5.451  10.705  10.336  0.9050 -2.3321 -0.7871
  848MOL0     H11926   5.668  10.702  10.562  0.5793  0.6101 -0.5111
  848MOL0     H11927   5.639  10.672  10.389  2.2358 -0.5194 -2.2630
  848MOL0     H11928   5.773  10.434  10.483 -0.7509 -0.4024 -0.2124
  848MOL0     H11929   5.834  10.554  10.367 -1.8535  0.1506 -0.6950
  848MOL0     H11930   5.866  10.582  10.671  0.2723 -0.2260  0.8559
  848MOL0     H11931   5.928  10.689  10.542 -1.2269 -0.1851  1.5884
  848MOL0     H11932   6.018  10.393  10.582 -0.6386  0.0592  1.4864
  848MOL0     H11933   6.067  10.511  10.466  2.7663 -2.4267  0.4872
  848MOL0     H11934   6.230  10.710  10.798 -1.8447 -0.8582  2.2525
  848MOL0     H11935   5.347  10.428  10.645  0.2569 -0.5714 -0.2417
  848MOL0     H11936   5.141  10.512  10.658  0.9449 -1.2631 -0.2337
  849MOL0     O11937   4.205   9.434   4.878 -0.1403 -0.0484  0.0471
  849MOL0     C11938   4.142   9.434   4.986 -0.1709 -0.4814 -0.0986
  849MOL0     O11939   4.003   9.452   4.992 -0.5815  0.2397  0.0331
  849MOL0     C11940   3.941   9.500   4.881  0.5714  0.3674  0.7432
  849MOL0     C11941   3.949   9.638   4.850 -0.4317 -0.1165  1.1033
  849MOL0     C11942   3.881   9.688   4.742  0.5734  0.3421  0.3068
  849MOL0     C11943   3.810   9.594   4.650 -0.0375 -0.8412  0.0297
  849MOL0     O11944   3.750   9.639   4.530 -0.9951  0.1272 -0.3960
  849MOL0     C11945   3.736   9.780   4.515 -0.1740 -0.3022 -0.4944
  849MOL0     C11946   3.668   9.814   4.384 -0.1974 -0.4650  0.2428
  849MOL0     C11947   3.524   9.763   4.375  0.4909 -0.1045 -0.2889
  849MOL0     C11948   3.451   9.836   4.250 -0.1593 -0.1571  0.3798
  849MOL0     C11949   3.306   9.781   4.232 -0.0205 -0.0042 -0.5590
  849MOL0     C11950   3.200   9.819   4.336  0.8284 -0.1935  0.0788
  849MOL0     C11951   3.092   9.901   4.262  0.9322 -0.5396  0.1649
  849MOL0     C11952   3.009   9.835   4.140  1.4563  0.0988  0.7221
  849MOL0     N11953   2.906   9.729   4.171  0.1536  0.3459  0.7605
  849MOL0     C11954   2.780   9.769   4.212 -0.3657 -0.6685 -0.0123
  849MOL0     C11955   2.721   9.647   4.237 -0.0928  0.5978  0.2514
  849MOL0     C11956   2.576   9.621   4.279  0.3023 -0.2922 -0.1596
  849MOL0     C11957   2.560   9.517   4.388 -0.9423  0.0240 -0.4136
  849MOL0     C11958   2.426   9.512   4.450  0.2222  0.4516 -0.9503
  849MOL0     C11959   2.313   9.523   4.340  0.0024  0.3164  0.5656
  849MOL0     O11960   2.190   9.465   4.383  0.0495  0.3923  0.1618
  849MOL0     C11961   2.071   9.457   4.310  0.1664  0.5544  0.5423
  849MOL0     C11962   2.053   9.518   4.184  0.8402  0.7643 -0.4126
  849MOL0     C11963   1.927   9.511   4.115  0.3523  0.5633 -0.0408
  849MOL0     C11964   1.818   9.447   4.178 -0.4029  0.4182 -0.0989
  849MOL0     C11965   1.686   9.450   4.106  0.9073 -0.0490  0.4225
  849MOL0     O11966   1.580   9.424   4.184  0.0380  0.8115  0.1156
  849MOL0     C11967   1.459   9.477   4.151 -0.0157 -1.0696  0.5713
  849MOL0     C11968   1.389   9.419   4.040  0.1950 -0.3122 -0.2508
  849MOL0     C11969   1.255   9.465   4.009 -0.7859  0.2080 -0.5445
  849MOL0     C11970   1.200   9.573   4.089  0.7373  0.5603 -0.1621
  849MOL0     O11971   1.069   9.604   4.062  0.6731  0.5544 -0.2824
  849MOL0     C11972   1.003   9.722   4.099  0.3049 -0.3425 -0.1627
  849MOL0     C11973   1.056   9.841   4.023  0.2116  0.8383 -0.1552
  849MOL0     C11974   1.000   9.841   3.879  0.5432  0.2263  0.3211
  849MOL0     C11975   1.077   9.955   3.807  0.0360 -0.3174  0.4650
  849MOL0     C11976   1.060   9.957   3.651  0.2777  0.2831  0.7250
  849MOL0     C11977   0.919  10.016   3.604  0.0664  0.4086  0.6851
  849MOL0     C11978   0.889   9.972   3.460 -0.2708 -0.7417  0.3493
  849MOL0     C11979   0.740   9.979   3.418  0.2162  0.1543  0.3397
  849MOL0    Cl11980   0.684  10.147   3.406  0.0847 -0.1967 -0.3253
  849MOL0     C11981   1.262   9.617   4.200  0.5741  0.2159 -0.1694
  849MOL0     C11982   1.392   9.568   4.239 -0.0282  0.1233  0.3183
  849MOL0     O11983   1.672   9.468   3.985  0.4657  0.3536  0.1126
  849MOL0     C11984   1.844   9.376   4.298 -0.3692 -0.5957  0.4006
  849MOL0     C11985   1.964   9.393   4.361 -0.4616  0.3548 -0.4494
  849MOL0     N11986   2.803   9.543   4.196 -0.2032 -0.1299 -1.0962
  849MOL0     N11987   2.908   9.592   4.151 -0.0608  0.7380  0.0956
  849MOL0     C11988   3.810   9.462   4.685  0.1164 -0.0921 -0.5911
  849MOL0     C11989   3.877   9.413   4.797  0.4142 -0.2211 -0.1176
  849MOL0     C11990   4.217   9.420   5.113  0.4230  0.3041 -0.2526
  849MOL0     C11991   4.175   9.493   5.224 -0.4511  0.1340 -0.0124
  849MOL0     C11992   4.242   9.489   5.339 -0.5969 -0.3756 -0.2529
  849MOL0     C11993   4.369   9.417   5.355  0.5728 -0.3977 -0.4764
  849MOL0     O11994   4.453   9.424   5.460 -1.3216 -0.5455  0.8148
  849MOL0     C11995   4.424   9.509   5.565 -0.1580 -0.0927 -0.4806
  849MOL0     C11996   4.504   9.637   5.557  0.0546  0.1034 -0.7102
  849MOL0     C11997   4.652   9.614   5.587  0.1312  0.5464 -0.3791
  849MOL0     C11998   4.726   9.565   5.456 -0.4844 -0.4066 -0.0827
  849MOL0     C11999   4.870   9.574   5.491  0.0339 -1.2409 -0.3474
  849MOL0     C12000   4.990   9.591   5.513  0.3044 -0.6529 -0.0436
  849MOL0     C12001   4.408   9.342   5.239 -0.7416 -0.3709  0.8510
  849MOL0     C12002   4.337   9.350   5.118 -0.5355  0.0465  0.0364
  849MOL0     H12003   3.993   9.715   4.911  0.5293  2.1454 -2.2052
  849MOL0     H12004   3.899   9.790   4.711  1.4899  0.1403  0.1542
  849MOL0     H12005   3.835   9.823   4.531  0.2248 -1.8148  1.5212
  849MOL0     H12006   3.676   9.822   4.596  3.9879  1.1210  2.1548
  849MOL0     H12007   3.725   9.776   4.299  1.7410  2.5116  0.0660
  849MOL0     H12008   3.672   9.923   4.378  0.4783 -0.3483  2.1024
  849MOL0     H12009   3.476   9.793   4.469  1.6215 -0.3522  0.3904
  849MOL0     H12010   3.515   9.654   4.372  1.3526 -0.2688  1.5473
  849MOL0     H12011   3.445   9.945   4.255 -0.7428 -0.1553 -0.3472
  849MOL0     H12012   3.509   9.804   4.164 -0.2631 -1.2882  0.7183
  849MOL0     H12013   3.313   9.672   4.238  1.9712  0.0845 -0.6343
  849MOL0     H12014   3.277   9.801   4.128  0.2047 -3.5162 -1.4242
  849MOL0     H12015   3.236   9.886   4.414  0.9718  1.3244 -1.2446
  849MOL0     H12016   3.156   9.735   4.392 -0.0815  1.1493  1.4622
  849MOL0     H12017   3.016   9.927   4.337  0.0332 -2.5755  0.0003
  849MOL0     H12018   3.151   9.985   4.223  0.6149 -0.5563 -0.3490
  849MOL0     H12019   3.071   9.784   4.065 -1.4640  0.7947 -2.4222
  849MOL0     H12020   2.966   9.920   4.087  2.9878 -2.0370 -4.7151
  849MOL0     H12021   2.744   9.868   4.236  3.3374  0.8294  0.0830
  849MOL0     H12022   2.535   9.574   4.188  0.6674 -2.0999  0.5537
  849MOL0     H12023   2.521   9.714   4.294  0.2419 -0.6601  2.2633
  849MOL0     H12024   2.617   9.541   4.478 -1.5882 -1.7440  0.5246
  849MOL0     H12025   2.589   9.417   4.354  1.2631  0.3995  0.1941
  849MOL0     H12026   2.404   9.417   4.500 -1.7773  0.6097 -1.4207
  849MOL0     H12027   2.417   9.596   4.520  0.9966  0.1342 -0.4549
  849MOL0     H12028   2.366   9.469   4.262  1.8715  1.4270  0.9920
  849MOL0     H12029   2.294   9.624   4.302 -1.1674 -0.6288 -1.4926
  849MOL0     H12030   2.140   9.566   4.138  0.2530 -0.9463 -3.5689
  849MOL0     H12031   1.932   9.556   4.016 -1.4830 -3.6553 -2.3410
  849MOL0     H12032   1.430   9.337   3.981  0.2635 -1.5037  1.3944
  849MOL0     H12033   1.199   9.418   3.928  0.3091 -1.4867 -0.3899
  849MOL0     H12034   1.009   9.747   4.205  1.2608 -0.6961 -0.1275
  849MOL0     H12035   0.895   9.715   4.082  0.3015 -0.3843 -0.1224
  849MOL0     H12036   1.165   9.841   4.013 -0.0032  1.6325 -4.6137
  849MOL0     H12037   1.043   9.935   4.078  0.1791  3.0561 -3.5857
  849MOL0     H12038   0.895   9.871   3.877  0.5949  0.4085  0.3014
  849MOL0     H12039   1.011   9.742   3.834  2.8315  1.0911 -1.1673
  849MOL0     H12040   1.050  10.054   3.844  1.4457  0.0973  0.4144
  849MOL0     H12041   1.185   9.943   3.813  0.0561 -0.1970  0.3502
  849MOL0     H12042   1.068   9.857   3.607  2.3973  1.1553 -1.0851
  849MOL0     H12043   1.135  10.018   3.601 -2.1257  1.3200 -1.8471
  849MOL0     H12044   0.916  10.125   3.615  1.4300  0.8857 -2.6147
  849MOL0     H12045   0.853   9.958   3.670 -1.0011 -0.3150 -0.9676
  849MOL0     H12046   0.946  10.034   3.391  0.6394 -0.3975  1.3837
  849MOL0     H12047   0.913   9.866   3.443  2.0804 -0.2643  0.4495
  849MOL0     H12048   0.682   9.919   3.488  2.7543 -1.4609  1.2100
  849MOL0     H12049   0.736   9.935   3.318  2.0830 -0.9859  0.7084
  849MOL0     H12050   1.206   9.682   4.266  1.0091  0.4817 -0.0595
  849MOL0     H12051   1.430   9.593   4.337  0.5168  0.7834 -0.0525
  849MOL0     H12052   1.757   9.322   4.334 -1.1609  1.1678  1.2637
  849MOL0     H12053   1.961   9.337   4.454  1.5524  1.4372  0.3332
  849MOL0     H12054   3.757   9.404   4.610 -2.2514  0.3080  0.6634
  849MOL0     H12055   3.877   9.310   4.832 -0.1247 -0.0320  0.4539
  849MOL0     H12056   4.097   9.569   5.231  1.0614  1.6876  0.9771
  849MOL0     H12057   4.194   9.549   5.415 -2.3188  2.0231 -3.0293
  849MOL0     H12058   4.451   9.458   5.658 -0.6917 -0.3619 -0.4700
  849MOL0     H12059   4.317   9.532   5.571 -0.1173  1.0554 -3.0781
  849MOL0     H12060   4.495   9.679   5.457  0.3245  1.4659 -0.1841
  849MOL0     H12061   4.448   9.710   5.618 -1.0264 -1.4675  0.2523
  849MOL0     H12062   4.670   9.554   5.676 -0.0195 -2.0400 -1.9853
  849MOL0     H12063   4.693   9.713   5.610  1.6657 -0.5883  2.2242
  849MOL0     H12064   4.705   9.460   5.433 -0.9062  0.3526 -3.8044
  849MOL0     H12065   4.697   9.626   5.370  1.8847 -0.3700 -0.9214
  849MOL0     H12066   5.093   9.599   5.540  1.1784 -4.3926 -1.6905
  849MOL0     H12067   4.496   9.282   5.258 -2.9458 -3.5571  1.7963
  849MOL0     H12068   4.377   9.297   5.033  0.3455  1.0364 -0.1903
  850MOL0     O12069   3.371   9.536   7.351  0.5210 -0.1711 -0.5277
  850MOL0     C12070   3.370   9.508   7.472 -1.1877 -0.3522 -0.2480
  850MOL0     O12071   3.295   9.423   7.535 -0.1983  0.2301 -0.1314
  850MOL0     C12072   3.183   9.380   7.475 -0.5790  0.4083  0.6445
  850MOL0     C12073   3.061   9.404   7.528  0.3169  0.2018  0.2823
  850MOL0     C12074   2.939   9.351   7.480 -0.2968  0.7337  0.8833
  850MOL0     C12075   2.940   9.281   7.362 -0.1825  0.9199  0.9515
  850MOL0     O12076   2.832   9.209   7.299  0.4271 -0.6086  0.3785
  850MOL0     C12077   2.701   9.215   7.359 -0.8765 -0.2963  0.4127
  850MOL0     C12078   2.610   9.120   7.287 -0.0201  0.1969  0.2272
  850MOL0     C12079   2.458   9.110   7.331  0.2763  0.5034  0.1357
  850MOL0     C12080   2.384   8.993   7.272 -0.8265 -0.6116 -0.2967
  850MOL0     C12081   2.237   8.994   7.317  0.3603  0.3151 -0.2757
  850MOL0     C12082   2.158   9.102   7.235  0.1699  0.2744  0.0746
  850MOL0     C12083   2.010   9.084   7.256  0.9427  1.0849  0.1261
  850MOL0     C12084   1.934   8.971   7.182 -0.6111  0.3177 -0.3910
  850MOL0     N12085   1.838   8.894   7.256 -0.0622 -0.6252  0.2799
  850MOL0     C12086   1.822   8.757   7.254  0.7832  0.3302 -0.3608
  850MOL0     C12087   1.706   8.734   7.319  0.8808 -0.2308 -0.2169
  850MOL0     C12088   1.643   8.602   7.349  0.0091  0.7479 -0.1145
  850MOL0     C12089   1.491   8.626   7.368 -0.1139  1.0936 -0.0880
  850MOL0     C12090   1.411   8.505   7.309 -0.0862  0.3815 -0.6591
  850MOL0     C12091   1.410   8.505   7.152 -0.0708 -0.0421  0.4665
  850MOL0     O12092   1.327   8.403   7.093 -0.1693 -0.0828 -0.2200
  850MOL0     C12093   1.189   8.407   7.125 -0.1294 -0.1791 -0.5094
  850MOL0     C12094   1.116   8.289   7.118  0.3804 -0.1240  0.3354
  850MOL0     C12095   0.975   8.279   7.131  0.1408  0.3237  0.0760
  850MOL0     C12096   0.903   8.399   7.161  0.2046  0.3336 -0.1572
  850MOL0     C12097   0.755   8.404   7.173  0.0994 -0.1050  0.9434
  850MOL0     O12098   0.704   8.306   7.099 -0.4769  0.1489 -0.5960
  850MOL0     C12099   0.591   8.240   7.136  0.6654  0.2581  0.0377
  850MOL0     C12100   0.520   8.165   7.034 -1.1784 -0.6014  0.4254
  850MOL0     C12101   0.412   8.091   7.069 -0.5481  0.0565  0.8479
  850MOL0     C12102   0.367   8.069   7.197 -0.0892 -0.0758  0.4979
  850MOL0     O12103   0.267   7.990   7.245  0.0946  0.1340  0.7739
  850MOL0     C12104   0.187   7.928   7.145  0.4411 -0.9091 -0.0271
  850MOL0     C12105   0.063   7.866   7.207  0.9718 -0.1320  0.4576
  850MOL0     C12106  -0.013   7.779   7.108  0.0918 -0.0531  0.6016
  850MOL0     C12107  -0.142   7.745   7.174 -0.1684 -0.0290 -0.1828
  850MOL0     C12108  -0.228   7.656   7.095  0.2040 -0.1947  0.5563
  850MOL0     C12109  -0.340   7.591   7.181  0.3933  0.4420  0.0133
  850MOL0     C12110  -0.427   7.484   7.104 -0.2483  0.5162  0.2801
  850MOL0     C12111  -0.534   7.409   7.186  0.3579  0.4206  0.3041
  850MOL0    Cl12112  -0.649   7.519   7.254  0.2948  0.0454  0.4800
  850MOL0     C12113   0.431   8.133   7.300  0.1569  0.9051 -0.0122
  850MOL0     C12114   0.536   8.215   7.269 -0.2088 -0.4185 -0.7609
  850MOL0     O12115   0.697   8.484   7.241  0.8416  0.0159  0.2387
  850MOL0     C12116   0.978   8.522   7.160 -0.1519  0.0300 -0.0476
  850MOL0     C12117   1.120   8.520   7.162  0.0913 -0.3625  0.2310
  850MOL0     N12118   1.663   8.856   7.380  0.1841  0.1510  0.7111
  850MOL0     N12119   1.749   8.944   7.340 -0.6898  0.4487  0.6411
  850MOL0     C12120   3.066   9.271   7.292 -0.3584  0.8945  0.8391
  850MOL0     C12121   3.186   9.307   7.351  0.3005  0.5694  1.0866
  850MOL0     C12122   3.483   9.581   7.542 -0.2976 -0.6617  0.0597
  850MOL0     C12123   3.563   9.682   7.476 -0.3189 -0.6943 -0.3680
  850MOL0     C12124   3.673   9.736   7.548  0.7839 -0.4499 -0.0299
  850MOL0     C12125   3.702   9.697   7.681  0.5198 -0.2443  0.3216
  850MOL0     O12126   3.801   9.748   7.766 -0.3771 -0.1189 -0.0206
  850MOL0     C12127   3.862   9.876   7.727 -0.2921  1.0447 -0.6496
  850MOL0     C12128   3.999   9.846   7.674 -0.3530  0.7543  0.2481
  850MOL0     C12129   4.063   9.973   7.618 -0.1785 -0.1713  0.0388
  850MOL0     C12130   4.215   9.949   7.583  0.8527 -0.2767 -0.6172
  850MOL0     C12131   4.297   9.953   7.711 -0.0857 -0.6865 -0.0104
  850MOL0     C12132   4.367   9.972   7.808 -0.3143 -0.1888 -0.1128
  850MOL0     C12133   3.621   9.601   7.738  0.2811 -0.1714  0.4622
  850MOL0     C12134   3.522   9.540   7.668  0.3174 -0.5150 -0.9912
  850MOL0     H12135   3.057   9.439   7.631  0.5899 -1.0378  0.7309
  850MOL0     H12136   2.849   9.390   7.525 -0.0526  4.4334 -1.4509
  850MOL0     H12137   2.650   9.311   7.346 -0.4491 -0.3278 -2.0121
  850MOL0     H12138   2.696   9.194   7.466 -2.9734 -2.2613 -0.0149
  850MOL0     H12139   2.656   9.021   7.299 -0.9357 -0.1498  1.0295
  850MOL0     H12140   2.617   9.139   7.180 -0.5952 -2.9121 -0.4610
  850MOL0     H12141   2.410   9.203   7.298 -0.1574 -0.2686 -1.5482
  850MOL0     H12142   2.447   9.102   7.439  1.5779 -2.2075  0.1405
  850MOL0     H12143   2.389   8.996   7.162  0.8120  1.7610 -0.2222
  850MOL0     H12144   2.441   8.901   7.291  1.2138  0.7525  0.4398
  850MOL0     H12145   2.222   9.009   7.424  1.2994 -0.8024  0.0364
  850MOL0     H12146   2.204   8.891   7.301  0.3003  0.3027 -0.0784
  850MOL0     H12147   2.181   9.084   7.130 -1.3741  1.4007 -0.4905
  850MOL0     H12148   2.180   9.205   7.266 -0.3318  1.1497 -2.2909
  850MOL0     H12149   1.996   9.074   7.364 -1.3967  0.1354 -0.2086
  850MOL0     H12150   1.961   9.179   7.230 -0.0980  1.1938  2.2983
  850MOL0     H12151   2.007   8.892   7.164 -2.9254 -1.9090 -0.7252
  850MOL0     H12152   1.886   9.017   7.095  0.0987 -0.7746 -1.3877
  850MOL0     H12153   1.884   8.689   7.197 -1.5144 -1.5721 -0.7213
  850MOL0     H12154   1.672   8.563   7.447 -4.1729 -1.2947  0.5224
  850MOL0     H12155   1.677   8.528   7.276  1.7801  1.1345  0.2745
  850MOL0     H12156   1.458   8.712   7.310  2.0127  1.1423 -1.3206
  850MOL0     H12157   1.471   8.641   7.475  2.5948  1.3161  0.4427
  850MOL0     H12158   1.452   8.412   7.352  1.5125  1.6884  0.8266
  850MOL0     H12159   1.312   8.510   7.354 -0.9763 -2.0984 -2.1262
  850MOL0     H12160   1.509   8.498   7.106 -0.5613  1.8946 -1.0149
  850MOL0     H12161   1.370   8.600   7.117  1.0451  0.7255  1.2084
  850MOL0     H12162   1.173   8.198   7.100  0.9186  0.4204 -0.8497
  850MOL0     H12163   0.931   8.180   7.142  0.2838  0.3715  1.2479
  850MOL0     H12164   0.568   8.186   6.939 -1.0660  4.1542  1.2581
  850MOL0     H12165   0.359   8.049   6.984 -1.2880 -0.5055  1.5671
  850MOL0     H12166   0.228   7.841   7.093 -1.9916 -3.5759  2.2174
  850MOL0     H12167   0.165   7.998   7.064 -0.7062 -2.3417 -0.9996
  850MOL0     H12168   0.004   7.944   7.257  2.3952  0.8584  0.6295
  850MOL0     H12169   0.091   7.801   7.290  1.2453  0.0714  0.5247
  850MOL0     H12170   0.044   7.688   7.088 -1.4629 -1.4135  2.1260
  850MOL0     H12171  -0.022   7.838   7.016  1.9219  0.6240  0.7991
  850MOL0     H12172  -0.120   7.693   7.268 -0.3006 -1.8800 -1.1292
  850MOL0     H12173  -0.202   7.836   7.180 -0.2750  0.2178 -3.2185
  850MOL0     H12174  -0.176   7.581   7.034 -2.0867 -1.2554 -0.2199
  850MOL0     H12175  -0.272   7.725   7.023  0.9883 -1.8449 -1.6265
  850MOL0     H12176  -0.403   7.677   7.207  1.0485  1.0879 -0.5063
  850MOL0     H12177  -0.297   7.534   7.264  0.5059 -0.9129 -0.9600
  850MOL0     H12178  -0.475   7.520   7.013  0.9439  0.5818 -0.3320
  850MOL0     H12179  -0.357   7.412   7.062 -0.5728  0.1459  0.3699
  850MOL0     H12180  -0.480   7.349   7.260  1.8192  1.1567 -0.1353
  850MOL0     H12181  -0.583   7.337   7.119 -0.8402  0.7574  0.7866
  850MOL0     H12182   0.417   8.107   7.404 -0.0819 -2.5222 -0.7943
  850MOL0     H12183   0.587   8.264   7.352  1.1786 -1.6923 -0.8290
  850MOL0     H12184   0.925   8.617   7.164 -0.3056 -0.0048 -0.9524
  850MOL0     H12185   1.163   8.616   7.188 -0.1060  0.2080 -1.4438
  850MOL0     H12186   3.054   9.213   7.201 -0.7669  0.0128  1.4411
  850MOL0     H12187   3.281   9.303   7.298  0.7403  1.7660  1.7630
  850MOL0     H12188   3.560   9.708   7.370  1.0227  0.1968 -0.2070
  850MOL0     H12189   3.732   9.813   7.500  0.5019 -0.6743 -0.7522
  850MOL0     H12190   3.874   9.934   7.818 -1.4610 -2.5672  2.0361
  850MOL0     H12191   3.788   9.927   7.665 -0.6607  1.1942 -0.0867
  850MOL0     H12192   4.056   9.811   7.760 -1.1687  1.6104  1.1733
  850MOL0     H12193   4.003   9.766   7.600 -1.2032  0.0253  0.9759
  850MOL0     H12194   4.061  10.062   7.681  1.9622  0.8242 -1.2030
  850MOL0     H12195   4.012   9.994   7.524  1.0046 -1.4074 -0.9394
  850MOL0     H12196   4.219   9.856   7.526  2.1848 -0.3820 -0.3658
  850MOL0     H12197   4.266  10.031   7.533  2.0577  1.3638  2.9515
  850MOL0     H12198   4.434  10.001   7.887 -2.8099  1.3608  1.5775
  850MOL0     H12199   3.644   9.556   7.835  0.3909 -1.3932 -0.1084
  850MOL0     H12200   3.467   9.458   7.712 -0.9278 -0.1176 -1.7486
  851MOL0     O12201  10.553   3.437   5.453 -0.2339  0.3311 -0.2120
  851MOL0     C12202  10.617   3.383   5.367  0.5857  0.3263 -0.2096
  851MOL0     O12203  10.573   3.354   5.236  0.2413 -0.3312 -0.4128
  851MOL0     C12204  10.442   3.363   5.202  0.6380 -0.5398  0.3160
  851MOL0     C12205  10.409   3.362   5.068 -0.3756  0.0906  0.8990
  851MOL0     C12206  10.281   3.380   5.010  0.1195 -0.3306 -0.4941
  851MOL0     C12207  10.169   3.408   5.101 -0.7256  0.6899  0.2926
  851MOL0     O12208  10.034   3.418   5.067 -0.7129 -0.4210 -0.0547
  851MOL0     C12209  10.012   3.421   4.922 -1.0082 -0.4974 -0.2430
  851MOL0     C12210   9.861   3.434   4.900 -0.5124 -0.0305 -0.5625
  851MOL0     C12211   9.811   3.483   4.770 -0.1068  0.7908 -0.4637
  851MOL0     C12212   9.815   3.633   4.767 -0.4012  0.3903  0.9418
  851MOL0     C12213   9.724   3.698   4.664  0.0054 -0.2351  1.0801
  851MOL0     C12214   9.767   3.682   4.520 -0.5699  0.1111 -0.6087
  851MOL0     C12215   9.910   3.734   4.502 -0.2550 -0.3149  0.0214
  851MOL0     C12216   9.941   3.733   4.351  0.0531 -0.2280  1.3959
  851MOL0     N12217  10.054   3.819   4.321 -0.6214 -1.0066 -0.0048
  851MOL0     C12218  10.172   3.774   4.288  0.6076  0.1334  0.3150
  851MOL0     C12219  10.257   3.883   4.287 -0.1934 -0.3565  0.1754
  851MOL0     C12220  10.406   3.899   4.278  0.4409  1.1760  1.0381
  851MOL0     C12221  10.464   3.841   4.408 -0.2198 -0.1334 -0.5046
  851MOL0     C12222  10.618   3.818   4.398  0.0712  0.2065  0.1888
  851MOL0     C12223  10.674   3.727   4.508  0.2536  0.5509  0.4019
  851MOL0     O12224  10.786   3.650   4.460  0.3183  0.1901 -0.1428
  851MOL0     C12225  10.907   3.709   4.437  0.4288 -0.2495 -0.1528
  851MOL0     C12226  10.939   3.847   4.450  0.1538 -0.0192  0.2700
  851MOL0     C12227  11.068   3.897   4.421  0.1352  0.5655 -0.3361
  851MOL0     C12228  11.177   3.813   4.383  0.0856  0.4522 -0.7711
  851MOL0     C12229  11.322   3.855   4.368  0.2235 -0.0946  0.8013
  851MOL0     O12230  11.418   3.760   4.378 -0.4564 -0.1598 -0.3835
  851MOL0     C12231  11.549   3.784   4.342  0.1032 -0.9744 -1.1049
  851MOL0     C12232  11.627   3.884   4.402 -0.0378  0.1439  0.5571
  851MOL0     C12233  11.759   3.893   4.363  0.2475  0.4071  0.4207
  851MOL0     C12234  11.824   3.806   4.265 -0.0193 -0.1903 -0.2411
  851MOL0     O12235  11.952   3.837   4.238  0.0517 -0.0154 -0.0818
  851MOL0     C12236  12.012   3.771   4.118  0.2711  0.0619 -0.3351
  851MOL0     C12237  12.144   3.839   4.085 -0.2297  0.0879 -0.3475
  851MOL0     C12238  12.255   3.807   4.184  0.1394  0.3165  0.4314
  851MOL0     C12239  12.402   3.841   4.126 -0.0058  0.4132 -0.0381
  851MOL0     C12240  12.502   3.889   4.237  0.8297 -0.3438  0.0691
  851MOL0     C12241  12.532   3.794   4.345  0.0550  0.9075 -0.3469
  851MOL0     C12242  12.642   3.867   4.438  0.1389 -0.2350  0.1124
  851MOL0     C12243  12.708   3.778   4.548  0.2651 -0.3493 -0.2453
  851MOL0    Cl12244  12.820   3.680   4.454 -0.1257  0.3225  0.0517
  851MOL0     C12245  11.739   3.704   4.218 -0.5116 -0.0435  0.0127
  851MOL0     C12246  11.606   3.690   4.261  0.3105 -0.1440  0.3975
  851MOL0     O12247  11.339   3.976   4.351  0.5340  0.5432 -1.1317
  851MOL0     C12248  11.148   3.681   4.372  1.3933  0.3597 -0.3646
  851MOL0     C12249  11.012   3.631   4.392 -0.5358  0.7881 -0.0052
  851MOL0     N12250  10.173   3.992   4.298  0.8072 -0.2906  0.7871
  851MOL0     N12251  10.061   3.955   4.324 -0.0350 -0.0421 -0.5435
  851MOL0     C12252  10.198   3.410   5.238 -0.7087  1.0995 -0.1268
  851MOL0     C12253  10.329   3.389   5.285  0.6629 -0.4852  0.6383
  851MOL0     C12254  10.758   3.364   5.391  0.1155 -0.1333 -0.0676
  851MOL0     C12255  10.817   3.388   5.516  0.2686 -0.0463  0.2390
  851MOL0     C12256  10.957   3.382   5.533 -0.4751  0.9269  0.5792
  851MOL0     C12257  11.036   3.329   5.432  0.4219 -0.8244  0.0391
  851MOL0     O12258  11.170   3.331   5.456 -0.1440  0.2621 -0.8693
  851MOL0     C12259  11.272   3.285   5.360 -0.1986  0.0538 -0.0783
  851MOL0     C12260  11.320   3.409   5.286 -1.1097  0.9360  0.0355
  851MOL0     C12261  11.434   3.375   5.190  0.0353 -0.0360  1.6526
  851MOL0     C12262  11.563   3.378   5.268  0.1121 -0.2510  0.2980
  851MOL0     C12263  11.589   3.247   5.324 -0.6986 -0.5125 -0.1394
  851MOL0     C12264  11.621   3.138   5.366  0.9229 -0.1739  0.1918
  851MOL0     C12265  10.974   3.293   5.317 -0.6303  0.2127 -0.2993
  851MOL0     C12266  10.838   3.307   5.292 -0.2202 -0.6889  1.3316
  851MOL0     H12267  10.496   3.342   5.007  1.2538  1.6353  2.5762
  851MOL0     H12268  10.277   3.387   4.901 -0.6604  2.4799 -0.3674
  851MOL0     H12269  10.057   3.341   4.863  0.2906 -0.2011  0.3126
  851MOL0     H12270  10.051   3.512   4.875  0.9491 -1.4099 -0.5140
  851MOL0     H12271   9.823   3.491   4.986  2.0634 -0.2816  0.8524
  851MOL0     H12272   9.818   3.334   4.908  0.2119 -0.4439 -1.6790
  851MOL0     H12273   9.706   3.456   4.754 -0.7752  2.6258  0.6242
  851MOL0     H12274   9.882   3.442   4.698 -1.0978 -2.8249  0.3844
  851MOL0     H12275   9.788   3.671   4.866 -0.2080  0.4278  0.9815
  851MOL0     H12276   9.913   3.682   4.761 -2.2419  4.4109  0.6535
  851MOL0     H12277   9.718   3.802   4.695 -0.1358 -0.3826  1.5650
  851MOL0     H12278   9.625   3.652   4.664 -0.4313  0.6692 -0.2729
  851MOL0     H12279   9.696   3.723   4.447 -0.7915 -0.1541 -0.5422
  851MOL0     H12280   9.773   3.575   4.495 -0.1332  0.2754 -1.2306
  851MOL0     H12281   9.921   3.829   4.555  0.8978 -0.7613  0.6214
  851MOL0     H12282   9.984   3.667   4.545 -1.1392 -2.1889 -1.2377
  851MOL0     H12283   9.854   3.771   4.298  1.5110 -0.7513 -1.5886
  851MOL0     H12284   9.961   3.629   4.322  3.2232  0.3631  1.0560
  851MOL0     H12285  10.206   3.671   4.276 -0.7627 -0.3436  0.3048
  851MOL0     H12286  10.448   4.000   4.274  0.6758  1.2510  3.5901
  851MOL0     H12287  10.434   3.835   4.194 -0.7026 -0.0626  1.5649
  851MOL0     H12288  10.412   3.752   4.445 -0.5004  0.7332  1.3082
  851MOL0     H12289  10.447   3.919   4.483 -1.9374  0.5557 -1.5665
  851MOL0     H12290  10.644   3.764   4.306  0.0265 -0.4714  0.5631
  851MOL0     H12291  10.669   3.915   4.394  3.3971 -1.4223 -1.4876
  851MOL0     H12292  10.595   3.658   4.536  1.7932 -0.6140  2.0961
  851MOL0     H12293  10.708   3.784   4.596 -0.5381 -0.1685  1.1914
  851MOL0     H12294  10.865   3.923   4.475 -0.2873 -0.5610  0.6186
  851MOL0     H12295  11.093   4.000   4.444 -0.2678  0.2626  1.5677
  851MOL0     H12296  11.576   3.947   4.474 -0.1532 -0.7304  1.2515
  851MOL0     H12297  11.810   3.983   4.397 -1.4438  1.2362  0.8904
  851MOL0     H12298  11.950   3.790   4.030 -1.2867 -2.5764  0.0915
  851MOL0     H12299  12.027   3.664   4.133 -2.7583 -0.4398 -0.2713
  851MOL0     H12300  12.127   3.947   4.087 -3.4362 -0.2756  3.2932
  851MOL0     H12301  12.193   3.810   3.991  0.6399 -0.8923  0.3687
  851MOL0     H12302  12.243   3.702   4.213 -0.7528  0.1998 -0.3347
  851MOL0     H12303  12.237   3.857   4.280  1.2514  0.9848  0.3096
  851MOL0     H12304  12.443   3.747   4.089  1.2065  1.4622 -1.4893
  851MOL0     H12305  12.389   3.913   4.044  1.1458 -1.5343 -2.0200
  851MOL0     H12306  12.446   3.973   4.279  0.1045 -0.0475 -1.3917
  851MOL0     H12307  12.592   3.917   4.181  1.3496 -1.0952  0.5192
  851MOL0     H12308  12.570   3.700   4.305  1.8812  1.2174  0.5586
  851MOL0     H12309  12.453   3.762   4.414 -0.0728 -1.0010 -1.3177
  851MOL0     H12310  12.717   3.916   4.376  2.0306 -1.0682  1.6361
  851MOL0     H12311  12.598   3.955   4.485 -1.0510 -0.8721  0.2363
  851MOL0     H12312  12.638   3.724   4.612  1.0289  0.3451  1.2390
  851MOL0     H12313  12.758   3.847   4.617  0.3848 -4.1559  4.0294
  851MOL0     H12314  11.765   3.643   4.132 -0.1184 -2.4462  1.7427
  851MOL0     H12315  11.537   3.623   4.211 -0.7578  0.9777  0.3299
  851MOL0     H12316  11.239   3.624   4.357  2.1214  1.1106  1.0131
  851MOL0     H12317  10.984   3.528   4.377  0.3327  0.4544  0.6034
  851MOL0     H12318  10.116   3.421   5.309 -1.2992  0.8439 -0.7551
  851MOL0     H12319  10.337   3.391   5.393 -1.7970  2.1285  0.8870
  851MOL0     H12320  10.761   3.412   5.606 -0.6732  0.7780 -0.5428
  851MOL0     H12321  11.015   3.426   5.613  0.1141  1.7671 -0.2823
  851MOL0     H12322  11.231   3.213   5.288  1.3161 -0.8471 -0.0882
  851MOL0     H12323  11.350   3.239   5.422 -0.6356 -0.3625  0.1727
  851MOL0     H12324  11.236   3.460   5.238 -1.2158  0.5167 -0.2261
  851MOL0     H12325  11.353   3.488   5.355  0.9117  1.3203 -1.2714
  851MOL0     H12326  11.431   3.457   5.118 -2.5121  0.4892  2.2377
  851MOL0     H12327  11.425   3.279   5.138 -0.8601  0.8785  0.0413
  851MOL0     H12328  11.645   3.404   5.200 -0.8727  0.7550 -0.5364
  851MOL0     H12329  11.565   3.453   5.348  0.4281  1.3716 -1.1567
  851MOL0     H12330  11.635   3.038   5.401  1.8562 -0.1854 -0.1859
  851MOL0     H12331  11.026   3.274   5.224  0.6632  0.2200  0.3958
  851MOL0     H12332  10.795   3.295   5.193  1.1958 -2.6745  0.9189
  852MOL0     O12333   1.192   1.497  10.247  0.1801 -1.1726 -0.6515
  852MOL0     C12334   1.302   1.476  10.296 -0.6854  1.0160 -0.0416
  852MOL0     O12335   1.349   1.351  10.327 -0.4059 -0.2989  0.0280
  852MOL0     C12336   1.257   1.242  10.326  0.4532  0.0189 -0.5084
  852MOL0     C12337   1.120   1.240  10.337  0.3961 -0.2978  0.9442
  852MOL0     C12338   1.038   1.124  10.330 -0.5941  0.4203 -0.3932
  852MOL0     C12339   1.099   0.999  10.319  0.0846 -0.3977 -0.8970
  852MOL0     O12340   1.030   0.881  10.291  0.0812 -0.8447 -0.3880
  852MOL0     C12341   0.890   0.871  10.306  0.5803 -0.8951 -0.7270
  852MOL0     C12342   0.845   0.902  10.446 -0.1371  0.1041 -0.4157
  852MOL0     C12343   0.714   0.971  10.455  0.6116  0.3775 -0.5365
  852MOL0     C12344   0.605   0.914  10.366  0.0040  0.1814  0.0397
  852MOL0     C12345   0.462   0.942  10.424  0.6317  0.2635 -0.0230
  852MOL0     C12346   0.427   1.085  10.419  0.2129 -0.2523 -0.3219
  852MOL0     C12347   0.276   1.096  10.384  0.4088 -0.4438 -0.9181
  852MOL0     C12348   0.180   1.045  10.495  0.3986 -0.1522  0.5753
  852MOL0     N12349   0.040   1.097  10.487 -0.6543 -0.4168  0.1223
  852MOL0     C12350  -0.009   1.232  10.482 -0.8767  0.8517  0.0225
  852MOL0     C12351  -0.138   1.212  10.468 -0.5444  0.2890 -0.0144
  852MOL0     C12352  -0.232   1.324  10.427  0.2455 -0.0941  0.0625
  852MOL0     C12353  -0.386   1.302  10.470 -0.0170 -0.1169  0.0138
  852MOL0     C12354  -0.444   1.242  10.340  0.6901 -0.5402 -0.3113
  852MOL0     C12355  -0.590   1.236  10.366  0.4252 -0.5215 -0.4384
  852MOL0     O12356  -0.655   1.356  10.310 -0.0620 -0.3196  0.0087
  852MOL0     C12357  -0.789   1.341  10.328  0.8495 -0.2345  0.8213
  852MOL0     C12358  -0.845   1.360  10.456  0.7324 -0.9278 -0.4256
  852MOL0     C12359  -0.972   1.320  10.494 -0.0357  0.5766  0.6048
  852MOL0     C12360  -1.060   1.258  10.406 -0.7697  0.3055  0.7920
  852MOL0     C12361  -1.188   1.192  10.451 -0.2102 -0.7039 -0.2675
  852MOL0     O12362  -1.234   1.228  10.572 -0.6952  0.7622 -0.5026
  852MOL0     C12363  -1.358   1.191  10.615 -0.0841  0.2057  1.3005
  852MOL0     C12364  -1.392   1.050  10.626  0.6852 -0.0268  0.3251
  852MOL0     C12365  -1.512   1.016  10.680  0.1667 -0.3625  0.1016
  852MOL0     C12366  -1.608   1.117  10.714  0.0084 -0.4301 -0.8319
  852MOL0     O12367  -1.730   1.088  10.773  0.4925  0.0624 -0.5419
  852MOL0     C12368  -1.776   0.954  10.787  0.2517  0.9485 -0.0150
  852MOL0     C12369  -1.915   0.978  10.832  0.3545  0.4694  0.1684
  852MOL0     C12370  -1.984   0.836  10.805  0.6263  0.0810  0.5247
  852MOL0     C12371  -2.130   0.865  10.794 -0.2237 -0.5657 -0.2840
  852MOL0     C12372  -2.208   0.737  10.789  0.5582  0.6309 -0.4356
  852MOL0     C12373  -2.359   0.766  10.811  0.1139  0.4010 -0.5396
  852MOL0     C12374  -2.469   0.673  10.788  0.4490 -0.1127  0.1660
  852MOL0     C12375  -2.425   0.526  10.827  0.7214  0.9600 -0.5366
  852MOL0    Cl12376  -2.333   0.450  10.696 -0.0724 -0.2425 -0.2435
  852MOL0     C12377  -1.580   1.250  10.697  0.6092  0.2122  0.5292
  852MOL0     C12378  -1.456   1.282  10.641 -0.4194  0.1960 -0.5465
  852MOL0     O12379  -1.258   1.143  10.365  0.2334 -0.7691 -0.4905
  852MOL0     C12380  -1.014   1.257  10.269  0.4513 -0.0021  0.0621
  852MOL0     C12381  -0.883   1.290  10.236 -0.3442 -0.5606 -0.6817
  852MOL0     N12382  -0.172   1.079  10.478 -0.1826 -0.4813 -0.5515
  852MOL0     N12383  -0.063   1.015  10.506  0.7831 -0.0451 -0.5109
  852MOL0     C12384   1.236   0.994  10.314 -0.4900 -0.1987  0.5917
  852MOL0     C12385   1.314   1.115  10.303  0.0749  0.4618 -0.0808
  852MOL0     C12386   1.407   1.585  10.300  0.6446  1.2852 -0.4525
  852MOL0     C12387   1.536   1.560  10.360 -0.8490 -0.7249 -0.3042
  852MOL0     C12388   1.633   1.654  10.371  1.1389 -0.5942 -0.1976
  852MOL0     C12389   1.606   1.779  10.316 -0.3007 -0.1769 -0.3301
  852MOL0     O12390   1.685   1.889  10.339  0.4218  0.0771  0.8332
  852MOL0     C12391   1.649   2.032  10.328  1.0713  0.0178 -0.6298
  852MOL0     C12392   1.706   2.086  10.450 -0.9386 -0.3229 -0.2409
  852MOL0     C12393   1.863   2.112  10.448  0.4674 -0.2456  0.9763
  852MOL0     C12394   1.903   2.243  10.513  0.1064 -0.3536 -0.1802
  852MOL0     C12395   2.036   2.286  10.486  0.0580 -0.4408  0.3925
  852MOL0     C12396   2.153   2.316  10.463 -0.5255  0.2425 -0.7202
  852MOL0     C12397   1.483   1.802  10.254 -0.5182  0.1040  0.2709
  852MOL0     C12398   1.377   1.710  10.244 -0.0681 -0.7478 -0.6620
  852MOL0     H12399   1.071   1.336  10.348  0.8968  0.5472 -2.9296
  852MOL0     H12400   0.932   1.143  10.341 -0.7952 -1.9074  4.2493
  852MOL0     H12401   0.849   0.772  10.284 -3.2410 -0.0354  1.4945
  852MOL0     H12402   0.848   0.943  10.236  1.8134 -1.3324 -1.9521
  852MOL0     H12403   0.924   0.960  10.496  0.2767 -0.3539 -0.5346
  852MOL0     H12404   0.832   0.809  10.502 -2.2986 -0.0357 -1.0373
  852MOL0     H12405   0.729   1.076  10.431  0.0720  0.9335  1.3680
  852MOL0     H12406   0.679   0.973  10.559 -1.4629  2.1129 -1.1888
  852MOL0     H12407   0.621   0.964  10.270 -2.2674  0.2975 -0.3349
  852MOL0     H12408   0.614   0.805  10.361 -0.1240  0.2055 -0.9971
  852MOL0     H12409   0.452   0.911  10.528 -0.8616 -0.2550 -0.2951
  852MOL0     H12410   0.382   0.889  10.371 -1.2203  0.7506  2.1419
  852MOL0     H12411   0.476   1.127  10.330 -0.0565  0.1631 -0.2763
  852MOL0     H12412   0.455   1.139  10.509 -0.2167 -1.4864  0.5785
  852MOL0     H12413   0.257   1.202  10.366 -2.1044  0.1444  3.6128
  852MOL0     H12414   0.247   1.038  10.296 -1.3562 -0.1328 -0.5913
  852MOL0     H12415   0.217   1.072  10.594 -0.2701 -0.1269  0.8241
  852MOL0     H12416   0.183   0.937  10.477  3.7167 -0.2506  1.0815
  852MOL0     H12417   0.045   1.324  10.464  0.3876 -0.1271 -1.4769
  852MOL0     H12418  -0.224   1.344  10.319  0.5429 -3.4157 -0.6445
  852MOL0     H12419  -0.182   1.405  10.481  0.1836  0.4434 -0.6614
  852MOL0     H12420  -0.433   1.397  10.494  0.9312  0.7038 -1.2330
  852MOL0     H12421  -0.388   1.231  10.554 -0.6944 -0.6703 -0.4564
  852MOL0     H12422  -0.434   1.324  10.268  1.1797 -1.4213 -1.2689
  852MOL0     H12423  -0.388   1.151  10.318  0.0696 -1.2706  1.0533
  852MOL0     H12424  -0.613   1.221  10.472  1.1647 -0.0431 -0.2054
  852MOL0     H12425  -0.641   1.153  10.315 -1.5966 -0.1499  0.8684
  852MOL0     H12426  -0.789   1.414  10.531 -3.5167  1.2339  1.5005
  852MOL0     H12427  -0.997   1.340  10.597  1.4461 -0.4169  1.1967
  852MOL0     H12428  -1.320   0.973  10.599  2.0807  0.9324  1.1257
  852MOL0     H12429  -1.526   0.911  10.703  0.3381 -0.0681  1.6727
  852MOL0     H12430  -1.708   0.912  10.861 -0.0494  0.3504 -0.0768
  852MOL0     H12431  -1.767   0.902  10.691  1.0704  0.5480  0.2697
  852MOL0     H12432  -1.963   1.047  10.762 -2.7494 -0.1960  1.4835
  852MOL0     H12433  -1.909   1.009  10.936 -1.7837 -0.9681  0.7796
  852MOL0     H12434  -1.964   0.765  10.885  0.6487  0.4038  0.8046
  852MOL0     H12435  -1.956   0.806  10.703 -2.4480  1.7576 -0.9504
  852MOL0     H12436  -2.166   0.925  10.878 -1.3876 -1.5756 -0.0346
  852MOL0     H12437  -2.140   0.924  10.702  1.9595  1.0533  0.4287
  852MOL0     H12438  -2.155   0.665  10.852 -0.0656 -0.4902 -1.1566
  852MOL0     H12439  -2.203   0.695  10.688  3.0646 -1.6421  0.4964
  852MOL0     H12440  -2.382   0.856  10.753  3.5327  2.1745  0.5354
  852MOL0     H12441  -2.365   0.784  10.919 -1.5788  1.8916 -0.8502
  852MOL0     H12442  -2.553   0.707  10.849  1.7920 -0.5573  2.3931
  852MOL0     H12443  -2.485   0.677  10.680  1.7052 -2.4901 -0.1871
  852MOL0     H12444  -2.514   0.467  10.852  2.1645 -0.3593  1.8570
  852MOL0     H12445  -2.357   0.524  10.912  0.0361  1.8587  0.0640
  852MOL0     H12446  -1.650   1.331  10.712 -1.3405 -0.8598 -1.9262
  852MOL0     H12447  -1.439   1.388  10.625  0.8788 -0.3624 -3.7039
  852MOL0     H12448  -1.092   1.233  10.197  1.2562  1.8811 -1.5396
  852MOL0     H12449  -0.842   1.275  10.137  1.3981  2.5650 -0.5342
  852MOL0     H12450   1.291   0.900  10.308  1.1226  0.7522 -0.9917
  852MOL0     H12451   1.420   1.106  10.281 -0.0608 -1.8920  0.0105
  852MOL0     H12452   1.560   1.463  10.403  2.4696 -0.1971 -0.6745
  852MOL0     H12453   1.725   1.623  10.421 -0.1326 -2.6908  0.9734
  852MOL0     H12454   1.542   2.040  10.344  1.3146  0.2622  0.9878
  852MOL0     H12455   1.674   2.078  10.231  0.4470  0.9739 -0.3550
  852MOL0     H12456   1.660   2.184  10.466 -0.4451 -0.3882  1.8789
  852MOL0     H12457   1.683   2.033  10.543 -1.3944  2.4466  1.3440
  852MOL0     H12458   1.899   2.113  10.345 -1.0462 -2.0989  0.3682
  852MOL0     H12459   1.910   2.030  10.504  1.9971 -1.7203 -2.1827
  852MOL0     H12460   1.830   2.315  10.477 -1.2624 -3.3109 -3.9606
  852MOL0     H12461   1.893   2.227  10.621  0.2371 -0.1817 -0.1422
  852MOL0     H12462   2.258   2.338  10.457 -0.4391 -0.5160 -3.8523
  852MOL0     H12463   1.456   1.895  10.206 -0.8577  1.3362  2.7032
  852MOL0     H12464   1.288   1.743  10.192 -0.8328 -1.5792  0.0920
  853MOL0     O12465   5.396   0.391   1.070  0.7065  0.2943  0.4487
  853MOL0     C12466   5.341   0.418   0.961  0.2875  0.4967 -0.5893
  853MOL0     O12467   5.220   0.465   0.946  0.1592  0.1634  0.2492
  853MOL0     C12468   5.137   0.463   1.057  0.8042  0.1316  0.8468
  853MOL0     C12469   5.008   0.416   1.044 -0.1311 -0.1696  0.7353
  853MOL0     C12470   4.915   0.422   1.145 -0.3496 -0.4244  0.8914
  853MOL0     C12471   4.952   0.473   1.274 -0.0158  0.0772  0.3062
  853MOL0     O12472   4.859   0.480   1.371  0.2147 -0.2125  1.2782
  853MOL0     C12473   4.774   0.593   1.333 -0.5830 -0.1025  0.7158
  853MOL0     C12474   4.643   0.609   1.414 -0.8710 -0.1368  1.3698
  853MOL0     C12475   4.564   0.473   1.434 -0.6916 -0.5203  0.6101
  853MOL0     C12476   4.522   0.408   1.302 -0.2438 -0.4304 -0.2881
  853MOL0     C12477   4.479   0.250   1.307  0.7636 -0.8216 -0.3085
  853MOL0     C12478   4.570   0.163   1.395  0.0779 -0.6223 -0.3047
  853MOL0     C12479   4.716   0.146   1.342 -0.0078 -0.6702  0.1605
  853MOL0     C12480   4.793   0.039   1.416 -0.4565  0.0323  0.7535
  853MOL0     N12481   4.922   0.021   1.352  0.1601 -0.1902  0.3933
  853MOL0     C12482   5.032   0.106   1.358 -1.0869 -0.1071 -0.1464
  853MOL0     C12483   5.119   0.060   1.265  0.3330 -0.3227  0.5288
  853MOL0     C12484   5.254   0.111   1.236 -0.9863  0.5730  0.5051
  853MOL0     C12485   5.361  -0.006   1.215  0.1076 -0.3999 -0.5983
  853MOL0     C12486   5.498   0.057   1.222 -0.3681  1.1219 -0.2327
  853MOL0     C12487   5.586   0.002   1.108  0.8071 -0.0585  0.0705
  853MOL0     O12488   5.710   0.078   1.113 -0.5907 -0.1781 -0.5957
  853MOL0     C12489   5.802   0.064   1.013 -0.0334  0.5382 -0.0542
  853MOL0     C12490   5.795  -0.017   0.900  0.0004  0.0940 -0.7411
  853MOL0     C12491   5.885   0.004   0.795  0.1914  0.0273 -0.5587
  853MOL0     C12492   5.998   0.086   0.818 -0.0306 -0.2360 -0.3965
  853MOL0     C12493   6.099   0.126   0.720  0.8512  0.6622 -0.1761
  853MOL0     O12494   6.214   0.180   0.766 -0.4259  0.3922 -0.2156
  853MOL0     C12495   6.331   0.200   0.688 -0.2075  0.3166  0.6915
  853MOL0     C12496   6.324   0.233   0.548  0.0081  0.1868  0.3851
  853MOL0     C12497   6.436   0.286   0.481 -0.2787 -0.0440  0.0053
  853MOL0     C12498   6.560   0.297   0.550 -0.4506  0.2668 -0.4722
  853MOL0     O12499   6.673   0.315   0.475  0.3189  0.1682  1.3074
  853MOL0     C12500   6.790   0.352   0.533 -0.8985  0.1825  0.4843
  853MOL0     C12501   6.894   0.362   0.423  0.2282 -1.1603  0.2693
  853MOL0     C12502   7.012   0.466   0.460  0.0562  0.4336  0.0677
  853MOL0     C12503   7.108   0.421   0.575  0.4347 -0.1880 -0.6442
  853MOL0     C12504   7.195   0.534   0.605 -0.2938  1.0193  0.1589
  853MOL0     C12505   7.306   0.500   0.698  0.1130 -0.2769 -0.6370
  853MOL0     C12506   7.409   0.616   0.730  0.4358  0.2969  0.6387
  853MOL0     C12507   7.504   0.588   0.849 -0.4597 -0.7759  0.5813
  853MOL0    Cl12508   7.470   0.700   0.984  0.1271 -0.4740 -0.0379
  853MOL0     C12509   6.567   0.263   0.687 -0.5019 -0.1890  0.8383
  853MOL0     C12510   6.449   0.214   0.748 -0.1247 -0.6577  0.0599
  853MOL0     O12511   6.072   0.106   0.602  0.2733 -0.4712 -0.8971
  853MOL0     C12512   6.009   0.149   0.944 -0.4677 -1.0567  0.1961
  853MOL0     C12513   5.911   0.139   1.036  0.2019  0.1264 -0.3270
  853MOL0     N12514   5.064  -0.055   1.205  0.4681 -0.5560  0.0372
  853MOL0     N12515   4.943  -0.077   1.259  0.2878 -0.4952 -0.3156
  853MOL0     C12516   5.075   0.529   1.295 -0.4710  0.3502  0.4436
  853MOL0     C12517   5.174   0.524   1.187 -0.1859  0.5634 -0.0484
  853MOL0     C12518   5.410   0.380   0.840  0.1804  0.1518 -0.6082
  853MOL0     C12519   5.541   0.320   0.844  0.4152  0.7380  0.0149
  853MOL0     C12520   5.608   0.278   0.728 -0.1451 -1.7813  0.2315
  853MOL0     C12521   5.541   0.291   0.605 -0.2004 -0.1005 -0.8123
  853MOL0     O12522   5.586   0.276   0.483 -0.0090 -0.5523 -0.0701
  853MOL0     C12523   5.729   0.259   0.464  0.5316 -0.7086  0.7765
  853MOL0     C12524   5.788   0.298   0.319 -0.0352 -0.8950  0.4545
  853MOL0     C12525   5.933   0.268   0.303  0.3586  0.4815  0.9865
  853MOL0     C12526   6.020   0.380   0.362 -0.5680 -0.5924  0.3739
  853MOL0     C12527   6.000   0.511   0.288 -0.7166  0.1645  0.4228
  853MOL0     C12528   5.986   0.600   0.216 -0.0811  0.1530  0.3451
  853MOL0     C12529   5.418   0.356   0.604  0.1345  0.2226  0.5077
  853MOL0     C12530   5.350   0.392   0.722  0.7246 -0.6331  0.3162
  853MOL0     H12531   4.968   0.368   0.955  2.0953  1.6187 -1.3703
  853MOL0     H12532   4.817   0.376   1.138 -1.4647  1.8843  0.3271
  853MOL0     H12533   4.749   0.595   1.226 -0.5512  0.9675  0.7186
  853MOL0     H12534   4.827   0.688   1.346 -2.3305  0.9011  0.7905
  853MOL0     H12535   4.577   0.670   1.351 -1.3146 -1.7289  0.2142
  853MOL0     H12536   4.661   0.660   1.509  0.6241  1.3948  0.3355
  853MOL0     H12537   4.476   0.499   1.493  0.4700 -1.1552  2.7350
  853MOL0     H12538   4.630   0.398   1.479 -0.3883 -0.0450  0.9713
  853MOL0     H12539   4.437   0.458   1.255 -0.9203  0.9893  2.2471
  853MOL0     H12540   4.608   0.417   1.235 -0.9380  4.2210 -0.9046
  853MOL0     H12541   4.463   0.216   1.204 -1.0240  1.7482 -0.9723
  853MOL0     H12542   4.384   0.246   1.361  1.7257 -2.1455  1.3579
  853MOL0     H12543   4.523   0.064   1.394 -1.8234  0.2401 -0.1915
  853MOL0     H12544   4.560   0.209   1.494  3.1616  3.1069 -1.5285
  853MOL0     H12545   4.704   0.105   1.241 -2.1227 -0.5282  0.3109
  853MOL0     H12546   4.768   0.242   1.345 -0.1204 -0.6311  1.0633
  853MOL0     H12547   4.730  -0.050   1.401 -0.4417  0.3758 -1.8512
  853MOL0     H12548   4.805   0.067   1.521  0.6665 -0.6928  0.8463
  853MOL0     H12549   5.038   0.198   1.416 -1.5143  1.6889 -2.7291
  853MOL0     H12550   5.294   0.174   1.316  2.1014  1.0344 -1.2345
  853MOL0     H12551   5.256   0.172   1.146  2.6872 -1.9018 -1.3628
  853MOL0     H12552   5.350  -0.054   1.117  3.2499 -1.4614 -0.5635
  853MOL0     H12553   5.347  -0.071   1.301  3.1150  0.3684  0.6334
  853MOL0     H12554   5.495   0.167   1.227  0.3551  1.1257  0.2165
  853MOL0     H12555   5.555   0.031   1.311  1.2657  3.5468 -0.4726
  853MOL0     H12556   5.540   0.033   1.014 -1.1074 -1.0727  0.6195
  853MOL0     H12557   5.596  -0.107   1.108  0.6503 -0.0731 -0.0371
  853MOL0     H12558   5.709  -0.076   0.869 -1.3280  3.3737 -4.1220
  853MOL0     H12559   5.863  -0.047   0.701 -2.4500  2.8069 -1.6397
  853MOL0     H12560   6.240   0.233   0.479  1.0011 -0.7710 -0.8862
  853MOL0     H12561   6.437   0.308   0.375  0.4867 -3.5657 -0.8617
  853MOL0     H12562   6.822   0.275   0.605 -0.5891 -0.1244  0.0209
  853MOL0     H12563   6.773   0.442   0.592  0.2052 -0.1734  1.3884
  853MOL0     H12564   6.845   0.402   0.333 -0.8505 -1.8748  0.5152
  853MOL0     H12565   6.936   0.266   0.394  0.6082 -0.5568 -1.2730
  853MOL0     H12566   6.969   0.563   0.488 -0.1186 -0.1660  1.9922
  853MOL0     H12567   7.075   0.482   0.372  1.8172 -1.2800  0.9471
  853MOL0     H12568   7.047   0.390   0.660 -0.0500  3.2093  0.4088
  853MOL0     H12569   7.178   0.341   0.549  0.8061  0.0557 -0.4135
  853MOL0     H12570   7.142   0.619   0.650  0.0917  1.9618 -1.1107
  853MOL0     H12571   7.232   0.578   0.512  0.3750  0.4400  0.1462
  853MOL0     H12572   7.359   0.409   0.667  2.6352  0.8066  0.2313
  853MOL0     H12573   7.262   0.477   0.796  1.2529  2.9950  0.7988
  853MOL0     H12574   7.486   0.625   0.653 -0.8211  0.1464 -0.6698
  853MOL0     H12575   7.358   0.710   0.754  1.4468  0.3453  2.8157
  853MOL0     H12576   7.602   0.623   0.813 -1.8095  0.9224 -1.8127
  853MOL0     H12577   7.507   0.483   0.879 -2.1378 -1.0533 -0.0792
  853MOL0     H12578   6.662   0.276   0.739  0.1830 -0.9137 -0.1833
  853MOL0     H12579   6.446   0.184   0.853 -1.0829  1.2042  0.6007
  853MOL0     H12580   6.083   0.225   0.967  1.2205 -3.1504  2.1661
  853MOL0     H12581   5.911   0.198   1.127 -1.2712 -1.3076  0.6672
  853MOL0     H12582   5.097   0.584   1.385 -3.5534 -1.1982  2.3216
  853MOL0     H12583   5.266   0.580   1.198 -0.6524  1.1928  0.7331
  853MOL0     H12584   5.592   0.320   0.940 -2.4991 -0.9498  1.7372
  853MOL0     H12585   5.711   0.242   0.721  0.8605  0.9016 -0.2203
  853MOL0     H12586   5.752   0.154   0.488  6.1828  0.1227  0.3610
  853MOL0     H12587   5.780   0.319   0.540 -2.3453  1.6334  1.0347
  853MOL0     H12588   5.732   0.233   0.250 -2.0773  1.6799 -0.4938
  853MOL0     H12589   5.768   0.403   0.294  0.8916 -0.1892  2.5380
  853MOL0     H12590   5.947   0.259   0.195 -0.9313 -0.0792  0.8429
  853MOL0     H12591   5.960   0.172   0.348  1.8425 -0.4883 -1.7374
  853MOL0     H12592   5.997   0.385   0.469 -3.0338 -0.0493 -0.1338
  853MOL0     H12593   6.128   0.360   0.354 -0.6350 -0.7393 -0.2150
  853MOL0     H12594   5.964   0.672   0.140 -1.7196  0.0843  0.7205
  853MOL0     H12595   5.355   0.361   0.515  1.4233 -0.3065 -0.4708
  853MOL0     H12596   5.244   0.408   0.706  0.4010 -2.9344 -0.2434
  854MOL0     O12597   1.712   1.097  11.110 -0.0495 -0.7470  0.0625
  854MOL0     C12598   1.722   1.217  11.129  0.7333  0.4344  1.0487
  854MOL0     O12599   1.646   1.285  11.225  0.1717 -0.1840  0.3914
  854MOL0     C12600   1.514   1.253  11.242 -0.2206  0.1358  0.4093
  854MOL0     C12601   1.421   1.231  11.133  0.0966 -0.5019 -0.6024
  854MOL0     C12602   1.290   1.185  11.159  0.6000 -0.5155 -0.5617
  854MOL0     C12603   1.242   1.190  11.290  0.2579  0.5545 -0.1634
  854MOL0     O12604   1.110   1.161  11.328  0.0044 -0.0469 -0.4392
  854MOL0     C12605   1.015   1.164  11.221  0.8035  0.1266  0.6080
  854MOL0     C12606   0.871   1.158  11.264  0.2753  0.1323  0.4584
  854MOL0     C12607   0.827   1.012  11.279  0.0185 -0.4236  0.4575
  854MOL0     C12608   0.683   0.985  11.331 -0.1138 -0.7280  0.2473
  854MOL0     C12609   0.650   0.828  11.330 -0.3444  1.0146 -0.6305
  854MOL0     C12610   0.535   0.796  11.422 -0.2874  0.0430 -0.1777
  854MOL0     C12611   0.475   0.656  11.395  0.6370  0.4219  0.2300
  854MOL0     C12612   0.394   0.613  11.512 -0.0122  0.0130 -1.0426
  854MOL0     N12613   0.281   0.710  11.551  0.1093  0.0359 -0.2808
  854MOL0     C12614   0.156   0.674  11.524  0.3943 -0.3390  0.3323
  854MOL0     C12615   0.077   0.769  11.589 -0.3157 -0.0609  0.4399
  854MOL0     C12616  -0.074   0.781  11.610 -0.4200 -0.0022  0.0802
  854MOL0     C12617  -0.138   0.855  11.490 -0.1004  0.4357 -0.4848
  854MOL0     C12618  -0.286   0.824  11.479 -0.6698 -0.3774 -0.5413
  854MOL0     C12619  -0.357   0.887  11.356  0.1454 -0.1401 -0.7728
  854MOL0     O12620  -0.490   0.841  11.351  0.1070  0.3709  0.5827
  854MOL0     C12621  -0.582   0.880  11.441 -0.7827 -0.0101 -0.2333
  854MOL0     C12622  -0.571   0.997  11.516 -0.0957 -0.9996 -0.4594
  854MOL0     C12623  -0.682   1.030  11.596 -0.1531 -0.6444  0.1313
  854MOL0     C12624  -0.792   0.946  11.615  0.1011  0.1085  0.3862
  854MOL0     C12625  -0.895   0.988  11.716 -0.5744 -0.0273 -0.0001
  854MOL0     O12626  -0.996   0.893  11.747 -0.4171 -0.0641  0.2594
  854MOL0     C12627  -1.102   0.925  11.823  0.7977 -0.9007 -0.2139
  854MOL0     C12628  -1.231   0.884  11.784  0.3119 -0.1108 -0.2554
  854MOL0     C12629  -1.341   0.900  11.866  0.6565 -0.0951  0.1841
  854MOL0     C12630  -1.334   0.997  11.964 -0.0783  0.1426 -1.0099
  854MOL0     O12631  -1.445   1.042  12.034 -0.9883 -0.1397 -0.5181
  854MOL0     C12632  -1.556   0.965  12.051 -0.2691  0.3637  0.7548
  854MOL0     C12633  -1.645   1.028  12.163 -0.0955  0.4555 -0.5476
  854MOL0     C12634  -1.781   0.955  12.175 -0.6197 -0.0163  0.2076
  854MOL0     C12635  -1.875   0.994  12.290 -0.2004  0.4721 -0.3164
  854MOL0     C12636  -2.001   0.917  12.295 -0.0829 -0.1631 -0.2143
  854MOL0     C12637  -2.100   0.963  12.191  0.0473  0.6501  0.9221
  854MOL0     C12638  -2.134   1.112  12.204  0.2622  0.4608  0.3029
  854MOL0     C12639  -2.225   1.131  12.327 -0.4836 -0.4128  0.3758
  854MOL0    Cl12640  -2.388   1.080  12.293  0.3788 -0.1977  0.1199
  854MOL0     C12641  -1.208   1.052  11.990  0.4191 -0.0962  0.1685
  854MOL0     C12642  -1.086   1.014  11.932 -0.3241  0.7716 -0.3345
  854MOL0     O12643  -0.886   1.100  11.762 -0.4232  0.0364  0.2367
  854MOL0     C12644  -0.794   0.824  11.555 -0.8688  0.5170 -0.3315
  854MOL0     C12645  -0.692   0.792  11.463  0.4890 -0.3776 -0.8951
  854MOL0     N12646   0.163   0.849  11.664  0.0713 -0.0176  0.3417
  854MOL0     N12647   0.280   0.819  11.639 -0.4409 -0.2616  0.0284
  854MOL0     C12648   1.329   1.218  11.391  0.2316 -0.7783  0.6298
  854MOL0     C12649   1.467   1.245  11.375  0.5024  0.4372  0.2273
  854MOL0     C12650   1.821   1.285  11.053 -0.8040 -0.0547  0.8054
  854MOL0     C12651   1.939   1.224  11.022 -0.6828 -0.2163  0.2895
  854MOL0     C12652   2.043   1.293  10.960 -0.7561 -0.0692  0.0309
  854MOL0     C12653   2.025   1.418  10.905  0.4071  0.5981  0.7110
  854MOL0     O12654   2.127   1.457  10.827  0.3203  0.4918  0.0456
  854MOL0     C12655   2.136   1.599  10.784 -0.2822  0.1593 -0.0976
  854MOL0     C12656   2.191   1.610  10.644  0.2488  0.3511 -0.4586
  854MOL0     C12657   2.125   1.533  10.526  0.2075 -0.2777  0.3148
  854MOL0     C12658   2.156   1.580  10.390  0.3470  0.5428 -0.1218
  854MOL0     C12659   2.087   1.693  10.360 -0.3977  0.6829 -0.1858
  854MOL0     C12660   2.042   1.798  10.337  0.0334  0.7053  0.0121
  854MOL0     C12661   1.902   1.487  10.923  0.3036  0.4891 -0.1157
  854MOL0     C12662   1.802   1.421  11.000  0.7345  0.0138 -0.0118
  854MOL0     H12663   1.452   1.249  11.030  2.8279  1.6486  0.4578
  854MOL0     H12664   1.232   1.144  11.078 -2.5222  1.5914  0.4283
  854MOL0     H12665   1.032   1.084  11.148 -1.6283  0.5991 -0.5726
  854MOL0     H12666   1.011   1.266  11.183  0.4070 -0.2974 -0.5085
  854MOL0     H12667   0.804   1.219  11.202 -0.1645  0.1001  0.8939
  854MOL0     H12668   0.865   1.211  11.360 -1.8710 -0.1985  0.5618
  854MOL0     H12669   0.899   0.962  11.345  1.0256 -1.6223 -1.4852
  854MOL0     H12670   0.833   0.965  11.181  0.0798 -0.8999  0.6818
  854MOL0     H12671   0.674   1.045  11.422  1.5569  1.1350 -0.7449
  854MOL0     H12672   0.618   1.038  11.261  0.7107  2.1561  1.5353
  854MOL0     H12673   0.737   0.769  11.361 -0.6532  0.7548 -0.2548
  854MOL0     H12674   0.629   0.790  11.229 -1.6379 -0.0725  0.0131
  854MOL0     H12675   0.456   0.871  11.423 -1.4202 -1.1074  0.8556
  854MOL0     H12676   0.577   0.799  11.523  2.0043 -0.9865 -1.0198
  854MOL0     H12677   0.412   0.649  11.306  4.0317  1.7317 -2.4937
  854MOL0     H12678   0.556   0.588  11.366  1.2362  1.8080 -1.5453
  854MOL0     H12679   0.461   0.597  11.597  1.0384  1.8318 -1.4779
  854MOL0     H12680   0.349   0.514  11.498  0.4374 -0.5220  0.9592
  854MOL0     H12681   0.125   0.603  11.448  0.0766  0.1926 -0.0413
  854MOL0     H12682  -0.089   0.835  11.704 -3.2701  1.1366 -0.9219
  854MOL0     H12683  -0.114   0.681  11.625 -1.9331  0.6979  0.8682
  854MOL0     H12684  -0.105   0.817  11.393 -3.8967  2.6584 -2.9331
  854MOL0     H12685  -0.118   0.962  11.490 -0.6411  0.5448  0.0493
  854MOL0     H12686  -0.304   0.716  11.483  1.6600 -0.8235  2.6767
  854MOL0     H12687  -0.327   0.871  11.569 -1.1364 -0.6763 -0.5939
  854MOL0     H12688  -0.289   0.865  11.273  1.3796  2.0960 -0.4367
  854MOL0     H12689  -0.366   0.996  11.366 -1.9454 -0.0865 -2.4611
  854MOL0     H12690  -0.493   1.071  11.506 -0.5607 -0.1699  1.5311
  854MOL0     H12691  -0.680   1.124  11.651  0.0988 -0.4343 -0.2384
  854MOL0     H12692  -1.244   0.841  11.685  1.5488  1.2827 -1.0655
  854MOL0     H12693  -1.434   0.847  11.844  0.0123 -1.4057  4.8403
  854MOL0     H12694  -1.531   0.862  12.079  1.0444  0.2059 -0.8277
  854MOL0     H12695  -1.620   0.957  11.963 -1.9952 -0.2815  2.0003
  854MOL0     H12696  -1.645   1.132  12.128  3.8199  0.7835  0.0190
  854MOL0     H12697  -1.599   1.027  12.263 -2.1488  1.4174  0.4710
  854MOL0     H12698  -1.754   0.848  12.173  0.9094  0.1256  4.0406
  854MOL0     H12699  -1.833   0.975  12.081 -1.9634  0.0062  0.9261
  854MOL0     H12700  -1.832   0.966  12.387 -0.4359 -2.5017 -0.9581
  854MOL0     H12701  -1.879   1.103  12.289  1.1942  0.5485 -0.4450
  854MOL0     H12702  -2.045   0.926  12.395 -0.3931 -0.6537 -0.3036
  854MOL0     H12703  -1.973   0.812  12.280  0.4156 -0.4465  2.2058
  854MOL0     H12704  -2.194   0.908  12.198  0.9081 -1.6495 -2.8866
  854MOL0     H12705  -2.061   0.949  12.090  1.6187  2.8815  1.1423
  854MOL0     H12706  -2.044   1.175  12.209  0.1256  0.8499 -1.3775
  854MOL0     H12707  -2.192   1.141  12.116 -1.3115  1.4872  1.6215
  854MOL0     H12708  -2.225   1.239  12.345 -0.5213  0.3181 -3.1878
  854MOL0     H12709  -2.190   1.069  12.409 -1.1145 -2.4887 -0.8581
  854MOL0     H12710  -1.204   1.114  12.080  0.6305  1.5685 -0.9355
  854MOL0     H12711  -0.994   1.059  11.967  1.1454 -1.6362 -0.8239
  854MOL0     H12712  -0.872   0.751  11.576  0.7757 -1.5339 -1.0642
  854MOL0     H12713  -0.697   0.696  11.412 -1.4894  0.0099 -1.5350
  854MOL0     H12714   1.291   1.232  11.492 -2.7547  1.4892 -0.6511
  854MOL0     H12715   1.541   1.273  11.450 -2.3160 -0.6191  3.6632
  854MOL0     H12716   1.966   1.123  11.052 -0.5809 -0.4762 -0.6498
  854MOL0     H12717   2.129   1.234  10.929 -0.5510  0.8583 -1.1932
  854MOL0     H12718   2.209   1.649  10.849 -0.5616  1.9824 -1.1382
  854MOL0     H12719   2.043   1.654  10.798 -0.4731 -0.3082  0.5297
  854MOL0     H12720   2.182   1.715  10.613  0.8920  0.5799  0.1160
  854MOL0     H12721   2.294   1.573  10.645 -0.5362 -2.1593 -1.9724
  854MOL0     H12722   2.017   1.537  10.544 -0.0925 -2.6503 -0.6095
  854MOL0     H12723   2.148   1.427  10.534 -2.0321 -0.7361  1.7535
  854MOL0     H12724   2.262   1.586  10.362  0.4833 -1.7786 -0.2919
  854MOL0     H12725   2.117   1.497  10.331 -0.5518  1.8916 -1.4885
  854MOL0     H12726   1.976   1.881  10.322 -1.5647  0.2689  3.5095
  854MOL0     H12727   1.875   1.584  10.884  2.0605  1.2906  0.5847
  854MOL0     H12728   1.709   1.473  11.018  1.0157 -0.1434  2.2347
  855MOL0     O12729   5.623   1.171   5.803 -0.2323 -0.0974  0.4683
  855MOL0     C12730   5.690   1.254   5.739 -0.4613  0.7417  0.1820
  855MOL0     O12731   5.660   1.395   5.728  0.3301  1.6657 -0.1985
  855MOL0     C12732   5.532   1.449   5.770 -0.2953 -0.2422 -0.1459
  855MOL0     C12733   5.519   1.591   5.768 -0.9514 -0.3107 -0.7870
  855MOL0     C12734   5.401   1.645   5.803 -0.3670 -0.2370  0.1053
  855MOL0     C12735   5.289   1.564   5.843 -0.4408 -1.0139 -0.0172
  855MOL0     O12736   5.174   1.640   5.873 -0.6941  0.2618  0.3386
  855MOL0     C12737   5.050   1.571   5.879 -0.3520 -0.1139  0.1646
  855MOL0     C12738   4.939   1.676   5.918 -1.0593  0.0209  0.8801
  855MOL0     C12739   4.803   1.666   5.865  0.1929 -0.1390  0.8683
  855MOL0     C12740   4.715   1.789   5.877 -0.1316  1.0728  0.4913
  855MOL0     C12741   4.570   1.759   5.827 -0.1768  0.7515 -0.2203
  855MOL0     C12742   4.485   1.878   5.821 -0.1939 -0.2266  0.3583
  855MOL0     C12743   4.344   1.840   5.782  0.5762 -0.0199  0.2512
  855MOL0     C12744   4.273   1.952   5.721  0.8402  0.3126  0.5811
  855MOL0     N12745   4.138   1.950   5.774 -1.1629 -1.0950  0.7481
  855MOL0     C12746   4.028   1.893   5.721  0.3910  0.3356  0.7383
  855MOL0     C12747   3.932   1.926   5.818 -0.1098 -0.1033  0.1109
  855MOL0     C12748   3.798   1.870   5.821  0.5681 -0.8405  0.2895
  855MOL0     C12749   3.698   1.953   5.741 -0.4859  0.0903 -0.1452
  855MOL0     C12750   3.545   1.906   5.754 -0.4037 -0.1413  0.8257
  855MOL0     C12751   3.514   1.752   5.756 -0.2867 -0.1478 -0.9928
  855MOL0     O12752   3.381   1.724   5.803 -0.5779 -0.6539 -1.0809
  855MOL0     C12753   3.272   1.808   5.787 -0.4771  0.2973 -0.2465
  855MOL0     C12754   3.226   1.850   5.660  0.3503 -0.3143  0.0902
  855MOL0     C12755   3.103   1.922   5.648  0.0609 -0.0162 -0.3763
  855MOL0     C12756   3.031   1.943   5.771  0.5978 -0.5433 -0.3083
  855MOL0     C12757   2.896   2.002   5.766  0.0718  0.1826 -0.8396
  855MOL0     O12758   2.822   1.976   5.870  0.6583 -0.8037 -0.1562
  855MOL0     C12759   2.685   2.022   5.868 -1.3944 -0.1820 -0.4446
  855MOL0     C12760   2.596   1.941   5.920  0.1566  1.2926  0.3909
  855MOL0     C12761   2.474   1.987   5.959 -0.6346 -0.1290 -0.2374
  855MOL0     C12762   2.441   2.124   5.958 -0.4967 -1.1248 -0.1553
  855MOL0     O12763   2.318   2.167   5.997  0.6749  0.7906  0.3803
  855MOL0     C12764   2.298   2.303   6.028  0.9212  0.0889 -0.9452
  855MOL0     C12765   2.176   2.320   6.114 -0.0341  0.3133 -0.3921
  855MOL0     C12766   2.129   2.468   6.137 -0.0152 -0.1817 -0.2058
  855MOL0     C12767   1.998   2.471   6.218  0.2680  1.0920  0.0549
  855MOL0     C12768   1.940   2.610   6.234  0.3197  0.3643  0.2468
  855MOL0     C12769   1.799   2.606   6.297 -0.0317 -0.3809  0.0677
  855MOL0     C12770   1.751   2.753   6.311 -0.4099 -0.3552  0.3291
  855MOL0     C12771   1.630   2.759   6.399  0.9840  0.6448  0.0104
  855MOL0    Cl12772   1.504   2.685   6.299  0.1404 -0.6376 -0.0613
  855MOL0     C12773   2.534   2.205   5.897 -0.1718 -0.1700 -0.5534
  855MOL0     C12774   2.658   2.154   5.856  0.3354 -0.1853 -0.0194
  855MOL0     O12775   2.860   2.072   5.667  0.9472  0.1751 -0.5741
  855MOL0     C12776   3.085   1.910   5.897  0.1039  0.3065  0.4201
  855MOL0     C12777   3.208   1.833   5.904  0.3822 -0.2303 -0.5614
  855MOL0     N12778   3.986   2.003   5.912 -0.2817 -0.4771 -0.7070
  855MOL0     N12779   4.109   2.022   5.885 -0.8933  0.7485 -0.2554
  855MOL0     C12780   5.304   1.431   5.849 -0.1249  0.0451  0.4960
  855MOL0     C12781   5.418   1.373   5.809 -0.3261 -0.0455 -0.3922
  855MOL0     C12782   5.821   1.210   5.687  0.4321 -0.2531 -0.6526
  855MOL0     C12783   5.898   1.293   5.606  0.3656 -0.4014 -0.6514
  855MOL0     C12784   6.013   1.254   5.538 -1.1714 -0.6941 -0.2796
  855MOL0     C12785   6.069   1.127   5.570  0.2161 -0.2996  0.5467
  855MOL0     O12786   6.187   1.076   5.528  0.3888  1.0204 -0.9496
  855MOL0     C12787   6.277   1.157   5.452  0.9604 -0.3143 -0.2486
  855MOL0     C12788   6.234   1.141   5.303  0.6988  0.1413  0.1315
  855MOL0     C12789   6.230   1.278   5.227  0.4315 -0.0850  0.6371
  855MOL0     C12790   6.181   1.252   5.082  0.2888 -0.3742  0.9414
  855MOL0     C12791   6.034   1.214   5.071  0.4177 -0.4707 -0.7150
  855MOL0     C12792   5.912   1.193   5.064  0.1366 -0.2573  0.0662
  855MOL0     C12793   5.994   1.041   5.656 -0.0499 -0.9500 -0.9100
  855MOL0     C12794   5.867   1.080   5.700  0.2038 -0.6471  0.0927
  855MOL0     H12795   5.599   1.649   5.725 -1.0100  0.2688 -0.1164
  855MOL0     H12796   5.396   1.753   5.810  3.2102  0.0243  0.3799
  855MOL0     H12797   5.044   1.498   5.961 -0.2767  0.3254  0.5654
  855MOL0     H12798   5.012   1.546   5.780  0.3364  2.1118 -0.7076
  855MOL0     H12799   4.974   1.777   5.895 -0.8073 -0.2819 -0.0919
  855MOL0     H12800   4.929   1.665   6.026  0.6663 -1.2900  0.9433
  855MOL0     H12801   4.753   1.582   5.914 -0.4991  0.0998  0.5763
  855MOL0     H12802   4.804   1.637   5.760 -0.2100  0.6126  0.6560
  855MOL0     H12803   4.707   1.810   5.984 -0.5775 -2.6350  1.3403
  855MOL0     H12804   4.749   1.873   5.817 -1.2311  1.9201  1.0119
  855MOL0     H12805   4.526   1.684   5.894 -0.7654  0.9108 -0.4278
  855MOL0     H12806   4.574   1.711   5.729 -0.4283 -0.2165  0.2310
  855MOL0     H12807   4.533   1.940   5.745  0.0236  0.2543  0.8789
  855MOL0     H12808   4.484   1.929   5.918  0.3207  1.2895 -0.4027
  855MOL0     H12809   4.329   1.756   5.713  0.6891  0.7088 -0.6754
  855MOL0     H12810   4.288   1.817   5.873 -1.7832  0.8590 -0.8956
  855MOL0     H12811   4.264   1.944   5.613 -2.3702  1.1090  0.6828
  855MOL0     H12812   4.319   2.046   5.754 -0.2492  0.3950  1.9690
  855MOL0     H12813   4.020   1.819   5.642 -1.8560  0.3983  0.8318
  855MOL0     H12814   3.754   1.870   5.921  1.1935 -1.4607  0.5753
  855MOL0     H12815   3.797   1.767   5.783  0.9584 -1.0409  0.8158
  855MOL0     H12816   3.727   1.962   5.636  1.0626  1.3654  0.3408
  855MOL0     H12817   3.703   2.058   5.773  0.7959 -0.1386  0.4928
  855MOL0     H12818   3.515   1.944   5.853 -0.7156  0.3431  0.5478
  855MOL0     H12819   3.492   1.961   5.676  2.5079 -2.1949 -2.9308
  855MOL0     H12820   3.587   1.700   5.818  1.3675  0.9050 -1.9738
  855MOL0     H12821   3.540   1.714   5.656  0.5556 -0.4906 -0.6506
  855MOL0     H12822   3.271   1.810   5.570 -2.3675 -3.9637  0.1222
  855MOL0     H12823   3.054   1.940   5.553 -0.4471  1.6020  0.1638
  855MOL0     H12824   2.610   1.836   5.942 -3.4423  0.8251  0.9917
  855MOL0     H12825   2.402   1.910   5.986 -1.1052 -0.2370 -1.6701
  855MOL0     H12826   2.277   2.369   5.943 -0.6801  2.0523  0.8832
  855MOL0     H12827   2.389   2.338   6.077  0.6458  0.4733 -0.7043
  855MOL0     H12828   2.207   2.268   6.205  5.4634  0.4228 -1.8435
  855MOL0     H12829   2.098   2.258   6.069  1.7680 -0.9190 -2.0190
  855MOL0     H12830   2.116   2.536   6.052 -0.1733  1.6431  1.2051
  855MOL0     H12831   2.202   2.528   6.193 -0.2600  2.6867 -2.6903
  855MOL0     H12832   1.924   2.411   6.163  2.3593 -2.0933  0.4292
  855MOL0     H12833   2.011   2.420   6.314 -0.0358 -0.3499 -0.6312
  855MOL0     H12834   1.950   2.662   6.138 -0.6184 -2.1327 -1.2922
  855MOL0     H12835   2.013   2.659   6.300 -1.3517  1.2617  1.5382
  855MOL0     H12836   1.804   2.568   6.399 -1.1367  0.5508  0.4888
  855MOL0     H12837   1.734   2.539   6.240 -0.9191 -2.5235  3.3376
  855MOL0     H12838   1.831   2.809   6.359  0.3623 -0.7321 -0.4943
  855MOL0     H12839   1.730   2.800   6.214  1.7377  0.8235  0.3752
  855MOL0     H12840   1.599   2.863   6.408  2.2737  1.3447 -2.6198
  855MOL0     H12841   1.641   2.725   6.502  0.1771 -0.3388 -0.2126
  855MOL0     H12842   2.514   2.312   5.891  1.2403  0.1033 -0.5756
  855MOL0     H12843   2.740   2.221   5.831  2.2164 -1.5341  2.1399
  855MOL0     H12844   3.025   1.928   5.985 -3.5022 -1.8300 -1.3779
  855MOL0     H12845   3.250   1.801   5.999  0.8008 -0.2736 -0.7616
  855MOL0     H12846   5.213   1.375   5.869 -0.6238  0.5685 -0.2509
  855MOL0     H12847   5.406   1.265   5.812  0.0683 -0.1591 -2.1409
  855MOL0     H12848   5.859   1.394   5.599 -1.2144 -1.0045 -1.0448
  855MOL0     H12849   6.057   1.326   5.470 -0.3080 -0.1370  0.8297
  855MOL0     H12850   6.377   1.120   5.476  0.8453 -2.2648 -2.3795
  855MOL0     H12851   6.275   1.264   5.476  2.4747 -0.5506  1.1068
  855MOL0     H12852   6.303   1.074   5.251  0.0045 -1.5196  1.2726
  855MOL0     H12853   6.132   1.104   5.295  0.2703  0.8345  1.9896
  855MOL0     H12854   6.322   1.338   5.219  1.2167 -0.9329  2.5145
  855MOL0     H12855   6.161   1.340   5.286  0.4151 -1.7994  2.5222
  855MOL0     H12856   6.204   1.343   5.027 -2.1597 -1.2981 -1.8788
  855MOL0     H12857   6.246   1.189   5.021 -0.1371 -0.1228  0.2093
  855MOL0     H12858   5.809   1.165   5.068  0.1417 -0.5869 -1.3625
  855MOL0     H12859   6.030   0.940   5.673  1.0767 -0.6099 -1.1899
  855MOL0     H12860   5.820   1.015   5.772 -1.0630  0.6609  0.4786
  856MOL0     O12861  10.586   6.250   4.626  0.1478  0.1269 -0.2492
  856MOL0     C12862  10.583   6.211   4.513  0.5404  0.2585  0.1430
  856MOL0     O12863  10.470   6.174   4.452 -0.2439  0.2792 -0.4389
  856MOL0     C12864  10.355   6.138   4.520 -0.2628  0.1671  0.4576
  856MOL0     C12865  10.246   6.124   4.440  0.5836  0.4958  0.1093
  856MOL0     C12866  10.124   6.077   4.482  0.1601  0.2807 -0.7010
  856MOL0     C12867  10.093   6.060   4.619 -0.7096 -0.2862  0.4935
  856MOL0     O12868   9.966   6.039   4.665  0.4988  0.4242 -0.2051
  856MOL0     C12869   9.928   6.111   4.787  0.0575  0.2567 -0.0596
  856MOL0     C12870   9.774   6.106   4.826  0.1173  0.3139  0.5333
  856MOL0     C12871   9.689   6.195   4.740 -0.4543 -0.3427 -0.3582
  856MOL0     C12872   9.552   6.166   4.796  0.8107  0.1607 -0.5387
  856MOL0     C12873   9.440   6.222   4.708 -0.6943  0.1793  0.1685
  856MOL0     C12874   9.305   6.160   4.751 -0.0480  0.3315 -0.3741
  856MOL0     C12875   9.196   6.220   4.662  0.1132  0.6403 -0.0765
  856MOL0     C12876   9.066   6.148   4.690  0.1637  0.0832 -0.9323
  856MOL0     N12877   8.958   6.204   4.609  0.2486  0.2333  0.2249
  856MOL0     C12878   8.955   6.320   4.527  0.5547 -0.6146 -0.0855
  856MOL0     C12879   8.830   6.334   4.486 -0.4991 -0.7756  0.3093
  856MOL0     C12880   8.776   6.444   4.401 -0.6921 -0.3339  0.1323
  856MOL0     C12881   8.648   6.414   4.318  0.8382 -0.0314  0.0012
  856MOL0     C12882   8.673   6.314   4.202 -0.8871  0.1851 -0.2974
  856MOL0     C12883   8.579   6.328   4.084 -0.2853 -0.1491 -0.5328
  856MOL0     O12884   8.446   6.366   4.118 -0.8421  0.4140  0.7369
  856MOL0     C12885   8.352   6.332   4.028 -0.0950 -0.8285  1.2421
  856MOL0     C12886   8.223   6.300   4.076 -0.3117 -1.0227  0.0638
  856MOL0     C12887   8.130   6.256   3.996  0.3683 -0.0648 -0.3810
  856MOL0     C12888   8.143   6.236   3.861 -1.0821 -0.0973 -0.0493
  856MOL0     C12889   8.026   6.196   3.780 -0.1216  0.3713  0.3197
  856MOL0     O12890   7.919   6.141   3.833  0.3972 -0.1871  0.0248
  856MOL0     C12891   7.822   6.090   3.758  0.2622  0.3041  0.7574
  856MOL0     C12892   7.840   6.007   3.645  0.1827 -0.0070  1.1481
  856MOL0     C12893   7.725   5.955   3.566 -0.5236  0.8240 -0.5395
  856MOL0     C12894   7.594   5.972   3.608  0.0901 -0.7966 -0.6497
  856MOL0     O12895   7.488   5.904   3.553 -0.1978  0.0793 -0.1560
  856MOL0     C12896   7.442   5.973   3.434 -0.9861 -0.1191  0.0009
  856MOL0     C12897   7.305   5.913   3.394 -0.2124  0.8143  0.4198
  856MOL0     C12898   7.194   5.955   3.497 -0.8908  1.0370  0.0212
  856MOL0     C12899   7.050   5.899   3.450 -0.2603 -0.2730  0.1024
  856MOL0     C12900   6.948   5.928   3.560  0.2435 -0.4501 -0.4384
  856MOL0     C12901   6.824   5.987   3.504  0.5226  1.0260 -0.1070
  856MOL0     C12902   6.716   6.006   3.610 -0.4150 -0.2846  0.6267
  856MOL0     C12903   6.630   6.129   3.582  0.2053  0.4809  0.7289
  856MOL0    Cl12904   6.564   6.122   3.418  0.2196 -0.5010  1.0151
  856MOL0     C12905   7.574   6.047   3.725 -0.3224  0.0245 -0.8188
  856MOL0     C12906   7.684   6.112   3.792  0.3768  0.4055  0.0671
  856MOL0     O12907   8.038   6.229   3.662  0.3003  0.6068  0.3388
  856MOL0     C12908   8.269   6.276   3.810 -1.1380 -0.3326  0.1556
  856MOL0     C12909   8.375   6.328   3.888  0.0047  0.5762  1.1210
  856MOL0     N12910   8.753   6.238   4.551 -0.2063  0.3309 -0.1148
  856MOL0     N12911   8.831   6.160   4.623  0.0702  0.5296  0.6886
  856MOL0     C12912  10.204   6.072   4.710 -0.3182 -0.0134  0.4409
  856MOL0     C12913  10.336   6.109   4.661  0.0740  0.3494 -0.1367
  856MOL0     C12914  10.696   6.257   4.431 -0.0255 -0.3282 -0.9923
  856MOL0     C12915  10.698   6.237   4.291  0.4333  0.0005 -0.3132
  856MOL0     C12916  10.793   6.296   4.217 -0.4040  0.0646 -0.0066
  856MOL0     C12917  10.904   6.364   4.278  0.2439 -0.7240 -0.7315
  856MOL0     O12918  11.010   6.413   4.192  0.1574  0.4032  0.4070
  856MOL0     C12919  11.122   6.482   4.249 -0.3478 -0.3164 -0.9379
  856MOL0     C12920  11.225   6.519   4.143  0.3592  0.6085  0.6222
  856MOL0     C12921  11.168   6.603   4.035  1.1527  0.1832 -0.2166
  856MOL0     C12922  11.266   6.630   3.928  0.2465 -0.7089  0.0365
  856MOL0     C12923  11.373   6.712   3.980 -0.0780 -0.8350 -0.2545
  856MOL0     C12924  11.468   6.769   4.026  0.3594 -0.0492 -0.5532
  856MOL0     C12925  10.898   6.382   4.418 -0.8624 -0.1875  0.1811
  856MOL0     C12926  10.801   6.323   4.498  0.4329  0.1379  0.5877
  856MOL0     H12927  10.265   6.129   4.333 -0.6578 -0.8466 -0.2052
  856MOL0     H12928  10.038   6.068   4.416  1.3246 -0.2645 -2.1986
  856MOL0     H12929   9.958   6.217   4.791  1.9486 -0.2677  0.7198
  856MOL0     H12930   9.974   6.058   4.871 -0.5202 -3.0737 -1.6708
  856MOL0     H12931   9.766   6.147   4.926  1.4830  1.4588  0.2152
  856MOL0     H12932   9.737   6.003   4.827 -0.7895  0.5938 -0.8963
  856MOL0     H12933   9.692   6.168   4.634  1.6535  0.5356 -0.5679
  856MOL0     H12934   9.718   6.301   4.747 -0.3760 -0.4358  1.1895
  856MOL0     H12935   9.536   6.058   4.796 -2.3027  0.5101  1.0676
  856MOL0     H12936   9.546   6.206   4.897  0.2593  0.1046 -0.5471
  856MOL0     H12937   9.468   6.207   4.603  2.2964  1.2176  0.7417
  856MOL0     H12938   9.445   6.331   4.702  1.8774  0.1525  0.7025
  856MOL0     H12939   9.292   6.189   4.856  1.5118  1.0782 -0.3542
  856MOL0     H12940   9.307   6.052   4.736 -0.7942  0.4144 -1.0697
  856MOL0     H12941   9.187   6.327   4.684 -2.9934  0.6735 -0.9439
  856MOL0     H12942   9.215   6.201   4.556  0.1888  3.7999 -0.7288
  856MOL0     H12943   9.031   6.169   4.791 -0.0083 -1.5578 -0.6360
  856MOL0     H12944   9.079   6.040   4.689  0.3645  0.1011 -0.3023
  856MOL0     H12945   9.042   6.371   4.488  0.6025  1.8109  2.8400
  856MOL0     H12946   8.856   6.476   4.334 -1.3354 -0.1262 -0.5423
  856MOL0     H12947   8.750   6.530   4.464 -1.6003 -0.1573 -0.4672
  856MOL0     H12948   8.598   6.498   4.269 -2.6215 -2.4013 -0.9512
  856MOL0     H12949   8.565   6.376   4.377  0.5114  0.3211 -0.2270
  856MOL0     H12950   8.778   6.318   4.170 -0.8882 -2.2886 -0.8344
  856MOL0     H12951   8.662   6.213   4.244  1.1632 -1.7360 -3.8741
  856MOL0     H12952   8.583   6.241   4.018 -3.4858  1.0118 -2.4865
  856MOL0     H12953   8.630   6.404   4.023 -0.8961 -0.3502 -1.3134
  856MOL0     H12954   8.204   6.302   4.183  1.5761 -1.5112  0.4554
  856MOL0     H12955   8.038   6.237   4.050  2.5755 -1.0903  3.3490
  856MOL0     H12956   7.941   5.980   3.613 -1.1508 -1.6534 -2.1710
  856MOL0     H12957   7.735   5.880   3.488 -1.1038 -0.3589  0.4916
  856MOL0     H12958   7.512   5.960   3.352  0.2157 -0.6692  1.0855
  856MOL0     H12959   7.434   6.081   3.452 -2.5152  0.1655 -1.9706
  856MOL0     H12960   7.317   5.806   3.376 -1.5226  0.6460  0.4473
  856MOL0     H12961   7.277   5.957   3.298  2.3594  1.9251  0.0988
  856MOL0     H12962   7.197   6.061   3.524  2.2395  0.4038  2.7973
  856MOL0     H12963   7.210   5.915   3.598  0.9480  1.5606 -0.0244
  856MOL0     H12964   7.029   5.954   3.357  1.2149 -3.4461 -2.3196
  856MOL0     H12965   7.055   5.793   3.425  1.8588  0.1000 -1.3726
  856MOL0     H12966   6.988   6.011   3.619 -0.0626 -2.1933  2.4089
  856MOL0     H12967   6.932   5.842   3.626  1.9174 -1.4572 -1.2636
  856MOL0     H12968   6.777   5.925   3.427 -0.3271 -0.8781  1.8426
  856MOL0     H12969   6.850   6.088   3.471 -2.6880  3.6804  4.2587
  856MOL0     H12970   6.656   5.914   3.615 -0.6781 -0.1096  0.7179
  856MOL0     H12971   6.765   6.021   3.707  1.1689  0.8694 -0.3333
  856MOL0     H12972   6.697   6.214   3.598  1.6349 -0.5353  0.3030
  856MOL0     H12973   6.545   6.136   3.650 -0.7785 -0.7002 -0.3222
  856MOL0     H12974   7.478   6.074   3.768  1.0126  0.6677  2.0455
  856MOL0     H12975   7.672   6.186   3.871  2.7024 -0.1546  1.0144
  856MOL0     H12976   8.272   6.261   3.703 -0.6775  2.6606 -0.3402
  856MOL0     H12977   8.472   6.352   3.846 -0.4826  0.0295 -0.4075
  856MOL0     H12978  10.185   6.027   4.807  0.8919 -1.6692 -0.0617
  856MOL0     H12979  10.420   6.088   4.727 -0.5739 -2.6930 -0.1004
  856MOL0     H12980  10.618   6.184   4.241  0.1605 -1.1155  1.2317
  856MOL0     H12981  10.781   6.294   4.109  0.4815  2.0259 -0.1935
  856MOL0     H12982  11.170   6.418   4.324 -0.1605  1.8270  0.9011
  856MOL0     H12983  11.089   6.572   4.302  1.9104  0.5163 -0.8475
  856MOL0     H12984  11.311   6.559   4.198 -0.4129  0.6805  1.8076
  856MOL0     H12985  11.269   6.428   4.102 -1.4237  0.7700 -1.9138
  856MOL0     H12986  11.136   6.695   4.085  1.7220  0.4433 -0.3209
  856MOL0     H12987  11.085   6.547   3.989  1.0233 -2.0696  2.4896
  856MOL0     H12988  11.306   6.544   3.874  0.7446  0.2660 -1.1851
  856MOL0     H12989  11.214   6.688   3.851 -1.6189 -0.0808  1.6700
  856MOL0     H12990  11.541   6.822   4.084 -0.6984  2.3037 -1.2456
  856MOL0     H12991  10.978   6.438   4.464  0.0601 -1.5305  0.2728
  856MOL0     H12992  10.807   6.337   4.605 -2.0025 -1.5992  1.0504
  857MOL0     O12993   7.313   2.357   2.373 -0.5046 -0.3883 -0.1385
  857MOL0     C12994   7.375   2.255   2.397 -0.6747  0.1275 -0.4193
  857MOL0     O12995   7.498   2.256   2.455 -0.4065  0.0769 -0.0240
  857MOL0     C12996   7.577   2.369   2.468  1.2175  0.4102  0.6175
  857MOL0     C12997   7.685   2.359   2.552 -0.5151  0.3975  0.2942
  857MOL0     C12998   7.786   2.459   2.554 -1.0855  1.1710  0.5772
  857MOL0     C12999   7.788   2.569   2.476  1.1955 -0.7252 -0.8430
  857MOL0     O13000   7.876   2.676   2.490  0.0965 -0.6224 -0.2274
  857MOL0     C13001   7.994   2.664   2.570 -0.1772 -0.1986 -0.9057
  857MOL0     C13002   8.093   2.777   2.529  0.5968 -0.5152  0.6766
  857MOL0     C13003   8.159   2.732   2.397  0.2688 -0.5928  0.1174
  857MOL0     C13004   8.264   2.835   2.359  0.1357 -0.1948 -0.7481
  857MOL0     C13005   8.308   2.824   2.218 -0.6554  0.6747 -0.0635
  857MOL0     C13006   8.458   2.843   2.198 -0.8239 -0.2081 -0.6149
  857MOL0     C13007   8.506   2.874   2.059  0.9157  0.0160 -1.1588
  857MOL0     C13008   8.459   2.770   1.948  0.3329 -0.3638 -0.1304
  857MOL0     N13009   8.571   2.736   1.858 -0.2136  0.0699 -0.2857
  857MOL0     C13010   8.606   2.822   1.756  0.9190 -0.0133 -0.2412
  857MOL0     C13011   8.699   2.759   1.684  0.7367 -0.2272  0.6480
  857MOL0     C13012   8.769   2.833   1.566 -0.6372 -0.5008  0.6078
  857MOL0     C13013   8.929   2.846   1.589  0.1472 -0.8223  0.0850
  857MOL0     C13014   9.001   2.772   1.485 -0.3371 -1.0031  0.3283
  857MOL0     C13015   8.963   2.632   1.484  0.1233  0.4080  0.0750
  857MOL0     O13016   9.045   2.549   1.406 -0.1921 -0.4248  0.1445
  857MOL0     C13017   9.156   2.498   1.460  0.4288  0.0598  0.0837
  857MOL0     C13018   9.151   2.406   1.569  0.9157  0.2267 -0.3066
  857MOL0     C13019   9.268   2.356   1.619 -0.0116  0.6477 -0.1208
  857MOL0     C13020   9.389   2.361   1.552 -0.0727 -0.5971 -0.4093
  857MOL0     C13021   9.511   2.286   1.588 -0.8727 -0.2499  0.1947
  857MOL0     O13022   9.615   2.290   1.504  0.4970 -0.7200  0.1953
  857MOL0     C13023   9.722   2.211   1.520  0.3823 -0.0079  0.3910
  857MOL0     C13024   9.717   2.069   1.530  0.9193  0.3007  0.9094
  857MOL0     C13025   9.823   1.987   1.498  0.6453 -0.2026 -0.1682
  857MOL0     C13026   9.936   2.045   1.444  1.1275 -1.0013 -0.9670
  857MOL0     O13027  10.031   1.960   1.401  0.6786  0.1198  0.4788
  857MOL0     C13028  10.158   2.013   1.367 -0.7925 -0.5668 -1.1728
  857MOL0     C13029  10.261   1.893   1.380 -0.2074 -0.7493  0.3984
  857MOL0     C13030  10.415   1.938   1.386  0.8068  0.7789  0.4136
  857MOL0     C13031  10.517   1.823   1.401 -0.4027 -1.0997 -0.1942
  857MOL0     C13032  10.656   1.877   1.422  0.5692 -0.8404 -0.3008
  857MOL0     C13033  10.756   1.774   1.422  0.4242 -0.1030 -0.3619
  857MOL0     C13034  10.885   1.829   1.371 -0.0725  0.2818 -0.2991
  857MOL0     C13035  11.000   1.727   1.400  0.7286 -0.2969 -0.6690
  857MOL0    Cl13036  11.137   1.783   1.314 -0.4516 -0.0967 -0.4145
  857MOL0     C13037   9.950   2.186   1.453 -0.8544  0.2322  0.0222
  857MOL0     C13038   9.845   2.268   1.486 -0.3077 -0.8119 -0.2637
  857MOL0     O13039   9.505   2.209   1.684  0.1082 -0.6100 -0.6282
  857MOL0     C13040   9.394   2.443   1.439 -0.2084  0.3786  0.7678
  857MOL0     C13041   9.281   2.510   1.395  0.6498 -0.7683  0.0881
  857MOL0     N13042   8.728   2.636   1.752 -0.1652 -0.9019  0.6840
  857MOL0     N13043   8.658   2.629   1.855  0.1084  0.0956  0.3440
  857MOL0     C13044   7.673   2.584   2.390  0.0509 -0.5846  0.5788
  857MOL0     C13045   7.570   2.488   2.385  0.5416 -0.1410 -0.1198
  857MOL0     C13046   7.309   2.126   2.386  0.1508 -0.0459 -0.3622
  857MOL0     C13047   7.178   2.114   2.343 -0.1872 -0.2421 -0.4493
  857MOL0     C13048   7.105   1.997   2.346  0.6664  0.5465  1.0850
  857MOL0     C13049   7.162   1.879   2.384 -0.9590  0.5547  0.1460
  857MOL0     O13050   7.098   1.754   2.394 -0.4875 -0.3519  0.5345
  857MOL0     C13051   6.975   1.740   2.328 -0.8050  0.1631 -0.3916
  857MOL0     C13052   6.920   1.606   2.368  1.0530  0.8314  0.1585
  857MOL0     C13053   6.779   1.580   2.308  0.1321  0.2695  0.2086
  857MOL0     C13054   6.716   1.441   2.342 -0.8445 -0.2067 -0.1889
  857MOL0     C13055   6.577   1.440   2.302  0.1984  0.0842  0.9396
  857MOL0     C13056   6.463   1.422   2.265 -0.3812  0.6776 -0.5752
  857MOL0     C13057   7.297   1.881   2.422  0.9027 -0.9496  0.4470
  857MOL0     C13058   7.365   2.008   2.431 -0.0628  0.3006  0.1891
  857MOL0     H13059   7.698   2.274   2.618  1.0316  1.5169  1.5133
  857MOL0     H13060   7.873   2.445   2.617  0.6005  1.7074 -1.5312
  857MOL0     H13061   8.048   2.569   2.568  0.7277  0.3162 -1.6147
  857MOL0     H13062   7.975   2.686   2.676  1.5731 -0.1204 -0.5824
  857MOL0     H13063   8.165   2.788   2.610  0.5098  0.5129  0.6261
  857MOL0     H13064   8.036   2.870   2.520 -0.2642 -0.8762  2.1060
  857MOL0     H13065   8.077   2.739   2.324 -1.8973  0.8489  2.5157
  857MOL0     H13066   8.198   2.630   2.402 -2.3550 -1.6949 -0.1456
  857MOL0     H13067   8.219   2.934   2.370  3.8040  1.9847 -3.1910
  857MOL0     H13068   8.345   2.828   2.433 -0.2751  2.1374  0.0288
  857MOL0     H13069   8.259   2.896   2.150 -2.9655 -1.6911 -1.0758
  857MOL0     H13070   8.287   2.723   2.182  2.6783  0.4529 -1.6853
  857MOL0     H13071   8.518   2.761   2.238  0.8714  1.4040  0.3054
  857MOL0     H13072   8.481   2.933   2.255 -2.6182 -0.2632  0.2753
  857MOL0     H13073   8.457   2.968   2.032  0.8760 -0.2401 -2.0249
  857MOL0     H13074   8.615   2.884   2.055  1.2572 -2.1976  0.6007
  857MOL0     H13075   8.377   2.809   1.887 -1.8096 -5.9797 -1.4430
  857MOL0     H13076   8.443   2.677   2.003  3.5870 -0.1822  1.3679
  857MOL0     H13077   8.558   2.915   1.730 -0.9660 -0.3629  1.6767
  857MOL0     H13078   8.731   2.932   1.540 -0.4407 -0.4852  0.3741
  857MOL0     H13079   8.738   2.780   1.475  2.0971  2.5732 -2.3991
  857MOL0     H13080   8.960   2.818   1.690 -1.1331  0.6512  0.9375
  857MOL0     H13081   8.952   2.953   1.586  1.8991 -1.1975 -1.0924
  857MOL0     H13082   8.977   2.817   1.388 -0.9024 -1.9470  0.0104
  857MOL0     H13083   9.109   2.778   1.498 -0.4112  1.6876  0.1753
  857MOL0     H13084   8.859   2.626   1.453  0.4110  1.6718 -1.2105
  857MOL0     H13085   8.967   2.604   1.590 -0.5273  1.4086  0.3769
  857MOL0     H13086   9.064   2.383   1.631  1.6956 -2.2650 -0.0310
  857MOL0     H13087   9.252   2.299   1.710 -2.2438  1.6824  0.1970
  857MOL0     H13088   9.623   2.018   1.547  0.8198  0.0050 -0.4105
  857MOL0     H13089   9.805   1.880   1.504 -0.9122 -0.0780 -1.9629
  857MOL0     H13090  10.189   2.089   1.440  0.2648 -2.4109  0.3899
  857MOL0     H13091  10.165   2.069   1.273 -1.5904  2.3661  0.3999
  857MOL0     H13092  10.246   1.817   1.303  1.5370 -0.3749 -0.3355
  857MOL0     H13093  10.239   1.852   1.480  2.2624  1.2563  1.8691
  857MOL0     H13094  10.411   2.012   1.466 -1.9384  0.1226  1.0119
  857MOL0     H13095  10.438   1.990   1.293  1.1575  2.3508  1.3563
  857MOL0     H13096  10.508   1.773   1.498  2.6726  0.8251  1.2356
  857MOL0     H13097  10.511   1.755   1.315 -2.1606 -3.6213  1.7887
  857MOL0     H13098  10.665   1.948   1.505 -0.4182  0.2965 -1.1358
  857MOL0     H13099  10.678   1.945   1.340  0.5253  0.4082  0.6773
  857MOL0     H13100  10.723   1.682   1.371 -1.3617 -0.4262  1.2577
  857MOL0     H13101  10.761   1.737   1.525 -1.7057  2.4025  0.7555
  857MOL0     H13102  10.892   1.849   1.264 -0.8851  0.9776 -0.2307
  857MOL0     H13103  10.910   1.921   1.425  0.9073 -1.6944  2.9269
  857MOL0     H13104  10.976   1.628   1.362 -1.0200  1.1019 -3.5323
  857MOL0     H13105  11.024   1.722   1.506  0.2315 -1.7957 -0.6100
  857MOL0     H13106  10.045   2.224   1.419 -0.9816 -0.5037 -1.2111
  857MOL0     H13107   9.855   2.375   1.473  0.3269 -0.7018  1.0017
  857MOL0     H13108   9.495   2.447   1.398 -0.2508 -1.6139  0.3873
  857MOL0     H13109   9.279   2.573   1.307  0.3287 -0.9729 -0.0556
  857MOL0     H13110   7.656   2.674   2.332 -1.0365 -1.2342 -0.1742
  857MOL0     H13111   7.497   2.499   2.305 -0.4896 -1.2389  0.6312
  857MOL0     H13112   7.132   2.204   2.304  0.3622  0.2182 -0.0565
  857MOL0     H13113   7.000   1.998   2.320  1.3332  2.6467 -2.0846
  857MOL0     H13114   6.988   1.723   2.220  0.9780 -2.2395  0.1151
  857MOL0     H13115   6.905   1.821   2.350 -1.4345 -0.7629  1.1392
  857MOL0     H13116   6.983   1.524   2.331  0.0386 -0.3690  0.9817
  857MOL0     H13117   6.913   1.596   2.477 -0.8012 -2.1043 -0.1027
  857MOL0     H13118   6.793   1.571   2.200  0.2405 -2.8197  0.3761
  857MOL0     H13119   6.703   1.654   2.335  1.2050  1.1913  0.7925
  857MOL0     H13120   6.775   1.366   2.288  0.7202 -0.1593  1.3857
  857MOL0     H13121   6.732   1.420   2.448  1.2432 -1.3030 -0.6620
  857MOL0     H13122   6.365   1.387   2.236  0.0448 -1.3831  0.2619
  857MOL0     H13123   7.341   1.789   2.460  2.1469 -0.0329  1.3037
  857MOL0     H13124   7.463   1.996   2.477  0.7390 -1.7107 -1.8351
  858MOL0     O13125   0.446   5.324   7.068 -0.1713  0.3112  0.4693
  858MOL0     C13126   0.484   5.419   7.005 -0.2602  0.6035  0.7857
  858MOL0     O13127   0.429   5.544   7.013  0.5576  0.5363  0.4510
  858MOL0     C13128   0.324   5.581   7.089  1.0181 -0.3104  0.4688
  858MOL0     C13129   0.213   5.508   7.136 -0.2127  1.0401  0.3469
  858MOL0     C13130   0.121   5.556   7.224 -0.3372 -0.5292  0.1865
  858MOL0     C13131   0.134   5.691   7.258  0.0847 -0.0072 -0.5064
  858MOL0     O13132   0.046   5.757   7.341 -0.1406 -0.2095 -0.1318
  858MOL0     C13133  -0.080   5.696   7.370  0.4616  0.3614  0.3863
  858MOL0     C13134  -0.175   5.801   7.431  0.3586 -0.0834 -0.4580
  858MOL0     C13135  -0.320   5.741   7.455 -0.0035 -0.2433  1.0350
  858MOL0     C13136  -0.406   5.839   7.539 -0.5067  0.0641  0.5297
  858MOL0     C13137  -0.537   5.781   7.584  0.3188  0.3906  0.4222
  858MOL0     C13138  -0.636   5.879   7.646  0.3103 -0.4562  0.0934
  858MOL0     C13139  -0.776   5.835   7.621  1.4200 -0.8710 -0.1201
  858MOL0     C13140  -0.824   5.783   7.759  0.4411  0.4769  0.3269
  858MOL0     N13141  -0.964   5.755   7.767 -0.3062  1.1715 -0.3845
  858MOL0     C13142  -1.064   5.855   7.760  1.2028  0.0102  0.9428
  858MOL0     C13143  -1.180   5.784   7.753 -0.0183 -0.5376 -0.2829
  858MOL0     C13144  -1.318   5.847   7.736  0.1597  0.5159  0.4179
  858MOL0     C13145  -1.384   5.785   7.609  0.1735 -0.2497  0.1034
  858MOL0     C13146  -1.527   5.831   7.585 -0.5010  0.2457  0.2025
  858MOL0     C13147  -1.618   5.796   7.695 -0.0877 -0.7866 -0.2579
  858MOL0     O13148  -1.750   5.806   7.641 -0.3818  0.2061  0.4109
  858MOL0     C13149  -1.859   5.806   7.728 -0.3395  0.3223 -0.4667
  858MOL0     C13150  -1.986   5.835   7.681  0.5318  0.0878 -0.8050
  858MOL0     C13151  -2.104   5.835   7.766 -0.3616 -0.2940 -0.6559
  858MOL0     C13152  -2.084   5.816   7.899 -0.0963 -0.3768 -0.8723
  858MOL0     C13153  -2.199   5.854   7.993 -0.0558  0.5981 -0.7738
  858MOL0     O13154  -2.320   5.866   7.929 -0.2772 -0.0070  0.1474
  858MOL0     C13155  -2.431   5.904   8.000  0.4519  0.1338 -0.1786
  858MOL0     C13156  -2.556   5.899   7.926 -0.1780 -0.0031 -0.8034
  858MOL0     C13157  -2.680   5.951   7.973 -0.4684  0.2073  0.0894
  858MOL0     C13158  -2.682   6.006   8.103 -0.0444 -0.3836  0.0364
  858MOL0     O13159  -2.807   6.034   8.155 -1.1804  0.4431 -0.1063
  858MOL0     C13160  -2.815   6.098   8.287 -0.7138  1.0178 -0.8399
  858MOL0     C13161  -2.953   6.105   8.346  0.0787  0.1639  0.4025
  858MOL0     C13162  -3.045   5.996   8.306  0.0426 -0.2157 -0.3979
  858MOL0     C13163  -3.168   6.018   8.392 -0.5421  0.2294 -0.6435
  858MOL0     C13164  -3.305   6.004   8.310  0.4443  0.2971  0.6687
  858MOL0     C13165  -3.325   5.872   8.241 -0.6268 -0.5230  0.1225
  858MOL0     C13166  -3.463   5.862   8.173  0.4776  0.1798  0.2167
  858MOL0     C13167  -3.477   5.717   8.133  0.4355 -0.4267 -0.7388
  858MOL0    Cl13168  -3.531   5.608   8.273 -0.2603 -0.3562 -0.4673
  858MOL0     C13169  -2.555   6.030   8.168 -0.3278  0.5952  0.8994
  858MOL0     C13170  -2.435   5.981   8.118 -1.0115  0.3768 -0.1168
  858MOL0     O13171  -2.183   5.837   8.115 -0.0006 -0.3013 -0.0978
  858MOL0     C13172  -1.962   5.775   7.947 -0.6445 -0.2405 -0.1124
  858MOL0     C13173  -1.847   5.770   7.867  0.3506 -0.5161  0.3632
  858MOL0     N13174  -1.157   5.648   7.751  0.2837  0.5558 -0.7921
  858MOL0     N13175  -1.029   5.637   7.760 -0.5725  0.2892  0.6401
  858MOL0     C13176   0.232   5.767   7.212  0.6643  0.3451  0.4998
  858MOL0     C13177   0.324   5.715   7.124 -0.9618 -0.1178  1.2912
  858MOL0     C13178   0.586   5.416   6.897 -0.3786 -0.3496 -0.2929
  858MOL0     C13179   0.598   5.521   6.799  0.3874  0.2483 -0.6711
  858MOL0     C13180   0.699   5.528   6.712 -0.2942 -0.1752  0.4479
  858MOL0     C13181   0.773   5.412   6.694 -0.8121 -0.8870 -0.2746
  858MOL0     O13182   0.872   5.408   6.597 -0.5992  0.3258 -0.6168
  858MOL0     C13183   0.831   5.440   6.460  0.2496  0.2955 -0.9684
  858MOL0     C13184   0.954   5.444   6.367  0.1088  0.7816 -0.7766
  858MOL0     C13185   0.986   5.322   6.283 -0.7852  0.4251 -0.0067
  858MOL0     C13186   0.887   5.280   6.173  0.0249  0.0019 -0.3178
  858MOL0     C13187   0.840   5.392   6.095  1.0480  0.2467  0.7768
  858MOL0     C13188   0.804   5.482   6.026 -0.0461 -0.1277 -0.0042
  858MOL0     C13189   0.754   5.294   6.769  0.8870  0.0524  0.2533
  858MOL0     C13190   0.661   5.303   6.869 -0.2953 -1.5479 -0.8263
  858MOL0     H13191   0.209   5.404   7.105  1.3679  1.7364 -2.6199
  858MOL0     H13192   0.031   5.497   7.238 -1.3859  0.6228 -1.2751
  858MOL0     H13193  -0.077   5.606   7.430 -1.9153 -0.5803 -0.7810
  858MOL0     H13194  -0.127   5.663   7.277 -0.5639  2.6852  0.0122
  858MOL0     H13195  -0.185   5.894   7.373 -2.9435  1.1047  1.6880
  858MOL0     H13196  -0.138   5.833   7.529  1.5209  0.0416 -0.9214
  858MOL0     H13197  -0.308   5.649   7.513  1.1205 -0.7839 -0.0080
  858MOL0     H13198  -0.367   5.742   7.356 -0.3899  0.4518  1.2231
  858MOL0     H13199  -0.352   5.881   7.624  0.0812  0.3850  0.0037
  858MOL0     H13200  -0.427   5.919   7.467  1.4969 -0.1885 -0.3879
  858MOL0     H13201  -0.522   5.696   7.651  2.8646 -0.3137 -0.9066
  858MOL0     H13202  -0.571   5.738   7.489  2.2659  2.7974 -1.5186
  858MOL0     H13203  -0.629   5.978   7.599  1.1965  0.3950  1.9084
  858MOL0     H13204  -0.610   5.908   7.749 -2.5446  1.3544  0.4010
  858MOL0     H13205  -0.836   5.918   7.582 -1.3597 -3.1893 -1.1021
  858MOL0     H13206  -0.779   5.753   7.549 -0.9422 -1.3953  0.4838
  858MOL0     H13207  -0.810   5.860   7.835  0.7770 -0.5214  1.3153
  858MOL0     H13208  -0.776   5.689   7.788 -0.2847 -0.6353 -1.8692
  858MOL0     H13209  -1.052   5.963   7.765  1.5966  0.2069 -2.2952
  858MOL0     H13210  -1.319   5.955   7.724  0.5932  0.3161 -1.8886
  858MOL0     H13211  -1.378   5.819   7.823 -2.8958  0.2857 -1.6131
  858MOL0     H13212  -1.375   5.677   7.599 -1.9895 -0.4204 -0.6488
  858MOL0     H13213  -1.319   5.819   7.527  1.7970 -0.8609  1.0962
  858MOL0     H13214  -1.521   5.940   7.580  2.0159  0.1672 -0.0822
  858MOL0     H13215  -1.555   5.788   7.488 -1.1545  1.1380 -0.0212
  858MOL0     H13216  -1.597   5.869   7.774 -1.9710  2.7657 -2.7423
  858MOL0     H13217  -1.604   5.690   7.715  0.8115 -0.3941  1.3823
  858MOL0     H13218  -1.999   5.832   7.573 -1.8860 -2.2095 -0.5606
  858MOL0     H13219  -2.193   5.855   7.708 -1.5882 -3.4018 -0.0410
  858MOL0     H13220  -2.554   5.863   7.823  0.4009  1.6105 -1.3948
  858MOL0     H13221  -2.774   5.945   7.920 -1.3264  3.2056  1.0986
  858MOL0     H13222  -2.780   6.201   8.282 -1.1693  1.1887 -0.5583
  858MOL0     H13223  -2.741   6.054   8.355 -0.7274  0.6226 -1.0768
  858MOL0     H13224  -2.985   6.202   8.308 -1.0037  0.2888  1.5772
  858MOL0     H13225  -2.937   6.113   8.455 -0.2165  0.9422  0.3923
  858MOL0     H13226  -3.002   5.898   8.328  1.3166  0.0536 -1.5247
  858MOL0     H13227  -3.063   5.996   8.198 -0.1839  1.4649 -0.3843
  858MOL0     H13228  -3.164   5.939   8.468 -0.9289  2.4832  1.8687
  858MOL0     H13229  -3.161   6.117   8.437 -2.4466  0.4923 -0.8542
  858MOL0     H13230  -3.306   6.078   8.229  0.7766  1.0353  1.3277
  858MOL0     H13231  -3.383   6.043   8.375  3.4828  3.3319  2.8298
  858MOL0     H13232  -3.305   5.784   8.302  0.0255 -0.0705  0.5647
  858MOL0     H13233  -3.241   5.866   8.171 -1.1264 -1.9151 -0.3757
  858MOL0     H13234  -3.549   5.900   8.230 -1.9179  2.7772 -4.4643
  858MOL0     H13235  -3.466   5.914   8.076 -2.4008  0.1239  0.1712
  858MOL0     H13236  -3.381   5.672   8.106  1.6324  2.5168 -1.7737
  858MOL0     H13237  -3.539   5.710   8.044 -1.1332 -1.7424  0.3959
  858MOL0     H13238  -2.555   6.094   8.256 -1.7576  1.4155  0.3453
  858MOL0     H13239  -2.344   6.005   8.172  0.2573 -2.0814 -1.0634
  858MOL0     H13240  -1.947   5.771   8.055 -0.3797  1.7812 -0.0321
  858MOL0     H13241  -1.755   5.745   7.920  0.7346 -0.7069 -0.3804
  858MOL0     H13242   0.240   5.869   7.249  0.6022  1.0497 -1.3141
  858MOL0     H13243   0.416   5.766   7.095 -0.0075 -2.3348  0.1896
  858MOL0     H13244   0.532   5.607   6.797  3.7233  3.0182 -1.8526
  858MOL0     H13245   0.715   5.608   6.640  0.6320 -0.8001 -0.0654
  858MOL0     H13246   0.789   5.540   6.452 -0.7585  0.1128  1.3066
  858MOL0     H13247   0.753   5.372   6.424 -0.4417  0.1951  0.6417
  858MOL0     H13248   0.955   5.540   6.315  0.0953  0.3470 -1.5880
  858MOL0     H13249   1.044   5.450   6.429  0.0802  1.4787 -0.7936
  858MOL0     H13250   1.010   5.236   6.347 -3.6441 -1.0896 -0.7908
  858MOL0     H13251   1.077   5.339   6.225 -1.7448 -2.8168 -2.7910
  858MOL0     H13252   0.938   5.208   6.110 -1.1389 -0.7159 -0.4802
  858MOL0     H13253   0.806   5.230   6.228  0.8492  0.8471  1.7575
  858MOL0     H13254   0.787   5.568   5.965 -1.3335  0.2067  0.7788
  858MOL0     H13255   0.807   5.201   6.754 -0.5049 -0.9947  1.5338
  858MOL0     H13256   0.640   5.226   6.943  0.1706  0.1740  1.1677
  859MOL0     O13257   0.763   0.656   2.589  0.0319 -0.8746  0.5180
  859MOL0     C13258   0.754   0.776   2.576 -0.3796  0.0909 -0.7290
  859MOL0     O13259   0.640   0.849   2.585  0.7845 -0.3045  0.0034
  859MOL0     C13260   0.515   0.790   2.574  0.7017 -0.3295  0.5407
  859MOL0     C13261   0.417   0.867   2.628  0.1860  0.7722 -0.3980
  859MOL0     C13262   0.284   0.820   2.613  0.9340  0.7589  0.9405
  859MOL0     C13263   0.247   0.699   2.551  0.5536  0.8861 -0.6246
  859MOL0     O13264   0.113   0.668   2.547  0.1610 -0.3147 -0.5676
  859MOL0     C13265   0.074   0.540   2.503  0.1502 -0.5109  0.2896
  859MOL0     C13266  -0.076   0.524   2.516 -0.3893 -0.5369  0.1571
  859MOL0     C13267  -0.115   0.386   2.464 -0.2521  0.1642 -0.2308
  859MOL0     C13268  -0.272   0.362   2.493  0.8693 -0.2265  0.4351
  859MOL0     C13269  -0.311   0.227   2.430  0.3163 -0.0424 -0.2322
  859MOL0     C13270  -0.457   0.210   2.409 -0.5595  0.4502  0.3411
  859MOL0     C13271  -0.491   0.067   2.365 -0.8844  0.0244 -0.3136
  859MOL0     C13272  -0.637   0.022   2.358  0.4226  0.4683  0.6078
  859MOL0     N13273  -0.712   0.096   2.254  0.4863  0.6573 -0.0209
  859MOL0     C13274  -0.792   0.207   2.268  0.4654 -0.6246  0.4734
  859MOL0     C13275  -0.832   0.241   2.142 -0.0530 -0.0785 -0.0531
  859MOL0     C13276  -0.907   0.373   2.097  1.0245  0.3127 -1.0068
  859MOL0     C13277  -0.933   0.474   2.210  0.9247 -0.1099 -0.5208
  859MOL0     C13278  -0.985   0.604   2.160 -0.0655 -0.3151  1.2201
  859MOL0     C13279  -1.124   0.575   2.093 -0.4162  0.0010  0.1775
  859MOL0     O13280  -1.195   0.698   2.088 -0.0673  0.1142 -0.3103
  859MOL0     C13281  -1.329   0.686   2.057 -0.5509 -0.7644  0.1671
  859MOL0     C13282  -1.409   0.586   2.026  0.2959 -0.2918 -0.2799
  859MOL0     C13283  -1.543   0.599   1.987  0.8426 -0.2831 -0.3881
  859MOL0     C13284  -1.601   0.718   1.965 -0.0316  0.4506  0.4718
  859MOL0     C13285  -1.743   0.739   1.927 -0.2441 -0.4766  1.2170
  859MOL0     O13286  -1.790   0.868   1.924  0.2844 -0.5617 -0.4965
  859MOL0     C13287  -1.927   0.896   1.911 -0.2780  0.4094  1.0489
  859MOL0     C13288  -2.005   0.971   1.998 -0.1902 -0.1370  0.5225
  859MOL0     C13289  -2.136   1.011   1.957  0.0973  0.8641  0.7297
  859MOL0     C13290  -2.180   0.969   1.835 -0.6226  0.0323 -0.1505
  859MOL0     O13291  -2.303   0.996   1.781  0.2989  0.0136 -0.4201
  859MOL0     C13292  -2.400   1.080   1.852  0.3299  0.3951 -0.0842
  859MOL0     C13293  -2.529   1.099   1.764  0.2406 -0.1917 -1.0662
  859MOL0     C13294  -2.611   1.226   1.799  0.6326  0.4805 -0.0838
  859MOL0     C13295  -2.660   1.230   1.941  0.3436 -0.4656 -0.2908
  859MOL0     C13296  -2.733   1.361   1.967  0.0403 -0.0917 -0.2169
  859MOL0     C13297  -2.752   1.400   2.116  0.1644  0.2419  0.6548
  859MOL0     C13298  -2.877   1.492   2.119 -0.1284 -0.1735 -0.6974
  859MOL0     C13299  -2.879   1.585   2.242 -0.3151 -0.2671 -0.6528
  859MOL0    Cl13300  -2.749   1.700   2.239 -0.1500 -0.0125  0.6398
  859MOL0     C13301  -2.108   0.890   1.753 -0.3319  0.4381  0.1213
  859MOL0     C13302  -1.973   0.857   1.779  0.4908  0.5078 -0.3051
  859MOL0     O13303  -1.805   0.634   1.902  0.2897  0.0795 -0.6301
  859MOL0     C13304  -1.521   0.825   2.004 -0.4362 -0.4024 -0.2534
  859MOL0     C13305  -1.393   0.810   2.048 -1.1566 -0.2414  0.6154
  859MOL0     N13306  -0.778   0.149   2.060 -0.0465  0.7908 -0.1221
  859MOL0     N13307  -0.702   0.065   2.122  0.5445  0.0517  0.0721
  859MOL0     C13308   0.350   0.620   2.519  0.2466 -0.1036 -0.2944
  859MOL0     C13309   0.479   0.672   2.517 -0.4320  0.4055  1.1804
  859MOL0     C13310   0.887   0.857   2.558 -0.0716  0.3928 -1.2455
  859MOL0     C13311   1.009   0.783   2.543  0.1042 -0.7862 -0.3037
  859MOL0     C13312   1.138   0.844   2.530  0.4096 -0.1775 -0.9755
  859MOL0     C13313   1.147   0.983   2.531 -0.8254 -0.8961  0.5273
  859MOL0     O13314   1.265   1.054   2.518  0.1186  0.1180  0.1069
  859MOL0     C13315   1.386   0.987   2.493  0.2667 -0.0109  0.2569
  859MOL0     C13316   1.502   0.995   2.598 -0.3172 -0.0584  0.2963
  859MOL0     C13317   1.496   1.146   2.651  0.0121  0.5556 -0.4027
  859MOL0     C13318   1.609   1.172   2.746  0.3246 -0.5410  0.2105
  859MOL0     C13319   1.585   1.089   2.866 -0.1924  0.0290 -0.1252
  859MOL0     C13320   1.584   1.016   2.967  0.0019 -0.1288 -0.0957
  859MOL0     C13321   1.036   1.059   2.542 -0.4125  0.8352  0.6059
  859MOL0     C13322   0.904   0.996   2.561 -0.4533 -0.6869  0.2161
  859MOL0     H13323   0.446   0.956   2.684  0.4075 -0.7830  2.0826
  859MOL0     H13324   0.202   0.883   2.645 -1.6867 -2.2750  0.6642
  859MOL0     H13325   0.121   0.460   2.560  4.7504  2.0396  0.5823
  859MOL0     H13326   0.100   0.533   2.397 -0.6985  0.2616  0.0195
  859MOL0     H13327  -0.122   0.596   2.448  0.4471 -0.0971  0.0489
  859MOL0     H13328  -0.112   0.549   2.616 -3.5727 -2.1938 -0.4218
  859MOL0     H13329  -0.060   0.313   2.525  0.1299  2.0670  1.8090
  859MOL0     H13330  -0.098   0.380   2.357 -5.3349 -1.8958 -1.2334
  859MOL0     H13331  -0.296   0.369   2.599 -0.1118  0.3619  0.1780
  859MOL0     H13332  -0.338   0.435   2.445  0.4061 -0.3409  0.8902
  859MOL0     H13333  -0.273   0.145   2.491 -0.1695 -2.2167 -2.6485
  859MOL0     H13334  -0.263   0.226   2.332  0.6304 -0.0600 -0.0795
  859MOL0     H13335  -0.493   0.279   2.333  0.8134  0.8172  0.0034
  859MOL0     H13336  -0.498   0.240   2.506  2.0769  0.6522  1.5023
  859MOL0     H13337  -0.442   0.036   2.273  0.5795  0.7310  0.1876
  859MOL0     H13338  -0.434   0.006   2.437  0.2971  1.8445  0.3773
  859MOL0     H13339  -0.680   0.065   2.449 -3.2684 -0.1527 -0.6860
  859MOL0     H13340  -0.643  -0.086   2.347 -2.4416  0.6001  0.2341
  859MOL0     H13341  -0.804   0.265   2.358  2.1619 -3.2788  2.5681
  859MOL0     H13342  -1.004   0.338   2.062 -0.2593  0.3255  2.2242
  859MOL0     H13343  -0.849   0.420   2.017 -0.3549  1.6252 -1.2869
  859MOL0     H13344  -0.845   0.490   2.273 -0.3483  0.6060  1.1536
  859MOL0     H13345  -1.015   0.428   2.267  0.9824  0.2580 -0.1379
  859MOL0     H13346  -0.988   0.674   2.244  2.0325  0.8557  0.4072
  859MOL0     H13347  -0.921   0.651   2.086  0.1589  0.0453  1.6384
  859MOL0     H13348  -1.179   0.512   2.163  1.1360  0.6755  2.0929
  859MOL0     H13349  -1.114   0.530   1.994 -3.0073  0.6786 -0.4692
  859MOL0     H13350  -1.374   0.489   2.060  1.4898 -0.0182 -0.6962
  859MOL0     H13351  -1.599   0.507   1.977 -0.7955  0.3715  1.7890
  859MOL0     H13352  -1.971   0.998   2.098  2.0363 -0.6811 -0.0383
  859MOL0     H13353  -2.209   1.065   2.015 -2.1008 -0.3111 -0.7870
  859MOL0     H13354  -2.347   1.174   1.864  0.7835  0.0561  0.6399
  859MOL0     H13355  -2.414   1.040   1.952 -0.8017 -3.4340 -1.5941
  859MOL0     H13356  -2.591   1.009   1.768  0.4819 -0.4424 -2.3940
  859MOL0     H13357  -2.488   1.113   1.664  1.8603  0.7395 -0.3180
  859MOL0     H13358  -2.697   1.241   1.733  0.4053  0.1428  0.1346
  859MOL0     H13359  -2.534   1.302   1.785  1.7044 -0.7989 -1.6030
  859MOL0     H13360  -2.727   1.144   1.948 -1.4295  0.8077 -0.9826
  859MOL0     H13361  -2.566   1.226   1.996  0.9141  1.2670 -1.0625
  859MOL0     H13362  -2.836   1.352   1.932  0.5807 -0.8272 -1.7138
  859MOL0     H13363  -2.681   1.443   1.917 -0.1586  0.3936  0.3659
  859MOL0     H13364  -2.666   1.448   2.163  1.3505 -0.8268 -0.3587
  859MOL0     H13365  -2.780   1.307   2.167 -1.0266 -0.2666 -0.8191
  859MOL0     H13366  -2.887   1.545   2.024 -0.7596  0.2325 -0.4107
  859MOL0     H13367  -2.948   1.410   2.127 -0.5671  0.1462 -1.2680
  859MOL0     H13368  -2.863   1.535   2.337  2.1892 -0.6647 -1.2072
  859MOL0     H13369  -2.976   1.636   2.239  0.2085  0.9423  1.2526
  859MOL0     H13370  -2.150   0.849   1.662 -0.2707 -1.0612  0.7465
  859MOL0     H13371  -1.916   0.800   1.707 -0.5370 -2.9749  1.4133
  859MOL0     H13372  -1.550   0.928   1.994  0.6930 -0.1900 -1.7299
  859MOL0     H13373  -1.342   0.901   2.077  0.5901  0.0338 -2.8219
  859MOL0     H13374   0.323   0.526   2.473 -1.9182  0.7557 -0.8920
  859MOL0     H13375   0.546   0.606   2.463 -0.0704 -0.7480  2.9369
  859MOL0     H13376   1.007   0.674   2.541  0.2618 -0.8043 -2.6728
  859MOL0     H13377   1.211   0.765   2.516  0.3456 -2.1596  6.0823
  859MOL0     H13378   1.426   1.046   2.410  0.2146  0.5453  0.6223
  859MOL0     H13379   1.379   0.882   2.462  1.7796 -0.4171  1.2168
  859MOL0     H13380   1.496   0.918   2.675  0.9325 -1.5143 -1.0046
  859MOL0     H13381   1.596   0.977   2.546 -1.6033 -0.8793 -1.8946
  859MOL0     H13382   1.398   1.165   2.694  0.2058  0.9861 -0.1416
  859MOL0     H13383   1.502   1.222   2.572 -1.4938  3.0110  1.6857
  859MOL0     H13384   1.701   1.153   2.691 -0.7805  0.8285 -2.3023
  859MOL0     H13385   1.610   1.275   2.785 -0.7144 -1.0647  1.7172
  859MOL0     H13386   1.592   0.941   3.043  1.8333 -3.0392 -2.8797
  859MOL0     H13387   1.039   1.168   2.535  0.2774  0.9983  2.6669
  859MOL0     H13388   0.823   1.062   2.589 -0.4791  0.6124 -2.5192
  860MOL0     O13389   6.617   4.850   8.655  0.0956  0.1663  0.4921
  860MOL0     C13390   6.622   4.737   8.700  0.9066  0.6700 -0.2291
  860MOL0     O13391   6.519   4.646   8.690  0.0372 -0.0299 -0.2265
  860MOL0     C13392   6.409   4.680   8.616 -0.7988  0.2768 -0.8481
  860MOL0     C13393   6.324   4.787   8.655 -0.3389  0.2025  0.1765
  860MOL0     C13394   6.210   4.816   8.574  0.5728  0.3334  0.9207
  860MOL0     C13395   6.184   4.756   8.448  0.5284  0.6532 -0.1328
  860MOL0     O13396   6.078   4.803   8.377 -0.1416 -0.7665 -0.3777
  860MOL0     C13397   6.011   4.722   8.283 -0.2940  0.8874  0.8303
  860MOL0     C13398   5.878   4.784   8.238 -0.1166  0.3702  0.0499
  860MOL0     C13399   5.824   4.691   8.139 -0.2491 -0.2869  0.2185
  860MOL0     C13400   5.695   4.735   8.078 -0.3405  0.6246  0.7239
  860MOL0     C13401   5.572   4.720   8.166 -0.3448 -0.3104 -0.2147
  860MOL0     C13402   5.449   4.757   8.083 -0.3794  0.3696  0.2472
  860MOL0     C13403   5.321   4.723   8.160 -0.0897 -0.3714  0.5983
  860MOL0     C13404   5.202   4.779   8.085  0.5156 -0.2400 -0.8152
  860MOL0     N13405   5.077   4.719   8.144 -1.0625 -0.7081 -0.0238
  860MOL0     C13406   4.976   4.804   8.189  0.5876  0.3852 -0.1002
  860MOL0     C13407   4.894   4.717   8.262  0.4686  0.8808  0.1530
  860MOL0     C13408   4.788   4.762   8.354 -0.2927 -0.2091  0.0894
  860MOL0     C13409   4.828   4.772   8.494  0.3347  0.3753 -0.7476
  860MOL0     C13410   4.722   4.840   8.584  0.1835 -0.3939  0.2484
  860MOL0     C13411   4.591   4.769   8.567 -0.0010  0.0751 -0.3670
  860MOL0     O13412   4.509   4.826   8.666  0.7410 -0.0470  0.2109
  860MOL0     C13413   4.384   4.769   8.681  0.3230 -0.1401 -0.4474
  860MOL0     C13414   4.261   4.839   8.643 -0.1070 -0.3384  0.2869
  860MOL0     C13415   4.135   4.778   8.663 -0.4080  0.5182  0.2841
  860MOL0     C13416   4.126   4.651   8.730 -0.2276 -0.9310  0.2776
  860MOL0     C13417   3.991   4.597   8.746 -0.9236  0.5369  0.4752
  860MOL0     O13418   3.897   4.663   8.683  0.5248  1.0599  0.0722
  860MOL0     C13419   3.773   4.606   8.688  0.1572  0.5153  0.1805
  860MOL0     C13420   3.728   4.521   8.577  0.3599 -0.2410  0.6771
  860MOL0     C13421   3.599   4.477   8.568 -0.2266  0.8731 -0.4004
  860MOL0     C13422   3.520   4.504   8.677  0.2821 -0.7481  0.2384
  860MOL0     O13423   3.389   4.475   8.676 -0.2323 -0.2416  0.1748
  860MOL0     C13424   3.339   4.355   8.620 -0.0815  0.2595 -0.2701
  860MOL0     C13425   3.183   4.367   8.627 -0.3683  0.8444 -0.1779
  860MOL0     C13426   3.100   4.246   8.594  0.8434 -1.5871  1.1202
  860MOL0     C13427   2.953   4.277   8.566 -0.4741  0.0043 -1.0070
  860MOL0     C13428   2.884   4.159   8.497 -0.5019 -0.7292  0.0805
  860MOL0     C13429   2.757   4.201   8.442  0.1282  0.4810  0.3243
  860MOL0     C13430   2.672   4.095   8.375  0.0593  0.2139 -0.7337
  860MOL0     C13431   2.531   4.153   8.361  0.3938  0.3724  0.2244
  860MOL0    Cl13432   2.445   4.186   8.522  0.4284 -0.0227 -0.2890
  860MOL0     C13433   3.557   4.574   8.792  0.0892  0.1463  1.1315
  860MOL0     C13434   3.687   4.630   8.787 -0.7888  0.9789 -0.0482
  860MOL0     O13435   3.981   4.477   8.789  0.2054  0.0186  0.1186
  860MOL0     C13436   4.244   4.589   8.770 -0.1960 -0.8970 -0.0116
  860MOL0     C13437   4.370   4.644   8.746 -0.7663 -0.3950  0.6261
  860MOL0     N13438   4.944   4.589   8.257  0.3524  0.3293  0.2537
  860MOL0     N13439   5.057   4.591   8.188  0.2773  0.2952 -1.0503
  860MOL0     C13440   6.274   4.659   8.404  0.3113  0.1357  0.7597
  860MOL0     C13441   6.382   4.622   8.487  0.4801  1.0185  0.0052
  860MOL0     C13442   6.759   4.692   8.743  0.1484  0.3248  0.3350
  860MOL0     C13443   6.779   4.559   8.766 -0.0081  0.2007 -0.1662
  860MOL0     C13444   6.907   4.526   8.805  0.0088  0.3326 -0.1731
  860MOL0     C13445   7.014   4.618   8.823  0.2924 -0.8480 -0.5983
  860MOL0     O13446   7.135   4.567   8.871  1.2308 -0.3937 -0.0490
  860MOL0     C13447   7.249   4.651   8.870  0.1265 -0.0903  0.7240
  860MOL0     C13448   7.300   4.671   9.009 -1.8070  0.5381 -0.4851
  860MOL0     C13449   7.443   4.727   8.999  0.5380 -0.3501  0.3337
  860MOL0     C13450   7.482   4.796   9.128 -1.4071 -0.0123 -0.1532
  860MOL0     C13451   7.632   4.806   9.132 -0.2789  0.8252 -0.1775
  860MOL0     C13452   7.754   4.808   9.123 -0.8836  0.1183 -0.3050
  860MOL0     C13453   6.982   4.752   8.821  0.0708  0.1517  0.5266
  860MOL0     C13454   6.854   4.786   8.777  0.2876  0.4589  0.3625
  860MOL0     H13455   6.337   4.825   8.756  2.1783 -1.0254  0.3953
  860MOL0     H13456   6.143   4.894   8.609  0.5623  1.5781 -1.5994
  860MOL0     H13457   5.980   4.630   8.332 -1.1771  0.4264 -0.5464
  860MOL0     H13458   6.072   4.703   8.194  1.2785  0.0383  2.0530
  860MOL0     H13459   5.883   4.888   8.205  0.4244  0.4156  0.2668
  860MOL0     H13460   5.808   4.784   8.323  1.9465 -1.0314  1.8712
  860MOL0     H13461   5.807   4.590   8.177 -1.0935  0.2735  1.3734
  860MOL0     H13462   5.887   4.692   8.050 -0.6661  1.3329 -0.0976
  860MOL0     H13463   5.708   4.836   8.037  1.3395 -0.8833 -2.9205
  860MOL0     H13464   5.685   4.663   7.996  0.2874  0.0675  1.1215
  860MOL0     H13465   5.577   4.777   8.259  1.0141 -3.1563  1.6131
  860MOL0     H13466   5.565   4.614   8.192  3.0876 -0.7796 -0.7346
  860MOL0     H13467   5.448   4.700   7.989  1.4676 -0.9477  0.9711
  860MOL0     H13468   5.460   4.865   8.066  0.6879  0.0950 -0.9960
  860MOL0     H13469   5.317   4.615   8.178  3.1807 -0.5909  0.7190
  860MOL0     H13470   5.330   4.771   8.258 -2.6751 -1.0585  1.2481
  860MOL0     H13471   5.204   4.748   7.980 -2.2492  0.9727 -1.3221
  860MOL0     H13472   5.202   4.888   8.092 -1.3124 -0.2389 -0.0953
  860MOL0     H13473   4.966   4.912   8.185 -1.5662  0.2058 -2.2115
  860MOL0     H13474   4.709   4.687   8.344 -2.6550  2.2217 -0.5143
  860MOL0     H13475   4.753   4.861   8.324 -2.1492 -1.0826 -0.7907
  860MOL0     H13476   4.923   4.827   8.497  0.6639 -0.2271  0.7181
  860MOL0     H13477   4.857   4.675   8.536 -2.5783  0.1973  1.0952
  860MOL0     H13478   4.746   4.831   8.690  1.0652 -1.7266 -0.0300
  860MOL0     H13479   4.710   4.943   8.551 -1.0298 -0.9832 -1.3051
  860MOL0     H13480   4.611   4.662   8.576  3.5716  0.5204 -1.6430
  860MOL0     H13481   4.543   4.791   8.471 -1.9875  1.4628  0.8659
  860MOL0     H13482   4.266   4.941   8.608  1.3414 -0.3807  0.3176
  860MOL0     H13483   4.048   4.825   8.619 -2.0048 -0.0602  2.6442
  860MOL0     H13484   3.795   4.500   8.495 -2.0714 -1.5903 -1.0802
  860MOL0     H13485   3.564   4.426   8.479  1.3892 -0.4828 -0.3139
  860MOL0     H13486   3.368   4.268   8.680 -0.9804 -0.1022 -0.3399
  860MOL0     H13487   3.384   4.341   8.522  2.7637 -3.6319  1.3307
  860MOL0     H13488   3.154   4.455   8.570 -0.9487  0.7782  0.0149
  860MOL0     H13489   3.171   4.388   8.734  1.1094  0.8488  0.0187
  860MOL0     H13490   3.109   4.170   8.672 -1.5319 -2.4725  0.6221
  860MOL0     H13491   3.140   4.215   8.497  1.3292  0.6812  0.5435
  860MOL0     H13492   2.905   4.297   8.662  2.4525 -0.4057  0.6586
  860MOL0     H13493   2.937   4.366   8.504 -3.6835 -0.0193 -0.3820
  860MOL0     H13494   2.851   4.093   8.579 -2.5266  1.3563  1.0466
  860MOL0     H13495   2.936   4.102   8.419  1.9755  0.9734  0.3970
  860MOL0     H13496   2.777   4.273   8.361  1.7906 -0.4686 -0.1544
  860MOL0     H13497   2.702   4.261   8.515  2.8458  1.7959  1.4237
  860MOL0     H13498   2.702   4.056   8.278  1.9133 -1.3717  0.3792
  860MOL0     H13499   2.667   4.008   8.443  2.1059  1.9132  1.8197
  860MOL0     H13500   2.469   4.079   8.309  0.1289  0.4292  0.4569
  860MOL0     H13501   2.544   4.245   8.303  1.8262 -0.5236 -0.9616
  860MOL0     H13502   3.495   4.577   8.881 -4.1007 -2.6425 -1.3440
  860MOL0     H13503   3.731   4.673   8.876 -1.9680 -0.9337  1.5450
  860MOL0     H13504   4.235   4.502   8.834  0.9125 -1.3759 -0.4844
  860MOL0     H13505   4.457   4.588   8.779 -1.2793 -1.8599 -0.3938
  860MOL0     H13506   6.258   4.602   8.313 -0.0518  0.9453  0.3009
  860MOL0     H13507   6.428   4.533   8.446 -0.1944  0.9054 -0.5256
  860MOL0     H13508   6.698   4.492   8.741  0.0939  1.0017 -2.9565
  860MOL0     H13509   6.934   4.421   8.804 -0.3632  0.2398 -0.5856
  860MOL0     H13510   7.242   4.749   8.821  1.4195 -0.0071  0.6678
  860MOL0     H13511   7.327   4.593   8.821 -0.4213  0.6185 -1.0816
  860MOL0     H13512   7.240   4.734   9.075 -2.1814 -0.9327  0.6390
  860MOL0     H13513   7.295   4.572   9.056 -1.5848  0.1308 -1.3082
  860MOL0     H13514   7.439   4.809   8.926  1.9720  0.7529  1.4458
  860MOL0     H13515   7.520   4.654   8.975 -0.7661 -1.8361  0.4728
  860MOL0     H13516   7.440   4.897   9.127  1.4142  1.2338 -1.4165
  860MOL0     H13517   7.447   4.742   9.217  2.4714  1.1112  2.3049
  860MOL0     H13518   7.861   4.813   9.121 -0.7344 -0.6301  2.3843
  860MOL0     H13519   7.059   4.827   8.835  1.4255 -0.8389 -1.2023
  860MOL0     H13520   6.838   4.893   8.768  2.8858  0.9145  0.2780
  861MOL0     O13521   4.213   0.322   0.655 -0.4489 -1.4339  0.3450
  861MOL0     C13522   4.276   0.427   0.633  0.1832 -0.3182 -0.3086
  861MOL0     O13523   4.223   0.555   0.652  0.0539  0.5034  0.2611
  861MOL0     C13524   4.097   0.578   0.668  0.2431  0.2515  0.7266
  861MOL0     C13525   4.034   0.536   0.785 -0.5692 -0.1063  0.9709
  861MOL0     C13526   3.895   0.547   0.801  0.4988 -0.7822  0.4245
  861MOL0     C13527   3.818   0.622   0.703  0.7763  0.7639 -0.0347
  861MOL0     O13528   3.689   0.653   0.711  1.0632  0.6675 -0.0608
  861MOL0     C13529   3.622   0.622   0.832 -0.0664 -0.1583 -0.4575
  861MOL0     C13530   3.482   0.681   0.827 -0.1766 -0.1785 -0.3308
  861MOL0     C13531   3.409   0.634   0.947  0.2132 -0.2447 -0.0537
  861MOL0     C13532   3.270   0.691   0.946  0.1068 -0.2416  0.3206
  861MOL0     C13533   3.190   0.652   1.068  0.4707 -0.3840 -0.7796
  861MOL0     C13534   3.038   0.674   1.032  0.3813 -0.3748  0.0398
  861MOL0     C13535   2.960   0.679   1.164 -0.4683 -0.7581  0.2516
  861MOL0     C13536   2.816   0.721   1.150  0.0132 -0.3785 -0.4663
  861MOL0     N13537   2.732   0.622   1.101  0.4569  0.5718  0.0783
  861MOL0     C13538   2.714   0.572   0.980 -0.7920 -0.3793 -0.4967
  861MOL0     C13539   2.612   0.483   0.986 -0.0577  0.1417  0.3274
  861MOL0     C13540   2.551   0.417   0.868 -0.1050  0.3973  0.1804
  861MOL0     C13541   2.595   0.273   0.860 -0.0423  0.9609 -0.1181
  861MOL0     C13542   2.554   0.231   0.720  0.2092 -0.4394  0.8469
  861MOL0     C13543   2.407   0.239   0.660 -0.1561 -0.1083  0.1785
  861MOL0     O13544   2.311   0.186   0.760 -0.0765 -0.4468  0.4720
  861MOL0     C13545   2.182   0.169   0.725 -0.5749 -0.9428 -0.1547
  861MOL0     C13546   2.103   0.129   0.831  1.1557  0.4736 -0.1122
  861MOL0     C13547   1.969   0.081   0.805 -0.7716 -0.5358 -0.7687
  861MOL0     C13548   1.920   0.110   0.675  0.2255  0.4307  0.3757
  861MOL0     C13549   1.776   0.070   0.655 -0.6431  0.1906  0.1649
  861MOL0     O13550   1.702   0.039   0.764 -0.3895  0.6082  0.4238
  861MOL0     C13551   1.574   0.018   0.748  0.7932  1.0487  0.0172
  861MOL0     C13552   1.471   0.110   0.723  0.9836 -0.4872  0.4146
  861MOL0     C13553   1.333   0.077   0.731 -0.9872 -0.2274 -1.0828
  861MOL0     C13554   1.295  -0.050   0.763 -0.3732 -0.2422  0.3769
  861MOL0     O13555   1.160  -0.067   0.770  0.2568 -0.6153 -0.5296
  861MOL0     C13556   1.116  -0.183   0.848  0.3828  1.0610 -0.2056
  861MOL0     C13557   0.975  -0.161   0.902  0.1900 -0.2684 -0.4592
  861MOL0     C13558   0.859  -0.160   0.798 -0.0350  0.7482 -0.5556
  861MOL0     C13559   0.722  -0.161   0.875  0.1427 -0.4444  0.2979
  861MOL0     C13560   0.597  -0.154   0.788  0.1582 -0.4906  0.5785
  861MOL0     C13561   0.472  -0.139   0.874  0.4486 -0.0202  0.2974
  861MOL0     C13562   0.343  -0.164   0.796 -0.5617  0.0831  0.1013
  861MOL0     C13563   0.215  -0.151   0.882 -0.0894  0.7300 -0.7025
  861MOL0    Cl13564   0.068  -0.148   0.771  0.5126  0.2707  0.1362
  861MOL0     C13565   1.391  -0.151   0.783  0.0971 -0.8710 -0.0122
  861MOL0     C13566   1.526  -0.115   0.770 -0.6706  0.3007 -0.0018
  861MOL0     O13567   1.736   0.082   0.540 -0.3091  0.1961 -0.0915
  861MOL0     C13568   1.997   0.166   0.575  0.2733  0.7203 -0.0003
  861MOL0     C13569   2.136   0.190   0.595  0.3476 -0.4624 -0.5842
  861MOL0     N13570   2.577   0.465   1.119  0.5889  0.0279  0.0423
  861MOL0     N13571   2.647   0.556   1.182  0.1571  1.0231  0.1971
  861MOL0     C13572   3.882   0.656   0.585  0.6102  0.2730  0.9881
  861MOL0     C13573   4.019   0.627   0.564 -0.9489  0.5423  0.6772
  861MOL0     C13574   4.410   0.419   0.582  0.0876 -0.0948 -0.2145
  861MOL0     C13575   4.493   0.528   0.559 -0.7034 -0.1706 -0.3791
  861MOL0     C13576   4.620   0.506   0.518 -0.1307 -0.1838  0.3348
  861MOL0     C13577   4.662   0.383   0.486 -0.0030  0.3069  0.1808
  861MOL0     O13578   4.798   0.380   0.442 -0.2599 -0.2575 -0.7123
  861MOL0     C13579   4.858   0.257   0.438  0.1208 -0.1991  0.0128
  861MOL0     C13580   4.998   0.276   0.391 -0.3589  0.0027  0.3424
  861MOL0     C13581   5.055   0.142   0.350 -0.0087  0.6788 -0.2792
  861MOL0     C13582   5.198   0.160   0.290  0.6102  0.0081 -0.3235
  861MOL0     C13583   5.257   0.041   0.237  0.0807  0.1968  0.5717
  861MOL0     C13584   5.299  -0.058   0.176  0.4052 -0.5164 -0.2480
  861MOL0     C13585   4.581   0.266   0.505 -0.2172  0.1045 -0.3504
  861MOL0     C13586   4.457   0.293   0.564  0.3330 -0.0363  0.6506
  861MOL0     H13587   4.105   0.494   0.854  2.1441  0.9016 -1.0095
  861MOL0     H13588   3.842   0.508   0.888 -0.3859  0.6698  0.5717
  861MOL0     H13589   3.675   0.663   0.918  0.2333 -0.1981 -0.6217
  861MOL0     H13590   3.622   0.513   0.840 -0.4133 -0.1497 -0.3311
  861MOL0     H13591   3.424   0.647   0.740 -1.9287 -3.3088  1.8604
  861MOL0     H13592   3.483   0.790   0.825 -1.3355 -0.1437 -2.8471
  861MOL0     H13593   3.470   0.673   1.028  0.8464  4.0221 -2.2720
  861MOL0     H13594   3.391   0.526   0.951 -4.5024  0.3748  1.2705
  861MOL0     H13595   3.271   0.799   0.928 -1.0020 -0.3756 -0.7272
  861MOL0     H13596   3.219   0.654   0.856  2.1625  1.8103 -1.8222
  861MOL0     H13597   3.219   0.709   1.157 -4.0139 -1.5752  1.7371
  861MOL0     H13598   3.205   0.548   1.099 -2.6084 -0.6639  0.0694
  861MOL0     H13599   3.005   0.597   0.962  1.3930 -1.2991  0.5374
  861MOL0     H13600   3.040   0.763   0.968  2.9180 -1.1688 -1.1297
  861MOL0     H13601   2.978   0.585   1.217 -2.1990  0.5396  3.4229
  861MOL0     H13602   2.997   0.754   1.234  0.7657 -1.1936  0.0991
  861MOL0     H13603   2.808   0.808   1.084  5.3644  0.1480 -0.8594
  861MOL0     H13604   2.778   0.747   1.249  0.0875 -0.1816 -0.4889
  861MOL0     H13605   2.785   0.591   0.900  2.9539 -3.0534  1.8190
  861MOL0     H13606   2.586   0.475   0.782  0.0285  1.3487  0.8507
  861MOL0     H13607   2.442   0.419   0.877 -0.0056  3.0030  2.3367
  861MOL0     H13608   2.554   0.213   0.942  1.9851 -1.1191 -0.5220
  861MOL0     H13609   2.704   0.267   0.863 -0.0386 -1.0418 -1.8395
  861MOL0     H13610   2.621   0.292   0.659 -0.7451 -0.4309 -0.2337
  861MOL0     H13611   2.583   0.127   0.698  0.9803 -0.0682  0.0471
  861MOL0     H13612   2.393   0.170   0.577  0.3537  1.1584 -0.9906
  861MOL0     H13613   2.383   0.344   0.644 -1.2028 -0.6770 -2.3726
  861MOL0     H13614   2.147   0.115   0.929 -0.0542  1.0297  0.5256
  861MOL0     H13615   1.909   0.029   0.878 -0.7117 -1.2475 -1.2071
  861MOL0     H13616   1.493   0.213   0.697 -0.1854 -0.5887 -1.1207
  861MOL0     H13617   1.258   0.150   0.705  0.2869  1.1601 -0.9877
  861MOL0     H13618   1.182  -0.205   0.933  0.0061  2.4569  0.4841
  861MOL0     H13619   1.120  -0.267   0.779  2.2022  2.3989 -1.8709
  861MOL0     H13620   0.976  -0.069   0.961 -3.5728  0.3574 -1.1385
  861MOL0     H13621   0.959  -0.238   0.979  1.0272  2.7985  3.1149
  861MOL0     H13622   0.875  -0.251   0.740  0.3141  0.4454  0.0117
  861MOL0     H13623   0.871  -0.066   0.744 -0.2834  2.0626  1.5321
  861MOL0     H13624   0.701  -0.248   0.938  0.4393 -2.5916 -2.4022
  861MOL0     H13625   0.727  -0.070   0.937  1.0738  0.8526 -1.5936
  861MOL0     H13626   0.601  -0.236   0.716  2.3628  1.4311 -1.7067
  861MOL0     H13627   0.586  -0.058   0.737 -0.0043 -0.0038  1.5083
  861MOL0     H13628   0.467  -0.043   0.927  1.1186  0.2121 -0.0621
  861MOL0     H13629   0.478  -0.224   0.943  2.3123 -3.0189 -3.2078
  861MOL0     H13630   0.343  -0.089   0.716  3.2975 -0.5144 -0.6449
  861MOL0     H13631   0.329  -0.269   0.769 -1.0401 -0.4661  2.2706
  861MOL0     H13632   0.227  -0.060   0.943  0.8235 -1.0635  1.9736
  861MOL0     H13633   0.187  -0.230   0.952 -3.2951  0.2619 -2.3523
  861MOL0     H13634   1.364  -0.253   0.807  0.2975 -1.5003 -2.2120
  861MOL0     H13635   1.599  -0.194   0.782  0.2753  1.3113  1.1597
  861MOL0     H13636   1.949   0.193   0.481  0.5506 -1.2580 -0.7735
  861MOL0     H13637   2.183   0.239   0.511 -1.5771 -0.3215 -1.6407
  861MOL0     H13638   3.826   0.701   0.504  0.2722 -0.5232  0.7695
  861MOL0     H13639   4.052   0.662   0.467  0.2433 -1.7954  0.1811
  861MOL0     H13640   4.448   0.627   0.567 -0.6445 -0.2122  0.5536
  861MOL0     H13641   4.687   0.590   0.504  0.3042 -0.7347 -1.0920
  861MOL0     H13642   4.812   0.191   0.363 -1.6650  1.3235 -0.3096
  861MOL0     H13643   4.870   0.211   0.536  4.4840 -2.8141 -1.4746
  861MOL0     H13644   4.996   0.350   0.310 -1.9539  1.4998  1.6844
  861MOL0     H13645   5.059   0.321   0.469  1.1548 -0.1486 -0.7026
  861MOL0     H13646   4.988   0.085   0.285  0.8364 -2.2078  1.2080
  861MOL0     H13647   5.079   0.078   0.436  3.0973  1.7205 -0.2274
  861MOL0     H13648   5.195   0.235   0.210 -0.6641 -0.3559 -0.6433
  861MOL0     H13649   5.262   0.192   0.373 -0.0695 -2.7599  1.4015
  861MOL0     H13650   5.339  -0.151   0.141 -3.4011 -1.8342 -1.6644
  861MOL0     H13651   4.615   0.167   0.478  0.1172 -0.4132  1.8237
  861MOL0     H13652   4.405   0.205   0.599  0.6040 -0.5186 -0.1243
  862MOL0     O13653   4.528   2.421   8.504  0.2243 -0.4148 -0.4213
  862MOL0     C13654   4.619   2.429   8.588  0.0360  0.0367 -0.2973
  862MOL0     O13655   4.592   2.426   8.721  0.9398 -0.2048 -0.4826
  862MOL0     C13656   4.476   2.376   8.769  0.4920  1.0903 -0.1236
  862MOL0     C13657   4.356   2.448   8.752  0.2481 -0.0110  0.0153
  862MOL0     C13658   4.237   2.395   8.804 -0.5113  0.1804  0.3239
  862MOL0     C13659   4.236   2.275   8.867 -0.1986  0.0627  0.1500
  862MOL0     O13660   4.121   2.222   8.916 -0.1262 -0.8170 -0.2434
  862MOL0     C13661   4.017   2.228   8.816  1.4981  1.0500  0.4191
  862MOL0     C13662   3.950   2.081   8.819 -0.2216 -0.3575  0.0919
  862MOL0     C13663   3.844   2.045   8.707 -1.0767 -0.8057  0.4162
  862MOL0     C13664   3.765   1.925   8.746 -0.3334 -0.2591 -0.1024
  862MOL0     C13665   3.686   1.938   8.880 -0.3477  0.3721 -0.3934
  862MOL0     C13666   3.572   2.041   8.868  0.0873  0.1992 -0.4604
  862MOL0     C13667   3.511   2.060   9.004  0.4917 -0.8540 -0.7020
  862MOL0     C13668   3.369   1.999   9.004 -0.7885  0.0832 -1.2668
  862MOL0     N13669   3.287   2.024   9.126 -0.0153 -0.0924 -0.1075
  862MOL0     C13670   3.339   2.044   9.257 -0.3663 -0.2294  0.1150
  862MOL0     C13671   3.222   2.045   9.332 -0.9479  0.2775 -0.4538
  862MOL0     C13672   3.222   2.082   9.487 -0.4333 -0.5902  0.2861
  862MOL0     C13673   3.081   2.092   9.556  1.3423  0.5429 -0.1510
  862MOL0     C13674   3.078   2.029   9.699  0.1653 -0.3260 -0.9869
  862MOL0     C13675   2.933   1.999   9.743  0.4698  0.2205 -0.8943
  862MOL0     O13676   2.858   1.932   9.644 -0.2730  0.3700 -0.0525
  862MOL0     C13677   2.730   1.877   9.658 -0.0028 -0.1542 -0.6192
  862MOL0     C13678   2.653   1.876   9.779 -0.2640 -0.4242 -0.6956
  862MOL0     C13679   2.523   1.815   9.781 -0.5733  0.8537 -0.1003
  862MOL0     C13680   2.468   1.758   9.669 -0.1634  0.1350  0.1400
  862MOL0     C13681   2.327   1.707   9.665 -0.3954 -0.1938 -0.5914
  862MOL0     O13682   2.254   1.707   9.780 -0.2053  0.6286 -0.5185
  862MOL0     C13683   2.119   1.682   9.783  0.8486 -0.1056  0.2952
  862MOL0     C13684   2.075   1.710   9.916  0.7214  0.5894  0.5000
  862MOL0     C13685   1.933   1.690   9.957 -0.0518 -0.0897  0.3268
  862MOL0     C13686   1.841   1.646   9.862 -0.2382  0.7320 -0.2323
  862MOL0     O13687   1.717   1.636   9.925 -0.2741  0.8147 -0.2022
  862MOL0     C13688   1.611   1.583   9.836  0.1651 -1.0519 -0.4584
  862MOL0     C13689   1.479   1.604   9.903 -0.0976 -0.0248 -0.4034
  862MOL0     C13690   1.370   1.518   9.843  0.5456 -0.5826 -0.1998
  862MOL0     C13691   1.236   1.542   9.912  0.6637 -0.6910  0.6564
  862MOL0     C13692   1.133   1.467   9.841  0.3503  1.4192 -0.1229
  862MOL0     C13693   0.994   1.470   9.909 -0.4057 -0.8288  0.3335
  862MOL0     C13694   0.903   1.374   9.843  0.4796  0.0059  0.2072
  862MOL0     C13695   0.750   1.386   9.887  0.2119  0.0496  0.2411
  862MOL0    Cl13696   0.750   1.347  10.061 -0.0599  0.2470 -0.3774
  862MOL0     C13697   1.880   1.608   9.734  0.1424  0.3965 -0.3678
  862MOL0     C13698   2.015   1.622   9.694 -0.4277 -0.3281 -0.8178
  862MOL0     O13699   2.282   1.678   9.554 -0.3732 -0.2027  0.0848
  862MOL0     C13700   2.547   1.758   9.552 -0.1334  0.3170 -0.0752
  862MOL0     C13701   2.675   1.815   9.545  0.6127 -0.3280  0.1288
  862MOL0     N13702   3.113   2.033   9.256 -0.2134  0.1090  0.4621
  862MOL0     N13703   3.151   2.040   9.132  0.3585 -0.2204  0.0499
  862MOL0     C13704   4.351   2.203   8.891 -1.1311  0.4650 -0.2614
  862MOL0     C13705   4.471   2.255   8.841 -0.1555 -0.0903  0.6460
  862MOL0     C13706   4.759   2.449   8.537 -0.8202  0.3344  0.8246
  862MOL0     C13707   4.855   2.531   8.607  0.1911  0.5872 -1.4822
  862MOL0     C13708   4.982   2.536   8.570 -0.3178 -1.0364  0.2725
  862MOL0     C13709   5.020   2.481   8.447 -0.8262 -0.4702  0.0791
  862MOL0     O13710   5.153   2.506   8.411 -0.7406 -0.3971 -0.1172
  862MOL0     C13711   5.157   2.616   8.326  0.4366  0.3647  0.3121
  862MOL0     C13712   5.289   2.684   8.304  0.3237 -0.3113  0.2681
  862MOL0     C13713   5.273   2.836   8.323  0.0358  0.6290  0.4961
  862MOL0     C13714   5.241   2.884   8.466 -0.0813  0.1067  0.3184
  862MOL0     C13715   5.338   2.834   8.564  0.0554  0.3403 -0.2433
  862MOL0     C13716   5.410   2.793   8.650 -0.4537  0.5340 -0.1243
  862MOL0     C13717   4.932   2.403   8.367 -0.0941  0.0939  0.1589
  862MOL0     C13718   4.806   2.382   8.420 -0.7542  0.8373 -0.1346
  862MOL0     H13719   4.356   2.540   8.694  1.0781  0.0668  0.1309
  862MOL0     H13720   4.150   2.459   8.789  0.0432  1.0698  0.8154
  862MOL0     H13721   4.043   2.235   8.710  0.1249 -2.5621 -0.3041
  862MOL0     H13722   3.948   2.306   8.849  0.0724  0.6957 -1.5403
  862MOL0     H13723   3.899   2.091   8.916 -2.3809  0.7173 -1.0969
  862MOL0     H13724   4.025   2.002   8.817  0.6158  0.4358 -2.1377
  862MOL0     H13725   3.895   2.021   8.613 -3.5112 -0.4879 -1.0527
  862MOL0     H13726   3.785   2.133   8.685 -0.5013 -0.6123 -0.4039
  862MOL0     H13727   3.687   1.911   8.671 -0.8085 -1.0293  0.5223
  862MOL0     H13728   3.826   1.836   8.765  0.1450 -0.2108 -1.3584
  862MOL0     H13729   3.751   1.969   8.963 -0.1493  1.7711 -1.0326
  862MOL0     H13730   3.645   1.839   8.902 -1.5830  0.7541 -0.8753
  862MOL0     H13731   3.508   2.023   8.781  0.6965 -3.7136 -0.3094
  862MOL0     H13732   3.613   2.140   8.848  1.9245 -1.0064 -3.3980
  862MOL0     H13733   3.591   2.025   9.069  1.8848 -0.5171 -2.1669
  862MOL0     H13734   3.488   2.166   9.018 -3.2970 -1.4006 -1.5571
  862MOL0     H13735   3.379   1.891   8.997 -2.5241 -0.0384 -2.5354
  862MOL0     H13736   3.312   2.027   8.914 -1.0604  0.3653 -1.0082
  862MOL0     H13737   3.440   2.059   9.292 -0.1694  2.3188 -1.3165
  862MOL0     H13738   3.260   2.184   9.491  0.7910 -0.9803 -0.5591
  862MOL0     H13739   3.289   2.023   9.551 -2.4944 -1.7748  1.4720
  862MOL0     H13740   3.016   2.039   9.486  0.7563  1.3357 -0.2219
  862MOL0     H13741   3.044   2.195   9.554 -0.3456 -0.0100 -3.0716
  862MOL0     H13742   3.129   1.932   9.698  0.7502 -0.0250 -1.9821
  862MOL0     H13743   3.126   2.093   9.773 -0.5482 -0.0645 -0.7450
  862MOL0     H13744   2.885   2.093   9.769  1.7932  0.6655  0.0786
  862MOL0     H13745   2.941   1.949   9.840  1.8285  2.7752  0.4394
  862MOL0     H13746   2.691   1.918   9.872 -3.6561 -0.7739  1.0401
  862MOL0     H13747   2.468   1.813   9.875 -0.6066 -2.3163 -0.0644
  862MOL0     H13748   2.151   1.740   9.986 -0.3987  0.2815  1.9027
  862MOL0     H13749   1.904   1.685  10.061 -0.0784 -1.1863  0.2817
  862MOL0     H13750   1.623   1.478   9.808  2.4411 -2.1178  3.6658
  862MOL0     H13751   1.611   1.646   9.747  3.6657 -0.2511 -0.0180
  862MOL0     H13752   1.440   1.706   9.906 -0.2374 -0.0753  2.7723
  862MOL0     H13753   1.494   1.572  10.007 -0.4791 -0.1011 -0.3678
  862MOL0     H13754   1.402   1.414   9.857  2.3169  0.1229  1.3566
  862MOL0     H13755   1.374   1.537   9.735 -1.7210 -2.0327 -0.6093
  862MOL0     H13756   1.239   1.512  10.017  0.0896  0.1958  0.9356
  862MOL0     H13757   1.219   1.650   9.901 -0.1943 -0.8430  0.3899
  862MOL0     H13758   1.158   1.361   9.836  0.0073  1.1815  1.9698
  862MOL0     H13759   1.139   1.512   9.742  0.8392  2.6121  0.4184
  862MOL0     H13760   0.939   1.564   9.902 -0.0433 -0.5027  1.5859
  862MOL0     H13761   1.005   1.446  10.016 -1.7321  1.9897  1.2046
  862MOL0     H13762   0.890   1.392   9.736 -1.6481  1.3384  0.6229
  862MOL0     H13763   0.934   1.269   9.846 -0.9332 -0.5904 -2.7037
  862MOL0     H13764   0.685   1.317   9.833 -0.5052  1.2009 -0.4241
  862MOL0     H13765   0.710   1.488   9.885  2.6741  1.1848  2.2970
  862MOL0     H13766   1.816   1.565   9.658  1.0432  3.9039 -3.3930
  862MOL0     H13767   2.052   1.601   9.594 -2.2934 -0.3267 -1.5542
  862MOL0     H13768   2.502   1.723   9.460 -0.1472  3.4820 -1.3790
  862MOL0     H13769   2.714   1.810   9.443 -0.9947 -4.1865 -0.4669
  862MOL0     H13770   4.355   2.114   8.954 -1.1829  0.8399  0.2787
  862MOL0     H13771   4.568   2.212   8.862  0.4811  1.4681  0.9494
  862MOL0     H13772   4.826   2.567   8.706 -1.0558 -1.1343 -1.1582
  862MOL0     H13773   5.056   2.582   8.634  0.2307 -1.0542 -0.3328
  862MOL0     H13774   5.081   2.691   8.351 -0.5152  0.4304 -2.4464
  862MOL0     H13775   5.118   2.580   8.230 -1.2313  1.8734  0.3672
  862MOL0     H13776   5.369   2.651   8.371  2.4609  5.0055  0.8478
  862MOL0     H13777   5.325   2.654   8.205  3.1201 -0.2021  1.1548
  862MOL0     H13778   5.193   2.872   8.257  2.1451  1.5980 -1.7255
  862MOL0     H13779   5.366   2.883   8.286 -0.3876  1.3582  0.3336
  862MOL0     H13780   5.256   2.992   8.472 -2.6936  0.6489 -0.9126
  862MOL0     H13781   5.137   2.868   8.495 -0.7879  0.2806 -1.8691
  862MOL0     H13782   5.495   2.749   8.697  1.7328  0.1101 -4.0291
  862MOL0     H13783   4.962   2.360   8.271 -0.3997  1.2224 -0.4600
  862MOL0     H13784   4.744   2.302   8.381 -0.8789  1.2820 -0.8550
  863MOL0     O13785   4.486   5.853  10.994 -0.0323 -0.1775  0.0384
  863MOL0     C13786   4.460   5.810  10.883  0.5441  0.2532  0.4248
  863MOL0     O13787   4.546   5.816  10.779  0.0119 -0.9674 -0.2830
  863MOL0     C13788   4.657   5.900  10.781 -0.2318 -0.0801 -0.4214
  863MOL0     C13789   4.674   6.024  10.840  0.6018  0.2176 -0.5282
  863MOL0     C13790   4.791   6.101  10.829  0.6424  0.3908 -0.5497
  863MOL0     C13791   4.900   6.061  10.756  1.0109  0.7084 -0.0859
  863MOL0     O13792   5.019   6.128  10.751 -0.1132 -0.1580 -0.2811
  863MOL0     C13793   5.037   6.265  10.795  0.2090  1.0295 -0.4480
  863MOL0     C13794   5.178   6.317  10.805  0.8352  0.6092  0.7873
  863MOL0     C13795   5.239   6.310  10.664  0.0736  0.8011 -0.2554
  863MOL0     C13796   5.379   6.364  10.653  0.7440  0.1056  0.0534
  863MOL0     C13797   5.439   6.366  10.505  0.1429 -0.3161 -0.2069
  863MOL0     C13798   5.357   6.459  10.407  0.2191  0.4673 -0.5931
  863MOL0     C13799   5.423   6.464  10.272 -0.0616  0.3772 -0.7639
  863MOL0     C13800   5.333   6.511  10.153 -0.4995  0.1316  0.1910
  863MOL0     N13801   5.201   6.450  10.145 -0.1634 -0.4027  0.7632
  863MOL0     C13802   5.172   6.317  10.132  0.2073 -0.2673 -0.6679
  863MOL0     C13803   5.033   6.308  10.134  0.0176  0.4991 -0.3880
  863MOL0     C13804   4.953   6.188  10.091  0.3275  0.1479  0.0660
  863MOL0     C13805   4.919   6.091  10.206 -0.9576 -0.2560  0.0879
  863MOL0     C13806   4.874   6.155  10.338  0.3514 -0.0364  0.3808
  863MOL0     C13807   4.755   6.242  10.315  0.2767  0.3567 -0.5970
  863MOL0     O13808   4.698   6.273  10.442  0.4731  0.2369 -0.0683
  863MOL0     C13809   4.623   6.382  10.438  0.6486  0.1615 -0.5211
  863MOL0     C13810   4.547   6.427  10.330 -0.3483  0.2933 -0.0064
  863MOL0     C13811   4.464   6.538  10.341  0.0526 -0.0396 -0.1303
  863MOL0     C13812   4.442   6.608  10.454  0.4283 -0.3773 -0.1136
  863MOL0     C13813   4.346   6.719  10.460  0.0584  0.7105 -0.5807
  863MOL0     O13814   4.282   6.713  10.583  0.0756  0.2673  0.0265
  863MOL0     C13815   4.165   6.786  10.601 -0.1438 -0.6473  0.4648
  863MOL0     C13816   4.156   6.923  10.587 -0.0328 -0.0699  0.3542
  863MOL0     C13817   4.046   6.994  10.597  0.7489 -1.2818 -0.2173
  863MOL0     C13818   3.923   6.937  10.627 -1.5626  0.0568  0.0095
  863MOL0     O13819   3.814   7.010  10.664  0.2568  0.1915  0.6515
  863MOL0     C13820   3.793   7.028  10.804  0.8181 -0.1960  0.4118
  863MOL0     C13821   3.684   7.128  10.820  0.2591  0.0352 -0.9800
  863MOL0     C13822   3.634   7.120  10.966 -0.1966  0.3218  0.4352
  863MOL0     C13823   3.540   7.240  10.986 -0.2511 -0.2066  0.1377
  863MOL0     C13824   3.457   7.232  11.117 -0.3722  0.6276 -0.0145
  863MOL0     C13825   3.337   7.324  11.111 -0.3465 -0.8930  1.4507
  863MOL0     C13826   3.251   7.297  11.231  0.2671 -1.0192 -0.0253
  863MOL0     C13827   3.142   7.392  11.245 -0.1500  0.8900  0.3242
  863MOL0    Cl13828   2.997   7.338  11.344 -0.0421 -0.1831  0.0684
  863MOL0     C13829   3.922   6.807  10.652  0.4084  0.3240 -0.1451
  863MOL0     C13830   4.045   6.722  10.642 -0.8074 -0.9058  0.9463
  863MOL0     O13831   4.306   6.768  10.352  0.0639  0.5071  0.1200
  863MOL0     C13832   4.511   6.564  10.567 -0.6421 -0.1787  0.5678
  863MOL0     C13833   4.601   6.456  10.559 -0.5628 -0.1265 -0.3880
  863MOL0     N13834   4.982   6.434  10.140  0.1313  0.2125  0.3073
  863MOL0     N13835   5.086   6.520  10.147  1.0198  0.4298 -1.0253
  863MOL0     C13836   4.892   5.932  10.697 -0.1418 -0.1496  0.4147
  863MOL0     C13837   4.768   5.857  10.714 -0.9325 -0.6481  0.6846
  863MOL0     C13838   4.332   5.739  10.867 -0.5585  0.5536 -0.9910
  863MOL0     C13839   4.295   5.701  10.739  1.1353 -0.6740 -0.3699
  863MOL0     C13840   4.185   5.626  10.713  0.3806 -0.0734  0.7786
  863MOL0     C13841   4.108   5.577  10.819  0.7607  0.1727  0.5772
  863MOL0     O13842   3.993   5.497  10.800 -1.0550  0.2382  0.1438
  863MOL0     C13843   3.953   5.464  10.665  0.1772  0.9274 -0.1323
  863MOL0     C13844   3.854   5.571  10.625 -0.5555  0.3909  0.4373
  863MOL0     C13845   3.799   5.540  10.486  0.3904 -0.0643 -0.8053
  863MOL0     C13846   3.704   5.650  10.433 -0.5146  0.1538  0.0412
  863MOL0     C13847   3.703   5.629  10.288 -0.2623 -0.0126  0.5283
  863MOL0     C13848   3.707   5.605  10.172 -0.0175  0.4200  0.0384
  863MOL0     C13849   4.143   5.615  10.958 -0.3020  0.4308 -0.2002
  863MOL0     C13850   4.253   5.696  10.974 -0.1267  0.4784  0.3586
  863MOL0     H13851   4.592   6.051  10.905  0.2443 -1.3713 -0.2763
  863MOL0     H13852   4.798   6.199  10.874 -1.2070 -0.3230  1.5136
  863MOL0     H13853   5.000   6.263  10.898 -1.3112 -0.3440 -0.9799
  863MOL0     H13854   4.984   6.328  10.722  1.3532  1.1865 -1.1634
  863MOL0     H13855   5.230   6.256  10.879 -1.3900  1.4523  3.2540
  863MOL0     H13856   5.166   6.418  10.846  1.5110  0.3884  1.5526
  863MOL0     H13857   5.166   6.356  10.596 -2.9221 -2.6657  0.3127
  863MOL0     H13858   5.252   6.205  10.638 -2.2404  0.2987  0.3379
  863MOL0     H13859   5.376   6.466  10.694  0.6656 -0.8070  2.4842
  863MOL0     H13860   5.452   6.317  10.719 -1.0378  0.7198  2.6088
  863MOL0     H13861   5.449   6.260  10.482  1.8071 -1.1926  3.6818
  863MOL0     H13862   5.537   6.414  10.511 -0.2134  0.4225 -0.1393
  863MOL0     H13863   5.328   6.560  10.438 -3.1493 -1.0913  2.1373
  863MOL0     H13864   5.260   6.407  10.401  0.3078  0.3844 -1.4864
  863MOL0     H13865   5.509   6.528  10.288 -0.1279  0.1625  0.5791
  863MOL0     H13866   5.468   6.365  10.263 -0.1370 -0.1621  3.1977
  863MOL0     H13867   5.381   6.472  10.063  0.0070 -0.4186  0.6828
  863MOL0     H13868   5.321   6.618  10.167  3.2786  0.5657  1.3935
  863MOL0     H13869   5.256   6.248  10.126  1.0114  0.5513  0.6311
  863MOL0     H13870   5.006   6.132  10.014  1.9734  1.0769  0.4828
  863MOL0     H13871   4.859   6.230  10.053  0.5450  2.9193  2.2546
  863MOL0     H13872   5.008   6.031  10.227 -1.1840 -1.5914 -2.4556
  863MOL0     H13873   4.839   6.025  10.171  0.2445  0.2664 -4.1438
  863MOL0     H13874   4.849   6.076  10.410 -0.5132 -0.5204 -0.4349
  863MOL0     H13875   4.953   6.217  10.381 -0.6626  2.8180 -1.5735
  863MOL0     H13876   4.683   6.179  10.262  1.9530 -1.5377 -0.7467
  863MOL0     H13877   4.784   6.333  10.262  0.4317  0.4488 -0.3529
  863MOL0     H13878   4.545   6.368  10.239 -1.8275 -1.5094  1.1208
  863MOL0     H13879   4.421   6.557  10.243 -0.7302 -1.9388 -0.2019
  863MOL0     H13880   4.247   6.977  10.563 -1.4245  1.2617 -2.3831
  863MOL0     H13881   4.053   7.102  10.596 -1.8985 -1.0410 -1.3588
  863MOL0     H13882   3.876   7.069  10.862  1.2150 -0.3675 -0.0216
  863MOL0     H13883   3.745   6.939  10.846  0.7654  0.0862  0.9502
  863MOL0     H13884   3.609   7.113  10.742 -1.8864 -0.7785  1.1393
  863MOL0     H13885   3.723   7.229  10.802  0.6093 -0.2786 -2.0465
  863MOL0     H13886   3.713   7.131  11.042 -0.4116 -1.8411  1.0345
  863MOL0     H13887   3.584   7.028  10.996 -1.6386  1.7343  2.6378
  863MOL0     H13888   3.584   7.340  10.976  0.1358 -0.4299 -0.4715
  863MOL0     H13889   3.471   7.239  10.900  2.0537  0.3745 -1.8313
  863MOL0     H13890   3.519   7.261  11.202 -0.6567 -0.0694  0.4353
  863MOL0     H13891   3.429   7.127  11.130 -1.4122  0.9867  0.7039
  863MOL0     H13892   3.279   7.313  11.019  1.7550 -0.7934  0.0464
  863MOL0     H13893   3.376   7.425  11.098  0.5282 -1.5153 -1.6001
  863MOL0     H13894   3.212   7.195  11.229 -0.6597 -0.6772 -1.8272
  863MOL0     H13895   3.304   7.298  11.327 -1.2098 -0.5391  0.8068
  863MOL0     H13896   3.114   7.410  11.141 -0.5825  2.5941  0.7034
  863MOL0     H13897   3.179   7.489  11.280  0.4026 -0.7311  4.8272
  863MOL0     H13898   3.830   6.761  10.685  0.9388  0.9840  2.4943
  863MOL0     H13899   4.050   6.615  10.660  3.6792 -1.1675 -0.4536
  863MOL0     H13900   4.493   6.607  10.665 -0.2248 -1.0820  1.0577
  863MOL0     H13901   4.655   6.417  10.645 -1.4587 -3.1695 -1.0773
  863MOL0     H13902   4.955   5.871  10.634 -2.2226  0.9630 -3.0369
  863MOL0     H13903   4.780   5.754  10.683  2.0197 -0.2366  0.1987
  863MOL0     H13904   4.351   5.726  10.650  1.1314  1.4193  0.1598
  863MOL0     H13905   4.167   5.605  10.608 -2.6324  0.3046  1.1295
  863MOL0     H13906   3.901   5.368  10.670  0.5903  0.7656  2.9747
  863MOL0     H13907   4.032   5.437  10.594 -0.7788 -3.7703  0.2786
  863MOL0     H13908   3.780   5.581  10.705  1.9299  0.9914  2.8067
  863MOL0     H13909   3.905   5.668  10.620  0.6586 -0.2834 -1.3587
  863MOL0     H13910   3.744   5.446  10.495  2.7196 -1.3937  0.3849
  863MOL0     H13911   3.880   5.529  10.413  1.5537  1.0316  0.2699
  863MOL0     H13912   3.602   5.644  10.472  0.0890 -0.1131  1.6147
  863MOL0     H13913   3.744   5.751  10.442 -1.2592  0.4493  0.0974
  863MOL0     H13914   3.697   5.582  10.068 -0.9404  0.0631  0.1979
  863MOL0     H13915   4.094   5.580  11.048  2.2617 -2.6501  0.1922
  863MOL0     H13916   4.276   5.720  11.078 -2.2594 -3.2115  1.9033
  864MOL0     O13917   3.172   4.544   8.978  0.0515 -0.9392 -0.3724
  864MOL0     C13918   3.116   4.526   9.085  0.6505 -0.3100 -0.0235
  864MOL0     O13919   3.174   4.552   9.212 -0.1355 -0.6327  0.5047
  864MOL0     C13920   3.305   4.609   9.202  0.2784 -0.8183 -0.8105
  864MOL0     C13921   3.411   4.527   9.187  0.0096  0.9009  0.5706
  864MOL0     C13922   3.542   4.580   9.187  0.2189 -0.4227 -0.0756
  864MOL0     C13923   3.561   4.712   9.215 -0.1734 -0.9387 -0.7319
  864MOL0     O13924   3.694   4.756   9.226 -0.7269  0.9028 -0.4790
  864MOL0     C13925   3.730   4.894   9.221  0.3037  0.2783  1.0710
  864MOL0     C13926   3.873   4.889   9.207 -0.2101 -0.0166  0.1709
  864MOL0     C13927   3.941   5.028   9.207 -0.1915  0.3939  0.5995
  864MOL0     C13928   3.882   5.115   9.313  0.3901  0.8922  0.0080
  864MOL0     C13929   3.963   5.241   9.344  0.1064  0.3604 -0.3725
  864MOL0     C13930   3.877   5.309   9.458  0.3798 -0.3764  0.2888
  864MOL0     C13931   3.955   5.425   9.518  0.4811 -0.4729 -0.5095
  864MOL0     C13932   3.855   5.523   9.581  0.0265  0.4267  0.0055
  864MOL0     N13933   3.793   5.454   9.694 -0.2404  0.2117  0.7690
  864MOL0     C13934   3.667   5.404   9.700 -0.0657  1.5458 -0.0492
  864MOL0     C13935   3.649   5.373   9.833  0.6963 -0.2681 -0.0631
  864MOL0     C13936   3.526   5.304   9.897  0.7477  0.1569  0.0318
  864MOL0     C13937   3.424   5.396   9.958  0.1134 -0.0914 -0.8160
  864MOL0     C13938   3.383   5.507   9.865  0.6842  0.2284 -0.3575
  864MOL0     C13939   3.263   5.592   9.917  0.7383 -0.4709 -0.4731
  864MOL0     O13940   3.271   5.647  10.054  0.5434 -0.0302 -0.6400
  864MOL0     C13941   3.170   5.678  10.144 -0.4247 -0.3951 -0.1163
  864MOL0     C13942   3.204   5.763  10.249  1.0299 -0.0096 -0.7938
  864MOL0     C13943   3.108   5.838  10.322 -0.5182  0.0636 -0.2300
  864MOL0     C13944   2.971   5.822  10.294 -0.2095 -1.0057 -0.4807
  864MOL0     C13945   2.865   5.897  10.370  0.5042 -0.5310 -0.0419
  864MOL0     O13946   2.732   5.868  10.357  0.1720 -0.3974  0.0349
  864MOL0     C13947   2.628   5.951  10.404 -0.4139 -0.0228  0.1549
  864MOL0     C13948   2.637   6.092  10.432  0.0641 -0.2417  0.0756
  864MOL0     C13949   2.525   6.168  10.476  0.9837  0.3973 -0.1720
  864MOL0     C13950   2.399   6.102  10.471  1.0233 -0.6333  0.8830
  864MOL0     O13951   2.300   6.179  10.509 -0.7395 -0.1716 -0.0822
  864MOL0     C13952   2.181   6.131  10.577  0.0979  0.6203  0.5981
  864MOL0     C13953   2.117   6.243  10.666 -0.2593  0.7033  0.1821
  864MOL0     C13954   2.193   6.274  10.795 -0.4715  0.3070  0.1773
  864MOL0     C13955   2.117   6.399  10.855  0.8709 -0.0181  0.2772
  864MOL0     C13956   2.200   6.432  10.984 -0.0499 -0.0792  0.0421
  864MOL0     C13957   2.132   6.536  11.080  0.5081  0.0652  0.4000
  864MOL0     C13958   1.999   6.500  11.141  0.2898  0.0047 -0.8770
  864MOL0     C13959   1.954   6.609  11.248 -0.2724  0.0254 -0.2369
  864MOL0    Cl13960   1.827   6.546  11.357  0.1231  0.2443 -0.0441
  864MOL0     C13961   2.381   5.967  10.447 -0.0374 -0.0458 -0.0020
  864MOL0     C13962   2.500   5.896  10.409  0.4563  0.2597  0.8048
  864MOL0     O13963   2.909   5.993  10.433 -0.2606 -0.6869 -0.1891
  864MOL0     C13964   2.934   5.730  10.194 -0.4917  0.4128 -0.3857
  864MOL0     C13965   3.038   5.668  10.114 -0.0967  0.0396 -0.9991
  864MOL0     N13966   3.765   5.401   9.901 -1.3646 -0.8382  0.0961
  864MOL0     N13967   3.854   5.448   9.820  0.3502 -1.1397 -0.6246
  864MOL0     C13968   3.451   4.797   9.233 -0.1884  0.3846 -0.5590
  864MOL0     C13969   3.319   4.742   9.228 -0.2019 -0.3306 -0.3412
  864MOL0     C13970   2.982   4.477   9.069  0.4984 -0.2842  0.0194
  864MOL0     C13971   2.939   4.397   8.960  0.1049  0.6845 -0.4905
  864MOL0     C13972   2.805   4.353   8.933  0.6890  0.2104 -0.2172
  864MOL0     C13973   2.703   4.398   9.022 -0.8824  0.0687 -0.2640
  864MOL0     O13974   2.573   4.368   9.006 -0.0763 -0.5649 -0.3725
  864MOL0     C13975   2.537   4.293   8.893  0.1695 -0.4899 -0.7311
  864MOL0     C13976   2.388   4.265   8.893 -0.4679 -0.3169 -0.3581
  864MOL0     C13977   2.297   4.385   8.856  0.3771 -0.3128 -0.7492
  864MOL0     C13978   2.160   4.324   8.826  0.1089  0.5068  0.6127
  864MOL0     C13979   2.063   4.432   8.804 -0.2092  0.4496  0.3003
  864MOL0     C13980   2.000   4.526   8.766 -0.0441 -0.6794  0.5331
  864MOL0     C13981   2.742   4.466   9.133 -0.1957  0.4509 -0.8304
  864MOL0     C13982   2.879   4.501   9.161  0.1336  0.4203  0.2859
  864MOL0     H13983   3.384   4.423   9.171  0.0176  1.1295 -1.0901
  864MOL0     H13984   3.630   4.517   9.182 -0.6790 -1.7096 -0.3807
  864MOL0     H13985   3.691   4.944   9.310 -3.4391  0.5016 -0.5229
  864MOL0     H13986   3.690   4.947   9.134  0.6779 -2.0508 -0.6261
  864MOL0     H13987   3.896   4.831   9.117 -2.9441 -3.7906  1.6657
  864MOL0     H13988   3.914   4.835   9.293  2.3586 -2.7670 -2.5179
  864MOL0     H13989   3.939   5.079   9.110 -1.6268  1.5890  1.2145
  864MOL0     H13990   4.046   5.011   9.231 -0.1441  0.0220  0.1438
  864MOL0     H13991   3.788   5.145   9.265  1.2825  0.9930 -1.7807
  864MOL0     H13992   3.876   5.056   9.405  2.2554  0.6576  0.0019
  864MOL0     H13993   3.981   5.301   9.254  1.1390 -1.3196 -1.3631
  864MOL0     H13994   4.060   5.208   9.382  0.5338  1.2126 -0.6909
  864MOL0     H13995   3.860   5.236   9.538 -0.4284 -1.4384 -0.8103
  864MOL0     H13996   3.786   5.354   9.419  0.4763  1.4554  2.0333
  864MOL0     H13997   4.022   5.388   9.596  0.5517 -0.4176 -0.5440
  864MOL0     H13998   4.014   5.487   9.450  1.1797 -0.0938  0.4333
  864MOL0     H13999   3.774   5.550   9.512 -0.8445 -1.2477  0.3256
  864MOL0     H14000   3.898   5.616   9.620  0.2863 -0.5256  2.0892
  864MOL0     H14001   3.588   5.403   9.625  0.1855 -0.5373 -0.3520
  864MOL0     H14002   3.546   5.229   9.974 -0.3486 -0.3759 -0.1847
  864MOL0     H14003   3.468   5.253   9.820 -3.4142  5.2131 -0.7687
  864MOL0     H14004   3.467   5.434  10.051 -0.1316  3.8052 -2.1111
  864MOL0     H14005   3.330   5.344   9.979 -0.7365  1.7750  0.3342
  864MOL0     H14006   3.465   5.577   9.847 -0.5072  1.0002 -3.6304
  864MOL0     H14007   3.354   5.467   9.767 -0.7925 -2.9950  1.2706
  864MOL0     H14008   3.181   5.519   9.913  0.5423 -0.2134 -1.0970
  864MOL0     H14009   3.238   5.675   9.850 -1.1231 -0.5037  0.1341
  864MOL0     H14010   3.306   5.757  10.284  0.6080  0.1686  0.5137
  864MOL0     H14011   3.141   5.901  10.404 -1.2307  0.0439  0.0841
  864MOL0     H14012   2.730   6.147  10.443 -0.6287  0.8736  0.5649
  864MOL0     H14013   2.532   6.269  10.515  0.7859  0.5257 -0.4661
  864MOL0     H14014   2.197   6.041  10.637 -0.4209 -0.2745 -0.5662
  864MOL0     H14015   2.116   6.088  10.500  2.0691 -0.4722 -0.5399
  864MOL0     H14016   2.019   6.205  10.693 -1.3832  0.9718 -3.0379
  864MOL0     H14017   2.112   6.338  10.612  0.7665  2.0885  2.3849
  864MOL0     H14018   2.296   6.301  10.772 -0.1359 -1.5445 -0.6886
  864MOL0     H14019   2.197   6.188  10.863  1.4907 -1.5545 -2.1233
  864MOL0     H14020   2.111   6.490  10.795 -2.8090 -0.8280 -0.8343
  864MOL0     H14021   2.013   6.366  10.866  0.1634 -1.2163 -5.9775
  864MOL0     H14022   2.298   6.469  10.954 -0.3591  0.3151 -0.4890
  864MOL0     H14023   2.222   6.335  11.031 -2.0508  0.3711  2.0916
  864MOL0     H14024   2.107   6.630  11.031 -1.2182 -1.5018 -1.9772
  864MOL0     H14025   2.204   6.553  11.160  2.2615 -1.6876 -0.6872
  864MOL0     H14026   1.920   6.485  11.068 -0.5269 -0.7868  0.1375
  864MOL0     H14027   2.006   6.408  11.200 -0.2459  1.2295  1.1814
  864MOL0     H14028   1.934   6.710  11.212 -1.4209 -0.3246 -0.6162
  864MOL0     H14029   2.044   6.618  11.310  1.5175 -3.0950 -2.1459
  864MOL0     H14030   2.282   5.923  10.437 -0.4841  1.1840 -1.4297
  864MOL0     H14031   2.473   5.801  10.364 -1.8396  0.3913  1.7466
  864MOL0     H14032   2.828   5.706  10.186 -0.6520  0.1931  1.8460
  864MOL0     H14033   3.005   5.605  10.032 -0.6285 -0.9933 -0.0189
  864MOL0     H14034   3.449   4.904   9.249 -2.9421  0.4884 -1.1316
  864MOL0     H14035   3.235   4.806   9.253  0.9186  1.0613  0.0076
  864MOL0     H14036   3.016   4.361   8.892  0.6660 -1.9387  1.3576
  864MOL0     H14037   2.789   4.295   8.843 -2.9584  0.0925  0.3688
  864MOL0     H14038   2.585   4.195   8.900  3.1243  0.9268  1.2208
  864MOL0     H14039   2.564   4.340   8.798  2.1390  0.2690  0.1427
  864MOL0     H14040   2.378   4.181   8.823  0.4685 -0.1354 -0.7227
  864MOL0     H14041   2.349   4.227   8.988 -1.4532  0.1078 -0.5770
  864MOL0     H14042   2.326   4.441   8.766 -0.6953  0.0965 -0.8603
  864MOL0     H14043   2.303   4.454   8.940  0.6873 -2.3589  0.9820
  864MOL0     H14044   2.172   4.282   8.726 -4.1444  3.6267 -1.5333
  864MOL0     H14045   2.126   4.244   8.893 -0.5151 -0.3315 -0.6659
  864MOL0     H14046   1.930   4.605   8.749 -1.2809 -0.6639  4.5324
  864MOL0     H14047   2.654   4.484   9.195 -0.5194  0.8619 -1.3992
  864MOL0     H14048   2.896   4.566   9.246  3.0314 -0.2386  0.3346
  865MOL0     O14049  10.880   1.020   0.826 -0.1989 -0.2075 -0.3470
  865MOL0     C14050  10.975   1.021   0.747 -0.6916 -0.1843  0.0494
  865MOL0     O14051  10.981   1.094   0.627 -0.3922 -0.4980 -0.2309
  865MOL0     C14052  10.886   1.192   0.605 -0.7164  0.8986 -0.7732
  865MOL0     C14053  10.832   1.273   0.702 -0.5922 -0.9520  0.0992
  865MOL0     C14054  10.738   1.373   0.667  0.4186  0.0741  0.1303
  865MOL0     C14055  10.705   1.402   0.530 -0.2052  0.0497  0.5502
  865MOL0     O14056  10.608   1.489   0.483 -0.4140  0.2094 -0.2976
  865MOL0     C14057  10.525   1.557   0.581  0.9698 -0.2192  0.2865
  865MOL0     C14058  10.421   1.459   0.637  0.2629  0.5994 -0.1822
  865MOL0     C14059  10.305   1.530   0.713 -0.3412 -0.1782 -0.1315
  865MOL0     C14060  10.195   1.419   0.727 -0.0208  0.3978 -0.0247
  865MOL0     C14061  10.065   1.486   0.766  0.2932  0.3179  0.0486
  865MOL0     C14062   9.997   1.550   0.652  0.0077  0.0449 -0.7975
  865MOL0     C14063   9.845   1.588   0.671  0.4952 -0.3424 -0.7099
  865MOL0     C14064   9.791   1.637   0.535  0.6348  0.5447 -0.3044
  865MOL0     N14065   9.645   1.625   0.538  0.2662  0.6386 -0.5464
  865MOL0     C14066   9.572   1.613   0.424 -0.4367 -0.7404  0.2292
  865MOL0     C14067   9.449   1.628   0.466  0.7628 -0.4807  0.2338
  865MOL0     C14068   9.324   1.612   0.385  0.5363 -0.0237  0.4600
  865MOL0     C14069   9.315   1.714   0.266 -0.6609  0.1529 -0.1892
  865MOL0     C14070   9.207   1.683   0.160  0.4562  0.7113  0.7076
  865MOL0     C14071   9.066   1.721   0.217 -0.3350 -0.3981 -0.0592
  865MOL0     O14072   9.010   1.627   0.309  0.4948 -0.3966 -0.4922
  865MOL0     C14073   8.920   1.535   0.265  0.7274  0.9238 -0.1903
  865MOL0     C14074   8.920   1.476   0.139  0.3810  0.0992 -0.2260
  865MOL0     C14075   8.817   1.388   0.109 -0.0486 -0.0273  0.2213
  865MOL0     C14076   8.720   1.352   0.206 -0.2295 -1.6262  1.0655
  865MOL0     C14077   8.623   1.244   0.188  0.0336 -0.5825  0.7725
  865MOL0     O14078   8.619   1.184   0.065 -0.2101 -0.2667 -0.1244
  865MOL0     C14079   8.612   1.046   0.067 -0.2249 -0.6251 -0.1341
  865MOL0     C14080   8.493   0.973   0.058 -0.0088 -0.3343 -0.6745
  865MOL0     C14081   8.494   0.833   0.054 -0.5502  0.3827  0.1854
  865MOL0     C14082   8.615   0.765   0.072  0.5342  1.2202 -0.1815
  865MOL0     O14083   8.614   0.627   0.080  0.2295 -0.3511 -0.1716
  865MOL0     C14084   8.666   0.565  -0.038  0.0593 -0.6989  0.1284
  865MOL0     C14085   8.646   0.417  -0.023  0.2297 -0.2287 -0.0914
  865MOL0     C14086   8.691   0.343  -0.142 -0.1003 -0.1660  0.1039
  865MOL0     C14087   8.684   0.189  -0.102 -0.0098 -0.5551 -0.0176
  865MOL0     C14088   8.706   0.109  -0.226 -0.0251 -0.3332 -0.4383
  865MOL0     C14089   8.853   0.091  -0.273 -0.4060 -0.2560 -0.9398
  865MOL0     C14090   8.879   0.018  -0.410  0.1748 -0.2601  0.1355
  865MOL0     C14091   8.967   0.100  -0.503  0.6788 -0.7618  0.0325
  865MOL0    Cl14092   9.130   0.094  -0.427 -0.0603  0.0721  0.1687
  865MOL0     C14093   8.732   0.832   0.099 -0.4047 -0.2344 -0.3656
  865MOL0     C14094   8.729   0.974   0.095 -0.1407  0.0532 -1.0632
  865MOL0     O14095   8.543   1.220   0.275  0.0545 -0.3464 -0.3931
  865MOL0     C14096   8.728   1.414   0.330  0.6496  0.0603  1.1301
  865MOL0     C14097   8.822   1.500   0.364 -1.0620 -0.1443  0.7313
  865MOL0     N14098   9.442   1.641   0.603 -0.2698 -0.2662  0.6471
  865MOL0     N14099   9.560   1.648   0.645 -0.1095 -0.0522  0.0334
  865MOL0     C14100  10.786   1.337   0.434 -0.1930 -0.0158 -0.4255
  865MOL0     C14101  10.863   1.226   0.465 -0.2586  0.3954 -0.4461
  865MOL0     C14102  11.076   0.918   0.769 -0.7231 -0.4929 -0.5189
  865MOL0     C14103  11.186   0.916   0.685 -0.1499 -0.4831  0.0639
  865MOL0     C14104  11.291   0.823   0.698  0.1196  0.4435  0.0537
  865MOL0     C14105  11.283   0.730   0.805  0.3143 -0.4676  0.6214
  865MOL0     O14106  11.378   0.639   0.843  0.6713 -0.6259  0.6791
  865MOL0     C14107  11.491   0.613   0.760 -0.9665  0.7258 -0.4052
  865MOL0     C14108  11.621   0.688   0.806  0.3860 -0.2287 -0.0331
  865MOL0     C14109  11.748   0.654   0.735  0.2231  0.2503  0.1234
  865MOL0     C14110  11.858   0.757   0.735 -0.1197 -0.4847 -0.0118
  865MOL0     C14111  11.886   0.802   0.872  0.5270  0.1975 -0.4502
  865MOL0     C14112  11.911   0.832   0.982 -0.2352  0.3532 -0.5505
  865MOL0     C14113  11.170   0.731   0.886 -0.8297 -0.1793 -0.0493
  865MOL0     C14114  11.065   0.826   0.871  0.0319  0.2134 -0.5054
  865MOL0     H14115  10.862   1.246   0.802  0.9758 -2.3779 -0.7127
  865MOL0     H14116  10.686   1.409   0.756 -0.3137  1.9053 -0.9661
  865MOL0     H14117  10.474   1.638   0.528  3.5238  0.1290 -1.8377
  865MOL0     H14118  10.575   1.601   0.668 -1.0886  2.0613  0.4595
  865MOL0     H14119  10.463   1.382   0.702 -1.2859  0.1136  0.2898
  865MOL0     H14120  10.380   1.427   0.540  1.0177  2.6022 -1.2127
  865MOL0     H14121  10.283   1.623   0.659  0.5412 -0.0109 -0.2244
  865MOL0     H14122  10.342   1.561   0.811 -2.5116  1.0919  0.3530
  865MOL0     H14123  10.179   1.356   0.640  1.2378 -0.0758  0.0636
  865MOL0     H14124  10.223   1.354   0.810  1.8098  0.7789 -0.2976
  865MOL0     H14125  10.076   1.572   0.834 -1.0526  0.7813 -0.2918
  865MOL0     H14126  10.002   1.408   0.808 -1.0227  1.4765  0.3097
  865MOL0     H14127   9.997   1.481   0.567 -1.0562 -0.5660 -0.3312
  865MOL0     H14128  10.057   1.638   0.627  1.6796 -1.8197 -3.7980
  865MOL0     H14129   9.788   1.499   0.698 -2.7100  1.4091 -1.2315
  865MOL0     H14130   9.824   1.662   0.748  1.9173  0.1788 -0.8002
  865MOL0     H14131   9.829   1.578   0.451 -1.2011 -0.4404 -0.4997
  865MOL0     H14132   9.808   1.744   0.519 -2.8229  1.1755 -0.5103
  865MOL0     H14133   9.604   1.598   0.321 -0.0962 -1.4589  0.4302
  865MOL0     H14134   9.234   1.609   0.448 -0.7291 -1.4334 -1.3028
  865MOL0     H14135   9.322   1.508   0.350 -2.0669  0.2890 -0.5420
  865MOL0     H14136   9.410   1.707   0.211  0.3200 -1.1384  1.5226
  865MOL0     H14137   9.310   1.812   0.315  2.5176  0.4503 -0.2434
  865MOL0     H14138   9.234   1.742   0.071  0.3231  1.9584  1.4764
  865MOL0     H14139   9.210   1.577   0.131 -1.2525  1.4274 -2.5275
  865MOL0     H14140   8.994   1.739   0.137  0.4096 -1.3430 -0.9688
  865MOL0     H14141   9.075   1.820   0.264 -1.6667  1.5193 -3.4865
  865MOL0     H14142   8.992   1.500   0.061  1.8219 -4.0857 -0.4461
  865MOL0     H14143   8.801   1.364   0.004  3.3540  1.2406 -0.7218
  865MOL0     H14144   8.400   1.028   0.049  0.6142  0.4803 -2.6739
  865MOL0     H14145   8.408   0.767   0.060  1.4077 -2.2187  4.3067
  865MOL0     H14146   8.771   0.589  -0.059  0.2043 -1.4798 -0.0932
  865MOL0     H14147   8.600   0.598  -0.118 -0.7468 -3.1299 -0.2959
  865MOL0     H14148   8.541   0.396  -0.002  0.4215 -1.6180 -0.4530
  865MOL0     H14149   8.694   0.385   0.070 -1.0486 -0.4207  0.5327
  865MOL0     H14150   8.788   0.366  -0.188 -0.0003 -1.2976 -0.2803
  865MOL0     H14151   8.627   0.373  -0.225 -0.2094 -1.0432 -0.1430
  865MOL0     H14152   8.763   0.162  -0.031  0.6874 -0.5248 -0.7661
  865MOL0     H14153   8.585   0.161  -0.064 -0.4799 -0.4007 -1.0880
  865MOL0     H14154   8.635   0.144  -0.302 -2.1435 -0.9737  1.1354
  865MOL0     H14155   8.670   0.009  -0.198 -0.6392 -0.2591 -0.9298
  865MOL0     H14156   8.909   0.035  -0.198  1.6155  1.4942 -1.0569
  865MOL0     H14157   8.914   0.181  -0.273 -0.0927 -0.4045  1.7361
  865MOL0     H14158   8.932  -0.076  -0.393  0.2715  0.1426  2.3693
  865MOL0     H14159   8.778  -0.008  -0.442  0.3067 -2.2216  1.1636
  865MOL0     H14160   8.931   0.202  -0.517  0.5902 -0.8510 -0.3980
  865MOL0     H14161   8.978   0.041  -0.594  2.3864 -2.4207  1.2380
  865MOL0     H14162   8.827   0.780   0.108  0.4584  0.6920 -3.1252
  865MOL0     H14163   8.818   1.032   0.118 -1.8311  2.7224 -0.7927
  865MOL0     H14164   8.660   1.384   0.409 -0.9224  3.0232  1.0175
  865MOL0     H14165   8.828   1.531   0.468  2.7558 -0.7586  0.8470
  865MOL0     H14166  10.753   1.348   0.331 -2.6392 -0.7297  0.1970
  865MOL0     H14167  10.914   1.170   0.387 -0.4522  0.6468 -0.7510
  865MOL0     H14168  11.216   0.980   0.602  1.9203 -1.2775  0.1354
  865MOL0     H14169  11.374   0.838   0.629 -0.2857  0.5281 -0.4192
  865MOL0     H14170  11.470   0.630   0.654 -1.0114 -1.3179 -0.7633
  865MOL0     H14171  11.515   0.507   0.771  2.0115  1.2064 -1.4035
  865MOL0     H14172  11.593   0.793   0.797  2.2801  0.2730 -0.7074
  865MOL0     H14173  11.629   0.677   0.914 -1.7810  0.8319  0.2834
  865MOL0     H14174  11.714   0.641   0.632  0.0533 -3.5168  0.5100
  865MOL0     H14175  11.774   0.556   0.776 -2.4287 -0.2222  0.8798
  865MOL0     H14176  11.952   0.712   0.705  0.3678  0.3200  0.2734
  865MOL0     H14177  11.828   0.839   0.669  0.3794  0.1217  0.5002
  865MOL0     H14178  11.933   0.862   1.083  1.9637  1.0646 -1.1871
  865MOL0     H14179  11.186   0.668   0.974  1.2456 -1.2833 -1.1323
  865MOL0     H14180  10.990   0.832   0.949  1.3540  1.8245  0.7183
  866MOL0     O14181   7.822   0.050   1.610  0.1567 -0.3382 -0.0612
  866MOL0     C14182   7.917  -0.006   1.548 -0.1214 -0.2208 -0.9887
  866MOL0     O14183   7.906  -0.088   1.436  0.1400  0.1506  0.4031
  866MOL0     C14184   7.777  -0.116   1.410 -0.8970 -0.2143 -0.1474
  866MOL0     C14185   7.714  -0.219   1.480  0.2227  0.3097  0.4462
  866MOL0     C14186   7.583  -0.260   1.438  0.2197 -0.3337  0.3743
  866MOL0     C14187   7.517  -0.180   1.341  0.7218  0.6599  1.6365
  866MOL0     O14188   7.396  -0.232   1.296  0.2238  0.3639  0.3268
  866MOL0     C14189   7.301  -0.146   1.228  0.6083  0.0766  0.5117
  866MOL0     C14190   7.223  -0.049   1.324 -0.3158  0.1030 -0.6231
  866MOL0     C14191   7.128   0.046   1.252  0.5321  0.7323 -0.0121
  866MOL0     C14192   7.057   0.125   1.359  0.7338  0.5357 -1.3559
  866MOL0     C14193   6.965   0.226   1.305  0.3524  0.4397  1.0456
  866MOL0     C14194   6.893   0.313   1.404  0.3047 -0.5030 -0.1033
  866MOL0     C14195   6.795   0.246   1.502  0.2911 -0.3999  0.3895
  866MOL0     C14196   6.694   0.147   1.444  1.0648 -0.2908  0.5399
  866MOL0     N14197   6.585   0.221   1.370 -0.3346 -0.8839  0.5527
  866MOL0     C14198   6.521   0.324   1.424  0.8791 -0.2965 -0.0918
  866MOL0     C14199   6.470   0.393   1.310 -0.4736  0.3062 -1.3723
  866MOL0     C14200   6.359   0.503   1.330  0.1631 -0.1452  0.1312
  866MOL0     C14201   6.224   0.431   1.361  0.8047 -1.3056  0.7709
  866MOL0     C14202   6.164   0.393   1.225 -0.2709  0.5192 -0.3930
  866MOL0     C14203   6.124   0.502   1.124  0.0780 -0.4811  0.4808
  866MOL0     O14204   5.981   0.485   1.089 -0.2742 -0.1303  0.2068
  866MOL0     C14205   5.892   0.534   1.172 -0.6985 -0.3462  0.0467
  866MOL0     C14206   5.761   0.489   1.136 -0.2279 -0.0867  0.0129
  866MOL0     C14207   5.656   0.542   1.209 -0.1350  0.8401  0.0919
  866MOL0     C14208   5.684   0.628   1.323  0.7774 -0.3720  1.0867
  866MOL0     C14209   5.572   0.684   1.400  0.0296  1.3991 -0.2953
  866MOL0     O14210   5.466   0.734   1.319  0.1591 -0.5857 -0.5202
  866MOL0     C14211   5.376   0.814   1.382 -0.0322 -0.6344 -0.4161
  866MOL0     C14212   5.280   0.741   1.450 -0.2310 -0.6029  0.3084
  866MOL0     C14213   5.182   0.807   1.523  0.4955 -0.2324 -0.2597
  866MOL0     C14214   5.169   0.938   1.525  0.2393 -0.2812 -0.5281
  866MOL0     O14215   5.070   1.001   1.603  0.3619  0.1517 -0.1357
  866MOL0     C14216   5.128   1.045   1.732  0.2102 -0.3272  0.3310
  866MOL0     C14217   5.040   1.150   1.804  0.5763  0.6914  0.7881
  866MOL0     C14218   4.917   1.093   1.869  0.1085  0.0762  0.4591
  866MOL0     C14219   4.860   1.205   1.956  0.3855  0.0630  0.2773
  866MOL0     C14220   4.740   1.165   2.041  1.7147  0.1075 -0.3908
  866MOL0     C14221   4.706   1.291   2.126  0.2493 -0.0857  0.8824
  866MOL0     C14222   4.603   1.260   2.240  0.2338 -0.8129  1.2354
  866MOL0     C14223   4.459   1.296   2.199  0.1476  0.2363  0.0575
  866MOL0    Cl14224   4.346   1.216   2.299 -0.1164 -0.0676  0.0150
  866MOL0     C14225   5.261   1.016   1.452  0.2278 -0.3700 -0.1531
  866MOL0     C14226   5.366   0.955   1.385  0.0528  0.6080 -0.1610
  866MOL0     O14227   5.575   0.674   1.524  0.0328 -0.6333 -0.2003
  866MOL0     C14228   5.808   0.669   1.351  0.5173 -0.5175  0.0425
  866MOL0     C14229   5.920   0.618   1.281  0.3200 -0.1970 -1.3194
  866MOL0     N14230   6.501   0.321   1.198  0.0040 -0.5310 -0.1477
  866MOL0     N14231   6.582   0.224   1.226  0.3801  0.1807 -0.4001
  866MOL0     C14232   7.576  -0.066   1.283 -0.0418  0.9176  0.0489
  866MOL0     C14233   7.705  -0.041   1.310 -0.4173  0.1961  0.0277
  866MOL0     C14234   8.049   0.021   1.605  0.2454 -0.8338 -0.3991
  866MOL0     C14235   8.159  -0.061   1.587 -0.2810  0.7122  0.1161
  866MOL0     C14236   8.289  -0.023   1.630 -0.2777  1.3812 -0.0872
  866MOL0     C14237   8.309   0.100   1.700  0.2041 -0.0442 -1.0340
  866MOL0     O14238   8.433   0.139   1.754 -0.7313  0.0553  0.1054
  866MOL0     C14239   8.542   0.045   1.750  0.4941  0.2909  0.3678
  866MOL0     C14240   8.680   0.104   1.795 -0.0470  0.4097  0.0164
  866MOL0     C14241   8.689   0.135   1.943 -0.2708 -0.4841 -0.1261
  866MOL0     C14242   8.826   0.194   1.989  0.4265 -0.2175  0.6483
  866MOL0     C14243   8.798   0.223   2.131  0.5620 -1.1693 -0.1411
  866MOL0     C14244   8.765   0.237   2.243  0.8546  0.7244 -0.1107
  866MOL0     C14245   8.196   0.183   1.718 -0.0152 -0.4176  0.3543
  866MOL0     C14246   8.074   0.139   1.676 -0.2079  0.0913  0.0399
  866MOL0     H14247   7.768  -0.272   1.557 -0.8985 -2.1228 -0.3475
  866MOL0     H14248   7.518  -0.334   1.485 -1.2841  1.3351  1.0683
  866MOL0     H14249   7.227  -0.212   1.183  3.0073 -2.6582  0.3298
  866MOL0     H14250   7.339  -0.080   1.149 -0.4629  0.4561  0.2912
  866MOL0     H14251   7.298   0.015   1.371 -1.6361  1.1781  0.0766
  866MOL0     H14252   7.165  -0.110   1.394 -0.0646  3.0631  2.4015
  866MOL0     H14253   7.055  -0.007   1.189  1.0413 -0.1480  0.1273
  866MOL0     H14254   7.190   0.106   1.185  1.7739  1.0897  1.4139
  866MOL0     H14255   7.011   0.048   1.422  3.1667 -1.4886 -1.8919
  866MOL0     H14256   7.132   0.176   1.421 -0.4542  0.4920  0.1736
  866MOL0     H14257   6.896   0.174   1.238  1.6112 -2.1009  1.6032
  866MOL0     H14258   7.013   0.302   1.243 -1.0562  3.3321  3.2582
  866MOL0     H14259   6.849   0.391   1.340  1.5158  1.9532  1.8495
  866MOL0     H14260   6.965   0.371   1.463 -0.1863  2.5770 -2.2286
  866MOL0     H14261   6.869   0.194   1.564 -0.5251 -0.8253  1.0341
  866MOL0     H14262   6.744   0.322   1.563  0.0230 -0.4953  0.2821
  866MOL0     H14263   6.648   0.092   1.526 -0.8555  1.7283  0.9062
  866MOL0     H14264   6.740   0.082   1.369 -2.0915 -2.0285 -0.1099
  866MOL0     H14265   6.520   0.355   1.528  3.5455 -2.9545  0.8488
  866MOL0     H14266   6.347   0.561   1.238 -0.0092 -1.8766 -0.9713
  866MOL0     H14267   6.388   0.577   1.406 -5.3774  4.0827 -1.1924
  866MOL0     H14268   6.144   0.495   1.399  2.9101  1.8788  0.2509
  866MOL0     H14269   6.258   0.346   1.422  1.7194 -2.0871 -0.7661
  866MOL0     H14270   6.240   0.337   1.170  1.4668  0.6462  1.7517
  866MOL0     H14271   6.079   0.329   1.252 -1.0849  1.8823  0.4414
  866MOL0     H14272   6.181   0.489   1.032 -1.2377  0.1740 -0.4540
  866MOL0     H14273   6.141   0.605   1.156 -2.1136  0.8949 -2.3211
  866MOL0     H14274   5.754   0.419   1.055 -0.6717 -1.6012  1.3089
  866MOL0     H14275   5.552   0.522   1.185 -0.5227  3.0609 -0.3575
  866MOL0     H14276   5.297   0.634   1.451 -1.9496 -0.9126  0.1417
  866MOL0     H14277   5.110   0.738   1.567 -0.9754 -0.7783 -3.2112
  866MOL0     H14278   5.221   1.096   1.707 -0.7728  1.5103  0.2181
  866MOL0     H14279   5.153   0.957   1.792  3.8197  2.1082  2.7638
  866MOL0     H14280   5.007   1.222   1.729 -0.8450  0.4621  1.1647
  866MOL0     H14281   5.105   1.195   1.880  1.3277 -0.6045  0.9428
  866MOL0     H14282   4.936   1.000   1.923  2.1444 -0.2448 -0.6878
  866MOL0     H14283   4.848   1.074   1.787  0.2824  1.2556  0.0202
  866MOL0     H14284   4.937   1.252   2.018  1.2098 -3.4752  2.2114
  866MOL0     H14285   4.819   1.286   1.895 -0.7074 -0.0736  0.8101
  866MOL0     H14286   4.761   1.075   2.099  2.5145  0.8509  0.5074
  866MOL0     H14287   4.651   1.157   1.978  0.4790 -1.7749  1.4729
  866MOL0     H14288   4.662   1.372   2.067 -0.2389  0.2752  1.7349
  866MOL0     H14289   4.794   1.337   2.170  0.6502  0.8993 -0.8484
  866MOL0     H14290   4.599   1.152   2.255 -2.0214 -0.8011  1.0691
  866MOL0     H14291   4.624   1.331   2.321 -1.2688  4.8407 -2.7229
  866MOL0     H14292   4.446   1.283   2.091 -0.5716  3.5371 -0.3625
  866MOL0     H14293   4.436   1.403   2.202 -0.9454 -0.0101  1.6287
  866MOL0     H14294   5.257   1.125   1.450 -0.3661 -0.3919 -1.8980
  866MOL0     H14295   5.434   1.031   1.347 -0.3869 -0.4041 -3.2646
  866MOL0     H14296   5.820   0.745   1.427 -1.5487  1.2995 -1.3413
  866MOL0     H14297   6.019   0.649   1.313 -0.3258  1.8650 -1.1082
  866MOL0     H14298   7.515   0.002   1.224 -2.1405 -0.5687  0.3864
  866MOL0     H14299   7.751   0.039   1.252 -1.7366  1.2594  0.4199
  866MOL0     H14300   8.141  -0.149   1.526 -0.5685  0.0539  1.1364
  866MOL0     H14301   8.374  -0.089   1.615 -0.6537  0.8042  0.2804
  866MOL0     H14302   8.566   0.027   1.645 -1.2919  4.6078 -0.9918
  866MOL0     H14303   8.518  -0.049   1.801 -0.7952 -0.7460 -1.9896
  866MOL0     H14304   8.758   0.033   1.764  1.4195  1.4105  1.2837
  866MOL0     H14305   8.697   0.202   1.748  1.0969  0.5380  0.6652
  866MOL0     H14306   8.669   0.041   1.995  0.1782  0.4631  1.8429
  866MOL0     H14307   8.605   0.201   1.966  0.6489  0.0113  2.1336
  866MOL0     H14308   8.907   0.120   1.985  0.4107 -0.1881 -2.3815
  866MOL0     H14309   8.844   0.272   1.915 -2.6572 -1.0578 -1.1929
  866MOL0     H14310   8.727   0.241   2.343 -3.4477  2.3963 -1.5764
  866MOL0     H14311   8.221   0.276   1.769 -0.4748 -0.7203  1.1536
  866MOL0     H14312   7.999   0.217   1.686  0.9693  1.0075  2.9894
  867MOL0     O14313   6.958   5.704   1.975 -0.3385  0.5497  0.0803
  867MOL0     C14314   6.904   5.613   2.031 -0.2297 -0.4739  0.1130
  867MOL0     O14315   6.769   5.587   2.030 -0.1299 -0.3172 -0.2405
  867MOL0     C14316   6.677   5.677   1.977 -0.4135 -0.3476 -1.1010
  867MOL0     C14317   6.589   5.647   1.872 -0.4364 -0.1889 -0.4306
  867MOL0     C14318   6.492   5.732   1.832 -0.4954 -0.2793  0.7756
  867MOL0     C14319   6.480   5.859   1.894  0.3802  0.5117  0.3817
  867MOL0     O14320   6.373   5.939   1.852  0.2101 -0.2775 -0.5405
  867MOL0     C14321   6.392   5.998   1.726  1.0918  0.1047  0.0136
  867MOL0     C14322   6.274   6.109   1.691 -0.2564  0.1017  0.8086
  867MOL0     C14323   6.136   6.053   1.655  1.1179 -0.4882 -0.1992
  867MOL0     C14324   6.046   6.024   1.781  0.0822 -0.7816 -0.2625
  867MOL0     C14325   5.898   6.005   1.744 -0.7596  0.3806  0.3044
  867MOL0     C14326   5.864   5.864   1.694  0.3484 -0.7230 -0.0475
  867MOL0     C14327   5.732   5.851   1.626 -0.1386 -0.0075  0.1618
  867MOL0     C14328   5.715   5.712   1.555 -0.9235 -0.1777  0.1818
  867MOL0     N14329   5.577   5.683   1.533 -0.1288  0.4691 -0.2386
  867MOL0     C14330   5.508   5.725   1.420  0.0593 -0.1027 -0.5294
  867MOL0     C14331   5.384   5.674   1.432  1.0628  0.2508 -0.5741
  867MOL0     C14332   5.266   5.683   1.329 -0.2802  0.5564 -0.1906
  867MOL0     C14333   5.134   5.714   1.400 -0.2034 -0.1243 -0.7954
  867MOL0     C14334   5.143   5.837   1.496 -0.5335  0.7164  0.1535
  867MOL0     C14335   5.000   5.890   1.516 -0.3960 -0.5570  0.9620
  867MOL0     O14336   4.919   5.790   1.574 -0.5200 -0.5388  0.3475
  867MOL0     C14337   4.786   5.759   1.540 -0.0286  0.9284 -0.6704
  867MOL0     C14338   4.723   5.646   1.594 -0.2733 -0.4198  0.9380
  867MOL0     C14339   4.583   5.622   1.577  0.3102 -0.2702 -0.4531
  867MOL0     C14340   4.503   5.699   1.496  0.4189  1.0533 -0.0771
  867MOL0     C14341   4.359   5.655   1.482  0.3816 -0.1388 -0.5081
  867MOL0     O14342   4.319   5.543   1.544  0.1699 -0.2066 -0.4669
  867MOL0     C14343   4.189   5.501   1.548  0.3486  0.0743 -0.1476
  867MOL0     C14344   4.085   5.531   1.461  0.2766 -0.4482  0.2128
  867MOL0     C14345   3.955   5.491   1.500  0.4047  0.9307  0.0536
  867MOL0     C14346   3.937   5.416   1.617  1.0616  0.3731  0.6448
  867MOL0     O14347   3.814   5.365   1.659 -0.1843  0.0586  0.1236
  867MOL0     C14348   3.690   5.417   1.610 -0.5856  0.0265 -0.0977
  867MOL0     C14349   3.578   5.348   1.693  0.2686 -0.7799  0.6893
  867MOL0     C14350   3.438   5.359   1.633  0.2297  0.4540  0.6795
  867MOL0     C14351   3.338   5.258   1.701  0.5406  0.2006  0.0405
  867MOL0     C14352   3.203   5.289   1.651  0.4800  0.0155  0.0496
  867MOL0     C14353   3.134   5.428   1.697  0.0383 -0.4316 -0.5898
  867MOL0     C14354   2.991   5.426   1.655 -0.5939  0.2859  0.1265
  867MOL0     C14355   2.915   5.316   1.739 -0.4054  0.2880  0.8284
  867MOL0    Cl14356   2.745   5.368   1.747  0.1684 -0.3579  0.5380
  867MOL0     C14357   4.043   5.379   1.690 -0.6866 -0.6986 -0.3196
  867MOL0     C14358   4.174   5.415   1.657  0.8527  0.3995 -0.1004
  867MOL0     O14359   4.292   5.739   1.417 -0.6145 -0.4334 -0.0953
  867MOL0     C14360   4.569   5.809   1.445 -0.1940 -0.4827  0.1859
  867MOL0     C14361   4.705   5.839   1.461  1.3309 -0.2139  0.5448
  867MOL0     N14362   5.385   5.586   1.547  0.2636 -0.7535  0.5010
  867MOL0     N14363   5.497   5.597   1.612 -0.3875  0.0987  0.6001
  867MOL0     C14364   6.564   5.897   2.004  0.8869  0.9082  0.2975
  867MOL0     C14365   6.659   5.802   2.053 -0.1312  0.0336 -0.1385
  867MOL0     C14366   6.997   5.523   2.110  0.3510  0.2333 -0.6351
  867MOL0     C14367   7.125   5.562   2.150 -0.7516 -0.1294 -0.4080
  867MOL0     C14368   7.202   5.478   2.222  0.1856  0.2871  0.7895
  867MOL0     C14369   7.162   5.350   2.259 -0.7329  0.0047  1.1374
  867MOL0     O14370   7.226   5.253   2.334 -0.4960 -0.3234 -0.6715
  867MOL0     C14371   7.363   5.220   2.306  0.1500  0.1404 -0.2091
  867MOL0     C14372   7.371   5.116   2.199  0.6949 -0.8485  0.1154
  867MOL0     C14373   7.514   5.070   2.175 -0.4076 -0.3836  0.3536
  867MOL0     C14374   7.560   4.975   2.293  0.6363  0.7767  0.7134
  867MOL0     C14375   7.701   4.951   2.294 -0.0777  0.6195 -0.7874
  867MOL0     C14376   7.818   4.949   2.305 -0.1775 -0.4887 -0.2457
  867MOL0     C14377   7.031   5.313   2.213 -0.4932 -1.3520 -1.1957
  867MOL0     C14378   6.947   5.396   2.152  0.2885 -1.2041 -0.5865
  867MOL0     H14379   6.594   5.551   1.822  2.0549 -0.7669  0.7490
  867MOL0     H14380   6.424   5.711   1.750  0.7267  3.3145 -1.3880
  867MOL0     H14381   6.372   5.921   1.652  0.3525 -0.5626  0.8818
  867MOL0     H14382   6.493   6.040   1.716  0.8404  1.3603  2.1082
  867MOL0     H14383   6.315   6.142   1.596 -1.5969 -1.5831 -0.4179
  867MOL0     H14384   6.266   6.187   1.767 -2.2683  1.1286 -0.3813
  867MOL0     H14385   6.160   5.966   1.593  3.9299  1.1567 -1.6240
  867MOL0     H14386   6.076   6.123   1.596 -0.0838 -1.1849  0.1483
  867MOL0     H14387   6.068   5.934   1.840 -0.8799 -1.1227 -0.4110
  867MOL0     H14388   6.059   6.104   1.855 -1.2765 -1.6910  1.0218
  867MOL0     H14389   5.871   6.080   1.668  2.0865  0.5741 -0.6171
  867MOL0     H14390   5.839   6.019   1.835 -1.8275 -2.2409  0.0987
  867MOL0     H14391   5.876   5.780   1.763 -0.6146 -0.3130  0.6344
  867MOL0     H14392   5.940   5.836   1.620 -0.7950 -1.2348 -1.0664
  867MOL0     H14393   5.654   5.847   1.703  1.1323 -2.8161  1.4679
  867MOL0     H14394   5.727   5.931   1.552  0.1578 -0.2714 -0.1454
  867MOL0     H14395   5.756   5.632   1.616 -3.5646 -0.6038  1.5437
  867MOL0     H14396   5.779   5.709   1.466 -0.0049 -2.5740  0.8441
  867MOL0     H14397   5.556   5.784   1.343  3.6642 -2.0794 -0.0607
  867MOL0     H14398   5.261   5.591   1.271  1.5762 -0.1597  0.7031
  867MOL0     H14399   5.289   5.773   1.270  2.2323 -0.6937 -1.2961
  867MOL0     H14400   5.095   5.630   1.458  2.3971 -0.8659  0.0118
  867MOL0     H14401   5.063   5.739   1.320  0.3043  0.7511 -0.9868
  867MOL0     H14402   5.186   5.805   1.591 -1.1007 -2.9906 -0.6735
  867MOL0     H14403   5.212   5.907   1.448 -1.0302  1.0315 -0.1194
  867MOL0     H14404   4.955   5.911   1.418 -1.2635  0.8555  1.6232
  867MOL0     H14405   4.993   5.976   1.583  0.0255  0.2470  0.0015
  867MOL0     H14406   4.776   5.578   1.660 -2.5078 -1.5335  1.6945
  867MOL0     H14407   4.535   5.539   1.629 -1.3097  0.0540 -1.3363
  867MOL0     H14408   4.095   5.598   1.376  3.6211  0.5316  1.2246
  867MOL0     H14409   3.873   5.515   1.433 -3.0439 -2.0975  2.7286
  867MOL0     H14410   3.671   5.393   1.504  0.7473 -0.2011 -0.3053
  867MOL0     H14411   3.696   5.524   1.629  1.7299 -0.4636  2.4705
  867MOL0     H14412   3.563   5.392   1.792 -1.1346  0.4603 -0.0411
  867MOL0     H14413   3.602   5.242   1.683  0.8011 -0.5958 -0.1424
  867MOL0     H14414   3.450   5.336   1.527  1.5791 -0.0067  0.9135
  867MOL0     H14415   3.414   5.466   1.637  0.8327  0.6304 -0.1755
  867MOL0     H14416   3.365   5.155   1.678  0.4349  0.0584  0.5375
  867MOL0     H14417   3.331   5.261   1.811 -4.4725 -0.4552 -0.0323
  867MOL0     H14418   3.139   5.205   1.677  1.1331 -0.0113  1.6798
  867MOL0     H14419   3.207   5.280   1.542  1.8018 -1.6060  0.1877
  867MOL0     H14420   3.181   5.505   1.634 -0.5510  1.0197  0.6726
  867MOL0     H14421   3.149   5.440   1.804  0.6681 -0.9585 -0.6188
  867MOL0     H14422   2.950   5.527   1.668  1.2255  1.1887 -0.8343
  867MOL0     H14423   2.981   5.402   1.548 -2.0157  0.9860  0.0773
  867MOL0     H14424   2.966   5.316   1.836  2.5459 -3.0254 -0.4871
  867MOL0     H14425   2.925   5.212   1.706 -1.2564  0.2116  0.8003
  867MOL0     H14426   4.031   5.315   1.778  3.0720 -0.0407  0.8341
  867MOL0     H14427   4.253   5.377   1.721 -1.3793  0.2305  2.7725
  867MOL0     H14428   4.512   5.885   1.392  0.1812 -0.6834 -0.5157
  867MOL0     H14429   4.754   5.920   1.408  2.1115 -1.8273 -1.3156
  867MOL0     H14430   6.531   5.986   2.056 -1.1132 -0.1446  0.9135
  867MOL0     H14431   6.708   5.820   2.148  1.7837 -2.4438 -0.5380
  867MOL0     H14432   7.167   5.655   2.112 -2.1323 -0.2528 -2.3828
  867MOL0     H14433   7.287   5.520   2.276  2.3808  0.9871 -2.8707
  867MOL0     H14434   7.402   5.180   2.400 -0.8053 -1.2565 -0.3699
  867MOL0     H14435   7.420   5.309   2.278 -0.3400  0.3562 -0.5198
  867MOL0     H14436   7.307   5.035   2.234 -1.1503  0.8260  0.8154
  867MOL0     H14437   7.327   5.150   2.105 -0.1479 -0.4553  0.6492
  867MOL0     H14438   7.575   5.161   2.180 -1.3933  0.2371  1.7630
  867MOL0     H14439   7.509   5.014   2.082 -0.8709 -2.2531  1.4556
  867MOL0     H14440   7.555   5.017   2.394  0.4897 -0.4556  1.2402
  867MOL0     H14441   7.520   4.874   2.280 -0.5497  1.5187 -2.4584
  867MOL0     H14442   7.925   4.947   2.310  0.0536  1.4091 -2.7182
  867MOL0     H14443   7.002   5.215   2.248  1.7466 -1.7526 -0.2528
  867MOL0     H14444   6.843   5.372   2.133  0.5403 -1.4317 -1.7379
  868MOL0     O14445   8.604   3.119   4.291 -0.7063 -0.0046 -0.6889
  868MOL0     C14446   8.610   3.201   4.381  0.6372  0.1733  0.6407
  868MOL0     O14447   8.510   3.271   4.435  0.2554 -1.0977  0.0847
  868MOL0     C14448   8.385   3.247   4.372  0.7203 -0.1903  0.7725
  868MOL0     C14449   8.318   3.127   4.374 -0.1629  0.1467 -0.3596
  868MOL0     C14450   8.193   3.117   4.317  1.2006 -0.1236 -0.1630
  868MOL0     C14451   8.134   3.222   4.243 -0.0078  0.1288  0.3240
  868MOL0     O14452   8.007   3.205   4.191  0.2987  0.1408 -0.1459
  868MOL0     C14453   7.927   3.325   4.184 -0.0645 -0.1455  0.1303
  868MOL0     C14454   7.798   3.284   4.106 -0.1584 -0.0168 -0.2600
  868MOL0     C14455   7.719   3.401   4.074 -0.5568 -0.4067 -0.5268
  868MOL0     C14456   7.577   3.365   4.010  0.6379 -0.3630  0.9523
  868MOL0     C14457   7.585   3.256   3.893  0.2803 -0.1914  0.0651
  868MOL0     C14458   7.454   3.266   3.808 -1.0701  0.4013 -0.6201
  868MOL0     C14459   7.448   3.163   3.699  0.7328  0.3346  0.0773
  868MOL0     C14460   7.561   3.180   3.591  0.1629 -0.3312 -0.4021
  868MOL0     N14461   7.565   3.316   3.539 -0.6587  0.2763  0.0087
  868MOL0     C14462   7.477   3.389   3.472  0.3383 -0.4762  0.3388
  868MOL0     C14463   7.539   3.493   3.404 -0.0753 -0.1884 -0.2580
  868MOL0     C14464   7.455   3.607   3.341 -0.9322  0.0628 -0.8076
  868MOL0     C14465   7.560   3.700   3.267  0.2427  1.1979  0.6142
  868MOL0     C14466   7.642   3.632   3.148 -0.6853 -1.0533  0.7147
  868MOL0     C14467   7.701   3.736   3.052  0.2501  0.0891  0.1018
  868MOL0     O14468   7.588   3.810   2.996 -0.8268  0.3948  0.3990
  868MOL0     C14469   7.613   3.901   2.896 -0.5917  0.1975  0.8312
  868MOL0     C14470   7.735   3.969   2.878  0.0048  0.5117  0.5821
  868MOL0     C14471   7.758   4.044   2.759 -0.1951  0.8119 -0.6637
  868MOL0     C14472   7.663   4.053   2.658 -0.3746  0.0875  0.1443
  868MOL0     C14473   7.700   4.136   2.539  0.7362 -0.0045  1.6050
  868MOL0     O14474   7.807   4.216   2.538  0.6381  0.1752  0.4386
  868MOL0     C14475   7.843   4.273   2.414 -0.0330  0.7184 -0.3499
  868MOL0     C14476   7.851   4.207   2.289 -0.0731 -0.4438  0.3950
  868MOL0     C14477   7.903   4.282   2.184  0.5214  0.2975  0.1894
  868MOL0     C14478   7.954   4.406   2.201  1.2459 -0.2710  0.1156
  868MOL0     O14479   8.015   4.454   2.085  0.2664 -0.5667 -0.4383
  868MOL0     C14480   8.078   4.586   2.105  1.0399  0.0400  0.0226
  868MOL0     C14481   8.151   4.605   1.978  0.2124  0.4159  0.7169
  868MOL0     C14482   8.242   4.723   1.990  0.0288  0.5222 -1.2728
  868MOL0     C14483   8.331   4.733   1.871  0.6300  0.0088  0.5956
  868MOL0     C14484   8.407   4.866   1.890  0.5394 -0.3730 -0.7440
  868MOL0     C14485   8.524   4.883   1.790  0.6959  0.8400  0.2000
  868MOL0     C14486   8.624   4.771   1.787 -0.1220  0.4085 -0.3311
  868MOL0     C14487   8.693   4.734   1.921  0.1203 -0.6315  0.2734
  868MOL0    Cl14488   8.768   4.879   1.994 -0.1587 -0.2482 -0.1391
  868MOL0     C14489   7.935   4.465   2.320  0.4774  0.0240 -1.0585
  868MOL0     C14490   7.878   4.403   2.429  0.7071 -0.1183  0.6995
  868MOL0     O14491   7.617   4.121   2.442  0.6601 -0.2162  0.5780
  868MOL0     C14492   7.541   3.985   2.675  1.0348  0.2207 -0.0495
  868MOL0     C14493   7.512   3.921   2.796 -0.3472 -0.2505 -0.7520
  868MOL0     N14494   7.671   3.479   3.440 -0.2827  0.4202  0.1468
  868MOL0     N14495   7.682   3.378   3.519  0.7629 -0.9697 -0.2740
  868MOL0     C14496   8.204   3.342   4.238 -0.4601  0.1818  1.0119
  868MOL0     C14497   8.330   3.356   4.303  0.6047 -0.4874 -0.6580
  868MOL0     C14498   8.745   3.242   4.428 -0.0041 -0.2914 -0.1464
  868MOL0     C14499   8.873   3.223   4.360  0.5810 -0.3732 -0.3159
  868MOL0     C14500   8.995   3.271   4.408  0.1276  0.4963  0.4409
  868MOL0     C14501   9.001   3.327   4.533  0.6491 -0.5864 -0.0770
  868MOL0     O14502   9.117   3.363   4.602  0.3278  0.1689 -0.3154
  868MOL0     C14503   9.239   3.299   4.560  0.2684 -0.4901 -0.4639
  868MOL0     C14504   9.354   3.327   4.665  0.7571  0.1398 -0.2437
  868MOL0     C14505   9.474   3.232   4.653 -0.2204 -0.9328  0.2286
  868MOL0     C14506   9.568   3.247   4.525  0.2529 -0.6517  0.1666
  868MOL0     C14507   9.669   3.141   4.521 -0.1982  0.1752  0.0308
  868MOL0     C14508   9.759   3.055   4.530  0.2498 -0.5572 -0.2834
  868MOL0     C14509   8.876   3.356   4.599  0.1866  0.5826  0.5766
  868MOL0     C14510   8.754   3.319   4.542 -0.0494  0.3850  0.4070
  868MOL0     H14511   8.360   3.047   4.435  2.1900 -1.0436 -3.2944
  868MOL0     H14512   8.132   3.028   4.331 -0.7162  1.0356 -0.7212
  868MOL0     H14513   7.991   3.393   4.127  4.0818 -3.0330  0.8731
  868MOL0     H14514   7.893   3.365   4.280 -0.0705 -0.1082  0.1119
  868MOL0     H14515   7.748   3.214   4.173  0.4780  1.8777  2.3199
  868MOL0     H14516   7.833   3.230   4.017  0.2633 -0.5384  0.2176
  868MOL0     H14517   7.781   3.451   4.000 -1.8128  0.4604 -1.0281
  868MOL0     H14518   7.702   3.463   4.162 -3.3530  2.0692 -2.6079
  868MOL0     H14519   7.506   3.331   4.086  3.7131  1.4452  4.9894
  868MOL0     H14520   7.546   3.461   3.968 -0.3730 -0.3341  1.7290
  868MOL0     H14521   7.596   3.157   3.937 -0.2010  0.4641  1.7160
  868MOL0     H14522   7.669   3.267   3.823  0.6111 -0.2570  0.4528
  868MOL0     H14523   7.438   3.367   3.770  1.6162  0.3796 -2.0232
  868MOL0     H14524   7.365   3.239   3.865  0.2414  0.4411  1.5600
  868MOL0     H14525   7.457   3.064   3.744  1.9343  0.8745  1.0873
  868MOL0     H14526   7.351   3.179   3.650  1.1656  2.1306 -0.2793
  868MOL0     H14527   7.525   3.123   3.505 -0.7331 -1.2121  0.5329
  868MOL0     H14528   7.655   3.140   3.630 -0.5983 -0.3600  1.4926
  868MOL0     H14529   7.370   3.379   3.466  0.0312  2.7140 -1.6277
  868MOL0     H14530   7.404   3.652   3.426  1.7299 -3.5799  3.1396
  868MOL0     H14531   7.380   3.572   3.269 -2.8733 -1.1978  1.6775
  868MOL0     H14532   7.624   3.750   3.340  2.6391 -0.8120  0.0376
  868MOL0     H14533   7.497   3.775   3.218 -1.5849  0.3998  1.6428
  868MOL0     H14534   7.726   3.578   3.193  1.7124 -0.2610 -2.4402
  868MOL0     H14535   7.572   3.569   3.093 -1.6189  1.9702 -1.8807
  868MOL0     H14536   7.755   3.680   2.975 -2.0755 -3.6979  0.9451
  868MOL0     H14537   7.767   3.803   3.108  2.2777 -3.2571  2.0238
  868MOL0     H14538   7.808   3.968   2.958  1.4020  0.5377 -0.6380
  868MOL0     H14539   7.860   4.080   2.759  0.2471 -0.1488  2.1221
  868MOL0     H14540   7.816   4.107   2.266  2.4464 -1.2471 -0.2939
  868MOL0     H14541   7.899   4.228   2.090  0.3560  1.1487 -0.3034
  868MOL0     H14542   8.137   4.587   2.198 -0.1366 -0.5810  0.7911
  868MOL0     H14543   8.012   4.674   2.107 -0.6445 -1.1922  0.8447
  868MOL0     H14544   8.079   4.610   1.896 -0.9905  0.2395  1.7187
  868MOL0     H14545   8.220   4.525   1.953  1.0801  1.3435  0.0443
  868MOL0     H14546   8.293   4.712   2.087 -1.2991  0.9408 -0.4948
  868MOL0     H14547   8.178   4.812   1.989  0.2832  0.7036 -1.7954
  868MOL0     H14548   8.401   4.651   1.884 -0.2497 -0.6382  1.4249
  868MOL0     H14549   8.279   4.719   1.776 -0.1186 -2.9920  1.3443
  868MOL0     H14550   8.437   4.860   1.995 -3.6550 -1.5545  0.5795
  868MOL0     H14551   8.337   4.950   1.890 -0.2026 -0.9211 -3.0472
  868MOL0     H14552   8.581   4.973   1.813 -1.9629  2.8876 -0.7841
  868MOL0     H14553   8.482   4.881   1.689 -2.7957  0.1800  1.5249
  868MOL0     H14554   8.574   4.678   1.756 -0.0420 -0.3050  1.5672
  868MOL0     H14555   8.696   4.796   1.708  2.1866 -4.5530 -0.1874
  868MOL0     H14556   8.762   4.653   1.896 -0.0046 -0.7205  0.2178
  868MOL0     H14557   8.620   4.690   1.989  1.3611 -1.8709  0.8395
  868MOL0     H14558   7.956   4.571   2.334  0.0002 -0.1256  1.1788
  868MOL0     H14559   7.876   4.455   2.524 -3.3202 -0.3519  0.8992
  868MOL0     H14560   7.475   3.960   2.592 -2.4004 -0.1756  2.6033
  868MOL0     H14561   7.414   3.877   2.805 -1.4785  2.1807 -0.4376
  868MOL0     H14562   8.175   3.424   4.172 -0.0509 -1.4604 -1.3203
  868MOL0     H14563   8.381   3.447   4.273 -0.3544 -0.2710 -1.7398
  868MOL0     H14564   8.878   3.182   4.260  0.5258 -0.6993 -0.1859
  868MOL0     H14565   9.084   3.248   4.350 -0.1187 -1.1418  0.6775
  868MOL0     H14566   9.281   3.347   4.472  1.9148  0.3433  0.7242
  868MOL0     H14567   9.235   3.191   4.545  2.3425 -0.3003 -3.0949
  868MOL0     H14568   9.377   3.433   4.661 -0.8006  0.6449  2.1395
  868MOL0     H14569   9.303   3.309   4.760  1.8268  2.0454  0.7480
  868MOL0     H14570   9.436   3.130   4.653  0.5012 -1.3661 -3.7570
  868MOL0     H14571   9.527   3.265   4.743  0.1055  4.1811 -1.4876
  868MOL0     H14572   9.512   3.237   4.431 -0.1366 -0.3690  0.3660
  868MOL0     H14573   9.603   3.350   4.519 -1.7403  0.0228 -3.5960
  868MOL0     H14574   9.826   2.976   4.557 -0.4881 -1.2887 -0.5541
  868MOL0     H14575   8.875   3.415   4.691 -1.6582  2.8206 -0.7805
  868MOL0     H14576   8.662   3.353   4.590  0.2841  0.7893  0.7615
  869MOL0     O14577   4.800  11.256   9.056  0.0733 -0.1096  0.6258
  869MOL0     C14578   4.772  11.377   9.020  0.2339 -0.7641 -0.0864
  869MOL0     O14579   4.655  11.417   8.955 -0.5479 -0.0712 -0.1065
  869MOL0     C14580   4.576  11.322   8.898 -0.1544  0.5932 -1.3684
  869MOL0     C14581   4.463  11.253   8.960 -0.7077 -0.5769 -1.1641
  869MOL0     C14582   4.379  11.168   8.892 -0.0060 -0.7197 -0.5022
  869MOL0     C14583   4.401  11.141   8.756  0.5464  0.0520  0.1473
  869MOL0     O14584   4.312  11.067   8.681 -0.5552 -0.8079 -0.2260
  869MOL0     C14585   4.368  10.969   8.590  0.9710 -0.1688  0.0930
  869MOL0     C14586   4.259  10.875   8.538  0.9271 -0.3227 -0.0831
  869MOL0     C14587   4.144  10.935   8.461 -0.0781 -0.0230  0.2155
  869MOL0     C14588   4.045  10.821   8.417 -0.1208  0.4759  0.4071
  869MOL0     C14589   3.914  10.873   8.369 -0.1030  0.5716  0.4592
  869MOL0     C14590   3.917  10.970   8.247  0.1838  0.0985 -0.3652
  869MOL0     C14591   3.800  10.962   8.140  0.6878  0.2558 -0.1483
  869MOL0     C14592   3.665  10.997   8.194  0.2125  0.2360  0.1922
  869MOL0     N14593   3.561  11.029   8.098 -0.4988 -0.1808 -0.5673
  869MOL0     C14594   3.539  11.152   8.043 -0.5884  0.4716  0.7269
  869MOL0     C14595   3.465  11.125   7.935  0.9361  0.1559  0.0121
  869MOL0     C14596   3.403  11.230   7.846 -0.2228 -0.3559  0.1863
  869MOL0     C14597   3.251  11.221   7.815  0.1301  1.1161  0.2328
  869MOL0     C14598   3.185  11.342   7.758 -0.8328 -0.9716  0.5413
  869MOL0     C14599   3.204  11.360   7.604 -0.2101 -0.2178 -0.5319
  869MOL0     O14600   3.137  11.256   7.536  0.7345  0.1250  0.7684
  869MOL0     C14601   3.000  11.261   7.527  0.8710 -0.1362 -0.0933
  869MOL0     C14602   2.934  11.134   7.506 -0.2246  0.1507 -0.6560
  869MOL0     C14603   2.801  11.131   7.499 -0.1680 -0.0178  0.1028
  869MOL0     C14604   2.716  11.244   7.497 -0.1147 -0.3700  0.6237
  869MOL0     C14605   2.571  11.225   7.470  0.5447 -0.7930  0.3533
  869MOL0     O14606   2.531  11.096   7.507  0.0935  0.1154 -0.3166
  869MOL0     C14607   2.409  11.047   7.482 -0.4919  0.8365  0.2237
  869MOL0     C14608   2.285  11.112   7.473  0.4998 -0.9502 -0.2854
  869MOL0     C14609   2.175  11.036   7.456 -0.0575 -0.1335 -0.1399
  869MOL0     C14610   2.171  10.896   7.455 -0.0471  0.6258 -0.5001
  869MOL0     O14611   2.062  10.829   7.435  0.4663  0.3418 -0.0833
  869MOL0     C14612   2.082  10.706   7.377 -0.4977 -0.3459 -0.3365
  869MOL0     C14613   1.951  10.648   7.325 -0.1067 -0.8448 -0.1358
  869MOL0     C14614   1.889  10.730   7.220 -0.1434 -0.4936 -0.1806
  869MOL0     C14615   1.775  10.651   7.154  0.7182  0.8166  0.7369
  869MOL0     C14616   1.734  10.722   7.020  0.1347  0.3494 -0.4954
  869MOL0     C14617   1.614  10.647   6.958  0.0311  0.5897  0.1095
  869MOL0     C14618   1.661  10.503   6.917 -0.2358  0.4863  0.7550
  869MOL0     C14619   1.791  10.490   6.831  0.7884  1.7213  1.1216
  869MOL0    Cl14620   1.810  10.309   6.796 -0.4018 -0.0326 -0.0208
  869MOL0     C14621   2.298  10.836   7.462  0.3825 -0.3997 -1.1032
  869MOL0     C14622   2.413  10.915   7.483 -0.1765  0.4820 -0.1795
  869MOL0     O14623   2.503  11.317   7.421 -0.1578 -0.3031  0.2894
  869MOL0     C14624   2.778  11.367   7.516  0.4311  0.0734  0.1919
  869MOL0     C14625   2.917  11.381   7.529 -0.0131  0.1085 -0.5531
  869MOL0     N14626   3.434  10.987   7.930  0.5528 -0.0998  0.3159
  869MOL0     N14627   3.498  10.927   8.026 -0.3287 -0.8514 -0.4424
  869MOL0     C14628   4.518  11.200   8.694 -1.5085  0.1209  0.1333
  869MOL0     C14629   4.598  11.295   8.764 -0.1939  1.1040 -0.4632
  869MOL0     C14630   4.873  11.476   9.053 -0.3394 -0.1711  0.3844
  869MOL0     C14631   4.973  11.439   9.147  0.2028  0.0655  0.7423
  869MOL0     C14632   5.068  11.538   9.177 -0.0586 -0.2765  0.6284
  869MOL0     C14633   5.054  11.675   9.141  0.7999 -0.2887  0.7356
  869MOL0     O14634   5.139  11.775   9.182  0.2090  0.0226  0.5409
  869MOL0     C14635   5.261  11.730   9.251  0.6510  0.3431  0.5909
  869MOL0     C14636   5.368  11.843   9.247 -0.9934  0.3268 -0.0737
  869MOL0     C14637   5.510  11.783   9.290  0.0113 -0.4726  0.9829
  869MOL0     C14638   5.619  11.773   9.187 -0.2578 -0.4567  0.1643
  869MOL0     C14639   5.578  11.695   9.070  0.0826 -0.5989  0.4947
  869MOL0     C14640   5.552  11.626   8.973 -0.4981 -0.7551  0.6819
  869MOL0     C14641   4.949  11.715   9.067  1.0853  0.0904 -0.2919
  869MOL0     C14642   4.868  11.611   9.009  0.6135 -0.1032  0.9413
  869MOL0     H14643   4.442  11.271   9.065  2.3902  1.9595 -0.7918
  869MOL0     H14644   4.296  11.127   8.948 -1.0110  0.9923 -0.6548
  869MOL0     H14645   4.447  10.912   8.640  0.6783  1.5320  2.6516
  869MOL0     H14646   4.410  11.025   8.505  0.0956  2.6730  1.4208
  869MOL0     H14647   4.212  10.827   8.624 -1.7785  1.1661 -0.6125
  869MOL0     H14648   4.309  10.794   8.482  0.1826  1.8078 -4.2399
  869MOL0     H14649   4.175  11.000   8.379  2.5461  0.2300  1.3038
  869MOL0     H14650   4.091  11.007   8.524 -2.0538 -1.4652  0.3101
  869MOL0     H14651   4.090  10.766   8.334 -2.4845 -1.8785  0.5423
  869MOL0     H14652   4.033  10.762   8.508  0.0090  2.0052  1.4651
  869MOL0     H14653   3.847  10.921   8.440 -0.9040  2.6088 -1.5672
  869MOL0     H14654   3.867  10.788   8.319  1.2896  0.1851 -0.2569
  869MOL0     H14655   4.009  10.974   8.189 -0.5561  0.2778 -1.5649
  869MOL0     H14656   3.900  11.071   8.287 -1.4043  0.4393 -1.8021
  869MOL0     H14657   3.818  11.029   8.056  2.2445  0.5351  0.3802
  869MOL0     H14658   3.792  10.866   8.088  0.1947  1.3110 -2.1528
  869MOL0     H14659   3.683  11.079   8.263  2.4132 -0.4107  0.4527
  869MOL0     H14660   3.624  10.918   8.258  1.0047  1.1760  1.9363
  869MOL0     H14661   3.574  11.247   8.084  0.4333  1.0832 -1.4078
  869MOL0     H14662   3.455  11.239   7.750 -0.0863 -3.2621 -0.0906
  869MOL0     H14663   3.420  11.322   7.903  1.4530  0.2632 -1.2233
  869MOL0     H14664   3.191  11.183   7.898 -1.0227 -0.5179 -1.2739
  869MOL0     H14665   3.225  11.151   7.735 -2.7766 -0.3065  2.2533
  869MOL0     H14666   3.082  11.345   7.794 -0.9200  2.8203  0.3837
  869MOL0     H14667   3.233  11.427   7.807 -1.6173 -0.6277  0.7314
  869MOL0     H14668   3.310  11.358   7.577 -0.4098  0.4517 -1.4251
  869MOL0     H14669   3.173  11.461   7.576 -0.0352  0.4699  1.5829
  869MOL0     H14670   2.991  11.041   7.504 -1.6421 -0.7523 -0.7322
  869MOL0     H14671   2.754  11.034   7.481  3.3802 -1.4448 -2.5350
  869MOL0     H14672   2.271  11.219   7.476 -1.6417 -1.1955  0.3354
  869MOL0     H14673   2.073  11.065   7.435  0.0415 -0.2446 -0.7945
  869MOL0     H14674   2.129  10.635   7.446 -1.0805 -1.5299 -1.1145
  869MOL0     H14675   2.152  10.707   7.294  0.1245 -0.7661  0.1687
  869MOL0     H14676   1.884  10.648   7.412  1.8388  0.9759  1.4872
  869MOL0     H14677   1.968  10.547   7.288 -0.2927  0.5186 -4.4534
  869MOL0     H14678   1.964  10.744   7.141 -1.4553  2.8333 -0.9820
  869MOL0     H14679   1.857  10.829   7.254 -0.1455 -0.0823 -1.3594
  869MOL0     H14680   1.813  10.552   7.127  3.1184  2.1369 -1.1997
  869MOL0     H14681   1.687  10.656   7.218 -1.4555  2.1837 -2.1194
  869MOL0     H14682   1.815  10.724   6.946 -1.3525  2.9374 -2.2197
  869MOL0     H14683   1.701  10.824   7.044  1.5235  1.8319 -4.1348
  869MOL0     H14684   1.565  10.703   6.878 -0.3229  2.9028  1.8212
  869MOL0     H14685   1.526  10.639   7.023 -0.5217  3.6794 -0.0826
  869MOL0     H14686   1.670  10.438   7.004  0.2187  1.6811  1.6304
  869MOL0     H14687   1.576  10.467   6.857  1.0127  0.1374 -0.8819
  869MOL0     H14688   1.878  10.523   6.889  0.0863  0.6384  2.8679
  869MOL0     H14689   1.774  10.545   6.738 -0.7174 -0.3298  0.1196
  869MOL0     H14690   2.303  10.727   7.457 -0.2216 -0.4297 -1.1704
  869MOL0     H14691   2.506  10.870   7.514 -0.9648 -0.1822  1.3641
  869MOL0     H14692   2.719  11.458   7.507  1.3633  0.7528  0.8596
  869MOL0     H14693   2.952  11.483   7.538 -4.1325  1.5516  1.4990
  869MOL0     H14694   4.554  11.172   8.596  1.0788 -3.9704  1.9966
  869MOL0     H14695   4.690  11.328   8.716  1.6895 -1.6445  1.0088
  869MOL0     H14696   4.984  11.335   9.177 -0.5381  0.6219  3.1318
  869MOL0     H14697   5.158  11.505   9.229  0.1546 -0.0947  0.3803
  869MOL0     H14698   5.301  11.649   9.190  0.6040 -0.1356  1.1949
  869MOL0     H14699   5.231  11.700   9.352  0.8897 -0.0660  0.5393
  869MOL0     H14700   5.368  11.879   9.143 -4.6661 -2.2468 -1.1888
  869MOL0     H14701   5.340  11.917   9.323 -1.1636 -0.2008  0.3844
  869MOL0     H14702   5.509  11.682   9.333 -0.3977 -1.6406 -1.6047
  869MOL0     H14703   5.563  11.851   9.359  0.7333 -0.1670  0.1468
  869MOL0     H14704   5.659  11.871   9.160  0.0078 -1.2882 -2.9379
  869MOL0     H14705   5.703  11.719   9.231 -0.4899 -0.5218  0.5355
  869MOL0     H14706   5.528  11.564   8.889 -3.7198  0.2419  0.7152
  869MOL0     H14707   4.918  11.818   9.052 -0.0258 -0.0819  0.6271
  869MOL0     H14708   4.785  11.651   8.952  1.3789  0.2531  0.0362
  870MOL0     O14709   5.250   4.981   7.828  0.0406 -0.5357 -0.3225
  870MOL0     C14710   5.307   5.077   7.873 -0.2541 -0.0238 -0.6055
  870MOL0     O14711   5.242   5.193   7.925  1.0886 -0.5149 -0.9573
  870MOL0     C14712   5.110   5.171   7.963  0.1369 -0.1908 -0.5528
  870MOL0     C14713   5.014   5.125   7.877 -0.0074 -0.6324  0.0223
  870MOL0     C14714   4.882   5.109   7.915 -0.0018 -0.4756  0.8295
  870MOL0     C14715   4.844   5.126   8.045  0.1007  0.1170 -0.8467
  870MOL0     O14716   4.707   5.128   8.072  0.0104 -0.3706  0.2764
  870MOL0     C14717   4.664   5.146   8.206 -0.1430  0.5794 -0.7666
  870MOL0     C14718   4.516   5.133   8.213  0.0531  1.1297  0.4062
  870MOL0     C14719   4.460   5.180   8.349  0.3698 -0.5270  0.1745
  870MOL0     C14720   4.305   5.203   8.322  0.0218  0.2052  0.0923
  870MOL0     C14721   4.229   5.204   8.453  0.4126 -1.0434  0.3183
  870MOL0     C14722   4.082   5.173   8.432  0.9737 -1.0797 -0.7002
  870MOL0     C14723   4.011   5.192   8.565  0.2216  0.5904  0.0489
  870MOL0     C14724   3.873   5.128   8.556  0.0109  0.4132 -0.4224
  870MOL0     N14725   3.794   5.126   8.679  0.1289  0.0652  0.6448
  870MOL0     C14726   3.660   5.116   8.691 -0.9403 -0.0545  0.1180
  870MOL0     C14727   3.643   5.102   8.827  0.0947  0.0217  0.0872
  870MOL0     C14728   3.510   5.105   8.902 -0.8468  0.5646  0.1871
  870MOL0     C14729   3.432   4.974   8.899 -0.1155 -0.4375 -0.0723
  870MOL0     C14730   3.315   4.995   8.798  0.1354  0.4408  1.3204
  870MOL0     C14731   3.259   4.857   8.763  0.0309  0.7468 -0.8811
  870MOL0     O14732   3.181   4.855   8.650  0.4103 -0.4223  0.2357
  870MOL0     C14733   3.064   4.791   8.643 -0.2350  0.5832 -0.5655
  870MOL0     C14734   2.972   4.846   8.557 -0.4730  0.1701  0.6924
  870MOL0     C14735   2.849   4.778   8.531  0.4470 -0.8349 -0.3820
  870MOL0     C14736   2.813   4.661   8.599 -0.9157  0.7000  0.0128
  870MOL0     C14737   2.680   4.595   8.575 -0.1386  0.3362 -0.4588
  870MOL0     O14738   2.599   4.658   8.475 -0.2560 -0.2623 -0.1475
  870MOL0     C14739   2.484   4.605   8.454  1.0961  0.0631  0.6583
  870MOL0     C14740   2.361   4.619   8.539  0.0078 -0.2098 -0.2825
  870MOL0     C14741   2.233   4.567   8.497 -1.1226  0.1050  0.5729
  870MOL0     C14742   2.221   4.502   8.378  0.1803  0.0432 -0.2466
  870MOL0     O14743   2.104   4.443   8.337  0.3066  0.0366  0.5735
  870MOL0     C14744   1.999   4.405   8.423  0.9556  0.6324 -0.1129
  870MOL0     C14745   1.958   4.254   8.373  0.1030 -1.4358 -0.5026
  870MOL0     C14746   1.813   4.216   8.435 -0.1359  0.5433 -0.4802
  870MOL0     C14747   1.693   4.314   8.406  0.6520 -0.3886 -0.3531
  870MOL0     C14748   1.564   4.241   8.431 -0.9777  0.0184  0.7601
  870MOL0     C14749   1.440   4.324   8.429  0.1674 -0.1892 -0.8150
  870MOL0     C14750   1.403   4.420   8.315 -0.4047 -1.1983 -0.3021
  870MOL0     C14751   1.266   4.482   8.320 -0.4422  0.3522 -0.3226
  870MOL0    Cl14752   1.155   4.356   8.253 -0.2849 -0.3193 -0.0895
  870MOL0     C14753   2.333   4.479   8.302 -0.3925 -0.0751 -0.3189
  870MOL0     C14754   2.457   4.523   8.345 -0.7485 -0.0691  0.7325
  870MOL0     O14755   2.647   4.495   8.638  0.1272 -0.1466 -0.3213
  870MOL0     C14756   2.905   4.605   8.690  0.4038  0.1480 -0.8126
  870MOL0     C14757   3.035   4.666   8.702 -0.2137 -0.6070  0.3870
  870MOL0     N14758   3.762   5.077   8.889  0.3556 -0.0424  0.1914
  870MOL0     N14759   3.856   5.094   8.799  0.9393 -0.6848 -0.1730
  870MOL0     C14760   4.940   5.167   8.147 -0.1828 -0.1625  0.0541
  870MOL0     C14761   5.071   5.198   8.101 -0.0611 -1.0946  1.3362
  870MOL0     C14762   5.452   5.085   7.847 -0.7386 -0.6692 -0.6379
  870MOL0     C14763   5.519   5.198   7.897 -0.5889  0.5246  0.5634
  870MOL0     C14764   5.657   5.214   7.867  0.8431  0.0544 -0.9413
  870MOL0     C14765   5.727   5.120   7.792  0.3084 -0.7555  0.7546
  870MOL0     O14766   5.860   5.156   7.781 -0.0888  0.0903 -1.2344
  870MOL0     C14767   5.945   5.058   7.716 -0.0020 -0.8533  0.3307
  870MOL0     C14768   6.089   5.098   7.747  0.0671 -0.1547  0.3902
  870MOL0     C14769   6.144   5.032   7.871  0.1172  0.9734  0.9090
  870MOL0     C14770   6.154   4.875   7.850 -0.5557  0.2053 -0.4088
  870MOL0     C14771   6.239   4.823   7.961  0.8185  0.8691 -0.0843
  870MOL0     C14772   6.310   4.797   8.052 -0.5120  1.0851 -0.5092
  870MOL0     C14773   5.659   5.003   7.754 -0.5516  0.0677 -0.5517
  870MOL0     C14774   5.518   4.993   7.772 -0.8441 -0.7672  0.3015
  870MOL0     H14775   5.044   5.116   7.774  0.5894  1.3519 -0.0170
  870MOL0     H14776   4.812   5.109   7.832  2.5924 -0.0421 -1.5263
  870MOL0     H14777   4.694   5.244   8.244  1.1338 -0.6310  1.6198
  870MOL0     H14778   4.709   5.068   8.268 -2.5909 -0.7987 -0.5837
  870MOL0     H14779   4.483   5.031   8.191 -1.1920  1.7756 -0.9496
  870MOL0     H14780   4.473   5.199   8.137 -3.1784 -1.6679 -0.4738
  870MOL0     H14781   4.505   5.275   8.379 -2.3183  0.8801  0.0104
  870MOL0     H14782   4.474   5.096   8.419 -3.3181  0.0048  1.7991
  870MOL0     H14783   4.278   5.299   8.277 -1.6005  0.3249  1.2436
  870MOL0     H14784   4.278   5.114   8.264  1.0833  1.0814 -1.8276
  870MOL0     H14785   4.244   5.305   8.492  0.7292 -1.4409  1.2314
  870MOL0     H14786   4.265   5.133   8.527  0.0149  0.4155  1.9694
  870MOL0     H14787   4.055   5.074   8.395 -1.8492 -1.3308  1.7115
  870MOL0     H14788   4.050   5.237   8.349  0.0094  0.8034  1.0540
  870MOL0     H14789   4.064   5.155   8.653  0.5672 -0.4691 -0.5779
  870MOL0     H14790   3.998   5.299   8.583 -1.2431  0.6589 -1.1747
  870MOL0     H14791   3.874   5.026   8.518  2.4914  0.7345 -1.4136
  870MOL0     H14792   3.818   5.186   8.482 -2.8036 -2.3620 -0.7061
  870MOL0     H14793   3.590   5.135   8.610 -3.6757  1.7649  2.7001
  870MOL0     H14794   3.452   5.192   8.869 -1.3661 -0.7853 -2.6657
  870MOL0     H14795   3.539   5.115   9.008 -1.3071 -1.3348  0.5258
  870MOL0     H14796   3.391   4.953   8.999  1.2788  1.5184  0.9837
  870MOL0     H14797   3.505   4.901   8.863  1.3859  1.4705 -1.0433
  870MOL0     H14798   3.239   5.065   8.833 -1.9035 -0.6230 -0.6884
  870MOL0     H14799   3.352   5.031   8.701 -0.9926 -2.2408 -0.2355
  870MOL0     H14800   3.206   4.823   8.852  1.9767  1.8237  0.8033
  870MOL0     H14801   3.340   4.785   8.743 -0.1035 -0.5355  2.4868
  870MOL0     H14802   2.994   4.941   8.511  1.2005 -0.2429  0.5773
  870MOL0     H14803   2.781   4.830   8.465  2.7205 -1.5109 -3.4810
  870MOL0     H14804   2.380   4.691   8.619  2.8384 -1.8970  0.7307
  870MOL0     H14805   2.142   4.588   8.552 -0.8165 -1.4380  1.7323
  870MOL0     H14806   1.923   4.482   8.428  1.5189  1.1297  2.0217
  870MOL0     H14807   2.038   4.395   8.525  1.2298  0.4109 -0.2377
  870MOL0     H14808   2.046   4.195   8.402 -0.5286 -1.6233  1.1948
  870MOL0     H14809   1.946   4.237   8.266  1.6226 -3.1992 -0.4628
  870MOL0     H14810   1.825   4.201   8.542 -2.5779 -2.0319 -0.4436
  870MOL0     H14811   1.782   4.118   8.396 -1.8876  0.8804 -0.0120
  870MOL0     H14812   1.701   4.399   8.475 -0.7362 -0.8208  0.3752
  870MOL0     H14813   1.699   4.359   8.306  1.4974  1.7801  0.6022
  870MOL0     H14814   1.578   4.198   8.531  2.6281 -4.1704 -1.2054
  870MOL0     H14815   1.562   4.156   8.362  0.9920 -0.8192  1.6367
  870MOL0     H14816   1.443   4.387   8.519 -4.4559  0.3849 -0.7757
  870MOL0     H14817   1.358   4.252   8.436 -0.4249  0.3674 -1.7377
  870MOL0     H14818   1.479   4.499   8.313  0.7826 -2.1956  1.6696
  870MOL0     H14819   1.407   4.364   8.222 -0.7968 -2.4146  0.3948
  870MOL0     H14820   1.266   4.573   8.259 -1.3307  0.0475 -0.7929
  870MOL0     H14821   1.248   4.506   8.425 -1.7003 -1.4298 -0.0642
  870MOL0     H14822   2.320   4.415   8.216  3.3589 -1.4808 -0.0114
  870MOL0     H14823   2.548   4.496   8.290 -1.0943  2.2039 -1.0994
  870MOL0     H14824   2.878   4.517   8.748  3.5052 -0.4496 -0.0999
  870MOL0     H14825   3.102   4.613   8.768 -2.5390 -1.3136  2.3494
  870MOL0     H14826   4.907   5.172   8.250  2.3494  0.5116  0.9137
  870MOL0     H14827   5.149   5.243   8.161  0.2052  1.4270 -0.7326
  870MOL0     H14828   5.468   5.265   7.966 -0.1738  1.7113 -0.2483
  870MOL0     H14829   5.706   5.299   7.914 -0.2109  0.2499 -0.1523
  870MOL0     H14830   5.937   5.060   7.606  3.3751 -2.3287 -0.0761
  870MOL0     H14831   5.919   4.954   7.740  1.3917 -1.5575 -1.0004
  870MOL0     H14832   6.162   5.083   7.666 -1.8410 -1.7629 -1.1289
  870MOL0     H14833   6.091   5.205   7.766 -1.5493  0.3396 -1.8339
  870MOL0     H14834   6.080   5.048   7.959 -0.6765  0.8293  0.3679
  870MOL0     H14835   6.243   5.070   7.899  1.6548 -1.6239 -0.5706
  870MOL0     H14836   6.060   4.820   7.855 -0.3959 -0.1552 -1.1833
  870MOL0     H14837   6.206   4.851   7.756  0.6430 -0.6364  0.4374
  870MOL0     H14838   6.357   4.749   8.137 -2.4048  1.0099  0.5387
  870MOL0     H14839   5.720   4.936   7.695  3.5218  1.0612  2.1307
  870MOL0     H14840   5.465   4.911   7.724 -0.2791 -0.5046 -0.8140
  871MOL0     O14841   2.195   1.327   4.783 -0.6121 -0.9051 -0.2807
  871MOL0     C14842   2.131   1.367   4.684 -0.2095 -0.1551  0.2299
  871MOL0     O14843   2.175   1.449   4.590 -0.7172 -0.1958 -0.0426
  871MOL0     C14844   2.310   1.491   4.593  0.8186 -0.0989  0.6941
  871MOL0     C14845   2.344   1.617   4.542  0.4840  0.0823  0.3510
  871MOL0     C14846   2.474   1.653   4.544  0.0353  0.4021 -0.7477
  871MOL0     C14847   2.577   1.567   4.588 -0.6012  0.3145 -0.0865
  871MOL0     O14848   2.710   1.621   4.583 -0.2891  0.2593 -0.2058
  871MOL0     C14849   2.798   1.600   4.694  0.2945 -0.0794 -0.0230
  871MOL0     C14850   2.780   1.720   4.791 -0.4514 -0.0154 -0.4976
  871MOL0     C14851   2.897   1.728   4.890 -0.3712 -0.1844  0.5669
  871MOL0     C14852   3.032   1.753   4.825  0.2240 -0.5051  0.1514
  871MOL0     C14853   3.133   1.751   4.934 -0.6556 -1.0355  0.7203
  871MOL0     C14854   3.274   1.776   4.874 -1.2657  0.1891  0.2004
  871MOL0     C14855   3.374   1.743   4.988 -0.2074 -0.6738  0.1555
  871MOL0     C14856   3.517   1.753   4.928  0.1697  1.2925 -0.1330
  871MOL0     N14857   3.548   1.884   4.875  0.2117 -0.0562 -0.2398
  871MOL0     C14858   3.593   1.989   4.951  0.9913 -0.4801  0.2029
  871MOL0     C14859   3.632   2.082   4.864  0.2190  0.4930  0.3467
  871MOL0     C14860   3.680   2.219   4.890  0.2525  0.0013  0.2397
  871MOL0     C14861   3.597   2.325   4.972  0.1170 -0.5269 -0.7885
  871MOL0     C14862   3.482   2.390   4.895  0.0091  1.2712 -0.1120
  871MOL0     C14863   3.361   2.289   4.876 -0.0130 -0.0857 -0.4332
  871MOL0     O14864   3.245   2.361   4.834  0.6188 -0.0049 -0.2604
  871MOL0     C14865   3.117   2.319   4.856 -0.0745  0.3571  1.1180
  871MOL0     C14866   3.015   2.409   4.839  0.9916 -0.2443  0.5567
  871MOL0     C14867   2.881   2.372   4.842  0.4289  0.0964 -0.0504
  871MOL0     C14868   2.838   2.236   4.859 -0.1996  0.3151 -0.2509
  871MOL0     C14869   2.699   2.195   4.851 -0.6213 -0.2059  0.9554
  871MOL0     O14870   2.611   2.289   4.877 -0.3141  0.1911 -0.6563
  871MOL0     C14871   2.478   2.258   4.877 -1.1995  0.0995  0.2702
  871MOL0     C14872   2.397   2.354   4.809 -0.4940  0.0262  0.7597
  871MOL0     C14873   2.263   2.342   4.803  0.0634 -0.5443  0.5202
  871MOL0     C14874   2.201   2.252   4.892  0.2814  0.5317  0.0672
  871MOL0     O14875   2.066   2.255   4.911 -0.2443 -0.0500 -0.4370
  871MOL0     C14876   2.014   2.249   5.048  0.2408  0.3108  0.3140
  871MOL0     C14877   1.910   2.362   5.063  0.3444  0.1419 -0.6640
  871MOL0     C14878   1.792   2.331   5.167 -0.3640  0.4417 -0.5444
  871MOL0     C14879   1.694   2.224   5.110 -0.3737 -0.6461  0.4136
  871MOL0     C14880   1.579   2.198   5.212  0.1620 -0.2371  0.7282
  871MOL0     C14881   1.476   2.093   5.184 -0.1712  0.1779 -0.1196
  871MOL0     C14882   1.530   1.953   5.197  0.1023 -0.1005  0.2012
  871MOL0     C14883   1.424   1.849   5.185 -0.6426  0.4795 -0.3204
  871MOL0    Cl14884   1.512   1.700   5.120  0.1722 -0.1774 -0.3395
  871MOL0     C14885   2.280   2.156   4.960  0.0151  0.0233  1.1140
  871MOL0     C14886   2.422   2.159   4.960  0.0879 -0.0818  0.8448
  871MOL0     O14887   2.671   2.083   4.814 -0.6802  0.4101  0.4771
  871MOL0     C14888   2.940   2.143   4.901  0.2501 -0.4448 -0.3349
  871MOL0     C14889   3.075   2.185   4.888 -0.7341  1.1748 -0.0972
  871MOL0     N14890   3.602   2.034   4.736 -0.0354 -0.1004 -0.3050
  871MOL0     N14891   3.551   1.917   4.743 -0.8843 -0.0374 -0.0887
  871MOL0     C14892   2.541   1.443   4.640 -0.1168  0.1446 -0.4230
  871MOL0     C14893   2.412   1.405   4.642 -0.2585  0.1411  0.1279
  871MOL0     C14894   1.980   1.352   4.689 -0.5961 -0.5351 -0.5987
  871MOL0     C14895   1.893   1.419   4.599  0.1264 -0.2545 -0.3524
  871MOL0     C14896   1.754   1.408   4.600  0.0823 -0.3430 -0.1889
  871MOL0     C14897   1.697   1.329   4.705 -0.5517  0.4999 -0.2009
  871MOL0     O14898   1.564   1.311   4.695  0.3868 -0.1889  0.1329
  871MOL0     C14899   1.500   1.235   4.798 -0.0347 -0.7140  0.0823
  871MOL0     C14900   1.354   1.226   4.749  0.5155  0.1922  0.9160
  871MOL0     C14901   1.274   1.360   4.749 -0.6624  0.3595 -0.1379
  871MOL0     C14902   1.113   1.329   4.747 -1.1367  0.2541 -0.3659
  871MOL0     C14903   1.070   1.233   4.641 -0.0557 -1.4853 -0.0003
  871MOL0     C14904   1.016   1.153   4.563  0.6856  0.4301  0.2049
  871MOL0     C14905   1.778   1.262   4.799  0.1875  0.4120 -0.2039
  871MOL0     C14906   1.922   1.273   4.786  0.4521 -0.4694  0.7611
  871MOL0     H14907   2.266   1.682   4.504  1.4517  1.9066  1.3657
  871MOL0     H14908   2.500   1.755   4.518 -0.9925  0.5931 -1.0675
  871MOL0     H14909   2.902   1.601   4.660  0.2968  1.3238 -0.0490
  871MOL0     H14910   2.776   1.500   4.733  1.6710 -0.3584  0.1013
  871MOL0     H14911   2.683   1.719   4.841  0.6837 -1.2779  1.8527
  871MOL0     H14912   2.791   1.810   4.731  0.4430  0.8256  0.8540
  871MOL0     H14913   2.890   1.639   4.952  0.9290 -0.2524  0.6460
  871MOL0     H14914   2.871   1.817   4.948 -2.0717  0.2366 -0.7230
  871MOL0     H14915   3.056   1.674   4.753 -1.7694 -1.4679  0.4682
  871MOL0     H14916   3.038   1.850   4.774 -0.7294  0.5657  1.9772
  871MOL0     H14917   3.120   1.662   4.997 -2.5723 -0.4550  1.2104
  871MOL0     H14918   3.125   1.833   5.005  2.0843 -1.3363  1.4879
  871MOL0     H14919   3.287   1.876   4.832  0.0106 -0.4757 -1.0799
  871MOL0     H14920   3.297   1.718   4.785  1.0585  1.3317 -0.0168
  871MOL0     H14921   3.348   1.815   5.066 -0.4438  0.0455 -0.5714
  871MOL0     H14922   3.368   1.644   5.033  0.4701 -0.5361  0.5622
  871MOL0     H14923   3.518   1.697   4.835 -1.7936  2.4311 -0.8952
  871MOL0     H14924   3.585   1.707   5.001  0.8106 -0.2871 -1.6686
  871MOL0     H14925   3.605   1.991   5.059 -1.1432 -1.3234  0.5027
  871MOL0     H14926   3.691   2.259   4.789  1.1835  0.1301  0.3743
  871MOL0     H14927   3.780   2.213   4.935 -0.3100 -1.0735  1.4049
  871MOL0     H14928   3.673   2.398   5.000 -1.3548  0.9964 -0.6240
  871MOL0     H14929   3.566   2.283   5.068  1.2695  1.9093  0.7348
  871MOL0     H14930   3.442   2.476   4.949 -2.0293 -0.9897  2.2486
  871MOL0     H14931   3.522   2.429   4.801  1.1127  0.6606  0.0811
  871MOL0     H14932   3.344   2.250   4.977  0.5102  3.6052  1.2614
  871MOL0     H14933   3.380   2.210   4.803 -2.6268 -0.7493 -0.4869
  871MOL0     H14934   3.036   2.514   4.820  2.8923 -0.3996  1.5165
  871MOL0     H14935   2.806   2.448   4.827 -2.5104 -2.6047 -0.0155
  871MOL0     H14936   2.442   2.422   4.738 -0.6919 -0.4062  0.2165
  871MOL0     H14937   2.203   2.421   4.757  0.2807  1.4293  3.3365
  871MOL0     H14938   2.087   2.270   5.127 -0.6764  1.1334  0.9584
  871MOL0     H14939   1.970   2.149   5.062 -0.2337  0.1276 -2.1217
  871MOL0     H14940   1.870   2.377   4.962 -0.3084 -1.6642 -0.7210
  871MOL0     H14941   1.968   2.452   5.083  2.5239 -1.1973 -0.5529
  871MOL0     H14942   1.727   2.418   5.170 -1.0430 -0.0357 -1.1934
  871MOL0     H14943   1.824   2.311   5.270 -1.1822 -0.7690 -0.5002
  871MOL0     H14944   1.651   2.259   5.016 -2.2045 -0.0972  1.4144
  871MOL0     H14945   1.739   2.126   5.090 -0.6281 -1.1544  2.1600
  871MOL0     H14946   1.528   2.292   5.235 -0.9547 -0.7501  0.3763
  871MOL0     H14947   1.620   2.171   5.310  3.3613 -1.6780 -0.8436
  871MOL0     H14948   1.439   2.116   5.083 -3.2597 -0.0665  0.8484
  871MOL0     H14949   1.400   2.106   5.261 -2.2757  1.7364 -2.3049
  871MOL0     H14950   1.591   1.956   5.106 -1.7721  0.7291 -1.0748
  871MOL0     H14951   1.597   1.931   5.281  0.7888  3.8821  0.8758
  871MOL0     H14952   1.345   1.871   5.111 -1.0415 -1.6578 -0.6052
  871MOL0     H14953   1.385   1.819   5.282 -0.2708 -3.7176 -1.2859
  871MOL0     H14954   2.232   2.080   5.021  2.0217 -1.8574  0.5000
  871MOL0     H14955   2.480   2.101   5.032  0.9928 -0.0295  0.1723
  871MOL0     H14956   2.913   2.041   4.924  2.8824 -1.2029 -0.2156
  871MOL0     H14957   3.156   2.117   4.913 -3.1003 -1.6991  0.2957
  871MOL0     H14958   2.613   1.369   4.674  2.2330  2.4528 -0.0328
  871MOL0     H14959   2.392   1.305   4.678  0.0016 -1.0455 -2.7445
  871MOL0     H14960   1.921   1.474   4.510 -1.9881 -0.3840 -1.1673
  871MOL0     H14961   1.689   1.467   4.535 -0.6541 -1.4254 -0.4641
  871MOL0     H14962   1.506   1.298   4.887 -1.4360  1.1246 -1.0449
  871MOL0     H14963   1.538   1.134   4.817  2.4303  0.2219  0.3880
  871MOL0     H14964   1.355   1.172   4.653  1.8292 -1.2232  1.6809
  871MOL0     H14965   1.298   1.164   4.820 -0.9290  2.7592  2.1470
  871MOL0     H14966   1.319   1.423   4.672 -1.2402 -0.8681 -1.5308
  871MOL0     H14967   1.297   1.420   4.838 -0.7843 -0.2756  0.3285
  871MOL0     H14968   1.087   1.270   4.836 -0.2062  1.7194  0.9354
  871MOL0     H14969   1.069   1.429   4.752  1.0818  1.2364  1.6584
  871MOL0     H14970   0.951   1.094   4.500  1.5975  0.3871 -0.7124
  871MOL0     H14971   1.736   1.208   4.883 -1.4544  4.2457  1.6829
  871MOL0     H14972   1.988   1.223   4.856  2.0697  1.9151  1.0516
  872MOL0     O14973   5.696   4.506   5.152  0.8543 -0.0188  0.2346
  872MOL0     C14974   5.735   4.600   5.076  0.2666  0.6186 -1.0185
  872MOL0     O14975   5.861   4.656   5.086  0.7684  0.6469  0.6299
  872MOL0     C14976   5.947   4.578   5.156 -0.6881  0.5236  0.1776
  872MOL0     C14977   5.955   4.579   5.299 -0.2223  0.6194  0.7335
  872MOL0     C14978   6.046   4.501   5.374  0.3893 -0.1925 -0.4605
  872MOL0     C14979   6.125   4.410   5.300 -0.3865 -0.3166 -0.6741
  872MOL0     O14980   6.200   4.332   5.379 -0.2654 -0.2394 -0.4220
  872MOL0     C14981   6.328   4.294   5.341  0.7750  0.3972 -0.2506
  872MOL0     C14982   6.311   4.145   5.315  0.1309 -0.8072  0.8294
  872MOL0     C14983   6.442   4.080   5.283  0.5386 -0.8089 -0.3140
  872MOL0     C14984   6.419   3.931   5.248  0.3490  0.9783  0.6082
  872MOL0     C14985   6.545   3.845   5.214  0.0143  0.6947  0.7155
  872MOL0     C14986   6.605   3.769   5.333  0.6018  0.3574 -0.5731
  872MOL0     C14987   6.711   3.665   5.284  0.6709  0.0117  0.0245
  872MOL0     C14988   6.652   3.521   5.265 -0.6360  0.1502  0.0157
  872MOL0     N14989   6.560   3.510   5.144  0.3014 -0.9379  0.6181
  872MOL0     C14990   6.598   3.476   5.014  0.2038 -0.8155  0.1141
  872MOL0     C14991   6.487   3.506   4.946  0.9772 -0.0832 -0.0549
  872MOL0     C14992   6.465   3.486   4.797  0.5538 -0.5548 -0.8789
  872MOL0     C14993   6.462   3.619   4.713  0.1265  0.4256  0.9078
  872MOL0     C14994   6.411   3.577   4.575  0.8017 -0.2493 -0.0864
  872MOL0     C14995   6.510   3.486   4.504  0.0242  0.3190  0.5467
  872MOL0     O14996   6.487   3.346   4.530 -0.2817 -0.1122 -0.0157
  872MOL0     C14997   6.385   3.274   4.469  0.2203  0.7238 -0.4854
  872MOL0     C14998   6.286   3.341   4.392  0.3662  0.1303  1.4471
  872MOL0     C14999   6.177   3.270   4.350 -0.0562  0.3058  0.9276
  872MOL0     C15000   6.157   3.135   4.386 -0.0724 -0.2299  0.1224
  872MOL0     C15001   6.040   3.059   4.330 -0.0414  0.6452 -0.0240
  872MOL0     O15002   6.000   2.960   4.412  0.0732 -0.7256 -0.5240
  872MOL0     C15003   5.897   2.881   4.363 -0.0918  0.1671 -0.2576
  872MOL0     C15004   5.921   2.747   4.338 -0.4484 -0.3991  0.5354
  872MOL0     C15005   5.816   2.664   4.287 -0.0020 -0.3004  0.0164
  872MOL0     C15006   5.692   2.718   4.272  0.8564 -0.5906 -0.0922
  872MOL0     O15007   5.597   2.628   4.227 -0.5006 -0.2644  0.4305
  872MOL0     C15008   5.508   2.592   4.335 -0.3908  0.5785  0.3312
  872MOL0     C15009   5.378   2.553   4.254 -0.4756  0.4526  0.1875
  872MOL0     C15010   5.265   2.525   4.348 -0.2543  0.3823  0.5112
  872MOL0     C15011   5.292   2.442   4.479 -0.8018  0.4727 -0.0917
  872MOL0     C15012   5.158   2.403   4.545 -0.4843 -0.5936  0.0926
  872MOL0     C15013   5.164   2.357   4.694 -0.2085  0.1974 -0.5915
  872MOL0     C15014   5.272   2.257   4.742  0.1923  0.0801 -0.2585
  872MOL0     C15015   5.266   2.127   4.661  0.4411  0.4551  0.0155
  872MOL0    Cl15016   5.428   2.051   4.680  0.0365  0.0588 -0.0544
  872MOL0     C15017   5.663   2.859   4.293 -0.2307 -0.7042  0.6296
  872MOL0     C15018   5.770   2.938   4.343  0.2786  0.0326  0.1154
  872MOL0     O15019   5.993   3.087   4.221 -0.5849  0.0478  0.1665
  872MOL0     C15020   6.248   3.075   4.469 -0.5704  0.5777 -0.3226
  872MOL0     C15021   6.362   3.140   4.507 -0.2339 -0.0878  0.7549
  872MOL0     N15022   6.379   3.543   5.029 -0.1034 -0.0597  1.0251
  872MOL0     N15023   6.428   3.534   5.145  0.4491 -0.0615  0.1035
  872MOL0     C15024   6.113   4.403   5.156 -0.4467  0.7780 -0.8396
  872MOL0     C15025   6.028   4.487   5.089 -0.6135  0.0558 -0.4292
  872MOL0     C15026   5.624   4.679   5.014 -0.9094  0.1707  0.3120
  872MOL0     C15027   5.511   4.613   4.956 -0.7498 -0.0510  0.6129
  872MOL0     C15028   5.408   4.680   4.890  0.2323  0.2122 -0.3888
  872MOL0     C15029   5.416   4.820   4.876 -0.5954 -0.2687 -0.3641
  872MOL0     O15030   5.319   4.896   4.815  0.0933  0.1904  0.6799
  872MOL0     C15031   5.213   4.828   4.741  0.7887 -0.6648 -0.6342
  872MOL0     C15032   5.184   4.923   4.630  1.2234 -0.3621 -0.1763
  872MOL0     C15033   5.288   4.918   4.523  0.3613  0.3399  0.8121
  872MOL0     C15034   5.257   4.999   4.397 -0.0589 -0.2433  0.0826
  872MOL0     C15035   5.136   4.953   4.330  0.3741  0.1993  0.7446
  872MOL0     C15036   5.038   4.906   4.271  0.1867 -0.0222  0.6177
  872MOL0     C15037   5.526   4.888   4.926  0.2134 -0.3297  0.7394
  872MOL0     C15038   5.630   4.818   4.999  0.4791 -0.1056 -0.6020
  872MOL0     H15039   5.883   4.639   5.355  0.0029 -0.4299  2.2171
  872MOL0     H15040   6.054   4.500   5.482 -0.8979  0.3781 -0.3428
  872MOL0     H15041   6.397   4.304   5.425 -0.8442  1.8238  1.0039
  872MOL0     H15042   6.376   4.354   5.263  0.1658 -0.0796 -1.0086
  872MOL0     H15043   6.239   4.144   5.233 -0.1475  1.0886  1.0037
  872MOL0     H15044   6.263   4.094   5.399 -1.0524 -1.4151 -0.1720
  872MOL0     H15045   6.512   4.095   5.365 -0.1191  1.2293 -0.0622
  872MOL0     H15046   6.495   4.117   5.194  2.1479  0.2810  1.0284
  872MOL0     H15047   6.352   3.886   5.322 -1.2917  1.8682 -0.2943
  872MOL0     H15048   6.354   3.926   5.161 -0.1873  0.3157  1.0364
  872MOL0     H15049   6.637   3.896   5.184  1.0733 -2.1384 -1.2573
  872MOL0     H15050   6.510   3.778   5.135 -3.3145  1.0066  1.7725
  872MOL0     H15051   6.528   3.719   5.392 -0.1104 -0.2953 -2.0083
  872MOL0     H15052   6.661   3.837   5.398  0.4524 -0.2258  0.1794
  872MOL0     H15053   6.746   3.700   5.187 -3.5863  1.8054 -1.0979
  872MOL0     H15054   6.798   3.659   5.350  0.6316  0.4628  0.1243
  872MOL0     H15055   6.617   3.515   5.369  2.6079 -2.8941  1.1549
  872MOL0     H15056   6.735   3.450   5.254 -2.4338 -1.8902 -1.2025
  872MOL0     H15057   6.689   3.433   4.974  0.1343 -1.7195  0.8915
  872MOL0     H15058   6.380   3.421   4.774  1.0889 -0.4979 -3.1771
  872MOL0     H15059   6.552   3.427   4.766 -0.1512 -1.1750 -1.7124
  872MOL0     H15060   6.562   3.661   4.703  0.8753 -1.5872 -1.0238
  872MOL0     H15061   6.400   3.697   4.758 -0.1423  0.4475  0.5007
  872MOL0     H15062   6.317   3.526   4.597  1.1081 -0.2328  1.3344
  872MOL0     H15063   6.388   3.665   4.514  1.2474 -0.2128 -0.2038
  872MOL0     H15064   6.610   3.518   4.534  1.5098 -1.1542 -2.4279
  872MOL0     H15065   6.491   3.509   4.398  2.0213  1.0713  0.3184
  872MOL0     H15066   6.296   3.447   4.370 -0.9336 -0.2627 -1.4797
  872MOL0     H15067   6.102   3.311   4.283  1.5993 -0.9913 -1.9148
  872MOL0     H15068   6.021   2.707   4.357 -0.8386 -1.8834 -0.3969
  872MOL0     H15069   5.824   2.557   4.275 -0.9773 -1.2186  5.0339
  872MOL0     H15070   5.488   2.673   4.405 -1.4301  0.0230  0.7077
  872MOL0     H15071   5.555   2.512   4.393  0.5971  0.3601 -0.7390
  872MOL0     H15072   5.397   2.459   4.200 -1.8025  0.7123 -0.7837
  872MOL0     H15073   5.344   2.627   4.181  2.1266  1.5224 -0.0347
  872MOL0     H15074   5.179   2.476   4.300 -0.6313 -0.2077  1.7473
  872MOL0     H15075   5.237   2.626   4.379  0.2205  1.0634 -1.1480
  872MOL0     H15076   5.344   2.347   4.462  0.2565  0.8994  0.6872
  872MOL0     H15077   5.346   2.498   4.556 -0.2379  0.0004 -0.1384
  872MOL0     H15078   5.094   2.332   4.491  2.1147 -2.2509 -0.9821
  872MOL0     H15079   5.101   2.496   4.551 -2.5151 -1.7868  0.1960
  872MOL0     H15080   5.070   2.314   4.728  1.0580  0.0062  3.2044
  872MOL0     H15081   5.184   2.452   4.746  1.1008  0.1044 -0.8869
  872MOL0     H15082   5.373   2.292   4.719 -0.4277  1.3703 -1.1936
  872MOL0     H15083   5.267   2.238   4.850  0.4739 -0.5899 -0.3583
  872MOL0     H15084   5.245   2.143   4.555  0.7273  2.0684  0.1817
  872MOL0     H15085   5.189   2.064   4.707  1.8760 -1.7588 -0.4483
  872MOL0     H15086   5.561   2.886   4.272 -0.8289 -4.4559 -2.4125
  872MOL0     H15087   5.739   3.039   4.369 -2.8159 -0.9221  0.5695
  872MOL0     H15088   6.231   2.974   4.503 -1.6511  1.1475  0.8924
  872MOL0     H15089   6.424   3.074   4.566  0.5389  0.7008  0.8543
  872MOL0     H15090   6.174   4.336   5.098  1.0232 -0.5024  1.9875
  872MOL0     H15091   6.025   4.479   4.981  1.3287 -1.2657 -0.4292
  872MOL0     H15092   5.494   4.507   4.972  1.5234 -0.2995  1.7656
  872MOL0     H15093   5.326   4.619   4.853 -1.3076  0.3141  2.5520
  872MOL0     H15094   5.124   4.810   4.802 -0.2318 -2.3884 -2.5045
  872MOL0     H15095   5.234   4.735   4.687 -2.4323  0.2126 -3.7948
  872MOL0     H15096   5.086   4.894   4.590  0.9669  0.3707 -0.0811
  872MOL0     H15097   5.185   5.023   4.674  0.9351 -1.1742  1.8165
  872MOL0     H15098   5.295   4.813   4.493 -1.5387  0.1301  0.9485
  872MOL0     H15099   5.383   4.953   4.563 -0.4114  2.2408  1.0970
  872MOL0     H15100   5.253   5.105   4.425 -0.0967 -0.3896  0.6497
  872MOL0     H15101   5.340   4.988   4.327 -0.5645 -0.3865 -0.5068
  872MOL0     H15102   4.957   4.858   4.220 -0.4144  3.5350 -2.1855
  872MOL0     H15103   5.536   4.991   4.896  0.0704 -1.1001 -2.2569
  872MOL0     H15104   5.712   4.873   5.044  0.8484 -0.4597 -0.8427
  873MOL0     O15105   9.738  11.039   7.083 -0.5420 -0.0659  0.7472
  873MOL0     C15106   9.779  11.089   6.975 -0.6422 -0.5468 -0.5660
  873MOL0     O15107   9.703  11.144   6.868 -0.3569  0.1975 -0.4740
  873MOL0     C15108   9.569  11.136   6.888 -0.0990  0.1904 -0.8050
  873MOL0     C15109   9.504  11.007   6.886  0.1282 -0.7910  0.1991
  873MOL0     C15110   9.366  11.003   6.909  0.2456  0.0330  0.4502
  873MOL0     C15111   9.287  11.119   6.945 -0.7124  0.5604 -0.4326
  873MOL0     O15112   9.151  11.102   6.968 -0.2406 -0.4594 -0.4403
  873MOL0     C15113   9.093  11.211   7.050  0.2317 -0.4038  1.8535
  873MOL0     C15114   8.966  11.158   7.110  0.1034  0.4547 -0.0939
  873MOL0     C15115   8.891  11.277   7.177 -0.0905  0.6094 -0.0381
  873MOL0     C15116   8.795  11.216   7.281  0.1528  0.0578  0.1887
  873MOL0     C15117   8.858  11.153   7.413  0.2864 -0.4608 -0.8207
  873MOL0     C15118   8.976  11.233   7.488 -0.3800  1.0123  0.6237
  873MOL0     C15119   8.939  11.376   7.520  0.1204 -0.6922  0.5801
  873MOL0     C15120   9.060  11.469   7.519 -0.4503  0.5969  0.2255
  873MOL0     N15121   9.123  11.494   7.388  0.4989 -0.0896  0.7653
  873MOL0     C15122   9.106  11.605   7.311  0.1514 -0.1296  1.0167
  873MOL0     C15123   9.200  11.605   7.211 -0.5251 -2.2664  1.2965
  873MOL0     C15124   9.219  11.708   7.101 -0.7797  0.9765 -0.4639
  873MOL0     C15125   9.140  11.680   6.966  0.0129 -0.3118 -0.4460
  873MOL0     C15126   9.002  11.614   6.989  0.7532  0.6993 -0.3198
  873MOL0     C15127   8.925  11.579   6.864  1.2681  0.1820 -0.3509
  873MOL0     O15128   8.800  11.496   6.886  0.4791  0.0110 -0.3899
  873MOL0     C15129   8.711  11.500   6.787  0.0255  0.2793  0.6295
  873MOL0     C15130   8.732  11.565   6.670 -0.2447  0.3659  0.9362
  873MOL0     C15131   8.622  11.589   6.581  0.0936  0.7434  0.2784
  873MOL0     C15132   8.492  11.541   6.618  0.3835  0.0926  0.0428
  873MOL0     C15133   8.365  11.575   6.532  0.4429 -1.0624  0.2910
  873MOL0     O15134   8.240  11.584   6.587 -0.1993  0.3703 -0.2329
  873MOL0     C15135   8.126  11.559   6.520 -0.8290 -0.0013 -0.6273
  873MOL0     C15136   8.123  11.464   6.420 -0.1986  0.0672 -0.3089
  873MOL0     C15137   8.005  11.418   6.368 -0.4454  0.3962 -0.3124
  873MOL0     C15138   7.883  11.470   6.402 -0.4006  0.2959 -0.5472
  873MOL0     O15139   7.773  11.421   6.335 -0.2298  0.2163  0.6838
  873MOL0     C15140   7.762  11.435   6.196 -0.2030  0.3882  0.5086
  873MOL0     C15141   7.616  11.396   6.165  0.5451 -0.5505 -0.2913
  873MOL0     C15142   7.597  11.411   6.010  0.3146  0.0104 -0.2655
  873MOL0     C15143   7.456  11.368   5.976  0.5931  0.5306 -0.4047
  873MOL0     C15144   7.340  11.483   5.977 -0.1351  0.5139 -0.3384
  873MOL0     C15145   7.290  11.515   6.118 -0.2749  0.1992 -0.7114
  873MOL0     C15146   7.164  11.605   6.129 -0.8765  0.1360  0.7342
  873MOL0     C15147   7.094  11.576   6.268 -0.0607 -0.2403  0.4357
  873MOL0    Cl15148   6.936  11.663   6.274 -0.5543 -0.1766  0.0597
  873MOL0     C15149   7.889  11.558   6.505 -0.3078 -0.6326 -0.0510
  873MOL0     C15150   8.008  11.607   6.570 -0.0115 -0.6492  0.0762
  873MOL0     O15151   8.377  11.592   6.412 -0.1649  0.6137 -0.4686
  873MOL0     C15152   8.474  11.473   6.737 -0.4201  0.0264 -0.0565
  873MOL0     C15153   8.582  11.449   6.820 -0.7160 -0.9028 -0.2955
  873MOL0     N15154   9.263  11.492   7.213  0.5171  0.1868 -0.0960
  873MOL0     N15155   9.221  11.425   7.323  0.0666 -0.3193 -0.0962
  873MOL0     C15156   9.353  11.246   6.945 -0.1144  0.0831 -0.3732
  873MOL0     C15157   9.492  11.245   6.922  0.5249 -0.3591 -0.5713
  873MOL0     C15158   9.925  11.090   6.958  0.0314 -1.1961  0.4194
  873MOL0     C15159  10.010  11.053   7.065  0.3463  1.4788  0.2465
  873MOL0     C15160  10.152  11.041   7.050 -0.1325  0.4787 -0.2034
  873MOL0     C15161  10.208  11.069   6.920  0.1438 -1.0538 -0.5970
  873MOL0     O15162  10.343  11.058   6.900 -0.1257 -0.1076  0.2080
  873MOL0     C15163  10.369  10.955   6.810  0.3366  0.1549 -0.3152
  873MOL0     C15164  10.341  10.821   6.874  0.8347 -0.0654 -0.1860
  873MOL0     C15165  10.438  10.797   7.000 -0.6176 -0.3307  0.1105
  873MOL0     C15166  10.435  10.650   7.045 -0.9066 -0.3692  0.4195
  873MOL0     C15167  10.318  10.606   7.123  0.2383  0.2260 -0.1817
  873MOL0     C15168  10.219  10.563   7.183  0.3467 -0.6218  0.3026
  873MOL0     C15169  10.118  11.115   6.821  0.3954 -0.3200 -0.1496
  873MOL0     C15170   9.982  11.127   6.835 -0.1527  1.0810  0.9109
  873MOL0     H15171   9.567  10.926   6.850  1.6879  0.8654 -0.9874
  873MOL0     H15172   9.307  10.912   6.907  2.9955 -1.9269 -3.3330
  873MOL0     H15173   9.069  11.300   6.991 -0.5572 -1.1038  1.0692
  873MOL0     H15174   9.158  11.236   7.134  1.4192  0.2994  0.7669
  873MOL0     H15175   8.997  11.079   7.179  0.0396  0.0604 -0.5101
  873MOL0     H15176   8.914  11.109   7.027  2.7841 -2.1191 -0.4446
  873MOL0     H15177   8.846  11.330   7.092  0.3315  0.9788 -0.0373
  873MOL0     H15178   8.957  11.342   7.235 -0.2217 -1.5286  2.6676
  873MOL0     H15179   8.716  11.287   7.307 -1.4287  0.1147 -4.0769
  873MOL0     H15180   8.749  11.126   7.239  0.2030  0.1144  0.0150
  873MOL0     H15181   8.900  11.058   7.380  2.0352 -0.1724  0.4336
  873MOL0     H15182   8.783  11.135   7.490  0.7488 -3.3262 -0.9360
  873MOL0     H15183   9.059  11.227   7.417 -0.3152  2.0801  0.5960
  873MOL0     H15184   9.007  11.171   7.572 -1.4218 -3.9083 -2.1901
  873MOL0     H15185   8.878  11.416   7.439  2.6630 -0.3862 -1.2966
  873MOL0     H15186   8.879  11.383   7.611  0.6324 -0.4325  0.9069
  873MOL0     H15187   9.129  11.430   7.595  0.0936  2.0925  0.5291
  873MOL0     H15188   9.030  11.563   7.567  0.0450  0.9024 -0.0626
  873MOL0     H15189   9.037  11.685   7.337  1.1834  1.3003 -0.4666
  873MOL0     H15190   9.325  11.727   7.081 -0.9989  1.1497 -1.4821
  873MOL0     H15191   9.189  11.810   7.129 -0.1253  1.4839 -1.5530
  873MOL0     H15192   9.182  11.608   6.895 -2.7040 -1.0410 -1.4220
  873MOL0     H15193   9.114  11.774   6.915  2.3985  0.9251  0.4506
  873MOL0     H15194   9.021  11.513   7.028  0.5420 -1.5105 -5.2408
  873MOL0     H15195   8.940  11.683   7.047  0.3026  1.1650 -1.3359
  873MOL0     H15196   8.992  11.518   6.803  2.0138  0.0556  0.5674
  873MOL0     H15197   8.894  11.668   6.809 -3.3515 -0.7169  0.3608
  873MOL0     H15198   8.824  11.610   6.635 -0.0957 -0.9534 -0.4847
  873MOL0     H15199   8.642  11.632   6.484 -2.3098  1.1016 -0.1162
  873MOL0     H15200   8.206  11.402   6.389  0.4632  0.8406 -0.1215
  873MOL0     H15201   8.001  11.350   6.283 -1.4323  0.1585 -0.0937
  873MOL0     H15202   7.837  11.372   6.147  1.2974  0.8166  2.1759
  873MOL0     H15203   7.786  11.537   6.164 -1.5273 -0.1430 -2.4937
  873MOL0     H15204   7.547  11.453   6.228  0.8346  0.2699 -0.7100
  873MOL0     H15205   7.593  11.293   6.196 -1.0345  0.8854  4.2499
  873MOL0     H15206   7.658  11.340   5.954 -2.2014 -2.2422 -0.3502
  873MOL0     H15207   7.624  11.515   5.987  1.0956 -0.4277 -1.4119
  873MOL0     H15208   7.456  11.325   5.875  0.2744  0.9005 -0.5632
  873MOL0     H15209   7.414  11.291   6.042  0.9220 -0.5494 -1.4159
  873MOL0     H15210   7.252  11.445   5.925 -0.9317 -0.5763  1.7377
  873MOL0     H15211   7.370  11.572   5.921  0.3530 -0.2737 -1.3655
  873MOL0     H15212   7.374  11.563   6.170 -0.4110  0.0260 -0.3297
  873MOL0     H15213   7.269  11.425   6.177  0.2692  1.2399  1.1929
  873MOL0     H15214   7.200  11.708   6.115 -0.3184  0.1145  1.9251
  873MOL0     H15215   7.086  11.576   6.058  1.1985 -1.4347 -1.0390
  873MOL0     H15216   7.162  11.605   6.349 -0.7113  4.6545 -0.4609
  873MOL0     H15217   7.071  11.470   6.269  0.9415 -0.4717 -0.0171
  873MOL0     H15218   7.793  11.590   6.543 -0.5602 -2.6369  1.1196
  873MOL0     H15219   8.010  11.677   6.653  1.0246 -1.6269  0.9042
  873MOL0     H15220   8.381  11.433   6.775 -0.6787  0.3784 -0.3051
  873MOL0     H15221   8.569  11.397   6.915  1.2082 -1.7959 -0.4792
  873MOL0     H15222   9.305  11.341   6.965 -4.2638 -1.8447 -0.0531
  873MOL0     H15223   9.533  11.345   6.915  1.0038 -0.3615  1.5617
  873MOL0     H15224   9.984  11.032   7.169  3.1739 -3.2309  0.3083
  873MOL0     H15225  10.214  11.012   7.135  0.1543  1.7212  0.0311
  873MOL0     H15226  10.476  10.965   6.791  0.4664  3.5902  1.5108
  873MOL0     H15227  10.308  10.970   6.720  0.4775  2.8374 -0.0355
  873MOL0     H15228  10.238  10.808   6.908  0.5121  0.3502 -0.9690
  873MOL0     H15229  10.377  10.749   6.800 -2.7475 -0.3196 -1.8978
  873MOL0     H15230  10.411  10.854   7.089  0.4982 -0.2568  0.4090
  873MOL0     H15231  10.542  10.816   6.974 -0.5626 -0.7586  0.0045
  873MOL0     H15232  10.453  10.585   6.959  2.0204 -1.6233  1.8102
  873MOL0     H15233  10.514  10.637   7.120 -1.0935  1.3148  0.9492
  873MOL0     H15234  10.147  10.527   7.255  1.3028 -0.3482  1.4299
  873MOL0     H15235  10.148  11.163   6.728 -1.6679  1.3168 -0.0433
  873MOL0     H15236   9.923  11.179   6.760 -0.9349 -1.0591 -0.0420
  874MOL0     O15237   8.786   0.777   2.604 -0.2804  0.4420 -0.0543
  874MOL0     C15238   8.871   0.765   2.518  0.0447  0.0180 -0.7467
  874MOL0     O15239   8.861   0.820   2.389  0.0501 -0.0425 -0.2898
  874MOL0     C15240   8.740   0.884   2.355 -0.2439  0.0996 -0.3115
  874MOL0     C15241   8.641   0.815   2.283 -0.1078  0.0157 -0.1008
  874MOL0     C15242   8.515   0.867   2.251 -0.2014 -0.5269  0.9660
  874MOL0     C15243   8.475   0.994   2.294 -0.0936  0.1838  1.1446
  874MOL0     O15244   8.353   1.051   2.253 -0.5844 -0.1356  0.4283
  874MOL0     C15245   8.285   1.018   2.130 -0.2898 -0.3420 -0.1483
  874MOL0     C15246   8.167   1.116   2.114 -0.6624  0.5726  0.1953
  874MOL0     C15247   8.143   1.137   1.959 -1.1383  0.5758 -1.0981
  874MOL0     C15248   8.008   1.207   1.936  0.5094 -0.1847 -0.5185
  874MOL0     C15249   7.896   1.108   1.933  0.8118 -0.6647  0.6201
  874MOL0     C15250   7.759   1.169   1.933 -0.6179 -0.5439  0.2778
  874MOL0     C15251   7.641   1.074   1.945  0.4844 -0.9637 -0.4342
  874MOL0     C15252   7.631   0.984   1.823  0.2622  0.5985  0.3958
  874MOL0     N15253   7.503   0.919   1.818  0.3807  0.1595  0.4809
  874MOL0     C15254   7.391   0.947   1.735  0.1088  0.1327 -0.3955
  874MOL0     C15255   7.287   0.878   1.795 -0.2947  0.8555  0.6427
  874MOL0     C15256   7.133   0.883   1.756 -0.4746  0.0996  0.3970
  874MOL0     C15257   7.090   0.755   1.680  0.1428  0.1516 -0.2196
  874MOL0     C15258   6.971   0.797   1.588  0.3881  0.1708 -0.4230
  874MOL0     C15259   6.941   0.667   1.507  0.1533 -1.3117  0.6949
  874MOL0     O15260   6.845   0.588   1.583  0.2213 -0.1274  0.2473
  874MOL0     C15261   6.712   0.625   1.596 -0.4972 -0.4327  0.5888
  874MOL0     C15262   6.630   0.550   1.685  0.1751  0.4724  0.1982
  874MOL0     C15263   6.501   0.593   1.708 -0.3951 -1.0731 -0.2343
  874MOL0     C15264   6.447   0.702   1.632 -0.0055 -0.3895 -0.5464
  874MOL0     C15265   6.315   0.750   1.653  1.2738  0.2706 -0.1291
  874MOL0     O15266   6.219   0.653   1.683  0.5895  0.3093 -0.9791
  874MOL0     C15267   6.105   0.695   1.743  0.8038 -0.4611 -0.2105
  874MOL0     C15268   5.978   0.655   1.688 -0.7542 -0.9072  0.8442
  874MOL0     C15269   5.871   0.685   1.761 -0.1817 -0.1333 -0.8194
  874MOL0     C15270   5.866   0.756   1.878 -0.6789 -0.2470 -0.9691
  874MOL0     O15271   5.759   0.797   1.954  0.5960  0.0537  0.4763
  874MOL0     C15272   5.647   0.707   1.959  0.0230 -0.8401  0.1395
  874MOL0     C15273   5.550   0.748   2.076  0.0016 -0.1664 -0.0040
  874MOL0     C15274   5.396   0.728   2.044  0.1752 -0.7185  0.4902
  874MOL0     C15275   5.315   0.710   2.173  0.7174 -0.3259 -0.0523
  874MOL0     C15276   5.171   0.727   2.150 -0.3433  0.2298 -0.2244
  874MOL0     C15277   5.081   0.730   2.278 -0.2195  1.0726  0.3656
  874MOL0     C15278   5.091   0.595   2.352 -0.5030  0.3026  0.5171
  874MOL0     C15279   5.006   0.590   2.475  0.1439 -0.2799  0.5964
  874MOL0    Cl15280   4.834   0.612   2.421  0.0586  0.5938 -0.6392
  874MOL0     C15281   5.988   0.802   1.927 -0.7234 -0.8024  0.2963
  874MOL0     C15282   6.107   0.777   1.856  0.1265 -0.2026 -0.4895
  874MOL0     O15283   6.296   0.873   1.646 -0.7380 -0.2608 -0.5876
  874MOL0     C15284   6.527   0.763   1.533 -1.0392 -0.8138  0.4321
  874MOL0     C15285   6.664   0.735   1.520 -0.1830  0.3938  0.1749
  874MOL0     N15286   7.336   0.816   1.907 -0.3239 -0.2885  0.6788
  874MOL0     N15287   7.460   0.847   1.923  0.1602  0.3301  0.3170
  874MOL0     C15288   8.572   1.072   2.362  1.0487  0.1221 -1.0218
  874MOL0     C15289   8.695   1.012   2.401  0.0220  0.1753 -0.2218
  874MOL0     C15290   8.988   0.694   2.561  1.5028 -0.3081 -0.2832
  874MOL0     C15291   9.104   0.700   2.483 -1.3309  0.2063  0.1314
  874MOL0     C15292   9.213   0.623   2.525  0.0572  0.0966  0.6047
  874MOL0     C15293   9.226   0.558   2.649 -0.9049  0.1557 -0.0919
  874MOL0     O15294   9.327   0.489   2.701  0.3966  0.2890  0.4959
  874MOL0     C15295   9.454   0.496   2.643  0.3561 -0.2603  0.6045
  874MOL0     C15296   9.539   0.405   2.725 -0.6480 -0.1175 -0.1645
  874MOL0     C15297   9.551   0.458   2.874  0.2930 -0.0956  0.6400
  874MOL0     C15298   9.600   0.348   2.975  0.1641 -0.3770  0.5052
  874MOL0     C15299   9.571   0.386   3.117  0.1491  0.3563  0.0971
  874MOL0     C15300   9.555   0.405   3.236 -0.0272  0.8602  0.0031
  874MOL0     C15301   9.115   0.563   2.732  0.3310  1.0966 -0.0860
  874MOL0     C15302   8.998   0.630   2.690 -0.6739 -0.3363 -0.2367
  874MOL0     H15303   8.664   0.724   2.229 -2.0666 -0.1514 -0.7098
  874MOL0     H15304   8.459   0.812   2.177 -0.1329  0.7800 -0.0828
  874MOL0     H15305   8.249   0.915   2.122  0.1132 -0.5019  0.1207
  874MOL0     H15306   8.355   1.039   2.048  0.7419 -0.2874  0.7386
  874MOL0     H15307   8.173   1.209   2.171  1.8084 -0.1317  1.2394
  874MOL0     H15308   8.086   1.054   2.151 -0.6410  0.5526  0.2088
  874MOL0     H15309   8.141   1.043   1.904 -1.7008  0.3138 -0.6458
  874MOL0     H15310   8.220   1.199   1.912  1.0544 -1.2313 -0.1033
  874MOL0     H15311   7.989   1.277   2.018 -1.6718 -0.9810 -0.2712
  874MOL0     H15312   8.003   1.255   1.838  0.4523  1.2244  0.1436
  874MOL0     H15313   7.904   1.042   2.020  1.2278 -2.3061 -0.6410
  874MOL0     H15314   7.915   1.053   1.841 -0.0165 -0.7892  0.5250
  874MOL0     H15315   7.755   1.226   1.839  1.7491 -3.1290 -1.5588
  874MOL0     H15316   7.748   1.241   2.015 -0.4128  1.1749 -1.1214
  874MOL0     H15317   7.648   1.015   2.037 -1.0927  0.7635  0.8660
  874MOL0     H15318   7.549   1.132   1.941  1.8570  1.3211 -1.7095
  874MOL0     H15319   7.701   0.900   1.830 -1.7341 -1.0084  3.1886
  874MOL0     H15320   7.647   1.047   1.735  0.8123 -1.3738 -0.9823
  874MOL0     H15321   7.391   1.024   1.659  1.1360  0.4532 -0.0777
  874MOL0     H15322   7.107   0.973   1.700 -0.3893  0.9350  1.6692
  874MOL0     H15323   7.070   0.893   1.845 -1.5440  1.2424 -0.4457
  874MOL0     H15324   7.065   0.674   1.751  1.6185 -1.2141 -1.2060
  874MOL0     H15325   7.172   0.714   1.621  0.6611 -1.6263  1.6165
  874MOL0     H15326   6.884   0.827   1.647 -3.7705 -3.5704 -3.8256
  874MOL0     H15327   7.000   0.881   1.524  1.0098  1.0548  0.9743
  874MOL0     H15328   7.020   0.594   1.490 -1.2902 -3.0007  0.9245
  874MOL0     H15329   6.902   0.702   1.411 -1.0903 -1.2267  1.2097
  874MOL0     H15330   6.684   0.463   1.722  2.2286  1.0416 -1.2670
  874MOL0     H15331   6.436   0.550   1.783 -1.6105  2.3575  0.8792
  874MOL0     H15332   5.965   0.595   1.599 -0.6199  1.3737 -0.8116
  874MOL0     H15333   5.772   0.663   1.721 -1.4376  2.0601  0.8283
  874MOL0     H15334   5.681   0.604   1.976 -2.5350 -1.6547  0.8417
  874MOL0     H15335   5.596   0.710   1.862 -1.1628  0.6479  0.7600
  874MOL0     H15336   5.561   0.848   2.119 -2.3213 -1.2333  3.4898
  874MOL0     H15337   5.569   0.683   2.162 -0.4081 -0.3226 -0.0305
  874MOL0     H15338   5.380   0.647   1.972  0.2742 -0.1988 -0.1207
  874MOL0     H15339   5.357   0.816   1.992 -3.0212 -1.0703  2.0253
  874MOL0     H15340   5.336   0.612   2.218  0.8240 -0.1127  0.3665
  874MOL0     H15341   5.347   0.788   2.243 -2.7635  3.5581 -2.3514
  874MOL0     H15342   5.139   0.651   2.078 -0.8460 -0.5304  0.7740
  874MOL0     H15343   5.162   0.826   2.104  1.3088 -0.4445 -2.1302
  874MOL0     H15344   4.979   0.741   2.239 -1.2399 -3.5188  1.1515
  874MOL0     H15345   5.095   0.810   2.352 -2.7810  1.2320  0.7784
  874MOL0     H15346   5.052   0.525   2.277  1.3024 -0.1578 -0.0327
  874MOL0     H15347   5.194   0.573   2.381  0.0718  2.5513  0.3298
  874MOL0     H15348   5.047   0.662   2.546 -1.3636  0.0149  1.2126
  874MOL0     H15349   5.016   0.494   2.528 -1.0121 -0.8360 -0.1366
  874MOL0     H15350   5.991   0.868   2.013  1.0154 -0.3671 -0.0665
  874MOL0     H15351   6.205   0.806   1.892  0.5373 -0.9522 -1.0025
  874MOL0     H15352   6.482   0.837   1.468 -0.3245  0.2459  1.1205
  874MOL0     H15353   6.726   0.789   1.449  0.8010 -0.6413  0.2100
  874MOL0     H15354   8.540   1.168   2.402 -0.2869 -0.2456 -1.1464
  874MOL0     H15355   8.777   1.060   2.453  1.9653 -1.5383 -1.5030
  874MOL0     H15356   9.111   0.748   2.386  1.0229 -0.1303  0.0687
  874MOL0     H15357   9.304   0.615   2.466 -0.1388 -0.9365  0.4250
  874MOL0     H15358   9.490   0.598   2.661 -1.0990 -0.1782  3.7789
  874MOL0     H15359   9.456   0.459   2.540  1.2656  0.9916  0.1430
  874MOL0     H15360   9.502   0.303   2.724 -1.6310  0.2301 -0.3067
  874MOL0     H15361   9.645   0.410   2.697 -0.3588 -1.2190  0.6780
  874MOL0     H15362   9.456   0.494   2.915 -0.1846  0.0813 -0.5846
  874MOL0     H15363   9.620   0.543   2.885  0.5708 -0.4689  1.8396
  874MOL0     H15364   9.544   0.257   2.951  0.4015 -0.8272  1.6161
  874MOL0     H15365   9.706   0.326   2.960 -0.1832 -0.3387 -2.7026
  874MOL0     H15366   9.530   0.401   3.340 -2.7824  0.0721 -0.5938
  874MOL0     H15367   9.120   0.510   2.826 -2.1941 -1.9582 -1.5128
  874MOL0     H15368   8.920   0.645   2.763 -0.9028 -1.2710 -0.2765
  875MOL0     O15369   3.077   2.383   2.768 -0.8328  0.1066 -0.0051
  875MOL0     C15370   3.028   2.289   2.708 -0.5464  0.1856 -0.0667
  875MOL0     O15371   2.899   2.273   2.661 -0.1628  0.3588 -0.3363
  875MOL0     C15372   2.802   2.341   2.724 -0.0869 -0.9309 -0.5789
  875MOL0     C15373   2.667   2.351   2.665 -0.2084 -0.5696 -0.2396
  875MOL0     C15374   2.559   2.414   2.727  0.2207  0.4625  0.0952
  875MOL0     C15375   2.569   2.462   2.850  0.3955 -0.3601 -1.1224
  875MOL0     O15376   2.462   2.520   2.904  1.1624 -0.8218  0.5702
  875MOL0     C15377   2.451   2.517   3.043  0.4156 -0.4321 -0.6980
  875MOL0     C15378   2.327   2.603   3.086  0.4019 -0.0316 -0.5289
  875MOL0     C15379   2.194   2.594   2.988  0.3525  0.4582  0.4012
  875MOL0     C15380   2.080   2.685   3.044  0.6090 -0.0982  0.5086
  875MOL0     C15381   1.951   2.674   2.975  0.0349  0.0485 -0.0331
  875MOL0     C15382   1.935   2.694   2.821 -1.5325  0.5233  0.1595
  875MOL0     C15383   1.853   2.830   2.786  0.3820  0.3238  0.4066
  875MOL0     C15384   1.930   2.904   2.675 -0.0618 -0.2428 -0.0747
  875MOL0     N15385   1.849   3.010   2.621  0.1878 -0.4437 -0.1189
  875MOL0     C15386   1.835   3.132   2.685  0.0501  0.1764 -1.0783
  875MOL0     C15387   1.720   3.197   2.634  0.2082  0.3997 -0.8520
  875MOL0     C15388   1.661   3.323   2.693  0.8584 -0.2804 -0.4414
  875MOL0     C15389   1.517   3.296   2.742  0.4442 -0.4223 -0.6553
  875MOL0     C15390   1.440   3.427   2.771  0.4642 -0.2867  0.4389
  875MOL0     C15391   1.289   3.405   2.803 -0.8296  0.1912  0.6006
  875MOL0     O15392   1.288   3.323   2.917  0.2131  0.6551 -0.3671
  875MOL0     C15393   1.173   3.274   2.963  0.0450  0.4842  0.4551
  875MOL0     C15394   1.057   3.289   2.887 -0.2353  0.1288 -0.1525
  875MOL0     C15395   0.941   3.258   2.946 -0.4790 -0.1409 -0.1741
  875MOL0     C15396   0.935   3.203   3.077 -0.0054 -0.1067 -0.1086
  875MOL0     C15397   0.806   3.174   3.146 -0.4672  0.1148 -0.0042
  875MOL0     O15398   0.689   3.191   3.074 -0.5872 -0.3016  0.3517
  875MOL0     C15399   0.573   3.160   3.141  0.8117 -0.2198  0.0417
  875MOL0     C15400   0.540   3.180   3.274 -1.1193 -0.2078 -0.3708
  875MOL0     C15401   0.415   3.169   3.326 -0.6132 -0.1461  0.3252
  875MOL0     C15402   0.309   3.134   3.244  0.4342 -0.3514  0.2577
  875MOL0     O15403   0.180   3.144   3.299  0.7263 -0.1241 -0.0094
  875MOL0     C15404   0.149   3.028   3.378  0.4833 -1.0151  0.2472
  875MOL0     C15405   0.033   3.081   3.473  0.6229  0.3570 -0.1378
  875MOL0     C15406  -0.101   3.101   3.387 -0.4510  0.8497  0.0032
  875MOL0     C15407  -0.205   3.127   3.493  0.4905 -0.3690  1.0081
  875MOL0     C15408  -0.349   3.154   3.442 -0.2084  0.7316  0.4715
  875MOL0     C15409  -0.449   3.145   3.558 -0.1048  0.1731 -0.3306
  875MOL0     C15410  -0.594   3.171   3.515 -0.1075 -0.1902  1.2163
  875MOL0     C15411  -0.685   3.141   3.633 -0.2769 -0.1181 -0.3618
  875MOL0    Cl15412  -0.750   2.974   3.612 -0.2338 -0.0052 -0.0976
  875MOL0     C15413   0.335   3.115   3.110 -0.0580  0.4421 -0.3325
  875MOL0     C15414   0.465   3.118   3.054 -0.4735  0.5529  0.1806
  875MOL0     O15415   0.805   3.140   3.260 -0.3872 -0.0907  0.4420
  875MOL0     C15416   1.055   3.172   3.137  0.7327 -0.7288  0.4252
  875MOL0     C15417   1.175   3.213   3.077  0.5823  0.7280 -1.3026
  875MOL0     N15418   1.669   3.112   2.538 -0.1672  0.2305  0.4222
  875MOL0     N15419   1.744   3.004   2.528 -0.0192  0.4010  0.0272
  875MOL0     C15420   2.692   2.451   2.916 -0.6507 -0.3870 -0.4708
  875MOL0     C15421   2.808   2.401   2.858  0.5486  0.5585  0.0835
  875MOL0     C15422   3.120   2.185   2.672  0.0618  0.2132  0.0608
  875MOL0     C15423   3.240   2.154   2.741  0.1832  0.2118 -0.8055
  875MOL0     C15424   3.319   2.044   2.698 -0.5761  0.3775 -0.1485
  875MOL0     C15425   3.290   1.964   2.588  0.6795 -0.7697 -1.2100
  875MOL0     O15426   3.359   1.861   2.548 -0.3000 -0.2508  0.4260
  875MOL0     C15427   3.344   1.745   2.625  0.1688 -0.4723 -0.6281
  875MOL0     C15428   3.297   1.642   2.519 -0.2535 -0.5127 -0.2018
  875MOL0     C15429   3.280   1.498   2.581 -0.6333 -0.2930  0.0898
  875MOL0     C15430   3.156   1.481   2.674 -0.1613  0.2517 -0.3849
  875MOL0     C15431   3.026   1.498   2.605  0.0463 -0.7067 -0.7785
  875MOL0     C15432   2.916   1.507   2.561 -0.0910  0.0671  0.1461
  875MOL0     C15433   3.176   1.990   2.519 -0.7290 -0.1557 -0.0955
  875MOL0     C15434   3.085   2.092   2.564  0.4589  0.5106 -0.0339
  875MOL0     H15435   2.664   2.331   2.558  2.5119  0.7720 -0.6533
  875MOL0     H15436   2.468   2.429   2.672  0.1241  2.2067  0.6373
  875MOL0     H15437   2.534   2.548   3.108  0.9187 -1.4996 -0.7986
  875MOL0     H15438   2.430   2.415   3.077  1.3287 -0.3471  0.1545
  875MOL0     H15439   2.366   2.704   3.076 -0.8545  0.2669 -3.7748
  875MOL0     H15440   2.304   2.574   3.189  2.0812 -2.2719 -0.6916
  875MOL0     H15441   2.165   2.488   2.989  3.1178 -0.5094  4.8200
  875MOL0     H15442   2.217   2.623   2.885  0.1366  1.5888  0.6634
  875MOL0     H15443   2.068   2.666   3.151  0.2958  2.5501  1.0023
  875MOL0     H15444   2.103   2.792   3.040 -2.2060  0.5887  0.1850
  875MOL0     H15445   1.889   2.747   3.028 -0.8342  0.1873 -1.2144
  875MOL0     H15446   1.913   2.574   2.999  0.9907 -0.5243 -0.8537
  875MOL0     H15447   1.880   2.614   2.771 -2.0391  0.1225  1.3217
  875MOL0     H15448   2.032   2.701   2.771 -2.3334 -0.5078 -1.6586
  875MOL0     H15449   1.753   2.796   2.756  0.8287 -0.3126 -0.4135
  875MOL0     H15450   1.843   2.891   2.876  1.0947  2.3595 -0.8279
  875MOL0     H15451   1.959   2.831   2.599  0.9924  1.1320 -1.0572
  875MOL0     H15452   2.020   2.943   2.723 -0.9110  1.0567  0.5193
  875MOL0     H15453   1.896   3.163   2.769  0.1281  0.6052 -1.2921
  875MOL0     H15454   1.652   3.399   2.614 -0.4866 -0.4697 -0.5041
  875MOL0     H15455   1.714   3.364   2.779  0.5603 -1.5547  0.3742
  875MOL0     H15456   1.529   3.254   2.843  0.7988  2.0121  0.3864
  875MOL0     H15457   1.480   3.236   2.659  0.5707 -0.7154 -0.5012
  875MOL0     H15458   1.466   3.490   2.857  0.1062 -0.1438  0.4454
  875MOL0     H15459   1.456   3.496   2.688  1.0147  0.4016  1.0950
  875MOL0     H15460   1.243   3.351   2.720 -0.6184 -1.5713  1.5720
  875MOL0     H15461   1.241   3.502   2.819 -1.1125  0.0899  0.3832
  875MOL0     H15462   1.050   3.347   2.796  1.2785 -1.0738 -1.0724
  875MOL0     H15463   0.847   3.273   2.893 -1.8068 -1.3776  1.6853
  875MOL0     H15464   0.615   3.224   3.339 -0.8133  0.3682 -1.1018
  875MOL0     H15465   0.394   3.195   3.429 -0.4099 -2.3322  0.9794
  875MOL0     H15466   0.232   3.007   3.447  2.9538  2.1987 -1.4360
  875MOL0     H15467   0.129   2.943   3.312  3.7271 -0.3177 -1.8553
  875MOL0     H15468   0.063   3.177   3.516  1.3708  0.2440 -0.3874
  875MOL0     H15469   0.020   3.011   3.556  1.4248 -1.0771 -1.1836
  875MOL0     H15470  -0.139   3.013   3.334 -0.7219  0.8847  0.1393
  875MOL0     H15471  -0.088   3.180   3.313 -1.4808  0.1921 -0.9186
  875MOL0     H15472  -0.202   3.038   3.557 -0.5943  0.5966  2.4788
  875MOL0     H15473  -0.173   3.213   3.553 -0.4697 -0.3409  1.5048
  875MOL0     H15474  -0.373   3.085   3.361  1.7265 -1.2418  1.4850
  875MOL0     H15475  -0.359   3.254   3.398 -2.0144 -0.1582 -1.3053
  875MOL0     H15476  -0.419   3.209   3.641  0.5614  2.0504 -1.9579
  875MOL0     H15477  -0.441   3.039   3.584  2.0488 -0.0639 -1.6721
  875MOL0     H15478  -0.604   3.269   3.467  0.9402  0.2781  1.9210
  875MOL0     H15479  -0.622   3.097   3.439  2.8386  0.5640 -0.7661
  875MOL0     H15480  -0.770   3.209   3.631 -1.5519 -1.6208  0.3456
  875MOL0     H15481  -0.640   3.151   3.732  1.3956  1.1790 -1.2000
  875MOL0     H15482   0.253   3.109   3.039 -0.7259 -3.4586  0.5279
  875MOL0     H15483   0.482   3.099   2.948  0.1042  1.2063  0.1499
  875MOL0     H15484   1.058   3.118   3.231  1.3521  2.7876  2.5710
  875MOL0     H15485   1.259   3.207   3.146 -3.1562 -0.4127  3.7673
  875MOL0     H15486   2.713   2.508   3.006 -4.1590  0.9918 -0.3879
  875MOL0     H15487   2.890   2.401   2.929 -2.0677  2.1493  3.3445
  875MOL0     H15488   3.264   2.209   2.832 -2.0963 -0.9897  0.6158
  875MOL0     H15489   3.394   2.022   2.774 -2.7096  0.4502  2.1257
  875MOL0     H15490   3.266   1.748   2.701 -0.6218  0.4466 -1.4440
  875MOL0     H15491   3.444   1.726   2.666 -0.2135  1.4597  1.3655
  875MOL0     H15492   3.202   1.678   2.478  0.7128  1.3808 -0.8832
  875MOL0     H15493   3.364   1.640   2.432 -0.6028 -0.5656 -0.4749
  875MOL0     H15494   3.369   1.471   2.637  0.1227 -2.1500 -1.8748
  875MOL0     H15495   3.282   1.427   2.497  0.4178  2.6602 -2.5697
  875MOL0     H15496   3.147   1.385   2.727 -1.7536 -0.0099 -1.0577
  875MOL0     H15497   3.166   1.559   2.750 -0.0878 -0.1286  0.0027
  875MOL0     H15498   2.818   1.512   2.516 -2.2042 -2.4173  3.9539
  875MOL0     H15499   3.168   1.934   2.426  3.0923 -2.6977  0.9041
  875MOL0     H15500   2.997   2.094   2.501  0.3316  1.2479  0.1586
  876MOL0     O15501   8.158   7.451   1.600  0.3674 -0.0652 -0.1719
  876MOL0     C15502   8.225   7.459   1.499 -1.2169  0.0396  0.6281
  876MOL0     O15503   8.185   7.467   1.371 -0.2429  0.6890 -0.5801
  876MOL0     C15504   8.050   7.456   1.352  1.1974  1.1325 -0.5704
  876MOL0     C15505   7.951   7.526   1.417 -0.0315  0.3414  0.0121
  876MOL0     C15506   7.816   7.508   1.371 -0.2899 -0.0848 -0.4956
  876MOL0     C15507   7.784   7.423   1.264 -0.0834 -0.3195 -0.1177
  876MOL0     O15508   7.661   7.398   1.216 -0.3585 -0.6559 -0.5963
  876MOL0     C15509   7.548   7.483   1.259  0.6967  0.2656 -0.4408
  876MOL0     C15510   7.434   7.466   1.163  0.0500 -0.0961 -0.3527
  876MOL0     C15511   7.326   7.565   1.181  0.1674 -0.4097  0.4562
  876MOL0     C15512   7.263   7.573   1.322 -0.6285  0.3809  0.6117
  876MOL0     C15513   7.144   7.666   1.339 -0.3881  0.2485  0.3541
  876MOL0     C15514   7.101   7.658   1.485 -0.0625  0.3248  0.0361
  876MOL0     C15515   6.971   7.741   1.509 -0.0888  0.3710 -0.0583
  876MOL0     C15516   6.932   7.742   1.657 -0.2736 -0.3654 -0.6904
  876MOL0     N15517   6.798   7.800   1.664 -0.1756  1.0961 -1.0687
  876MOL0     C15518   6.768   7.914   1.724 -0.9851 -0.4230  0.3816
  876MOL0     C15519   6.636   7.920   1.729 -0.1538 -0.1417  0.0174
  876MOL0     C15520   6.550   8.025   1.791  0.3350 -0.2132  1.1237
  876MOL0     C15521   6.597   8.066   1.925  0.1709  0.5921  0.2451
  876MOL0     C15522   6.508   8.176   1.978  0.5438 -0.6849 -0.3195
  876MOL0     C15523   6.356   8.135   1.988  0.5495 -1.5092 -0.1635
  876MOL0     O15524   6.282   8.233   2.062 -0.2927  0.1499 -0.4258
  876MOL0     C15525   6.147   8.214   2.085  0.5845  0.8397 -0.4919
  876MOL0     C15526   6.091   8.268   2.202 -0.6217  0.4224  0.3436
  876MOL0     C15527   5.959   8.236   2.241 -0.3909 -0.1121 -1.2497
  876MOL0     C15528   5.885   8.154   2.160  0.2791 -0.2609 -0.2767
  876MOL0     C15529   5.740   8.135   2.200 -0.9152  0.4601  0.1127
  876MOL0     O15530   5.702   8.188   2.318 -0.4495  0.4854  0.7387
  876MOL0     C15531   5.573   8.177   2.366  0.6694  0.2560 -0.7132
  876MOL0     C15532   5.509   8.288   2.420 -0.1297  0.3634 -0.6619
  876MOL0     C15533   5.377   8.296   2.465 -0.1481 -0.5698 -0.0417
  876MOL0     C15534   5.290   8.186   2.453 -0.8656  0.2597  0.6079
  876MOL0     O15535   5.165   8.171   2.487 -0.8151  0.7132 -0.6199
  876MOL0     C15536   5.119   8.208   2.612  0.6780 -0.3538  0.3616
  876MOL0     C15537   4.977   8.164   2.633 -0.6261  0.0142  0.8579
  876MOL0     C15538   4.880   8.236   2.539  0.1439 -0.0743 -0.8240
  876MOL0     C15539   4.748   8.182   2.591  0.4884  0.9050 -0.2660
  876MOL0     C15540   4.633   8.246   2.515  0.2892 -0.5949  0.3222
  876MOL0     C15541   4.490   8.199   2.547 -0.1367  1.0741  0.8809
  876MOL0     C15542   4.385   8.257   2.449  0.4429 -0.2710  0.8070
  876MOL0     C15543   4.359   8.404   2.476  0.6398  0.4941  0.3006
  876MOL0    Cl15544   4.249   8.457   2.351  0.0336  0.0239  0.4017
  876MOL0     C15545   5.355   8.069   2.393 -0.5589  0.9217 -0.4660
  876MOL0     C15546   5.486   8.065   2.349 -0.5910 -0.3814 -0.6368
  876MOL0     O15547   5.670   8.073   2.125 -0.2966  0.5438  0.4250
  876MOL0     C15548   5.932   8.103   2.045 -0.1413  0.2615  0.2725
  876MOL0     C15549   6.065   8.130   2.006 -0.6157  0.1737  0.7965
  876MOL0     N15550   6.580   7.809   1.673 -0.0433 -0.6510 -0.4736
  876MOL0     N15551   6.674   7.736   1.639 -0.2141 -1.2682 -0.3485
  876MOL0     C15552   7.893   7.358   1.211 -0.2292  0.6376 -0.1580
  876MOL0     C15553   8.028   7.367   1.248 -1.0870  0.1259 -0.1659
  876MOL0     C15554   8.373   7.470   1.511 -0.1545  0.5572 -0.9241
  876MOL0     C15555   8.452   7.502   1.399 -0.3375  0.7877 -0.1569
  876MOL0     C15556   8.587   7.514   1.416  0.2850 -0.0365 -0.4296
  876MOL0     C15557   8.656   7.494   1.535 -0.0103  0.5289 -0.4755
  876MOL0     O15558   8.793   7.507   1.571 -0.1334 -0.1057 -0.4209
  876MOL0     C15559   8.870   7.602   1.499  0.4109 -0.3683  0.8633
  876MOL0     C15560   8.959   7.538   1.400  0.0566  0.3032  0.2405
  876MOL0     C15561   9.053   7.438   1.480 -0.3917 -0.3970  0.0704
  876MOL0     C15562   9.168   7.374   1.402 -0.4571  0.1228 -0.3569
  876MOL0     C15563   9.303   7.434   1.410 -0.3124 -0.4528  0.0158
  876MOL0     C15564   9.406   7.492   1.418  0.2078  0.5158 -0.0736
  876MOL0     C15565   8.571   7.453   1.648 -0.3968  0.2338  0.0253
  876MOL0     C15566   8.432   7.441   1.635  0.5897  0.2269 -0.4275
  876MOL0     H15567   7.969   7.595   1.499  2.8230 -0.3697  0.0996
  876MOL0     H15568   7.736   7.557   1.425  0.2798  0.3313 -0.0086
  876MOL0     H15569   7.587   7.585   1.262 -1.3634  1.0707  0.2661
  876MOL0     H15570   7.509   7.457   1.357  0.2421  1.5807 -0.2617
  876MOL0     H15571   7.397   7.364   1.176  0.9250 -0.3048  0.5967
  876MOL0     H15572   7.471   7.473   1.060 -1.2547  2.2801 -0.7372
  876MOL0     H15573   7.246   7.537   1.112 -2.6952  2.1808  2.4232
  876MOL0     H15574   7.366   7.663   1.152 -1.2051  0.2518  0.6832
  876MOL0     H15575   7.238   7.469   1.346  3.3277 -1.1958 -1.1355
  876MOL0     H15576   7.349   7.595   1.387 -0.1610  1.2774 -0.2845
  876MOL0     H15577   7.069   7.627   1.269  0.7545 -0.7670 -0.3562
  876MOL0     H15578   7.176   7.767   1.314 -0.0001 -0.0035 -0.2013
  876MOL0     H15579   7.181   7.692   1.551  0.6790 -0.3001 -0.5345
  876MOL0     H15580   7.068   7.559   1.515 -1.5411  1.4514  2.3932
  876MOL0     H15581   6.978   7.845   1.477 -1.1997  0.5901  0.3568
  876MOL0     H15582   6.891   7.697   1.448  0.8517  0.3829 -1.3344
  876MOL0     H15583   7.010   7.810   1.691 -0.3302 -1.2619  1.3384
  876MOL0     H15584   6.944   7.647   1.709 -0.0118  0.2735  0.4504
  876MOL0     H15585   6.844   7.979   1.766  0.6934 -1.2421 -1.2440
  876MOL0     H15586   6.447   7.989   1.794 -0.4761  1.9072  0.6728
  876MOL0     H15587   6.545   8.110   1.723  0.7312 -1.3504 -0.3775
  876MOL0     H15588   6.700   8.102   1.921 -0.2260  2.3550  2.9245
  876MOL0     H15589   6.587   7.980   1.991 -5.0083  0.5509 -0.1863
  876MOL0     H15590   6.549   8.196   2.077  1.3397 -1.5470 -0.4609
  876MOL0     H15591   6.523   8.267   1.919 -0.1472  1.2390  2.2891
  876MOL0     H15592   6.347   8.045   2.050 -1.7685 -1.5379 -0.4667
  876MOL0     H15593   6.308   8.118   1.892 -1.2319 -0.5942  0.5179
  876MOL0     H15594   6.157   8.338   2.253  1.0372 -2.2030  2.0350
  876MOL0     H15595   5.922   8.273   2.336  0.1236  0.0175 -1.0942
  876MOL0     H15596   5.573   8.375   2.429 -1.6522  1.5921 -1.2877
  876MOL0     H15597   5.338   8.392   2.496  1.4193  0.4253 -0.9914
  876MOL0     H15598   5.123   8.316   2.629 -1.1558 -0.0683 -0.7903
  876MOL0     H15599   5.179   8.156   2.687 -2.3462 -1.6022  2.1351
  876MOL0     H15600   4.952   8.177   2.738  2.0585  1.2918  1.4421
  876MOL0     H15601   4.981   8.057   2.608  2.2464  0.8087 -3.1858
  876MOL0     H15602   4.880   8.203   2.435 -0.7965  1.3232 -1.3077
  876MOL0     H15603   4.888   8.345   2.543 -0.3738 -0.0747  1.1793
  876MOL0     H15604   4.742   8.074   2.576  0.7999  1.1123 -2.0803
  876MOL0     H15605   4.746   8.211   2.697  1.2471  0.7764 -0.2140
  876MOL0     H15606   4.652   8.231   2.408  2.4484 -0.7123  0.6705
  876MOL0     H15607   4.639   8.353   2.537 -2.2606  0.1079 -1.8352
  876MOL0     H15608   4.456   8.207   2.651 -1.9085 -1.8593  0.6352
  876MOL0     H15609   4.477   8.095   2.517 -4.0586  1.4084  0.8698
  876MOL0     H15610   4.426   8.250   2.348  0.7871  0.6457  0.8705
  876MOL0     H15611   4.292   8.200   2.452  0.5176 -0.5792 -1.4545
  876MOL0     H15612   4.456   8.450   2.457  1.4948 -0.4293  2.2115
  876MOL0     H15613   4.321   8.421   2.577  1.8917  1.1717  0.6673
  876MOL0     H15614   5.307   7.972   2.381  1.7569 -0.0228 -3.1842
  876MOL0     H15615   5.529   7.978   2.300  3.4738  0.8753  0.3318
  876MOL0     H15616   5.880   8.027   1.987  0.1765  1.0666 -1.1138
  876MOL0     H15617   6.104   8.074   1.922 -1.1712  2.3840 -1.0173
  876MOL0     H15618   7.861   7.293   1.130 -0.2711  0.9146 -0.3645
  876MOL0     H15619   8.103   7.317   1.188 -0.3849 -1.0196  1.6129
  876MOL0     H15620   8.415   7.514   1.298 -2.3428 -3.5945 -0.1761
  876MOL0     H15621   8.653   7.557   1.340  3.8775 -1.6666  1.5040
  876MOL0     H15622   8.942   7.657   1.560  0.6674 -1.0141  1.1441
  876MOL0     H15623   8.806   7.677   1.450  1.0632  0.0087  0.5693
  876MOL0     H15624   8.901   7.493   1.319  1.4517 -0.4136 -0.4039
  876MOL0     H15625   9.022   7.620   1.363 -1.2574  1.5228  0.6171
  876MOL0     H15626   9.004   7.346   1.514  2.5317 -2.2843 -0.4822
  876MOL0     H15627   9.090   7.486   1.570  1.8508 -2.2455  0.2419
  876MOL0     H15628   9.169   7.265   1.411  0.3709  0.2888  2.3071
  876MOL0     H15629   9.137   7.374   1.297  0.8822  0.2539 -0.7712
  876MOL0     H15630   9.505   7.529   1.437  0.1569  0.1287  1.0319
  876MOL0     H15631   8.611   7.423   1.744 -0.7212 -1.8543 -0.4375
  876MOL0     H15632   8.378   7.407   1.722  2.5631 -0.9503  0.4085
  877MOL0     O15633   4.426   2.962   3.214 -0.3823 -0.2071  0.8957
  877MOL0     C15634   4.384   3.049   3.283 -0.8429  0.6650 -0.0944
  877MOL0     O15635   4.456   3.150   3.349 -0.0239  0.5988  0.0566
  877MOL0     C15636   4.584   3.174   3.301 -0.1954  0.4654  0.0234
  877MOL0     C15637   4.596   3.277   3.206  0.4798 -0.4143 -0.7132
  877MOL0     C15638   4.719   3.283   3.141  0.9963  0.6710  0.2697
  877MOL0     C15639   4.836   3.221   3.184 -0.6941 -0.5064 -1.2292
  877MOL0     O15640   4.947   3.252   3.117  0.1046 -0.2288 -0.1202
  877MOL0     C15641   5.072   3.277   3.189  0.6197 -0.3076  0.3694
  877MOL0     C15642   5.152   3.386   3.121  0.3197 -0.1469  0.1759
  877MOL0     C15643   5.269   3.407   3.208 -0.3590 -0.8607  0.6862
  877MOL0     C15644   5.388   3.443   3.133 -0.2541  0.2176 -0.3022
  877MOL0     C15645   5.517   3.442   3.220  0.4943 -0.9253 -0.7597
  877MOL0     C15646   5.634   3.488   3.153  0.3461 -0.2564 -0.2319
  877MOL0     C15647   5.762   3.486   3.236  0.3315  0.2718  0.3413
  877MOL0     C15648   5.787   3.359   3.318 -0.2088 -0.1450 -0.1715
  877MOL0     N15649   5.916   3.365   3.387  0.0666  0.1098  0.3040
  877MOL0     C15650   6.045   3.352   3.330 -0.3772  0.3504 -0.0932
  877MOL0     C15651   6.126   3.373   3.440  0.5485  0.3383  0.9733
  877MOL0     C15652   6.271   3.369   3.453  0.0403 -0.2629 -0.0166
  877MOL0     C15653   6.340   3.234   3.465 -0.7123 -0.4456  0.0284
  877MOL0     C15654   6.331   3.196   3.610 -0.5460  0.1338 -0.8587
  877MOL0     C15655   6.416   3.069   3.642 -0.1049 -0.3858  0.3445
  877MOL0     O15656   6.376   3.015   3.769 -0.3457  0.1894  0.0855
  877MOL0     C15657   6.459   3.039   3.876  0.4629  0.0559  0.1757
  877MOL0     C15658   6.589   3.082   3.867  0.3519 -0.3540 -0.0349
  877MOL0     C15659   6.665   3.103   3.981  0.8492 -0.4304  0.1249
  877MOL0     C15660   6.614   3.107   4.111  1.6076  0.4596 -0.5349
  877MOL0     C15661   6.691   3.149   4.225  0.1295 -1.5297 -0.2500
  877MOL0     O15662   6.813   3.206   4.201 -0.0842  0.4199 -0.0029
  877MOL0     C15663   6.865   3.263   4.309 -0.6839 -0.5613 -0.9744
  877MOL0     C15664   6.832   3.400   4.320  0.1221  1.0733 -0.1905
  877MOL0     C15665   6.874   3.476   4.433 -0.5031 -0.3777  0.4282
  877MOL0     C15666   6.961   3.417   4.532 -0.3247  0.0248 -0.3095
  877MOL0     O15667   6.996   3.507   4.625 -0.1381 -0.2003 -0.6984
  877MOL0     C15668   7.038   3.467   4.759  0.5192 -0.1846  0.4305
  877MOL0     C15669   7.091   3.583   4.841 -0.2524 -0.2221  0.2910
  877MOL0     C15670   7.125   3.543   4.977  0.0185  0.3684 -0.5414
  877MOL0     C15671   6.997   3.546   5.056  0.8301 -0.1616 -0.1206
  877MOL0     C15672   7.018   3.482   5.202 -0.0215 -0.2150  0.3749
  877MOL0     C15673   7.111   3.561   5.284 -0.5026  0.4269 -0.6728
  877MOL0     C15674   7.157   3.498   5.418 -1.0068  1.0578  0.4555
  877MOL0     C15675   7.233   3.603   5.497  0.3000 -1.0309  0.2338
  877MOL0    Cl15676   7.395   3.639   5.426 -0.1928  0.1098  0.1713
  877MOL0     C15677   6.995   3.282   4.520 -0.8321  0.8449  0.5800
  877MOL0     C15678   6.937   3.203   4.415 -0.2302  0.3742  0.0978
  877MOL0     O15679   6.635   3.137   4.338 -0.4138  0.5025  0.5747
  877MOL0     C15680   6.476   3.071   4.121  0.5746 -0.4585 -0.0149
  877MOL0     C15681   6.406   3.030   4.012  0.4079  0.1485  0.0662
  877MOL0     N15682   6.043   3.404   3.548 -0.2239  0.1077 -0.1750
  877MOL0     N15683   5.920   3.388   3.518  0.1140  0.6931  0.0638
  877MOL0     C15684   4.826   3.115   3.266  0.2096  0.5342 -0.8205
  877MOL0     C15685   4.701   3.093   3.320 -0.3668  0.0554  0.5504
  877MOL0     C15686   4.240   3.063   3.285  0.6582  0.2443  0.2747
  877MOL0     C15687   4.177   3.183   3.333  0.3206 -0.0228  0.6778
  877MOL0     C15688   4.035   3.193   3.338 -0.1126  0.1591 -0.0318
  877MOL0     C15689   3.952   3.084   3.300 -0.1887 -0.0175 -0.1239
  877MOL0     O15690   3.813   3.086   3.304 -0.6909  0.0518 -0.3139
  877MOL0     C15691   3.745   3.210   3.347 -0.6930  0.0759  0.0753
  877MOL0     C15692   3.595   3.178   3.374 -0.0877 -0.7997  0.2266
  877MOL0     C15693   3.525   3.142   3.243  0.1311 -0.8666  0.2860
  877MOL0     C15694   3.370   3.143   3.252 -0.3486 -0.0015  1.0040
  877MOL0     C15695   3.312   3.059   3.149  0.4771  0.2384 -0.1978
  877MOL0     C15696   3.276   2.998   3.053 -0.0268  0.1331  0.5199
  877MOL0     C15697   4.010   2.970   3.245  0.2184  0.3381  0.1607
  877MOL0     C15698   4.152   2.950   3.243  0.1999 -0.9002 -0.7370
  877MOL0     H15699   4.504   3.330   3.179  1.5911  1.2815 -1.3495
  877MOL0     H15700   4.719   3.363   3.068 -0.7220  0.0331 -0.4901
  877MOL0     H15701   5.114   3.176   3.181 -1.2813 -0.9766 -2.9521
  877MOL0     H15702   5.046   3.303   3.292 -3.8971 -0.7614 -0.4338
  877MOL0     H15703   5.095   3.478   3.111 -1.6675 -1.3210  0.0939
  877MOL0     H15704   5.188   3.348   3.024  0.7443 -1.6828  0.9009
  877MOL0     H15705   5.295   3.312   3.255 -1.1549 -1.5679 -0.2648
  877MOL0     H15706   5.247   3.481   3.285  1.4320  1.5927 -1.0018
  877MOL0     H15707   5.413   3.378   3.050  2.0842  0.6648 -0.0244
  877MOL0     H15708   5.369   3.539   3.083 -1.9553 -0.1161 -0.3244
  877MOL0     H15709   5.532   3.338   3.250 -1.7177 -0.4569  2.3668
  877MOL0     H15710   5.506   3.497   3.313 -1.4552 -2.8992  0.2694
  877MOL0     H15711   5.618   3.591   3.122 -1.1557 -0.6190 -0.7790
  877MOL0     H15712   5.636   3.421   3.067 -3.3619 -3.2422  1.6891
  877MOL0     H15713   5.848   3.503   3.170  1.0963 -1.4983  0.8308
  877MOL0     H15714   5.760   3.562   3.315 -1.4210  1.8616 -1.1157
  877MOL0     H15715   5.793   3.275   3.247 -2.0263  0.2128 -0.7841
  877MOL0     H15716   5.710   3.339   3.392  0.0729 -3.3209 -0.5811
  877MOL0     H15717   6.075   3.334   3.227  1.4987 -0.8307  0.6022
  877MOL0     H15718   6.291   3.427   3.543 -0.2564  1.5806 -1.0920
  877MOL0     H15719   6.322   3.423   3.373  0.6949  1.8706  1.7594
  877MOL0     H15720   6.444   3.242   3.432 -1.3523 -0.1502 -2.0702
  877MOL0     H15721   6.295   3.160   3.398  0.0203  0.7376 -1.8625
  877MOL0     H15722   6.375   3.271   3.676  0.6051 -0.8856 -0.4360
  877MOL0     H15723   6.224   3.188   3.632 -1.0263  4.6153 -0.5029
  877MOL0     H15724   6.519   3.093   3.614  0.1154 -1.9429 -0.3151
  877MOL0     H15725   6.396   2.984   3.576  1.3171 -0.5792  0.1347
  877MOL0     H15726   6.638   3.087   3.770  1.8206 -4.1415  0.3516
  877MOL0     H15727   6.767   3.138   3.968  0.4032 -0.1404 -4.2759
  877MOL0     H15728   6.774   3.449   4.241 -2.0067 -3.6925 -2.0033
  877MOL0     H15729   6.849   3.581   4.447 -0.3260 -0.3730  0.7385
  877MOL0     H15730   7.116   3.390   4.759  0.3611 -0.4259 -2.0528
  877MOL0     H15731   6.950   3.422   4.807 -0.1282 -3.8688 -3.5460
  877MOL0     H15732   7.010   3.656   4.849 -1.3028 -1.2247 -0.7501
  877MOL0     H15733   7.183   3.626   4.801 -1.0695  0.0332 -1.4013
  877MOL0     H15734   7.188   3.616   5.030 -0.1014 -0.4684  0.8208
  877MOL0     H15735   7.169   3.443   4.977 -2.9438 -1.1150  2.2419
  877MOL0     H15736   6.961   3.648   5.072 -0.0915 -0.7889  2.1864
  877MOL0     H15737   6.914   3.505   4.997  1.3455  0.4038 -1.2658
  877MOL0     H15738   7.043   3.376   5.203  3.4124  0.4666 -0.1881
  877MOL0     H15739   6.921   3.500   5.251 -1.9132  1.7371 -3.5594
  877MOL0     H15740   7.056   3.649   5.317 -1.3654  1.1703 -3.7501
  877MOL0     H15741   7.198   3.600   5.231 -1.2470  1.4485 -1.1740
  877MOL0     H15742   7.066   3.472   5.473 -2.1678 -1.1788 -2.2733
  877MOL0     H15743   7.229   3.420   5.389  0.5374  1.7522  2.2336
  877MOL0     H15744   7.261   3.581   5.600  3.3053  2.1393  0.2714
  877MOL0     H15745   7.176   3.695   5.511  1.7483  0.0314 -0.5350
  877MOL0     H15746   7.046   3.237   4.604  1.8739 -1.4468 -2.0265
  877MOL0     H15747   6.951   3.096   4.421 -0.9450  0.2946  0.4406
  877MOL0     H15748   6.422   3.073   4.215 -0.3461 -1.9129 -0.4786
  877MOL0     H15749   6.308   2.987   4.029 -0.2731  1.3768 -0.6818
  877MOL0     H15750   4.908   3.045   3.278  1.8953  1.4285 -5.1335
  877MOL0     H15751   4.674   3.004   3.375  3.6341 -0.6884  1.6345
  877MOL0     H15752   4.229   3.277   3.348 -1.8614  1.1414  1.2532
  877MOL0     H15753   3.987   3.286   3.369  1.0472  0.7723 -0.0160
  877MOL0     H15754   3.743   3.290   3.271 -2.3855  1.9547  1.9686
  877MOL0     H15755   3.791   3.246   3.440 -1.5416  0.6996  0.2724
  877MOL0     H15756   3.588   3.089   3.437  0.6675 -0.8016  0.3200
  877MOL0     H15757   3.558   3.269   3.422  2.0723  0.1385  0.2507
  877MOL0     H15758   3.560   3.048   3.200  1.1218  0.0005 -0.8683
  877MOL0     H15759   3.549   3.227   3.179 -3.1191  0.4679  0.6423
  877MOL0     H15760   3.330   3.100   3.345 -1.9679  2.0233  1.3087
  877MOL0     H15761   3.317   3.238   3.249 -2.8166 -1.3057 -0.9157
  877MOL0     H15762   3.234   2.949   2.967 -1.5843  3.9218 -1.0969
  877MOL0     H15763   3.936   2.906   3.199  1.0525  0.9175 -2.1390
  877MOL0     H15764   4.184   2.857   3.196  0.0639 -0.8775 -0.8749
  878MOL0     O15765   1.725   8.161  11.149 -0.5772  0.0474  0.6808
  878MOL0     C15766   1.765   8.130  11.037 -0.6928 -0.3019 -0.1144
  878MOL0     O15767   1.714   8.176  10.917  0.9840  0.3531  1.1760
  878MOL0     C15768   1.667   8.308  10.910 -0.5490 -0.1620 -0.0615
  878MOL0     C15769   1.721   8.418  10.837 -0.3537 -0.4500  0.6756
  878MOL0     C15770   1.661   8.547  10.835 -0.4672 -0.2923  0.0089
  878MOL0     C15771   1.539   8.565  10.897  0.5752  0.2992 -0.1655
  878MOL0     O15772   1.487   8.696  10.907  0.3200  0.0710  0.4512
  878MOL0     C15773   1.376   8.716  10.997 -0.6224 -0.0204  0.7705
  878MOL0     C15774   1.327   8.860  10.989  0.8558 -0.4082 -0.3132
  878MOL0     C15775   1.263   8.887  10.850 -0.6932 -0.3548 -0.0311
  878MOL0     C15776   1.191   9.024  10.854 -0.0139  0.6352 -0.1605
  878MOL0     C15777   1.300   9.139  10.844 -0.3493  0.6510 -0.6544
  878MOL0     C15778   1.264   9.283  10.876  0.0931  0.2941  0.0255
  878MOL0     C15779   1.141   9.340  10.809  0.5704 -0.3681  0.1418
  878MOL0     C15780   1.005   9.272  10.843  0.3055 -0.1390  0.5256
  878MOL0     N15781   0.884   9.366  10.840 -0.6268  0.1134 -0.8325
  878MOL0     C15782   0.777   9.359  10.754 -0.3553  0.5919  0.1717
  878MOL0     C15783   0.700   9.466  10.789  0.1639  0.0812 -0.2053
  878MOL0     C15784   0.578   9.518  10.721  0.0668 -0.2550  0.2691
  878MOL0     C15785   0.608   9.652  10.636 -0.6031 -0.0913 -0.2783
  878MOL0     C15786   0.530   9.658  10.502 -0.0844 -0.4036 -0.0193
  878MOL0     C15787   0.376   9.692  10.526 -0.4489 -0.5048 -0.8995
  878MOL0     O15788   0.318   9.688  10.399  0.1199 -0.5282  0.2610
  878MOL0     C15789   0.186   9.716  10.395  0.3993 -0.1040  0.2720
  878MOL0     C15790   0.112   9.767  10.509 -0.0523  0.0946 -0.5458
  878MOL0     C15791  -0.020   9.777  10.488 -0.2491  0.1339  0.8138
  878MOL0     C15792  -0.085   9.755  10.367  0.1231 -0.4193  0.5957
  878MOL0     C15793  -0.233   9.779  10.356  0.2641  0.1661  0.5835
  878MOL0     O15794  -0.298   9.803  10.478  0.2565 -0.6390 -0.9287
  878MOL0     C15795  -0.430   9.833  10.495  0.2222  0.4293 -0.1742
  878MOL0     C15796  -0.464   9.931  10.590  1.2054 -0.3320 -0.4786
  878MOL0     C15797  -0.598   9.950  10.626 -1.1068 -0.0442 -0.3716
  878MOL0     C15798  -0.699   9.896  10.551 -1.2300 -0.3422 -0.1536
  878MOL0     O15799  -0.825   9.939  10.546 -0.0739 -0.5664 -0.3727
  878MOL0     C15800  -0.889   9.987  10.667 -0.6380  0.2119  1.0886
  878MOL0     C15801  -1.027  10.036  10.623  0.1512 -0.0521  0.1171
  878MOL0     C15802  -1.135   9.929  10.643  0.5757  0.6361 -0.1476
  878MOL0     C15803  -1.106   9.793  10.571 -0.0449 -0.0987  0.1330
  878MOL0     C15804  -1.238   9.724  10.528  0.2459 -0.1016  0.5628
  878MOL0     C15805  -1.318   9.654  10.653  0.3950 -0.0845 -0.7596
  878MOL0     C15806  -1.452   9.590  10.614 -0.1207 -0.2406 -0.4764
  878MOL0     C15807  -1.559   9.673  10.558  0.9474  0.7489 -0.1003
  878MOL0    Cl15808  -1.593   9.806  10.663  0.0223  0.0490 -0.0794
  878MOL0     C15809  -0.667   9.797  10.449  0.6918 -0.4662  0.9302
  878MOL0     C15810  -0.538   9.771  10.427 -0.4963  0.3932 -0.6635
  878MOL0     O15811  -0.292   9.772  10.245 -0.0269 -0.1621  0.3201
  878MOL0     C15812  -0.012   9.718  10.259 -0.2335  0.1858  0.6148
  878MOL0     C15813   0.124   9.698  10.266 -0.4437  0.0917 -1.0516
  878MOL0     N15814   0.754   9.528  10.901 -0.4548 -0.6034 -0.1963
  878MOL0     N15815   0.865   9.462  10.929 -0.2929 -0.6024  0.1210
  878MOL0     C15816   1.478   8.455  10.966  0.3166 -0.2947  0.0532
  878MOL0     C15817   1.543   8.328  10.967 -0.2733  0.7163  0.8911
  878MOL0     C15818   1.883   8.034  11.031 -0.2929 -0.8062 -0.5901
  878MOL0     C15819   1.936   7.981  10.911 -0.6237 -0.0511 -0.4678
  878MOL0     C15820   2.041   7.896  10.919  0.0316 -0.0841  0.3824
  878MOL0     C15821   2.097   7.853  11.042  0.9559 -0.4238 -0.1413
  878MOL0     O15822   2.206   7.770  11.059  0.3835  0.0443  0.1188
  878MOL0     C15823   2.275   7.730  10.939 -0.3288 -1.0522  1.0684
  878MOL0     C15824   2.391   7.635  10.955 -0.1553 -0.7257  0.9510
  878MOL0     C15825   2.436   7.608  10.811 -0.2652 -0.2369  0.4311
  878MOL0     C15826   2.546   7.508  10.816 -0.3473  0.7973  0.8335
  878MOL0     C15827   2.613   7.495  10.681 -0.3354  0.1258  0.5084
  878MOL0     C15828   2.669   7.475  10.577  1.4451 -0.8720  0.1510
  878MOL0     C15829   2.051   7.917  11.156  0.3871  0.6661  0.4433
  878MOL0     C15830   1.939   8.004  11.154  0.4979  1.0957 -0.2484
  878MOL0     H15831   1.813   8.400  10.782 -2.3479 -0.1367 -3.0932
  878MOL0     H15832   1.711   8.630  10.786 -1.4837  0.9278  0.9585
  878MOL0     H15833   1.396   8.689  11.101 -0.2213  1.1952  1.0348
  878MOL0     H15834   1.291   8.653  10.972 -1.2710  0.9927  0.3291
  878MOL0     H15835   1.409   8.930  11.004 -0.4699  0.8771  1.3014
  878MOL0     H15836   1.254   8.872  11.069 -0.8117 -0.4448 -1.7467
  878MOL0     H15837   1.197   8.803  10.827 -0.2081 -0.5483 -0.7448
  878MOL0     H15838   1.336   8.887  10.769  0.4677 -0.7261  0.9869
  878MOL0     H15839   1.128   9.029  10.766 -1.1169  0.3553  0.5940
  878MOL0     H15840   1.131   9.032  10.945 -0.8930 -2.1246 -0.4222
  878MOL0     H15841   1.344   9.140  10.744 -0.2793 -0.8292 -0.6651
  878MOL0     H15842   1.376   9.118  10.920 -2.8874  0.6296  2.0835
  878MOL0     H15843   1.350   9.343  10.847 -1.2497  1.7458 -1.1011
  878MOL0     H15844   1.255   9.298  10.984  0.4398 -1.7192  0.3811
  878MOL0     H15845   1.138   9.446  10.839 -2.8920 -0.8516  2.0504
  878MOL0     H15846   1.154   9.338  10.701 -0.1158  3.3849 -0.1421
  878MOL0     H15847   1.008   9.218  10.938 -1.7562 -2.1763 -0.4560
  878MOL0     H15848   0.993   9.198  10.763  1.0836  0.3940 -0.0953
  878MOL0     H15849   0.767   9.294  10.668 -0.5628  0.0757  0.5846
  878MOL0     H15850   0.503   9.540  10.798 -0.7337 -0.6341 -0.3833
  878MOL0     H15851   0.545   9.444  10.648 -2.3229  3.5631 -2.9938
  878MOL0     H15852   0.716   9.646  10.614 -0.8049  0.2357 -1.4477
  878MOL0     H15853   0.602   9.740  10.700  3.0720  0.3466 -0.2838
  878MOL0     H15854   0.575   9.736  10.442 -1.1670  1.5902  1.6080
  878MOL0     H15855   0.534   9.563  10.447 -1.2936 -0.3423 -0.2422
  878MOL0     H15856   0.367   9.795  10.563  1.7357  0.2070 -2.1448
  878MOL0     H15857   0.335   9.615  10.592  0.5647  0.8113  1.4203
  878MOL0     H15858   0.165   9.771  10.603 -2.5538  4.0134  0.9579
  878MOL0     H15859  -0.076   9.803  10.577 -2.7514  1.1392 -0.9385
  878MOL0     H15860  -0.385   9.982  10.644 -0.8105  0.7768  1.6401
  878MOL0     H15861  -0.616  10.014  10.712 -1.4818  1.7682 -1.7328
  878MOL0     H15862  -0.838  10.078  10.699 -1.6812  1.1556  0.1335
  878MOL0     H15863  -0.908   9.930  10.758 -1.9991 -3.2377 -1.1477
  878MOL0     H15864  -1.029  10.068  10.518  0.3280  3.0094  0.9648
  878MOL0     H15865  -1.042  10.132  10.672 -0.8570  0.4698 -1.1382
  878MOL0     H15866  -1.221   9.974  10.592  0.8682  0.0091 -1.2101
  878MOL0     H15867  -1.156   9.914  10.749  3.0191  3.3804  0.8702
  878MOL0     H15868  -1.046   9.813  10.482 -0.6290  0.3285 -0.1697
  878MOL0     H15869  -1.046   9.732  10.639  0.6824  0.8383  0.3490
  878MOL0     H15870  -1.214   9.644  10.457 -0.4587 -0.3781  0.6241
  878MOL0     H15871  -1.312   9.786  10.477  1.3339  0.7629  0.0138
  878MOL0     H15872  -1.328   9.726  10.734  0.4774 -1.6040  0.6312
  878MOL0     H15873  -1.253   9.575  10.690 -2.6034 -1.6051  1.6542
  878MOL0     H15874  -1.445   9.504  10.546  0.3395 -2.7139  2.5088
  878MOL0     H15875  -1.496   9.551  10.706 -1.0290 -0.6645 -1.0699
  878MOL0     H15876  -1.651   9.615  10.552  2.7981 -2.3289 -1.5541
  878MOL0     H15877  -1.549   9.710  10.455 -0.0603 -0.9655 -0.8749
  878MOL0     H15878  -0.749   9.759  10.389  1.4131 -0.6902  0.0809
  878MOL0     H15879  -0.502   9.704  10.349  0.3580  0.7865 -0.6186
  878MOL0     H15880  -0.058   9.695  10.163  0.6116  2.2321 -0.3488
  878MOL0     H15881   0.176   9.646  10.186  0.2309  0.5748 -0.9404
  878MOL0     H15882   1.383   8.454  11.018  0.7034  0.1716  0.7839
  878MOL0     H15883   1.485   8.252  11.020 -0.2388 -0.2748 -0.4416
  878MOL0     H15884   1.890   8.007  10.817 -5.3990  1.2722  1.9283
  878MOL0     H15885   2.087   7.860  10.828 -0.6566 -0.6729  0.2555
  878MOL0     H15886   2.314   7.822  10.896 -0.3216 -1.8253 -0.6609
  878MOL0     H15887   2.201   7.691  10.868 -1.0294  1.2507  0.4472
  878MOL0     H15888   2.475   7.674  11.014  1.2794  0.8169 -1.9031
  878MOL0     H15889   2.351   7.541  10.994  1.8672 -2.5502 -1.0605
  878MOL0     H15890   2.477   7.694  10.757 -0.3401 -2.8773 -4.4825
  878MOL0     H15891   2.350   7.583  10.747  1.6095 -0.5120 -2.1591
  878MOL0     H15892   2.620   7.535  10.891  1.5841  2.8212 -1.6209
  878MOL0     H15893   2.504   7.410  10.839 -0.6393  0.5818 -0.5427
  878MOL0     H15894   2.722   7.455  10.486  1.0001 -2.8289  0.2733
  878MOL0     H15895   2.088   7.881  11.251 -0.1907  0.9864  0.7949
  878MOL0     H15896   1.893   8.024  11.250 -1.8950  2.1350 -1.5037
  879MOL0     O15897   7.303   6.588   1.244  0.3570  0.6417 -0.2526
  879MOL0     C15898   7.355   6.573   1.354 -0.7927  0.4824  0.1138
  879MOL0     O15899   7.290   6.592   1.465 -0.7125 -0.5536 -0.5817
  879MOL0     C15900   7.160   6.636   1.482 -0.0057 -0.1381 -0.6310
  879MOL0     C15901   7.096   6.733   1.403 -0.0189 -0.7879 -0.5220
  879MOL0     C15902   6.970   6.779   1.446  0.5392 -0.4577 -0.3847
  879MOL0     C15903   6.903   6.730   1.557 -0.8087  0.3924  0.1326
  879MOL0     O15904   6.772   6.769   1.580  0.1354  0.0499 -0.2139
  879MOL0     C15905   6.680   6.764   1.475 -0.7920 -0.1138 -0.1438
  879MOL0     C15906   6.552   6.821   1.533  0.0208  0.0119 -0.2457
  879MOL0     C15907   6.564   6.974   1.564 -0.5270 -0.0084 -1.0897
  879MOL0     C15908   6.430   7.037   1.558 -0.1717 -0.2672 -0.4264
  879MOL0     C15909   6.449   7.184   1.584  0.3253  0.0723 -0.3978
  879MOL0     C15910   6.318   7.268   1.612 -0.5773  0.4972  0.5836
  879MOL0     C15911   6.357   7.413   1.606  0.1499 -1.0044  0.8060
  879MOL0     C15912   6.260   7.511   1.673  1.2058 -0.3190 -0.2515
  879MOL0     N15913   6.149   7.558   1.603  0.8059 -0.6328 -0.2846
  879MOL0     C15914   6.079   7.493   1.505  0.7680  0.5480  0.1499
  879MOL0     C15915   5.989   7.576   1.454 -0.0735 -0.1593  0.6022
  879MOL0     C15916   5.898   7.550   1.333 -0.5148  0.7513 -0.1678
  879MOL0     C15917   5.749   7.519   1.371 -0.0517 -0.0249 -0.2649
  879MOL0     C15918   5.681   7.617   1.468  0.6945 -0.2489  0.3540
  879MOL0     C15919   5.520   7.618   1.457 -0.2516  0.1092  0.3047
  879MOL0     O15920   5.474   7.487   1.429  0.4039  0.6195  0.2327
  879MOL0     C15921   5.344   7.467   1.422  1.0450  0.5018  0.8517
  879MOL0     C15922   5.299   7.353   1.353 -0.9304  0.4017 -0.2753
  879MOL0     C15923   5.164   7.326   1.341 -0.3152  0.9349  0.5709
  879MOL0     C15924   5.069   7.408   1.398 -0.4731  0.1459 -0.6051
  879MOL0     C15925   4.921   7.375   1.399  0.6915 -0.1100 -0.5343
  879MOL0     O15926   4.838   7.486   1.394  0.2014 -0.3061 -0.0748
  879MOL0     C15927   4.709   7.449   1.392 -0.7325  0.5458 -1.3958
  879MOL0     C15928   4.646   7.418   1.275 -0.4827  0.2252 -0.8408
  879MOL0     C15929   4.518   7.364   1.275 -0.0294 -0.3121  0.1224
  879MOL0     C15930   4.446   7.355   1.393  0.4318 -0.1814 -0.6119
  879MOL0     O15931   4.319   7.297   1.391 -0.4631  0.2413 -0.7489
  879MOL0     C15932   4.218   7.313   1.502 -0.2426 -0.0348  0.1703
  879MOL0     C15933   4.073   7.310   1.428 -0.1303  0.3032 -1.2400
  879MOL0     C15934   3.955   7.361   1.508 -0.5032 -0.0082 -0.0911
  879MOL0     C15935   3.830   7.327   1.437  0.3040  0.3305 -0.0353
  879MOL0     C15936   3.701   7.370   1.505  0.0619 -0.2642  0.3563
  879MOL0     C15937   3.583   7.317   1.427  0.9612  1.1544 -0.5006
  879MOL0     C15938   3.449   7.384   1.477  0.4003 -0.6479  0.6266
  879MOL0     C15939   3.329   7.282   1.467  0.4695 -0.7641  0.1513
  879MOL0    Cl15940   3.160   7.358   1.492  0.2158  0.4470 -0.0624
  879MOL0     C15941   4.509   7.389   1.517 -0.1986 -0.1624 -0.5407
  879MOL0     C15942   4.641   7.443   1.511 -0.4684  1.2283 -0.0676
  879MOL0     O15943   4.884   7.257   1.379  0.0919 -0.0357 -0.9596
  879MOL0     C15944   5.113   7.523   1.463 -0.1248  0.6670 -0.3237
  879MOL0     C15945   5.245   7.553   1.464 -0.4771  0.4679 -0.3494
  879MOL0     N15946   6.012   7.702   1.519  0.2942  0.0464  0.3405
  879MOL0     N15947   6.105   7.686   1.610 -1.1222 -0.0977  0.2918
  879MOL0     C15948   6.972   6.637   1.633 -0.5580  0.1326 -0.5825
  879MOL0     C15949   7.100   6.590   1.596 -0.2284 -0.3387 -0.1634
  879MOL0     C15950   7.494   6.531   1.360 -0.7482 -0.0530  0.0118
  879MOL0     C15951   7.576   6.539   1.254 -0.1680 -0.7666  0.0961
  879MOL0     C15952   7.707   6.492   1.257 -0.2062  0.0029  0.3900
  879MOL0     C15953   7.754   6.421   1.367  0.1261 -0.4323 -0.2676
  879MOL0     O15954   7.880   6.373   1.378  0.1100 -0.4832  0.5775
  879MOL0     C15955   7.898   6.240   1.427 -0.3271 -1.0786  0.3080
  879MOL0     C15956   8.026   6.179   1.370 -0.9975 -0.3452  0.1644
  879MOL0     C15957   8.151   6.267   1.401  0.4994  0.5492  0.3409
  879MOL0     C15958   8.185   6.269   1.545  0.0668  0.2331 -0.1566
  879MOL0     C15959   8.303   6.342   1.553  0.3470 -0.9283 -0.2026
  879MOL0     C15960   8.400   6.417   1.545  0.9534 -0.9290 -0.3050
  879MOL0     C15961   7.670   6.410   1.479 -0.4697  0.2218  0.4799
  879MOL0     C15962   7.547   6.469   1.473 -0.2789 -0.5567 -0.1412
  879MOL0     H15963   7.142   6.783   1.319  2.2099  0.2990  1.2438
  879MOL0     H15964   6.909   6.857   1.400 -2.7677 -2.8250 -0.3741
  879MOL0     H15965   6.670   6.661   1.441 -1.9293 -1.0098  2.6842
  879MOL0     H15966   6.709   6.830   1.392 -0.8787 -0.3710 -0.3807
  879MOL0     H15967   6.522   6.764   1.621  1.4623 -0.8997 -0.3222
  879MOL0     H15968   6.475   6.805   1.457 -0.1090 -1.6120  0.1925
  879MOL0     H15969   6.628   7.021   1.489 -1.7300 -1.2104 -2.9562
  879MOL0     H15970   6.600   6.988   1.666  1.9372  1.2205 -2.0309
  879MOL0     H15971   6.371   7.018   1.468  0.2487 -4.1827 -0.0420
  879MOL0     H15972   6.366   6.999   1.638 -2.5892  3.6808 -0.1927
  879MOL0     H15973   6.512   7.231   1.508 -0.5004  3.4806  0.8207
  879MOL0     H15974   6.510   7.183   1.675  0.7075  1.7592 -0.5968
  879MOL0     H15975   6.290   7.241   1.715  0.4925  0.7408  0.9525
  879MOL0     H15976   6.242   7.241   1.538  2.3022  1.5194 -3.0494
  879MOL0     H15977   6.452   7.424   1.660 -1.4143  2.1937  3.2316
  879MOL0     H15978   6.356   7.438   1.500 -4.3171 -1.9702  0.4390
  879MOL0     H15979   6.323   7.590   1.715 -1.7694  1.5632  0.9595
  879MOL0     H15980   6.221   7.463   1.763  0.2426 -0.3378 -0.6650
  879MOL0     H15981   6.101   7.393   1.468  2.8821  1.4691 -1.3049
  879MOL0     H15982   5.939   7.458   1.291 -2.0610 -0.2205  0.3489
  879MOL0     H15983   5.920   7.631   1.262 -1.1083  1.2287  0.1795
  879MOL0     H15984   5.746   7.417   1.412 -2.3447 -1.1581 -2.8818
  879MOL0     H15985   5.689   7.512   1.280  0.1980  1.1086 -0.5271
  879MOL0     H15986   5.715   7.612   1.571 -0.7820  4.2110  1.2533
  879MOL0     H15987   5.720   7.716   1.445 -0.4897  0.3828  0.9854
  879MOL0     H15988   5.486   7.687   1.378  0.3574 -1.1886 -1.1415
  879MOL0     H15989   5.480   7.652   1.553 -0.4480 -1.1218  0.6714
  879MOL0     H15990   5.369   7.285   1.307 -0.1714  2.6660 -2.6858
  879MOL0     H15991   5.135   7.243   1.277  1.7378 -0.4907  1.3977
  879MOL0     H15992   4.706   7.426   1.185  1.7516 -0.5753  0.4838
  879MOL0     H15993   4.482   7.353   1.173  4.6602  1.1548 -2.0011
  879MOL0     H15994   4.233   7.407   1.555 -1.7351 -1.5199  3.4885
  879MOL0     H15995   4.221   7.231   1.574 -1.1026  0.1300  0.4007
  879MOL0     H15996   4.059   7.204   1.406 -2.3496 -0.0108  1.0983
  879MOL0     H15997   4.069   7.355   1.328 -2.4667 -1.2152 -1.9100
  879MOL0     H15998   3.962   7.469   1.525  2.0584 -0.2111  0.5051
  879MOL0     H15999   3.944   7.307   1.603 -0.7758 -0.8618 -0.5985
  879MOL0     H16000   3.838   7.387   1.345  1.4909  0.8051  0.3482
  879MOL0     H16001   3.823   7.223   1.405 -1.2994  0.4686 -0.1902
  879MOL0     H16002   3.698   7.479   1.502 -2.6995 -0.2581  0.5047
  879MOL0     H16003   3.704   7.336   1.609 -0.8815  2.2492  1.3018
  879MOL0     H16004   3.570   7.209   1.426 -1.5719  1.3894 -0.6428
  879MOL0     H16005   3.599   7.345   1.323 -0.7760  0.0491 -1.1136
  879MOL0     H16006   3.458   7.410   1.583 -0.0583  0.8380  0.3278
  879MOL0     H16007   3.428   7.479   1.426  1.4186  1.5639  3.9825
  879MOL0     H16008   3.346   7.197   1.534  1.3211 -0.0199  0.9045
  879MOL0     H16009   3.321   7.230   1.371  2.3123 -2.3342  0.8009
  879MOL0     H16010   4.461   7.380   1.614  2.7956  2.1405  1.3353
  879MOL0     H16011   4.681   7.471   1.608 -2.8081 -0.2335  1.4444
  879MOL0     H16012   5.045   7.596   1.505  0.7302  1.0240  0.4737
  879MOL0     H16013   5.274   7.645   1.513 -0.6128 -0.8606  2.4310
  879MOL0     H16014   6.914   6.593   1.714 -0.1889  2.7074  1.2268
  879MOL0     H16015   7.133   6.513   1.665 -0.6706 -0.0447  0.3881
  879MOL0     H16016   7.530   6.590   1.169  0.4967 -2.3573 -1.2703
  879MOL0     H16017   7.764   6.514   1.167  1.1283  0.9352  1.4411
  879MOL0     H16018   7.817   6.179   1.385  0.1484 -0.5349 -1.5010
  879MOL0     H16019   7.887   6.232   1.535 -1.9032  1.8968  0.4637
  879MOL0     H16020   8.053   6.081   1.410  0.5440 -0.1256 -0.2786
  879MOL0     H16021   8.010   6.174   1.262  1.0673 -0.3480 -0.1838
  879MOL0     H16022   8.136   6.371   1.371  1.1153  0.3009 -0.8617
  879MOL0     H16023   8.234   6.237   1.337 -0.8979 -0.0608 -1.2362
  879MOL0     H16024   8.100   6.305   1.604 -0.1025 -1.3463  0.6167
  879MOL0     H16025   8.208   6.167   1.576  1.4640  0.6195  0.1507
  879MOL0     H16026   8.488   6.477   1.551  0.5184 -0.2726 -0.3286
  879MOL0     H16027   7.711   6.355   1.563 -0.8195 -1.3244 -0.3208
  879MOL0     H16028   7.501   6.465   1.571  0.2040 -1.1148  0.0687
  880MOL0     O16029  10.804   9.790   7.663 -0.4177 -0.3048 -0.5283
  880MOL0     C16030  10.762   9.890   7.591 -0.5387 -0.1618 -0.3369
  880MOL0     O16031  10.626   9.913   7.556 -0.6262 -0.1661  0.3512
  880MOL0     C16032  10.519   9.832   7.582 -0.0159  0.3392  0.3326
  880MOL0     C16033  10.529   9.698   7.618  0.5052 -0.0498 -0.7493
  880MOL0     C16034  10.413   9.622   7.639  0.7876  0.2132  0.6062
  880MOL0     C16035  10.285   9.675   7.625 -0.7919 -0.3232  0.1704
  880MOL0     O16036  10.171   9.614   7.668 -0.0590 -0.1305  0.1550
  880MOL0     C16037  10.173   9.504   7.764  0.2738  0.1503  0.2239
  880MOL0     C16038  10.039   9.471   7.814  0.3986  0.0264  0.1878
  880MOL0     C16039   9.951   9.578   7.868  0.4473 -0.1041 -0.1964
  880MOL0     C16040  10.018   9.653   7.988 -0.4272 -0.5266 -0.4133
  880MOL0     C16041   9.922   9.757   8.054  0.7561 -0.1897 -0.1614
  880MOL0     C16042   9.832   9.691   8.152  0.3535  0.1602  1.2255
  880MOL0     C16043   9.716   9.790   8.206  0.0770  0.4552  0.1822
  880MOL0     C16044   9.629   9.724   8.315  0.0568  0.2730 -0.1074
  880MOL0     N16045   9.503   9.797   8.321  0.7064 -0.3113 -0.3156
  880MOL0     C16046   9.406   9.782   8.228  0.0147 -0.1989 -0.3080
  880MOL0     C16047   9.301   9.858   8.273 -0.1235  0.8198  0.0228
  880MOL0     C16048   9.170   9.863   8.213  1.0232 -0.4173 -0.1399
  880MOL0     C16049   9.090   9.763   8.288  0.3426 -0.2102 -0.4531
  880MOL0     C16050   8.941   9.755   8.242 -0.4536 -0.2455  0.2561
  880MOL0     C16051   8.867   9.646   8.306 -0.3505  0.4287  0.1851
  880MOL0     O16052   8.830   9.660   8.444 -0.3730  0.3337  0.1026
  880MOL0     C16053   8.710   9.717   8.472 -0.5304 -0.0395 -0.5243
  880MOL0     C16054   8.629   9.797   8.387  0.3080  0.1272  0.0317
  880MOL0     C16055   8.499   9.834   8.426 -0.2346 -0.6987 -0.1733
  880MOL0     C16056   8.451   9.804   8.557  0.0871  0.0383  0.4536
  880MOL0     C16057   8.311   9.843   8.577 -0.4561 -0.0770 -0.5476
  880MOL0     O16058   8.214   9.861   8.475 -0.5418 -0.0725  0.1739
  880MOL0     C16059   8.081   9.861   8.502  0.4499  0.7278  0.4342
  880MOL0     C16060   8.007   9.795   8.407  0.8398 -0.0431  1.2517
  880MOL0     C16061   7.865   9.800   8.398 -0.9026 -0.7574  0.5437
  880MOL0     C16062   7.794   9.874   8.494 -1.1690 -0.2143  0.0964
  880MOL0     O16063   7.657   9.874   8.489 -0.1400  0.3063 -0.3527
  880MOL0     C16064   7.594   9.949   8.597  0.0954  0.6618  0.3630
  880MOL0     C16065   7.441   9.912   8.606 -0.3723 -0.5515 -0.4037
  880MOL0     C16066   7.370   9.945   8.475  0.7571  0.3004 -0.6837
  880MOL0     C16067   7.224   9.914   8.503 -0.2601 -0.1102 -0.3615
  880MOL0     C16068   7.161   9.894   8.365  0.1898  0.3968  0.1764
  880MOL0     C16069   7.017   9.837   8.377 -0.7274 -0.1832  0.0638
  880MOL0     C16070   6.962   9.816   8.236  0.5269  0.5051  0.1569
  880MOL0     C16071   6.812   9.784   8.241  0.0951  0.1138  0.1943
  880MOL0    Cl16072   6.710   9.919   8.302  0.0338 -0.2644  0.1916
  880MOL0     C16073   7.872   9.950   8.590 -0.1962 -0.3680  0.0191
  880MOL0     C16074   8.010   9.944   8.597  0.1282  0.3094 -0.2222
  880MOL0     O16075   8.277   9.825   8.697  0.6472  0.1174 -0.0509
  880MOL0     C16076   8.536   9.744   8.647  0.2242  0.2143 -0.2146
  880MOL0     C16077   8.660   9.701   8.608  0.9670  0.4410  0.6195
  880MOL0     N16078   9.355   9.933   8.381  0.3467 -0.1708 -0.2032
  880MOL0     N16079   9.474   9.898   8.409  0.7361  0.4037  0.4144
  880MOL0     C16080  10.274   9.812   7.587 -0.1167  1.0084 -0.0240
  880MOL0     C16081  10.387   9.878   7.556  0.1540  1.2314 -0.4938
  880MOL0     C16082  10.868   9.980   7.544  0.2777  0.0185  0.0727
  880MOL0     C16083  11.001   9.965   7.587  0.3046  0.3610  0.5768
  880MOL0     C16084  11.104  10.033   7.522  0.4348  0.4553 -0.2087
  880MOL0     C16085  11.086  10.117   7.415 -0.0926  0.0815 -0.7599
  880MOL0     O16086  11.197  10.171   7.357  0.3103  0.3249  0.6450
  880MOL0     C16087  11.182  10.230   7.226  0.4231 -0.0738  0.4491
  880MOL0     C16088  11.323  10.242   7.168  0.9061 -0.5998  0.2946
  880MOL0     C16089  11.407  10.348   7.250 -0.2062  0.9470  0.0853
  880MOL0     C16090  11.550  10.372   7.200 -0.4038  0.2830 -0.6023
  880MOL0     C16091  11.565  10.427   7.065  1.2923  0.1553  0.4119
  880MOL0     C16092  11.580  10.479   6.955 -1.0703  0.4641  0.0119
  880MOL0     C16093  10.952  10.141   7.381 -0.0422 -0.7250 -0.4905
  880MOL0     C16094  10.839  10.081   7.440  0.3423  0.6484 -0.3182
  880MOL0     H16095  10.622   9.644   7.606  2.0490  0.8591  4.3712
  880MOL0     H16096  10.427   9.519   7.672 -0.3317  0.7090  2.7986
  880MOL0     H16097  10.235   9.535   7.848  0.2165 -1.6076  0.9446
  880MOL0     H16098  10.208   9.418   7.706 -0.5010  0.9122 -1.4646
  880MOL0     H16099  10.051   9.385   7.880  1.1140  1.0535  1.4331
  880MOL0     H16100   9.984   9.432   7.727 -0.2236  2.2178 -0.4583
  880MOL0     H16101   9.861   9.521   7.892 -0.1139 -0.0723 -2.0970
  880MOL0     H16102   9.929   9.655   7.794 -0.4211 -0.7828 -0.6649
  880MOL0     H16103  10.055   9.582   8.062 -0.1470  1.2664  1.2505
  880MOL0     H16104  10.111   9.699   7.953 -1.2329  1.4228 -0.1276
  880MOL0     H16105   9.859   9.803   7.978 -1.0871  2.4316  2.7081
  880MOL0     H16106   9.978   9.833   8.111 -0.0147 -0.5497  1.1121
  880MOL0     H16107   9.886   9.654   8.239  0.2956 -3.0549  0.0260
  880MOL0     H16108   9.777   9.613   8.098  0.6862  0.3429  0.6154
  880MOL0     H16109   9.754   9.878   8.259 -2.2356  1.9350 -0.4822
  880MOL0     H16110   9.648   9.814   8.124  1.7975  2.0119 -0.8916
  880MOL0     H16111   9.683   9.725   8.410  2.8238 -2.4182 -1.4712
  880MOL0     H16112   9.600   9.624   8.283 -2.7336  0.4813  1.5175
  880MOL0     H16113   9.399   9.708   8.149 -3.9653 -3.7665  2.9260
  880MOL0     H16114   9.169   9.835   8.108 -0.5046 -2.3903  0.3513
  880MOL0     H16115   9.123   9.961   8.227 -0.1295 -0.9021 -0.5034
  880MOL0     H16116   9.095   9.784   8.396 -2.4102 -1.1123 -0.0679
  880MOL0     H16117   9.138   9.666   8.271  1.5568  0.1054  0.9132
  880MOL0     H16118   8.889   9.848   8.263 -3.3830 -1.9601  1.1713
  880MOL0     H16119   8.934   9.744   8.133 -1.0749 -0.7841  0.3462
  880MOL0     H16120   8.917   9.552   8.282 -1.1288 -0.0305  0.3378
  880MOL0     H16121   8.772   9.634   8.254 -0.6142 -0.5991  0.8813
  880MOL0     H16122   8.661   9.813   8.285 -1.5427  0.0500 -0.5947
  880MOL0     H16123   8.430   9.889   8.364  0.2269 -1.1948 -1.1577
  880MOL0     H16124   8.070   9.747   8.333 -1.0145  0.8344 -1.0331
  880MOL0     H16125   7.819   9.746   8.316 -0.0938  1.0131 -1.1284
  880MOL0     H16126   7.601  10.054   8.567 -1.8522  0.1056 -2.4677
  880MOL0     H16127   7.631   9.926   8.697  2.8642  1.6104 -0.3534
  880MOL0     H16128   7.385   9.974   8.676 -1.5702  0.6837 -2.3511
  880MOL0     H16129   7.435   9.807   8.635 -0.0072  0.0927  2.2601
  880MOL0     H16130   7.408   9.886   8.390 -2.0763  0.8891 -2.5016
  880MOL0     H16131   7.385  10.050   8.447 -0.5478  0.2601 -1.6484
  880MOL0     H16132   7.211   9.823   8.561  3.4290 -0.9447 -0.5652
  880MOL0     H16133   7.177  10.000   8.552 -0.3783  0.3173 -1.2075
  880MOL0     H16134   7.221   9.816   8.317  2.5597  2.0857  0.2295
  880MOL0     H16135   7.155   9.985   8.305  0.9175 -0.1744 -0.7824
  880MOL0     H16136   6.953   9.902   8.438 -1.2387 -2.4512  2.0880
  880MOL0     H16137   7.013   9.740   8.427  1.7409  0.3142  1.3719
  880MOL0     H16138   6.984   9.906   8.178  1.6266 -0.1395 -0.4442
  880MOL0     H16139   7.020   9.735   8.191  0.0441  1.6516 -2.7354
  880MOL0     H16140   6.793   9.698   8.306  0.0045  1.8823  2.6079
  880MOL0     H16141   6.791   9.742   8.142  3.7075 -0.6082 -0.4168
  880MOL0     H16142   7.826  10.025   8.655  2.1461  0.1430  1.2091
  880MOL0     H16143   8.062   9.989   8.681  0.0642 -0.9054  0.4943
  880MOL0     H16144   8.502   9.717   8.746  1.6097  0.5978  0.3913
  880MOL0     H16145   8.715   9.651   8.688  2.0193 -1.8199 -1.3836
  880MOL0     H16146  10.176   9.860   7.580 -0.5230  0.4329  1.5142
  880MOL0     H16147  10.370   9.982   7.532  2.1819  1.4084 -1.4098
  880MOL0     H16148  11.023   9.894   7.666  1.1255 -1.3597 -1.1403
  880MOL0     H16149  11.199  10.007   7.568 -0.3131 -2.0234  0.0830
  880MOL0     H16150  11.138  10.327   7.253 -1.2770 -1.5345  3.5115
  880MOL0     H16151  11.124  10.180   7.148  1.0620  0.0264 -0.0936
  880MOL0     H16152  11.375  10.148   7.189 -1.8428 -1.9867  1.3575
  880MOL0     H16153  11.316  10.264   7.061 -0.7819 -4.2165 -0.4786
  880MOL0     H16154  11.401  10.307   7.351  2.2650 -2.0330 -0.8197
  880MOL0     H16155  11.368  10.449   7.236  0.1662  1.1002  0.1668
  880MOL0     H16156  11.615  10.438   7.260  1.0222  0.9778 -2.7855
  880MOL0     H16157  11.608  10.279   7.202 -0.4881  0.1320 -2.7762
  880MOL0     H16158  11.607  10.518   6.859  0.9633 -0.2882  0.2241
  880MOL0     H16159  10.922  10.220   7.314 -2.0853 -0.5856  0.5091
  880MOL0     H16160  10.740  10.108   7.406 -1.5224 -0.8240  3.4323
  881MOL0     O16161   0.616   0.113   3.597 -0.2420  0.6237  0.5699
  881MOL0     C16162   0.602   0.237   3.587  0.8170  0.6108 -0.0990
  881MOL0     O16163   0.485   0.308   3.600  0.1288  0.0325  1.0337
  881MOL0     C16164   0.367   0.236   3.625 -1.3040  0.0699 -0.5173
  881MOL0     C16165   0.364   0.159   3.745  0.0094  1.0085 -0.4494
  881MOL0     C16166   0.247   0.084   3.783  0.0115  0.6415 -0.5812
  881MOL0     C16167   0.141   0.074   3.688  0.5455 -0.4324  0.3661
  881MOL0     O16168   0.031  -0.002   3.734  0.6660 -0.4202  0.1820
  881MOL0     C16169  -0.095   0.014   3.669 -0.3020  0.2067 -0.3602
  881MOL0     C16170  -0.198  -0.052   3.762 -0.7987  0.3113 -0.3088
  881MOL0     C16171  -0.338  -0.021   3.728 -0.1759 -0.4180  0.8185
  881MOL0     C16172  -0.444  -0.105   3.801  1.0464 -0.2927 -0.1798
  881MOL0     C16173  -0.587  -0.078   3.731 -0.3022  0.5647 -0.3969
  881MOL0     C16174  -0.690  -0.192   3.773 -0.8703 -0.3763 -0.1209
  881MOL0     C16175  -0.830  -0.150   3.763 -0.7239  0.3505 -0.1808
  881MOL0     C16176  -0.921  -0.268   3.803  0.2541  0.2852 -0.3271
  881MOL0     N16177  -1.065  -0.240   3.772 -0.6654 -0.6179  0.1239
  881MOL0     C16178  -1.144  -0.166   3.857  0.3541  0.1415  0.2603
  881MOL0     C16179  -1.243  -0.106   3.785 -0.8938 -0.4007 -0.2220
  881MOL0     C16180  -1.349  -0.003   3.828  0.5183 -0.4550 -0.1151
  881MOL0     C16181  -1.464  -0.068   3.899 -0.8614  0.2884  0.2527
  881MOL0     C16182  -1.526  -0.175   3.808  0.3683  0.8010  1.1109
  881MOL0     C16183  -1.672  -0.203   3.855  0.5952  0.7695 -0.0437
  881MOL0     O16184  -1.752  -0.253   3.744 -0.6924 -0.4470 -0.6653
  881MOL0     C16185  -1.854  -0.331   3.780  0.4745 -0.5851  1.6485
  881MOL0     C16186  -1.927  -0.333   3.899  0.5202 -0.0936  0.3421
  881MOL0     C16187  -2.039  -0.417   3.907  0.5074 -0.1279 -0.3208
  881MOL0     C16188  -2.059  -0.521   3.818 -0.3328 -0.9464  0.0617
  881MOL0     C16189  -2.175  -0.617   3.841 -0.0815 -0.2550  0.3030
  881MOL0     O16190  -2.257  -0.666   3.735  0.8446  0.7697 -0.1026
  881MOL0     C16191  -2.379  -0.722   3.757 -0.4226  1.0552  0.4957
  881MOL0     C16192  -2.482  -0.658   3.815  0.2730 -0.7158  0.0506
  881MOL0     C16193  -2.618  -0.703   3.817 -0.2946 -0.5186  0.3794
  881MOL0     C16194  -2.651  -0.829   3.766 -0.0565 -0.7647  1.5749
  881MOL0     O16195  -2.776  -0.888   3.785 -0.3694 -0.8574 -0.1063
  881MOL0     C16196  -2.789  -1.031   3.772  0.8753  0.7341  0.4186
  881MOL0     C16197  -2.929  -1.079   3.830  1.2081  0.9736  0.2692
  881MOL0     C16198  -3.056  -1.028   3.745  0.5158 -0.2524 -0.3482
  881MOL0     C16199  -3.090  -1.136   3.648  0.1845 -0.6044  0.3467
  881MOL0     C16200  -3.208  -1.092   3.562  0.8519 -0.6070 -0.0805
  881MOL0     C16201  -3.343  -1.128   3.636 -0.9979  0.3552 -0.1897
  881MOL0     C16202  -3.462  -1.090   3.550 -0.2184 -0.3662  0.5229
  881MOL0     C16203  -3.591  -1.153   3.602 -0.2452  0.2298  0.0314
  881MOL0    Cl16204  -3.630  -1.100   3.776  0.3802 -0.1778  0.2751
  881MOL0     C16205  -2.549  -0.888   3.701 -0.1919  0.2816 -0.6944
  881MOL0     C16206  -2.416  -0.842   3.697  0.0117  0.8150 -0.4571
  881MOL0     O16207  -2.194  -0.642   3.961  0.0522  0.2376 -0.0878
  881MOL0     C16208  -1.968  -0.524   3.709  0.0367  0.3455 -0.2503
  881MOL0     C16209  -1.869  -0.431   3.685  0.6845 -0.7931  0.0630
  881MOL0     N16210  -1.217  -0.140   3.652  0.7298  0.2761  0.2137
  881MOL0     N16211  -1.120  -0.221   3.645 -0.2418  0.2975  0.2503
  881MOL0     C16212   0.150   0.158   3.573  0.6291 -0.8326 -0.0823
  881MOL0     C16213   0.255   0.239   3.543  0.5819 -0.3468  0.0273
  881MOL0     C16214   0.725   0.317   3.576  0.7077  1.2640 -1.2861
  881MOL0     C16215   0.850   0.247   3.545  0.2500 -0.3320 -0.1099
  881MOL0     C16216   0.965   0.327   3.532 -0.2308  0.3254 -1.0093
  881MOL0     C16217   0.958   0.463   3.557  0.0791 -0.0003 -0.1708
  881MOL0     O16218   1.078   0.528   3.570  0.5171  0.0134  0.4545
  881MOL0     C16219   1.105   0.602   3.691 -0.3947 -0.7479 -1.3309
  881MOL0     C16220   1.251   0.583   3.725  0.1803  0.3824 -0.2553
  881MOL0     C16221   1.288   0.436   3.714 -0.4577  0.2687  0.1416
  881MOL0     C16222   1.425   0.408   3.783  0.2855 -0.0987 -0.6257
  881MOL0     C16223   1.492   0.295   3.728 -0.2745  0.8943  0.6913
  881MOL0     C16224   1.550   0.210   3.668  0.2529 -0.2414 -0.3157
  881MOL0     C16225   0.836   0.529   3.574 -0.0351  0.2962 -0.0030
  881MOL0     C16226   0.720   0.452   3.593  0.1081  1.0217 -0.3125
  881MOL0     H16227   0.447   0.170   3.814 -1.0406 -1.8154  1.4207
  881MOL0     H16228   0.242   0.029   3.877 -2.3110  0.9698 -0.4420
  881MOL0     H16229  -0.101  -0.033   3.570 -2.3960  0.1931 -0.2799
  881MOL0     H16230  -0.122   0.118   3.652  0.5787  0.1374 -2.4412
  881MOL0     H16231  -0.188  -0.009   3.863 -1.8222 -1.1738  0.4573
  881MOL0     H16232  -0.174  -0.159   3.766 -1.3197  0.2189  2.1447
  881MOL0     H16233  -0.342  -0.053   3.624  2.3236 -0.8778  0.8164
  881MOL0     H16234  -0.356   0.086   3.739  1.5323 -0.0188  0.1132
  881MOL0     H16235  -0.424  -0.212   3.790 -2.0150 -0.8333 -1.5840
  881MOL0     H16236  -0.447  -0.083   3.908  0.3048  1.1948 -0.4716
  881MOL0     H16237  -0.583  -0.086   3.622 -2.6621 -1.3044 -0.4401
  881MOL0     H16238  -0.624   0.021   3.759 -2.3734 -0.8431  2.2776
  881MOL0     H16239  -0.662  -0.234   3.870  1.3075 -1.7467 -1.2738
  881MOL0     H16240  -0.668  -0.277   3.709  1.4152  0.4739 -0.5594
  881MOL0     H16241  -0.847  -0.082   3.847 -0.7066 -2.4756  2.2924
  881MOL0     H16242  -0.846  -0.097   3.669  0.4998  1.8985  0.4246
  881MOL0     H16243  -0.909  -0.295   3.908 -2.0419 -0.0108 -0.0956
  881MOL0     H16244  -0.887  -0.351   3.740 -3.0595 -2.1436  0.7732
  881MOL0     H16245  -1.128  -0.147   3.963 -0.9899 -0.5858  0.6145
  881MOL0     H16246  -1.378   0.046   3.735  3.9640  0.9937 -0.5725
  881MOL0     H16247  -1.297   0.076   3.882  1.1561 -0.6793 -0.3867
  881MOL0     H16248  -1.545   0.005   3.913 -4.1775 -3.3821  2.0735
  881MOL0     H16249  -1.435  -0.106   3.997  1.4364 -0.2542 -0.5631
  881MOL0     H16250  -1.511  -0.135   3.707  2.4970 -1.2215  0.5214
  881MOL0     H16251  -1.472  -0.270   3.800 -3.2497 -1.3272 -0.3902
  881MOL0     H16252  -1.720  -0.112   3.892  0.8302  0.6007  0.6901
  881MOL0     H16253  -1.682  -0.273   3.938 -1.9785  0.7491 -0.2779
  881MOL0     H16254  -1.903  -0.256   3.972  2.2991  0.2910 -0.5701
  881MOL0     H16255  -2.093  -0.418   4.000  1.4398 -0.7574  0.2345
  881MOL0     H16256  -2.461  -0.564   3.866  0.4335 -0.9141  0.3539
  881MOL0     H16257  -2.691  -0.638   3.864  1.0474  0.7531  0.7581
  881MOL0     H16258  -2.710  -1.092   3.818  0.9644  0.6786  0.1956
  881MOL0     H16259  -2.782  -1.054   3.665  3.1648  1.0279  0.4501
  881MOL0     H16260  -2.936  -1.046   3.934 -1.3299 -1.9629  1.1647
  881MOL0     H16261  -2.926  -1.188   3.838 -1.7655  0.5599 -2.2961
  881MOL0     H16262  -3.032  -0.928   3.707  0.3495  0.4579  1.3082
  881MOL0     H16263  -3.138  -0.993   3.808 -0.6325  0.4223 -2.1495
  881MOL0     H16264  -3.006  -1.151   3.580  0.0223  1.6831 -0.4395
  881MOL0     H16265  -3.118  -1.228   3.701  0.7576 -1.0950 -0.1865
  881MOL0     H16266  -3.208  -1.145   3.466 -0.1144 -2.7569  1.0516
  881MOL0     H16267  -3.219  -0.985   3.542 -0.1372 -0.4705  1.0881
  881MOL0     H16268  -3.347  -1.068   3.727 -0.6510 -0.6623  0.5112
  881MOL0     H16269  -3.343  -1.235   3.661 -0.9135  0.8419  2.1737
  881MOL0     H16270  -3.469  -0.982   3.536  1.4278 -0.4287 -1.2361
  881MOL0     H16271  -3.436  -1.128   3.451  2.4375  1.6509  0.3437
  881MOL0     H16272  -3.572  -1.261   3.598  2.4221  0.6220 -4.1379
  881MOL0     H16273  -3.678  -1.129   3.540 -0.3344 -0.0486  0.0474
  881MOL0     H16274  -2.558  -0.993   3.675  1.0767  0.0148 -0.1253
  881MOL0     H16275  -2.338  -0.896   3.645 -2.0938 -2.9648 -0.0419
  881MOL0     H16276  -1.972  -0.608   3.641  0.6980  0.5742 -0.5767
  881MOL0     H16277  -1.806  -0.454   3.600 -0.8259  0.1608 -1.3872
  881MOL0     H16278   0.064   0.171   3.508  0.1948 -0.5129  0.5564
  881MOL0     H16279   0.260   0.293   3.450 -1.3400 -0.6082 -0.2706
  881MOL0     H16280   0.862   0.139   3.540 -0.8102 -0.5620  1.4962
  881MOL0     H16281   1.061   0.276   3.532  0.2453  1.1763  0.3675
  881MOL0     H16282   1.039   0.575   3.774  1.7239  1.0262  1.0680
  881MOL0     H16283   1.089   0.710   3.680  0.3897 -0.1093  2.4211
  881MOL0     H16284   1.314   0.641   3.656 -0.4818  1.2457 -0.1580
  881MOL0     H16285   1.266   0.630   3.823 -0.2752  3.3836 -1.5012
  881MOL0     H16286   1.304   0.420   3.607  1.6334  2.2006  0.0837
  881MOL0     H16287   1.211   0.371   3.756  1.0496 -1.3887  0.5085
  881MOL0     H16288   1.479   0.503   3.770 -2.8886  2.3415  2.1341
  881MOL0     H16289   1.414   0.394   3.891  2.8608  3.0639  0.2134
  881MOL0     H16290   1.609   0.132   3.625  1.7564  0.8282 -0.2654
  881MOL0     H16291   0.837   0.634   3.599 -5.3342 -0.0037  2.8882
  881MOL0     H16292   0.621   0.487   3.621 -0.5105 -2.1789  2.0937
  882MOL0     O16293   4.946   8.128   4.833 -1.0233 -0.3702 -0.1590
  882MOL0     C16294   5.045   8.204   4.866  0.9994  1.2746 -0.3887
  882MOL0     O16295   5.115   8.179   4.982  0.5168 -0.5354  0.5002
  882MOL0     C16296   5.091   8.087   5.080  0.0688  0.7756 -0.4586
  882MOL0     C16297   5.199   8.028   5.149 -0.3856 -0.2656  0.5513
  882MOL0     C16298   5.183   7.939   5.258  0.3258  0.5852  0.6942
  882MOL0     C16299   5.050   7.899   5.294 -0.5835  0.1410 -0.0314
  882MOL0     O16300   5.037   7.810   5.395 -0.2442  0.9846 -0.6600
  882MOL0     C16301   4.914   7.736   5.421 -0.3139 -0.4164  0.7081
  882MOL0     C16302   4.929   7.646   5.543 -0.0433 -0.3845 -0.1945
  882MOL0     C16303   4.814   7.546   5.563  0.8774 -0.1266 -0.0940
  882MOL0     C16304   4.675   7.594   5.604 -0.8922  0.2707  1.4164
  882MOL0     C16305   4.574   7.635   5.481 -1.4104  0.3285 -0.2675
  882MOL0     C16306   4.497   7.508   5.423 -1.1577 -0.5382 -0.8779
  882MOL0     C16307   4.415   7.543   5.300 -0.7139 -0.2537 -0.1949
  882MOL0     C16308   4.303   7.635   5.331 -0.7745 -0.4170  0.6901
  882MOL0     N16309   4.216   7.573   5.433  0.0036  0.8671  0.0477
  882MOL0     C16310   4.105   7.498   5.401  0.3360  0.6869 -0.1017
  882MOL0     C16311   4.020   7.498   5.509  0.7156 -0.1957 -0.3927
  882MOL0     C16312   3.887   7.444   5.508  0.5082 -0.6133 -0.5829
  882MOL0     C16313   3.802   7.484   5.633  0.2028  0.0564  0.5673
  882MOL0     C16314   3.660   7.449   5.625  0.7123  0.7251 -0.1256
  882MOL0     C16315   3.585   7.555   5.552 -0.5538  0.6302  0.4053
  882MOL0     O16316   3.451   7.502   5.542  0.3032 -0.5021  0.2225
  882MOL0     C16317   3.340   7.580   5.524 -0.7584  0.8140 -0.1247
  882MOL0     C16318   3.337   7.716   5.472 -0.0939  0.1614 -0.6449
  882MOL0     C16319   3.222   7.780   5.443  0.5377 -0.1030 -0.2730
  882MOL0     C16320   3.097   7.715   5.462 -0.5213 -0.2334  0.5206
  882MOL0     C16321   2.981   7.793   5.422  0.5040 -0.4375  0.3762
  882MOL0     O16322   2.998   7.924   5.394  0.2592  0.6445  0.3809
  882MOL0     C16323   2.892   8.002   5.376  0.0844 -0.3381 -0.8206
  882MOL0     C16324   2.843   8.035   5.251  0.8235  0.1071 -0.2647
  882MOL0     C16325   2.723   8.108   5.249 -0.5200 -0.2210  0.1233
  882MOL0     C16326   2.657   8.148   5.363  0.6080 -0.3367  0.3405
  882MOL0     O16327   2.534   8.216   5.375 -0.0367  0.1095 -0.2236
  882MOL0     C16328   2.462   8.220   5.254  0.1481 -0.9743  0.5909
  882MOL0     C16329   2.339   8.316   5.271 -0.8303  0.3933 -0.2140
  882MOL0     C16330   2.251   8.333   5.153 -0.5527  0.2473  0.0302
  882MOL0     C16331   2.177   8.199   5.136 -0.5326 -0.3410  0.4717
  882MOL0     C16332   2.074   8.200   5.017 -0.6305  0.1712 -0.2430
  882MOL0     C16333   1.994   8.069   5.011  0.0929 -0.0003  0.6352
  882MOL0     C16334   1.864   8.095   4.934  0.0830 -0.2369 -0.2805
  882MOL0     C16335   1.775   7.969   4.933  0.1923 -0.4450 -0.0166
  882MOL0    Cl16336   1.607   7.988   4.880  0.1484 -0.3813 -0.2263
  882MOL0     C16337   2.711   8.116   5.490 -1.1210 -0.6464  0.4280
  882MOL0     C16338   2.824   8.043   5.491 -0.3917 -0.2592 -0.1371
  882MOL0     O16339   2.868   7.743   5.446  0.6412  0.4013  0.5345
  882MOL0     C16340   3.093   7.589   5.512  1.0307  1.5981 -0.2107
  882MOL0     C16341   3.215   7.524   5.538  0.4449 -0.1471 -0.6719
  882MOL0     N16342   4.079   7.594   5.589  0.1206 -0.1126 -0.1786
  882MOL0     N16343   4.190   7.642   5.545 -0.4123 -0.2917 -0.2141
  882MOL0     C16344   4.944   7.957   5.235  0.0892 -1.0772  0.5768
  882MOL0     C16345   4.966   8.047   5.130 -1.2710 -0.9701 -0.2554
  882MOL0     C16346   5.090   8.306   4.775  0.1389  0.2335 -0.5548
  882MOL0     C16347   5.198   8.383   4.813  0.0793  0.1262  0.1288
  882MOL0     C16348   5.244   8.477   4.732  0.1491 -0.2302 -0.5935
  882MOL0     C16349   5.213   8.476   4.598 -0.6319 -0.5739  0.0601
  882MOL0     O16350   5.286   8.569   4.520  0.0914 -0.2993 -0.2160
  882MOL0     C16351   5.305   8.528   4.391  0.0807  0.2036 -0.6938
  882MOL0     C16352   5.436   8.601   4.350 -0.6226 -0.5944  0.5385
  882MOL0     C16353   5.564   8.544   4.426  0.3781 -0.4283  0.4065
  882MOL0     C16354   5.682   8.645   4.433  0.9157 -0.1923  0.4982
  882MOL0     C16355   5.722   8.696   4.302 -0.6322 -0.1005  0.3413
  882MOL0     C16356   5.778   8.748   4.211  0.4129  0.3430 -0.3064
  882MOL0     C16357   5.105   8.397   4.552 -0.0167  0.0858 -0.5134
  882MOL0     C16358   5.039   8.309   4.645  1.1012 -0.9339  0.2323
  882MOL0     H16359   5.296   8.057   5.109  0.0246 -0.1825  1.5588
  882MOL0     H16360   5.266   7.890   5.307 -1.0944 -1.6826  1.0039
  882MOL0     H16361   4.901   7.670   5.335 -0.6707  1.1013 -0.4515
  882MOL0     H16362   4.833   7.809   5.427  0.5381  0.6915 -0.4423
  882MOL0     H16363   4.944   7.709   5.631 -4.3883 -1.2129  1.3670
  882MOL0     H16364   5.016   7.585   5.517 -1.1788 -1.4438 -1.6690
  882MOL0     H16365   4.845   7.474   5.639  3.6165 -0.1199 -1.0904
  882MOL0     H16366   4.794   7.489   5.472  0.6099 -1.7080  0.9158
  882MOL0     H16367   4.642   7.514   5.671 -0.2696  1.3000  3.0023
  882MOL0     H16368   4.673   7.679   5.672  1.6327 -0.6314  2.7631
  882MOL0     H16369   4.641   7.682   5.409 -0.4947 -2.2925 -1.2283
  882MOL0     H16370   4.501   7.700   5.531 -2.2490 -0.0294 -0.9993
  882MOL0     H16371   4.436   7.468   5.504  1.9508 -1.0208  1.4096
  882MOL0     H16372   4.580   7.442   5.395 -2.2274 -1.1582 -2.7411
  882MOL0     H16373   4.480   7.596   5.229 -2.0909  1.8212 -0.0082
  882MOL0     H16374   4.376   7.458   5.242 -2.2774  1.9528 -2.6495
  882MOL0     H16375   4.244   7.663   5.243  1.2594 -2.8933 -1.6494
  882MOL0     H16376   4.341   7.727   5.377 -3.3138 -0.0218  2.1902
  882MOL0     H16377   4.091   7.443   5.308  0.7259 -0.9445  0.7580
  882MOL0     H16378   3.898   7.335   5.512 -0.2412 -0.7493  4.3015
  882MOL0     H16379   3.834   7.481   5.420 -0.7309 -3.2631 -1.0437
  882MOL0     H16380   3.818   7.587   5.666  3.4069 -0.7922  2.0676
  882MOL0     H16381   3.845   7.430   5.718 -1.0532  1.3236  2.0742
  882MOL0     H16382   3.645   7.354   5.572  0.0956 -0.4189  2.0009
  882MOL0     H16383   3.626   7.441   5.729  0.0948 -1.3543 -0.4283
  882MOL0     H16384   3.633   7.570   5.455  0.8444 -0.4872  0.8825
  882MOL0     H16385   3.593   7.650   5.605 -1.0382  1.1054 -0.3549
  882MOL0     H16386   3.427   7.777   5.463  0.1765 -0.1865 -0.3528
  882MOL0     H16387   3.227   7.881   5.402 -0.0865  0.9352  2.0774
  882MOL0     H16388   2.886   8.009   5.155 -0.7134  1.3186 -1.3386
  882MOL0     H16389   2.690   8.134   5.149  1.1870  0.8731 -0.1921
  882MOL0     H16390   2.443   8.114   5.232  0.6121 -1.1215  0.8759
  882MOL0     H16391   2.525   8.261   5.175 -0.1696  0.1638  0.9204
  882MOL0     H16392   2.376   8.416   5.295  0.1079  0.6846 -2.5970
  882MOL0     H16393   2.278   8.298   5.359  1.3435 -2.8836  0.7753
  882MOL0     H16394   2.306   8.358   5.062  0.6687  0.8037  0.9020
  882MOL0     H16395   2.173   8.407   5.175 -1.2933 -0.4411 -0.2204
  882MOL0     H16396   2.259   8.129   5.122 -1.3829 -0.9389 -2.3949
  882MOL0     H16397   2.114   8.184   5.224 -0.1914  0.5199  0.8761
  882MOL0     H16398   2.123   8.208   4.920 -0.6435  0.5939 -0.2149
  882MOL0     H16399   2.015   8.292   5.022 -0.7996  0.1407 -1.3871
  882MOL0     H16400   1.972   8.036   5.112  2.9441  0.5411  1.5140
  882MOL0     H16401   2.036   7.989   4.950 -1.1941  2.0750 -3.3617
  882MOL0     H16402   1.803   8.176   4.973 -0.2041  0.1012 -1.4023
  882MOL0     H16403   1.892   8.137   4.837 -1.5673  1.3523 -0.1086
  882MOL0     H16404   1.763   7.938   5.038  2.5716 -1.0556  0.1457
  882MOL0     H16405   1.841   7.896   4.885  2.5901 -0.7362  3.2840
  882MOL0     H16406   2.661   8.149   5.580 -2.9845  0.1838 -0.8719
  882MOL0     H16407   2.878   8.022   5.583 -2.6328  0.5379  1.4658
  882MOL0     H16408   3.000   7.538   5.535  2.2974  0.1528  2.1732
  882MOL0     H16409   3.209   7.424   5.579 -0.6127 -1.2607 -3.3194
  882MOL0     H16410   4.841   7.945   5.265 -0.6028  2.0243 -0.2312
  882MOL0     H16411   4.870   8.086   5.096 -1.0344  0.6052  0.7716
  882MOL0     H16412   5.234   8.378   4.915  0.2235  1.5406  0.1571
  882MOL0     H16413   5.328   8.534   4.772 -1.5230  1.2712  0.9642
  882MOL0     H16414   5.215   8.559   4.338 -0.0506  0.9626 -0.0616
  882MOL0     H16415   5.324   8.421   4.386  1.9128  0.5015 -0.9705
  882MOL0     H16416   5.435   8.580   4.243  0.3773 -1.7310  0.7201
  882MOL0     H16417   5.439   8.709   4.364 -0.3065 -0.1398 -2.3799
  882MOL0     H16418   5.605   8.449   4.392  4.3977  1.5677 -0.9483
  882MOL0     H16419   5.531   8.534   4.530  0.6154 -0.0864  0.5161
  882MOL0     H16420   5.650   8.736   4.485 -0.7616 -0.7439  0.4923
  882MOL0     H16421   5.763   8.603   4.493  0.3058 -2.8031 -0.3904
  882MOL0     H16422   5.807   8.807   4.126  4.3173  0.0562  0.6426
  882MOL0     H16423   5.073   8.400   4.449 -0.6298  0.4629 -0.3179
  882MOL0     H16424   4.959   8.244   4.614 -0.2385  0.1052  1.3853
  883MOL0     O16425   8.517   7.141   6.488  0.1729  0.8653 -0.1346
  883MOL0     C16426   8.544   7.030   6.525 -0.2729 -0.3267 -0.4842
  883MOL0     O16427   8.584   6.995   6.656 -0.4416 -0.2087 -0.1177
  883MOL0     C16428   8.599   7.106   6.744 -0.3555 -0.3195  0.0225
  883MOL0     C16429   8.492   7.148   6.828 -0.5885 -0.3826  0.8433
  883MOL0     C16430   8.504   7.264   6.907  0.6494 -0.0714 -0.3535
  883MOL0     C16431   8.618   7.336   6.910  0.2195 -0.2152  0.1321
  883MOL0     O16432   8.623   7.445   6.991 -0.1990  0.1037 -0.2872
  883MOL0     C16433   8.756   7.478   7.034  0.2274  1.1325 -0.3006
  883MOL0     C16434   8.741   7.569   7.157 -0.2788  0.9534 -0.0411
  883MOL0     C16435   8.883   7.578   7.217 -0.0328 -0.2557  0.3473
  883MOL0     C16436   8.950   7.462   7.291  0.3408  0.2387  0.0162
  883MOL0     C16437   9.079   7.494   7.369  0.4415  0.6715 -0.1544
  883MOL0     C16438   9.200   7.545   7.291 -0.9389  0.3180  0.3498
  883MOL0     C16439   9.212   7.695   7.304  0.3160 -0.2314  0.2948
  883MOL0     C16440   9.298   7.732   7.185 -0.4362 -0.1650  1.1044
  883MOL0     N16441   9.310   7.875   7.170 -0.4542  0.3032  0.2689
  883MOL0     C16442   9.300   7.958   7.281 -0.8847 -0.8980 -0.1987
  883MOL0     C16443   9.291   8.088   7.228  0.1021 -0.2468  0.3032
  883MOL0     C16444   9.280   8.222   7.298  0.8393  0.5627  0.0851
  883MOL0     C16445   9.136   8.239   7.361 -0.5190 -0.1951  0.7092
  883MOL0     C16446   9.145   8.353   7.454 -0.5168 -0.1353 -0.0132
  883MOL0     C16447   9.008   8.372   7.524  0.1637 -0.6493  0.3562
  883MOL0     O16448   9.013   8.496   7.595  0.2019 -0.9800 -0.3872
  883MOL0     C16449   8.900   8.543   7.662  0.3838  0.7114  0.4121
  883MOL0     C16450   8.791   8.458   7.693 -0.4320 -0.0473 -0.0898
  883MOL0     C16451   8.692   8.511   7.790  0.0579  0.3910 -0.2164
  883MOL0     C16452   8.686   8.652   7.824 -1.1779 -0.1639  0.2301
  883MOL0     C16453   8.578   8.713   7.907 -0.1070  0.9168 -0.3714
  883MOL0     O16454   8.584   8.850   7.921 -0.7820 -0.1181  0.8197
  883MOL0     C16455   8.472   8.903   7.983 -0.0898  0.5635 -0.0562
  883MOL0     C16456   8.403   8.990   7.908  0.2116  0.7855 -0.0443
  883MOL0     C16457   8.279   9.049   7.943 -0.0384  0.6570  0.2107
  883MOL0     C16458   8.236   9.026   8.080  0.2999  0.4000  0.3440
  883MOL0     O16459   8.131   9.082   8.140 -0.3733  0.5018  0.1193
  883MOL0     C16460   8.048   9.179   8.072 -0.4464 -0.5167  0.3064
  883MOL0     C16461   7.908   9.194   8.140  0.1805  0.2009  0.4643
  883MOL0     C16462   7.802   9.259   8.044 -0.3789  0.2079 -0.8788
  883MOL0     C16463   7.679   9.288   8.130  1.2963  0.2517 -0.3767
  883MOL0     C16464   7.571   9.332   8.037 -0.2139  0.8642  0.3376
  883MOL0     C16465   7.450   9.398   8.104 -0.2460 -0.1324 -0.2921
  883MOL0     C16466   7.488   9.535   8.177 -1.2141  0.8399  0.7833
  883MOL0     C16467   7.355   9.586   8.229 -0.4759 -0.1785 -0.7730
  883MOL0    Cl16468   7.272   9.681   8.102 -0.4098  0.4130  0.2806
  883MOL0     C16469   8.305   8.933   8.162 -0.0113  0.3797  0.3205
  883MOL0     C16470   8.423   8.870   8.106  0.9288  0.4435 -0.7876
  883MOL0     O16471   8.497   8.633   7.955  0.0522 -0.2351  1.1518
  883MOL0     C16472   8.783   8.731   7.785  0.0556  0.3835  0.3222
  883MOL0     C16473   8.897   8.674   7.720  0.9371  0.6736  0.7509
  883MOL0     N16474   9.278   8.072   7.087 -0.4032 -0.1251 -0.0840
  883MOL0     N16475   9.289   7.945   7.056  0.5816 -0.7269  0.1432
  883MOL0     C16476   8.719   7.296   6.827 -0.3846 -0.2564  0.5794
  883MOL0     C16477   8.716   7.188   6.743  0.1992  0.4309 -0.1489
  883MOL0     C16478   8.529   6.916   6.424 -0.3262 -0.0613  0.1765
  883MOL0     C16479   8.514   6.936   6.287  0.0779 -0.0288 -0.3906
  883MOL0     C16480   8.509   6.824   6.210  0.1951 -0.0709  0.7111
  883MOL0     C16481   8.533   6.696   6.255 -1.4754 -0.0995 -0.6870
  883MOL0     O16482   8.545   6.584   6.181 -0.4014  0.1098 -0.1855
  883MOL0     C16483   8.534   6.611   6.039 -0.1261  0.7288 -0.4092
  883MOL0     C16484   8.534   6.477   5.957  0.3247  0.8660  0.9328
  883MOL0     C16485   8.672   6.415   5.959 -0.5770 -0.4851  0.3669
  883MOL0     C16486   8.685   6.284   5.872  0.0949  0.7238  0.6774
  883MOL0     C16487   8.611   6.167   5.929 -0.6305 -0.2173 -0.0085
  883MOL0     C16488   8.542   6.080   5.968  0.0704 -0.7684 -0.8700
  883MOL0     C16489   8.548   6.681   6.395  0.6177  0.0649  0.3879
  883MOL0     C16490   8.540   6.785   6.476 -0.0059 -0.5715  0.5920
  883MOL0     H16491   8.401   7.090   6.823 -2.2318  2.1587 -0.7436
  883MOL0     H16492   8.417   7.299   6.962 -0.8613 -0.1756 -2.5546
  883MOL0     H16493   8.811   7.534   6.958  1.9518 -1.2156 -0.9186
  883MOL0     H16494   8.812   7.387   7.055 -1.1982 -0.2612 -2.1667
  883MOL0     H16495   8.665   7.534   7.227 -0.0077  1.6748  0.6371
  883MOL0     H16496   8.712   7.672   7.134  0.2603  0.8774 -1.1162
  883MOL0     H16497   8.880   7.657   7.292 -1.5704 -1.9089  2.1331
  883MOL0     H16498   8.952   7.612   7.139 -1.6615 -0.7845 -1.4108
  883MOL0     H16499   8.878   7.404   7.349 -0.1451 -1.1990 -1.9353
  883MOL0     H16500   8.972   7.405   7.200 -2.1384  0.0838 -0.5545
  883MOL0     H16501   9.109   7.400   7.416  0.4731  1.7403  2.0506
  883MOL0     H16502   9.054   7.568   7.445  0.4780  0.4114  0.1116
  883MOL0     H16503   9.193   7.513   7.187  1.3955  4.1517 -1.2096
  883MOL0     H16504   9.286   7.492   7.332 -2.1299 -4.1545 -2.2280
  883MOL0     H16505   9.111   7.731   7.279  0.1743 -3.0441 -4.4424
  883MOL0     H16506   9.249   7.735   7.398  1.9704  0.4586 -0.6083
  883MOL0     H16507   9.253   7.690   7.095 -0.9967  2.6038  0.0246
  883MOL0     H16508   9.395   7.685   7.204  0.3404  0.3281 -1.3919
  883MOL0     H16509   9.309   7.925   7.384  4.8965 -0.0932 -0.1565
  883MOL0     H16510   9.293   8.303   7.226  0.3185  0.9926  0.4713
  883MOL0     H16511   9.353   8.223   7.380 -1.3101 -2.6111  2.2590
  883MOL0     H16512   9.095   8.151   7.411 -1.2814 -0.2294  0.0471
  883MOL0     H16513   9.070   8.270   7.279 -1.3147  2.3378  2.2121
  883MOL0     H16514   9.212   8.328   7.537 -2.2237  0.0239  1.4812
  883MOL0     H16515   9.177   8.438   7.393  0.5138 -3.1840 -4.2298
  883MOL0     H16516   8.984   8.287   7.589 -1.8118 -0.6607 -0.3314
  883MOL0     H16517   8.933   8.384   7.446  1.2841  1.9901 -0.3979
  883MOL0     H16518   8.782   8.351   7.674  0.9193 -0.7297  2.5702
  883MOL0     H16519   8.618   8.446   7.834 -0.5391  0.9731 -0.3381
  883MOL0     H16520   8.444   9.004   7.809 -0.7682 -0.3636 -0.6397
  883MOL0     H16521   8.237   9.118   7.871 -2.3400 -1.6154 -0.7976
  883MOL0     H16522   8.038   9.147   7.968 -1.2685 -2.9742  1.0707
  883MOL0     H16523   8.089   9.280   8.079 -4.6397  1.5326 -1.4742
  883MOL0     H16524   7.919   9.247   8.235  2.6021  0.3581  0.1637
  883MOL0     H16525   7.866   9.096   8.165  1.0455  0.4487  3.2704
  883MOL0     H16526   7.784   9.186   7.964  2.1066  0.6308 -1.9249
  883MOL0     H16527   7.845   9.345   7.992  0.6707  0.5800  0.5518
  883MOL0     H16528   7.647   9.199   8.183  1.3006  0.2954 -0.3021
  883MOL0     H16529   7.713   9.365   8.200  3.0352 -1.4600  0.7492
  883MOL0     H16530   7.543   9.249   7.972 -3.1433  0.9875  1.2799
  883MOL0     H16531   7.618   9.406   7.971  2.0595  0.8892  1.8912
  883MOL0     H16532   7.413   9.329   8.181  2.5372 -2.3408 -0.7911
  883MOL0     H16533   7.365   9.408   8.036 -0.6255 -0.4679  0.1169
  883MOL0     H16534   7.565   9.525   8.254  0.0141  1.2116 -0.3532
  883MOL0     H16535   7.527   9.601   8.099  0.2914  0.5493  1.2494
  883MOL0     H16536   7.385   9.652   8.311  0.6787 -3.7697  1.9378
  883MOL0     H16537   7.289   9.508   8.269  0.3641 -0.3348  0.3682
  883MOL0     H16538   8.272   8.926   8.265 -1.3539  2.6830  0.1110
  883MOL0     H16539   8.481   8.801   8.166  1.8194  1.3072 -0.6250
  883MOL0     H16540   8.777   8.839   7.793 -0.6417  0.3844 -0.0945
  883MOL0     H16541   8.975   8.748   7.704 -0.0304  1.3927 -1.0768
  883MOL0     H16542   8.807   7.358   6.813  2.1462 -3.5337  0.5211
  883MOL0     H16543   8.807   7.160   6.691  0.0716  0.5312 -0.4309
  883MOL0     H16544   8.497   7.033   6.240 -3.2915 -0.3380 -0.0889
  883MOL0     H16545   8.496   6.850   6.105  2.2679 -2.0530 -0.1363
  883MOL0     H16546   8.615   6.679   6.009  1.9379  0.0001  2.9391
  883MOL0     H16547   8.433   6.652   6.035 -0.0478  1.3858  2.3108
  883MOL0     H16548   8.459   6.407   5.996  2.1040 -1.6691  0.0464
  883MOL0     H16549   8.503   6.510   5.857 -0.4264  2.2706  1.5870
  883MOL0     H16550   8.682   6.388   6.065  0.6992  3.6860  1.4986
  883MOL0     H16551   8.752   6.489   5.950 -2.3485  1.6123  0.9932
  883MOL0     H16552   8.641   6.304   5.773  0.8905 -0.7848 -0.0193
  883MOL0     H16553   8.788   6.251   5.856  0.2264  1.6857 -0.6545
  883MOL0     H16554   8.488   5.996   6.007 -3.1875  1.6018  0.0970
  883MOL0     H16555   8.552   6.584   6.444  2.0993 -0.2422 -0.2677
  883MOL0     H16556   8.548   6.776   6.584 -0.4933 -0.4490  0.6439
  884MOL0     O16557   7.735   0.083   7.622  0.5092  0.2065 -0.0076
  884MOL0     C16558   7.781   0.186   7.576 -0.0357 -0.0001 -1.4081
  884MOL0     O16559   7.704   0.289   7.529 -0.0611 -0.3203 -0.6102
  884MOL0     C16560   7.582   0.300   7.583  0.9856 -0.0569  0.4974
  884MOL0     C16561   7.560   0.331   7.718  0.3095 -0.3948  0.5362
  884MOL0     C16562   7.427   0.356   7.755 -0.1785 -0.5367  0.2589
  884MOL0     C16563   7.311   0.360   7.668 -0.0132 -1.3024  0.5402
  884MOL0     O16564   7.183   0.386   7.701 -0.3114 -0.1973 -0.4905
  884MOL0     C16565   7.156   0.451   7.823  0.3221  0.3144 -0.6090
  884MOL0     C16566   7.011   0.444   7.865  0.3111 -0.1349 -0.6534
  884MOL0     C16567   6.920   0.539   7.793 -0.6919 -0.3924  0.3588
  884MOL0     C16568   6.776   0.552   7.840  0.1768  0.2438 -0.2943
  884MOL0     C16569   6.704   0.664   7.762 -0.2605 -0.4994  0.6280
  884MOL0     C16570   6.570   0.672   7.828 -0.1609  0.0831  0.0292
  884MOL0     C16571   6.462   0.755   7.758 -0.0987  0.3652  0.4491
  884MOL0     C16572   6.347   0.772   7.848  0.0707  0.1662 -0.1690
  884MOL0     N16573   6.246   0.854   7.785  0.1706  0.0180 -0.1331
  884MOL0     C16574   6.248   0.987   7.761 -0.8012 -0.5668 -0.0456
  884MOL0     C16575   6.125   1.022   7.711  0.5460  0.0940 -0.0703
  884MOL0     C16576   6.074   1.164   7.694  0.0114 -0.3858 -0.0252
  884MOL0     C16577   5.943   1.164   7.604 -0.7525  0.7418 -0.1572
  884MOL0     C16578   5.814   1.187   7.685  1.4756  0.5048  0.6964
  884MOL0     C16579   5.791   1.091   7.797 -0.1009 -0.5733  0.0322
  884MOL0     O16580   5.669   1.129   7.858 -0.4633  0.1466 -0.5341
  884MOL0     C16581   5.552   1.073   7.836  0.3851  0.6747 -0.7640
  884MOL0     C16582   5.504   0.991   7.736 -0.5220  0.1937  0.5220
  884MOL0     C16583   5.377   0.927   7.755 -0.0459  0.2615 -0.3177
  884MOL0     C16584   5.299   0.964   7.870  0.9054  0.1827  0.2407
  884MOL0     C16585   5.161   0.903   7.877 -0.2644 -0.0690  0.1039
  884MOL0     O16586   5.091   0.930   7.989 -0.1346 -0.2675 -0.5608
  884MOL0     C16587   4.965   0.873   8.004 -0.1188  0.3670  0.0984
  884MOL0     C16588   4.942   0.751   8.063  0.1661  0.1392  0.2785
  884MOL0     C16589   4.813   0.696   8.079  0.2531 -0.1908 -1.3894
  884MOL0     C16590   4.700   0.760   8.041 -0.8188  0.6597  0.0985
  884MOL0     O16591   4.570   0.714   8.059  0.2348 -0.1450  0.1933
  884MOL0     C16592   4.539   0.599   8.133 -1.4627 -0.0114  0.1951
  884MOL0     C16593   4.390   0.577   8.142 -0.0900 -0.1242 -0.0279
  884MOL0     C16594   4.347   0.534   8.004 -0.3664  0.1444  0.6004
  884MOL0     C16595   4.193   0.530   7.996  0.1520  0.4041 -0.5200
  884MOL0     C16596   4.137   0.427   8.107 -0.2011 -0.9887 -0.1520
  884MOL0     C16597   3.992   0.404   8.089 -0.3846 -0.0439  0.5280
  884MOL0     C16598   3.919   0.358   8.226 -0.4776 -0.3281  0.3711
  884MOL0     C16599   3.825   0.243   8.202 -0.6552 -0.6228 -0.1186
  884MOL0    Cl16600   3.749   0.260   8.042  0.3878  0.1693  0.2070
  884MOL0     C16601   4.725   0.880   7.977  0.1660 -0.4205 -0.3862
  884MOL0     C16602   4.852   0.945   7.963 -0.0994  0.2505  0.5698
  884MOL0     O16603   5.122   0.829   7.786  0.5157  0.0231 -0.3931
  884MOL0     C16604   5.333   1.067   7.957  0.1574 -0.8380  2.0908
  884MOL0     C16605   5.466   1.109   7.943 -0.9812 -0.2359  0.2013
  884MOL0     N16606   6.047   0.917   7.722 -1.1571  0.1725 -0.2290
  884MOL0     N16607   6.110   0.827   7.784 -0.6694 -0.2971 -0.0329
  884MOL0     C16608   7.343   0.341   7.531 -0.5158  0.5105  0.5469
  884MOL0     C16609   7.479   0.316   7.488 -0.2280  0.1366 -0.5526
  884MOL0     C16610   7.925   0.208   7.575 -0.8019  0.0249 -1.3148
  884MOL0     C16611   8.023   0.108   7.611  0.7064 -0.1911  0.2836
  884MOL0     C16612   8.159   0.131   7.610  0.3965 -0.2519  1.2572
  884MOL0     C16613   8.213   0.253   7.584 -0.0506  0.7337  1.2700
  884MOL0     O16614   8.342   0.288   7.588 -0.1597 -0.0133  0.0106
  884MOL0     C16615   8.447   0.189   7.602  0.1148 -0.3610  0.5168
  884MOL0     C16616   8.531   0.215   7.725 -1.4090  0.3543 -0.3203
  884MOL0     C16617   8.618   0.333   7.705  0.0615  0.1063  0.5697
  884MOL0     C16618   8.705   0.364   7.828  0.7887 -0.3211 -1.1756
  884MOL0     C16619   8.803   0.265   7.858  0.7377 -0.2909  0.5412
  884MOL0     C16620   8.882   0.186   7.901 -0.0321  0.9019 -0.5598
  884MOL0     C16621   8.123   0.352   7.552 -0.1746  0.6413 -0.1329
  884MOL0     C16622   7.987   0.329   7.553  0.1678 -0.1718  0.4710
  884MOL0     H16623   7.642   0.317   7.788  1.3553 -1.6990 -0.8665
  884MOL0     H16624   7.407   0.361   7.861 -1.9813 -3.8753  0.2341
  884MOL0     H16625   7.200   0.551   7.822  1.3067 -0.0895  0.1852
  884MOL0     H16626   7.214   0.381   7.885 -1.0194 -1.5914 -1.4081
  884MOL0     H16627   7.011   0.477   7.969  3.6863  1.2024 -0.9583
  884MOL0     H16628   6.963   0.346   7.859 -1.3143  0.6623 -1.4725
  884MOL0     H16629   6.909   0.498   7.692 -3.2966 -3.8153  1.8427
  884MOL0     H16630   6.975   0.634   7.792 -0.4690 -0.5062 -1.1886
  884MOL0     H16631   6.724   0.458   7.822 -1.6610  0.5917  2.5484
  884MOL0     H16632   6.778   0.580   7.946  1.7241  2.6698 -0.8896
  884MOL0     H16633   6.704   0.627   7.659  0.7665 -1.3175  0.9079
  884MOL0     H16634   6.756   0.759   7.759  0.3969 -0.8653 -0.1136
  884MOL0     H16635   6.601   0.725   7.919  1.7514 -2.2384  0.8479
  884MOL0     H16636   6.519   0.578   7.851 -0.1191  0.3516  1.3510
  884MOL0     H16637   6.498   0.854   7.728 -0.7462 -0.1784 -2.4001
  884MOL0     H16638   6.436   0.701   7.666  3.1863 -0.5256 -0.0770
  884MOL0     H16639   6.373   0.819   7.943  1.2867  2.0251 -1.3621
  884MOL0     H16640   6.300   0.674   7.866 -0.2621  0.5286  1.0347
  884MOL0     H16641   6.332   1.056   7.769 -0.1902 -1.3753  0.7856
  884MOL0     H16642   6.158   1.219   7.651  0.4819 -1.7499 -0.9203
  884MOL0     H16643   6.051   1.220   7.785 -1.4053 -0.2283 -0.4605
  884MOL0     H16644   5.949   1.081   7.533  3.2063  1.6480 -1.1316
  884MOL0     H16645   5.940   1.247   7.532 -1.5148  0.2465 -0.7063
  884MOL0     H16646   5.814   1.289   7.722 -1.3388  0.4653  1.0199
  884MOL0     H16647   5.727   1.175   7.619  1.5711 -0.8203  0.7829
  884MOL0     H16648   5.867   1.106   7.875  0.0948 -0.8045 -0.1118
  884MOL0     H16649   5.791   0.986   7.766 -0.8282 -1.7581  3.5519
  884MOL0     H16650   5.564   0.969   7.648  1.9067 -1.3511  2.4435
  884MOL0     H16651   5.330   0.855   7.689 -2.8471 -1.5524  3.2848
  884MOL0     H16652   5.030   0.703   8.103  0.6304  0.9597  0.2646
  884MOL0     H16653   4.806   0.604   8.136  1.4577  0.7462  0.3607
  884MOL0     H16654   4.581   0.601   8.234 -0.8795  1.6270 -0.0626
  884MOL0     H16655   4.582   0.515   8.077 -0.2986  0.1648  0.8115
  884MOL0     H16656   4.339   0.666   8.181  0.3201  0.9017 -1.7342
  884MOL0     H16657   4.368   0.494   8.210  0.2552 -0.7960 -0.7260
  884MOL0     H16658   4.389   0.439   7.969 -0.1021 -0.1210  1.5987
  884MOL0     H16659   4.380   0.605   7.928  0.4803  0.1439  0.9579
  884MOL0     H16660   4.148   0.629   8.010  0.7059  0.4418  1.0936
  884MOL0     H16661   4.159   0.488   7.901  0.6519  1.8654 -1.3878
  884MOL0     H16662   4.151   0.487   8.197 -1.0049  1.6779 -1.6931
  884MOL0     H16663   4.187   0.331   8.125  1.9963  0.4212  1.8580
  884MOL0     H16664   3.987   0.339   8.001 -1.1501  1.4734 -0.6081
  884MOL0     H16665   3.946   0.497   8.053 -0.9189  0.1913  1.7621
  884MOL0     H16666   3.997   0.316   8.291 -2.2717 -2.4850  1.2645
  884MOL0     H16667   3.873   0.449   8.264 -2.1657 -0.1103 -1.9964
  884MOL0     H16668   3.752   0.237   8.283  2.0922 -2.0257  2.4704
  884MOL0     H16669   3.895   0.158   8.200  0.4874  0.3022 -1.5651
  884MOL0     H16670   4.650   0.950   7.941  1.6495  1.8706  0.7079
  884MOL0     H16671   4.867   1.044   7.920  5.2667 -0.9539 -1.1104
  884MOL0     H16672   5.265   1.115   8.027 -0.5034  0.9570  0.3176
  884MOL0     H16673   5.510   1.180   8.013  1.5052  0.0645 -1.5369
  884MOL0     H16674   7.271   0.336   7.451 -0.5472 -1.4283  0.6424
  884MOL0     H16675   7.515   0.309   7.385  0.4970 -1.1928 -0.2383
  884MOL0     H16676   7.992   0.005   7.625  2.6904 -1.6698 -4.2490
  884MOL0     H16677   8.222   0.044   7.627  2.0112 -0.0854 -2.8330
  884MOL0     H16678   8.509   0.177   7.513 -0.2544  0.8153  0.0859
  884MOL0     H16679   8.419   0.084   7.619  4.5996 -2.0451 -1.0330
  884MOL0     H16680   8.465   0.237   7.809 -0.8881  1.3116 -0.1472
  884MOL0     H16681   8.591   0.125   7.746 -0.2856  0.5516 -2.4620
  884MOL0     H16682   8.560   0.423   7.683 -0.6608 -0.4965 -0.0606
  884MOL0     H16683   8.685   0.312   7.621  2.3986 -1.5601  2.7261
  884MOL0     H16684   8.763   0.449   7.793  0.0807 -0.7191 -3.5644
  884MOL0     H16685   8.642   0.383   7.915 -0.6510  0.3904 -2.3263
  884MOL0     H16686   8.958   0.120   7.937 -2.2801 -0.7451  1.4820
  884MOL0     H16687   8.163   0.448   7.521 -1.5856  1.2237 -0.2279
  884MOL0     H16688   7.933   0.423   7.542  0.4114 -0.1516 -0.7310
  885MOL0     O16689   1.132  10.577   7.758 -0.6166 -0.2332  0.5174
  885MOL0     C16690   1.046  10.560   7.851  0.6993  0.5512  1.4646
  885MOL0     O16691   1.042  10.627   7.974  0.0912 -0.3613  0.4310
  885MOL0     C16692   1.131  10.725   7.998  0.1329  0.6043  0.0617
  885MOL0     C16693   1.263  10.692   8.039 -0.1520 -0.4365 -0.5043
  885MOL0     C16694   1.341  10.795   8.080 -0.0342  0.0815  0.2352
  885MOL0     C16695   1.303  10.933   8.062  0.1087  0.1246 -0.3610
  885MOL0     O16696   1.373  11.050   8.100 -0.4441  0.2254  0.0213
  885MOL0     C16697   1.499  11.048   8.159 -0.1186  0.7115  0.3339
  885MOL0     C16698   1.608  11.008   8.063 -0.1742  0.3119 -0.3689
  885MOL0     C16699   1.734  11.093   8.106 -0.0196 -0.4935 -0.3285
  885MOL0     C16700   1.721  11.224   8.026 -0.1726 -0.5614  0.5714
  885MOL0     C16701   1.855  11.288   8.049 -0.5597  0.0777 -0.0762
  885MOL0     C16702   1.854  11.421   7.966 -0.0821 -0.0073 -0.2039
  885MOL0     C16703   1.983  11.497   8.007 -0.7294 -0.0665  0.4527
  885MOL0     C16704   2.007  11.624   7.934 -0.3737 -0.7224  0.2868
  885MOL0     N16705   2.022  11.609   7.782  1.1266 -0.2706 -0.2853
  885MOL0     C16706   2.129  11.672   7.714  0.2609  0.1401  0.0497
  885MOL0     C16707   2.094  11.650   7.582  0.2759 -0.1983  0.0319
  885MOL0     C16708   2.170  11.700   7.458 -1.2739  0.9811 -0.6373
  885MOL0     C16709   2.208  11.566   7.382 -0.2252 -0.6009 -0.5355
  885MOL0     C16710   2.103  11.522   7.285 -0.1318 -0.4793 -0.1493
  885MOL0     C16711   2.126  11.378   7.272 -0.5059  0.0762  0.4223
  885MOL0     O16712   2.045  11.321   7.166 -0.0048 -1.2251  0.4757
  885MOL0     C16713   1.919  11.285   7.189 -0.2833 -0.3980 -0.2106
  885MOL0     C16714   1.847  11.253   7.072  0.2919 -0.6125 -0.3412
  885MOL0     C16715   1.712  11.235   7.073  0.6131 -0.3434  0.3820
  885MOL0     C16716   1.643  11.228   7.196 -0.2777  0.5455 -0.6285
  885MOL0     C16717   1.491  11.214   7.202  0.7022 -0.4943  0.4225
  885MOL0     O16718   1.437  11.215   7.321 -0.2929 -0.0991  0.2326
  885MOL0     C16719   1.295  11.196   7.325 -0.0165 -0.9389 -0.0466
  885MOL0     C16720   1.207  11.282   7.383  1.1264  0.0741 -0.1445
  885MOL0     C16721   1.070  11.259   7.373 -0.2876 -0.3239 -0.3528
  885MOL0     C16722   1.018  11.158   7.289 -0.3311 -0.3132  0.1602
  885MOL0     O16723   0.880  11.135   7.275 -0.1738  0.1790 -0.4908
  885MOL0     C16724   0.796  11.187   7.382 -0.4650 -0.4781 -0.1951
  885MOL0     C16725   0.656  11.150   7.344  0.6299  0.6817  0.5472
  885MOL0     C16726   0.608  11.007   7.381 -0.2026 -0.1173  1.1558
  885MOL0     C16727   0.494  10.962   7.293 -0.0257 -0.3611 -0.2742
  885MOL0     C16728   0.474  10.806   7.297 -0.5305 -0.0806 -0.3668
  885MOL0     C16729   0.380  10.748   7.199 -0.0898 -0.0306  0.9066
  885MOL0     C16730   0.243  10.807   7.205  0.8940  0.3537  0.0597
  885MOL0     C16731   0.169  10.767   7.328  0.4238 -0.1471  0.0662
  885MOL0    Cl16732  -0.006  10.821   7.327 -0.8648  0.0350 -0.5073
  885MOL0     C16733   1.102  11.069   7.230 -0.0932 -0.2500  0.1287
  885MOL0     C16734   1.243  11.084   7.254  0.5929 -0.2109 -0.0874
  885MOL0     O16735   1.435  11.221   7.097 -0.7030 -0.2463 -0.2161
  885MOL0     C16736   1.721  11.256   7.308  0.5728 -0.6112 -0.4821
  885MOL0     C16737   1.854  11.277   7.308  0.0995 -0.3788 -0.0246
  885MOL0     N16738   1.970  11.578   7.577 -0.2856 -0.3008  0.1773
  885MOL0     N16739   1.934  11.552   7.695  0.0049 -0.8788 -0.3734
  885MOL0     C16740   1.171  10.962   8.027 -0.2038 -0.1125 -0.5017
  885MOL0     C16741   1.088  10.855   8.014 -0.6388  0.2174  0.3618
  885MOL0     C16742   0.936  10.468   7.840  0.0250  0.4476 -0.2299
  885MOL0     C16743   0.861  10.425   7.955 -0.0402  0.0571 -0.0825
  885MOL0     C16744   0.745  10.334   7.950  0.1035 -0.3438  0.9058
  885MOL0     C16745   0.727  10.280   7.823  0.6837  0.0355 -0.9280
  885MOL0     O16746   0.634  10.180   7.797  0.9295  0.1995 -0.5954
  885MOL0     C16747   0.545  10.130   7.907  0.0298 -0.2593  0.0808
  885MOL0     C16748   0.606  10.008   7.978 -0.0746 -0.7145  0.3561
  885MOL0     C16749   0.483   9.918   8.008  0.0405 -0.3696  0.4446
  885MOL0     C16750   0.521   9.807   8.107  1.2265 -0.0915  0.0093
  885MOL0     C16751   0.392   9.761   8.155  0.5347  0.8988 -0.1746
  885MOL0     C16752   0.273   9.736   8.194  0.6467 -0.2625  0.7765
  885MOL0     C16753   0.790  10.334   7.715 -0.2723  0.1611  0.7310
  885MOL0     C16754   0.893  10.426   7.720 -0.3019 -0.3245  0.4998
  885MOL0     H16755   1.302  10.591   8.047  2.4347  0.5650  0.5577
  885MOL0     H16756   1.433  10.755   8.121  0.6002 -0.5934 -1.7071
  885MOL0     H16757   1.521  10.983   8.243  3.5580  0.9426 -0.2957
  885MOL0     H16758   1.505  11.152   8.193 -0.0266  1.1753 -1.0509
  885MOL0     H16759   1.586  11.030   7.958 -0.8605  2.5303  0.1865
  885MOL0     H16760   1.626  10.901   8.073 -0.8327  0.1324 -1.0753
  885MOL0     H16761   1.821  11.040   8.067  0.5770 -0.1362  0.5093
  885MOL0     H16762   1.749  11.108   8.213 -0.3230  2.0144 -0.5652
  885MOL0     H16763   1.711  11.213   7.918  0.8985  1.4541  0.2149
  885MOL0     H16764   1.642  11.287   8.068  0.4167 -0.2506  1.2596
  885MOL0     H16765   1.939  11.222   8.026 -0.9096 -0.4109  0.0295
  885MOL0     H16766   1.861  11.311   8.155 -0.7860 -1.7183  0.3485
  885MOL0     H16767   1.765  11.481   7.986  0.1558  0.5057 -0.6554
  885MOL0     H16768   1.856  11.400   7.859  0.4285 -2.2686  0.2077
  885MOL0     H16769   1.958  11.518   8.112  1.3382  3.4222  0.4399
  885MOL0     H16770   2.076  11.439   8.003 -0.6363  0.1468 -0.8432
  885MOL0     H16771   2.094  11.681   7.969  0.2654 -0.7530 -1.2037
  885MOL0     H16772   1.914  11.682   7.943 -0.8152 -1.0547 -1.6473
  885MOL0     H16773   2.214  11.726   7.753 -0.7421  1.3666  0.5991
  885MOL0     H16774   2.260  11.745   7.501 -0.1762 -1.6519  0.0684
  885MOL0     H16775   2.127  11.780   7.398  2.1633  1.4577 -2.7643
  885MOL0     H16776   2.251  11.487   7.444 -0.7326 -0.8132 -0.4541
  885MOL0     H16777   2.295  11.596   7.322  4.2279 -4.4571  3.2484
  885MOL0     H16778   1.998  11.547   7.305 -0.3645 -0.2680 -1.5768
  885MOL0     H16779   2.113  11.560   7.184 -0.9527 -3.0316 -1.2786
  885MOL0     H16780   2.115  11.324   7.366 -0.5306 -2.6227 -1.0206
  885MOL0     H16781   2.229  11.370   7.236  0.7715  0.1211  3.7712
  885MOL0     H16782   1.913  11.247   6.985 -0.6147  1.5728 -1.2493
  885MOL0     H16783   1.660  11.213   6.980  2.6746  1.1877 -1.2098
  885MOL0     H16784   1.250  11.365   7.438  2.3385 -1.7931  1.8898
  885MOL0     H16785   1.014  11.330   7.434  0.8547  0.0452  0.3028
  885MOL0     H16786   0.800  11.296   7.393  1.7664 -0.4700 -0.4646
  885MOL0     H16787   0.818  11.147   7.481  0.6962 -1.5215 -0.8429
  885MOL0     H16788   0.644  11.177   7.239  3.0476  2.7651  0.7259
  885MOL0     H16789   0.587  11.216   7.397  0.5179 -0.6169  2.0873
  885MOL0     H16790   0.588  10.998   7.488  2.8562 -2.0650  1.6789
  885MOL0     H16791   0.698  10.948   7.365  1.3545  1.8212  2.2203
  885MOL0     H16792   0.397  10.991   7.333 -0.5167  0.5111 -2.0011
  885MOL0     H16793   0.513  11.003   7.193  0.1810  1.8474  0.6172
  885MOL0     H16794   0.439  10.783   7.398  2.2252 -1.1669  0.4400
  885MOL0     H16795   0.573  10.760   7.290 -0.9091 -0.6897 -2.6867
  885MOL0     H16796   0.372  10.639   7.205  0.3484 -0.1069  0.1993
  885MOL0     H16797   0.417  10.764   7.097 -2.4222  0.8071  0.1336
  885MOL0     H16798   0.242  10.916   7.194  0.6503  0.5077  1.4271
  885MOL0     H16799   0.203  10.758   7.117  1.4767 -1.8455  0.9648
  885MOL0     H16800   0.202  10.818   7.419  3.6651  1.2091 -1.6998
  885MOL0     H16801   0.167  10.659   7.343  0.2627  0.0083  1.2762
  885MOL0     H16802   1.058  11.005   7.154  0.7017  2.1147 -2.4730
  885MOL0     H16803   1.306  11.013   7.201 -0.2384  0.5979 -2.2728
  885MOL0     H16804   1.673  11.256   7.405  0.7757 -0.0673 -0.3784
  885MOL0     H16805   1.901  11.301   7.402  2.3197  0.8984 -1.3747
  885MOL0     H16806   1.150  11.069   8.028  2.1251  0.4189 -1.2654
  885MOL0     H16807   0.983  10.874   7.994 -0.5737 -0.6953 -0.9639
  885MOL0     H16808   0.884  10.458   8.055 -2.2821 -1.7796  1.1245
  885MOL0     H16809   0.698  10.296   8.040 -1.2716 -4.7948 -1.4155
  885MOL0     H16810   0.450  10.111   7.855 -0.6634  0.3906  1.0737
  885MOL0     H16811   0.529  10.206   7.985  0.8134  0.9578 -0.9055
  885MOL0     H16812   0.666   9.956   7.902  0.2352  2.0581 -1.4726
  885MOL0     H16813   0.673  10.036   8.060  0.2205 -3.4381  1.1343
  885MOL0     H16814   0.440   9.892   7.911  1.9492  2.5669 -1.3610
  885MOL0     H16815   0.408   9.979   8.059  0.7711  1.2993 -0.3634
  885MOL0     H16816   0.578   9.733   8.051  0.6431 -0.2313 -0.4143
  885MOL0     H16817   0.576   9.831   8.198  0.1427 -1.1740  0.9963
  885MOL0     H16818   0.173   9.726   8.232  0.3546  0.8033  0.3124
  885MOL0     H16819   0.750  10.296   7.621 -3.4189  0.1411  1.9459
  885MOL0     H16820   0.926  10.463   7.623 -0.0641 -0.4914  0.5177
  886MOL0     O16821   7.611   8.708  10.896  0.8321 -0.0874  0.0476
  886MOL0     C16822   7.643   8.737  11.012 -0.4154  0.0299 -1.1013
  886MOL0     O16823   7.557   8.788  11.103 -0.0767  0.5925  0.9894
  886MOL0     C16824   7.417   8.798  11.079 -0.6602  1.1040 -0.3921
  886MOL0     C16825   7.343   8.905  11.121  0.5124  0.5759 -0.1745
  886MOL0     C16826   7.204   8.913  11.120 -0.3535 -0.0998 -0.3439
  886MOL0     C16827   7.130   8.798  11.084  0.3774 -0.5413 -0.4630
  886MOL0     O16828   6.999   8.792  11.076 -0.1071 -0.2367  0.4868
  886MOL0     C16829   6.934   8.889  10.990  0.7935  0.2292  0.1956
  886MOL0     C16830   6.860   8.815  10.884 -0.4126  0.1521  0.0063
  886MOL0     C16831   6.738   8.901  10.846  0.0239  0.0488  0.2326
  886MOL0     C16832   6.663   8.814  10.738  0.6057 -0.7524  0.6820
  886MOL0     C16833   6.524   8.871  10.712 -0.5059 -1.2391 -0.5273
  886MOL0     C16834   6.537   9.024  10.676 -0.0735  0.4051 -0.2860
  886MOL0     C16835   6.404   9.091  10.631 -0.3933 -0.6028 -0.3484
  886MOL0     C16836   6.314   9.117  10.758  0.4722  0.5695 -0.5885
  886MOL0     N16837   6.189   9.173  10.718  0.3700  0.1020  0.5004
  886MOL0     C16838   6.166   9.303  10.670 -0.2225 -0.0816 -0.3565
  886MOL0     C16839   6.030   9.322  10.669  0.7861  0.0690 -0.6138
  886MOL0     C16840   5.961   9.445  10.616  0.2202 -0.9487 -0.4104
  886MOL0     C16841   5.815   9.410  10.571 -0.0107  0.1399  0.0952
  886MOL0     C16842   5.723   9.531  10.535  1.0488  0.7177  0.4261
  886MOL0     C16843   5.575   9.490  10.517 -0.8460 -0.1706 -0.4643
  886MOL0     O16844   5.519   9.609  10.463 -0.1630  0.3014  0.1252
  886MOL0     C16845   5.385   9.615  10.432  0.4798  0.2812  0.3397
  886MOL0     C16846   5.337   9.678  10.314 -0.7296  0.6337 -0.4427
  886MOL0     C16847   5.202   9.695  10.294 -0.3790 -0.0964  0.8031
  886MOL0     C16848   5.106   9.661  10.395  0.0295  0.2034  0.3974
  886MOL0     C16849   4.968   9.693  10.380  0.2604 -0.2978 -0.5688
  886MOL0     O16850   4.886   9.680  10.492  0.4423 -0.6700  0.2253
  886MOL0     C16851   4.752   9.715  10.489 -0.9855 -0.0378  0.1351
  886MOL0     C16852   4.682   9.792  10.392 -0.2944 -0.2844  0.3750
  886MOL0     C16853   4.538   9.794  10.398 -0.0250  0.1203 -0.3293
  886MOL0     C16854   4.473   9.751  10.514  0.6284 -0.7822  0.0955
  886MOL0     O16855   4.344   9.802  10.527  0.6063  0.8710 -0.1764
  886MOL0     C16856   4.264   9.782  10.650  0.0402  0.0325  0.3614
  886MOL0     C16857   4.180   9.651  10.642 -0.6378  0.3510  0.5523
  886MOL0     C16858   4.054   9.663  10.554  0.4690 -0.6577 -0.6800
  886MOL0     C16859   3.952   9.549  10.555 -0.0754  0.5062 -0.1805
  886MOL0     C16860   3.821   9.596  10.485  0.1235 -0.2824 -0.1131
  886MOL0     C16861   3.739   9.672  10.584  0.4263 -0.1541  0.1480
  886MOL0     C16862   3.596   9.700  10.544 -0.0868 -0.3980  0.6387
  886MOL0     C16863   3.522   9.781  10.652  1.1553  0.5877  0.6777
  886MOL0    Cl16864   3.349   9.781  10.609 -0.3162  0.2565 -0.2440
  886MOL0     C16865   4.547   9.693  10.619 -1.1057  1.2324  0.5264
  886MOL0     C16866   4.685   9.668  10.608 -0.1428 -0.2787  0.2587
  886MOL0     O16867   4.928   9.729  10.267  0.4255  0.1512 -0.4083
  886MOL0     C16868   5.152   9.586  10.508  0.6855  0.2120  0.2668
  886MOL0     C16869   5.289   9.568  10.517 -0.0003 -0.2458 -0.8014
  886MOL0     N16870   5.971   9.214  10.733  0.1385  0.4781  0.6318
  886MOL0     N16871   6.063   9.123  10.750  0.1064 -0.4816 -0.3884
  886MOL0     C16872   7.202   8.686  11.043 -0.5309  0.4298 -0.3193
  886MOL0     C16873   7.342   8.694  11.031 -0.6356  0.1964  0.3416
  886MOL0     C16874   7.787   8.710  11.051 -0.4609  0.4279 -0.2429
  886MOL0     C16875   7.842   8.743  11.176  0.2492  0.0762 -0.6472
  886MOL0     C16876   7.965   8.696  11.214 -0.7844  0.5682  0.2249
  886MOL0     C16877   8.042   8.616  11.124  1.0243  1.0896 -0.3949
  886MOL0     O16878   8.152   8.567  11.186  0.0422 -0.1802  0.0400
  886MOL0     C16879   8.250   8.508  11.106 -0.0367  0.2585  0.2385
  886MOL0     C16880   8.377   8.517  11.178 -0.9747  0.7141 -0.0978
  886MOL0     C16881   8.481   8.411  11.115  0.5040 -0.2717  0.3616
  886MOL0     C16882   8.621   8.449  11.151 -0.7056 -0.6728  0.4039
  886MOL0     C16883   8.700   8.362  11.069  1.0000 -0.6229 -0.3207
  886MOL0     C16884   8.781   8.297  11.005  0.7194  0.1567 -0.2036
  886MOL0     C16885   7.994   8.587  10.998  0.1127 -0.8467  1.2272
  886MOL0     C16886   7.860   8.624  10.962  0.5244  0.2671  0.2291
  886MOL0     H16887   7.392   8.988  11.171 -0.1428 -0.0808  1.6425
  886MOL0     H16888   7.146   8.996  11.156  0.3008  0.2667 -0.1221
  886MOL0     H16889   6.998   8.954  10.930  1.5976  0.1125  0.9048
  886MOL0     H16890   6.868   8.950  11.053  0.7162  0.4975 -0.1429
  886MOL0     H16891   6.843   8.708  10.899 -0.1547  0.3375  1.8205
  886MOL0     H16892   6.933   8.814  10.802 -0.2831  0.3684  0.1183
  886MOL0     H16893   6.779   8.995  10.808  0.4800  0.0091  0.6221
  886MOL0     H16894   6.673   8.915  10.933  1.8150  2.6495  1.2686
  886MOL0     H16895   6.732   8.801  10.654 -1.1534  2.4941 -1.5246
  886MOL0     H16896   6.637   8.714  10.773 -3.4561 -1.8742 -4.2709
  886MOL0     H16897   6.454   8.873  10.795  0.4910  0.4476  0.3270
  886MOL0     H16898   6.473   8.819  10.630 -0.2871 -2.7487  0.2449
  886MOL0     H16899   6.595   9.047  10.587  1.6461 -1.0841  0.3846
  886MOL0     H16900   6.573   9.085  10.760 -1.1908  0.0460  0.4834
  886MOL0     H16901   6.423   9.192  10.591  1.1245 -0.3871  0.7840
  886MOL0     H16902   6.347   9.041  10.552  1.9396 -0.9856 -1.8910
  886MOL0     H16903   6.359   9.190  10.826  2.2995  2.2255 -3.3639
  886MOL0     H16904   6.291   9.023  10.809 -1.9292  1.8555  0.8486
  886MOL0     H16905   6.237   9.378  10.638  1.4263  0.4461  3.9002
  886MOL0     H16906   6.027   9.488  10.540  2.4927 -1.0986  1.3450
  886MOL0     H16907   5.964   9.516  10.700  0.0528 -2.1651  0.6561
  886MOL0     H16908   5.763   9.344  10.642 -0.2302 -1.4735 -1.5043
  886MOL0     H16909   5.831   9.348  10.483 -0.6918  2.3144 -1.6344
  886MOL0     H16910   5.732   9.614  10.606  1.3348 -0.9294  2.4143
  886MOL0     H16911   5.752   9.576  10.439 -2.9423  0.7980 -0.9399
  886MOL0     H16912   5.528   9.455  10.609 -1.6131  1.1085 -0.3477
  886MOL0     H16913   5.561   9.414  10.440 -0.6356 -1.9060  1.1208
  886MOL0     H16914   5.427   9.697  10.256 -0.2298  0.6763  0.3288
  886MOL0     H16915   5.168   9.748  10.205 -0.7578 -0.6973  0.5827
  886MOL0     H16916   4.739   9.844  10.316  0.9019 -0.5392  1.0636
  886MOL0     H16917   4.471   9.822  10.318 -0.0531 -1.3630 -0.8495
  886MOL0     H16918   4.192   9.862  10.671 -2.4251 -2.2699  1.2317
  886MOL0     H16919   4.328   9.791  10.738  1.8300  3.1802 -1.0864
  886MOL0     H16920   4.155   9.622  10.744  1.0787 -3.4464  0.0603
  886MOL0     H16921   4.246   9.570  10.610 -2.4103 -0.6896 -0.6099
  886MOL0     H16922   4.093   9.676  10.453  3.1092 -0.2883  0.3087
  886MOL0     H16923   3.997   9.755  10.563 -0.6919 -1.2762 -1.4102
  886MOL0     H16924   3.988   9.464  10.498  1.9635  1.2247 -0.0251
  886MOL0     H16925   3.938   9.512  10.657  1.3435 -1.6960 -0.7312
  886MOL0     H16926   3.774   9.503  10.453  1.1388 -1.4661  1.6460
  886MOL0     H16927   3.841   9.653  10.394  1.6450 -2.5107 -1.2692
  886MOL0     H16928   3.789   9.768  10.599 -1.5374  1.0917 -0.7818
  886MOL0     H16929   3.736   9.616  10.677  2.5143 -2.4654 -1.0651
  886MOL0     H16930   3.585   9.746  10.445 -1.7849 -1.9481  0.0432
  886MOL0     H16931   3.542   9.608  10.520  1.4429 -0.9096 -0.9999
  886MOL0     H16932   3.549   9.887  10.659  0.0556  0.9508 -0.3682
  886MOL0     H16933   3.538   9.745  10.754  1.1874  5.2446  2.5638
  886MOL0     H16934   4.508   9.664  10.716  1.0334  0.6198  1.2682
  886MOL0     H16935   4.735   9.608  10.683 -1.7890 -1.6850  0.2898
  886MOL0     H16936   5.087   9.550  10.587 -1.3872  1.4356 -0.7853
  886MOL0     H16937   5.322   9.508  10.602  1.6386  0.0738 -1.1804
  886MOL0     H16938   7.150   8.596  11.010  1.5714 -2.1093  2.7133
  886MOL0     H16939   7.384   8.597  11.006  0.2406  0.3114  1.2717
  886MOL0     H16940   7.786   8.813  11.238  1.0890  1.1814 -1.0989
  886MOL0     H16941   7.997   8.694  11.318  2.6668  0.7716 -0.7082
  886MOL0     H16942   8.266   8.553  11.008 -0.3474 -0.7844 -0.3142
  886MOL0     H16943   8.214   8.412  11.067  0.9170  0.4608 -1.1944
  886MOL0     H16944   8.419   8.618  11.173  0.4707  0.3610  2.7040
  886MOL0     H16945   8.370   8.480  11.281 -0.0862 -4.7596 -1.7191
  886MOL0     H16946   8.476   8.417  11.005  1.9416  0.7448  0.3366
  886MOL0     H16947   8.459   8.308  11.145  1.2679 -0.8678 -1.0065
  886MOL0     H16948   8.643   8.554  11.129 -1.4337 -0.8410 -1.2694
  886MOL0     H16949   8.641   8.434  11.257  1.7995 -2.4243 -0.2178
  886MOL0     H16950   8.841   8.238  10.938  3.2692  1.0052  1.2249
  886MOL0     H16951   8.055   8.519  10.939  2.1931  2.2058 -0.3799
  886MOL0     H16952   7.815   8.593  10.868  1.8126 -0.5170 -0.1602
  887MOL0     O16953  11.055   3.294   1.392 -0.4712  0.0625 -0.1220
  887MOL0     C16954  11.165   3.340   1.354  0.6210  0.1258  0.7435
  887MOL0     O16955  11.210   3.462   1.385 -0.0040  0.1259  0.1455
  887MOL0     C16956  11.138   3.547   1.463 -0.8227  0.6924  0.2060
  887MOL0     C16957  11.084   3.657   1.402  0.0368 -0.5577  1.4692
  887MOL0     C16958  11.029   3.762   1.479  0.2233 -0.2539 -0.8759
  887MOL0     C16959  11.002   3.745   1.619 -0.6791  0.5389  1.2586
  887MOL0     O16960  10.934   3.841   1.686  0.4289  0.0254  0.1325
  887MOL0     C16961  10.825   3.784   1.756 -0.3889  0.6512  0.0228
  887MOL0     C16962  10.755   3.894   1.829 -0.2820 -0.1149  0.3070
  887MOL0     C16963  10.609   3.857   1.822 -0.2316  0.1941 -0.1396
  887MOL0     C16964  10.512   3.949   1.902 -0.2290  0.3467  0.0692
  887MOL0     C16965  10.375   3.874   1.915 -0.4017 -0.3371  0.0790
  887MOL0     C16966  10.261   3.946   1.977  0.7815 -0.9691  0.7769
  887MOL0     C16967  10.126   3.855   1.972  0.3130 -0.3665 -0.1218
  887MOL0     C16968  10.004   3.917   2.039  0.4293  0.4840  0.1061
  887MOL0     N16969   9.889   3.829   2.076  0.1509  0.5354  0.5604
  887MOL0     C16970   9.899   3.734   2.178 -0.3685 -0.1259  0.2628
  887MOL0     C16971   9.769   3.699   2.198  0.6323  0.0154  0.4582
  887MOL0     C16972   9.727   3.579   2.286 -0.2402 -0.1859  0.2838
  887MOL0     C16973   9.589   3.598   2.348 -0.7600 -0.7820  0.5891
  887MOL0     C16974   9.526   3.467   2.387  0.9706  0.4557 -0.5388
  887MOL0     C16975   9.372   3.473   2.417 -0.3771 -0.8807 -0.7496
  887MOL0     O16976   9.364   3.553   2.539  0.1137  0.5029 -0.3111
  887MOL0     C16977   9.234   3.557   2.590 -0.2044 -0.0869 -0.8153
  887MOL0     C16978   9.123   3.496   2.547 -0.2911  0.7461  0.5237
  887MOL0     C16979   9.000   3.505   2.613  0.9034  0.0037  0.8009
  887MOL0     C16980   8.991   3.574   2.734 -0.1929  0.9227 -0.1020
  887MOL0     C16981   8.868   3.565   2.821  0.4293  0.1333  0.0726
  887MOL0     O16982   8.757   3.620   2.760  0.0338  0.3580  0.0122
  887MOL0     C16983   8.646   3.608   2.842 -0.0535 -0.1482  0.8330
  887MOL0     C16984   8.559   3.502   2.838 -0.1673 -0.0062  0.1775
  887MOL0     C16985   8.433   3.500   2.905 -0.4187  0.6016  0.2903
  887MOL0     C16986   8.414   3.605   2.993  1.1793  0.8638 -0.0986
  887MOL0     O16987   8.302   3.616   3.069 -0.5297 -0.2602 -0.2880
  887MOL0     C16988   8.216   3.506   3.103  0.1183  0.4266 -0.1748
  887MOL0     C16989   8.099   3.550   3.185 -0.5204 -0.4162 -0.1557
  887MOL0     C16990   8.145   3.626   3.313  0.7930  0.0814  0.9145
  887MOL0     C16991   8.023   3.661   3.404 -0.0080 -0.2773  0.5843
  887MOL0     C16992   8.065   3.711   3.540 -0.1294 -0.2106 -0.0882
  887MOL0     C16993   7.953   3.730   3.648  0.7940 -0.1726  0.0408
  887MOL0     C16994   7.888   3.600   3.702  0.2308 -0.1130 -0.0325
  887MOL0     C16995   7.988   3.506   3.788 -0.1294  0.4715  0.3157
  887MOL0    Cl16996   8.029   3.610   3.929  0.1135  0.5689  0.3270
  887MOL0     C16997   8.502   3.710   3.004  0.3024 -0.2803 -0.4814
  887MOL0     C16998   8.616   3.716   2.927 -0.1869  0.5036 -0.2543
  887MOL0     O16999   8.880   3.529   2.940  0.1357  0.1826  0.3976
  887MOL0     C17000   9.101   3.649   2.778  0.6954 -0.2426 -0.7582
  887MOL0     C17001   9.219   3.638   2.708 -0.1867  0.9354  0.3219
  887MOL0     N17002   9.685   3.776   2.116  0.6378  0.3675 -0.2509
  887MOL0     N17003   9.756   3.860   2.052 -0.1306 -0.0086 -0.6321
  887MOL0     C17004  11.047   3.623   1.680  0.2766 -0.2657  0.2019
  887MOL0     C17005  11.111   3.527   1.598 -0.0524 -0.2604 -0.3665
  887MOL0     C17006  11.235   3.250   1.260  0.0112 -0.3006  0.6362
  887MOL0     C17007  11.328   3.294   1.167 -0.0884 -0.8397  0.3744
  887MOL0     C17008  11.394   3.196   1.097  0.4338 -0.1263 -0.2637
  887MOL0     C17009  11.363   3.059   1.105  0.5037  0.0175 -0.2905
  887MOL0     O17010  11.425   2.958   1.041 -0.2201 -0.0905 -0.1454
  887MOL0     C17011  11.512   2.989   0.928 -0.6060  0.2655 -0.6057
  887MOL0     C17012  11.529   2.861   0.842  0.5120  0.4018 -0.3610
  887MOL0     C17013  11.416   2.823   0.753 -0.0482 -0.6259 -0.2555
  887MOL0     C17014  11.426   2.683   0.702  0.4462 -0.5378  0.6183
  887MOL0     C17015  11.540   2.656   0.610 -0.1128  0.0069  0.4461
  887MOL0     C17016  11.634   2.630   0.535 -0.0727 -0.0981  0.4609
  887MOL0     C17017  11.266   3.016   1.191 -0.5147 -0.1563 -0.5908
  887MOL0     C17018  11.209   3.115   1.280  0.8748 -0.3967 -0.1697
  887MOL0     H17019  11.099   3.681   1.298  0.1951  0.4254  1.7095
  887MOL0     H17020  10.984   3.854   1.445 -1.6900 -0.3622  1.1199
  887MOL0     H17021  10.854   3.717   1.838  1.5563  2.6495  1.0406
  887MOL0     H17022  10.768   3.731   1.679  1.3388  0.9264 -1.4926
  887MOL0     H17023  10.770   3.991   1.782  0.6408 -0.1928  0.4339
  887MOL0     H17024  10.788   3.915   1.931  0.4047 -0.5301  0.1731
  887MOL0     H17025  10.592   3.759   1.867 -0.1053  0.4225  0.4201
  887MOL0     H17026  10.568   3.853   1.721  2.2722 -1.5148 -1.1993
  887MOL0     H17027  10.548   3.950   2.005  1.8616 -1.3985 -0.5657
  887MOL0     H17028  10.501   4.047   1.854  0.0412 -0.0439 -0.8063
  887MOL0     H17029  10.391   3.779   1.966  0.5205  0.1927  0.8151
  887MOL0     H17030  10.357   3.834   1.815  1.1930  0.8903 -0.7550
  887MOL0     H17031  10.236   4.040   1.927 -4.0295 -3.7557 -2.8324
  887MOL0     H17032  10.290   3.980   2.077 -0.8406 -0.2471  1.0303
  887MOL0     H17033  10.116   3.831   1.866 -0.7355  1.1699 -0.4047
  887MOL0     H17034  10.146   3.770   2.039 -1.5582 -1.6076 -1.0623
  887MOL0     H17035   9.962   4.001   1.983 -0.7904 -0.3717 -0.3195
  887MOL0     H17036  10.043   3.966   2.128 -0.4621  2.6924 -0.6571
  887MOL0     H17037   9.992   3.702   2.225  0.5814  0.6059 -1.0392
  887MOL0     H17038   9.800   3.553   2.364 -0.6399 -2.2864  0.0238
  887MOL0     H17039   9.716   3.488   2.227  1.8207 -2.1493  2.6578
  887MOL0     H17040   9.519   3.646   2.279 -1.1354  0.4873  1.8076
  887MOL0     H17041   9.600   3.652   2.443  1.1641 -2.2186  1.2579
  887MOL0     H17042   9.534   3.386   2.313 -2.8424 -0.2041 -0.4168
  887MOL0     H17043   9.578   3.433   2.477  1.8206  1.7818 -0.4999
  887MOL0     H17044   9.339   3.371   2.440  0.3543 -1.0250 -0.3103
  887MOL0     H17045   9.313   3.507   2.332 -0.2659  0.3014 -0.3699
  887MOL0     H17046   9.124   3.433   2.459  0.7324  0.7034  0.5496
  887MOL0     H17047   8.920   3.441   2.577  0.4553  0.7847  0.3921
  887MOL0     H17048   8.588   3.430   2.762 -2.2608 -0.8696  0.1205
  887MOL0     H17049   8.373   3.411   2.888 -1.8357  1.7070 -0.8779
  887MOL0     H17050   8.262   3.434   3.172 -4.0907 -0.8908  1.5375
  887MOL0     H17051   8.192   3.452   3.011  0.4216  0.8305 -0.4983
  887MOL0     H17052   8.040   3.461   3.211 -0.8594 -1.0853 -2.8932
  887MOL0     H17053   8.044   3.624   3.126  0.3171  1.2839  1.1153
  887MOL0     H17054   8.187   3.724   3.288 -4.4564  3.1233  2.4334
  887MOL0     H17055   8.216   3.561   3.365  1.2035 -0.1256  0.1118
  887MOL0     H17056   7.956   3.736   3.361  0.4555  0.9405  1.9210
  887MOL0     H17057   7.961   3.573   3.425  0.1170 -0.2999  0.8607
  887MOL0     H17058   8.118   3.806   3.525  1.3318 -0.8766  0.5636
  887MOL0     H17059   8.141   3.644   3.582  1.9169  1.9591 -0.1028
  887MOL0     H17060   7.873   3.790   3.605  1.3218  0.1691 -0.4807
  887MOL0     H17061   7.993   3.780   3.737  2.9021 -2.2765  0.3555
  887MOL0     H17062   7.810   3.634   3.771  1.1163  1.9526 -0.0013
  887MOL0     H17063   7.838   3.544   3.622  0.1218  1.6923 -1.2786
  887MOL0     H17064   8.080   3.481   3.734 -0.5604  0.7318 -0.5642
  887MOL0     H17065   7.936   3.421   3.831 -1.3596  0.1459 -1.6957
  887MOL0     H17066   8.476   3.782   3.082 -1.0517 -1.6872  0.4169
  887MOL0     H17067   8.690   3.794   2.940 -1.6621  1.5184  3.2049
  887MOL0     H17068   9.098   3.696   2.877  1.1523  0.4883 -1.0818
  887MOL0     H17069   9.297   3.706   2.743  1.9593 -0.0237 -2.2156
  887MOL0     H17070  11.022   3.599   1.783 -2.2121 -1.0677 -0.5162
  887MOL0     H17071  11.142   3.431   1.637 -0.1537 -1.1721 -2.3794
  887MOL0     H17072  11.332   3.396   1.130 -0.6090 -1.6791 -2.2096
  887MOL0     H17073  11.483   3.230   1.044  0.4834  0.3926  0.1381
  887MOL0     H17074  11.604   3.027   0.972 -1.1975  1.8594 -0.6473
  887MOL0     H17075  11.472   3.067   0.861 -0.5640 -0.7707 -1.8845
  887MOL0     H17076  11.623   2.860   0.786  1.1437  1.3886  0.6332
  887MOL0     H17077  11.532   2.782   0.918  1.2437  1.0384  0.2874
  887MOL0     H17078  11.415   2.888   0.665 -0.5822 -1.7896 -1.1471
  887MOL0     H17079  11.326   2.847   0.811  1.4701  1.0781  1.5358
  887MOL0     H17080  11.445   2.613   0.783  2.5086 -0.4066  0.2851
  887MOL0     H17081  11.340   2.651   0.642 -1.7027 -0.5286  3.4407
  887MOL0     H17082  11.733   2.630   0.494  1.5252  0.5959  4.0243
  887MOL0     H17083  11.246   2.910   1.195 -1.4968  0.0273 -0.2822
  887MOL0     H17084  11.133   3.086   1.351 -0.4667  1.3669 -0.7937
  888MOL0     O17085   0.717   3.960   6.663  0.5239 -0.1999  0.2874
  888MOL0     C17086   0.767   3.987   6.552 -0.1717 -0.5669 -0.1811
  888MOL0     O17087   0.700   4.000   6.425 -0.1711 -0.1843 -0.1890
  888MOL0     C17088   0.564   3.968   6.439 -0.2067  0.9850 -0.3175
  888MOL0     C17089   0.513   3.831   6.445 -0.4910 -0.6262  0.2709
  888MOL0     C17090   0.382   3.807   6.472  0.8549 -0.1047  0.4366
  888MOL0     C17091   0.290   3.913   6.490 -0.6019 -0.1601  0.5237
  888MOL0     O17092   0.163   3.880   6.509  0.4958 -1.2337 -0.5302
  888MOL0     C17093   0.073   3.993   6.520  0.7084 -0.4234 -0.6732
  888MOL0     C17094  -0.068   3.947   6.551 -0.6621 -0.9614 -0.3803
  888MOL0     C17095  -0.148   4.062   6.620  0.5528  0.0806  0.0403
  888MOL0     C17096  -0.299   4.048   6.655 -0.1939 -0.1861  0.7823
  888MOL0     C17097  -0.382   4.053   6.533 -0.0034 -0.2339  0.3285
  888MOL0     C17098  -0.532   4.082   6.552  0.8130 -0.6274 -0.0720
  888MOL0     C17099  -0.564   4.245   6.576  0.1969  0.1979 -0.1845
  888MOL0     C17100  -0.715   4.262   6.593 -0.2991  0.0960  0.0453
  888MOL0     N17101  -0.766   4.186   6.713  0.7096  0.3528  0.9268
  888MOL0     C17102  -0.737   4.218   6.843 -0.2906  0.1615  1.2809
  888MOL0     C17103  -0.830   4.157   6.918  0.0533  0.5660  0.1559
  888MOL0     C17104  -0.852   4.147   7.069 -0.1293 -0.1865 -0.0546
  888MOL0     C17105  -0.962   4.233   7.124 -0.0634 -0.0607 -0.5763
  888MOL0     C17106  -0.921   4.358   7.194 -0.6545  0.9028 -0.6011
  888MOL0     C17107  -1.047   4.441   7.245 -1.0384 -0.2334  0.4777
  888MOL0     O17108  -1.113   4.369   7.337  0.0078  0.0516 -0.1344
  888MOL0     C17109  -1.219   4.437   7.395 -0.5884  0.2081  0.6380
  888MOL0     C17110  -1.257   4.574   7.362 -0.7195 -0.6457  0.2710
  888MOL0     C17111  -1.366   4.626   7.404  0.1920 -0.7448  0.3269
  888MOL0     C17112  -1.457   4.556   7.485 -0.4343 -0.3339  0.3034
  888MOL0     C17113  -1.593   4.610   7.508 -0.6532  0.3858  0.2003
  888MOL0     O17114  -1.613   4.744   7.460 -0.1503 -0.6962 -0.2148
  888MOL0     C17115  -1.726   4.813   7.457  0.6820 -0.0622 -0.4501
  888MOL0     C17116  -1.849   4.748   7.466 -0.0748 -0.1370  0.7733
  888MOL0     C17117  -1.971   4.817   7.472 -1.0917 -0.2007  0.6285
  888MOL0     C17118  -1.967   4.962   7.480 -0.7204 -0.2352 -0.3045
  888MOL0     O17119  -2.085   5.040   7.483 -0.6380  0.2895 -0.1898
  888MOL0     C17120  -2.214   4.981   7.468  0.2852 -0.7706  0.4337
  888MOL0     C17121  -2.311   5.100   7.438 -0.6051  0.4295 -0.4398
  888MOL0     C17122  -2.345   5.103   7.285  0.1308  0.7208  0.3179
  888MOL0     C17123  -2.451   5.208   7.247  0.1442 -0.8113  0.3360
  888MOL0     C17124  -2.469   5.222   7.101  0.7203 -0.4852 -0.3435
  888MOL0     C17125  -2.575   5.326   7.059  0.2729  0.2622  0.5777
  888MOL0     C17126  -2.718   5.287   7.088 -0.2394  0.6245 -0.2749
  888MOL0     C17127  -2.823   5.397   7.050 -0.6395 -0.1195 -0.1799
  888MOL0    Cl17128  -2.805   5.459   6.877  0.4612 -0.0583  0.3924
  888MOL0     C17129  -1.844   5.024   7.477  0.4838  0.0101  0.9062
  888MOL0     C17130  -1.718   4.953   7.468  0.5854 -0.1765  0.7317
  888MOL0     O17131  -1.683   4.544   7.573 -0.8013 -0.3103  0.6556
  888MOL0     C17132  -1.408   4.436   7.541  0.5559 -0.2399  0.7840
  888MOL0     C17133  -1.302   4.365   7.487 -0.5057  0.0331  0.1101
  888MOL0     N17134  -0.920   4.096   6.834  0.6662  0.4936  0.4575
  888MOL0     N17135  -0.882   4.106   6.714  0.1185 -0.7633 -0.5233
  888MOL0     C17136   0.337   4.043   6.486 -0.0889 -0.2434 -0.4271
  888MOL0     C17137   0.473   4.074   6.473 -0.3535  0.1187  0.8208
  888MOL0     C17138   0.908   4.017   6.549 -0.8326  0.1024  0.1449
  888MOL0     C17139   0.984   4.036   6.429  0.0901  0.0417 -0.4489
  888MOL0     C17140   1.120   4.068   6.433  0.8372  0.2714  1.2703
  888MOL0     C17141   1.188   4.088   6.554  0.3591  0.0173  0.3288
  888MOL0     O17142   1.318   4.112   6.568 -0.2384  0.4710 -0.1256
  888MOL0     C17143   1.416   4.135   6.466 -0.1479  0.5462  0.0191
  888MOL0     C17144   1.437   4.007   6.390  0.2299 -0.3190 -0.0359
  888MOL0     C17145   1.504   4.019   6.255  0.0139 -0.0625 -0.1900
  888MOL0     C17146   1.540   3.891   6.190  0.5899  0.1169 -0.2283
  888MOL0     C17147   1.654   3.830   6.258  0.4791 -0.9754 -0.1036
  888MOL0     C17148   1.758   3.777   6.309 -0.3079  0.3891 -0.0604
  888MOL0     C17149   1.109   4.083   6.669 -0.2433 -1.0659 -0.1204
  888MOL0     C17150   0.971   4.059   6.662 -0.2184  0.4759  0.1224
  888MOL0     H17151   0.593   3.760   6.422 -2.1378 -1.7179 -2.5717
  888MOL0     H17152   0.346   3.705   6.472  0.8655 -0.1098  0.1746
  888MOL0     H17153   0.079   4.064   6.437 -2.1170  0.8933  0.1191
  888MOL0     H17154   0.110   4.053   6.604  0.8555  0.3264 -1.2620
  888MOL0     H17155  -0.077   3.853   6.608  0.0623  0.2760  1.9003
  888MOL0     H17156  -0.113   3.930   6.453 -2.9237  0.5032  0.3105
  888MOL0     H17157  -0.131   4.158   6.570 -1.2394  0.3653 -0.0776
  888MOL0     H17158  -0.089   4.079   6.711  2.2198  1.3754 -1.2019
  888MOL0     H17159  -0.304   3.946   6.693  0.6792 -1.2778 -1.8171
  888MOL0     H17160  -0.334   4.121   6.729 -2.6337 -1.3108  0.8496
  888MOL0     H17161  -0.373   3.955   6.485  0.8085  0.7700 -1.6344
  888MOL0     H17162  -0.342   4.126   6.462  2.2146 -1.8628 -0.2026
  888MOL0     H17163  -0.552   4.016   6.637  1.5606 -0.5978  0.1378
  888MOL0     H17164  -0.594   4.056   6.466  0.2737 -3.0949  0.9634
  888MOL0     H17165  -0.504   4.292   6.655  1.3353  2.2177 -2.1505
  888MOL0     H17166  -0.532   4.295   6.484  3.3116  0.3859  0.8723
  888MOL0     H17167  -0.765   4.247   6.497  0.0852  0.0846 -0.1559
  888MOL0     H17168  -0.748   4.365   6.610  0.3194  0.4711 -0.9339
  888MOL0     H17169  -0.658   4.283   6.880 -1.9418  1.8000  2.1167
  888MOL0     H17170  -0.757   4.180   7.112 -0.4568 -1.4322  1.7124
  888MOL0     H17171  -0.865   4.043   7.099  1.0648 -1.1779 -2.6350
  888MOL0     H17172  -1.027   4.178   7.191 -1.2440  0.5676 -1.1733
  888MOL0     H17173  -1.034   4.252   7.044 -0.3526  2.4037  0.1807
  888MOL0     H17174  -0.863   4.336   7.284  1.8866 -0.6612 -2.4880
  888MOL0     H17175  -0.861   4.417   7.124  1.3616  0.0610  0.3269
  888MOL0     H17176  -1.107   4.469   7.157 -0.7712  1.4454  0.7892
  888MOL0     H17177  -1.004   4.530   7.292  0.0453 -1.0904  1.1528
  888MOL0     H17178  -1.194   4.631   7.294 -2.1310 -0.7023 -1.1276
  888MOL0     H17179  -1.394   4.725   7.370  0.7499 -0.0639  1.7903
  888MOL0     H17180  -1.859   4.640   7.472  0.7445 -0.1761  1.6331
  888MOL0     H17181  -2.063   4.763   7.459 -0.8644 -0.1735 -1.2800
  888MOL0     H17182  -2.253   4.933   7.559  0.1947  0.8943  1.3126
  888MOL0     H17183  -2.203   4.910   7.385  2.2460  2.2084 -2.0627
  888MOL0     H17184  -2.272   5.196   7.474 -0.0771 -0.1611  0.6177
  888MOL0     H17185  -2.404   5.088   7.494 -2.0750  4.0832 -1.7999
  888MOL0     H17186  -2.369   5.002   7.253 -0.6840  0.4345  1.7419
  888MOL0     H17187  -2.255   5.132   7.229  0.4075 -2.8066 -1.3153
  888MOL0     H17188  -2.547   5.192   7.296  0.0206 -0.4493  0.2161
  888MOL0     H17189  -2.414   5.300   7.292  3.0874 -2.2259  1.1019
  888MOL0     H17190  -2.493   5.121   7.066  0.0223  0.4173 -2.6819
  888MOL0     H17191  -2.378   5.260   7.054 -1.0399  1.3090 -2.5783
  888MOL0     H17192  -2.564   5.347   6.952  3.0211  0.5591  0.8401
  888MOL0     H17193  -2.549   5.422   7.104 -0.2835  1.1741 -0.9736
  888MOL0     H17194  -2.734   5.188   7.046 -1.8056 -0.2531  2.1461
  888MOL0     H17195  -2.735   5.279   7.196  1.6207  0.5117  0.0312
  888MOL0     H17196  -2.811   5.488   7.111 -5.0552  0.5350  0.0357
  888MOL0     H17197  -2.923   5.354   7.059 -0.9041  0.4047 -0.5126
  888MOL0     H17198  -1.840   5.130   7.497  2.8828  0.0027  0.7456
  888MOL0     H17199  -1.623   5.006   7.474  1.6662 -2.0670  1.0050
  888MOL0     H17200  -1.467   4.385   7.616 -0.1584 -1.0422 -0.2888
  888MOL0     H17201  -1.278   4.261   7.507 -0.6314  0.0463  0.3301
  888MOL0     H17202   0.277   4.131   6.505 -0.7860 -1.0170  1.1540
  888MOL0     H17203   0.510   4.173   6.496  0.8515 -0.4809  1.5756
  888MOL0     H17204   0.948   4.009   6.331  1.8228 -0.3459 -1.0136
  888MOL0     H17205   1.170   4.059   6.337 -0.4333 -3.1269  0.7812
  888MOL0     H17206   1.515   4.166   6.501  0.9765 -0.4159 -2.0868
  888MOL0     H17207   1.387   4.216   6.398  0.3853 -0.8929 -2.0413
  888MOL0     H17208   1.482   3.934   6.457 -0.0962 -0.6619 -0.1856
  888MOL0     H17209   1.343   3.953   6.372  0.2286 -0.6641  0.9555
  888MOL0     H17210   1.600   4.071   6.258 -1.1690  2.2753  0.4139
  888MOL0     H17211   1.443   4.075   6.182 -1.4356  2.9861  3.0728
  888MOL0     H17212   1.458   3.819   6.180 -0.8981  1.8104 -0.8804
  888MOL0     H17213   1.570   3.915   6.087 -2.0183 -0.9755 -1.3574
  888MOL0     H17214   1.848   3.734   6.347  0.7571  2.3189 -0.2445
  888MOL0     H17215   1.159   4.093   6.765  3.8711  0.1688 -2.1604
  888MOL0     H17216   0.927   4.049   6.761  2.0147 -2.5534  0.9771
  889MOL0     O17217   2.224   8.073  10.739 -0.7995 -0.1519 -0.5838
  889MOL0     C17218   2.326   8.120  10.689  0.1335  0.1879  0.1599
  889MOL0     O17219   2.381   8.236  10.718 -0.2843 -0.1259 -0.3042
  889MOL0     C17220   2.313   8.327  10.791  0.1619  0.6055 -0.0800
  889MOL0     C17221   2.174   8.350  10.796  0.3854 -0.0140  0.4828
  889MOL0     C17222   2.118   8.451  10.875 -0.0801 -0.4613  0.6432
  889MOL0     C17223   2.191   8.539  10.950  0.2753  0.5722  0.0097
  889MOL0     O17224   2.150   8.647  11.024  0.0834  0.2718 -0.0815
  889MOL0     C17225   2.010   8.674  11.038  0.3733 -0.9853 -0.4437
  889MOL0     C17226   1.967   8.597  11.156 -0.1260 -0.3155 -0.5531
  889MOL0     C17227   1.817   8.618  11.182 -0.6260  0.4102 -0.2882
  889MOL0     C17228   1.794   8.758  11.239  0.1451  0.5249  0.1432
  889MOL0     C17229   1.651   8.751  11.301 -0.4062  0.7637  0.5307
  889MOL0     C17230   1.612   8.897  11.334 -1.2726  0.4848  0.1645
  889MOL0     C17231   1.464   8.891  11.360 -0.0001  0.2118  0.0319
  889MOL0     C17232   1.407   9.036  11.358 -0.2364 -0.2119  0.6576
  889MOL0     N17233   1.263   9.045  11.356 -0.5642  0.2722 -0.1390
  889MOL0     C17234   1.173   9.035  11.459  0.3159  0.2274 -0.6667
  889MOL0     C17235   1.047   9.062  11.404 -0.2195 -0.5582 -0.1903
  889MOL0     C17236   0.927   9.083  11.490  0.7368 -1.0396  0.5010
  889MOL0     C17237   0.805   9.002  11.442  0.1909 -0.4441 -0.4272
  889MOL0     C17238   0.720   8.990  11.567 -0.4415 -0.1708  0.3480
  889MOL0     C17239   0.661   9.123  11.616  0.1237  0.1615 -0.6752
  889MOL0     O17240   0.592   9.184  11.507  0.1340  0.2378  0.4293
  889MOL0     C17241   0.460   9.153  11.486 -0.1020 -0.9613 -0.9304
  889MOL0     C17242   0.414   9.037  11.425 -0.9377  0.4677 -0.7482
  889MOL0     C17243   0.278   9.005  11.403 -1.2990  0.2083  0.0636
  889MOL0     C17244   0.180   9.102  11.448 -0.6437 -0.0817 -0.1052
  889MOL0     C17245   0.035   9.074  11.423 -1.2712  0.8732  1.3499
  889MOL0     O17246  -0.062   9.174  11.426 -0.5359 -0.2350 -0.2849
  889MOL0     C17247  -0.177   9.158  11.363 -0.4678 -1.0022  0.2542
  889MOL0     C17248  -0.224   9.264  11.293 -0.0806 -0.6514  0.5563
  889MOL0     C17249  -0.344   9.249  11.221 -0.0740 -0.2924 -0.5770
  889MOL0     C17250  -0.410   9.122  11.205 -0.2233  1.0146  0.2560
  889MOL0     O17251  -0.527   9.104  11.140 -0.3659  0.2761  0.2366
  889MOL0     C17252  -0.588   9.200  11.052 -0.3034 -0.2559 -0.5349
  889MOL0     C17253  -0.684   9.129  10.960 -1.4004  0.4303 -0.3061
  889MOL0     C17254  -0.830   9.136  10.996 -0.1951  0.1530 -0.1753
  889MOL0     C17255  -0.908   9.093  10.872 -0.3099  0.3856  0.3427
  889MOL0     C17256  -1.055   9.048  10.900 -0.4950 -0.1946 -0.3946
  889MOL0     C17257  -1.067   8.903  10.942 -0.1871  0.2749 -0.7458
  889MOL0     C17258  -1.204   8.844  10.929  0.3307 -0.2381 -0.0671
  889MOL0     C17259  -1.326   8.930  10.970  0.0001  0.0709  0.2120
  889MOL0    Cl17260  -1.482   8.835  10.997  0.5779 -0.1751  0.3457
  889MOL0     C17261  -0.351   9.014  11.273 -0.1794  1.0209 -0.0568
  889MOL0     C17262  -0.244   9.042  11.358  0.1875  0.2692 -0.3350
  889MOL0     O17263   0.018   8.963  11.384  0.2445  1.1786 -0.0963
  889MOL0     C17264   0.225   9.219  11.512  0.4366  0.0155 -0.0614
  889MOL0     C17265   0.363   9.243  11.534 -0.0668  0.1755  0.4074
  889MOL0     N17266   1.064   9.106  11.271 -0.3059  0.9199  0.3929
  889MOL0     N17267   1.195   9.079  11.251  0.9719  0.8047  0.3310
  889MOL0     C17268   2.335   8.518  10.950  0.4180  0.0043 -0.4729
  889MOL0     C17269   2.389   8.412  10.876 -0.2469 -0.2487  0.7109
  889MOL0     C17270   2.401   8.023  10.605  0.1030  0.2017  0.5866
  889MOL0     C17271   2.523   8.062  10.549  1.3157 -0.4337  0.5234
  889MOL0     C17272   2.599   7.968  10.471  0.2462  0.2163  0.1638
  889MOL0     C17273   2.562   7.839  10.445 -0.8569 -0.0281  0.6556
  889MOL0     O17274   2.643   7.744  10.388 -0.4118  0.1553  0.2700
  889MOL0     C17275   2.789   7.760  10.381 -0.4692  0.6671  0.6510
  889MOL0     C17276   2.842   7.753  10.235  0.7752 -0.7807  0.4809
  889MOL0     C17277   2.775   7.847  10.138 -0.7269  0.0227  0.7101
  889MOL0     C17278   2.840   7.841   9.994 -0.0625 -0.3236 -0.6005
  889MOL0     C17279   2.753   7.917   9.904 -1.1026 -0.4759 -0.0578
  889MOL0     C17280   2.687   7.988   9.835 -0.2014  0.0320  0.3236
  889MOL0     C17281   2.436   7.807  10.496 -0.0691 -0.6567  0.0173
  889MOL0     C17282   2.354   7.897  10.574 -0.4875  0.1204  0.5585
  889MOL0     H17283   2.108   8.284  10.741 -1.2744 -0.2614  2.6043
  889MOL0     H17284   2.013   8.475  10.864 -0.1885 -0.7175  1.1008
  889MOL0     H17285   1.954   8.654  10.946 -0.1810  0.1935 -0.3834
  889MOL0     H17286   2.004   8.782  11.052  3.2292 -0.6872 -1.0626
  889MOL0     H17287   2.029   8.626  11.242 -0.6900 -0.4558 -0.0901
  889MOL0     H17288   1.983   8.493  11.127 -2.7374 -0.6340 -1.0337
  889MOL0     H17289   1.786   8.536  11.247  3.9653 -1.2815  0.0963
  889MOL0     H17290   1.759   8.615  11.089 -1.8185  1.6958  0.3740
  889MOL0     H17291   1.866   8.770  11.320 -0.7467 -1.5761  1.3519
  889MOL0     H17292   1.809   8.823  11.153 -0.6509 -0.6416 -0.9171
  889MOL0     H17293   1.644   8.688  11.390 -1.0747  0.2081  0.0933
  889MOL0     H17294   1.588   8.705  11.224  1.8173 -0.1008 -0.8530
  889MOL0     H17295   1.648   8.965  11.256  2.2152 -2.4119 -1.0365
  889MOL0     H17296   1.664   8.928  11.425  0.0926 -2.0771  0.3355
  889MOL0     H17297   1.422   8.828  11.281  1.6090 -0.6079 -0.2097
  889MOL0     H17298   1.434   8.834  11.449 -0.2348 -1.2397 -0.9370
  889MOL0     H17299   1.442   9.088  11.268 -1.5546 -1.6265 -0.7286
  889MOL0     H17300   1.439   9.086  11.451 -1.3506  3.2972 -0.6821
  889MOL0     H17301   1.184   9.006  11.563 -0.2305  1.5701 -0.2216
  889MOL0     H17302   0.898   9.189  11.487 -0.9038 -1.4926 -2.1032
  889MOL0     H17303   0.953   9.053  11.592  0.6310  0.7592  1.1098
  889MOL0     H17304   0.833   8.904  11.402  1.1519 -0.1252 -0.5622
  889MOL0     H17305   0.756   9.046  11.355 -2.0377 -0.3660  0.7803
  889MOL0     H17306   0.636   8.922  11.547  0.0869 -0.2364 -1.9156
  889MOL0     H17307   0.776   8.948  11.651  0.6642 -1.4080 -0.9540
  889MOL0     H17308   0.745   9.188  11.642  0.1032 -0.0134 -0.1517
  889MOL0     H17309   0.604   9.113  11.709 -0.9368  0.1127 -1.3033
  889MOL0     H17310   0.491   8.969  11.391 -0.1611  0.8633  0.1618
  889MOL0     H17311   0.248   8.910  11.361  1.5384 -1.5211  1.6400
  889MOL0     H17312  -0.170   9.358  11.301 -0.5764 -0.1016 -1.8162
  889MOL0     H17313  -0.369   9.337  11.163  1.5239  1.7325  1.6007
  889MOL0     H17314  -0.509   9.239  10.988  0.1872 -1.6694 -0.8393
  889MOL0     H17315  -0.637   9.277  11.113 -1.6222 -1.8453  0.5095
  889MOL0     H17316  -0.649   9.026  10.948 -0.6826  0.3226  2.2092
  889MOL0     H17317  -0.665   9.178  10.864  2.2544 -0.0981  0.0117
  889MOL0     H17318  -0.861   9.238  11.019  0.4445  0.1879  0.5635
  889MOL0     H17319  -0.843   9.069  11.081  1.4226 -0.1606 -0.1412
  889MOL0     H17320  -0.900   9.174  10.799  1.6007  0.1147  0.2043
  889MOL0     H17321  -0.854   9.006  10.834  2.6453  0.5436  3.6583
  889MOL0     H17322  -1.111   9.063  10.807 -0.4929 -0.7424 -0.4889
  889MOL0     H17323  -1.098   9.112  10.977  0.5958 -2.4314  2.2391
  889MOL0     H17324  -1.033   8.894  11.045 -3.0181 -4.8895  0.0731
  889MOL0     H17325  -1.002   8.837  10.883  1.0605  2.7570 -2.3447
  889MOL0     H17326  -1.218   8.802  10.829 -2.4358 -5.6545  2.1853
  889MOL0     H17327  -1.199   8.756  10.994 -0.1056  0.7423  1.3406
  889MOL0     H17328  -1.348   9.013  10.902 -1.7170 -1.0799 -0.7449
  889MOL0     H17329  -1.302   8.984  11.062 -2.5762  2.2146 -0.2458
  889MOL0     H17330  -0.407   8.921  11.274  0.4262  0.6352  1.7257
  889MOL0     H17331  -0.219   8.969  11.434 -1.8047  1.1806  1.2923
  889MOL0     H17332   0.144   9.287  11.537 -1.1301 -1.5015 -0.7965
  889MOL0     H17333   0.401   9.337  11.574 -0.4315 -0.7133  3.0093
  889MOL0     H17334   2.401   8.579  11.012  2.4887 -0.5042 -2.0682
  889MOL0     H17335   2.498   8.404  10.871 -0.2148  0.5673 -0.0122
  889MOL0     H17336   2.549   8.167  10.560 -1.1198  0.0429  2.6324
  889MOL0     H17337   2.695   7.996  10.429 -0.2542  0.7894 -0.6393
  889MOL0     H17338   2.827   7.677  10.442  1.0700  0.8664  0.0156
  889MOL0     H17339   2.835   7.847  10.427  1.5018  0.1732 -0.2833
  889MOL0     H17340   2.951   7.759  10.230  0.8086 -1.6746 -0.0294
  889MOL0     H17341   2.816   7.659  10.186 -1.0016 -0.1114  0.0555
  889MOL0     H17342   2.788   7.952  10.169  1.1212 -0.0087  0.1094
  889MOL0     H17343   2.667   7.828  10.136 -1.3239  2.9884 -1.0942
  889MOL0     H17344   2.948   7.859   9.986 -0.0082 -0.7171 -0.7880
  889MOL0     H17345   2.837   7.735   9.966 -1.1487 -0.1454 -1.2019
  889MOL0     H17346   2.632   8.063   9.782 -2.1500 -2.0172 -0.7512
  889MOL0     H17347   2.396   7.708  10.476 -2.6280  0.5898 -1.4359
  889MOL0     H17348   2.262   7.853  10.611 -0.1267 -0.8295  0.3743
  890MOL0     O17349   7.301   5.535   4.651 -0.9512 -0.1661  0.1718
  890MOL0     C17350   7.192   5.488   4.625  1.0343 -0.1528 -0.7496
  890MOL0     O17351   7.166   5.353   4.623  0.1333 -1.0039 -0.2225
  890MOL0     C17352   7.256   5.262   4.649 -0.2226  0.5300 -0.2378
  890MOL0     C17353   7.279   5.189   4.773 -0.5774 -0.1163 -0.2519
  890MOL0     C17354   7.365   5.085   4.781  0.1027  0.4063  0.7933
  890MOL0     C17355   7.431   5.032   4.662 -0.1551  0.3667 -0.5907
  890MOL0     O17356   7.511   4.918   4.685 -0.1917 -0.8322  0.3589
  890MOL0     C17357   7.620   4.903   4.576  0.0856 -0.0249 -0.2853
  890MOL0     C17358   7.702   4.779   4.609 -0.7169  0.0180  0.4316
  890MOL0     C17359   7.663   4.645   4.520  0.2364 -0.3539  0.5116
  890MOL0     C17360   7.517   4.595   4.545 -0.5852  0.2812  0.6970
  890MOL0     C17361   7.489   4.525   4.668 -0.4956 -0.4129  0.3660
  890MOL0     C17362   7.383   4.424   4.659 -0.1895  0.3098 -0.9175
  890MOL0     C17363   7.244   4.474   4.621 -0.4702 -0.1143  0.3662
  890MOL0     C17364   7.126   4.386   4.674 -0.2223 -1.3155  0.0306
  890MOL0     N17365   7.012   4.472   4.687 -0.1175 -0.3327 -0.2505
  890MOL0     C17366   6.943   4.499   4.807  0.0976  0.3608  0.2741
  890MOL0     C17367   6.829   4.566   4.765  0.9456  0.9774  0.2667
  890MOL0     C17368   6.735   4.625   4.861  0.3059  0.0553  0.5601
  890MOL0     C17369   6.617   4.532   4.891  0.5810  0.3345 -0.4454
  890MOL0     C17370   6.510   4.563   4.784  1.5536 -0.6813  0.0229
  890MOL0     C17371   6.373   4.477   4.817 -0.9375 -0.0627  0.4513
  890MOL0     O17372   6.263   4.478   4.717 -0.2099 -0.2894  0.0306
  890MOL0     C17373   6.204   4.593   4.661  0.3145  0.3403 -0.8014
  890MOL0     C17374   6.197   4.714   4.726  0.0280 -0.1617 -0.2441
  890MOL0     C17375   6.149   4.828   4.656  0.1969 -0.4447 -0.3719
  890MOL0     C17376   6.085   4.814   4.530 -0.2661 -0.9190  0.0242
  890MOL0     C17377   6.037   4.934   4.464  0.1575 -0.5772  0.7437
  890MOL0     O17378   5.965   4.925   4.351 -0.3239  0.3490 -0.6786
  890MOL0     C17379   5.969   5.037   4.274 -0.5926 -0.7728 -0.1383
  890MOL0     C17380   6.059   5.030   4.168  0.7450  0.8730 -0.6209
  890MOL0     C17381   6.064   5.138   4.080 -0.5274 -0.9338  0.5481
  890MOL0     C17382   5.976   5.247   4.097 -0.8618 -1.0768  0.5922
  890MOL0     O17383   5.954   5.360   4.017 -0.0314 -0.2031 -0.4602
  890MOL0     C17384   6.052   5.383   3.918  0.0295 -1.3804  0.6187
  890MOL0     C17385   6.003   5.499   3.835 -0.1654  0.7267 -0.6557
  890MOL0     C17386   5.967   5.626   3.920  0.2537  0.5336 -0.2111
  890MOL0     C17387   6.076   5.672   4.020  0.0251  1.5183  0.3669
  890MOL0     C17388   6.039   5.805   4.078  0.1024 -0.4731 -0.3853
  890MOL0     C17389   6.144   5.861   4.184 -0.8381  0.2443 -0.3324
  890MOL0     C17390   6.102   6.007   4.237 -0.3536  1.2243  0.6367
  890MOL0     C17391   5.968   6.007   4.318  0.0074  0.4961  0.4798
  890MOL0    Cl17392   5.988   5.906   4.464  0.0659  0.1617  0.3072
  890MOL0     C17393   5.886   5.244   4.203  0.6577  0.5829 -0.2796
  890MOL0     C17394   5.880   5.135   4.288  0.2565  0.1555 -0.0954
  890MOL0     O17395   6.064   5.036   4.515 -0.8967 -0.9168 -0.9138
  890MOL0     C17396   6.084   4.691   4.468  1.2137  0.9325  0.3443
  890MOL0     C17397   6.138   4.582   4.535  0.3969 -0.2798  1.0671
  890MOL0     N17398   6.832   4.584   4.628 -0.4049  0.2076  0.1193
  890MOL0     N17399   6.935   4.523   4.586  0.0747  0.2226  0.5800
  890MOL0     C17400   7.409   5.102   4.537  0.4840  0.0952 -0.2125
  890MOL0     C17401   7.320   5.219   4.535 -0.1703 -0.2939 -0.6466
  890MOL0     C17402   7.076   5.569   4.596 -0.0415  0.1682 -0.2385
  890MOL0     C17403   7.084   5.683   4.517 -0.6212  0.2038 -0.8388
  890MOL0     C17404   6.976   5.758   4.481 -0.1268  0.4596 -0.2574
  890MOL0     C17405   6.854   5.711   4.509 -0.1820 -0.3730 -0.6940
  890MOL0     O17406   6.750   5.796   4.460 -0.0756  0.0064 -0.1283
  890MOL0     C17407   6.640   5.745   4.388 -0.0906 -0.0430 -0.0224
  890MOL0     C17408   6.516   5.708   4.477  0.7389  0.1218  0.2017
  890MOL0     C17409   6.415   5.623   4.391  0.0935  0.1635 -0.4202
  890MOL0     C17410   6.287   5.595   4.471 -0.6849 -0.4111  0.1467
  890MOL0     C17411   6.218   5.496   4.386 -0.2875 -0.6287 -0.1363
  890MOL0     C17412   6.184   5.407   4.311 -0.9990 -0.0222  0.6298
  890MOL0     C17413   6.833   5.588   4.576  0.5128  0.1821  0.4647
  890MOL0     C17414   6.939   5.522   4.631 -0.1314  0.7917 -0.1564
  890MOL0     H17415   7.214   5.205   4.859 -1.3366  1.4654 -1.0880
  890MOL0     H17416   7.374   5.054   4.884 -0.4127 -0.3514  0.6146
  890MOL0     H17417   7.684   4.991   4.567  1.4420 -0.7945  1.2262
  890MOL0     H17418   7.578   4.883   4.477 -0.7049 -0.5830  0.1508
  890MOL0     H17419   7.680   4.767   4.716 -3.6154  4.6876  0.6309
  890MOL0     H17420   7.808   4.800   4.589 -1.0125  1.8871  0.5945
  890MOL0     H17421   7.734   4.569   4.554  1.9359  0.4535 -1.0814
  890MOL0     H17422   7.686   4.666   4.415  0.5302 -1.8643  0.2397
  890MOL0     H17423   7.455   4.682   4.522  1.4094  1.8087  0.8205
  890MOL0     H17424   7.492   4.520   4.470  1.5865  0.6766 -0.5214
  890MOL0     H17425   7.462   4.608   4.734  0.7165  0.9529 -0.8025
  890MOL0     H17426   7.577   4.466   4.694  0.0211  0.5968  0.9403
  890MOL0     H17427   7.371   4.373   4.755  2.5317  0.4203 -0.4592
  890MOL0     H17428   7.415   4.340   4.596 -1.4942 -1.1483  0.2622
  890MOL0     H17429   7.250   4.575   4.663  1.7753  1.5260 -3.3682
  890MOL0     H17430   7.237   4.489   4.513  0.4303  0.1776  0.3386
  890MOL0     H17431   7.148   4.346   4.774 -0.9544 -2.7187 -0.3469
  890MOL0     H17432   7.102   4.302   4.609  0.6892 -1.0574 -0.6660
  890MOL0     H17433   6.970   4.484   4.911 -0.1167  4.0878  1.0130
  890MOL0     H17434   6.695   4.720   4.824  1.2517 -0.0850 -0.9109
  890MOL0     H17435   6.788   4.646   4.954 -3.9441 -0.4939  3.3690
  890MOL0     H17436   6.567   4.574   4.979 -0.9824  2.0161 -2.0532
  890MOL0     H17437   6.646   4.428   4.911  1.5280  0.5745 -0.5577
  890MOL0     H17438   6.482   4.668   4.795  3.3280 -0.3976  2.5833
  890MOL0     H17439   6.546   4.541   4.683  3.4678  1.1844  0.2507
  890MOL0     H17440   6.342   4.501   4.919  2.0540  2.1687  0.9824
  890MOL0     H17441   6.412   4.375   4.818  3.4692  1.3997  0.5666
  890MOL0     H17442   6.237   4.723   4.826  1.1104 -0.8579 -0.5955
  890MOL0     H17443   6.163   4.928   4.697 -1.6250  0.0479 -0.8230
  890MOL0     H17444   6.120   4.940   4.162  0.5544  0.7560 -0.8095
  890MOL0     H17445   6.140   5.135   4.002  1.0849  1.8471  1.8265
  890MOL0     H17446   6.069   5.294   3.857  0.7986 -1.0826  0.3822
  890MOL0     H17447   6.146   5.408   3.969 -0.1903  0.3873  0.2159
  890MOL0     H17448   5.918   5.467   3.773  0.3750 -1.3196 -0.4085
  890MOL0     H17449   6.087   5.530   3.772  0.2659 -0.5527 -0.7318
  890MOL0     H17450   5.870   5.603   3.966  1.0500  0.6511  1.6379
  890MOL0     H17451   5.936   5.703   3.849  1.6113  0.3473 -1.0541
  890MOL0     H17452   6.103   5.594   4.091  4.5880  1.6849 -0.8498
  890MOL0     H17453   6.168   5.679   3.961  0.1475 -1.4522  0.0637
  890MOL0     H17454   5.940   5.809   4.125 -1.2022  2.4142 -3.0527
  890MOL0     H17455   6.029   5.875   3.995  1.3180 -0.9448 -0.9450
  890MOL0     H17456   6.240   5.877   4.132 -0.8500 -1.1992 -0.8297
  890MOL0     H17457   6.160   5.791   4.266  1.7460  2.0131  0.8221
  890MOL0     H17458   6.187   6.042   4.295  0.5781 -1.2385  0.8629
  890MOL0     H17459   6.095   6.065   4.144 -0.2534 -1.2143 -1.0174
  890MOL0     H17460   5.898   5.974   4.240  0.7406 -1.4094  0.5782
  890MOL0     H17461   5.924   6.102   4.350 -1.7406 -1.0886  3.1334
  890MOL0     H17462   5.819   5.328   4.218 -0.0567  0.1269 -0.8609
  890MOL0     H17463   5.804   5.122   4.364 -0.8062  1.1313 -0.9633
  890MOL0     H17464   6.050   4.680   4.366 -0.5309  2.2265  0.7471
  890MOL0     H17465   6.155   4.486   4.488  1.7796 -2.1322  4.9372
  890MOL0     H17466   7.453   5.077   4.441  1.1730 -2.6430  0.7282
  890MOL0     H17467   7.309   5.269   4.439  1.3649 -0.3680 -0.8970
  890MOL0     H17468   7.184   5.716   4.487 -0.2042 -2.5666 -2.8672
  890MOL0     H17469   6.991   5.855   4.435 -1.4452  0.4421 -0.7651
  890MOL0     H17470   6.666   5.663   4.320 -2.3137  0.9600 -2.2460
  890MOL0     H17471   6.608   5.824   4.320 -1.0142  0.3718  0.8695
  890MOL0     H17472   6.543   5.663   4.574  0.7748  1.1872  0.7029
  890MOL0     H17473   6.469   5.802   4.507  0.6157 -0.3047  1.4320
  890MOL0     H17474   6.468   5.530   4.368  0.8497  0.7890 -1.2562
  890MOL0     H17475   6.394   5.676   4.298 -1.8372 -0.8146 -0.6029
  890MOL0     H17476   6.318   5.545   4.564  3.3748 -0.2120 -0.8920
  890MOL0     H17477   6.227   5.685   4.486  3.2809  2.3177  1.1921
  890MOL0     H17478   6.182   5.315   4.255  0.9326 -0.0351  0.5235
  890MOL0     H17479   6.734   5.552   4.603  0.6675 -0.2259  0.4922
  890MOL0     H17480   6.928   5.431   4.689  0.5261 -0.2312 -1.5473
  891MOL0     O17481   5.972   8.167  11.256  0.0188  0.8064 -0.5432
  891MOL0     C17482   5.978   8.171  11.135 -0.3493  0.0523 -0.6371
  891MOL0     O17483   5.890   8.234  11.056 -0.4887 -0.0120  0.2386
  891MOL0     C17484   5.803   8.329  11.094  1.2142 -0.0462 -0.0877
  891MOL0     C17485   5.665   8.292  11.128 -1.0586  0.1774  0.2218
  891MOL0     C17486   5.573   8.389  11.148  0.5349 -0.0570 -0.4812
  891MOL0     C17487   5.608   8.521  11.135  0.5157  0.4157  0.0212
  891MOL0     O17488   5.519   8.622  11.150  0.6632  0.5674 -0.2333
  891MOL0     C17489   5.378   8.596  11.161 -0.3247  0.2706 -0.1226
  891MOL0     C17490   5.320   8.740  11.164  0.3924 -0.1974 -0.1977
  891MOL0     C17491   5.169   8.729  11.158  0.3499 -0.2144 -0.9844
  891MOL0     C17492   5.097   8.869  11.143  0.0586 -0.1313 -0.0980
  891MOL0     C17493   4.952   8.867  11.168  0.6915  1.0894 -0.2283
  891MOL0     C17494   4.870   8.773  11.080 -0.9749  0.3311  0.3892
  891MOL0     C17495   4.727   8.810  11.091 -0.1135  0.3678 -0.5041
  891MOL0     C17496   4.661   8.790  11.224 -0.0192  0.5178 -0.2053
  891MOL0     N17497   4.518   8.822  11.212  0.5782 -0.1956 -0.3518
  891MOL0     C17498   4.406   8.748  11.238  0.8045 -0.1237 -0.5762
  891MOL0     C17499   4.299   8.832  11.207 -0.0728  0.2167 -0.2011
  891MOL0     C17500   4.152   8.786  11.215 -0.7719 -0.1338 -1.0607
  891MOL0     C17501   4.063   8.893  11.264  0.6354  0.8991  0.5402
  891MOL0     C17502   3.914   8.868  11.251 -0.7371  0.7919  1.0298
  891MOL0     C17503   3.874   8.740  11.305 -0.1642  0.4614 -0.7739
  891MOL0     O17504   3.894   8.721  11.447  0.0579 -0.7675 -0.9987
  891MOL0     C17505   3.786   8.762  11.521  0.7797  0.5679 -0.1541
  891MOL0     C17506   3.661   8.692  11.524  0.5103 -0.0417  0.6630
  891MOL0     C17507   3.549   8.754  11.575  0.6424  0.7107  0.1387
  891MOL0     C17508   3.559   8.879  11.640  0.8769 -0.2258 -0.0290
  891MOL0     C17509   3.434   8.945  11.680 -0.3816 -0.3381  0.8831
  891MOL0     O17510   3.323   8.871  11.690 -0.1765 -0.2182  0.3260
  891MOL0     C17511   3.215   8.937  11.731  0.7593  0.0066  0.8926
  891MOL0     C17512   3.121   8.975  11.640  0.5758  0.9850 -0.4387
  891MOL0     C17513   2.994   9.016  11.677 -0.2598 -0.2363 -1.1433
  891MOL0     C17514   2.957   9.019  11.815 -0.2759 -0.1388  1.0611
  891MOL0     O17515   2.832   9.050  11.856 -0.5265 -0.2675 -0.8795
  891MOL0     C17516   2.774   8.956  11.942  0.4423  0.5247 -0.3995
  891MOL0     C17517   2.627   8.983  11.952 -0.4901  0.2955 -0.1701
  891MOL0     C17518   2.596   9.125  12.003  0.1850 -0.1628 -0.4849
  891MOL0     C17519   2.622   9.138  12.153  0.7917  0.1601  0.5074
  891MOL0     C17520   2.595   9.278  12.217  0.4896 -0.0191 -0.1141
  891MOL0     C17521   2.588   9.263  12.364 -0.0170 -0.9302  0.0338
  891MOL0     C17522   2.734   9.250  12.431 -0.6570  0.3554  0.8421
  891MOL0     C17523   2.717   9.252  12.578  0.0225  0.3815  0.2976
  891MOL0    Cl17524   2.640   9.101  12.631 -0.0010 -0.2200  0.3756
  891MOL0     C17525   3.061   8.988  11.907  0.5705 -0.5533  0.2738
  891MOL0     C17526   3.191   8.958  11.869  0.0699  0.2914 -0.6000
  891MOL0     O17527   3.451   9.061  11.709 -0.2229  0.2753  0.0638
  891MOL0     C17528   3.684   8.942  11.636  0.1080  0.3022  0.3454
  891MOL0     C17529   3.798   8.885  11.570  0.3127  0.1371  0.2376
  891MOL0     N17530   4.352   8.952  11.152  0.0921  0.7169  0.7013
  891MOL0     N17531   4.478   8.937  11.156 -0.4314 -0.5771  0.5127
  891MOL0     C17532   5.747   8.561  11.129  1.0020  0.4093 -0.7920
  891MOL0     C17533   5.835   8.463  11.103  0.0425 -0.5638  0.4733
  891MOL0     C17534   6.093   8.101  11.069  0.8515 -1.0922  0.7239
  891MOL0     C17535   6.169   8.006  11.138 -1.0525  0.4782  0.4300
  891MOL0     C17536   6.268   7.926  11.065 -0.1953 -0.0915 -0.2430
  891MOL0     C17537   6.287   7.946  10.928 -0.6537  0.9874 -0.3567
  891MOL0     O17538   6.380   7.871  10.860 -0.1019  0.5818 -0.2387
  891MOL0     C17539   6.387   7.727  10.876  1.2616 -0.2664  0.5217
  891MOL0     C17540   6.530   7.679  10.887 -0.7017  0.0927  0.7213
  891MOL0     C17541   6.546   7.523  10.906  1.1974 -0.2862  0.7453
  891MOL0     C17542   6.449   7.468  11.008  0.5290 -0.0579 -0.1593
  891MOL0     C17543   6.444   7.535  11.143  0.4110 -0.2585 -0.0142
  891MOL0     C17544   6.432   7.620  11.232 -0.3278 -0.2502 -0.3715
  891MOL0     C17545   6.221   8.044  10.859 -0.0068 -0.4717  0.5144
  891MOL0     C17546   6.125   8.123  10.928 -0.5237  0.2962 -0.2409
  891MOL0     H17547   5.643   8.186  11.132  2.0223 -0.4937  1.8970
  891MOL0     H17548   5.470   8.372  11.177  0.5146  0.5243 -0.1884
  891MOL0     H17549   5.349   8.558  11.260 -0.9333  3.0587  0.8677
  891MOL0     H17550   5.340   8.526  11.087  0.3263  0.1453 -0.3420
  891MOL0     H17551   5.369   8.783  11.076 -0.4414 -1.1559 -1.1556
  891MOL0     H17552   5.354   8.803  11.246  0.5456  2.3011 -2.0740
  891MOL0     H17553   5.135   8.681  11.250 -0.4424 -0.9984 -1.6699
  891MOL0     H17554   5.152   8.668  11.069 -2.4266 -0.0042 -0.6770
  891MOL0     H17555   5.138   8.938  11.218 -1.6396  2.2735 -1.2437
  891MOL0     H17556   5.126   8.916  11.049  1.2193  2.9121  1.6387
  891MOL0     H17557   4.920   8.970  11.150 -1.5562  0.0153 -3.3630
  891MOL0     H17558   4.934   8.837  11.271 -0.0781 -0.2214 -0.7140
  891MOL0     H17559   4.899   8.673  11.113 -0.3069  0.8818  1.5272
  891MOL0     H17560   4.905   8.783  10.977  1.6334 -0.9143  1.0780
  891MOL0     H17561   4.709   8.912  11.057  0.0653  0.6372  0.2036
  891MOL0     H17562   4.683   8.742  11.017 -0.1426  0.9752 -1.0561
  891MOL0     H17563   4.700   8.857  11.301 -0.1812 -1.6545  1.9019
  891MOL0     H17564   4.670   8.688  11.263 -2.5318 -0.1844 -1.2221
  891MOL0     H17565   4.403   8.644  11.267 -0.5222 -0.6080 -2.2802
  891MOL0     H17566   4.142   8.702  11.285 -0.2160  0.2179 -0.5521
  891MOL0     H17567   4.127   8.765  11.110  2.1900  0.8008 -2.0517
  891MOL0     H17568   4.070   8.983  11.202 -1.7952  0.6045 -0.2758
  891MOL0     H17569   4.080   8.914  11.371 -1.8121 -1.0350  1.3945
  891MOL0     H17570   3.862   8.938  11.316 -1.1301 -0.7656  2.4555
  891MOL0     H17571   3.878   8.866  11.148  0.2383 -2.5764  0.6307
  891MOL0     H17572   3.926   8.663  11.246  1.1210  0.5348  0.2239
  891MOL0     H17573   3.769   8.724  11.277  0.3185 -1.4637 -1.6947
  891MOL0     H17574   3.653   8.599  11.468 -1.4418  1.5431 -1.9794
  891MOL0     H17575   3.453   8.707  11.557  1.4302 -0.4885 -1.1793
  891MOL0     H17576   3.147   8.961  11.536 -0.7411 -0.9605 -0.5575
  891MOL0     H17577   2.930   9.053  11.597 -0.7640  2.2667  0.2923
  891MOL0     H17578   2.810   8.966  12.045 -2.0026 -2.3577  0.8918
  891MOL0     H17579   2.790   8.853  11.910 -0.2462  0.1655  0.3738
  891MOL0     H17580   2.582   8.910  12.021 -0.5245  1.1771  0.7725
  891MOL0     H17581   2.599   8.969  11.848 -0.4812 -0.0560 -0.1268
  891MOL0     H17582   2.494   9.158  11.983  0.0561 -0.0506  0.3318
  891MOL0     H17583   2.660   9.196  11.950 -2.7471  0.7113 -3.1530
  891MOL0     H17584   2.549   9.068  12.194 -1.0536  0.2053 -2.4032
  891MOL0     H17585   2.723   9.108  12.180  0.4646  0.9180  2.7728
  891MOL0     H17586   2.502   9.322  12.179  1.1930  1.6178 -0.0082
  891MOL0     H17587   2.676   9.345  12.188  0.7883 -0.2630  0.1530
  891MOL0     H17588   2.515   9.190  12.400 -1.4092  0.2366 -0.3628
  891MOL0     H17589   2.547   9.358  12.400  0.5291 -0.9875  0.8387
  891MOL0     H17590   2.782   9.156  12.406 -2.8349 -1.4964  3.0846
  891MOL0     H17591   2.796   9.335  12.400  1.7570 -1.6412 -0.1659
  891MOL0     H17592   2.646   9.330  12.607 -0.2572  1.0816 -2.0996
  891MOL0     H17593   2.815   9.269  12.624  1.9904  0.0245 -3.4245
  891MOL0     H17594   3.040   8.995  12.014  1.0703  5.3819  0.2911
  891MOL0     H17595   3.267   8.944  11.945  0.2261  1.0787 -0.5988
  891MOL0     H17596   3.698   9.033  11.692  0.2984  0.1664  0.5218
  891MOL0     H17597   3.883   8.945  11.540 -1.0641  1.9771 -0.1518
  891MOL0     H17598   5.770   8.667  11.132  0.1249  0.6133 -1.0262
  891MOL0     H17599   5.935   8.500  11.084 -0.0212 -1.3506 -1.6375
  891MOL0     H17600   6.152   7.990  11.244 -0.5470  0.8489  0.5729
  891MOL0     H17601   6.328   7.852  11.117 -2.1186 -1.1479  0.5841
  891MOL0     H17602   6.349   7.691  10.780  1.5890  1.4367 -0.2828
  891MOL0     H17603   6.335   7.685  10.962  0.3676  0.7871  0.5246
  891MOL0     H17604   6.590   7.698  10.797  1.1148  2.6836  2.3260
  891MOL0     H17605   6.580   7.731  10.969  0.8303 -0.4142  0.1456
  891MOL0     H17606   6.646   7.497  10.941  1.5725  0.2593  0.1116
  891MOL0     H17607   6.538   7.477  10.807  0.2214  3.6669 -1.2153
  891MOL0     H17608   6.354   7.496  10.961 -0.6310  1.8895  3.0447
  891MOL0     H17609   6.449   7.359  11.018 -0.9483  0.0103  0.8572
  891MOL0     H17610   6.425   7.697  11.306  1.7036 -1.4657  1.1983
  891MOL0     H17611   6.234   8.050  10.752  1.2884  0.2943  0.6877
  891MOL0     H17612   6.062   8.189  10.869 -2.6751 -1.3404  0.1203
  892MOL0     O17613   2.099  10.613   1.190  0.1233 -0.0413  0.3708
  892MOL0     C17614   2.123  10.536   1.093 -0.1712  0.0811  0.6436
  892MOL0     O17615   2.036  10.453   1.023 -0.0424  0.4941  0.5610
  892MOL0     C17616   1.914  10.436   1.087  0.0264  0.2009 -0.6763
  892MOL0     C17617   1.907  10.325   1.175 -0.4877  0.4760  0.0819
  892MOL0     C17618   1.785  10.280   1.222 -0.1450  0.0013 -0.4297
  892MOL0     C17619   1.666  10.358   1.197 -0.2730 -0.4116 -0.0725
  892MOL0     O17620   1.541  10.325   1.250 -0.3549  0.0604 -0.6356
  892MOL0     C17621   1.527  10.184   1.291  0.3478 -0.0354  0.6365
  892MOL0     C17622   1.378  10.161   1.262 -0.1723  0.4147  1.3031
  892MOL0     C17623   1.338  10.018   1.313  0.2653  0.1546 -0.5979
  892MOL0     C17624   1.207   9.969   1.250  0.5526  0.1693  0.3355
  892MOL0     C17625   1.158   9.831   1.300  0.1635  0.4703  0.1909
  892MOL0     C17626   1.035   9.775   1.225 -0.1926  0.3527 -0.0263
  892MOL0     C17627   0.904   9.828   1.284  0.3147  0.3327 -0.6425
  892MOL0     C17628   0.783   9.763   1.216  0.7237  0.2882 -0.7470
  892MOL0     N17629   0.655   9.825   1.254  1.1271 -0.5587  0.4364
  892MOL0     C17630   0.573   9.777   1.354  0.0876 -0.6999  0.8548
  892MOL0     C17631   0.460   9.844   1.338 -1.2437 -0.9910  0.0382
  892MOL0     C17632   0.337   9.804   1.412 -0.3068 -0.4544 -0.7578
  892MOL0     C17633   0.243   9.700   1.346  0.3545 -0.6056  0.0291
  892MOL0     C17634   0.167   9.618   1.448  0.0937  0.7045 -0.3922
  892MOL0     C17635   0.066   9.524   1.386  0.2765  0.3521 -0.4175
  892MOL0     O17636  -0.035   9.604   1.319  0.4330 -0.6990 -0.4312
  892MOL0     C17637  -0.157   9.624   1.387  0.7307  0.3600 -0.6535
  892MOL0     C17638  -0.262   9.638   1.301  0.4566 -0.5726 -0.4292
  892MOL0     C17639  -0.390   9.639   1.356 -0.8866 -0.0158 -0.4448
  892MOL0     C17640  -0.414   9.610   1.499 -0.9235 -0.1680 -0.1565
  892MOL0     C17641  -0.553   9.590   1.553 -0.3578 -0.8003 -0.5897
  892MOL0     O17642  -0.652   9.573   1.464  0.5821  0.1820 -0.8219
  892MOL0     C17643  -0.786   9.560   1.510 -1.0193  0.5348  0.6217
  892MOL0     C17644  -0.834   9.487   1.620 -0.2129 -0.3637  0.2151
  892MOL0     C17645  -0.973   9.475   1.646 -0.6324 -0.9739  0.2509
  892MOL0     C17646  -1.067   9.531   1.560 -1.3390  0.0632  0.8847
  892MOL0     O17647  -1.194   9.515   1.588  0.2348  0.6820 -0.5262
  892MOL0     C17648  -1.299   9.576   1.510  0.3729 -0.2646 -0.8187
  892MOL0     C17649  -1.437   9.562   1.582  0.2301  0.3311  0.8948
  892MOL0     C17650  -1.559   9.577   1.481 -0.3529 -0.3476  0.8067
  892MOL0     C17651  -1.687   9.549   1.556  0.6205 -0.0578  0.1352
  892MOL0     C17652  -1.795   9.668   1.535 -0.6241  0.3456 -0.3579
  892MOL0     C17653  -1.931   9.633   1.600  0.1324  0.2151  0.4379
  892MOL0     C17654  -1.997   9.514   1.539 -0.5346  0.0281  0.1361
  892MOL0     C17655  -2.140   9.488   1.599 -0.5115  0.4020  0.8442
  892MOL0    Cl17656  -2.243   9.638   1.580 -0.3523  0.0688  0.0652
  892MOL0     C17657  -1.015   9.618   1.456  0.4426  0.2245 -0.3368
  892MOL0     C17658  -0.875   9.631   1.432  0.6352 -1.4172  0.0127
  892MOL0     O17659  -0.560   9.590   1.677 -0.0799 -0.6824  1.0829
  892MOL0     C17660  -0.299   9.605   1.584  0.4093 -0.2140  0.7505
  892MOL0     C17661  -0.172   9.619   1.532  1.0297 -0.6249  0.5549
  892MOL0     N17662   0.464   9.931   1.231  0.2935 -0.8114 -0.3197
  892MOL0     N17663   0.582   9.913   1.178 -0.1487 -1.0986 -0.1659
  892MOL0     C17664   1.676  10.477   1.129 -0.0206  0.7934  0.5638
  892MOL0     C17665   1.798  10.509   1.068  0.0414  1.5819 -0.2693
  892MOL0     C17666   2.264  10.537   1.050 -0.7278  0.1957  0.3021
  892MOL0     C17667   2.322  10.437   0.974 -0.4963 -0.9444  0.3199
  892MOL0     C17668   2.459  10.432   0.942 -0.3874 -1.1477  1.0200
  892MOL0     C17669   2.551  10.513   1.008 -0.3450 -0.8554  0.3456
  892MOL0     O17670   2.687  10.500   1.017 -0.2310 -0.6144 -0.5546
  892MOL0     C17671   2.745  10.390   0.948  0.0757 -0.0858 -0.1147
  892MOL0     C17672   2.878  10.344   1.003 -0.3500  0.4735 -0.1766
  892MOL0     C17673   2.932  10.222   0.928  0.3389  0.6588 -0.0127
  892MOL0     C17674   3.053  10.166   1.004  0.4920  0.4946  0.2254
  892MOL0     C17675   3.019  10.111   1.138 -0.0044 -0.0296 -0.1986
  892MOL0     C17676   2.984  10.064   1.240 -0.3094  0.0270 -0.2037
  892MOL0     C17677   2.496  10.612   1.097 -0.2320  0.2151  0.2576
  892MOL0     C17678   2.360  10.621   1.121 -0.7536  0.2372 -0.2657
  892MOL0     H17679   1.993  10.263   1.197 -1.3308 -0.3488  1.2020
  892MOL0     H17680   1.790  10.189   1.281  0.5972 -0.0659 -0.5828
  892MOL0     H17681   1.545  10.172   1.398 -0.7799 -0.2492  0.8176
  892MOL0     H17682   1.601  10.124   1.237 -0.2896  1.2156 -1.7583
  892MOL0     H17683   1.370  10.158   1.153  0.5917  1.7974  1.1817
  892MOL0     H17684   1.313  10.237   1.306 -2.1192 -0.0118 -0.6538
  892MOL0     H17685   1.324  10.016   1.422 -1.5677  2.2040 -0.7242
  892MOL0     H17686   1.420   9.951   1.285  0.7732  1.1046 -1.4667
  892MOL0     H17687   1.125  10.038   1.273  1.5009  1.8167 -1.0049
  892MOL0     H17688   1.217   9.962   1.142 -0.7395 -0.6941  0.2558
  892MOL0     H17689   1.150   9.836   1.409 -2.5255  0.0308  0.0870
  892MOL0     H17690   1.242   9.766   1.274 -2.2240 -1.6770 -2.9998
  892MOL0     H17691   1.029   9.666   1.224 -4.5302  0.4299 -0.3971
  892MOL0     H17692   1.041   9.804   1.120 -0.7258 -3.5971 -1.3069
  892MOL0     H17693   0.908   9.826   1.394  0.9479  2.4765 -0.5973
  892MOL0     H17694   0.896   9.932   1.251 -3.1160  0.5660  0.5051
  892MOL0     H17695   0.791   9.656   1.237  1.8082  0.3702 -0.6700
  892MOL0     H17696   0.791   9.783   1.108  1.5074  2.5482 -0.3201
  892MOL0     H17697   0.599   9.700   1.427  0.9583 -0.1520  1.1405
  892MOL0     H17698   0.279   9.895   1.430  1.1950  0.6802 -1.4536
  892MOL0     H17699   0.377   9.770   1.508  1.8333 -0.7596 -1.6944
  892MOL0     H17700   0.305   9.636   1.282 -0.8597 -1.4587 -0.3285
  892MOL0     H17701   0.175   9.760   1.286 -0.2159 -2.1498 -0.9233
  892MOL0     H17702   0.233   9.563   1.516 -1.4935 -0.7435  0.0232
  892MOL0     H17703   0.120   9.692   1.514  0.1032  0.2841  0.0900
  892MOL0     H17704   0.030   9.468   1.472  1.6342 -1.1814 -0.7911
  892MOL0     H17705   0.110   9.453   1.314 -1.3283  0.0492 -1.1334
  892MOL0     H17706  -0.251   9.628   1.193 -1.6465 -1.9202 -0.5839
  892MOL0     H17707  -0.474   9.626   1.288 -0.2758  1.7449 -1.6104
  892MOL0     H17708  -0.769   9.436   1.691 -2.3656 -1.4479  1.5183
  892MOL0     H17709  -1.006   9.402   1.719 -0.7171  0.0670  1.2813
  892MOL0     H17710  -1.312   9.522   1.416 -1.6526 -1.6831  0.2145
  892MOL0     H17711  -1.281   9.682   1.486 -0.1616  0.3879  1.4427
  892MOL0     H17712  -1.445   9.633   1.665 -3.8698  3.2323 -1.5851
  892MOL0     H17713  -1.449   9.460   1.620  3.0775 -0.0215  1.0842
  892MOL0     H17714  -1.542   9.507   1.398  2.4670 -2.2632  2.8299
  892MOL0     H17715  -1.547   9.676   1.436  1.5774 -0.5042  0.8854
  892MOL0     H17716  -1.735   9.455   1.525  0.0711  0.4757 -0.6564
  892MOL0     H17717  -1.668   9.525   1.661  0.5550 -2.2720 -0.3137
  892MOL0     H17718  -1.797   9.695   1.429 -1.4887  4.9615  0.6292
  892MOL0     H17719  -1.755   9.761   1.577  2.0606 -0.6043 -0.6692
  892MOL0     H17720  -1.990   9.724   1.581  1.6781  0.9077 -1.3995
  892MOL0     H17721  -1.918   9.632   1.708 -3.3994  1.8561  1.0281
  892MOL0     H17722  -1.997   9.513   1.430 -1.6375 -1.0378  0.1223
  892MOL0     H17723  -1.938   9.425   1.563 -0.6040  0.0203  0.2761
  892MOL0     H17724  -2.136   9.467   1.706  0.7344  2.2842  1.2321
  892MOL0     H17725  -2.188   9.400   1.557 -0.1828  0.2435  0.7909
  892MOL0     H17726  -1.080   9.668   1.386  0.5384  0.5057 -0.2267
  892MOL0     H17727  -0.853   9.700   1.351 -2.0917 -0.6511 -0.1792
  892MOL0     H17728  -0.292   9.589   1.691 -0.0689  0.7139  0.9279
  892MOL0     H17729  -0.084   9.605   1.594  1.3529 -1.4014 -0.0500
  892MOL0     H17730   1.583  10.532   1.118 -2.0188 -2.6930 -1.6412
  892MOL0     H17731   1.811  10.585   0.990  2.1925 -0.1127 -1.6801
  892MOL0     H17732   2.254  10.364   0.931  0.4357 -1.4938 -0.2350
  892MOL0     H17733   2.479  10.349   0.875  0.8683 -1.8407  2.2002
  892MOL0     H17734   2.767  10.415   0.844  0.6511 -0.7261 -0.1541
  892MOL0     H17735   2.682  10.300   0.958  0.5261 -0.8361 -3.1748
  892MOL0     H17736   2.962  10.412   0.988  1.5606 -2.1249 -2.2301
  892MOL0     H17737   2.873  10.326   1.111  1.6090  2.0980  0.2489
  892MOL0     H17738   2.954  10.252   0.825 -0.3858  0.0318 -0.3601
  892MOL0     H17739   2.859  10.140   0.927  2.1072 -1.1600  3.2823
  892MOL0     H17740   3.106  10.092   0.942  1.9743  2.4853 -1.0064
  892MOL0     H17741   3.131  10.242   1.011  3.5446 -2.2025 -1.5290
  892MOL0     H17742   2.923  10.016   1.314 -2.9312  4.2117  0.6790
  892MOL0     H17743   2.559  10.688   1.140 -0.0916  0.2946 -0.0825
  892MOL0     H17744   2.325  10.703   1.183 -0.4407  1.2251 -1.3751
  893MOL0     O17745   5.137   7.321  10.652  0.1867  0.1749  0.4082
  893MOL0     C17746   5.094   7.210  10.622  0.5353  0.1942  0.1355
  893MOL0     O17747   4.956   7.170  10.623 -0.2649 -0.0503 -0.6576
  893MOL0     C17748   4.865   7.265  10.635  0.4868 -0.3109 -0.3324
  893MOL0     C17749   4.775   7.301  10.537  0.5753  0.0232 -0.3473
  893MOL0     C17750   4.673   7.401  10.554  0.0491  0.3439  0.9182
  893MOL0     C17751   4.656   7.457  10.687 -0.6663  0.3047  0.0495
  893MOL0     O17752   4.561   7.552  10.713 -0.0178 -0.8447  0.2216
  893MOL0     C17753   4.507   7.650  10.616  0.5141 -0.0458 -0.5391
  893MOL0     C17754   4.379   7.576  10.549  0.2098 -0.1618  0.9328
  893MOL0     C17755   4.291   7.674  10.474  0.4601 -0.2481  0.3928
  893MOL0     C17756   4.218   7.592  10.362  0.1234 -0.2260 -1.3198
  893MOL0     C17757   4.123   7.687  10.275 -0.1443  0.1903  0.5627
  893MOL0     C17758   3.979   7.697  10.332  0.3276 -0.4726  0.4366
  893MOL0     C17759   3.889   7.757  10.226 -0.6956  0.1856  0.6551
  893MOL0     C17760   3.736   7.766  10.271 -0.2497 -0.1572 -0.2650
  893MOL0     N17761   3.706   7.851  10.389 -0.3560 -0.2117 -0.9877
  893MOL0     C17762   3.656   7.811  10.506 -0.6662  0.4913 -1.0541
  893MOL0     C17763   3.629   7.925  10.578 -0.0151  1.5416 -0.1000
  893MOL0     C17764   3.593   7.928  10.732  0.0668  0.4496 -0.1876
  893MOL0     C17765   3.441   7.972  10.747  0.0388  0.1226 -0.2176
  893MOL0     C17766   3.406   7.993  10.898 -1.0693  0.6502  0.6509
  893MOL0     C17767   3.260   8.036  10.911  0.7770  0.6014 -0.6955
  893MOL0     O17768   3.230   8.045  11.054 -0.0229  0.6267  0.7332
  893MOL0     C17769   3.122   8.118  11.107 -1.1922 -0.0686 -0.7216
  893MOL0     C17770   3.096   8.104  11.248  0.6546  0.1777  0.0129
  893MOL0     C17771   2.991   8.186  11.307  0.6461 -0.2490 -0.0611
  893MOL0     C17772   2.941   8.293  11.232 -0.3672  1.2968 -0.0650
  893MOL0     C17773   2.853   8.384  11.297 -0.5130 -0.0497 -0.2762
  893MOL0     O17774   2.802   8.487  11.220 -0.4193 -0.1193  0.1444
  893MOL0     C17775   2.740   8.591  11.294  0.3914 -0.1750  0.0660
  893MOL0     C17776   2.808   8.685  11.371  0.0632  0.4214  0.4759
  893MOL0     C17777   2.738   8.790  11.437  0.6815  0.6031  0.7103
  893MOL0     C17778   2.592   8.798  11.428 -0.2812 -0.4651 -0.3234
  893MOL0     O17779   2.519   8.901  11.492  0.3451 -0.2387 -0.7764
  893MOL0     C17780   2.584   9.003  11.553 -0.3137 -0.1226 -0.0348
  893MOL0     C17781   2.480   9.083  11.622  1.1041 -0.2593 -1.0700
  893MOL0     C17782   2.385   9.172  11.534  0.0766 -0.1701  0.4292
  893MOL0     C17783   2.304   9.259  11.630  0.7762 -0.6305  0.7827
  893MOL0     C17784   2.176   9.323  11.573  0.2843 -0.0847  0.1291
  893MOL0     C17785   2.064   9.225  11.538  0.4291  0.3729  0.3268
  893MOL0     C17786   1.942   9.296  11.474  0.1560  0.0517  0.5289
  893MOL0     C17787   1.819   9.246  11.537  0.6430 -0.5984 -0.0960
  893MOL0    Cl17788   1.665   9.319  11.464  0.2036  0.1932  0.3496
  893MOL0     C17789   2.534   8.704  11.354 -0.2831 -0.9455 -0.4825
  893MOL0     C17790   2.600   8.601  11.285  0.2455  0.8054 -0.1182
  893MOL0     O17791   2.836   8.376  11.422 -0.2661  0.6651  0.7599
  893MOL0     C17792   2.976   8.304  11.097 -0.4307 -0.5408  0.0537
  893MOL0     C17793   3.065   8.220  11.034  0.5458 -0.0817 -0.1507
  893MOL0     N17794   3.675   8.027  10.509  0.1459 -1.2168 -0.0113
  893MOL0     N17795   3.714   7.988  10.393 -0.4029  0.1392  0.5066
  893MOL0     C17796   4.738   7.411  10.789  0.7782 -1.0076 -0.0900
  893MOL0     C17797   4.832   7.314  10.765 -0.1713 -0.4787  0.0941
  893MOL0     C17798   5.183   7.109  10.563 -0.2586  0.5157  0.7507
  893MOL0     C17799   5.141   6.985  10.497 -0.7277  0.3353  0.3511
  893MOL0     C17800   5.232   6.895  10.442  0.2909 -0.0422 -0.0738
  893MOL0     C17801   5.366   6.920  10.464 -0.6187  0.1271  0.2111
  893MOL0     O17802   5.451   6.820  10.436  0.1567  0.3215 -0.0299
  893MOL0     C17803   5.521   6.862  10.315  0.1956  0.5657 -0.9058
  893MOL0     C17804   5.667   6.919  10.355  0.2208  0.6631 -0.6619
  893MOL0     C17805   5.746   6.825  10.451  0.5271 -0.6841 -0.9251
  893MOL0     C17806   5.882   6.890  10.482  0.4440 -0.9389  0.5573
  893MOL0     C17807   5.880   6.911  10.628 -0.8021 -0.0722  0.5665
  893MOL0     C17808   5.884   6.948  10.743  0.2379 -0.5528 -0.2387
  893MOL0     C17809   5.407   7.035  10.529  0.0881 -1.0081  0.6136
  893MOL0     C17810   5.318   7.134  10.570 -1.5357  0.8484  0.6862
  893MOL0     H17811   4.792   7.249  10.444 -1.1676 -1.2664  0.0020
  893MOL0     H17812   4.614   7.430  10.468 -0.5136 -0.9934  0.8283
  893MOL0     H17813   4.578   7.688  10.543 -0.4888  0.2212 -1.4037
  893MOL0     H17814   4.466   7.734  10.672 -2.1825 -1.5398 -0.0867
  893MOL0     H17815   4.315   7.519  10.617 -3.8738  0.8113 -1.7022
  893MOL0     H17816   4.417   7.492  10.489 -0.9268 -0.3878  0.5069
  893MOL0     H17817   4.348   7.753  10.425 -3.2406  2.6212  0.2316
  893MOL0     H17818   4.221   7.727  10.539 -1.2887 -0.4000 -1.2523
  893MOL0     H17819   4.292   7.536  10.303  2.1008 -2.7090  3.0255
  893MOL0     H17820   4.154   7.519  10.412  0.3955  1.3532  1.5747
  893MOL0     H17821   4.117   7.645  10.174  1.6936 -0.9957  0.9016
  893MOL0     H17822   4.174   7.784  10.266  0.9510 -0.3653  0.6266
  893MOL0     H17823   3.987   7.759  10.421 -1.0093  0.9236 -0.3575
  893MOL0     H17824   3.939   7.597  10.349  0.7351 -1.2221 -2.4975
  893MOL0     H17825   3.937   7.854  10.208  1.3335 -1.3599 -3.2822
  893MOL0     H17826   3.898   7.714  10.126  2.2722  1.1692  0.3932
  893MOL0     H17827   3.704   7.662  10.281  0.0731 -0.1185  1.3838
  893MOL0     H17828   3.680   7.812  10.189 -0.7585 -0.1149  0.1019
  893MOL0     H17829   3.652   7.712  10.550  0.6991  1.0762  0.5301
  893MOL0     H17830   3.661   7.991  10.790  0.4965  0.0045 -0.1941
  893MOL0     H17831   3.612   7.829  10.776  0.0248  0.8313  0.7043
  893MOL0     H17832   3.376   7.896  10.704 -0.1401  1.3965 -2.3278
  893MOL0     H17833   3.409   8.058  10.686 -1.0097  0.1714  0.3798
  893MOL0     H17834   3.418   7.902  10.958  4.8209 -0.0593 -0.9180
  893MOL0     H17835   3.482   8.067  10.926  2.4458 -0.9438 -3.4726
  893MOL0     H17836   3.177   7.983  10.863  0.0878  0.7579  0.2922
  893MOL0     H17837   3.255   8.135  10.865 -0.8566  1.3749  1.0380
  893MOL0     H17838   3.170   8.043  11.298 -0.7198 -1.1888  0.4590
  893MOL0     H17839   2.970   8.174  11.413  1.7358  2.0996  0.4702
  893MOL0     H17840   2.916   8.671  11.372 -0.1853 -2.0061 -0.8763
  893MOL0     H17841   2.806   8.854  11.492  4.1520 -2.0412 -0.1734
  893MOL0     H17842   2.647   9.057  11.482 -0.8625 -0.0408 -0.4659
  893MOL0     H17843   2.647   8.955  11.629 -0.5513 -0.4164 -0.0197
  893MOL0     H17844   2.537   9.148  11.689 -0.3352 -0.3903  0.3346
  893MOL0     H17845   2.425   9.011  11.683  2.8147  1.3209  2.6509
  893MOL0     H17846   2.326   9.122  11.456  0.7523 -3.8507  2.0477
  893MOL0     H17847   2.446   9.240  11.474 -1.3920 -0.3774 -1.3839
  893MOL0     H17848   2.267   9.189  11.706  4.0748 -2.0762  1.2326
  893MOL0     H17849   2.360   9.340  11.679 -0.3849  0.4761  0.3419
  893MOL0     H17850   2.193   9.377  11.479 -1.9002 -1.9659 -1.4636
  893MOL0     H17851   2.139   9.385  11.655  4.2281  2.3791  0.2760
  893MOL0     H17852   2.039   9.178  11.634  3.3465 -5.0642 -1.1548
  893MOL0     H17853   2.105   9.160  11.460  1.1592 -0.1014  1.0844
  893MOL0     H17854   1.951   9.405  11.478 -0.8208  0.2735 -1.7115
  893MOL0     H17855   1.937   9.271  11.368 -0.0803  0.2574  0.4907
  893MOL0     H17856   1.807   9.264  11.644 -1.1104  1.9189 -0.6345
  893MOL0     H17857   1.820   9.142  11.503 -2.7183  0.6492 -5.1220
  893MOL0     H17858   2.428   8.728  11.349  0.3173  1.6908 -2.3436
  893MOL0     H17859   2.546   8.531  11.223 -0.4663  1.4245 -0.2175
  893MOL0     H17860   2.931   8.394  11.058 -1.1128 -1.6991 -1.9825
  893MOL0     H17861   3.112   8.255  10.943  0.8593  0.2139  0.1202
  893MOL0     H17862   4.725   7.458  10.886  3.6094  2.9868 -1.3704
  893MOL0     H17863   4.900   7.283  10.844  3.0822  2.1883 -1.4259
  893MOL0     H17864   5.033   6.981  10.486 -0.6233  2.0085 -2.0598
  893MOL0     H17865   5.195   6.807  10.391  1.8634 -0.6708 -0.2069
  893MOL0     H17866   5.472   6.941  10.257  2.1058  2.1081 -0.5305
  893MOL0     H17867   5.536   6.771  10.256  1.3813  1.3238 -1.8325
  893MOL0     H17868   5.737   6.934  10.272  1.1979 -1.3459 -0.2682
  893MOL0     H17869   5.654   7.019  10.397  4.5325  1.5280 -0.9928
  893MOL0     H17870   5.760   6.737  10.388  0.0840 -0.5312 -1.2460
  893MOL0     H17871   5.680   6.810  10.537 -1.9698  0.0117 -2.6085
  893MOL0     H17872   5.969   6.826  10.463  1.0964 -0.5580  2.0766
  893MOL0     H17873   5.896   6.989  10.439  0.4860  0.3865  3.3889
  893MOL0     H17874   5.881   6.976  10.846 -1.7828 -2.5388  0.3116
  893MOL0     H17875   5.508   7.048  10.566 -0.0508 -1.6270  1.2304
  893MOL0     H17876   5.359   7.225  10.613 -2.2789  2.0599 -1.0556
  894MOL0     O17877   9.911   7.476   5.605 -0.0452 -0.1197 -0.3096
  894MOL0     C17878   9.969   7.499   5.505 -0.5019  0.2496 -0.2741
  894MOL0     O17879   9.913   7.524   5.382 -0.4703 -0.3387 -0.2303
  894MOL0     C17880   9.780   7.548   5.353  0.9270 -0.8146 -0.3589
  894MOL0     C17881   9.753   7.613   5.227  0.1545 -0.1785  0.2702
  894MOL0     C17882   9.617   7.630   5.205  0.5663  1.0845  0.1289
  894MOL0     C17883   9.504   7.585   5.289  0.1116 -0.9457  0.7679
  894MOL0     O17884   9.372   7.623   5.255  0.4599  0.3831  0.0416
  894MOL0     C17885   9.273   7.517   5.283 -0.2581 -0.0551  0.1069
  894MOL0     C17886   9.189   7.550   5.408 -0.4246 -0.6280 -0.5536
  894MOL0     C17887   9.105   7.676   5.391  0.1783 -0.2290  1.0214
  894MOL0     C17888   8.966   7.650   5.323 -0.5925 -0.3046  0.4070
  894MOL0     C17889   8.895   7.779   5.286  0.2485  0.0328 -0.2322
  894MOL0     C17890   8.758   7.722   5.234 -0.2397  0.0168 -0.4189
  894MOL0     C17891   8.689   7.849   5.163  0.7616  0.3691  0.0367
  894MOL0     C17892   8.556   7.822   5.102  0.5924  0.0440  0.3881
  894MOL0     N17893   8.470   7.746   5.194  0.6909 -0.6600 -0.0417
  894MOL0     C17894   8.445   7.789   5.323 -0.2908 -0.9282  0.0082
  894MOL0     C17895   8.365   7.691   5.384  0.0810  0.5949 -0.3563
  894MOL0     C17896   8.334   7.675   5.533 -0.7351 -0.2370  0.2025
  894MOL0     C17897   8.186   7.680   5.556 -0.1871 -0.2398 -0.2165
  894MOL0     C17898   8.153   7.637   5.697  0.7711  0.4485 -0.4975
  894MOL0     C17899   7.999   7.642   5.708  0.2550 -0.3055  0.4017
  894MOL0     O17900   7.954   7.777   5.708  0.0733  0.1360 -0.4734
  894MOL0     C17901   7.821   7.799   5.736 -0.3735  0.5554 -0.3462
  894MOL0     C17902   7.802   7.914   5.811 -0.1490  1.1063 -0.4030
  894MOL0     C17903   7.673   7.940   5.866 -0.7100 -0.8709  0.3036
  894MOL0     C17904   7.559   7.867   5.825  0.2547 -0.1207  0.5725
  894MOL0     C17905   7.427   7.914   5.877  0.9995  0.3181  0.1314
  894MOL0     O17906   7.326   7.819   5.893  0.1035  0.2534  0.2541
  894MOL0     C17907   7.207   7.862   5.952  0.4352  0.5218  0.4519
  894MOL0     C17908   7.203   7.938   6.070 -0.8107 -0.0938  0.6112
  894MOL0     C17909   7.086   7.989   6.119 -0.7111  0.7714  0.5099
  894MOL0     C17910   6.965   7.970   6.061  0.8150 -0.5290 -0.4691
  894MOL0     O17911   6.858   8.027   6.122 -0.5861 -0.8295 -0.1014
  894MOL0     C17912   6.721   8.011   6.079  0.2396  0.4076  0.9697
  894MOL0     C17913   6.632   8.019   6.206  0.4164  0.4270  0.6625
  894MOL0     C17914   6.484   8.053   6.163  0.6402 -0.3501 -0.2345
  894MOL0     C17915   6.404   8.042   6.296 -0.1679  0.3444  1.1705
  894MOL0     C17916   6.261   8.101   6.281  0.7760  0.0808  0.1314
  894MOL0     C17917   6.252   8.251   6.228 -1.0202  0.1070  0.0047
  894MOL0     C17918   6.126   8.326   6.285  0.0671 -0.3855 -0.4404
  894MOL0     C17919   6.170   8.412   6.399 -0.5820 -0.7161  0.0089
  894MOL0    Cl17920   6.254   8.323   6.539  0.1894 -0.7584  0.1596
  894MOL0     C17921   6.967   7.885   5.949 -0.1673  0.0004  0.8888
  894MOL0     C17922   7.081   7.825   5.891 -0.4329 -0.0261 -0.2259
  894MOL0     O17923   7.403   8.035   5.878 -0.1804 -0.1008  0.3759
  894MOL0     C17924   7.581   7.764   5.738  0.5902  0.1923  0.1254
  894MOL0     C17925   7.706   7.732   5.701  0.0218 -0.5162 -0.1265
  894MOL0     N17926   8.332   7.601   5.286  0.2421  0.6231  0.2179
  894MOL0     N17927   8.400   7.633   5.178 -0.6344  0.9323 -0.4005
  894MOL0     C17928   9.537   7.533   5.412  0.4198  0.4395  0.1899
  894MOL0     C17929   9.673   7.513   5.444  0.2567 -0.0631  0.7565
  894MOL0     C17930  10.120   7.518   5.511  0.2131  0.0573 -0.4719
  894MOL0     C17931  10.206   7.518   5.398  0.2361 -0.8055 -0.8838
  894MOL0     C17932  10.347   7.550   5.409 -0.0378 -0.0004 -0.0731
  894MOL0     C17933  10.397   7.581   5.538  0.1922 -0.3175  1.0851
  894MOL0     O17934  10.533   7.614   5.546 -0.4752 -0.7523  0.3084
  894MOL0     C17935  10.594   7.613   5.678 -0.0004 -0.6948 -0.1200
  894MOL0     C17936  10.739   7.639   5.659  0.2344 -0.2750  0.9374
  894MOL0     C17937  10.812   7.644   5.786 -0.4321  0.3279  0.1521
  894MOL0     C17938  10.959   7.616   5.759 -0.0081 -0.2300 -0.6100
  894MOL0     C17939  11.025   7.670   5.881 -0.3746  1.1842  0.0800
  894MOL0     C17940  11.092   7.717   5.969  0.3474 -0.0325  0.1086
  894MOL0     C17941  10.309   7.579   5.651 -0.2840  0.0001 -0.2383
  894MOL0     C17942  10.171   7.544   5.645  0.8591  0.1577 -0.4989
  894MOL0     H17943   9.842   7.637   5.170 -0.1480  0.3534  0.0137
  894MOL0     H17944   9.595   7.682   5.113  1.6996 -0.7535 -1.2289
  894MOL0     H17945   9.313   7.417   5.300 -2.5442 -1.0685 -0.1051
  894MOL0     H17946   9.214   7.515   5.191 -0.3046  0.2260  0.1288
  894MOL0     H17947   9.254   7.567   5.495  0.4346  0.4781 -1.3752
  894MOL0     H17948   9.117   7.470   5.429  0.7648 -1.7636 -0.6712
  894MOL0     H17949   9.153   7.755   5.333 -1.1789 -1.0008 -1.3013
  894MOL0     H17950   9.085   7.704   5.495 -2.7621  1.0535  0.2045
  894MOL0     H17951   9.004   7.605   5.231  0.3967  0.2584  0.5263
  894MOL0     H17952   8.901   7.577   5.372 -1.3109 -1.3382 -1.9218
  894MOL0     H17953   8.955   7.842   5.220  0.2314  1.0341  0.6814
  894MOL0     H17954   8.871   7.837   5.376 -2.0317  0.7382 -1.2373
  894MOL0     H17955   8.696   7.690   5.318 -0.7890  1.1269 -0.3780
  894MOL0     H17956   8.750   7.638   5.165 -3.2069 -2.2780  2.4062
  894MOL0     H17957   8.667   7.930   5.233  0.5967  0.3653 -0.0104
  894MOL0     H17958   8.753   7.900   5.091 -0.4409  0.3708 -1.0794
  894MOL0     H17959   8.564   7.752   5.018  4.0072 -1.1752  1.5389
  894MOL0     H17960   8.506   7.916   5.076  0.8291 -0.0234 -0.3110
  894MOL0     H17961   8.480   7.881   5.370  0.5982 -0.7022 -1.0513
  894MOL0     H17962   8.377   7.769   5.569 -0.3323 -0.0937 -0.6215
  894MOL0     H17963   8.382   7.586   5.575 -0.0411 -0.4515 -1.0029
  894MOL0     H17964   8.135   7.616   5.484 -1.5689 -1.3333  1.6382
  894MOL0     H17965   8.159   7.784   5.533  0.3425  0.2352  1.2114
  894MOL0     H17966   8.178   7.533   5.720 -2.2742 -0.4278 -0.6658
  894MOL0     H17967   8.196   7.705   5.771 -1.1897  2.4918 -1.1141
  894MOL0     H17968   7.956   7.594   5.797 -0.2420 -0.3774  0.1235
  894MOL0     H17969   7.958   7.586   5.623  0.3571 -1.0962  0.8662
  894MOL0     H17970   7.890   7.964   5.850  0.0109 -0.8457  2.0047
  894MOL0     H17971   7.666   8.034   5.919 -1.8836  0.2013 -1.6396
  894MOL0     H17972   7.295   7.955   6.125  0.9288 -2.4784 -1.3448
  894MOL0     H17973   7.090   8.056   6.205 -1.5292  0.8400  0.5103
  894MOL0     H17974   6.697   7.924   6.017 -2.1456  0.5871  1.5311
  894MOL0     H17975   6.705   8.097   6.014 -0.1317 -0.4255 -0.0798
  894MOL0     H17976   6.675   8.097   6.269  3.4767  2.1601 -3.1751
  894MOL0     H17977   6.645   7.918   6.248  2.3570 -0.0982 -1.0201
  894MOL0     H17978   6.449   7.978   6.091  1.6179 -0.3096 -0.7611
  894MOL0     H17979   6.481   8.156   6.128 -3.3408  1.3405  3.9719
  894MOL0     H17980   6.398   7.934   6.315 -0.1458  0.3046  0.9653
  894MOL0     H17981   6.452   8.092   6.380  1.2096 -2.1609  1.9946
  894MOL0     H17982   6.216   8.102   6.381  2.2775 -0.6441  0.8499
  894MOL0     H17983   6.191   8.041   6.221 -1.1416  1.5857  0.7683
  894MOL0     H17984   6.241   8.253   6.119 -4.2373  0.2492  0.2200
  894MOL0     H17985   6.337   8.315   6.255 -1.6649  0.8396  0.3413
  894MOL0     H17986   6.072   8.363   6.198 -1.6826 -1.0115  0.3416
  894MOL0     H17987   6.051   8.255   6.321  0.7261 -1.0036 -0.2468
  894MOL0     H17988   6.079   8.461   6.436 -2.4921 -2.6239 -1.9268
  894MOL0     H17989   6.235   8.487   6.352 -2.1991 -0.0590 -1.2985
  894MOL0     H17990   6.873   7.850   5.907  0.6120 -1.0319 -0.0336
  894MOL0     H17991   7.081   7.776   5.794 -1.4235  1.5404 -1.0698
  894MOL0     H17992   7.501   7.715   5.684  0.6708 -0.8204  0.8825
  894MOL0     H17993   7.724   7.646   5.635 -0.5292 -2.1026  1.7065
  894MOL0     H17994   9.455   7.521   5.481 -3.3563 -1.1445 -4.0862
  894MOL0     H17995   9.687   7.476   5.545  0.5564 -0.4057  0.5905
  894MOL0     H17996  10.153   7.513   5.304 -0.6522  1.1632 -0.5565
  894MOL0     H17997  10.421   7.545   5.330  2.7565 -0.3908  2.4227
  894MOL0     H17998  10.576   7.515   5.723 -0.8863 -0.0944  0.9066
  894MOL0     H17999  10.553   7.697   5.736  1.8391  1.3287 -1.5926
  894MOL0     H18000  10.783   7.559   5.598  1.5821 -1.0993  2.8703
  894MOL0     H18001  10.750   7.734   5.606 -1.9571 -0.1594  0.6126
  894MOL0     H18002  10.777   7.577   5.865  0.1717  1.1552  1.1472
  894MOL0     H18003  10.789   7.739   5.835  0.0548  0.4886  0.0771
  894MOL0     H18004  10.984   7.510   5.755 -2.4152 -0.9888  1.7287
  894MOL0     H18005  11.003   7.662   5.669  1.0415  0.6961  0.3336
  894MOL0     H18006  11.146   7.766   6.048 -2.8731  2.8115  0.7668
  894MOL0     H18007  10.347   7.610   5.748 -0.9352  0.3208 -0.0749
  894MOL0     H18008  10.108   7.550   5.733  0.1223 -0.9486 -0.9318
  895MOL0     O18009   7.590   8.475   9.510 -1.0666  0.3127 -0.3731
  895MOL0     C18010   7.559   8.589   9.544 -0.4304 -0.2688  0.1358
  895MOL0     O18011   7.481   8.685   9.478  0.1267 -0.2920 -0.4548
  895MOL0     C18012   7.384   8.643   9.391 -0.3648  0.6126 -0.4547
  895MOL0     C18013   7.269   8.709   9.395  0.0658 -0.5124 -0.5475
  895MOL0     C18014   7.173   8.682   9.307  0.2543  0.1928 -0.2344
  895MOL0     C18015   7.199   8.605   9.195  0.0388 -0.2991  0.5131
  895MOL0     O18016   7.112   8.557   9.104  0.5409  0.6453 -0.1363
  895MOL0     C18017   6.967   8.585   9.104 -0.8074 -0.3550 -0.1773
  895MOL0     C18018   6.889   8.477   9.169  0.9273  1.2268  0.7499
  895MOL0     C18019   6.746   8.517   9.174 -0.0051  0.0373 -0.5299
  895MOL0     C18020   6.672   8.425   9.271  0.0476 -0.1714  0.2454
  895MOL0     C18021   6.533   8.474   9.296  0.3405 -0.2739  0.5373
  895MOL0     C18022   6.468   8.357   9.381  0.0814 -0.3248  0.0133
  895MOL0     C18023   6.341   8.410   9.456  0.8247  0.5325  0.0029
  895MOL0     C18024   6.230   8.303   9.459  0.5677 -0.1699  0.4533
  895MOL0     N18025   6.099   8.350   9.522 -0.9513 -0.4803  0.4224
  895MOL0     C18026   6.090   8.417   9.641 -0.4443  0.0640 -0.6218
  895MOL0     C18027   5.978   8.484   9.635  0.1037  0.2277  0.2841
  895MOL0     C18028   5.942   8.576   9.751 -1.2256  0.5503 -0.2933
  895MOL0     C18029   5.791   8.599   9.756 -0.1114 -0.5723  0.1599
  895MOL0     C18030   5.737   8.707   9.667  0.2864 -0.1864 -0.1462
  895MOL0     C18031   5.589   8.743   9.692 -0.1897  0.2346 -0.7163
  895MOL0     O18032   5.502   8.625   9.688 -0.4052  0.6475  0.0081
  895MOL0     C18033   5.409   8.630   9.778  0.0178  0.2959 -0.1319
  895MOL0     C18034   5.295   8.714   9.772  0.5682 -0.0982 -0.9690
  895MOL0     C18035   5.212   8.731   9.878  0.0536 -0.1016  0.3083
  895MOL0     C18036   5.236   8.649   9.983 -0.3090  0.4408 -0.2162
  895MOL0     C18037   5.138   8.650  10.093  0.6575 -0.0196 -0.0418
  895MOL0     O18038   5.027   8.726  10.084 -0.0173 -0.5908 -1.0216
  895MOL0     C18039   4.948   8.724  10.194 -0.0894 -0.8907  0.3532
  895MOL0     C18040   4.962   8.815  10.300  0.3626  0.2763 -1.0044
  895MOL0     C18041   4.889   8.795  10.415 -0.6239  0.9990  0.1189
  895MOL0     C18042   4.789   8.706  10.423 -0.6436 -0.2617  0.2209
  895MOL0     O18043   4.718   8.699  10.545  0.3403 -0.2127 -0.2702
  895MOL0     C18044   4.675   8.818  10.606 -0.2187  0.4855  0.2616
  895MOL0     C18045   4.584   8.782  10.718  0.0809  0.2878  0.2009
  895MOL0     C18046   4.536   8.914  10.787 -0.3197  0.4621 -0.4419
  895MOL0     C18047   4.400   8.964  10.732 -0.4715 -0.0890  0.2602
  895MOL0     C18048   4.359   9.082  10.824 -0.0646  0.4323 -0.0865
  895MOL0     C18049   4.209   9.095  10.808 -0.1204 -1.0114  0.0493
  895MOL0     C18050   4.162   9.213  10.899 -0.2956  0.6633  0.8969
  895MOL0     C18051   4.010   9.229  10.895 -0.5707  0.4026  0.5527
  895MOL0    Cl18052   3.960   9.241  10.719 -0.4266 -0.4653 -0.3597
  895MOL0     C18053   4.768   8.616  10.319 -0.0885  0.3880 -0.6471
  895MOL0     C18054   4.851   8.622  10.204  0.5045  0.3385 -0.0325
  895MOL0     O18055   5.175   8.603  10.197 -0.4442  0.5978  0.1994
  895MOL0     C18056   5.339   8.555   9.989 -0.2395  0.4974 -0.5368
  895MOL0     C18057   5.432   8.548   9.887  0.0797  0.3567  0.3124
  895MOL0     N18058   5.917   8.464   9.511  0.1848 -0.4041  0.2208
  895MOL0     N18059   5.991   8.374   9.449  0.3573 -0.0629  0.6507
  895MOL0     C18060   7.328   8.555   9.169  0.2501  0.6194  0.2311
  895MOL0     C18061   7.420   8.571   9.271  0.6454 -0.7432 -0.7206
  895MOL0     C18062   7.604   8.627   9.678  0.2822 -0.2434 -0.2121
  895MOL0     C18063   7.685   8.545   9.761  0.1554  0.6292 -0.4656
  895MOL0     C18064   7.732   8.582   9.881 -0.3276  0.4225 -0.5331
  895MOL0     C18065   7.695   8.698   9.939  0.4990 -0.0342  0.4511
  895MOL0     O18066   7.752   8.727  10.061 -0.8009  0.4030  0.2981
  895MOL0     C18067   7.785   8.862  10.105 -0.6187  0.4241 -0.6168
  895MOL0     C18068   7.870   8.843  10.227  1.0979  0.1129  0.2604
  895MOL0     C18069   7.956   8.975  10.259 -0.3003  0.2310  1.0456
  895MOL0     C18070   8.018   8.982  10.406  0.3422 -0.5385 -0.2363
  895MOL0     C18071   8.076   8.858  10.448 -0.2226 -0.6211 -0.6222
  895MOL0     C18072   8.137   8.753  10.474  0.6195  0.0538 -0.4298
  895MOL0     C18073   7.616   8.789   9.863 -0.2766  0.3397 -0.3793
  895MOL0     C18074   7.578   8.755   9.730 -0.0249 -0.2970  0.1155
  895MOL0     H18075   7.240   8.775   9.476  2.1953 -2.6848  2.1850
  895MOL0     H18076   7.074   8.717   9.334  1.5467  1.9350  2.8293
  895MOL0     H18077   6.933   8.590   9.000  0.6117  1.4317 -0.6024
  895MOL0     H18078   6.960   8.681   9.157 -2.9764  0.3972 -1.6654
  895MOL0     H18079   6.925   8.462   9.271  0.8961  1.2976  0.7712
  895MOL0     H18080   6.909   8.387   9.109 -1.1753  1.7705 -0.9188
  895MOL0     H18081   6.708   8.515   9.071 -0.9249  2.9903 -0.3313
  895MOL0     H18082   6.748   8.621   9.207 -1.9057  1.2602 -3.7643
  895MOL0     H18083   6.667   8.324   9.231 -0.7405  0.2569 -0.7829
  895MOL0     H18084   6.727   8.410   9.364 -1.0365 -0.0945  0.9155
  895MOL0     H18085   6.477   8.483   9.203 -1.0628  0.5507  1.4211
  895MOL0     H18086   6.529   8.572   9.345  2.3199 -0.5906  1.4306
  895MOL0     H18087   6.537   8.335   9.464  0.1367 -3.4712 -0.7381
  895MOL0     H18088   6.449   8.267   9.322 -2.0794 -0.0213  0.1771
  895MOL0     H18089   6.373   8.443   9.555 -0.2099 -0.6390  0.7661
  895MOL0     H18090   6.293   8.490   9.398  0.8602  1.5153  1.2977
  895MOL0     H18091   6.273   8.216   9.510  2.1076 -0.2748 -0.9563
  895MOL0     H18092   6.211   8.270   9.357 -0.1331 -0.4379  0.6594
  895MOL0     H18093   6.166   8.435   9.717  0.2566 -1.0572 -1.0316
  895MOL0     H18094   5.997   8.670   9.760  0.5985 -0.5107  0.4304
  895MOL0     H18095   5.978   8.516   9.836 -0.5437 -1.5546 -1.9705
  895MOL0     H18096   5.767   8.624   9.860 -0.6140 -3.0591  0.7165
  895MOL0     H18097   5.742   8.502   9.741 -2.1366  0.4986 -0.5732
  895MOL0     H18098   5.802   8.795   9.675 -0.2611  0.1864  0.1806
  895MOL0     H18099   5.745   8.667   9.565 -0.2307 -1.6214  0.3599
  895MOL0     H18100   5.546   8.823   9.631 -1.5027 -0.9912 -1.4609
  895MOL0     H18101   5.585   8.779   9.795 -1.1938 -0.0850 -0.6252
  895MOL0     H18102   5.261   8.764   9.682 -0.3013  2.2502  0.5437
  895MOL0     H18103   5.131   8.802   9.869  2.6063  3.5626  3.3835
  895MOL0     H18104   5.035   8.895  10.296 -1.7680  2.4830  0.8999
  895MOL0     H18105   4.916   8.869  10.490  2.1178  1.0268 -0.7896
  895MOL0     H18106   4.625   8.884  10.534  0.2020  1.3888  0.7892
  895MOL0     H18107   4.763   8.861  10.654 -1.0815  0.5787  1.7952
  895MOL0     H18108   4.660   8.729  10.777 -2.8631 -1.2471  2.9273
  895MOL0     H18109   4.507   8.710  10.688  2.2577 -2.1553  0.1057
  895MOL0     H18110   4.606   8.997  10.773  0.2037  0.0328 -0.3849
  895MOL0     H18111   4.521   8.900  10.894  1.0658 -0.6977 -0.3638
  895MOL0     H18112   4.393   8.993  10.627 -2.9753 -2.4783 -0.3566
  895MOL0     H18113   4.332   8.880  10.749  0.5469 -1.2359 -1.0284
  895MOL0     H18114   4.411   9.169  10.782 -0.5303 -0.4061 -2.5747
  895MOL0     H18115   4.395   9.072  10.927  0.3117 -0.3116 -0.2800
  895MOL0     H18116   4.166   9.005  10.853 -0.0933 -0.8526  0.3954
  895MOL0     H18117   4.181   9.116  10.705  0.1030 -1.1326 -0.0369
  895MOL0     H18118   4.198   9.186  10.998 -0.7469 -1.0355  0.6235
  895MOL0     H18119   4.206   9.305  10.858  1.4696 -0.6856 -0.3718
  895MOL0     H18120   3.982   9.326  10.937  0.5888  1.2440 -0.5586
  895MOL0     H18121   3.954   9.154  10.952  0.7902 -0.2118  1.1321
  895MOL0     H18122   4.688   8.548  10.345  0.3599  0.6411  1.5970
  895MOL0     H18123   4.846   8.545  10.128 -3.1488  2.6838 -2.4559
  895MOL0     H18124   5.361   8.490  10.073 -1.6559  2.4217  1.4215
  895MOL0     H18125   5.521   8.486   9.885 -0.3196 -0.4133  2.8961
  895MOL0     H18126   7.341   8.504   9.074 -0.1595 -1.2257  1.1292
  895MOL0     H18127   7.525   8.550   9.253  2.1906  2.5098  2.9033
  895MOL0     H18128   7.708   8.442   9.736  0.1889  0.3740  0.5772
  895MOL0     H18129   7.794   8.515   9.940 -0.6898 -0.0309 -0.6652
  895MOL0     H18130   7.695   8.919  10.127  0.2586  1.9856 -0.9706
  895MOL0     H18131   7.833   8.907  10.017  0.2082  0.7710 -0.0007
  895MOL0     H18132   7.809   8.828  10.316  0.9561  0.1225  0.1655
  895MOL0     H18133   7.934   8.757  10.206 -2.1440 -2.1217 -1.2522
  895MOL0     H18134   7.909   9.067  10.224  3.2926  0.6988 -3.4948
  895MOL0     H18135   8.046   8.978  10.196 -0.1662  1.2906  1.2736
  895MOL0     H18136   8.091   9.063  10.413 -0.6167  0.6413 -2.7441
  895MOL0     H18137   7.932   9.001  10.471 -0.2521 -1.6151 -0.6779
  895MOL0     H18138   8.183   8.659  10.499 -0.4010 -0.3574 -0.0258
  895MOL0     H18139   7.591   8.881   9.915  0.5819 -0.3741  1.3539
  895MOL0     H18140   7.526   8.833   9.675 -0.7566  0.9068  2.3972
  896MOL0     O18141   8.072   2.511   9.351 -0.5508  0.7988 -0.1114
  896MOL0     C18142   8.067   2.419   9.430  0.4533  0.6075 -0.6366
  896MOL0     O18143   7.953   2.371   9.493  0.2874  0.3080 -0.7055
  896MOL0     C18144   7.839   2.422   9.446  0.8191 -0.2134  0.4062
  896MOL0     C18145   7.792   2.545   9.490 -0.0661  0.3929 -0.4619
  896MOL0     C18146   7.664   2.590   9.451  0.3465  0.4507 -0.2992
  896MOL0     C18147   7.579   2.498   9.386  0.9387 -0.1910  0.4482
  896MOL0     O18148   7.453   2.546   9.350 -0.0435  0.9626  0.1187
  896MOL0     C18149   7.336   2.502   9.430 -0.3672  0.3428 -0.0173
  896MOL0     C18150   7.209   2.542   9.344 -0.7909  0.8936  0.7819
  896MOL0     C18151   7.150   2.682   9.369 -1.3619 -0.8206 -1.2726
  896MOL0     C18152   7.032   2.712   9.283 -1.6514  0.1415 -0.1724
  896MOL0     C18153   6.986   2.852   9.298 -0.0772 -0.3762 -0.3479
  896MOL0     C18154   6.857   2.897   9.243  0.1978  0.3806 -0.4300
  896MOL0     C18155   6.845   3.052   9.239 -0.1203 -0.0732  0.2988
  896MOL0     C18156   6.723   3.093   9.313  0.2216  0.3659 -0.3988
  896MOL0     N18157   6.594   3.067   9.247  0.0799  0.5376 -0.1002
  896MOL0     C18158   6.577   3.052   9.118 -0.3265  1.0558  0.4590
  896MOL0     C18159   6.444   3.027   9.115  0.1074  1.0023 -0.1336
  896MOL0     C18160   6.361   2.997   8.988  0.4002 -0.7646  0.0060
  896MOL0     C18161   6.306   3.119   8.925 -0.3171  0.1546  0.5595
  896MOL0     C18162   6.184   3.174   8.994  0.4696  0.3032 -0.5370
  896MOL0     C18163   6.133   3.296   8.923 -0.1992  0.0840  0.3645
  896MOL0     O18164   6.057   3.262   8.805 -0.2631 -0.5317  0.0704
  896MOL0     C18165   5.990   3.358   8.745 -0.0684  0.3712 -0.1290
  896MOL0     C18166   5.913   3.304   8.640  0.3504  0.5765 -0.1351
  896MOL0     C18167   5.850   3.379   8.543 -0.0405 -0.5637 -0.2836
  896MOL0     C18168   5.850   3.519   8.556 -0.2237  0.0893  0.1575
  896MOL0     C18169   5.779   3.601   8.465  0.3994  0.1654  0.6840
  896MOL0     O18170   5.689   3.545   8.382 -0.0219  1.1975 -1.1087
  896MOL0     C18171   5.619   3.613   8.295  0.3443  0.5657  0.8089
  896MOL0     C18172   5.613   3.553   8.168 -0.4727  0.3404  0.0953
  896MOL0     C18173   5.541   3.617   8.067  0.2692 -0.7375  0.2609
  896MOL0     C18174   5.471   3.732   8.084 -1.0529  1.0485  0.1292
  896MOL0     O18175   5.414   3.786   7.971 -0.2538 -0.2525  0.2026
  896MOL0     C18176   5.393   3.926   7.976  0.3409 -0.3952 -0.2096
  896MOL0     C18177   5.343   3.976   7.836  0.2942 -0.2516  0.2405
  896MOL0     C18178   5.443   3.969   7.727 -1.1407  0.0360  0.3665
  896MOL0     C18179   5.387   4.022   7.596  0.2747 -0.1540 -1.0779
  896MOL0     C18180   5.489   3.988   7.492  0.0393  0.1887  0.0958
  896MOL0     C18181   5.480   4.090   7.369 -1.0116  0.1714 -0.0837
  896MOL0     C18182   5.537   4.029   7.234  0.4935 -0.4437  0.1480
  896MOL0     C18183   5.682   3.988   7.222 -0.6715 -0.4935 -0.7959
  896MOL0    Cl18184   5.695   3.813   7.270  0.7412  0.0053 -0.0848
  896MOL0     C18185   5.468   3.782   8.216 -0.2636  0.3282  0.8342
  896MOL0     C18186   5.541   3.727   8.323  0.6797 -0.1555  0.8165
  896MOL0     O18187   5.809   3.722   8.452 -0.6157  0.3005  0.2949
  896MOL0     C18188   5.935   3.579   8.650  0.3879 -0.0142 -0.1391
  896MOL0     C18189   6.013   3.500   8.744  0.4057 -0.7891 -0.5667
  896MOL0     N18190   6.384   3.019   9.237  0.3771 -0.6108  0.0890
  896MOL0     N18191   6.474   3.057   9.317 -0.4719 -0.8337 -0.4792
  896MOL0     C18192   7.611   2.369   9.365  0.2551 -0.1024 -0.0427
  896MOL0     C18193   7.746   2.335   9.386  0.6901  0.5396 -0.4899
  896MOL0     C18194   8.195   2.344   9.471  0.0517 -0.6870  0.6832
  896MOL0     C18195   8.320   2.405   9.452 -0.0315  0.3062  0.1807
  896MOL0     C18196   8.436   2.345   9.498 -1.0907  0.3223 -0.2118
  896MOL0     C18197   8.429   2.227   9.575 -0.3653 -0.4123  0.0113
  896MOL0     O18198   8.544   2.161   9.619 -0.2234 -0.3755 -0.1405
  896MOL0     C18199   8.669   2.198   9.564 -1.0056  0.1827 -0.7496
  896MOL0     C18200   8.773   2.127   9.651  0.4316 -0.5725 -0.0987
  896MOL0     C18201   8.759   1.971   9.651  0.1063 -0.4489 -0.1175
  896MOL0     C18202   8.859   1.906   9.547 -0.0861 -0.3474  0.8055
  896MOL0     C18203   8.868   1.767   9.569  0.6884 -0.4753  0.5260
  896MOL0     C18204   8.876   1.645   9.581 -0.2721  0.4228 -0.6008
  896MOL0     C18205   8.299   2.160   9.595 -0.5895 -0.8609 -0.9597
  896MOL0     C18206   8.184   2.222   9.549  0.1290  0.7434  0.3169
  896MOL0     H18207   7.857   2.615   9.543 -0.0334  0.1732 -0.2092
  896MOL0     H18208   7.634   2.693   9.465  2.2983  1.1104 -0.7826
  896MOL0     H18209   7.335   2.536   9.534 -5.5925 -0.2233  0.3774
  896MOL0     H18210   7.340   2.393   9.429 -0.6186  0.3279 -1.4902
  896MOL0     H18211   7.144   2.460   9.375  2.0395 -0.7191  2.9714
  896MOL0     H18212   7.236   2.536   9.238  0.4544  2.4375  0.9760
  896MOL0     H18213   7.236   2.749   9.361 -2.9080  1.2718 -1.0768
  896MOL0     H18214   7.113   2.689   9.471 -5.4445  1.1844 -2.6800
  896MOL0     H18215   7.065   2.694   9.180 -0.0283  2.4958 -0.1138
  896MOL0     H18216   6.953   2.637   9.299 -0.8966 -0.9637 -1.4484
  896MOL0     H18217   7.066   2.914   9.256 -0.8953 -0.0280 -1.4382
  896MOL0     H18218   6.985   2.867   9.406 -0.1571  1.6839 -0.5878
  896MOL0     H18219   6.785   2.855   9.314  0.2939  1.2663  0.2185
  896MOL0     H18220   6.829   2.862   9.143 -0.5529 -0.8224  0.1786
  896MOL0     H18221   6.934   3.084   9.294  2.2029 -0.3724 -2.9872
  896MOL0     H18222   6.849   3.089   9.136  0.4031 -0.6271  0.1130
  896MOL0     H18223   6.735   3.200   9.334  0.9183  0.5405 -1.5637
  896MOL0     H18224   6.715   3.046   9.411  0.8289 -0.5272 -0.7581
  896MOL0     H18225   6.641   3.057   9.031  1.1303  0.0804  1.4147
  896MOL0     H18226   6.278   2.928   9.002 -1.3616  1.3732  0.6349
  896MOL0     H18227   6.421   2.931   8.924  2.4848  2.1249 -1.2591
  896MOL0     H18228   6.276   3.088   8.824 -0.4701 -1.9890  1.1986
  896MOL0     H18229   6.381   3.198   8.921 -0.9760  0.7314 -2.1621
  896MOL0     H18230   6.106   3.097   8.996  0.7998 -0.0198  0.1565
  896MOL0     H18231   6.221   3.204   9.093  0.6238 -1.9818  0.1683
  896MOL0     H18232   6.212   3.365   8.891  1.0793 -1.6365 -0.3536
  896MOL0     H18233   6.062   3.340   8.993 -2.3595  1.7487 -2.7018
  896MOL0     H18234   5.903   3.196   8.639 -0.0876  0.6186 -0.3385
  896MOL0     H18235   5.800   3.327   8.461 -1.9259 -1.6906  1.4813
  896MOL0     H18236   5.668   3.461   8.151  1.2325  1.4581 -0.7579
  896MOL0     H18237   5.541   3.566   7.971  0.6297 -2.2812  1.0635
  896MOL0     H18238   5.483   3.981   8.005 -0.2960  1.1227 -0.9975
  896MOL0     H18239   5.318   3.944   8.054 -0.0883  0.6166 -0.8415
  896MOL0     H18240   5.322   4.084   7.838  1.3030 -0.0607  0.7502
  896MOL0     H18241   5.252   3.922   7.807 -0.5962  2.2705 -2.1219
  896MOL0     H18242   5.480   3.871   7.696  1.2306  1.3904 -1.4194
  896MOL0     H18243   5.525   4.039   7.750 -0.6345 -0.8441  1.3145
  896MOL0     H18244   5.288   3.977   7.580 -0.8903  0.3668  3.3465
  896MOL0     H18245   5.365   4.129   7.605 -1.4119 -0.5925  0.5713
  896MOL0     H18246   5.462   3.889   7.455  2.6707 -1.1405  1.4435
  896MOL0     H18247   5.590   3.982   7.535  0.8614 -1.4468 -1.8842
  896MOL0     H18248   5.525   4.184   7.401 -2.0804  0.4527  0.6271
  896MOL0     H18249   5.373   4.109   7.354 -1.4449 -0.3802  2.0020
  896MOL0     H18250   5.472   3.953   7.189 -1.8883  1.7587 -0.4068
  896MOL0     H18251   5.529   4.109   7.160  2.6483 -0.8332 -0.5639
  896MOL0     H18252   5.743   4.057   7.281 -0.6812 -0.0356 -1.3131
  896MOL0     H18253   5.727   3.990   7.123  3.5130 -0.3302  0.8914
  896MOL0     H18254   5.406   3.868   8.242  0.9993  1.3920  0.4729
  896MOL0     H18255   5.523   3.776   8.418  4.1043  2.9108  0.1015
  896MOL0     H18256   5.954   3.686   8.645 -2.9311  0.6718 -3.7097
  896MOL0     H18257   6.085   3.544   8.813 -1.1917  0.9121  0.1045
  896MOL0     H18258   7.533   2.302   9.330 -1.4536  1.4214  0.6812
  896MOL0     H18259   7.780   2.237   9.356 -2.8314 -0.6567 -1.0255
  896MOL0     H18260   8.341   2.494   9.394 -0.2345 -1.5023 -2.9208
  896MOL0     H18261   8.532   2.392   9.480  0.0783 -1.1338  1.8399
  896MOL0     H18262   8.694   2.303   9.580 -1.1188 -0.0852  1.6349
  896MOL0     H18263   8.680   2.176   9.458  0.5251 -2.1825 -0.1851
  896MOL0     H18264   8.872   2.156   9.615 -0.3281 -2.0401 -3.8570
  896MOL0     H18265   8.778   2.163   9.754  0.2747  0.0856 -0.3130
  896MOL0     H18266   8.653   1.945   9.641 -0.4910  0.6855  2.3538
  896MOL0     H18267   8.778   1.940   9.754 -2.6366  2.8439  1.5931
  896MOL0     H18268   8.840   1.924   9.441 -1.4426 -1.1919  0.8778
  896MOL0     H18269   8.958   1.947   9.568  0.3396 -0.6727 -0.4887
  896MOL0     H18270   8.873   1.540   9.601  0.4199  0.7507  1.5246
  896MOL0     H18271   8.294   2.057   9.630  1.1843 -1.4137 -2.1765
  896MOL0     H18272   8.088   2.174   9.560  0.6207 -0.1746  0.6815
  897MOL0     O18273   0.300   4.139  10.795  0.4634 -0.5238  0.3183
  897MOL0     C18274   0.268   4.254  10.765  0.8405 -0.9239  0.6020
  897MOL0     O18275   0.338   4.353  10.714 -0.2355 -0.5650  0.3117
  897MOL0     C18276   0.471   4.347  10.697 -0.0382  1.0739 -1.3289
  897MOL0     C18277   0.560   4.288  10.783  0.4849  0.1636  0.5641
  897MOL0     C18278   0.700   4.312  10.782  0.7893  0.5421  0.3368
  897MOL0     C18279   0.753   4.404  10.691  0.2892 -0.3720 -0.7373
  897MOL0     O18280   0.886   4.434  10.681 -0.1449  0.0215 -0.2586
  897MOL0     C18281   0.986   4.360  10.758 -0.0133 -1.0033 -0.5925
  897MOL0     C18282   1.113   4.459  10.746  0.2133  0.0215 -0.8765
  897MOL0     C18283   1.230   4.423  10.842 -0.3666  0.0377  0.5522
  897MOL0     C18284   1.188   4.412  10.991  0.0887 -0.2760 -0.3866
  897MOL0     C18285   1.301   4.359  11.074  0.0872  0.1090  0.4025
  897MOL0     C18286   1.441   4.437  11.071  0.7862 -0.6803 -0.3085
  897MOL0     C18287   1.536   4.396  11.192  0.3560  0.2283 -0.5926
  897MOL0     C18288   1.668   4.459  11.196  0.0200 -0.6525  0.3781
  897MOL0     N18289   1.732   4.477  11.064 -0.2999  0.4811 -0.7242
  897MOL0     C18290   1.733   4.596  10.990  0.4198  1.0027 -0.4400
  897MOL0     C18291   1.778   4.561  10.865  0.0648 -0.6497  0.3003
  897MOL0     C18292   1.802   4.653  10.749 -0.7434 -1.1800 -0.2806
  897MOL0     C18293   1.946   4.722  10.748  0.8642  0.5062  0.6106
  897MOL0     C18294   1.990   4.774  10.611 -0.5343 -0.3412  0.5898
  897MOL0     C18295   2.120   4.860  10.636 -0.8646  0.6120  0.1641
  897MOL0     O18296   2.218   4.774  10.692  0.2554  0.6155 -0.0770
  897MOL0     C18297   2.330   4.812  10.754 -0.3102 -0.5159  0.0171
  897MOL0     C18298   2.407   4.725  10.831  0.3002  1.0532  0.0342
  897MOL0     C18299   2.520   4.768  10.903  0.1218  0.4456  0.1436
  897MOL0     C18300   2.576   4.897  10.871 -0.5975  1.0351  0.1532
  897MOL0     C18301   2.707   4.935  10.921  0.2858 -0.0880  0.7785
  897MOL0     O18302   2.780   4.836  10.972  0.2989  0.3297 -0.0752
  897MOL0     C18303   2.902   4.852  11.034 -0.3701  0.0081 -0.3069
  897MOL0     C18304   2.934   4.962  11.104 -0.6613 -0.4485 -0.3345
  897MOL0     C18305   3.063   4.964  11.161  0.8313  1.0639 -0.5407
  897MOL0     C18306   3.164   4.868  11.138 -0.7823  0.3467  0.4063
  897MOL0     O18307   3.286   4.875  11.207  1.2184  0.1462  0.2564
  897MOL0     C18308   3.405   4.834  11.137 -0.9024  0.9062  0.9484
  897MOL0     C18309   3.525   4.900  11.197 -0.5862  0.1104 -0.4070
  897MOL0     C18310   3.663   4.864  11.149 -0.3249  0.1355  1.2048
  897MOL0     C18311   3.775   4.918  11.245 -0.2783 -0.2982 -0.5120
  897MOL0     C18312   3.906   4.855  11.219 -0.1265  0.9960  0.0547
  897MOL0     C18313   4.020   4.902  11.304  0.7263  0.0072  0.4949
  897MOL0     C18314   4.154   4.845  11.259  0.1024  0.0405 -0.8171
  897MOL0     C18315   4.269   4.903  11.332 -0.7242  0.1584  0.8639
  897MOL0    Cl18316   4.415   4.844  11.260 -0.2589 -0.4679 -0.3045
  897MOL0     C18317   3.129   4.764  11.054  0.0855  0.8421  0.2569
  897MOL0     C18318   2.997   4.753  11.006 -0.3556 -0.5132  0.0307
  897MOL0     O18319   2.754   5.045  10.890  0.7812 -0.9578  0.2384
  897MOL0     C18320   2.508   4.977  10.777  0.9825  0.3936  0.2441
  897MOL0     C18321   2.384   4.943  10.727 -0.6261 -0.1537 -1.3624
  897MOL0     N18322   1.790   4.422  10.861 -0.3789  0.5797 -0.3943
  897MOL0     N18323   1.764   4.372  10.982 -0.0006 -1.4677  0.5979
  897MOL0     C18324   0.660   4.464  10.597 -0.2500  0.0408 -0.6616
  897MOL0     C18325   0.526   4.432  10.602 -0.0917  0.5985 -0.0710
  897MOL0     C18326   0.127   4.283  10.784 -0.4882 -0.3103  0.0950
  897MOL0     C18327   0.054   4.402  10.728 -0.1152 -0.4009 -0.2835
  897MOL0     C18328  -0.080   4.404  10.720 -0.2640 -0.4031 -0.4682
  897MOL0     C18329  -0.159   4.319  10.794  0.1810  1.0669  0.1846
  897MOL0     O18330  -0.294   4.328  10.821 -0.4756  0.4850 -0.0430
  897MOL0     C18331  -0.366   4.445  10.792 -0.1777 -0.4913 -0.5208
  897MOL0     C18332  -0.459   4.465  10.914  0.6745  0.4858  0.2768
  897MOL0     C18333  -0.385   4.464  11.044 -0.3002 -0.2108 -0.2104
  897MOL0     C18334  -0.456   4.555  11.148 -0.5433 -0.8758  0.6344
  897MOL0     C18335  -0.377   4.567  11.274 -0.4509 -0.4705 -0.7768
  897MOL0     C18336  -0.321   4.614  11.374 -0.2235 -0.2208  0.5729
  897MOL0     C18337  -0.097   4.207  10.852  0.5591 -0.4040  0.4695
  897MOL0     C18338   0.041   4.190  10.846  0.6304 -0.1761  0.3247
  897MOL0     H18339   0.511   4.225  10.856  0.6200  0.5527  0.9926
  897MOL0     H18340   0.770   4.263  10.850  2.6955  1.8424 -0.6040
  897MOL0     H18341   1.007   4.258  10.725  4.2597 -0.3646 -0.4881
  897MOL0     H18342   0.964   4.355  10.865 -0.4651  0.4814 -0.5975
  897MOL0     H18343   1.078   4.560  10.771 -1.6286  0.8012 -5.4872
  897MOL0     H18344   1.143   4.471  10.642 -0.0820 -1.7976 -1.2089
  897MOL0     H18345   1.312   4.494  10.829  0.6156 -0.3997  3.6073
  897MOL0     H18346   1.264   4.323  10.814 -2.4289 -0.4781 -0.3109
  897MOL0     H18347   1.158   4.513  11.021  3.6070  1.1618 -1.2223
  897MOL0     H18348   1.105   4.340  10.995 -1.3801  1.3319 -0.3679
  897MOL0     H18349   1.338   4.260  11.047  2.7926  0.7722  1.3770
  897MOL0     H18350   1.273   4.353  11.179  2.3907  0.8509  1.1058
  897MOL0     H18351   1.419   4.544  11.067 -4.4202 -1.4984  0.0106
  897MOL0     H18352   1.488   4.394  10.982 -1.5357 -3.9018 -0.1407
  897MOL0     H18353   1.486   4.417  11.287 -3.4168 -1.8959 -1.8949
  897MOL0     H18354   1.549   4.287  11.189  1.1924  0.2561  0.7788
  897MOL0     H18355   1.736   4.410  11.266 -1.0821  1.1217  2.8044
  897MOL0     H18356   1.656   4.563  11.227  2.6367 -0.3964  0.8329
  897MOL0     H18357   1.703   4.693  11.030 -3.8199 -1.0832  2.1983
  897MOL0     H18358   1.727   4.734  10.750 -0.0531 -0.5112  1.5674
  897MOL0     H18359   1.803   4.597  10.655  1.5069 -2.4389  0.4429
  897MOL0     H18360   2.016   4.646  10.784 -0.7912 -1.7983 -0.7317
  897MOL0     H18361   1.949   4.811  10.811  1.3969  2.1956 -1.6564
  897MOL0     H18362   2.013   4.688  10.548 -1.9875  0.5325 -1.2214
  897MOL0     H18363   1.920   4.843  10.563  0.4843 -0.5176 -1.2157
  897MOL0     H18364   2.106   4.947  10.700 -0.3024 -0.6293  2.0654
  897MOL0     H18365   2.160   4.891  10.539  0.1772  1.0405  0.7269
  897MOL0     H18366   2.384   4.619  10.830  0.9564  0.8149  2.6721
  897MOL0     H18367   2.582   4.704  10.964  2.5049  2.3180 -0.1732
  897MOL0     H18368   2.860   5.034  11.138  1.0807  0.3494  2.0354
  897MOL0     H18369   3.082   5.035  11.241 -0.9328 -1.7989  2.7100
  897MOL0     H18370   3.406   4.845  11.028  1.9411 -2.5181  0.4512
  897MOL0     H18371   3.419   4.726  11.143  1.2508  1.2458  3.8386
  897MOL0     H18372   3.528   4.874  11.303 -1.7151  0.8958 -0.1679
  897MOL0     H18373   3.528   5.008  11.178  0.7984  0.8396  3.2090
  897MOL0     H18374   3.663   4.887  11.042 -0.8607 -0.0169  1.1669
  897MOL0     H18375   3.660   4.754  11.154 -1.8133  0.1762  1.8254
  897MOL0     H18376   3.784   5.025  11.228  0.7198  0.1370  2.1944
  897MOL0     H18377   3.754   4.898  11.351  1.5454 -0.2377 -0.1061
  897MOL0     H18378   3.924   4.860  11.112  0.3457 -0.7048  0.0201
  897MOL0     H18379   3.902   4.747  11.242 -2.3836  1.0231  0.0077
  897MOL0     H18380   3.994   4.876  11.407 -1.7162 -0.3769 -0.1668
  897MOL0     H18381   4.025   5.011  11.297  1.4907  0.0223  1.1783
  897MOL0     H18382   4.156   4.736  11.258 -3.3554 -0.1519 -2.2456
  897MOL0     H18383   4.175   4.880  11.157  3.8718  2.9280  0.7031
  897MOL0     H18384   4.275   4.878  11.439 -0.1138  0.7709  0.9773
  897MOL0     H18385   4.266   5.010  11.313  1.8387  0.1842  0.1677
  897MOL0     H18386   3.193   4.681  11.026 -2.5272 -1.2269  0.0061
  897MOL0     H18387   2.955   4.665  10.956 -1.5221 -0.5177  0.9812
  897MOL0     H18388   2.556   5.072  10.758  2.4695 -0.4243 -0.2988
  897MOL0     H18389   2.340   5.015  10.659  1.1917  1.5013 -0.8713
  897MOL0     H18390   0.689   4.535  10.520 -0.2162  0.5436 -0.1890
  897MOL0     H18391   0.470   4.480  10.523 -0.6667 -1.0755 -0.7211
  897MOL0     H18392   0.111   4.481  10.681 -0.9614 -0.2372 -1.0744
  897MOL0     H18393  -0.128   4.483  10.664  0.1671  1.2092  1.3464
  897MOL0     H18394  -0.422   4.425  10.700 -2.6531  2.6627  0.1209
  897MOL0     H18395  -0.300   4.531  10.782  1.2082 -1.3457  0.8180
  897MOL0     H18396  -0.515   4.558  10.898 -1.9766 -1.3501 -2.1266
  897MOL0     H18397  -0.529   4.382  10.928  0.2942  0.8828  0.7727
  897MOL0     H18398  -0.282   4.500  11.039 -1.2106  2.6034 -0.4536
  897MOL0     H18399  -0.386   4.362  11.084 -2.9621  0.2482  1.1184
  897MOL0     H18400  -0.475   4.654  11.106 -0.9255 -0.8255  0.9207
  897MOL0     H18401  -0.548   4.499  11.163 -0.9668 -0.3630 -0.0112
  897MOL0     H18402  -0.270   4.640  11.465 -0.8880 -1.9685  1.4997
  897MOL0     H18403  -0.160   4.136  10.904  1.3193 -0.0310  1.9322
  897MOL0     H18404   0.062   4.092  10.889 -0.8582 -0.2994  0.8164
  898MOL0     O18405   5.747   9.863   7.837  0.2874  0.1741 -0.8870
  898MOL0     C18406   5.755   9.888   7.959 -1.7621 -0.2492 -0.2045
  898MOL0     O18407   5.654   9.889   8.043  0.3549 -0.2141 -0.1166
  898MOL0     C18408   5.534   9.842   7.993 -0.7861  0.1544  0.5900
  898MOL0     C18409   5.509   9.708   8.000  0.2442 -0.5913 -0.5045
  898MOL0     C18410   5.385   9.656   7.974 -0.9480  0.2431 -0.4477
  898MOL0     C18411   5.281   9.733   7.912 -0.2357  0.8621 -0.5094
  898MOL0     O18412   5.148   9.683   7.893  0.7395  0.3050  0.2710
  898MOL0     C18413   5.092   9.615   8.002 -0.1758 -0.1158  0.7952
  898MOL0     C18414   4.935   9.626   7.994  0.0126 -0.0285 -0.1663
  898MOL0     C18415   4.867   9.562   8.105 -0.5563  0.2081  0.2879
  898MOL0     C18416   4.743   9.486   8.055  0.3520  0.4772  0.2502
  898MOL0     C18417   4.661   9.423   8.173 -0.4846 -0.2696  0.1839
  898MOL0     C18418   4.744   9.340   8.268  0.4120 -0.1460  0.2683
  898MOL0     C18419   4.654   9.287   8.382 -0.5485  0.3365 -0.5896
  898MOL0     C18420   4.602   9.392   8.475 -0.2744  0.5931  0.5869
  898MOL0     N18421   4.551   9.336   8.602 -0.3425  0.6077  0.9444
  898MOL0     C18422   4.632   9.276   8.696  0.0106  0.6619  0.5446
  898MOL0     C18423   4.557   9.222   8.802  0.1676 -0.1132 -0.2610
  898MOL0     C18424   4.618   9.140   8.920 -0.2392 -0.5694 -0.3470
  898MOL0     C18425   4.613   8.990   8.877 -0.2063 -0.2771 -0.9537
  898MOL0     C18426   4.467   8.933   8.878 -0.3940 -0.3889 -0.0112
  898MOL0     C18427   4.377   8.948   9.004  0.0491 -0.5921 -0.2306
  898MOL0     O18428   4.273   8.861   9.001  0.6367  0.4773 -0.1089
  898MOL0     C18429   4.153   8.910   8.970  1.1367 -1.1132 -0.1279
  898MOL0     C18430   4.051   8.837   9.021  0.6819  0.1739  0.0910
  898MOL0     C18431   3.921   8.869   9.002  0.7845  0.9656  0.2208
  898MOL0     C18432   3.886   8.989   8.946  1.0542  0.8045 -0.7436
  898MOL0     C18433   3.751   9.035   8.941 -0.1488 -0.1060 -0.3346
  898MOL0     O18434   3.658   8.951   8.979 -0.3292 -0.1878  0.4316
  898MOL0     C18435   3.529   9.000   8.973  0.5038  0.2069 -0.1218
  898MOL0     C18436   3.445   8.999   9.089  0.3414 -0.3401 -0.5471
  898MOL0     C18437   3.316   9.050   9.080 -0.9112  0.6947 -0.3854
  898MOL0     C18438   3.262   9.092   8.960 -0.3857  0.3557  0.0234
  898MOL0     O18439   3.134   9.145   8.970  0.0006  0.5538  0.2207
  898MOL0     C18440   3.104   9.249   8.879 -0.3612  0.3668  0.2767
  898MOL0     C18441   2.973   9.319   8.918  0.8112 -0.5128 -0.6446
  898MOL0     C18442   2.942   9.429   8.817  0.4054 -0.5187  0.4450
  898MOL0     C18443   2.823   9.522   8.865 -0.1932 -0.3737  0.2085
  898MOL0     C18444   2.806   9.614   8.738  0.5214  0.0031  0.3145
  898MOL0     C18445   2.739   9.553   8.618  0.3308  0.0196 -0.4210
  898MOL0     C18446   2.702   9.653   8.506  0.7148 -0.0434 -0.3490
  898MOL0     C18447   2.646   9.585   8.375  0.4705 -0.1352  0.2294
  898MOL0    Cl18448   2.479   9.520   8.403  0.0996 -0.4079  0.2939
  898MOL0     C18449   3.338   9.086   8.844 -0.7591  0.1902  0.1400
  898MOL0     C18450   3.474   9.036   8.847  1.1795  0.2549 -0.4810
  898MOL0     O18451   3.735   9.156   8.930 -0.0957 -0.7022  0.7180
  898MOL0     C18452   3.992   9.068   8.883  0.6259  0.4475 -0.9898
  898MOL0     C18453   4.121   9.024   8.904  0.9980 -0.1232  0.3282
  898MOL0     N18454   4.421   9.251   8.776 -0.2109 -0.1039  0.4538
  898MOL0     N18455   4.425   9.317   8.658 -0.0891  0.0985 -0.0741
  898MOL0     C18456   5.320   9.869   7.879 -0.4538 -0.2592 -0.4926
  898MOL0     C18457   5.445   9.929   7.926 -0.1816  0.9018 -0.3691
  898MOL0     C18458   5.888   9.896   8.025  0.0354  0.6471 -0.0800
  898MOL0     C18459   6.002   9.846   7.956  0.5759  0.8818  0.5972
  898MOL0     C18460   6.125   9.844   8.012  0.1968 -0.8751 -0.4457
  898MOL0     C18461   6.139   9.902   8.139 -0.4903  0.4305 -0.3777
  898MOL0     O18462   6.265   9.908   8.197  0.1536 -0.1984  0.2901
  898MOL0     C18463   6.377   9.846   8.140  0.8593 -0.5870  0.2250
  898MOL0     C18464   6.445   9.926   8.037 -0.4296  0.1334 -0.7201
  898MOL0     C18465   6.457  10.078   8.081  0.2980 -0.4509  0.5800
  898MOL0     C18466   6.529  10.151   7.965 -0.1321 -1.2870  0.4361
  898MOL0     C18467   6.571  10.290   8.007 -0.2087  0.2895 -0.1726
  898MOL0     C18468   6.603  10.397   8.041 -0.3981 -0.2605  0.1355
  898MOL0     C18469   6.033   9.952   8.214  0.0286  0.4055  1.0185
  898MOL0     C18470   5.905   9.950   8.158 -1.0241  0.1153 -0.1670
  898MOL0     H18471   5.582   9.641   8.046  0.5464 -0.2914 -0.5469
  898MOL0     H18472   5.372   9.550   7.990 -3.8449  0.9433  3.3550
  898MOL0     H18473   5.125   9.664   8.094  0.6915  2.6580 -0.8821
  898MOL0     H18474   5.123   9.511   7.986 -0.2437  0.1034 -0.9365
  898MOL0     H18475   4.906   9.567   7.907  0.2844 -0.7519  0.2263
  898MOL0     H18476   4.902   9.730   7.981 -1.0619 -0.2453  0.6672
  898MOL0     H18477   4.832   9.643   8.170  2.5992  1.7781  0.2190
  898MOL0     H18478   4.933   9.500   8.166  0.6664 -0.7313 -1.8513
  898MOL0     H18479   4.692   9.563   7.996  1.8724  1.1639 -0.2229
  898MOL0     H18480   4.767   9.416   7.975 -3.2225  1.8161 -2.2528
  898MOL0     H18481   4.587   9.361   8.120 -0.6040  0.7847 -0.9328
  898MOL0     H18482   4.600   9.500   8.221  1.4301  0.2558  1.8783
  898MOL0     H18483   4.826   9.395   8.315 -0.5653 -0.4315  2.4075
  898MOL0     H18484   4.798   9.264   8.211 -1.0013 -1.1369  0.2055
  898MOL0     H18485   4.590   9.202   8.356 -2.6911  1.8539 -0.6354
  898MOL0     H18486   4.725   9.241   8.450 -1.1787  2.6391  1.7804
  898MOL0     H18487   4.511   9.433   8.429  0.4036  0.3136 -1.0655
  898MOL0     H18488   4.675   9.473   8.483  1.8286 -1.1109 -0.2548
  898MOL0     H18489   4.737   9.258   8.674  0.1508 -0.4748  1.9897
  898MOL0     H18490   4.559   9.160   9.010 -0.1504  3.1810 -0.9710
  898MOL0     H18491   4.720   9.177   8.935 -1.5838  3.1934  0.6277
  898MOL0     H18492   4.670   8.943   8.957 -0.5418  1.5112  0.3728
  898MOL0     H18493   4.667   8.966   8.784  0.5735 -0.0785 -0.5576
  898MOL0     H18494   4.402   8.957   8.793 -1.1682  0.8066  0.8796
  898MOL0     H18495   4.497   8.829   8.862  3.0348  0.4591  0.2159
  898MOL0     H18496   4.336   9.047   9.023  0.9752 -0.1189 -0.6427
  898MOL0     H18497   4.441   8.907   9.083 -0.0342  0.2650  0.2855
  898MOL0     H18498   4.078   8.759   9.092 -3.4866 -1.6108  0.0344
  898MOL0     H18499   3.844   8.812   9.052  1.0216 -1.8597 -2.3145
  898MOL0     H18500   3.465   8.956   9.186 -1.8379 -0.4776 -0.1043
  898MOL0     H18501   3.263   9.054   9.174 -1.7873 -1.8587 -0.7075
  898MOL0     H18502   3.091   9.202   8.781  0.8286 -1.5750  0.9867
  898MOL0     H18503   3.183   9.324   8.871 -0.3010  0.1565 -1.6910
  898MOL0     H18504   2.988   9.352   9.021  2.7425 -2.2613 -0.3106
  898MOL0     H18505   2.897   9.241   8.912 -0.6772  0.9258 -1.7390
  898MOL0     H18506   2.920   9.390   8.718 -1.7159 -0.4416  0.8396
  898MOL0     H18507   3.027   9.497   8.824 -0.5114  0.6347  0.7252
  898MOL0     H18508   2.726   9.476   8.886 -1.9650  3.7325  2.0381
  898MOL0     H18509   2.855   9.573   8.957  2.3662  1.8450 -1.7570
  898MOL0     H18510   2.904   9.632   8.693 -0.3753 -0.4682 -1.9422
  898MOL0     H18511   2.755   9.707   8.766  1.7302  0.3330  1.5142
  898MOL0     H18512   2.649   9.507   8.661  0.4446 -0.1969 -0.4132
  898MOL0     H18513   2.811   9.487   8.569 -0.4781 -1.1337 -0.0949
  898MOL0     H18514   2.636   9.733   8.538 -0.1982 -1.5082  1.6551
  898MOL0     H18515   2.794   9.707   8.484  2.1285 -2.3680 -0.5318
  898MOL0     H18516   2.716   9.505   8.349  0.3011  0.3270 -1.7690
  898MOL0     H18517   2.649   9.660   8.295 -1.4605  0.5496  0.7511
  898MOL0     H18518   3.311   9.103   8.741  0.6851  0.7539 -0.1620
  898MOL0     H18519   3.540   9.027   8.762  0.4459 -2.3211 -0.8730
  898MOL0     H18520   3.974   9.155   8.822  2.3450  1.3588 -0.2652
  898MOL0     H18521   4.204   9.075   8.855  0.2237 -0.2885 -1.2084
  898MOL0     H18522   5.241   9.928   7.833 -1.6484 -2.0473 -0.8422
  898MOL0     H18523   5.488  10.026   7.904  1.1095  0.2495 -0.8567
  898MOL0     H18524   5.987   9.810   7.855  1.0214 -2.0862  1.4909
  898MOL0     H18525   6.209   9.802   7.958  0.0409 -1.3452 -0.3206
  898MOL0     H18526   6.361   9.741   8.115  2.5012 -0.4796 -1.4243
  898MOL0     H18527   6.446   9.832   8.224  0.6606 -0.8390  0.3490
  898MOL0     H18528   6.550   9.894   8.027 -0.4789 -0.3177  0.1362
  898MOL0     H18529   6.388   9.916   7.944 -2.9326  1.1356  0.6166
  898MOL0     H18530   6.520  10.080   8.170 -0.5165  1.8985  1.1758
  898MOL0     H18531   6.364  10.127   8.109  0.6235  0.1626  0.5972
  898MOL0     H18532   6.613  10.095   7.922  1.8510  1.4564  0.4090
  898MOL0     H18533   6.466  10.165   7.877 -0.4325 -2.1776  0.5023
  898MOL0     H18534   6.631  10.487   8.093  1.1791 -1.6960  1.9071
  898MOL0     H18535   6.055   9.999   8.310 -0.1172 -0.3669  1.4414
  898MOL0     H18536   5.818   9.989   8.209  0.5620 -0.1640  3.0180
  899MOL0     O18537   7.063   0.741   9.931  0.2268 -0.6078  0.0211
  899MOL0     C18538   7.056   0.617   9.936  0.6261  0.5632 -0.3422
  899MOL0     O18539   6.936   0.551   9.937  0.4420  0.1233  0.2247
  899MOL0     C18540   6.823   0.611   9.882 -0.2681 -0.1517  0.7177
  899MOL0     C18541   6.758   0.728   9.935 -0.4136  1.2211  0.0523
  899MOL0     C18542   6.642   0.769   9.881 -0.5183  0.6976  0.1354
  899MOL0     C18543   6.595   0.711   9.765 -0.0277 -0.9536  1.0071
  899MOL0     O18544   6.487   0.773   9.698 -0.0579  0.4600  0.7249
  899MOL0     C18545   6.380   0.827   9.778  0.1780 -0.4320 -0.5588
  899MOL0     C18546   6.248   0.842   9.697 -0.5424  0.8331 -0.5780
  899MOL0     C18547   6.150   0.946   9.756  0.7850 -0.3138  0.3466
  899MOL0     C18548   6.062   0.897   9.870  0.7136 -0.0541  0.2635
  899MOL0     C18549   6.019   1.007   9.960  0.6661  1.1242  0.2617
  899MOL0     C18550   5.898   0.975  10.044  0.0472 -0.0410 -0.0084
  899MOL0     C18551   5.768   0.977   9.965 -0.3556  0.2878  0.0662
  899MOL0     C18552   5.687   1.119   9.967 -0.4245  0.2145  0.0554
  899MOL0     N18553   5.548   1.109   9.913  0.0507 -0.1104 -0.2129
  899MOL0     C18554   5.520   1.109   9.773 -0.0377 -0.3685  0.1224
  899MOL0     C18555   5.389   1.075   9.776 -1.3345  0.7437 -0.1636
  899MOL0     C18556   5.305   1.060   9.656 -0.9431 -0.2923  1.1768
  899MOL0     C18557   5.326   0.931   9.563  0.4627  0.3942 -1.2177
  899MOL0     C18558   5.284   0.811   9.649  1.1040  0.2157 -0.7269
  899MOL0     C18559   5.132   0.799   9.647  0.5866  0.6204 -1.4814
  899MOL0     O18560   5.084   0.790   9.513  0.0952 -0.2621 -0.3646
  899MOL0     C18561   4.959   0.735   9.483 -0.4340  0.6272 -1.0206
  899MOL0     C18562   4.928   0.711   9.348  0.0497 -0.3203  0.2594
  899MOL0     C18563   4.798   0.668   9.319 -0.7218 -1.1072 -0.1257
  899MOL0     C18564   4.702   0.638   9.417  0.3867  0.6191 -0.5586
  899MOL0     C18565   4.575   0.590   9.376  0.1998  0.2836 -0.7050
  899MOL0     O18566   4.562   0.586   9.237 -0.1767  0.2105 -0.3058
  899MOL0     C18567   4.451   0.529   9.183 -0.0438  0.6369 -0.7329
  899MOL0     C18568   4.470   0.422   9.091 -0.2198 -0.0848  0.1265
  899MOL0     C18569   4.365   0.366   9.021 -0.5472 -0.3178 -0.0082
  899MOL0     C18570   4.239   0.378   9.072 -0.4135 -0.5912 -0.5329
  899MOL0     O18571   4.122   0.300   9.056 -0.1991 -0.7094 -0.4009
  899MOL0     C18572   4.156   0.160   9.022 -0.1625 -0.2778  0.7054
  899MOL0     C18573   4.028   0.071   9.025 -0.6078  0.3409  0.4453
  899MOL0     C18574   4.045  -0.051   8.934 -0.3084  0.2873  0.1590
  899MOL0     C18575   3.905  -0.119   8.913 -0.6805 -0.6437 -0.6572
  899MOL0     C18576   3.918  -0.245   8.838 -0.5778  0.4845  0.8623
  899MOL0     C18577   3.792  -0.294   8.769 -0.4794  0.1409  0.5081
  899MOL0     C18578   3.773  -0.452   8.760 -0.5547 -0.0046  0.3826
  899MOL0     C18579   3.720  -0.513   8.888 -1.2250 -0.5700  0.7106
  899MOL0    Cl18580   3.575  -0.619   8.859  0.6623 -0.2019  0.0578
  899MOL0     C18581   4.213   0.483   9.170  1.2442 -0.2053  0.2635
  899MOL0     C18582   4.317   0.561   9.214 -0.7260 -0.2417  0.3837
  899MOL0     O18583   4.494   0.555   9.467 -0.3978  0.3749  0.6306
  899MOL0     C18584   4.739   0.658   9.549  0.5668  0.6407  0.2422
  899MOL0     C18585   4.866   0.697   9.582 -0.1400  0.8912 -0.6056
  899MOL0     N18586   5.344   1.052   9.901  1.2665  0.2043 -0.5690
  899MOL0     N18587   5.436   1.077   9.983 -0.5161  0.0878 -0.1365
  899MOL0     C18588   6.668   0.613   9.701 -0.1052  0.3792 -0.6188
  899MOL0     C18589   6.786   0.557   9.759 -1.4065 -0.5719 -0.2254
  899MOL0     C18590   7.182   0.544   9.953  0.4600 -0.5658  0.5485
  899MOL0     C18591   7.292   0.615   9.990  1.3797  0.2998  0.5133
  899MOL0     C18592   7.416   0.544  10.011 -0.0315  0.2892  0.0548
  899MOL0     C18593   7.429   0.407   9.985 -0.8856  0.3460  0.2660
  899MOL0     O18594   7.547   0.331  10.005  0.2481 -0.6601  0.0886
  899MOL0     C18595   7.650   0.376   9.920 -0.1381  0.2584 -0.1371
  899MOL0     C18596   7.775   0.301   9.967 -0.8683 -0.4931  0.1936
  899MOL0     C18597   7.887   0.293   9.854  0.0761  0.3401 -0.7909
  899MOL0     C18598   8.019   0.236   9.901  0.0915 -0.8299 -0.2222
  899MOL0     C18599   8.106   0.210   9.789  0.6744 -0.0716 -1.2060
  899MOL0     C18600   8.171   0.185   9.696 -0.7594 -0.9632  1.1131
  899MOL0     C18601   7.308   0.336   9.948 -0.5288  0.8593 -0.3477
  899MOL0     C18602   7.189   0.410   9.930 -1.4469  0.3442 -0.0507
  899MOL0     H18603   6.785   0.786  10.023  1.7452 -2.2677  1.9322
  899MOL0     H18604   6.590   0.852   9.927  1.3968  2.0147  0.0267
  899MOL0     H18605   6.409   0.927   9.809  2.8940 -1.6332  1.1692
  899MOL0     H18606   6.364   0.759   9.862  0.5854 -0.3269 -0.3912
  899MOL0     H18607   6.211   0.740   9.708  0.9983  0.3140  0.1089
  899MOL0     H18608   6.276   0.865   9.593 -1.5929 -2.6506 -1.7739
  899MOL0     H18609   6.086   0.980   9.675  0.5023 -0.1285  0.6418
  899MOL0     H18610   6.211   1.032   9.786 -0.5166  1.0068 -0.6327
  899MOL0     H18611   5.974   0.836   9.844  0.6694  0.9427 -2.2421
  899MOL0     H18612   6.121   0.825   9.927  1.2373  1.5962  1.8710
  899MOL0     H18613   5.999   1.096   9.901  0.0562  0.4265 -0.6125
  899MOL0     H18614   6.106   1.022  10.025  0.5179 -0.2176  0.8063
  899MOL0     H18615   5.902   1.044  10.129  0.3330 -1.0421  0.8130
  899MOL0     H18616   5.918   0.873  10.080 -1.0617 -0.7760 -1.3684
  899MOL0     H18617   5.772   0.934   9.865 -2.6999 -0.6211  0.2825
  899MOL0     H18618   5.702   0.908  10.020 -0.5267  1.6803  1.6701
  899MOL0     H18619   5.748   1.193   9.914  2.5123 -1.6004  0.6237
  899MOL0     H18620   5.686   1.156  10.071 -1.6321 -0.2436  0.2166
  899MOL0     H18621   5.601   1.127   9.703  1.1274 -0.8970  1.2713
  899MOL0     H18622   5.316   1.153   9.600 -0.1788  1.0412  3.4049
  899MOL0     H18623   5.202   1.056   9.692 -1.4375  0.5274 -0.0871
  899MOL0     H18624   5.424   0.911   9.521  0.1688  0.3840 -1.9124
  899MOL0     H18625   5.271   0.953   9.471 -0.6625 -0.2282 -0.7184
  899MOL0     H18626   5.330   0.717   9.618 -2.2656 -1.4723 -1.0083
  899MOL0     H18627   5.317   0.823   9.752 -0.5699  0.0208 -0.1375
  899MOL0     H18628   5.087   0.893   9.679  1.6421  1.0546 -1.2260
  899MOL0     H18629   5.099   0.722   9.718 -0.5676  3.2219  0.9831
  899MOL0     H18630   5.004   0.732   9.273  0.2615  0.0235  0.5641
  899MOL0     H18631   4.767   0.668   9.215 -2.0865  1.3574  0.2175
  899MOL0     H18632   4.571   0.392   9.066 -0.1120  1.3489 -1.3482
  899MOL0     H18633   4.378   0.295   8.940  1.5976 -2.5209  2.0579
  899MOL0     H18634   4.231   0.115   9.089  4.4876  2.0550 -2.4143
  899MOL0     H18635   4.212   0.153   8.929  0.1669  2.3961  0.6191
  899MOL0     H18636   3.945   0.128   8.982 -3.7956 -3.2378  1.3819
  899MOL0     H18637   3.987   0.047   9.123 -2.6531 -1.0459 -0.6785
  899MOL0     H18638   4.114  -0.118   8.986  2.2088  1.4279 -1.5351
  899MOL0     H18639   4.085  -0.024   8.836 -1.2468 -0.3114 -0.4146
  899MOL0     H18640   3.859  -0.151   9.007 -1.2806 -2.1540 -1.4240
  899MOL0     H18641   3.838  -0.041   8.876  0.8637  1.2095  0.3353
  899MOL0     H18642   3.945  -0.331   8.900 -0.8040 -0.1982  0.0215
  899MOL0     H18643   3.997  -0.231   8.764 -0.8557 -0.1885  0.4329
  899MOL0     H18644   3.790  -0.261   8.665 -0.5302  2.6564  1.2542
  899MOL0     H18645   3.704  -0.252   8.818 -0.3819  1.3032 -0.2598
  899MOL0     H18646   3.703  -0.480   8.681 -0.4347  1.5521 -0.3034
  899MOL0     H18647   3.872  -0.491   8.734 -2.1339 -3.4543 -1.1451
  899MOL0     H18648   3.693  -0.434   8.959  4.9802  1.3795  1.4990
  899MOL0     H18649   3.800  -0.571   8.934 -1.0665 -0.0952  1.0385
  899MOL0     H18650   4.109   0.503   9.193  0.1627 -2.3198 -2.3085
  899MOL0     H18651   4.307   0.633   9.295 -0.5301 -0.3887  0.5406
  899MOL0     H18652   4.665   0.637   9.626  2.4930  1.7789  2.5094
  899MOL0     H18653   4.892   0.695   9.688  1.9217 -2.5697 -1.0407
  899MOL0     H18654   6.630   0.585   9.603 -0.5627 -1.1529 -0.0385
  899MOL0     H18655   6.848   0.478   9.718 -1.1680 -0.9467  0.8221
  899MOL0     H18656   7.289   0.722  10.007 -0.2041  0.5992 -1.2994
  899MOL0     H18657   7.509   0.597  10.032 -0.3327  0.5927  0.6212
  899MOL0     H18658   7.670   0.483   9.909  3.7226 -0.3803 -0.9219
  899MOL0     H18659   7.638   0.346   9.816  2.0536  1.0784 -0.6795
  899MOL0     H18660   7.811   0.349  10.058 -0.2780 -0.6002  0.0211
  899MOL0     H18661   7.748   0.199   9.996  2.9671 -1.6203  0.4169
  899MOL0     H18662   7.914   0.397   9.833  0.4318  0.1492 -1.3136
  899MOL0     H18663   7.835   0.244   9.771 -0.7537 -0.9981  0.4720
  899MOL0     H18664   8.073   0.301   9.971 -2.3719  2.2429 -0.9651
  899MOL0     H18665   8.005   0.140   9.952  0.6655  0.0646  1.6866
  899MOL0     H18666   8.213   0.156   9.602  0.6500  1.6216  0.8321
  899MOL0     H18667   7.321   0.230   9.926  0.6334  0.6283  1.2485
  899MOL0     H18668   7.108   0.343   9.903 -0.0218 -1.8167  0.7873
  900MOL0     O18669   6.993   2.299   8.408 -0.3879  0.9905 -0.2835
  900MOL0     C18670   7.064   2.343   8.496  0.1915 -0.0164 -1.0689
  900MOL0     O18671   7.025   2.443   8.583  0.2195  0.3940 -0.0213
  900MOL0     C18672   6.902   2.503   8.555 -0.4951 -0.2632 -0.0333
  900MOL0     C18673   6.793   2.459   8.621  0.6135 -0.0946 -0.5418
  900MOL0     C18674   6.673   2.536   8.607 -0.8653 -0.7633 -0.1692
  900MOL0     C18675   6.667   2.655   8.529 -0.0575 -0.7836 -0.6254
  900MOL0     O18676   6.568   2.746   8.524 -0.2160 -0.1683  0.2424
  900MOL0     C18677   6.478   2.738   8.631  0.4250 -0.6926 -0.3111
  900MOL0     C18678   6.387   2.863   8.637  0.0240  0.2371  0.2195
  900MOL0     C18679   6.284   2.851   8.529 -0.3369 -0.0328 -0.5092
  900MOL0     C18680   6.189   2.980   8.521  0.3263  0.3535 -0.4050
  900MOL0     C18681   6.265   3.092   8.458  0.1617 -0.1189 -0.2519
  900MOL0     C18682   6.193   3.228   8.456 -0.0215  0.5822 -0.3994
  900MOL0     C18683   6.255   3.325   8.362  0.3296 -0.5194 -0.2097
  900MOL0     C18684   6.212   3.475   8.378  1.2199 -0.3927  0.9723
  900MOL0     N18685   6.304   3.543   8.475  1.1455 -0.0546 -0.3708
  900MOL0     C18686   6.411   3.622   8.451  0.0695 -0.1732  0.0229
  900MOL0     C18687   6.452   3.663   8.576 -0.0735 -0.5802 -0.1208
  900MOL0     C18688   6.551   3.760   8.628 -0.7343  0.3951  0.6475
  900MOL0     C18689   6.508   3.891   8.600  0.8594  0.3128  1.1918
  900MOL0     C18690   6.575   4.006   8.664  0.7457 -0.2872 -0.2934
  900MOL0     C18691   6.509   4.142   8.606  0.1461 -0.1774 -0.2145
  900MOL0     O18692   6.525   4.153   8.461  0.9103  0.5943  0.0033
  900MOL0     C18693   6.425   4.205   8.388 -0.3524 -0.6068  0.4241
  900MOL0     C18694   6.318   4.286   8.433 -0.4365 -0.4351  0.9659
  900MOL0     C18695   6.222   4.332   8.339  0.1036  0.6091  0.4964
  900MOL0     C18696   6.231   4.301   8.202  1.1379 -0.0820 -0.4111
  900MOL0     C18697   6.135   4.357   8.103  0.8348  0.1954 -0.2860
  900MOL0     O18698   6.192   4.373   7.979 -0.3949  0.0330  0.7307
  900MOL0     C18699   6.114   4.408   7.872  0.0123 -1.2429  0.0030
  900MOL0     C18700   6.163   4.508   7.792 -0.0272 -0.1826 -0.4655
  900MOL0     C18701   6.091   4.556   7.686 -0.2100 -0.3305  0.0978
  900MOL0     C18702   5.959   4.510   7.656  0.0477 -0.6209  0.4287
  900MOL0     O18703   5.893   4.559   7.549  0.4133 -0.0549  0.0925
  900MOL0     C18704   5.745   4.568   7.551  0.7589 -0.8295  0.2576
  900MOL0     C18705   5.714   4.652   7.432  0.7491 -0.2349  0.0690
  900MOL0     C18706   5.559   4.669   7.402  0.8223 -0.1936  0.0920
  900MOL0     C18707   5.480   4.753   7.504 -0.3817 -0.1015  0.4322
  900MOL0     C18708   5.347   4.792   7.447 -0.0982 -0.5686  0.1034
  900MOL0     C18709   5.263   4.856   7.556  0.3930  0.1928 -0.1984
  900MOL0     C18710   5.119   4.886   7.508  0.5445  0.6120  0.1033
  900MOL0     C18711   5.039   4.759   7.495 -0.7188 -0.0970  0.7759
  900MOL0    Cl18712   4.874   4.801   7.434  0.1647 -0.0372  0.0529
  900MOL0     C18713   5.917   4.399   7.736 -0.2970 -0.8990  0.3512
  900MOL0     C18714   5.988   4.358   7.848  0.9578  0.1979  0.6514
  900MOL0     O18715   6.029   4.416   8.140  0.7204  0.8381 -0.2354
  900MOL0     C18716   6.336   4.227   8.157 -0.5549 -0.5334 -0.0168
  900MOL0     C18717   6.431   4.186   8.251 -0.1426  0.0346 -0.5042
  900MOL0     N18718   6.371   3.604   8.672  0.0899 -0.0221 -0.0968
  900MOL0     N18719   6.287   3.527   8.612 -0.2215  0.5252 -0.3100
  900MOL0     C18720   6.783   2.681   8.453  0.3130  0.1374 -0.4322
  900MOL0     C18721   6.903   2.619   8.470  0.6293  0.6355 -0.0437
  900MOL0     C18722   7.178   2.260   8.532 -0.5086  0.4072  0.2174
  900MOL0     C18723   7.278   2.295   8.629  0.2563 -0.2716  0.1540
  900MOL0     C18724   7.389   2.213   8.661 -0.2927 -0.1908 -0.7471
  900MOL0     C18725   7.404   2.096   8.580 -0.2217  0.2590 -0.9986
  900MOL0     O18726   7.507   2.007   8.594 -0.3312 -0.3858  0.0079
  900MOL0     C18727   7.607   2.021   8.703 -0.0772  0.3709 -0.0585
  900MOL0     C18728   7.722   1.914   8.694 -0.3739  0.5582 -0.2784
  900MOL0     C18729   7.784   1.918   8.551 -0.3871  0.2126  0.2355
  900MOL0     C18730   7.897   1.814   8.534  0.4977  0.3647  0.0284
  900MOL0     C18731   7.993   1.837   8.636 -0.5357 -0.1849  0.3328
  900MOL0     C18732   8.086   1.840   8.715  0.5186  0.9135  0.2187
  900MOL0     C18733   7.304   2.059   8.491  0.1348  0.0926 -1.2362
  900MOL0     C18734   7.204   2.143   8.463 -0.5134  0.0783  1.1067
  900MOL0     H18735   6.787   2.366   8.678  0.8743 -1.1573 -2.1908
  900MOL0     H18736   6.593   2.495   8.667 -0.8744 -0.3822  0.0879
  900MOL0     H18737   6.521   2.745   8.731 -0.5505  2.9080 -0.0071
  900MOL0     H18738   6.409   2.653   8.624 -2.5994  1.4043  1.6241
  900MOL0     H18739   6.460   2.942   8.616 -0.2817  0.5480  0.3268
  900MOL0     H18740   6.338   2.880   8.733 -1.5337  4.2911 -1.0918
  900MOL0     H18741   6.226   2.763   8.560 -0.0783  0.0302  0.1781
  900MOL0     H18742   6.327   2.827   8.432 -1.9014  2.4573 -1.9236
  900MOL0     H18743   6.093   2.953   8.475 -0.7267 -1.1049  2.4375
  900MOL0     H18744   6.165   3.007   8.624 -1.0643 -1.9023 -0.0780
  900MOL0     H18745   6.287   3.069   8.353 -1.6969  0.0269 -0.7077
  900MOL0     H18746   6.354   3.116   8.517  0.3655  1.3854 -1.1219
  900MOL0     H18747   6.199   3.253   8.562  2.0767 -3.0303  0.5087
  900MOL0     H18748   6.092   3.205   8.419 -0.3399  1.3760 -0.0328
  900MOL0     H18749   6.360   3.332   8.392 -0.3034  1.5535  1.8401
  900MOL0     H18750   6.243   3.291   8.259  0.1349  0.6029 -0.5749
  900MOL0     H18751   6.105   3.474   8.403 -0.0820 -1.2134 -3.6791
  900MOL0     H18752   6.217   3.517   8.277  3.4321 -1.5743  0.5180
  900MOL0     H18753   6.462   3.632   8.356  1.3449 -0.2433  0.6768
  900MOL0     H18754   6.650   3.741   8.588 -1.2973  2.8480 -2.2763
  900MOL0     H18755   6.547   3.749   8.737  1.8550  1.8666  0.9619
  900MOL0     H18756   6.400   3.893   8.614  0.3716 -0.7514 -1.6837
  900MOL0     H18757   6.511   3.901   8.491 -1.5219 -0.8425  0.9445
  900MOL0     H18758   6.554   4.010   8.772 -0.0588 -1.8841 -0.3634
  900MOL0     H18759   6.682   4.023   8.652  0.1691  1.7803 -3.6083
  900MOL0     H18760   6.557   4.228   8.655 -0.3056  1.5683 -2.6335
  900MOL0     H18761   6.406   4.128   8.639  0.6625 -2.4398  0.6307
  900MOL0     H18762   6.300   4.295   8.539  1.1103 -0.8306  1.2847
  900MOL0     H18763   6.133   4.385   8.369  0.3075  0.5474  1.2238
  900MOL0     H18764   6.265   4.540   7.813 -0.2661  0.7824 -0.7123
  900MOL0     H18765   6.141   4.628   7.623 -1.2321 -1.1598 -1.7203
  900MOL0     H18766   5.713   4.625   7.639 -1.1533 -0.6630 -0.4930
  900MOL0     H18767   5.705   4.466   7.546  3.0528 -1.8014  0.5271
  900MOL0     H18768   5.756   4.598   7.347  1.8081 -0.4806  0.7389
  900MOL0     H18769   5.767   4.748   7.430  0.8905 -0.3187 -0.2942
  900MOL0     H18770   5.516   4.568   7.405  1.9270 -0.7882 -1.9736
  900MOL0     H18771   5.556   4.717   7.304  3.7428  0.2440  0.1286
  900MOL0     H18772   5.477   4.703   7.602 -0.2568 -0.9590  0.0100
  900MOL0     H18773   5.530   4.849   7.512  0.7912 -0.6941  0.4374
  900MOL0     H18774   5.301   4.705   7.399 -1.5564  0.5575 -0.6250
  900MOL0     H18775   5.353   4.864   7.364  0.1565  0.5948  1.1075
  900MOL0     H18776   5.313   4.951   7.578 -1.5551  1.0469  0.8698
  900MOL0     H18777   5.265   4.781   7.635 -0.2429  1.5566  1.1793
  900MOL0     H18778   5.061   4.943   7.580 -1.7121 -0.8444 -0.4383
  900MOL0     H18779   5.110   4.934   7.410  0.2354 -1.2474 -0.8250
  900MOL0     H18780   5.042   4.701   7.588 -1.1443 -0.1130  0.7795
  900MOL0     H18781   5.088   4.698   7.419  0.5717  0.8025  0.8512
  900MOL0     H18782   5.826   4.345   7.716 -1.3468  0.7791  0.3887
  900MOL0     H18783   5.939   4.287   7.914  0.2977 -1.4062 -1.4403
  900MOL0     H18784   6.343   4.199   8.053  1.2524 -0.6627  0.1171
  900MOL0     H18785   6.518   4.135   8.211  0.1826  1.4513 -1.6907
  900MOL0     H18786   6.779   2.768   8.390  1.6327  0.2078 -0.4601
  900MOL0     H18787   6.988   2.651   8.412  1.3266  0.5547  0.9087
  900MOL0     H18788   7.259   2.388   8.680  1.5599 -1.3416  2.8118
  900MOL0     H18789   7.457   2.236   8.742 -0.0076 -0.8068 -0.8092
  900MOL0     H18790   7.547   2.011   8.795 -0.1812 -0.0105 -0.1642
  900MOL0     H18791   7.650   2.121   8.709 -1.3361  1.1886 -2.8428
  900MOL0     H18792   7.799   1.937   8.768  1.8248 -1.4518 -1.7880
  900MOL0     H18793   7.697   1.809   8.710 -1.9506  1.3160  3.2188
  900MOL0     H18794   7.820   2.019   8.528 -1.2951  0.4530 -0.1608
  900MOL0     H18795   7.708   1.900   8.475 -1.6200 -1.8398  1.8412
  900MOL0     H18796   7.870   1.708   8.523 -1.0548  0.9842 -4.0589
  900MOL0     H18797   7.939   1.825   8.434 -1.7404 -0.1860 -1.0300
  900MOL0     H18798   8.176   1.844   8.772 -0.1332 -1.9432  1.6085
  900MOL0     H18799   7.301   1.958   8.451  0.7892 -0.9235  1.0790
  900MOL0     H18800   7.148   2.092   8.386  2.0380 -1.1879 -0.0610
  901MOL0     O18801   9.009   2.338   7.095 -0.4597  0.0484  0.0502
  901MOL0     C18802   8.950   2.342   6.993  0.8243  0.4271  0.7093
  901MOL0     O18803   9.014   2.342   6.866  0.9139  0.9560 -0.5784
  901MOL0     C18804   9.145   2.351   6.848 -0.0227  0.9364 -0.4240
  901MOL0     C18805   9.245   2.281   6.911 -0.7425  0.5572  0.0929
  901MOL0     C18806   9.378   2.281   6.860  0.7431  0.5240  0.6513
  901MOL0     C18807   9.416   2.341   6.741  0.2950 -0.7027  0.1207
  901MOL0     O18808   9.539   2.318   6.698 -0.7282  0.6791  0.0386
  901MOL0     C18809   9.561   2.309   6.559 -0.3600 -0.3919  0.7905
  901MOL0     C18810   9.653   2.189   6.551  0.5943 -0.5314  0.3774
  901MOL0     C18811   9.590   2.059   6.588  0.3107  0.5424  0.0038
  901MOL0     C18812   9.677   1.937   6.598  0.0014 -0.7244  0.9101
  901MOL0     C18813   9.600   1.808   6.627  0.0032  0.0092 -0.1339
  901MOL0     C18814   9.686   1.684   6.615  0.9674 -0.5159  0.4574
  901MOL0     C18815   9.782   1.677   6.729 -0.1840 -1.2468 -0.5227
  901MOL0     C18816   9.847   1.535   6.730 -0.3064  0.7722  0.7827
  901MOL0     N18817   9.947   1.535   6.841  0.1446 -0.8173  0.1471
  901MOL0     C18818  10.078   1.585   6.830 -0.2567  0.8874  0.1984
  901MOL0     C18819  10.132   1.567   6.955  0.0213 -0.2047  0.5833
  901MOL0     C18820  10.260   1.626   6.998  0.5094 -0.5892 -0.2467
  901MOL0     C18821  10.378   1.531   6.978 -1.0048  0.3198  0.1638
  901MOL0     C18822  10.355   1.415   7.081 -0.1664  0.3412 -0.6632
  901MOL0     C18823  10.466   1.316   7.127  0.3960 -0.4787  0.3551
  901MOL0     O18824  10.522   1.253   7.008 -0.0202 -0.3517  0.2597
  901MOL0     C18825  10.658   1.277   6.987 -1.3235  0.3321 -1.2372
  901MOL0     C18826  10.737   1.161   6.973 -0.4501 -1.1948 -0.5689
  901MOL0     C18827  10.878   1.173   6.981  0.0448  0.3916 -0.2300
  901MOL0     C18828  10.932   1.301   6.979 -0.5454  0.1244  0.3227
  901MOL0     C18829  11.084   1.302   6.980  0.4096 -0.1595  0.0487
  901MOL0     O18830  11.127   1.403   7.060  0.4922 -0.3721 -0.0957
  901MOL0     C18831  11.263   1.414   7.067 -0.7068 -0.2913  0.0604
  901MOL0     C18832  11.322   1.398   7.191 -0.0897 -0.1963  0.9098
  901MOL0     C18833  11.461   1.412   7.210  1.0780  0.0613  0.1021
  901MOL0     C18834  11.543   1.451   7.101  0.5528  0.1455  0.1825
  901MOL0     O18835  11.674   1.478   7.123  0.0093 -0.4136  0.4027
  901MOL0     C18836  11.760   1.477   7.004  1.0457  0.0641 -0.1049
  901MOL0     C18837  11.897   1.450   7.060 -0.0146  0.8149 -0.1035
  901MOL0     C18838  11.901   1.305   7.102  0.0055  0.4944 -0.1162
  901MOL0     C18839  11.870   1.198   6.996 -0.0665  0.4947  0.4183
  901MOL0     C18840  11.946   1.196   6.870 -0.3751 -0.7833 -0.4314
  901MOL0     C18841  12.099   1.171   6.886  0.3327 -1.1878 -0.4757
  901MOL0     C18842  12.173   1.161   6.753  0.3549  0.7741  0.0063
  901MOL0     C18843  12.326   1.148   6.779  0.0479  0.0703 -0.4088
  901MOL0    Cl18844  12.409   1.243   6.652  0.1184 -0.0166  0.2865
  901MOL0     C18845  11.480   1.473   6.975 -0.5465  0.6580 -0.1592
  901MOL0     C18846  11.345   1.456   6.962 -0.1510  0.7852 -0.5844
  901MOL0     O18847  11.146   1.227   6.906 -0.9860  0.1240 -0.1162
  901MOL0     C18848  10.858   1.417   6.983  0.0624  0.4646 -0.9177
  901MOL0     C18849  10.719   1.406   6.988 -0.1210  0.5187  0.6910
  901MOL0     N18850  10.035   1.510   7.035  0.1455  0.4879  0.2719
  901MOL0     N18851   9.925   1.499   6.969 -0.0397  0.9315 -0.1670
  901MOL0     C18852   9.313   2.419   6.679  0.2559 -0.0439 -0.2576
  901MOL0     C18853   9.179   2.422   6.732  0.2521  0.1852 -0.3765
  901MOL0     C18854   8.804   2.354   7.005  0.5080 -0.5279  0.0208
  901MOL0     C18855   8.720   2.344   6.894  0.8365  0.4569  0.4679
  901MOL0     C18856   8.578   2.340   6.905  0.0877  0.0208  0.1177
  901MOL0     C18857   8.519   2.360   7.031 -0.7774 -0.0877 -0.6525
  901MOL0     O18858   8.384   2.385   7.017 -0.1507 -0.7089 -0.1104
  901MOL0     C18859   8.315   2.440   7.130 -0.5173  0.0278 -0.2688
  901MOL0     C18860   8.162   2.458   7.116  0.6189  0.2943 -0.1816
  901MOL0     C18861   8.147   2.513   6.976  0.7626  0.3052  1.0622
  901MOL0     C18862   8.011   2.567   6.961  0.7529 -0.0863 -0.1117
  901MOL0     C18863   8.002   2.703   7.018  0.4767  0.0494 -0.1605
  901MOL0     C18864   7.997   2.817   7.058 -0.2675 -0.4722 -0.4654
  901MOL0     C18865   8.602   2.364   7.143  0.6754  0.3632  0.2783
  901MOL0     C18866   8.741   2.358   7.132  0.2918 -0.0666 -0.0907
  901MOL0     H18867   9.233   2.221   7.001  3.9741 -1.2360 -0.2052
  901MOL0     H18868   9.460   2.233   6.912  0.2236 -0.9578  0.1329
  901MOL0     H18869   9.609   2.397   6.515 -0.4178 -0.7722 -0.0551
  901MOL0     H18870   9.471   2.277   6.506  0.2881 -1.0384  0.0675
  901MOL0     H18871   9.732   2.213   6.624 -0.1823 -1.1640  1.4642
  901MOL0     H18872   9.698   2.192   6.452  0.4335  0.1562  0.3224
  901MOL0     H18873   9.532   2.032   6.500  0.8679 -1.2017  0.1318
  901MOL0     H18874   9.528   2.064   6.678  3.8884 -0.3275  2.7746
  901MOL0     H18875   9.739   1.930   6.508 -0.9381 -1.1334  0.2822
  901MOL0     H18876   9.750   1.952   6.678 -0.1425 -1.7240  1.2486
  901MOL0     H18877   9.522   1.794   6.552  1.0959 -0.4105 -1.2243
  901MOL0     H18878   9.555   1.805   6.727 -0.1289  2.8144 -0.0309
  901MOL0     H18879   9.747   1.692   6.525  0.8540 -0.3361  0.3964
  901MOL0     H18880   9.615   1.601   6.606 -0.6785  0.7934  0.7784
  901MOL0     H18881   9.867   1.745   6.719  0.0698 -1.1133  1.9088
  901MOL0     H18882   9.732   1.689   6.825  0.5685 -2.5957  0.0623
  901MOL0     H18883   9.893   1.511   6.633  0.0900  1.7751  0.7138
  901MOL0     H18884   9.770   1.459   6.745  0.5483 -1.1430 -3.0763
  901MOL0     H18885  10.118   1.625   6.737 -1.5633  0.1276 -0.7072
  901MOL0     H18886  10.266   1.643   7.106  3.0999 -0.1070 -0.3973
  901MOL0     H18887  10.264   1.725   6.951  0.3605  0.1958  1.3213
  901MOL0     H18888  10.471   1.576   7.013  0.9005 -1.3997 -2.2524
  901MOL0     H18889  10.393   1.479   6.882  2.0988 -1.4719  1.4638
  901MOL0     H18890  10.313   1.446   7.177  0.3676 -0.6499 -0.1092
  901MOL0     H18891  10.279   1.351   7.035 -1.5722  2.5166 -1.5892
  901MOL0     H18892  10.429   1.251   7.207 -0.0556  1.1108  1.4907
  901MOL0     H18893  10.541   1.380   7.175 -0.1950  1.8012 -1.5457
  901MOL0     H18894  10.690   1.065   6.954 -2.0597 -0.2300 -1.6115
  901MOL0     H18895  10.937   1.082   6.972 -0.9019 -0.1449 -1.3792
  901MOL0     H18896  11.267   1.358   7.275  0.3274 -1.4304  0.6130
  901MOL0     H18897  11.497   1.405   7.312 -0.4261 -2.4300  0.5519
  901MOL0     H18898  11.769   1.575   6.958  1.1702 -0.1911 -0.6243
  901MOL0     H18899  11.725   1.406   6.928 -1.2027  0.5739  0.3954
  901MOL0     H18900  11.928   1.517   7.141 -0.3049  0.9918 -0.1385
  901MOL0     H18901  11.965   1.466   6.976 -0.4153  0.0954 -0.5740
  901MOL0     H18902  11.839   1.288   7.190  1.3898 -1.8505  0.4824
  901MOL0     H18903  12.005   1.306   7.137  0.5555  1.2501 -1.6465
  901MOL0     H18904  11.864   1.104   7.051 -2.2528  1.2337  1.5811
  901MOL0     H18905  11.768   1.209   6.959  0.4790 -2.3248 -2.3412
  901MOL0     H18906  11.937   1.291   6.817 -2.1741 -0.6545  0.0342
  901MOL0     H18907  11.894   1.132   6.798  2.2660  0.4769 -3.6903
  901MOL0     H18908  12.115   1.075   6.935 -2.3054 -2.1827 -1.3930
  901MOL0     H18909  12.131   1.265   6.931 -0.4147 -1.0924 -0.1310
  901MOL0     H18910  12.134   1.079   6.691 -0.4570  3.2777 -3.0140
  901MOL0     H18911  12.146   1.252   6.700 -0.4892  2.3627  3.0003
  901MOL0     H18912  12.374   1.050   6.775  0.6927  0.2148  1.9227
  901MOL0     H18913  12.345   1.202   6.873 -0.6999  0.1662 -0.3112
  901MOL0     H18914  11.535   1.504   6.887 -0.8188  0.4577 -0.4044
  901MOL0     H18915  11.296   1.485   6.869 -0.5551 -1.2056 -1.0491
  901MOL0     H18916  10.899   1.517   6.985  0.8433  0.1936  2.4547
  901MOL0     H18917  10.663   1.499   6.981  0.0261  0.5328 -0.6764
  901MOL0     H18918   9.337   2.479   6.592  0.0998 -0.4684 -0.6011
  901MOL0     H18919   9.102   2.486   6.689  1.2997  1.2687 -0.6844
  901MOL0     H18920   8.759   2.336   6.793  0.1908 -1.4929  0.3309
  901MOL0     H18921   8.519   2.329   6.815  0.3003 -0.5002  0.0399
  901MOL0     H18922   8.360   2.538   7.142  1.2840 -0.5345 -1.9039
  901MOL0     H18923   8.326   2.385   7.224 -1.6765  0.0863 -0.0889
  901MOL0     H18924   8.107   2.364   7.117  1.9446 -0.5902 -2.5538
  901MOL0     H18925   8.123   2.532   7.187 -1.1362  0.0215 -0.8035
  901MOL0     H18926   8.164   2.426   6.912  3.0891  1.2502  0.2839
  901MOL0     H18927   8.222   2.585   6.941 -0.2567  0.5030 -0.8553
  901MOL0     H18928   7.978   2.561   6.857  0.2282  2.3395 -0.1369
  901MOL0     H18929   7.935   2.506   7.011  0.1769  0.8711  0.2018
  901MOL0     H18930   8.011   2.920   7.083  0.6696 -0.8283  0.5821
  901MOL0     H18931   8.556   2.370   7.241 -1.2838 -2.2590 -0.3502
  901MOL0     H18932   8.810   2.360   7.216  2.9058  1.4969 -2.1048
  902MOL0     O18933   6.768   6.803   7.483  0.1336  0.3300 -0.4437
  902MOL0     C18934   6.844   6.895   7.480 -0.5444  0.4900 -0.6177
  902MOL0     O18935   6.813   7.025   7.487  0.4429 -0.2185  0.3826
  902MOL0     C18936   6.689   7.070   7.449  0.5655 -0.5871  0.7487
  902MOL0     C18937   6.574   7.028   7.505 -0.4557  0.7056  0.3644
  902MOL0     C18938   6.454   7.089   7.483 -0.1751 -0.0582  0.8408
  902MOL0     C18939   6.449   7.190   7.378  0.5376  0.0460 -0.6849
  902MOL0     O18940   6.326   7.242   7.340  0.2846 -0.2299  0.1930
  902MOL0     C18941   6.286   7.198   7.212 -0.9239  0.9069  0.2008
  902MOL0     C18942   6.147   7.241   7.173 -0.7008 -0.6111 -0.8803
  902MOL0     C18943   6.053   7.249   7.287 -0.4642 -0.3593  0.7676
  902MOL0     C18944   6.022   7.105   7.350 -0.3419 -0.2425  0.0478
  902MOL0     C18945   5.899   7.110   7.445  0.6362  0.6920 -0.4178
  902MOL0     C18946   5.893   7.214   7.559  0.1399 -0.5528 -1.0046
  902MOL0     C18947   5.986   7.184   7.674 -0.0812 -0.0221 -0.9172
  902MOL0     C18948   5.920   7.241   7.811  0.1776 -0.0514  0.4814
  902MOL0     N18949   5.837   7.150   7.886  0.7581 -0.4796 -0.1234
  902MOL0     C18950   5.739   7.068   7.839 -0.0880 -0.3263 -0.5548
  902MOL0     C18951   5.694   6.998   7.946  0.3264 -0.2275 -0.2592
  902MOL0     C18952   5.584   6.905   7.936 -0.0773  0.1520  0.0676
  902MOL0     C18953   5.521   6.881   8.075 -0.5592 -0.2892  0.3901
  902MOL0     C18954   5.440   6.998   8.132  0.0923 -0.0679 -0.2851
  902MOL0     C18955   5.317   7.053   8.055  0.8395  0.4785 -0.6343
  902MOL0     O18956   5.213   6.950   8.068  0.4457 -0.2430  0.2449
  902MOL0     C18957   5.084   6.993   8.046 -0.8684  0.4028  0.7223
  902MOL0     C18958   5.053   7.105   7.973  0.0315  0.6164 -0.6885
  902MOL0     C18959   4.925   7.157   7.968 -0.3229  0.0864  0.2189
  902MOL0     C18960   4.824   7.095   8.050 -0.0213 -0.1054  0.7534
  902MOL0     C18961   4.687   7.144   8.039  1.0665 -0.1455 -0.2235
  902MOL0     O18962   4.590   7.083   8.107 -0.7503 -0.0768  0.0316
  902MOL0     C18963   4.465   7.131   8.123  0.4442  0.5203 -0.6043
  902MOL0     C18964   4.374   7.025   8.142 -0.5697 -0.0295 -0.2751
  902MOL0     C18965   4.241   7.060   8.177 -0.5647  0.0396 -0.6537
  902MOL0     C18966   4.201   7.190   8.223  0.7252  0.2213  0.4358
  902MOL0     O18967   4.080   7.227   8.278  0.2831 -0.3066 -0.2888
  902MOL0     C18968   3.971   7.137   8.241 -0.5767 -0.9411  0.3028
  902MOL0     C18969   3.954   7.024   8.339 -0.1264  0.3712 -0.3308
  902MOL0     C18970   3.809   6.981   8.362  0.2486  1.4712  0.3844
  902MOL0     C18971   3.747   6.911   8.231  0.7641 -0.6557  0.1675
  902MOL0     C18972   3.628   6.813   8.256 -0.5419 -0.8330  0.3055
  902MOL0     C18973   3.519   6.857   8.352  1.0181 -0.2751 -0.9472
  902MOL0     C18974   3.426   6.958   8.293 -0.5280  0.3505 -0.2482
  902MOL0     C18975   3.312   7.002   8.391 -0.7065 -0.6100 -0.4208
  902MOL0    Cl18976   3.218   6.870   8.465 -0.0807  0.4501 -0.2162
  902MOL0     C18977   4.302   7.289   8.212 -0.1619  0.2653  0.1000
  902MOL0     C18978   4.436   7.258   8.173 -0.0650 -0.7095  0.3747
  902MOL0     O18979   4.664   7.248   7.977  0.2525 -0.7037 -0.3952
  902MOL0     C18980   4.857   6.973   8.114  0.3098  0.9621  0.1965
  902MOL0     C18981   4.985   6.923   8.112 -0.6936 -0.5486 -0.0000
  902MOL0     N18982   5.778   7.020   8.049 -0.4436  0.1792  0.3739
  902MOL0     N18983   5.862   7.115   8.011 -0.0102 -0.3806 -0.0384
  902MOL0     C18984   6.573   7.240   7.331  0.3162 -0.5521  0.3465
  902MOL0     C18985   6.691   7.175   7.360 -0.8027  0.4908 -0.2754
  902MOL0     C18986   6.987   6.865   7.473 -0.2458  0.5486 -0.1619
  902MOL0     C18987   7.027   6.732   7.488  0.2643 -0.4161 -0.1888
  902MOL0     C18988   7.161   6.699   7.499  0.4903 -0.0635 -0.9591
  902MOL0     C18989   7.262   6.796   7.488 -0.3800  0.9398  0.0660
  902MOL0     O18990   7.396   6.755   7.496 -0.1900 -0.2102  0.4153
  902MOL0     C18991   7.464   6.792   7.621  0.5785 -0.0809 -0.6167
  902MOL0     C18992   7.598   6.734   7.623 -0.2232 -0.8795 -0.2323
  902MOL0     C18993   7.696   6.827   7.546 -0.1926  0.2880 -0.6960
  902MOL0     C18994   7.838   6.786   7.584  0.9545 -0.2569  0.2983
  902MOL0     C18995   7.930   6.849   7.491  0.2368  0.7214  0.8214
  902MOL0     C18996   8.011   6.893   7.414  0.3627  0.1298  0.4609
  902MOL0     C18997   7.228   6.922   7.460 -0.1959 -1.3162  0.7703
  902MOL0     C18998   7.088   6.954   7.462 -0.2143 -0.4564 -0.4557
  902MOL0     H18999   6.589   6.944   7.572  0.9559  1.5643  1.2012
  902MOL0     H19000   6.359   7.048   7.515 -0.8539  1.7472  1.2752
  902MOL0     H19001   6.295   7.089   7.202 -1.5701  0.9798 -1.3552
  902MOL0     H19002   6.352   7.247   7.141  0.8404 -2.6834 -0.8581
  902MOL0     H19003   6.109   7.170   7.098  1.2311  0.0075 -2.5524
  902MOL0     H19004   6.144   7.338   7.122 -0.5497 -0.1740 -0.0760
  902MOL0     H19005   5.966   7.292   7.237  1.0193  0.1037 -1.5891
  902MOL0     H19006   6.077   7.327   7.360 -0.4003  1.7110 -1.3640
  902MOL0     H19007   5.988   7.033   7.274  2.9222 -1.3093 -0.5572
  902MOL0     H19008   6.109   7.067   7.403  0.8856  1.7449 -0.4421
  902MOL0     H19009   5.891   7.006   7.477 -1.3331  0.1897 -2.2773
  902MOL0     H19010   5.818   7.143   7.378  2.9043 -0.0452 -3.8181
  902MOL0     H19011   5.796   7.240   7.602  0.5151 -0.2382 -0.3141
  902MOL0     H19012   5.912   7.308   7.506 -2.7796 -1.2814 -3.5684
  902MOL0     H19013   6.004   7.076   7.677  1.4716  0.2165 -0.5295
  902MOL0     H19014   6.081   7.236   7.659  1.6602 -2.4245  0.8305
  902MOL0     H19015   5.867   7.331   7.779  0.7979  0.9598  2.1774
  902MOL0     H19016   6.002   7.274   7.876  0.6459 -0.7669  0.2647
  902MOL0     H19017   5.680   7.062   7.748 -0.1830 -2.2495 -0.4024
  902MOL0     H19018   5.632   6.811   7.906 -1.0743 -0.6380  0.8660
  902MOL0     H19019   5.507   6.935   7.865 -1.4346  0.3495  1.5731
  902MOL0     H19020   5.602   6.850   8.142 -0.6918 -2.3269 -0.3098
  902MOL0     H19021   5.445   6.803   8.064 -0.2079 -0.3798 -1.5969
  902MOL0     H19022   5.413   6.963   8.232  2.2537  0.6989  0.6136
  902MOL0     H19023   5.503   7.088   8.135  0.3673 -0.2811  0.2687
  902MOL0     H19024   5.332   7.061   7.947 -1.1549  1.7322 -0.8742
  902MOL0     H19025   5.282   7.145   8.102 -2.4340 -0.2582 -1.3560
  902MOL0     H19026   5.129   7.169   7.929 -0.7369  0.9784 -1.5350
  902MOL0     H19027   4.903   7.241   7.904 -1.7562  0.9320  1.7374
  902MOL0     H19028   4.398   6.920   8.123 -3.3045 -0.7815  0.0636
  902MOL0     H19029   4.168   6.980   8.176  0.2826 -1.0902  3.7853
  902MOL0     H19030   3.992   7.096   8.141  1.9695 -0.2377  0.4659
  902MOL0     H19031   3.880   7.197   8.229  1.2307  2.0965  0.7570
  902MOL0     H19032   3.985   7.040   8.443 -0.9045  0.9520 -0.1808
  902MOL0     H19033   4.009   6.936   8.303 -1.4833  0.3962 -2.6342
  902MOL0     H19034   3.753   7.067   8.400 -0.5151  0.2392  2.1777
  902MOL0     H19035   3.801   6.908   8.443 -2.4437  1.2174 -0.0167
  902MOL0     H19036   3.721   6.985   8.155 -0.5157  0.6110  1.7637
  902MOL0     H19037   3.831   6.855   8.187 -1.7471 -2.4873 -2.6853
  902MOL0     H19038   3.682   6.729   8.301  4.6891  1.8077 -0.2649
  902MOL0     H19039   3.588   6.763   8.167 -0.3125 -0.7130  0.1339
  902MOL0     H19040   3.564   6.893   8.445 -0.5032  0.4818 -0.4820
  902MOL0     H19041   3.456   6.771   8.373 -0.9942  1.5222  0.8143
  902MOL0     H19042   3.498   7.041   8.284  2.8843 -2.1563  1.4024
  902MOL0     H19043   3.390   6.936   8.192  0.0486  1.9714 -0.8458
  902MOL0     H19044   3.241   7.059   8.330  1.8090  3.7842  0.3824
  902MOL0     H19045   3.345   7.070   8.470 -0.2164 -1.4999  0.1606
  902MOL0     H19046   4.279   7.394   8.233 -0.7882  0.1386  0.0766
  902MOL0     H19047   4.507   7.339   8.161  0.4576 -0.9557  1.6832
  902MOL0     H19048   4.778   6.912   8.155 -1.9331 -0.0660 -4.8382
  902MOL0     H19049   5.014   6.830   8.160  0.0713 -0.1514  0.3253
  902MOL0     H19050   6.566   7.331   7.273 -2.6987 -0.6864  0.3373
  902MOL0     H19051   6.776   7.225   7.314  0.6162 -1.9176 -0.4464
  902MOL0     H19052   6.952   6.660   7.518 -1.6026  1.2354 -0.6846
  902MOL0     H19053   7.197   6.600   7.526 -1.5421 -1.3876 -2.7927
  902MOL0     H19054   7.406   6.744   7.701  3.5693 -0.2080  1.6308
  902MOL0     H19055   7.467   6.898   7.646 -3.2499  0.3050 -1.1942
  902MOL0     H19056   7.626   6.713   7.727 -2.9967 -1.7370  0.4250
  902MOL0     H19057   7.591   6.636   7.574  3.8729 -1.7637  0.5420
  902MOL0     H19058   7.677   6.933   7.568 -1.7045  0.1172 -1.0408
  902MOL0     H19059   7.682   6.815   7.438 -1.0164  2.0541 -0.8251
  902MOL0     H19060   7.865   6.820   7.685  0.8311 -0.0855  0.2722
  902MOL0     H19061   7.858   6.678   7.578 -0.7269 -0.7427  2.3210
  902MOL0     H19062   8.079   6.916   7.335  0.0752 -0.6864 -0.0357
  902MOL0     H19063   7.305   6.998   7.448 -1.0661 -0.6573 -1.0048
  902MOL0     H19064   7.064   7.060   7.452  0.9478  0.3079  3.3360
  903MOL0     O19065   6.450   0.542   0.222 -0.0546 -0.2772 -0.6531
  903MOL0     C19066   6.531   0.546   0.128 -0.3925 -0.2824 -0.0110
  903MOL0     O19067   6.515   0.474   0.012  0.4058  0.4543  0.7045
  903MOL0     C19068   6.397   0.397  -0.018 -0.8089 -0.5265  1.0660
  903MOL0     C19069   6.409   0.303  -0.123  0.4122 -0.3997  0.6404
  903MOL0     C19070   6.295   0.239  -0.169 -0.4570 -0.1906 -0.0840
  903MOL0     C19071   6.172   0.269  -0.112  0.4765 -0.4933 -0.1958
  903MOL0     O19072   6.068   0.209  -0.166  0.1405  0.1223 -0.3632
  903MOL0     C19073   6.016   0.094  -0.103  0.4762  0.6815  0.1538
  903MOL0     C19074   5.876   0.063  -0.155  0.6509 -0.8558  0.6423
  903MOL0     C19075   5.804  -0.043  -0.068  0.5370  0.1377 -0.0436
  903MOL0     C19076   5.660  -0.068  -0.120  1.1397 -0.0139  0.3519
  903MOL0     C19077   5.580   0.061  -0.106  0.0784  0.2946 -0.2340
  903MOL0     C19078   5.432   0.032  -0.116 -0.0108 -0.3484  0.4548
  903MOL0     C19079   5.342   0.152  -0.083  0.9492  0.4791 -0.2910
  903MOL0     C19080   5.199   0.109  -0.110  0.1977 -0.3992  0.8136
  903MOL0     N19081   5.100   0.206  -0.073  0.3568 -1.1875 -0.3620
  903MOL0     C19082   4.965   0.192  -0.082  0.0970 -0.2428 -0.1899
  903MOL0     C19083   4.905   0.301  -0.022  0.3219  0.5630  0.5650
  903MOL0     C19084   4.753   0.325  -0.020 -0.6434 -0.6303  0.8626
  903MOL0     C19085   4.708   0.352   0.125  0.1996 -0.9096 -0.2925
  903MOL0     C19086   4.690   0.507   0.151  0.0380  0.3733 -0.9816
  903MOL0     C19087   4.541   0.530   0.185  0.4879 -0.1823  0.5256
  903MOL0     O19088   4.465   0.494   0.073  0.1435 -0.0982 -0.2177
  903MOL0     C19089   4.335   0.527   0.072  0.7194  0.2406  0.0639
  903MOL0     C19090   4.269   0.505  -0.048 -0.5187  0.6517  0.5152
  903MOL0     C19091   4.136   0.527  -0.066 -0.3547 -0.3585 -0.1680
  903MOL0     C19092   4.060   0.578   0.039  0.4276 -0.2132  0.0387
  903MOL0     C19093   3.917   0.619   0.008 -0.5633 -0.5744  0.4247
  903MOL0     O19094   3.847   0.662   0.113  0.9976 -0.8303  0.2673
  903MOL0     C19095   3.719   0.707   0.086 -0.1487 -1.0403  0.9368
  903MOL0     C19096   3.711   0.847   0.057 -0.1923  0.0696  0.1985
  903MOL0     C19097   3.580   0.895   0.034  0.4065  0.1099  0.6804
  903MOL0     C19098   3.465   0.809   0.034  0.5196 -0.1745 -1.4672
  903MOL0     O19099   3.340   0.854   0.018  0.2686 -0.2601 -0.8620
  903MOL0     C19100   3.310   0.946   0.125  0.6758 -0.2423 -0.4726
  903MOL0     C19101   3.164   1.003   0.116  0.3133  0.8073 -0.0502
  903MOL0     C19102   3.066   0.886   0.122 -0.1219  0.9186 -0.1283
  903MOL0     C19103   2.921   0.921   0.126  0.4542 -0.5920 -0.0568
  903MOL0     C19104   2.834   0.796   0.131 -0.1184 -0.0166  0.3921
  903MOL0     C19105   2.693   0.831   0.087  0.2843 -0.3016  0.9818
  903MOL0     C19106   2.608   0.711   0.060  0.6588  0.2849 -0.4317
  903MOL0     C19107   2.460   0.762   0.038 -0.7831 -0.0240 -1.0608
  903MOL0    Cl19108   2.364   0.612   0.013  0.3776 -0.1128  0.1178
  903MOL0     C19109   3.485   0.685   0.082  0.4545  0.6777  0.1871
  903MOL0     C19110   3.605   0.628   0.112 -0.0386 -0.7768 -0.0742
  903MOL0     O19111   3.871   0.620  -0.105 -0.4575 -0.7538  0.2248
  903MOL0     C19112   4.118   0.595   0.166  0.0597 -0.1413 -0.1547
  903MOL0     C19113   4.256   0.566   0.179 -0.2559 -0.3438 -0.4406
  903MOL0     N19114   5.010   0.381   0.007  0.4283 -0.2401  0.5838
  903MOL0     N19115   5.125   0.328  -0.020  0.1322 -0.3146  0.9008
  903MOL0     C19116   6.155   0.354  -0.003  0.1121  0.4056  0.4828
  903MOL0     C19117   6.272   0.414   0.051 -0.3960 -0.7534  0.3849
  903MOL0     C19118   6.662   0.610   0.138 -0.3822 -0.0259  0.8694
  903MOL0     C19119   6.735   0.647   0.024  0.3705  0.0047  1.2268
  903MOL0     C19120   6.846   0.730   0.031 -0.7427 -0.1839  0.6519
  903MOL0     C19121   6.891   0.780   0.155  0.5325  0.0277  0.5948
  903MOL0     O19122   6.997   0.871   0.147  0.1184  0.1566  0.3285
  903MOL0     C19123   7.037   0.937   0.270  0.4772 -0.3992 -0.4644
  903MOL0     C19124   7.146   0.858   0.344  0.3065  0.2274 -0.0079
  903MOL0     C19125   7.280   0.901   0.297 -0.0524  0.3020  0.2845
  903MOL0     C19126   7.388   0.843   0.386  0.1516  0.5444 -0.1482
  903MOL0     C19127   7.522   0.885   0.348  0.7660 -1.2911  0.5399
  903MOL0     C19128   7.625   0.938   0.308 -0.0117  0.0742 -0.2545
  903MOL0     C19129   6.830   0.730   0.275  0.1047 -0.2625  0.5489
  903MOL0     C19130   6.716   0.648   0.263 -0.4212  0.4325  0.6027
  903MOL0     H19131   6.506   0.292  -0.171 -0.3621  0.7536 -1.3191
  903MOL0     H19132   6.308   0.164  -0.247  3.7589  0.8074 -0.6315
  903MOL0     H19133   6.010   0.112   0.005  0.8816  0.5962  0.1902
  903MOL0     H19134   6.067   0.002  -0.130  0.8008  0.7524  0.5219
  903MOL0     H19135   5.873   0.040  -0.261 -1.1209 -1.9323  0.8921
  903MOL0     H19136   5.817   0.156  -0.150  2.8301  0.7106 -0.8803
  903MOL0     H19137   5.797  -0.011   0.036 -0.0351  3.2354 -0.9471
  903MOL0     H19138   5.862  -0.134  -0.085  2.4122  1.4338 -0.9560
  903MOL0     H19139   5.651  -0.088  -0.227 -2.2376  0.6841  0.3986
  903MOL0     H19140   5.604  -0.140  -0.059  0.2266  1.3996  1.2284
  903MOL0     H19141   5.616   0.149  -0.159  1.8805  1.4826  2.7010
  903MOL0     H19142   5.578   0.102  -0.004 -0.7275 -2.2666  0.8883
  903MOL0     H19143   5.402  -0.051  -0.051 -3.7085 -0.3810 -1.0791
  903MOL0     H19144   5.412  -0.002  -0.218 -1.8066  1.0143  0.3059
  903MOL0     H19145   5.349   0.175   0.024 -0.0338 -3.3234  0.7465
  903MOL0     H19146   5.349   0.236  -0.153 -1.6478 -0.5265 -1.9230
  903MOL0     H19147   5.175   0.015  -0.060 -2.4601  0.1381  0.7165
  903MOL0     H19148   5.184   0.094  -0.217 -0.6026  2.8468  0.3791
  903MOL0     H19149   4.906   0.105  -0.108 -1.0726 -0.0250  1.5683
  903MOL0     H19150   4.718   0.225  -0.048 -0.1188 -0.4865 -0.3439
  903MOL0     H19151   4.724   0.400  -0.094  2.9023  0.1381  0.0880
  903MOL0     H19152   4.785   0.313   0.193  0.1600 -1.1270 -0.3709
  903MOL0     H19153   4.616   0.298   0.149 -1.1412  1.0626 -0.8569
  903MOL0     H19154   4.742   0.543   0.241 -0.3716 -0.0730 -0.5630
  903MOL0     H19155   4.729   0.573   0.073 -0.9568  3.4239  0.9056
  903MOL0     H19156   4.525   0.633   0.216 -0.3282  0.0234 -0.5155
  903MOL0     H19157   4.512   0.467   0.269 -0.6969 -1.5576 -0.8517
  903MOL0     H19158   4.332   0.485  -0.134 -0.8767  1.4999  0.0398
  903MOL0     H19159   4.101   0.524  -0.169 -0.5254 -0.9425 -0.0976
  903MOL0     H19160   3.790   0.920   0.048 -1.5949  1.5156 -0.8607
  903MOL0     H19161   3.579   0.996  -0.007  1.7458 -0.9110 -2.1543
  903MOL0     H19162   3.382   1.028   0.133 -1.3825  1.5561  0.7599
  903MOL0     H19163   3.321   0.899   0.223 -3.1584 -1.4874 -0.4704
  903MOL0     H19164   3.149   1.062   0.025 -0.3930  0.5984 -0.0750
  903MOL0     H19165   3.154   1.073   0.200  3.1179  2.4729 -0.9718
  903MOL0     H19166   3.083   0.830   0.214 -0.9303  1.3780  0.3046
  903MOL0     H19167   3.082   0.820   0.036  0.1798  1.4746 -0.5088
  903MOL0     H19168   2.908   0.986   0.213  1.5859  1.1632 -1.1279
  903MOL0     H19169   2.902   0.971   0.030 -2.2609 -0.6745  0.3670
  903MOL0     H19170   2.839   0.771   0.237  0.6615  0.7656  0.5476
  903MOL0     H19171   2.877   0.714   0.073  0.3169 -0.3725  1.2057
  903MOL0     H19172   2.690   0.893  -0.003  0.4986 -0.1271  1.0953
  903MOL0     H19173   2.651   0.897   0.164 -0.5017  2.7331 -1.8380
  903MOL0     H19174   2.647   0.664  -0.031 -0.2825 -2.3383  0.4104
  903MOL0     H19175   2.617   0.645   0.147  2.5362  1.0068 -0.0279
  903MOL0     H19176   2.464   0.816  -0.057  0.0160 -0.2863 -1.1842
  903MOL0     H19177   2.428   0.825   0.121  0.9739 -2.1629  1.4029
  903MOL0     H19178   3.393   0.634   0.104  1.5522 -0.0228  3.8448
  903MOL0     H19179   3.621   0.533   0.162 -1.2528 -0.8074  0.2846
  903MOL0     H19180   4.052   0.630   0.245  0.4450  0.9235 -0.2845
  903MOL0     H19181   4.293   0.580   0.280 -1.5165 -1.0768  0.1456
  903MOL0     H19182   6.058   0.391   0.030  0.2415  0.1496  1.1852
  903MOL0     H19183   6.247   0.489   0.125  0.4427  0.8727 -0.9122
  903MOL0     H19184   6.704   0.619  -0.076 -3.5812  3.8913  1.0499
  903MOL0     H19185   6.899   0.748  -0.062  0.3658 -3.3643  0.5255
  903MOL0     H19186   6.963   0.969   0.344  2.2372  0.5762  0.9792
  903MOL0     H19187   7.083   1.032   0.239 -0.0434 -0.9072 -3.0411
  903MOL0     H19188   7.141   0.877   0.452 -0.6940  0.2084 -0.0330
  903MOL0     H19189   7.140   0.749   0.332  2.4511 -0.1082  1.3740
  903MOL0     H19190   7.289   1.010   0.299 -0.1062  0.3763 -1.8650
  903MOL0     H19191   7.286   0.859   0.197  2.2855  0.6810  0.2087
  903MOL0     H19192   7.374   0.872   0.490  0.5006 -2.1860  0.7248
  903MOL0     H19193   7.387   0.734   0.388 -0.5698  0.5615  1.2415
  903MOL0     H19194   7.717   0.961   0.258  0.5444 -1.8405 -0.2035
  903MOL0     H19195   6.866   0.756   0.374 -3.4725  0.4244  1.7932
  903MOL0     H19196   6.660   0.626   0.353  0.2762 -2.3759  0.4266
  904MOL0     O19197   2.666   6.038   4.755  0.8178  0.1127  0.4457
  904MOL0     C19198   2.660   5.920   4.800  0.1478 -0.3023 -0.3844
  904MOL0     O19199   2.547   5.851   4.834  0.0082 -0.0166  0.4418
  904MOL0     C19200   2.432   5.929   4.843  0.8872  0.2734 -0.3063
  904MOL0     C19201   2.378   5.995   4.731 -0.3375 -0.0423 -0.7109
  904MOL0     C19202   2.249   6.051   4.737  0.3282 -0.0953  0.6840
  904MOL0     C19203   2.177   6.052   4.862  0.2314 -0.0775 -0.0966
  904MOL0     O19204   2.053   6.097   4.859 -0.6097 -0.9410  0.3683
  904MOL0     C19205   1.962   6.071   4.963  0.3855  0.0335 -0.5328
  904MOL0     C19206   1.823   6.139   4.936 -0.5966  0.0915  0.2813
  904MOL0     C19207   1.837   6.287   4.960  0.4771 -0.6590  0.7902
  904MOL0     C19208   1.712   6.363   4.909  0.0790 -0.3379  0.0683
  904MOL0     C19209   1.729   6.514   4.928 -0.8203 -0.8548  0.1670
  904MOL0     C19210   1.647   6.603   4.839  0.2407  0.2703  0.0780
  904MOL0     C19211   1.492   6.594   4.863 -0.0133  0.0141 -0.4060
  904MOL0     C19212   1.410   6.692   4.779  0.8449  0.1145  0.8546
  904MOL0     N19213   1.260   6.669   4.798  0.3645  0.2778 -0.2920
  904MOL0     C19214   1.163   6.696   4.703 -0.3346  0.0162 -0.9388
  904MOL0     C19215   1.047   6.673   4.762 -0.2134  0.1213  0.1370
  904MOL0     C19216   0.905   6.694   4.712 -0.1235 -0.0735  0.3504
  904MOL0     C19217   0.843   6.555   4.713  0.9114 -0.1458 -0.5953
  904MOL0     C19218   0.698   6.568   4.660 -0.4582  0.5847  0.3288
  904MOL0     C19219   0.626   6.438   4.652 -0.6193  0.9126 -0.5018
  904MOL0     O19220   0.625   6.381   4.787  0.4205 -0.0808  0.0276
  904MOL0     C19221   0.536   6.418   4.881 -0.1095 -0.1411  1.2435
  904MOL0     C19222   0.545   6.345   5.003 -0.0589  0.0135  0.1060
  904MOL0     C19223   0.446   6.356   5.099  0.0054 -0.4421 -0.3870
  904MOL0     C19224   0.330   6.434   5.076 -0.5252  0.3078  1.1557
  904MOL0     C19225   0.237   6.440   5.182 -0.1516  0.3738  0.6308
  904MOL0     O19226   0.128   6.510   5.165 -0.0355  0.4189  0.8032
  904MOL0     C19227   0.026   6.495   5.250  0.6993 -0.0471 -0.0526
  904MOL0     C19228  -0.015   6.599   5.333  0.2584  0.6828 -0.1455
  904MOL0     C19229  -0.120   6.581   5.430  0.4766  0.9518 -0.0755
  904MOL0     C19230  -0.177   6.453   5.446  0.1636  1.2402  0.2220
  904MOL0     O19231  -0.287   6.428   5.530  0.1681 -0.0092 -0.3674
  904MOL0     C19232  -0.412   6.431   5.466 -0.0162 -0.0190 -0.1361
  904MOL0     C19233  -0.531   6.426   5.567  0.1934 -0.0675  0.9947
  904MOL0     C19234  -0.667   6.408   5.502  0.8685 -0.0912  0.2182
  904MOL0     C19235  -0.718   6.537   5.428  0.2891  0.2123  0.1991
  904MOL0     C19236  -0.844   6.512   5.342 -0.6468 -0.0270 -0.1547
  904MOL0     C19237  -0.942   6.632   5.320 -0.1285 -0.9605  0.5687
  904MOL0     C19238  -1.010   6.674   5.451 -0.2762  0.1453 -0.1580
  904MOL0     C19239  -1.114   6.781   5.442  0.0845 -0.0827  0.2016
  904MOL0    Cl19240  -1.266   6.714   5.366  0.0871 -0.2910 -0.1081
  904MOL0     C19241  -0.137   6.351   5.349  0.3415  0.0123  1.0015
  904MOL0     C19242  -0.048   6.377   5.247 -0.0622 -0.3684  0.8284
  904MOL0     O19243   0.265   6.367   5.282 -0.0731  0.5178  0.2893
  904MOL0     C19244   0.316   6.499   4.950 -0.5144 -0.2961 -1.4562
  904MOL0     C19245   0.417   6.489   4.850  0.2993  0.6585 -1.1221
  904MOL0     N19246   1.071   6.635   4.894 -0.0086  0.0185  0.4816
  904MOL0     N19247   1.196   6.621   4.908 -0.3365 -0.1522 -0.0266
  904MOL0     C19248   2.235   5.989   4.973 -0.3839  0.0435  0.3940
  904MOL0     C19249   2.358   5.926   4.964  0.7342 -0.4371 -0.4960
  904MOL0     C19250   2.791   5.853   4.825  0.2703  0.0009  0.2463
  904MOL0     C19251   2.914   5.894   4.763  0.8387 -0.0650 -1.0119
  904MOL0     C19252   3.033   5.814   4.780 -0.0440  0.0975  0.2100
  904MOL0     C19253   3.027   5.700   4.861 -0.7144  0.6149 -0.1315
  904MOL0     O19254   3.138   5.624   4.890  0.8664  0.3427 -0.1116
  904MOL0     C19255   3.265   5.690   4.893 -0.8595  0.1397  0.6414
  904MOL0     C19256   3.374   5.589   4.932  0.2021  0.5340 -0.6698
  904MOL0     C19257   3.508   5.659   4.932  0.5388 -0.4885  0.2733
  904MOL0     C19258   3.642   5.584   4.950 -0.6422  0.4048  0.3401
  904MOL0     C19259   3.632   5.492   5.065  0.7707 -0.1710  1.0999
  904MOL0     C19260   3.631   5.417   5.157  0.2490 -0.6075 -0.1554
  904MOL0     C19261   2.909   5.657   4.918  0.7346 -0.0443  0.2689
  904MOL0     C19262   2.791   5.733   4.906 -1.0431  0.1780  0.7190
  904MOL0     H19263   2.440   5.988   4.642  1.0976  0.2136  0.2287
  904MOL0     H19264   2.201   6.077   4.643  0.8779  0.7592  0.6306
  904MOL0     H19265   2.006   6.120   5.051 -1.0248  0.9395 -0.2924
  904MOL0     H19266   1.935   5.968   4.986 -1.1096  0.7650  1.2693
  904MOL0     H19267   1.748   6.105   5.008 -0.5389  0.4859  0.5308
  904MOL0     H19268   1.787   6.106   4.838  1.7855 -2.3941  0.1218
  904MOL0     H19269   1.925   6.315   4.901 -1.5924 -0.2845 -2.3995
  904MOL0     H19270   1.850   6.329   5.060  0.2494  2.3296 -0.3281
  904MOL0     H19271   1.691   6.339   4.805  1.4996  2.0743 -0.8622
  904MOL0     H19272   1.628   6.321   4.965 -1.6047  1.4368 -1.0309
  904MOL0     H19273   1.831   6.552   4.915 -0.8327  0.2503  2.7330
  904MOL0     H19274   1.706   6.541   5.031  3.1421 -0.1786  1.0454
  904MOL0     H19275   1.677   6.584   4.736 -1.6047 -1.9058 -0.1431
  904MOL0     H19276   1.675   6.707   4.858  1.2125  0.2329 -1.0500
  904MOL0     H19277   1.459   6.494   4.833 -1.2787  0.1239  0.5481
  904MOL0     H19278   1.463   6.597   4.969  2.9424 -5.8971  1.0207
  904MOL0     H19279   1.425   6.697   4.671 -3.7242  1.5957  0.0570
  904MOL0     H19280   1.445   6.787   4.821 -1.0643  0.1105  2.6463
  904MOL0     H19281   1.180   6.745   4.607  0.7513 -0.8597 -1.2165
  904MOL0     H19282   0.906   6.744   4.615 -1.7540  2.5451  1.5814
  904MOL0     H19283   0.839   6.754   4.775 -0.0100  1.2176 -0.7178
  904MOL0     H19284   0.834   6.518   4.816 -0.1991 -1.4356 -1.1199
  904MOL0     H19285   0.899   6.493   4.643  0.6065  0.2549 -1.2030
  904MOL0     H19286   0.650   6.645   4.721 -0.3045  2.0034 -1.2726
  904MOL0     H19287   0.696   6.611   4.559  0.9720  1.6910  0.7435
  904MOL0     H19288   0.676   6.369   4.584  0.9719  3.1359 -1.6913
  904MOL0     H19289   0.525   6.451   4.610 -0.5848  0.7173 -0.6458
  904MOL0     H19290   0.634   6.286   5.023  3.0299  3.4311 -2.3215
  904MOL0     H19291   0.462   6.296   5.189  1.3741  0.3705 -0.0669
  904MOL0     H19292   0.034   6.696   5.329  1.3519  0.1256 -0.8000
  904MOL0     H19293  -0.155   6.652   5.504 -0.8935 -0.0509  0.2654
  904MOL0     H19294  -0.416   6.341   5.405  1.9294 -0.9549  1.0310
  904MOL0     H19295  -0.413   6.515   5.397  1.8712 -0.0552 -0.2384
  904MOL0     H19296  -0.533   6.511   5.635 -3.6708 -0.9557  2.2377
  904MOL0     H19297  -0.503   6.339   5.628  2.5747  1.4301  2.1791
  904MOL0     H19298  -0.736   6.394   5.586  0.9168 -3.2188 -0.1494
  904MOL0     H19299  -0.670   6.319   5.439 -1.1598  0.0013  0.1122
  904MOL0     H19300  -0.742   6.616   5.500  0.4361  0.4056  0.0396
  904MOL0     H19301  -0.637   6.579   5.368 -0.5948  0.9628 -0.5043
  904MOL0     H19302  -0.912   6.436   5.380 -0.9912 -0.3194 -1.3132
  904MOL0     H19303  -0.808   6.469   5.249  3.3890 -1.8781  2.0053
  904MOL0     H19304  -1.019   6.613   5.245 -0.1481  2.0337 -0.2934
  904MOL0     H19305  -0.888   6.718   5.279 -3.8379  1.6138  0.5980
  904MOL0     H19306  -1.055   6.589   5.502 -2.3086  0.3095 -1.5835
  904MOL0     H19307  -0.931   6.716   5.514  0.7103  0.6202 -1.6350
  904MOL0     H19308  -1.076   6.858   5.374 -1.2855 -1.0212 -1.7195
  904MOL0     H19309  -1.127   6.822   5.542  1.2825  1.3999 -0.2165
  904MOL0     H19310  -0.191   6.259   5.369  0.8076 -0.1374  1.5902
  904MOL0     H19311  -0.017   6.299   5.178  0.9624  0.7109  0.0375
  904MOL0     H19312   0.222   6.550   4.932 -1.1476 -0.0196  1.9509
  904MOL0     H19313   0.398   6.524   4.749 -0.0264 -5.0906 -3.4387
  904MOL0     H19314   2.187   5.977   5.070  0.7921  0.9328  1.1058
  904MOL0     H19315   2.390   5.886   5.059 -1.4846  4.7304  2.9153
  904MOL0     H19316   2.901   5.976   4.693 -1.2209 -1.4375 -2.3483
  904MOL0     H19317   3.121   5.845   4.725 -0.4761 -0.8877 -1.1080
  904MOL0     H19318   3.267   5.772   4.966 -2.5909  0.7474  0.0619
  904MOL0     H19319   3.297   5.729   4.796  1.9676 -1.2107  0.9374
  904MOL0     H19320   3.354   5.542   5.029 -1.1861  1.6640 -0.3882
  904MOL0     H19321   3.362   5.507   4.861 -0.7287 -0.9504  1.1089
  904MOL0     H19322   3.508   5.738   5.008 -1.4028 -0.5437  0.3740
  904MOL0     H19323   3.506   5.717   4.839 -1.5803 -0.4358  0.3085
  904MOL0     H19324   3.670   5.524   4.863 -1.9362  1.5265 -0.9307
  904MOL0     H19325   3.726   5.653   4.960  0.5180 -0.7332 -1.0741
  904MOL0     H19326   3.639   5.344   5.235  1.9435 -2.4639 -1.9328
  904MOL0     H19327   2.923   5.570   4.981  0.1330 -1.9778 -2.1160
  904MOL0     H19328   2.704   5.706   4.965  0.5650 -1.3263  2.5651
  905MOL0     O19329   5.557  10.734   8.842  0.8579 -0.0772 -0.0882
  905MOL0     C19330   5.575  10.848   8.801  0.8066 -0.0989 -0.3779
  905MOL0     O19331   5.481  10.947   8.775  0.5239  0.1532  0.0264
  905MOL0     C19332   5.349  10.929   8.793  0.3132  0.3495  0.3771
  905MOL0     C19333   5.274  10.840   8.713  0.3646 -0.8393 -0.2189
  905MOL0     C19334   5.134  10.826   8.724  0.0568  0.4081  0.4498
  905MOL0     C19335   5.062  10.897   8.818 -0.3394 -0.8302  0.3477
  905MOL0     O19336   4.926  10.870   8.817  0.1164  0.2324  0.3063
  905MOL0     C19337   4.853  10.929   8.921  0.0622 -0.1721 -0.4882
  905MOL0     C19338   4.708  10.874   8.916 -0.2446  0.1970 -0.2022
  905MOL0     C19339   4.616  10.901   9.036 -0.3034  0.4366 -0.0975
  905MOL0     C19340   4.476  10.852   9.005 -0.7234  0.4449  0.6173
  905MOL0     C19341   4.379  10.872   9.119  0.0278 -0.2901  0.9284
  905MOL0     C19342   4.394  10.807   9.251 -0.3559 -0.0610 -0.2121
  905MOL0     C19343   4.285  10.844   9.357 -0.5114 -0.1014 -0.1075
  905MOL0     C19344   4.332  10.843   9.499 -0.9505  0.3764 -0.0022
  905MOL0     N19345   4.221  10.846   9.602 -0.5187 -0.3938 -0.3274
  905MOL0     C19346   4.172  10.962   9.657  0.3235  0.5810 -0.2319
  905MOL0     C19347   4.075  10.919   9.748  0.3735 -0.2673 -0.3169
  905MOL0     C19348   3.989  11.008   9.843 -0.4983  0.0086  0.3964
  905MOL0     C19349   3.958  10.962   9.989  0.0432 -0.2372  0.0456
  905MOL0     C19350   3.848  11.047  10.049 -0.0429 -0.2764  0.0892
  905MOL0     C19351   3.832  11.005  10.196 -0.3885 -0.4537 -0.2332
  905MOL0     O19352   3.756  11.103  10.270 -0.4234  0.0123 -0.4190
  905MOL0     C19353   3.624  11.106  10.240 -1.0063  0.2792 -0.5293
  905MOL0     C19354   3.543  10.992  10.207 -0.6397 -0.7604  1.1122
  905MOL0     C19355   3.410  11.013  10.171  0.6829 -0.0532 -1.0255
  905MOL0     C19356   3.359  11.140  10.148  0.1261  0.8748 -0.8174
  905MOL0     C19357   3.229  11.164  10.075 -0.0671 -1.1204  0.0821
  905MOL0     O19358   3.173  11.292  10.086  0.6201  0.1986 -0.8475
  905MOL0     C19359   3.066  11.315  10.007  0.3409 -1.0200 -0.5086
  905MOL0     C19360   2.945  11.375  10.048 -0.2878 -0.9463  0.0523
  905MOL0     C19361   2.846  11.413   9.955  0.0449  0.3777  0.1505
  905MOL0     C19362   2.867  11.390   9.811  0.5162 -0.0311 -0.2808
  905MOL0     O19363   2.778  11.432   9.709 -0.5107  0.5683 -0.2616
  905MOL0     C19364   2.681  11.530   9.745 -0.2572  0.5776 -0.5079
  905MOL0     C19365   2.616  11.571   9.619 -0.2125 -0.3128 -1.1639
  905MOL0     C19366   2.505  11.673   9.654 -0.2779  0.6148  1.0954
  905MOL0     C19367   2.433  11.735   9.534 -0.1035  0.0073  0.3729
  905MOL0     C19368   2.344  11.845   9.583  0.6388 -0.2093  0.0969
  905MOL0     C19369   2.206  11.794   9.635 -0.4386 -0.4164  0.3870
  905MOL0     C19370   2.123  11.742   9.518  0.1998 -0.5558 -0.2153
  905MOL0     C19371   2.004  11.671   9.574  0.2423 -0.5220 -0.0552
  905MOL0    Cl19372   1.912  11.595   9.444 -0.0039 -0.3378  0.5014
  905MOL0     C19373   2.972  11.319   9.773  0.9804  0.9306  0.0385
  905MOL0     C19374   3.070  11.280   9.867 -0.1575 -0.6513 -0.8339
  905MOL0     O19375   3.175  11.069  10.020 -0.0932 -0.8079  0.6471
  905MOL0     C19376   3.441  11.243  10.201  0.0920 -0.0651  0.4795
  905MOL0     C19377   3.567  11.228  10.255 -0.2230 -0.2524  0.3594
  905MOL0     N19378   4.067  10.780   9.744 -0.5410 -0.5195  1.2274
  905MOL0     N19379   4.161  10.740   9.663 -0.3904  0.1864 -0.1061
  905MOL0     C19380   5.137  11.000   8.891 -0.4017  0.0061  0.6185
  905MOL0     C19381   5.274  11.006   8.890 -0.5813 -0.1800 -0.5444
  905MOL0     C19382   5.717  10.889   8.785 -0.1647  0.5132  0.5486
  905MOL0     C19383   5.825  10.825   8.845  0.3059 -0.8864 -0.0561
  905MOL0     C19384   5.958  10.866   8.824  0.4152 -0.5693 -0.1563
  905MOL0     C19385   5.983  10.980   8.740  0.3755  0.7654 -0.5466
  905MOL0     O19386   6.103  11.045   8.719  0.6782  0.1691 -0.2000
  905MOL0     C19387   6.205  11.004   8.818  0.5504 -0.5005 -0.0307
  905MOL0     C19388   6.344  11.045   8.754  0.2773  0.5648  0.3840
  905MOL0     C19389   6.460  11.062   8.853  0.4389  0.5684 -0.2620
  905MOL0     C19390   6.572  11.127   8.771  0.4065  0.3485  0.3026
  905MOL0     C19391   6.698  11.132   8.854 -0.3902  0.7502  1.0086
  905MOL0     C19392   6.801  11.139   8.912 -0.3597  0.5042 -1.0331
  905MOL0     C19393   5.879  11.040   8.671  0.9715  0.2210 -0.5191
  905MOL0     C19394   5.744  10.993   8.699  0.1543 -0.0081 -0.3676
  905MOL0     H19395   5.325  10.783   8.636  0.3534 -1.4798  0.2425
  905MOL0     H19396   5.083  10.749   8.667  1.4693  0.6540 -1.2120
  905MOL0     H19397   4.847  11.038   8.921 -0.6123 -0.2040  0.5357
  905MOL0     H19398   4.901  10.899   9.014 -0.8014  0.9483  0.3413
  905MOL0     H19399   4.711  10.766   8.897 -2.3657  0.2713 -1.3164
  905MOL0     H19400   4.659  10.913   8.826 -2.1972  0.1997  0.8009
  905MOL0     H19401   4.628  11.006   9.064  0.6413  0.0155  1.1566
  905MOL0     H19402   4.647  10.835   9.117  1.3392 -1.3549 -2.0582
  905MOL0     H19403   4.440  10.907   8.918  2.1200  1.4357 -0.0610
  905MOL0     H19404   4.488  10.746   8.979  1.9006  0.9500 -0.5699
  905MOL0     H19405   4.282  10.852   9.072  1.0205  2.6569 -2.8144
  905MOL0     H19406   4.384  10.979   9.139  1.2253 -0.6244  2.6404
  905MOL0     H19407   4.495  10.822   9.291 -1.1840  0.8893  1.6481
  905MOL0     H19408   4.382  10.699   9.242  0.9870 -0.3218  0.7481
  905MOL0     H19409   4.241  10.944   9.345 -0.4145 -0.1962 -1.4921
  905MOL0     H19410   4.203  10.772   9.355 -0.0842 -0.5971 -1.7462
  905MOL0     H19411   4.384  10.936   9.525  0.0444 -0.1772  0.0559
  905MOL0     H19412   4.408  10.765   9.507 -0.5017  0.8587  0.5334
  905MOL0     H19413   4.194  11.067   9.641  1.0305  0.9591  2.6815
  905MOL0     H19414   3.890  11.025   9.800 -1.5385  4.1025  3.7023
  905MOL0     H19415   4.029  11.109   9.830  0.2698 -0.4931 -1.3463
  905MOL0     H19416   4.047  10.960  10.053  2.5184 -0.2404 -3.1368
  905MOL0     H19417   3.916  10.862   9.975 -1.8823  0.5383 -0.0502
  905MOL0     H19418   3.874  11.153  10.054  2.7738 -0.9052  0.5483
  905MOL0     H19419   3.752  11.032   9.997 -0.1883 -2.4073  0.8667
  905MOL0     H19420   3.923  10.974  10.248 -0.6217 -0.3750  0.2215
  905MOL0     H19421   3.781  10.909  10.205  1.7398 -1.4559  3.0533
  905MOL0     H19422   3.571  10.887  10.196 -1.0626 -0.6877 -1.3129
  905MOL0     H19423   3.350  10.928  10.139  3.2513 -2.2291 -0.4654
  905MOL0     H19424   2.928  11.418  10.147  0.4080  0.9979 -0.6231
  905MOL0     H19425   2.761  11.474   9.986 -1.5407 -1.2277 -0.8158
  905MOL0     H19426   2.727  11.614   9.798 -1.3385  0.1177  1.2486
  905MOL0     H19427   2.608  11.481   9.810 -0.9159 -0.5155 -2.0086
  905MOL0     H19428   2.578  11.492   9.555  0.0388 -1.9785  0.6483
  905MOL0     H19429   2.687  11.635   9.565  1.2909 -1.9832 -1.2568
  905MOL0     H19430   2.533  11.752   9.723 -0.2651  2.3438 -0.7981
  905MOL0     H19431   2.426  11.617   9.706 -0.2246 -2.4352 -1.7892
  905MOL0     H19432   2.509  11.777   9.468  0.9293 -3.0829 -0.5477
  905MOL0     H19433   2.378  11.654   9.485  0.8354 -1.0644  1.0416
  905MOL0     H19434   2.315  11.923   9.512 -1.7433 -0.7574  0.3939
  905MOL0     H19435   2.404  11.899   9.658  2.8979  1.1483 -2.5080
  905MOL0     H19436   2.163  11.887   9.674 -1.9869 -1.4725  1.3302
  905MOL0     H19437   2.231  11.717   9.709  0.4775  0.7897  1.3725
  905MOL0     H19438   2.077  11.824   9.462 -0.5951 -0.2181  0.8778
  905MOL0     H19439   2.177  11.672   9.454  1.4138 -0.2577  0.4531
  905MOL0     H19440   1.946  11.746   9.629  1.3466  0.5611 -0.3177
  905MOL0     H19441   2.037  11.592   9.642  0.8114  0.7908  1.2310
  905MOL0     H19442   2.988  11.300   9.667  0.5198  0.6244  0.0175
  905MOL0     H19443   3.163  11.254   9.817  0.0094  0.7959 -1.3204
  905MOL0     H19444   3.409  11.344  10.179  1.7829  1.1523  3.2040
  905MOL0     H19445   3.631  11.309  10.287  4.1842 -2.3247 -2.2773
  905MOL0     H19446   5.091  11.060   8.968 -1.1176  0.3461 -0.0588
  905MOL0     H19447   5.322  11.083   8.949  0.4286 -0.1667 -1.3431
  905MOL0     H19448   5.802  10.731   8.894  2.7819 -1.6732 -0.2259
  905MOL0     H19449   6.039  10.804   8.862  0.4423 -1.3430 -1.4190
  905MOL0     H19450   6.216  10.895   8.816  0.6770 -0.5151  0.8655
  905MOL0     H19451   6.173  11.043   8.915 -4.0921 -4.0666  0.2656
  905MOL0     H19452   6.368  10.976   8.672 -0.7494  2.1524 -1.3438
  905MOL0     H19453   6.328  11.136   8.695 -1.0888 -0.3829 -0.8016
  905MOL0     H19454   6.498  10.976   8.909  3.3550  3.0475  1.9272
  905MOL0     H19455   6.433  11.120   8.942 -1.2210 -1.8652  0.9462
  905MOL0     H19456   6.590  11.076   8.676 -2.0721  0.4595 -0.2931
  905MOL0     H19457   6.538  11.229   8.751  0.8731  0.3228 -0.7028
  905MOL0     H19458   6.879  11.149   8.985 -0.5207  1.2329 -0.9516
  905MOL0     H19459   5.905  11.130   8.616  0.9601 -0.7625 -2.2086
  905MOL0     H19460   5.665  11.039   8.642  0.1900  0.6928  0.1372
  906MOL0     O19461   6.801   7.286  11.063 -0.1272  0.0605 -0.3530
  906MOL0     C19462   6.837   7.174  11.054 -0.3877  0.1460  0.4620
  906MOL0     O19463   6.759   7.061  11.019 -0.6826 -0.1412 -0.1005
  906MOL0     C19464   6.633   7.094  10.972  0.2363  1.2741  0.6450
  906MOL0     C19465   6.526   7.052  11.046  0.4150 -0.2957  0.5577
  906MOL0     C19466   6.391   7.069  11.013 -0.7019  1.0299 -0.0321
  906MOL0     C19467   6.369   7.119  10.888 -0.0877 -1.0726  0.0061
  906MOL0     O19468   6.245   7.144  10.834 -0.1245  0.1752  0.5781
  906MOL0     C19469   6.139   7.164  10.926  0.4585 -0.3489 -0.2738
  906MOL0     C19470   6.039   7.247  10.857 -0.2827 -0.4769 -0.1602
  906MOL0     C19471   6.101   7.386  10.832  0.9057 -0.2838 -0.1861
  906MOL0     C19472   5.993   7.480  10.785 -1.3320  0.5455  0.1763
  906MOL0     C19473   6.030   7.625  10.779  0.2087 -0.0506 -0.0967
  906MOL0     C19474   5.916   7.715  10.710  0.8274 -0.6320  0.3294
  906MOL0     C19475   5.963   7.862  10.706 -0.1677  0.4671  0.2863
  906MOL0     C19476   5.871   7.948  10.614 -0.0755 -0.2082  0.0308
  906MOL0     N19477   5.736   7.939  10.651  0.2929  0.1653 -0.6760
  906MOL0     C19478   5.687   7.973  10.778 -0.2625  0.0621 -0.1031
  906MOL0     C19479   5.552   7.958  10.763  0.0078 -0.0306  0.5826
  906MOL0     C19480   5.442   7.992  10.860  0.1244  0.2929 -0.5995
  906MOL0     C19481   5.342   8.090  10.802 -0.3763  0.1228  0.2503
  906MOL0     C19482   5.353   8.233  10.855  0.0418  0.5534 -0.1175
  906MOL0     C19483   5.488   8.297  10.838  1.0458  0.5437  0.3911
  906MOL0     O19484   5.528   8.294  10.706 -0.4578  0.8156  0.1701
  906MOL0     C19485   5.655   8.302  10.665  0.0142 -0.1284  0.0585
  906MOL0     C19486   5.759   8.357  10.739  0.7758  0.5694  0.5768
  906MOL0     C19487   5.891   8.346  10.693  0.7393 -0.8349 -0.4681
  906MOL0     C19488   5.915   8.304  10.567 -0.3149 -0.1091 -0.1117
  906MOL0     C19489   6.053   8.304  10.517  0.2522 -0.2695  0.7343
  906MOL0     O19490   6.080   8.298  10.378 -0.0149 -0.4821  0.1441
  906MOL0     C19491   6.216   8.282  10.353  0.3895  0.5277 -0.2945
  906MOL0     C19492   6.278   8.149  10.339  1.0369  0.5016  1.1816
  906MOL0     C19493   6.416   8.140  10.308  0.1490  0.6380  0.8376
  906MOL0     C19494   6.494   8.254  10.294 -1.0861  0.0708  0.2788
  906MOL0     O19495   6.632   8.254  10.270  0.1009  0.2005  0.6373
  906MOL0     C19496   6.688   8.133  10.206  0.6802 -0.1851  0.0213
  906MOL0     C19497   6.834   8.153  10.175 -0.0733  0.5605 -0.4163
  906MOL0     C19498   6.852   8.228  10.048  0.4256 -0.7879 -0.2618
  906MOL0     C19499   6.989   8.287  10.012  0.1367  0.4923  0.0696
  906MOL0     C19500   7.115   8.196  10.021  0.6780  0.0590 -0.0547
  906MOL0     C19501   7.242   8.280  10.021  0.2969  0.1255 -1.0291
  906MOL0     C19502   7.371   8.202  10.048  0.4190 -0.2278 -0.3054
  906MOL0     C19503   7.467   8.281  10.128  1.0781  0.3048 -0.4965
  906MOL0    Cl19504   7.417   8.311  10.297 -0.1406 -0.1389  0.2991
  906MOL0     C19505   6.435   8.375  10.321 -0.1510 -0.4946  0.6434
  906MOL0     C19506   6.297   8.390  10.353  0.4124 -0.4258  0.0636
  906MOL0     O19507   6.138   8.311  10.610 -0.3770 -0.5660 -0.1621
  906MOL0     C19508   5.807   8.261  10.491 -0.7695 -0.4420 -0.2209
  906MOL0     C19509   5.680   8.253  10.540 -0.1406 -0.5482 -0.0853
  906MOL0     N19510   5.523   7.895  10.644  0.1095  0.0381 -0.2469
  906MOL0     N19511   5.628   7.899  10.576 -0.5469  0.7574 -0.5768
  906MOL0     C19512   6.481   7.157  10.798  0.4930 -0.8503 -0.6746
  906MOL0     C19513   6.609   7.146  10.843  0.2569 -0.2030  0.5866
  906MOL0     C19514   6.975   7.141  11.098 -0.6912  0.3087  0.6439
  906MOL0     C19515   7.073   7.247  11.123  0.0488  0.2011  0.0168
  906MOL0     C19516   7.210   7.218  11.155 -0.5670  0.3065  0.1842
  906MOL0     C19517   7.263   7.090  11.163 -0.8810 -0.8552  0.5180
  906MOL0     O19518   7.398   7.054  11.197  0.1651  0.3903  0.0851
  906MOL0     C19519   7.471   7.153  11.283  0.5224 -0.0264  0.1573
  906MOL0     C19520   7.623   7.135  11.272  0.0722  0.3821 -0.2057
  906MOL0     C19521   7.664   6.986  11.297 -0.0563 -0.2803 -0.1325
  906MOL0     C19522   7.816   6.957  11.298 -0.5882  0.2222 -0.0128
  906MOL0     C19523   7.843   6.810  11.320  0.2747 -0.2247 -0.4278
  906MOL0     C19524   7.857   6.697  11.344 -0.5152  0.7704  0.2227
  906MOL0     C19525   7.175   6.989  11.120  0.0905  0.3805 -0.0796
  906MOL0     C19526   7.041   7.013  11.095 -0.5853  0.5606 -0.4237
  906MOL0     H19527   6.563   7.012  11.140  2.4208  0.5109  0.1579
  906MOL0     H19528   6.306   7.033  11.070 -1.5094  0.7724 -1.3409
  906MOL0     H19529   6.186   7.206  11.016  0.7611  0.0945 -0.6340
  906MOL0     H19530   6.094   7.066  10.946 -1.5082  0.5967  0.2120
  906MOL0     H19531   5.950   7.253  10.920  0.6969 -0.0720  1.2143
  906MOL0     H19532   6.015   7.207  10.758  0.9811 -0.5969 -0.4364
  906MOL0     H19533   6.183   7.379  10.760  0.3805  0.9327 -0.9572
  906MOL0     H19534   6.141   7.425  10.925 -0.2527 -0.2367  0.3060
  906MOL0     H19535   5.980   7.446  10.682  1.4494 -1.6501  0.4252
  906MOL0     H19536   5.909   7.473  10.855 -0.2611 -3.1916  1.3364
  906MOL0     H19537   6.122   7.628  10.721 -0.1250  0.5749 -0.6119
  906MOL0     H19538   6.041   7.669  10.879  1.6311  2.9182 -1.4504
  906MOL0     H19539   5.829   7.701  10.775  0.3074 -0.6797 -0.3557
  906MOL0     H19540   5.893   7.689  10.606 -1.2229  1.6721  0.0985
  906MOL0     H19541   5.967   7.899  10.809  2.5112 -1.7936  1.1477
  906MOL0     H19542   6.065   7.879  10.671 -0.2584  2.3964  0.8486
  906MOL0     H19543   5.879   7.916  10.509  0.8089 -0.0179  0.0389
  906MOL0     H19544   5.913   8.048  10.613 -0.0146 -0.1855 -2.6412
  906MOL0     H19545   5.736   8.024  10.860 -0.7502 -1.5153  1.2130
  906MOL0     H19546   5.487   8.019  10.956 -0.3879  2.4086 -0.9186
  906MOL0     H19547   5.386   7.901  10.885  1.3828 -0.6750 -1.2020
  906MOL0     H19548   5.236   8.075  10.825  0.1133 -1.6706  1.6486
  906MOL0     H19549   5.358   8.089  10.694  0.8447 -0.4661  0.4197
  906MOL0     H19550   5.289   8.294  10.790  1.1795 -0.0665 -1.9016
  906MOL0     H19551   5.310   8.242  10.955  2.0893 -2.6995  1.2141
  906MOL0     H19552   5.557   8.244  10.905 -2.5698 -1.1199  3.1535
  906MOL0     H19553   5.483   8.400  10.875 -0.5119  1.1963 -1.5086
  906MOL0     H19554   5.736   8.383  10.842 -0.4403 -1.3270  0.8288
  906MOL0     H19555   5.968   8.388  10.758  1.3681 -2.1118 -0.3534
  906MOL0     H19556   6.223   8.056  10.352  1.1828  0.2631  0.1986
  906MOL0     H19557   6.467   8.045  10.308 -0.6713  0.1807  1.0315
  906MOL0     H19558   6.638   8.104  10.114 -0.6454  0.0350  0.6431
  906MOL0     H19559   6.666   8.043  10.264 -1.2362 -0.1991 -0.6700
  906MOL0     H19560   6.872   8.051  10.163  2.3895  1.2701  0.6440
  906MOL0     H19561   6.882   8.194  10.264 -1.8011  2.9061 -0.4825
  906MOL0     H19562   6.791   8.319  10.043  0.6848 -0.6641 -1.5165
  906MOL0     H19563   6.826   8.160   9.966 -2.7046 -0.5100  0.3588
  906MOL0     H19564   6.997   8.330   9.912  0.3080 -1.3121 -0.7390
  906MOL0     H19565   7.012   8.366  10.084 -0.8920  1.1574 -0.3069
  906MOL0     H19566   7.116   8.127   9.936 -3.4460 -2.5598  1.7078
  906MOL0     H19567   7.099   8.127  10.104  2.5988 -0.6777 -0.2621
  906MOL0     H19568   7.239   8.353  10.103  2.3629 -0.7727 -0.0873
  906MOL0     H19569   7.241   8.327   9.922 -0.1152  2.6124  0.0809
  906MOL0     H19570   7.347   8.111  10.104  0.0911  0.0551  0.0184
  906MOL0     H19571   7.425   8.180   9.955  1.0125 -0.1840  0.0212
  906MOL0     H19572   7.485   8.378  10.082  0.4733  0.1186 -1.1321
  906MOL0     H19573   7.572   8.250  10.115  1.4496  1.2913  0.0617
  906MOL0     H19574   6.496   8.465  10.316 -1.2384  0.2229 -0.5441
  906MOL0     H19575   6.252   8.489  10.359 -1.7583 -1.2407 -1.4523
  906MOL0     H19576   5.820   8.215  10.393  1.1134 -0.6006  0.0625
  906MOL0     H19577   5.596   8.198  10.499 -1.2065  0.3229  0.8840
  906MOL0     H19578   6.460   7.212  10.706  1.1706  1.6961  0.6114
  906MOL0     H19579   6.688   7.187  10.781 -0.7109  2.0225  0.7357
  906MOL0     H19580   7.045   7.350  11.104  0.6841  0.4133  0.1853
  906MOL0     H19581   7.277   7.301  11.175  1.3621 -0.7712 -1.4755
  906MOL0     H19582   7.450   7.142  11.389  1.0526 -2.0138  0.1110
  906MOL0     H19583   7.460   7.258  11.255  0.0031  0.0311  0.5685
  906MOL0     H19584   7.660   7.180  11.180  0.3487 -1.9518 -1.3059
  906MOL0     H19585   7.673   7.186  11.355  1.2937 -1.6754  0.4142
  906MOL0     H19586   7.604   6.922  11.232 -2.3626  1.2176  0.3896
  906MOL0     H19587   7.621   6.965  11.395 -2.0749  1.8924 -0.4568
  906MOL0     H19588   7.842   6.997  11.199 -0.4682  0.1108 -0.0263
  906MOL0     H19589   7.870   7.017  11.372  4.1451 -0.5892 -2.3922
  906MOL0     H19590   7.883   6.593  11.352 -0.4804  0.7864  0.3119
  906MOL0     H19591   7.211   6.889  11.099 -2.5902 -0.0864 -3.1898
  906MOL0     H19592   6.985   6.922  11.074  1.5012 -1.9814  3.6619
  907MOL0     O19593   3.679   4.276   0.961 -0.4043 -0.4493 -0.6836
  907MOL0     C19594   3.735   4.298   0.851 -0.2940  0.3441  0.6593
  907MOL0     O19595   3.670   4.322   0.737 -0.4127  0.0221 -0.3264
  907MOL0     C19596   3.536   4.349   0.728 -0.5712 -0.6703  0.6248
  907MOL0     C19597   3.498   4.446   0.632 -0.7456 -0.1281 -0.3985
  907MOL0     C19598   3.359   4.463   0.603 -0.4477 -0.4318  0.8153
  907MOL0     C19599   3.261   4.404   0.681 -0.0222  0.3718 -0.3935
  907MOL0     O19600   3.120   4.425   0.677 -0.2728 -0.5389  0.4162
  907MOL0     C19601   3.057   4.477   0.562  0.1616 -0.1319  0.6506
  907MOL0     C19602   2.907   4.490   0.604  0.1190 -0.3024  0.8617
  907MOL0     C19603   2.836   4.593   0.502  0.4047 -0.4649  0.8706
  907MOL0     C19604   2.736   4.676   0.581  0.7963 -0.1958  0.1748
  907MOL0     C19605   2.627   4.584   0.652  0.3515  0.1586  0.0037
  907MOL0     C19606   2.538   4.494   0.571  0.4709  0.4085  0.2061
  907MOL0     C19607   2.454   4.581   0.479 -1.3858 -0.0166  0.3693
  907MOL0     C19608   2.333   4.517   0.418 -0.3266 -0.7729 -0.3979
  907MOL0     N19609   2.231   4.487   0.516  0.1633 -0.3786 -0.0768
  907MOL0     C19610   2.158   4.579   0.594 -0.1295  0.4102  0.4859
  907MOL0     C19611   2.053   4.503   0.652  0.4511 -0.1632  0.6496
  907MOL0     C19612   1.947   4.547   0.753  0.3368  0.0968  0.4845
  907MOL0     C19613   1.895   4.691   0.729  0.6488  0.2743  0.7923
  907MOL0     C19614   1.801   4.753   0.837  0.3149  1.0435  0.3187
  907MOL0     C19615   1.680   4.652   0.884  0.0289  0.2465  0.0959
  907MOL0     O19616   1.592   4.713   0.976  0.0309 -0.5267  0.3053
  907MOL0     C19617   1.458   4.676   0.963  0.4904 -0.4226  0.5672
  907MOL0     C19618   1.355   4.770   0.943 -0.1534 -1.1535  0.1619
  907MOL0     C19619   1.221   4.729   0.931 -0.0980  0.1681 -0.1350
  907MOL0     C19620   1.192   4.588   0.930  0.4078  0.1449  0.1738
  907MOL0     C19621   1.053   4.540   0.915 -0.5741  0.0354  0.1916
  907MOL0     O19622   1.030   4.410   0.942 -0.0851 -0.3834 -0.3391
  907MOL0     C19623   0.903   4.362   0.926 -0.5541  0.6659 -0.4601
  907MOL0     C19624   0.876   4.226   0.891  0.0817  0.3183  0.0384
  907MOL0     C19625   0.740   4.176   0.878 -1.7677  0.6697  0.2978
  907MOL0     C19626   0.632   4.251   0.892 -0.0829 -0.1822 -0.4685
  907MOL0     O19627   0.499   4.214   0.868 -0.6790 -0.1407 -0.1266
  907MOL0     C19628   0.481   4.073   0.839  0.3014  0.5513 -0.1045
  907MOL0     C19629   0.495   4.054   0.687  0.6884 -0.2228  0.1446
  907MOL0     C19630   0.376   4.118   0.607 -0.6294 -0.5061  0.2049
  907MOL0     C19631   0.239   4.067   0.646 -0.5966  0.6050  0.4511
  907MOL0     C19632   0.124   4.112   0.550 -0.8709  1.4022 -0.4456
  907MOL0     C19633   0.002   4.030   0.566 -0.9211 -0.7772 -0.8216
  907MOL0     C19634  -0.124   4.097   0.509  0.0950  0.1419 -0.7321
  907MOL0     C19635  -0.250   4.008   0.512  0.8088 -0.2945 -0.1275
  907MOL0    Cl19636  -0.318   3.978   0.675  0.2507  0.0767  0.0801
  907MOL0     C19637   0.653   4.383   0.926 -0.2491 -0.5228  0.2004
  907MOL0     C19638   0.785   4.436   0.952 -0.6353  0.1026 -0.0407
  907MOL0     O19639   0.972   4.623   0.878  0.3585 -0.1796  0.1012
  907MOL0     C19640   1.294   4.500   0.942  0.2038 -0.1106  0.1699
  907MOL0     C19641   1.423   4.543   0.958  0.3462 -0.8000 -0.6786
  907MOL0     N19642   2.084   4.362   0.616  0.1578 -1.1342  0.4910
  907MOL0     N19643   2.189   4.359   0.550 -0.4437 -0.6425  0.5694
  907MOL0     C19644   3.297   4.314   0.777  0.4554  0.5422  0.1965
  907MOL0     C19645   3.436   4.280   0.798 -0.5339  0.5631 -0.1958
  907MOL0     C19646   3.876   4.282   0.824 -0.5594  0.0409  0.2982
  907MOL0     C19647   3.964   4.312   0.935 -0.3640 -0.4421 -0.2390
  907MOL0     C19648   4.107   4.306   0.918  0.5267  0.4725 -0.0027
  907MOL0     C19649   4.157   4.245   0.798 -0.4470  0.1062 -0.7642
  907MOL0     O19650   4.295   4.236   0.783  0.1083 -0.1040  0.3590
  907MOL0     C19651   4.356   4.136   0.697 -0.6079  0.5016  0.0695
  907MOL0     C19652   4.474   4.078   0.773 -0.2838  0.5234  0.7772
  907MOL0     C19653   4.584   4.183   0.801 -0.4501 -1.7591 -0.9276
  907MOL0     C19654   4.696   4.129   0.876 -0.3364  0.1780 -0.2857
  907MOL0     C19655   4.773   4.242   0.915  0.2774  0.2004 -0.2465
  907MOL0     C19656   4.831   4.344   0.945 -1.0512 -0.2310  0.0327
  907MOL0     C19657   4.067   4.195   0.700 -0.9593  0.1048 -0.3152
  907MOL0     C19658   3.934   4.222   0.713  0.9523 -0.4527 -0.6406
  907MOL0     H19659   3.577   4.483   0.568  0.9067 -4.0723 -0.9513
  907MOL0     H19660   3.329   4.526   0.520  0.3144 -0.4400  0.5238
  907MOL0     H19661   3.063   4.410   0.475  0.6112  1.7204 -0.8221
  907MOL0     H19662   3.106   4.572   0.541  0.5876 -0.3709  0.5434
  907MOL0     H19663   2.899   4.531   0.705  1.7632 -1.4590  1.5029
  907MOL0     H19664   2.856   4.394   0.601 -0.4453  0.0125  0.0528
  907MOL0     H19665   2.790   4.536   0.421  1.2846 -0.5086  0.3847
  907MOL0     H19666   2.904   4.665   0.455 -0.8876 -1.3254 -2.6146
  907MOL0     H19667   2.784   4.732   0.661 -0.5598  0.1199  0.7982
  907MOL0     H19668   2.680   4.744   0.515 -0.6387 -1.6810 -0.2001
  907MOL0     H19669   2.559   4.650   0.707 -2.4337 -1.2585 -1.5252
  907MOL0     H19670   2.676   4.530   0.733 -1.4465  1.9826  2.4762
  907MOL0     H19671   2.466   4.445   0.637 -3.1496  1.1120 -2.8762
  907MOL0     H19672   2.598   4.419   0.518 -2.2669 -1.6131 -0.2215
  907MOL0     H19673   2.425   4.665   0.543  2.7693  0.9128  1.3469
  907MOL0     H19674   2.518   4.615   0.397  2.3108 -1.4053  2.4365
  907MOL0     H19675   2.357   4.427   0.361  1.2225 -0.2894 -0.5438
  907MOL0     H19676   2.286   4.585   0.348 -1.3708 -1.0736 -0.0122
  907MOL0     H19677   2.172   4.686   0.607 -1.4486  0.4501  1.9425
  907MOL0     H19678   1.992   4.549   0.853 -1.1539  0.0454  1.1919
  907MOL0     H19679   1.864   4.476   0.763 -0.0356  0.4562 -0.0529
  907MOL0     H19680   1.832   4.686   0.640 -1.6535  0.8842  2.2913
  907MOL0     H19681   1.968   4.769   0.708 -1.0523  1.8622  0.4613
  907MOL0     H19682   1.870   4.767   0.921 -0.0127 -0.3285  0.8517
  907MOL0     H19683   1.755   4.847   0.806  1.9889  2.4390  1.9048
  907MOL0     H19684   1.726   4.561   0.923  0.8623 -0.0883 -1.5711
  907MOL0     H19685   1.624   4.632   0.792  0.2081  0.8141 -0.1397
  907MOL0     H19686   1.371   4.876   0.929  1.2019 -1.1123  1.7943
  907MOL0     H19687   1.148   4.808   0.916  0.0620  0.1501 -1.0297
  907MOL0     H19688   0.962   4.162   0.874 -0.8120 -1.1610  0.8910
  907MOL0     H19689   0.737   4.073   0.844 -1.0631  0.7404 -0.0034
  907MOL0     H19690   0.378   4.049   0.867  1.0467 -0.6382  1.8182
  907MOL0     H19691   0.545   4.002   0.893  1.3077  0.0767 -1.8460
  907MOL0     H19692   0.498   3.949   0.658 -0.8346 -0.4178  0.6066
  907MOL0     H19693   0.584   4.106   0.650  1.5176 -3.0018 -2.1763
  907MOL0     H19694   0.388   4.100   0.499 -1.8494  1.5752 -0.3458
  907MOL0     H19695   0.371   4.227   0.619 -1.5706 -0.6735  1.4206
  907MOL0     H19696   0.245   3.958   0.653 -0.6238  0.6433  1.1335
  907MOL0     H19697   0.212   4.100   0.746  0.0495 -2.2850  1.6729
  907MOL0     H19698   0.156   4.101   0.446 -0.9442  0.2275 -0.3600
  907MOL0     H19699   0.109   4.216   0.579 -1.6717  0.7788  1.6202
  907MOL0     H19700  -0.029   4.010   0.669 -0.7458 -1.7653 -0.9484
  907MOL0     H19701   0.002   3.931   0.519 -1.3975 -2.1471  1.8227
  907MOL0     H19702  -0.153   4.191   0.556 -3.2253 -1.1577  0.0885
  907MOL0     H19703  -0.106   4.120   0.404 -2.8488  0.2662 -1.3032
  907MOL0     H19704  -0.233   3.914   0.458 -0.4062  0.1991 -1.4407
  907MOL0     H19705  -0.333   4.065   0.469  0.7417  1.4065  2.0886
  907MOL0     H19706   0.563   4.442   0.938  0.2024  0.1841  0.1985
  907MOL0     H19707   0.793   4.536   0.994  1.2946 -0.3889  0.9077
  907MOL0     H19708   1.289   4.392   0.946  1.3709 -0.1421  1.3879
  907MOL0     H19709   1.513   4.483   0.970 -0.7080 -2.9536 -2.7356
  907MOL0     H19710   3.216   4.259   0.823  1.7768 -0.0972  1.8702
  907MOL0     H19711   3.467   4.200   0.864 -0.2808 -0.0907 -1.0816
  907MOL0     H19712   3.916   4.349   1.026 -1.2149  0.2404 -0.9441
  907MOL0     H19713   4.183   4.344   0.986 -0.5500 -0.1312  1.5874
  907MOL0     H19714   4.375   4.171   0.595  0.0279 -0.1555 -0.0448
  907MOL0     H19715   4.280   4.058   0.684 -0.5033  0.8301 -3.3099
  907MOL0     H19716   4.447   4.027   0.866  1.6729 -0.8556  0.6568
  907MOL0     H19717   4.518   3.994   0.718 -0.9418  0.0069  1.0250
  907MOL0     H19718   4.541   4.266   0.859  2.4854 -2.2735  2.4004
  907MOL0     H19719   4.615   4.234   0.710 -1.0230  0.6692  0.1499
  907MOL0     H19720   4.665   4.080   0.970 -1.8507  0.4567 -0.6114
  907MOL0     H19721   4.751   4.055   0.818  0.3872 -1.4642  2.3168
  907MOL0     H19722   4.888   4.431   0.973 -2.2868  0.7177 -0.3355
  907MOL0     H19723   4.096   4.152   0.605  0.6799  0.5140 -0.0180
  907MOL0     H19724   3.866   4.190   0.635 -0.2961 -3.4326  1.4648
  908MOL0     O19725   7.011   3.100  10.837 -0.2159  0.2951 -0.2542
  908MOL0     C19726   6.986   3.212  10.882 -0.0453 -0.1404  1.7075
  908MOL0     O19727   6.887   3.292  10.829  0.1111 -0.0587  0.4714
  908MOL0     C19728   6.821   3.241  10.726  0.5287 -0.2743  0.3889
  908MOL0     C19729   6.790   3.337  10.624  0.2352  1.3131  0.4309
  908MOL0     C19730   6.693   3.309  10.516 -0.4082 -0.5992 -0.2864
  908MOL0     C19731   6.626   3.190  10.518 -0.2036  0.0442 -1.1166
  908MOL0     O19732   6.531   3.155  10.425  0.3631  0.0801 -0.5457
  908MOL0     C19733   6.402   3.205  10.466 -0.3829 -0.2565  0.2145
  908MOL0     C19734   6.314   3.203  10.343 -0.6723 -0.0779  0.2797
  908MOL0     C19735   6.169   3.150  10.357  0.3671 -0.8525 -0.4956
  908MOL0     C19736   6.098   3.225  10.473 -1.2491  0.0715 -0.4379
  908MOL0     C19737   5.950   3.207  10.455  0.2621 -0.2404 -1.2213
  908MOL0     C19738   5.884   3.272  10.581 -1.0699  0.0291  0.2505
  908MOL0     C19739   5.738   3.270  10.580 -0.3676  0.9406  0.0471
  908MOL0     C19740   5.675   3.354  10.695  0.2690  0.2843  0.3412
  908MOL0     N19741   5.531   3.359  10.691  0.5120  0.4164  0.2134
  908MOL0     C19742   5.442   3.259  10.693  0.4617  0.1869 -0.9366
  908MOL0     C19743   5.323   3.300  10.646  0.4432  0.8566  0.0837
  908MOL0     C19744   5.205   3.204  10.626  0.2334 -0.4966 -0.0810
  908MOL0     C19745   5.102   3.254  10.728 -0.8381 -0.2695 -0.3605
  908MOL0     C19746   4.963   3.182  10.707 -0.5032  0.1329 -0.4429
  908MOL0     C19747   4.855   3.218  10.803 -0.3596  0.0868  0.3514
  908MOL0     O19748   4.744   3.140  10.776  0.1129 -0.4073  0.9466
  908MOL0     C19749   4.626   3.163  10.853 -0.4066 -0.6280 -0.3545
  908MOL0     C19750   4.619   3.258  10.958 -0.3546 -0.1463 -0.2427
  908MOL0     C19751   4.495   3.286  11.015  0.7274 -0.2378  0.0324
  908MOL0     C19752   4.373   3.225  10.972 -0.1386  0.5425 -0.8320
  908MOL0     C19753   4.246   3.278  11.009  0.3362  1.2174 -0.1294
  908MOL0     O19754   4.136   3.228  10.946 -0.0772 -0.0108  0.4640
  908MOL0     C19755   4.013   3.267  10.990  0.4257 -0.3600  0.7378
  908MOL0     C19756   3.975   3.268  11.128 -0.2457 -0.4338  0.7173
  908MOL0     C19757   3.849   3.313  11.175  0.1629  1.2778 -0.5462
  908MOL0     C19758   3.749   3.342  11.078 -0.0191  0.2102 -1.3283
  908MOL0     O19759   3.624   3.399  11.126 -0.5659  0.1517 -0.2303
  908MOL0     C19760   3.543   3.312  11.207  0.5568 -0.8097  0.4673
  908MOL0     C19761   3.393   3.368  11.202 -0.5314 -0.1545  0.5461
  908MOL0     C19762   3.325   3.373  11.069 -0.5454  0.8886 -1.0357
  908MOL0     C19763   3.194   3.429  11.083  0.1161  0.1498 -0.1133
  908MOL0     C19764   3.123   3.420  10.951  0.1245 -0.4323 -0.2495
  908MOL0     C19765   2.995   3.504  10.939  0.2728 -0.0157  0.9938
  908MOL0     C19766   2.880   3.477  11.027 -0.0906  0.7303  0.2788
  908MOL0     C19767   2.747   3.515  10.966  0.5759 -0.2786  0.1316
  908MOL0    Cl19768   2.624   3.387  11.040 -0.0248 -0.0921  0.5628
  908MOL0     C19769   3.797   3.343  10.941 -0.3575  0.4177 -0.6276
  908MOL0     C19770   3.926   3.320  10.904  0.1169  0.4795  0.1833
  908MOL0     O19771   4.247   3.365  11.095 -0.2666  0.1878 -0.8860
  908MOL0     C19772   4.386   3.124  10.881  0.1073 -0.1199 -0.0238
  908MOL0     C19773   4.509   3.098  10.818 -0.1907  0.5406 -0.1149
  908MOL0     N19774   5.334   3.435  10.625  0.1024 -0.2994 -0.1123
  908MOL0     N19775   5.465   3.471  10.654 -0.0561 -0.1233  0.1502
  908MOL0     C19776   6.650   3.095  10.624 -0.2172 -0.2919  0.3611
  908MOL0     C19777   6.737   3.124  10.724 -0.8115 -0.0372 -0.4313
  908MOL0     C19778   7.051   3.250  11.002  0.4629 -0.6572  0.4011
  908MOL0     C19779   6.996   3.348  11.090 -0.4993  0.5954  0.2133
  908MOL0     C19780   7.054   3.386  11.205 -0.4164 -0.8852 -0.3824
  908MOL0     C19781   7.155   3.309  11.261 -0.3489 -0.2774 -0.8596
  908MOL0     O19782   7.203   3.327  11.388 -0.5012  0.3730 -0.1224
  908MOL0     C19783   7.137   3.407  11.487  0.0002 -0.4533  0.8723
  908MOL0     C19784   7.195   3.548  11.474  0.3558 -0.8463 -0.2904
  908MOL0     C19785   7.120   3.663  11.556  0.4156  0.5668  0.8557
  908MOL0     C19786   7.132   3.804  11.494 -0.0196 -0.1934  0.1869
  908MOL0     C19787   7.067   3.905  11.580  0.4412  0.0652  0.3556
  908MOL0     C19788   7.005   3.986  11.647 -0.0541 -0.8333 -0.4522
  908MOL0     C19789   7.219   3.217  11.182 -0.0074 -0.2227  0.1516
  908MOL0     C19790   7.164   3.186  11.055  0.7265 -0.5820  0.2262
  908MOL0     H19791   6.855   3.423  10.612 -0.3949  1.7391 -0.0412
  908MOL0     H19792   6.670   3.382  10.439 -1.0766  0.6665  1.0505
  908MOL0     H19793   6.399   3.306  10.509  3.5100  0.5185 -0.9679
  908MOL0     H19794   6.361   3.145  10.548 -3.7946  1.8249  0.2549
  908MOL0     H19795   6.360   3.132  10.274  0.3034  0.7222  0.0869
  908MOL0     H19796   6.308   3.302  10.298 -1.2279 -1.4910 -3.0304
  908MOL0     H19797   6.162   3.043  10.376 -1.2322 -0.4691  1.3788
  908MOL0     H19798   6.115   3.168  10.263 -1.6927  0.8826  0.9356
  908MOL0     H19799   6.135   3.180  10.565 -0.7729 -0.3222 -0.8133
  908MOL0     H19800   6.126   3.330  10.471 -3.3896  0.7037 -0.5971
  908MOL0     H19801   5.920   3.102  10.449 -1.3153  0.0167  0.8141
  908MOL0     H19802   5.905   3.259  10.370 -0.1644  0.3298 -0.6618
  908MOL0     H19803   5.905   3.379  10.580 -1.1843  0.1176 -2.9414
  908MOL0     H19804   5.922   3.231  10.676  3.0941  3.1547  0.2289
  908MOL0     H19805   5.689   3.325  10.499 -1.7580  0.3598  0.4488
  908MOL0     H19806   5.697   3.168  10.581 -1.1960  1.2485  1.8270
  908MOL0     H19807   5.729   3.448  10.680  1.4214 -0.5991 -1.3779
  908MOL0     H19808   5.692   3.303  10.790 -1.5065  2.7319  2.0798
  908MOL0     H19809   5.454   3.163  10.744 -1.0976  0.6822  0.4481
  908MOL0     H19810   5.232   3.099  10.635  3.6556  0.1340 -1.3580
  908MOL0     H19811   5.163   3.221  10.527 -1.0132 -0.3204  0.4665
  908MOL0     H19812   5.087   3.363  10.726 -0.9296 -0.1447  2.8006
  908MOL0     H19813   5.150   3.239  10.824 -1.4454  0.9516  0.1540
  908MOL0     H19814   4.923   3.187  10.605 -0.3234 -3.4605 -0.8173
  908MOL0     H19815   4.981   3.074  10.715  0.4847  0.3455  0.4386
  908MOL0     H19816   4.823   3.322  10.793  1.0861  0.7661  2.2242
  908MOL0     H19817   4.879   3.198  10.908  0.1994 -2.1315 -0.1354
  908MOL0     H19818   4.702   3.308  11.008  0.0263 -0.9138 -0.0842
  908MOL0     H19819   4.493   3.365  11.089 -0.9366 -0.6573  0.4805
  908MOL0     H19820   4.059   3.242  11.192  1.2758  0.2729 -0.9080
  908MOL0     H19821   3.823   3.330  11.279 -2.0568  0.2490 -0.8862
  908MOL0     H19822   3.574   3.292  11.310 -0.9907 -2.8195  0.6143
  908MOL0     H19823   3.548   3.214  11.159  0.7594 -1.2389  1.3369
  908MOL0     H19824   3.396   3.472  11.235 -0.5444  0.7036 -1.9388
  908MOL0     H19825   3.346   3.306  11.279  0.1406 -0.7375  0.5051
  908MOL0     H19826   3.315   3.273  11.028  1.7085  1.4015 -3.0760
  908MOL0     H19827   3.391   3.432  11.006  0.6986  1.7823  0.9876
  908MOL0     H19828   3.131   3.384  11.161  0.1221  1.1034  0.4541
  908MOL0     H19829   3.197   3.537  11.097 -0.9875  0.4947 -2.2301
  908MOL0     H19830   3.093   3.315  10.951  0.0955 -0.5284  2.8541
  908MOL0     H19831   3.194   3.438  10.870  2.0915 -2.1740  0.9868
  908MOL0     H19832   2.968   3.492  10.833  2.6426 -0.3649  0.3656
  908MOL0     H19833   3.024   3.609  10.951  1.7572  0.0223 -1.9148
  908MOL0     H19834   2.891   3.370  11.046  3.6190  1.1730  1.4532
  908MOL0     H19835   2.887   3.522  11.126 -0.6466 -0.8167  1.0460
  908MOL0     H19836   2.755   3.521  10.857  1.0347  2.4201  0.2518
  908MOL0     H19837   2.714   3.617  10.986  0.1424  0.5881 -4.0452
  908MOL0     H19838   3.732   3.376  10.861  2.6449  3.1822 -2.1410
  908MOL0     H19839   3.943   3.323  10.797  1.5715  1.9962  0.4093
  908MOL0     H19840   4.292   3.076  10.855  0.1215 -0.2548  0.1721
  908MOL0     H19841   4.517   3.027  10.736 -1.0792 -0.8506  0.9731
  908MOL0     H19842   6.576   3.016  10.636 -0.8008 -0.0876 -1.6132
  908MOL0     H19843   6.738   3.054  10.806 -1.3021  1.0696  0.5346
  908MOL0     H19844   6.900   3.386  11.056 -1.2191 -3.6564 -3.4221
  908MOL0     H19845   7.006   3.463  11.263  0.7932 -1.4378  1.4418
  908MOL0     H19846   7.162   3.359  11.583 -2.7538 -4.1154 -0.0447
  908MOL0     H19847   7.029   3.398  11.474 -0.1241  0.3399  1.2893
  908MOL0     H19848   7.299   3.530  11.501  1.0730  0.3451 -2.0712
  908MOL0     H19849   7.190   3.577  11.368  0.1080 -2.4086 -0.7379
  908MOL0     H19850   7.165   3.657  11.656  1.6447 -0.6229  0.2600
  908MOL0     H19851   7.015   3.633  11.560  0.3737  0.3499 -1.0022
  908MOL0     H19852   7.234   3.838  11.479 -0.8410  2.7244  0.5273
  908MOL0     H19853   7.085   3.808  11.395  2.6326  3.4771 -1.1324
  908MOL0     H19854   6.938   4.048  11.704 -1.5094  0.3940 -3.3168
  908MOL0     H19855   7.313   3.175  11.217 -1.0498 -0.9304  2.2681
  908MOL0     H19856   7.207   3.116  10.984 -0.1347  1.9957 -3.1155
  909MOL0     O19857   9.442   8.513   9.028 -0.2377  0.1148 -1.0210
  909MOL0     C19858   9.489   8.407   8.980 -0.5900  0.8150  0.4116
  909MOL0     O19859   9.430   8.282   8.987 -0.5957  0.4872  0.1265
  909MOL0     C19860   9.330   8.271   9.083  0.5021 -0.6106 -0.0788
  909MOL0     C19861   9.340   8.269   9.220  0.4436 -0.4866  0.0567
  909MOL0     C19862   9.224   8.256   9.290  0.7769  0.3445 -0.1314
  909MOL0     C19863   9.098   8.221   9.250 -0.2864  0.4137  1.2689
  909MOL0     O19864   8.998   8.210   9.344  0.0658  0.8143  0.2390
  909MOL0     C19865   8.867   8.193   9.284  1.0298  0.5688 -0.8774
  909MOL0     C19866   8.761   8.156   9.395 -0.1466 -0.6698  0.7393
  909MOL0     C19867   8.624   8.175   9.353 -0.3292 -0.1332  0.3313
  909MOL0     C19868   8.533   8.167   9.477 -0.0798 -0.6823 -0.0811
  909MOL0     C19869   8.385   8.185   9.438  0.3098  0.3885  1.1584
  909MOL0     C19870   8.290   8.146   9.549 -0.3452 -0.6369 -0.3381
  909MOL0     C19871   8.147   8.198   9.521 -0.3052  0.2965  0.0970
  909MOL0     C19872   8.038   8.177   9.621  0.1210 -0.6053 -1.0274
  909MOL0     N19873   8.002   8.040   9.642 -0.5159 -0.1255 -1.3591
  909MOL0     C19874   8.064   7.957   9.727  0.7797  0.0276  0.3246
  909MOL0     C19875   8.023   7.831   9.690 -0.7252  0.6255  0.3764
  909MOL0     C19876   8.069   7.707   9.760  0.4398  0.3104 -0.2099
  909MOL0     C19877   8.168   7.624   9.678 -1.5099  0.0921  0.1029
  909MOL0     C19878   8.269   7.555   9.761 -0.3066  0.2102  0.1124
  909MOL0     C19879   8.383   7.495   9.682  0.3505  0.1661  0.3614
  909MOL0     O19880   8.472   7.451   9.783 -0.2446 -0.0310  0.5860
  909MOL0     C19881   8.610   7.436   9.744  0.7754 -0.1850  0.0978
  909MOL0     C19882   8.645   7.397   9.618 -0.5828  0.3708  0.4178
  909MOL0     C19883   8.782   7.387   9.579  0.1597 -0.2184  0.2845
  909MOL0     C19884   8.885   7.413   9.669  0.1417 -0.0238 -0.9014
  909MOL0     C19885   9.030   7.418   9.637  0.0771 -0.0495 -0.2077
  909MOL0     O19886   9.059   7.424   9.506 -0.6115 -0.0265 -0.2154
  909MOL0     C19887   9.191   7.420   9.463  0.1389  0.0172 -0.6317
  909MOL0     C19888   9.214   7.489   9.335 -0.1151  0.7331  0.4894
  909MOL0     C19889   9.343   7.516   9.296  0.1618 -0.1668 -0.4126
  909MOL0     C19890   9.451   7.475   9.364  0.0771 -0.1025  0.7034
  909MOL0     O19891   9.571   7.502   9.306 -0.5708  0.3588  0.1954
  909MOL0     C19892   9.683   7.481   9.395  0.1426 -0.4665  0.4611
  909MOL0     C19893   9.804   7.540   9.316  0.8428  0.1079 -0.5678
  909MOL0     C19894   9.934   7.533   9.397 -0.3400 -0.8230  0.0967
  909MOL0     C19895  10.047   7.577   9.309 -0.3200 -0.2867  0.2089
  909MOL0     C19896  10.183   7.551   9.377 -0.2928 -0.5753 -1.0005
  909MOL0     C19897  10.308   7.606   9.297  0.5109  0.3042  0.0954
  909MOL0     C19898  10.439   7.611   9.380  0.2295 -0.3957 -0.0525
  909MOL0     C19899  10.549   7.700   9.322  0.6535 -0.2412 -0.8586
  909MOL0    Cl19900  10.551   7.690   9.151 -0.0614  0.1416 -0.2863
  909MOL0     C19901   9.431   7.404   9.478 -0.0902  0.1066 -0.8228
  909MOL0     C19902   9.308   7.378   9.532  0.1488  0.6239  0.4609
  909MOL0     O19903   9.107   7.432   9.729  0.7796 -0.5340  0.1852
  909MOL0     C19904   8.842   7.445   9.805 -1.1948  0.5174  0.1466
  909MOL0     C19905   8.710   7.463   9.837  0.1281  0.1569  0.0145
  909MOL0     N19906   7.952   7.840   9.577 -0.8182 -0.2902  0.1368
  909MOL0     N19907   7.932   7.969   9.555  0.1491 -0.3608 -0.2123
  909MOL0     C19908   9.083   8.226   9.112  0.5843 -0.1410 -0.0320
  909MOL0     C19909   9.198   8.247   9.029 -0.9165  0.3336  0.4870
  909MOL0     C19910   9.597   8.409   8.879  0.4502  0.5892 -0.1692
  909MOL0     C19911   9.640   8.539   8.827 -0.7256  0.5588  0.1552
  909MOL0     C19912   9.746   8.542   8.736 -0.4440 -0.3262 -0.6968
  909MOL0     C19913   9.813   8.424   8.696  0.1503 -0.0329 -0.1518
  909MOL0     O19914   9.913   8.431   8.605 -0.6543  0.3747  0.0896
  909MOL0     C19915  10.045   8.449   8.650 -0.0728  1.0190  0.0927
  909MOL0     C19916  10.146   8.391   8.549  0.6512 -0.2180  0.2683
  909MOL0     C19917  10.175   8.506   8.451 -0.4137 -0.1642  0.2350
  909MOL0     C19918  10.282   8.469   8.352  1.1238  0.0572  1.2888
  909MOL0     C19919  10.416   8.471   8.409 -0.1767  1.2301 -0.6633
  909MOL0     C19920  10.532   8.453   8.447  0.2276  0.5292 -0.6485
  909MOL0     C19921   9.772   8.302   8.743 -0.4249  0.4564  0.4590
  909MOL0     C19922   9.670   8.297   8.837 -0.1902  0.4341  0.0281
  909MOL0     H19923   9.436   8.264   9.271  0.2301  1.7028  0.7772
  909MOL0     H19924   9.253   8.245   9.395 -0.4033  2.8828  0.5277
  909MOL0     H19925   8.858   8.105   9.220 -1.5587  1.0153 -1.2072
  909MOL0     H19926   8.828   8.278   9.228 -2.4709  0.0165  0.5039
  909MOL0     H19927   8.775   8.222   9.481  0.2330  0.9837 -0.5270
  909MOL0     H19928   8.772   8.052   9.427 -0.6441 -1.1347 -0.5358
  909MOL0     H19929   8.598   8.100   9.278  0.9541  2.3545 -2.8465
  909MOL0     H19930   8.626   8.279   9.318  4.7158 -0.1329 -0.0125
  909MOL0     H19931   8.538   8.068   9.524  1.5365 -1.0961 -1.0397
  909MOL0     H19932   8.559   8.245   9.550 -2.0301 -1.2429  1.2957
  909MOL0     H19933   8.357   8.129   9.349 -1.2266 -1.0719  2.4925
  909MOL0     H19934   8.376   8.293   9.422 -3.7975 -0.1302 -1.4887
  909MOL0     H19935   8.329   8.194   9.640 -1.9218 -0.4639  0.2803
  909MOL0     H19936   8.298   8.039   9.574  2.6788 -0.7500 -1.4138
  909MOL0     H19937   8.146   8.308   9.518  0.4894  0.2908 -0.6464
  909MOL0     H19938   8.120   8.166   9.420  0.6664  2.2852 -0.8499
  909MOL0     H19939   7.962   8.236   9.567  2.0235  0.8360 -2.2851
  909MOL0     H19940   8.063   8.225   9.716 -1.0064  0.8628 -1.4170
  909MOL0     H19941   8.131   7.988   9.806  2.0930  1.6393 -1.3269
  909MOL0     H19942   7.976   7.651   9.772 -0.6745  1.7410 -1.6505
  909MOL0     H19943   8.113   7.729   9.858  1.4098  2.7673 -1.1196
  909MOL0     H19944   8.222   7.682   9.602  0.6780 -3.3869 -1.2437
  909MOL0     H19945   8.111   7.549   9.622 -2.7253 -1.7500  3.5119
  909MOL0     H19946   8.319   7.621   9.833 -0.2076  1.0195 -0.6825
  909MOL0     H19947   8.217   7.471   9.809  0.4413 -0.6421 -0.5324
  909MOL0     H19948   8.419   7.570   9.612  0.2931 -0.8278 -0.7567
  909MOL0     H19949   8.351   7.406   9.627  1.8711  0.0274 -0.3391
  909MOL0     H19950   8.575   7.372   9.538  1.1035 -2.9262 -0.2158
  909MOL0     H19951   8.817   7.340   9.487  0.0304 -2.9300  1.5096
  909MOL0     H19952   9.119   7.518   9.292 -1.1893  0.2254  2.4353
  909MOL0     H19953   9.347   7.578   9.207  0.6519 -0.0726 -0.3253
  909MOL0     H19954   9.698   7.374   9.411 -3.8576 -1.0222  1.7373
  909MOL0     H19955   9.672   7.544   9.484 -0.0518  0.4037 -0.1663
  909MOL0     H19956   9.784   7.642   9.283  2.8005  0.7219  0.0457
  909MOL0     H19957   9.809   7.484   9.222 -1.2888 -0.3576 -0.4491
  909MOL0     H19958   9.939   7.434   9.443 -0.6405 -0.7342  0.3239
  909MOL0     H19959   9.924   7.607   9.478 -0.4197 -0.6294 -0.0893
  909MOL0     H19960  10.052   7.523   9.214  4.0571  3.1107 -1.8843
  909MOL0     H19961  10.027   7.679   9.275 -1.1089 -0.3247  0.5415
  909MOL0     H19962  10.191   7.442   9.388  2.0965 -0.4755 -1.2568
  909MOL0     H19963  10.177   7.585   9.480 -2.0869 -0.1049 -1.2288
  909MOL0     H19964  10.279   7.708   9.267 -1.0740 -0.5198 -1.3913
  909MOL0     H19965  10.305   7.554   9.201 -1.0535  0.3487  0.0843
  909MOL0     H19966  10.418   7.635   9.484  1.8388  1.3059 -0.0636
  909MOL0     H19967  10.482   7.511   9.378 -1.0017 -0.9400 -0.4806
  909MOL0     H19968  10.642   7.684   9.376 -0.2985  1.1502  1.3368
  909MOL0     H19969  10.524   7.805   9.339  0.7863 -0.2677 -0.4956
  909MOL0     H19970   9.516   7.352   9.520  0.3907  0.6877 -1.0607
  909MOL0     H19971   9.290   7.321   9.623 -0.5784  1.3849  0.8116
  909MOL0     H19972   8.914   7.481   9.877 -1.0681 -0.7218  0.6657
  909MOL0     H19973   8.678   7.485   9.939 -0.2217 -3.1930  0.7478
  909MOL0     H19974   8.991   8.211   9.057  2.4672 -1.8957 -3.0238
  909MOL0     H19975   9.185   8.240   8.921 -2.1725 -1.9435  0.7275
  909MOL0     H19976   9.599   8.636   8.855  0.2348  1.2789 -0.8646
  909MOL0     H19977   9.781   8.633   8.689  0.2332 -0.0137  0.3600
  909MOL0     H19978  10.057   8.381   8.734 -1.6352 -0.1387 -0.5443
  909MOL0     H19979  10.080   8.542   8.696  0.7834  1.1507 -0.7962
  909MOL0     H19980  10.238   8.368   8.604 -1.7437 -0.8519  4.4128
  909MOL0     H19981  10.116   8.298   8.500 -1.8747  0.8705 -0.4042
  909MOL0     H19982  10.207   8.590   8.514  0.4847 -1.1038  1.0628
  909MOL0     H19983  10.090   8.519   8.384  1.1469  0.8224 -1.6746
  909MOL0     H19984  10.255   8.380   8.296  0.9503  2.0237 -2.0119
  909MOL0     H19985  10.282   8.542   8.271 -2.6914 -1.0374  0.1036
  909MOL0     H19986  10.631   8.431   8.482 -0.5570 -1.2464  0.5967
  909MOL0     H19987   9.832   8.215   8.717 -1.9915 -0.6812  0.4426
  909MOL0     H19988   9.647   8.200   8.880 -0.7174  0.2398 -0.6780
  910MOL0     O19989   8.467   3.846   7.478  0.4168  0.2591 -0.2299
  910MOL0     C19990   8.502   3.917   7.573  0.0600 -1.3155  0.4278
  910MOL0     O19991   8.438   4.030   7.619 -0.6146  1.0038 -0.4885
  910MOL0     C19992   8.299   4.053   7.605 -0.5940 -0.0705 -0.3019
  910MOL0     C19993   8.260   4.182   7.634  0.4486 -0.6022  0.5932
  910MOL0     C19994   8.124   4.221   7.628  0.3913  0.1072 -0.1666
  910MOL0     C19995   8.024   4.133   7.591 -0.0875  0.0750 -0.1326
  910MOL0     O19996   7.893   4.169   7.585  0.1116  0.8570 -0.0103
  910MOL0     C19997   7.847   4.226   7.472 -0.6750 -1.0997 -0.4308
  910MOL0     C19998   7.692   4.230   7.465 -0.9579  0.2896 -0.8428
  910MOL0     C19999   7.615   4.320   7.562 -0.0967 -0.1563 -0.1236
  910MOL0     C20000   7.643   4.476   7.566  0.3817  0.0970 -0.8317
  910MOL0     C20001   7.592   4.534   7.440 -0.5014 -0.2347 -1.2860
  910MOL0     C20002   7.619   4.686   7.427  0.1290  1.3926  0.2059
  910MOL0     C20003   7.534   4.769   7.532 -0.2211 -0.4712 -0.0368
  910MOL0     C20004   7.546   4.916   7.501 -0.1855 -0.8143 -0.6277
  910MOL0     N20005   7.664   4.981   7.550 -0.1581  0.4174 -0.2837
  910MOL0     C20006   7.701   4.990   7.682 -0.0854  0.0249 -0.0117
  910MOL0     C20007   7.834   5.016   7.679  0.2963 -0.3669  0.4838
  910MOL0     C20008   7.920   5.034   7.805 -0.7126 -0.4802  0.7355
  910MOL0     C20009   8.062   4.992   7.779  0.0318 -0.3891  0.4892
  910MOL0     C20010   8.133   4.964   7.917  0.2429 -0.0566 -0.5716
  910MOL0     C20011   8.287   4.968   7.907 -0.0776 -0.7628  0.8570
  910MOL0     O20012   8.350   4.908   8.017  0.5610 -0.8333  0.4388
  910MOL0     C20013   8.490   4.909   8.009 -0.7468  0.0596 -1.5713
  910MOL0     C20014   8.567   4.954   7.902 -0.5381 -0.1236  0.2095
  910MOL0     C20015   8.708   4.963   7.908  0.6572  0.6276  0.0542
  910MOL0     C20016   8.779   4.930   8.023 -0.3184  0.1385 -0.8689
  910MOL0     C20017   8.930   4.941   8.046 -0.0893 -0.2641  0.7134
  910MOL0     O20018   8.989   4.964   7.932  0.0672 -0.1681  0.1328
  910MOL0     C20019   9.125   4.968   7.918  0.7526 -1.0046  0.8576
  910MOL0     C20020   9.217   5.042   8.003  0.0644  0.4217  0.3262
  910MOL0     C20021   9.354   5.039   7.995 -0.5231  0.4403 -0.1531
  910MOL0     C20022   9.411   4.976   7.892  0.5050 -1.0225  0.3174
  910MOL0     O20023   9.546   4.999   7.904 -0.0467  0.7995 -0.3270
  910MOL0     C20024   9.630   4.946   7.801 -0.4393 -0.1869  0.3574
  910MOL0     C20025   9.779   4.956   7.827 -0.6671 -0.0886  0.0709
  910MOL0     C20026   9.860   4.892   7.716 -0.6386  0.1169  0.7326
  910MOL0     C20027  10.011   4.940   7.729 -0.3833 -0.1062 -0.3583
  910MOL0     C20028  10.107   4.858   7.645 -0.4689  0.4432 -0.7650
  910MOL0     C20029  10.262   4.876   7.676 -0.0836  0.3653 -0.4582
  910MOL0     C20030  10.352   4.787   7.590  0.4572 -0.5913  0.0868
  910MOL0     C20031  10.494   4.835   7.588 -0.4068  0.1409 -0.1992
  910MOL0    Cl20032  10.611   4.745   7.471 -0.2294  0.1372  0.1362
  910MOL0     C20033   9.328   4.899   7.802  0.2794  0.0074  0.4158
  910MOL0     C20034   9.186   4.902   7.811  0.5078 -0.7671 -0.3313
  910MOL0     O20035   8.978   4.918   8.158 -0.1214  0.7790  0.0569
  910MOL0     C20036   8.694   4.882   8.128 -0.1194 -0.1032  0.5633
  910MOL0     C20037   8.558   4.873   8.128  0.0821 -0.0640 -0.1152
  910MOL0     N20038   7.868   5.030   7.548 -0.5445  0.2539 -0.1467
  910MOL0     N20039   7.767   5.009   7.466 -0.3835  0.3382 -0.6150
  910MOL0     C20040   8.064   4.000   7.552 -0.8632  0.4389  0.4654
  910MOL0     C20041   8.198   3.963   7.559  0.0007 -1.6522 -0.7237
  910MOL0     C20042   8.623   3.874   7.654 -0.0360 -0.0877 -0.5711
  910MOL0     C20043   8.702   3.766   7.618  0.0142  0.3030  0.1051
  910MOL0     C20044   8.818   3.722   7.688  0.6289  0.9051  0.0144
  910MOL0     C20045   8.858   3.806   7.801 -0.0989  0.4952 -0.3770
  910MOL0     O20046   8.974   3.788   7.872 -0.1467  0.7721 -0.5721
  910MOL0     C20047   9.027   3.654   7.859 -0.1249 -0.5090  0.7187
  910MOL0     C20048   9.157   3.630   7.940 -0.1587 -0.7609  0.0273
  910MOL0     C20049   9.248   3.753   7.969 -0.2955  0.1488  0.5038
  910MOL0     C20050   9.351   3.720   8.080 -0.2411 -0.3949  0.2453
  910MOL0     C20051   9.410   3.844   8.131  0.0688 -0.2283  0.5247
  910MOL0     C20052   9.459   3.949   8.172  0.8866  0.3098  0.2686
  910MOL0     C20053   8.777   3.919   7.828  0.7196  0.3485  0.3351
  910MOL0     C20054   8.665   3.953   7.762 -0.4650 -0.4969 -0.0220
  910MOL0     H20055   8.333   4.257   7.666 -2.0503  0.9248  3.1405
  910MOL0     H20056   8.086   4.318   7.657 -0.0741 -0.0247 -0.3119
  910MOL0     H20057   7.884   4.171   7.385  1.7008 -1.7116  0.8700
  910MOL0     H20058   7.892   4.326   7.466  1.0393 -1.8731 -1.0599
  910MOL0     H20059   7.658   4.127   7.479  2.2596 -1.1879 -2.8324
  910MOL0     H20060   7.666   4.255   7.362 -1.0619  1.1489 -0.6132
  910MOL0     H20061   7.631   4.278   7.662 -2.3921  0.6455  0.6309
  910MOL0     H20062   7.513   4.297   7.529 -0.3572  1.5924 -0.6067
  910MOL0     H20063   7.596   4.506   7.660  4.5292  0.0902  1.4601
  910MOL0     H20064   7.747   4.506   7.574 -0.5361  3.4176  0.0601
  910MOL0     H20065   7.490   4.498   7.422 -0.2016 -0.3990 -2.8036
  910MOL0     H20066   7.643   4.492   7.353 -2.4706 -0.5096 -2.3858
  910MOL0     H20067   7.597   4.714   7.324  2.1842  0.5344 -0.5067
  910MOL0     H20068   7.723   4.716   7.442  0.7234 -1.2361  2.0048
  910MOL0     H20069   7.429   4.747   7.512 -0.7379  1.2500  0.6197
  910MOL0     H20070   7.549   4.735   7.636  0.6732 -0.3759 -0.1254
  910MOL0     H20071   7.460   4.966   7.547  1.2767  1.5997 -0.3684
  910MOL0     H20072   7.556   4.940   7.395 -0.0141  0.5617 -0.3157
  910MOL0     H20073   7.632   4.971   7.763 -2.1426  0.9282 -1.4686
  910MOL0     H20074   7.873   4.986   7.892 -0.9603  3.5347  3.1148
  910MOL0     H20075   7.927   5.140   7.833  1.3393 -0.3245 -0.1905
  910MOL0     H20076   8.116   5.074   7.731  0.0140 -1.4382 -1.3786
  910MOL0     H20077   8.057   4.902   7.718  1.6343  1.4581 -2.5869
  910MOL0     H20078   8.103   5.039   7.992  1.3567  0.7596 -0.9169
  910MOL0     H20079   8.117   4.863   7.956  3.0993  0.5301  2.6005
  910MOL0     H20080   8.321   5.070   7.889 -1.0506 -0.8614 -2.0002
  910MOL0     H20081   8.312   4.915   7.815 -1.9090 -0.9702  0.4362
  910MOL0     H20082   8.521   4.983   7.808 -1.9526  2.3777  1.5696
  910MOL0     H20083   8.755   5.003   7.819  0.4481  0.4713 -0.1273
  910MOL0     H20084   9.164   5.105   8.074 -1.3476  0.9383 -1.1303
  910MOL0     H20085   9.408   5.107   8.061  0.0214 -0.3410  0.2334
  910MOL0     H20086   9.617   5.004   7.710  1.1051  1.1605  0.9383
  910MOL0     H20087   9.605   4.842   7.781  1.2519 -0.8366  1.3651
  910MOL0     H20088   9.798   4.893   7.914  1.4025 -1.2634 -1.1349
  910MOL0     H20089   9.805   5.062   7.838  0.9511 -0.6582  2.7403
  910MOL0     H20090   9.818   4.916   7.618 -1.3209 -1.2446  0.6653
  910MOL0     H20091   9.844   4.785   7.733  0.6077 -0.4132 -1.1241
  910MOL0     H20092  10.037   5.044   7.711 -3.3956  0.6744 -0.5861
  910MOL0     H20093  10.038   4.925   7.834  0.0572 -0.3999 -0.5079
  910MOL0     H20094  10.088   4.879   7.540  1.6119 -0.4728 -1.3897
  910MOL0     H20095  10.087   4.751   7.661 -0.5899  0.8993  3.2804
  910MOL0     H20096  10.291   4.847   7.777  1.2533  2.4260 -0.1843
  910MOL0     H20097  10.290   4.980   7.660  3.4146 -0.3827  0.0886
  910MOL0     H20098  10.343   4.686   7.632  0.7463 -0.0338  1.5588
  910MOL0     H20099  10.311   4.790   7.489  0.9698 -4.3355 -0.4097
  910MOL0     H20100  10.533   4.844   7.690  2.1361  1.4430 -1.1897
  910MOL0     H20101  10.488   4.937   7.550 -1.6098 -0.3639 -1.4613
  910MOL0     H20102   9.367   4.830   7.728 -1.3620 -1.4020  0.7812
  910MOL0     H20103   9.112   4.846   7.755 -3.4879  1.1224  2.5594
  910MOL0     H20104   8.741   4.852   8.222 -0.8236  3.2351  2.1129
  910MOL0     H20105   8.496   4.850   8.214 -1.4834  3.2774 -0.2249
  910MOL0     H20106   7.985   3.933   7.520  0.0945 -2.0749  2.9534
  910MOL0     H20107   8.232   3.864   7.531 -0.3111 -1.2292 -2.7503
  910MOL0     H20108   8.668   3.723   7.524  1.5331 -1.8273  0.4551
  910MOL0     H20109   8.870   3.646   7.632 -2.0406  0.9118 -2.7035
  910MOL0     H20110   9.039   3.635   7.751 -4.5525  0.5962 -0.1454
  910MOL0     H20111   8.943   3.594   7.894 -2.2864  0.9269 -1.6593
  910MOL0     H20112   9.115   3.596   8.036 -0.6452  1.3250  0.6123
  910MOL0     H20113   9.214   3.545   7.903 -0.3019 -1.4562  1.3469
  910MOL0     H20114   9.192   3.842   7.997  3.2632  2.2479  1.5669
  910MOL0     H20115   9.301   3.773   7.875  0.1263 -3.1574 -0.0763
  910MOL0     H20116   9.298   3.680   8.167  1.8781 -0.7072  1.4501
  910MOL0     H20117   9.432   3.655   8.047  0.5177  0.2578  0.7948
  910MOL0     H20118   9.504   4.037   8.211 -0.0358  0.9101  0.0177
  910MOL0     H20119   8.803   3.984   7.910 -0.0124  0.7210  0.2799
  910MOL0     H20120   8.615   4.042   7.798  0.2735 -0.2150  0.3275
  911MOL0     O20121   2.877   5.512   4.305 -0.1391  0.4771 -0.6860
  911MOL0     C20122   2.929   5.612   4.350  0.3617  0.7613 -1.2615
  911MOL0     O20123   2.857   5.705   4.418 -0.0269 -0.3988 -0.8687
  911MOL0     C20124   2.726   5.693   4.444 -0.4622  0.1841  0.7691
  911MOL0     C20125   2.678   5.654   4.566  0.2349 -0.2829 -0.0310
  911MOL0     C20126   2.543   5.660   4.601 -0.3263 -0.4223  0.6543
  911MOL0     C20127   2.448   5.695   4.497 -0.4002 -0.2768 -1.0452
  911MOL0     O20128   2.313   5.687   4.500  0.1844  0.5400  0.2602
  911MOL0     C20129   2.237   5.668   4.626 -0.5879 -0.1019 -0.1910
  911MOL0     C20130   2.094   5.622   4.596  0.0516  0.2462 -0.2489
  911MOL0     C20131   2.029   5.700   4.483  0.6096 -0.4470  0.3213
  911MOL0     C20132   1.994   5.847   4.511 -0.3511  0.4012 -0.6416
  911MOL0     C20133   1.898   5.910   4.404 -0.7341  0.4875 -0.2497
  911MOL0     C20134   1.822   6.034   4.443  0.3557 -0.5103 -0.3493
  911MOL0     C20135   1.929   6.145   4.473 -0.8737 -0.8572 -0.6869
  911MOL0     C20136   1.846   6.278   4.475 -0.5174  1.1073 -0.4609
  911MOL0     N20137   1.941   6.396   4.495  0.7570  0.1778  0.3733
  911MOL0     C20138   2.075   6.392   4.516 -0.0265 -1.4362 -0.7106
  911MOL0     C20139   2.100   6.523   4.544  0.1512  0.0186  0.4139
  911MOL0     C20140   2.227   6.573   4.599  0.2090  0.3675 -0.3740
  911MOL0     C20141   2.243   6.565   4.750 -0.3894  1.1143  0.3984
  911MOL0     C20142   2.240   6.425   4.816 -0.2937 -0.0090 -1.1868
  911MOL0     C20143   2.265   6.435   4.971  0.1412 -0.4982 -0.4760
  911MOL0     O20144   2.377   6.516   5.012  0.8578 -0.4998  0.7652
  911MOL0     C20145   2.500   6.457   5.027 -0.5421 -0.1231  0.1608
  911MOL0     C20146   2.530   6.325   4.985  0.1020  0.8661  0.7341
  911MOL0     C20147   2.654   6.273   5.007  0.0643  0.0091  0.7820
  911MOL0     C20148   2.748   6.347   5.083 -0.2017  0.4167 -0.1262
  911MOL0     C20149   2.872   6.278   5.120 -0.1253  0.6227 -0.0942
  911MOL0     O20150   2.889   6.151   5.080 -0.1590  0.5971  0.1934
  911MOL0     C20151   3.013   6.087   5.111 -0.2803  0.1665  0.5262
  911MOL0     C20152   3.109   6.066   5.007 -0.6848  0.5685 -0.1289
  911MOL0     C20153   3.228   6.007   5.041 -0.8442 -0.1493  1.3115
  911MOL0     C20154   3.266   5.974   5.179  0.1320  0.1597  0.6948
  911MOL0     O20155   3.399   5.957   5.215  0.6227  0.2975  0.5000
  911MOL0     C20156   3.420   5.825   5.283  0.1068 -1.0131 -0.1115
  911MOL0     C20157   3.483   5.859   5.414 -0.9739 -0.4163  0.2982
  911MOL0     C20158   3.634   5.865   5.385  0.5325  0.6048 -0.2684
  911MOL0     C20159   3.707   5.902   5.511 -1.0796  0.6889  0.6954
  911MOL0     C20160   3.858   5.879   5.502  0.2436  0.8887 -0.9167
  911MOL0     C20161   3.927   5.934   5.635 -0.2488  0.2284  0.3295
  911MOL0     C20162   4.075   5.893   5.629  0.1378  0.8448 -0.1305
  911MOL0     C20163   4.155   5.965   5.730 -0.1711 -0.0547 -0.7204
  911MOL0    Cl20164   4.315   5.890   5.718 -0.1694  0.4982 -0.3011
  911MOL0     C20165   3.168   5.990   5.279  0.2953 -0.0440  0.4833
  911MOL0     C20166   3.041   6.048   5.244 -0.5023  0.7416  0.0406
  911MOL0     O20167   2.955   6.343   5.190  0.2805  0.3047 -0.3697
  911MOL0     C20168   2.726   6.485   5.113 -0.4574 -0.5546 -0.3131
  911MOL0     C20169   2.598   6.535   5.081 -0.7883 -0.7322 -1.0700
  911MOL0     N20170   1.990   6.599   4.537  1.1628 -0.2813 -0.0915
  911MOL0     N20171   1.894   6.518   4.503 -0.0304 -0.4199 -0.4453
  911MOL0     C20172   2.498   5.713   4.371  0.1181  0.3702  0.2491
  911MOL0     C20173   2.639   5.723   4.339  0.3986 -0.2729 -0.2301
  911MOL0     C20174   3.077   5.625   4.358 -0.5192 -0.2582  0.1070
  911MOL0     C20175   3.127   5.744   4.405 -0.3051 -0.9463 -0.2001
  911MOL0     C20176   3.258   5.787   4.390 -0.1625  0.7180 -0.0241
  911MOL0     C20177   3.351   5.694   4.332  0.0749 -0.0434  0.3511
  911MOL0     O20178   3.486   5.725   4.336 -0.2554 -0.0224 -0.4789
  911MOL0     C20179   3.528   5.860   4.367 -0.5406  0.3028  0.5967
  911MOL0     C20180   3.684   5.878   4.337  0.0598  0.7505 -0.0047
  911MOL0     C20181   3.744   5.996   4.410  1.0054  0.0227 -0.1077
  911MOL0     C20182   3.754   6.119   4.317 -0.3627 -0.3310  0.5546
  911MOL0     C20183   3.627   6.180   4.284 -0.1599  0.2446  0.7319
  911MOL0     C20184   3.523   6.218   4.241 -0.4426 -0.2811 -0.5216
  911MOL0     C20185   3.301   5.563   4.304 -0.2285 -0.0097 -0.6143
  911MOL0     C20186   3.174   5.526   4.318 -0.0133 -0.8109  1.1533
  911MOL0     H20187   2.760   5.629   4.633  1.3811 -1.2412 -1.7172
  911MOL0     H20188   2.523   5.631   4.704  1.9052 -1.3847  0.8750
  911MOL0     H20189   2.225   5.767   4.671 -1.6358 -0.2484 -0.1337
  911MOL0     H20190   2.284   5.598   4.696  1.7232  0.9473 -0.5962
  911MOL0     H20191   2.023   5.628   4.680 -1.4132 -3.0416 -1.0918
  911MOL0     H20192   2.109   5.521   4.558  0.4723  0.3869 -0.4616
  911MOL0     H20193   1.940   5.643   4.454  1.0671 -0.2111 -1.6200
  911MOL0     H20194   2.098   5.698   4.399  0.4785  2.3481  0.0358
  911MOL0     H20195   1.941   5.862   4.606 -0.2840  1.0813 -0.7008
  911MOL0     H20196   2.084   5.910   4.522 -2.1884  2.8880  1.3732
  911MOL0     H20197   1.827   5.832   4.372 -2.1491  1.6158  0.0339
  911MOL0     H20198   1.960   5.937   4.319 -0.9422  0.3238 -0.4562
  911MOL0     H20199   1.754   6.032   4.529  2.1319  2.1038  1.2460
  911MOL0     H20200   1.761   6.057   4.355 -0.5461 -1.9447 -0.1240
  911MOL0     H20201   1.969   6.138   4.575  2.2669  1.5090 -1.5931
  911MOL0     H20202   2.000   6.156   4.391 -1.1743 -0.4888 -0.9036
  911MOL0     H20203   1.774   6.267   4.557  0.7581  0.6575  0.6256
  911MOL0     H20204   1.791   6.286   4.380 -0.5316  1.8707 -0.3951
  911MOL0     H20205   2.147   6.311   4.509 -1.2143 -2.7723  1.3639
  911MOL0     H20206   2.234   6.677   4.566 -0.6047  0.5819  0.1010
  911MOL0     H20207   2.313   6.523   4.554  0.6155  2.6534 -2.3055
  911MOL0     H20208   2.163   6.617   4.803  2.3391  1.6970  4.3984
  911MOL0     H20209   2.333   6.624   4.769 -1.1088  2.9261 -1.5523
  911MOL0     H20210   2.140   6.382   4.804  0.4491 -2.1178 -0.3822
  911MOL0     H20211   2.312   6.352   4.778 -2.1599 -2.4816 -0.2620
  911MOL0     H20212   2.277   6.336   5.016 -0.4675  0.1103  1.0708
  911MOL0     H20213   2.179   6.474   5.026  0.7673  0.0151  0.1414
  911MOL0     H20214   2.456   6.265   4.933 -1.6837  1.1636  2.7676
  911MOL0     H20215   2.663   6.166   4.987 -3.0625 -0.8732  3.2442
  911MOL0     H20216   3.110   6.096   4.903  0.2994  0.0591 -0.2822
  911MOL0     H20217   3.304   6.005   4.964 -0.3854 -0.4400  1.7613
  911MOL0     H20218   3.474   5.755   5.218  0.2489  1.2332 -2.6078
  911MOL0     H20219   3.328   5.771   5.306  0.5502 -1.2467  1.1515
  911MOL0     H20220   3.459   5.791   5.496 -3.7909 -3.7129 -2.9253
  911MOL0     H20221   3.451   5.961   5.437  0.0528  0.2777 -1.1837
  911MOL0     H20222   3.661   5.939   5.308  1.5852 -0.4398 -0.9432
  911MOL0     H20223   3.661   5.767   5.345 -1.8895 -0.0221 -0.4741
  911MOL0     H20224   3.690   6.004   5.546  0.0039  0.0908  3.2082
  911MOL0     H20225   3.665   5.841   5.592 -0.2193 -0.3450  0.3996
  911MOL0     H20226   3.892   5.932   5.413 -2.9071  1.9176 -1.6464
  911MOL0     H20227   3.892   5.776   5.506  0.7089  1.0697  0.3442
  911MOL0     H20228   3.869   5.902   5.722 -2.1697  1.0094 -0.6001
  911MOL0     H20229   3.918   6.042   5.619  1.0800  0.3445  0.2210
  911MOL0     H20230   4.079   5.784   5.631  0.1216  0.8073 -1.4385
  911MOL0     H20231   4.110   5.914   5.528  0.9240 -0.0943 -0.0584
  911MOL0     H20232   4.120   5.939   5.831 -0.4726  4.3092  0.4946
  911MOL0     H20233   4.156   6.074   5.726  2.0607 -0.0215 -0.4257
  911MOL0     H20234   3.172   5.959   5.383 -0.4148  1.5908  1.0293
  911MOL0     H20235   2.980   6.065   5.332  1.1368  0.9236  1.1919
  911MOL0     H20236   2.797   6.540   5.173 -0.3531  1.3087 -2.0259
  911MOL0     H20237   2.574   6.639   5.102 -2.9832 -1.4455  0.2169
  911MOL0     H20238   2.427   5.729   4.290  1.1038 -4.2782 -1.8861
  911MOL0     H20239   2.679   5.754   4.243 -0.8778  0.4983 -0.5403
  911MOL0     H20240   3.070   5.835   4.424  1.3430  0.1941 -0.5310
  911MOL0     H20241   3.283   5.890   4.415  3.0019  0.6609 -2.3419
  911MOL0     H20242   3.511   5.876   4.474 -1.6818  0.0153  0.4635
  911MOL0     H20243   3.474   5.943   4.320 -0.4688  0.4947  0.8534
  911MOL0     H20244   3.719   5.786   4.384 -1.2460  0.9185  1.4012
  911MOL0     H20245   3.695   5.883   4.228  0.8141  0.0440  0.0289
  911MOL0     H20246   3.838   5.963   4.454  1.5740  1.6902 -0.0258
  911MOL0     H20247   3.678   6.023   4.494  0.7531 -0.1297 -0.2531
  911MOL0     H20248   3.808   6.197   4.371 -0.1591  0.3928 -0.6527
  911MOL0     H20249   3.810   6.113   4.223 -3.7299  2.5973 -1.9066
  911MOL0     H20250   3.426   6.254   4.213 -1.0858 -0.6775  1.0589
  911MOL0     H20251   3.362   5.482   4.265  3.0541  2.2656 -0.5902
  911MOL0     H20252   3.160   5.425   4.281  0.6053 -0.8232  0.9533
  912MOL0     O20253   6.573   2.911   6.379  0.0002  0.1949  0.2230
  912MOL0     C20254   6.583   3.007   6.451  0.7052 -0.7562  0.6099
  912MOL0     O20255   6.682   3.033   6.541  0.3674  0.4696  0.3978
  912MOL0     C20256   6.806   2.981   6.515 -0.3628 -0.4139  0.7559
  912MOL0     C20257   6.878   2.998   6.392  0.2907 -0.5483  0.0918
  912MOL0     C20258   6.996   2.916   6.370 -0.2295  0.8577 -0.4932
  912MOL0     C20259   7.050   2.828   6.469  0.2685 -0.2992  0.0551
  912MOL0     O20260   7.152   2.747   6.431  0.2690 -0.3311  0.0649
  912MOL0     C20261   7.264   2.708   6.517  0.4020 -1.4294  0.0218
  912MOL0     C20262   7.362   2.624   6.444 -0.2080 -0.6260 -0.4347
  912MOL0     C20263   7.326   2.479   6.453 -0.2191 -0.2246  0.2327
  912MOL0     C20264   7.421   2.392   6.368  0.2661  0.1068 -0.5498
  912MOL0     C20265   7.552   2.364   6.435  0.3401 -0.7121 -0.4181
  912MOL0     C20266   7.635   2.289   6.338 -0.7470 -0.6378 -0.8520
  912MOL0     C20267   7.731   2.200   6.397 -0.6182  0.3966 -0.6335
  912MOL0     C20268   7.675   2.077   6.472  0.4030  0.2022 -0.4542
  912MOL0     N20269   7.599   1.993   6.384 -0.3296  0.0385  0.0570
  912MOL0     C20270   7.647   1.897   6.295  0.4899 -0.1968  0.1635
  912MOL0     C20271   7.543   1.861   6.227  1.0455  0.7443  1.3706
  912MOL0     C20272   7.526   1.782   6.093  0.0153  0.0519  0.3145
  912MOL0     C20273   7.585   1.646   6.095  0.4200 -0.8667  1.1107
  912MOL0     C20274   7.510   1.524   6.155 -0.5624 -0.3453 -0.2152
  912MOL0     C20275   7.360   1.514   6.112  0.1889  0.9205  0.2159
  912MOL0     O20276   7.289   1.592   6.203  0.3676  0.0466  0.6198
  912MOL0     C20277   7.152   1.589   6.203 -0.5007 -0.7027  0.7037
  912MOL0     C20278   7.080   1.532   6.103 -0.2697  0.1735  0.7407
  912MOL0     C20279   6.943   1.548   6.097  0.0476 -0.1816 -0.9340
  912MOL0     C20280   6.874   1.610   6.200 -0.3903  0.5252 -0.6581
  912MOL0     C20281   6.725   1.610   6.193  0.1910 -0.3233 -0.4499
  912MOL0     O20282   6.662   1.642   6.308  0.0000  1.4962  0.0983
  912MOL0     C20283   6.525   1.639   6.319 -0.1479 -0.4009 -0.3593
  912MOL0     C20284   6.468   1.744   6.388 -0.2549  0.5028  0.3802
  912MOL0     C20285   6.331   1.740   6.417  0.7183 -0.3065  0.5091
  912MOL0     C20286   6.243   1.645   6.368  0.1044 -0.5265 -0.0775
  912MOL0     O20287   6.110   1.670   6.397  0.8712  0.6383 -0.1090
  912MOL0     C20288   6.027   1.668   6.281  0.7910 -0.0881  0.5202
  912MOL0     C20289   5.878   1.703   6.317  0.6151  0.7683  0.2377
  912MOL0     C20290   5.872   1.831   6.408 -0.3700  0.2143  0.2227
  912MOL0     C20291   5.736   1.885   6.426  0.2458 -0.3114  0.1909
  912MOL0     C20292   5.749   2.019   6.503  0.2923  0.5319 -0.5312
  912MOL0     C20293   5.613   2.083   6.544 -1.1930 -0.1192 -0.0565
  912MOL0     C20294   5.557   2.149   6.411  0.6170 -0.4144  0.1784
  912MOL0     C20295   5.435   2.238   6.441 -0.0514  0.4229  1.3174
  912MOL0    Cl20296   5.297   2.138   6.510  0.0942  0.1866 -0.4319
  912MOL0     C20297   6.299   1.539   6.290 -0.0850  0.1927  0.3120
  912MOL0     C20298   6.441   1.531   6.278 -0.8539 -0.3700  0.5476
  912MOL0     O20299   6.671   1.589   6.085  0.2193 -0.8098 -0.0527
  912MOL0     C20300   6.956   1.675   6.301  1.0397  0.3130  0.4940
  912MOL0     C20301   7.089   1.668   6.307 -0.1591 -0.2201  0.4534
  912MOL0     N20302   7.428   1.920   6.282  0.3489 -0.5540 -0.5199
  912MOL0     N20303   7.468   1.997   6.375 -0.5974 -0.0762  0.6097
  912MOL0     C20304   6.986   2.829   6.594  0.0366  0.2893 -0.1749
  912MOL0     C20305   6.862   2.898   6.606  0.1974  0.5378 -0.0741
  912MOL0     C20306   6.467   3.104   6.454 -0.1550  0.9439 -0.4642
  912MOL0     C20307   6.473   3.222   6.529 -0.6791 -0.5561  0.7889
  912MOL0     C20308   6.357   3.306   6.522 -0.0235  0.2352  0.2556
  912MOL0     C20309   6.241   3.250   6.457  0.7883 -0.7619 -0.0262
  912MOL0     O20310   6.118   3.310   6.450  0.0428  0.3763 -0.5344
  912MOL0     C20311   6.102   3.447   6.472 -0.0969  0.3038  0.4760
  912MOL0     C20312   5.955   3.482   6.443 -0.3343  0.0721  0.6264
  912MOL0     C20313   5.884   3.493   6.578 -0.0972 -0.4220  0.3323
  912MOL0     C20314   5.741   3.548   6.554  0.2154 -0.3137  0.4335
  912MOL0     C20315   5.666   3.587   6.673  0.4503 -0.2326 -0.4560
  912MOL0     C20316   5.606   3.610   6.772  0.0124 -0.2557 -0.9025
  912MOL0     C20317   6.238   3.133   6.394  0.7954  0.1774 -0.1831
  912MOL0     C20318   6.348   3.060   6.387 -0.2825  0.5876 -0.2576
  912MOL0     H20319   6.848   3.060   6.308 -0.2884 -1.0986 -0.1111
  912MOL0     H20320   7.055   2.906   6.279  2.7520 -2.5294  1.5250
  912MOL0     H20321   7.224   2.655   6.604 -0.8411 -1.5883 -0.6130
  912MOL0     H20322   7.317   2.802   6.535  0.0355 -1.1583 -0.2759
  912MOL0     H20323   7.459   2.634   6.494 -0.0350  3.7231 -1.2457
  912MOL0     H20324   7.368   2.665   6.343 -2.5583 -2.3090 -1.3398
  912MOL0     H20325   7.226   2.471   6.409 -1.8622  0.2758  3.5643
  912MOL0     H20326   7.338   2.447   6.557  2.0662  0.5692  0.2813
  912MOL0     H20327   7.376   2.293   6.353  0.7531 -0.5723  2.0112
  912MOL0     H20328   7.440   2.437   6.271  0.4960 -1.9584 -1.5294
  912MOL0     H20329   7.532   2.313   6.530 -2.7767  0.4578 -0.3394
  912MOL0     H20330   7.607   2.453   6.469  0.7820 -0.9132 -0.5973
  912MOL0     H20331   7.695   2.351   6.270 -0.2617 -0.1802 -0.0275
  912MOL0     H20332   7.564   2.232   6.279  0.6137 -1.8657 -1.3611
  912MOL0     H20333   7.799   2.152   6.327  1.4735  2.4815 -0.1153
  912MOL0     H20334   7.791   2.259   6.466 -0.3592 -0.3398 -0.2071
  912MOL0     H20335   7.620   2.103   6.563  1.5563 -1.5391  0.8082
  912MOL0     H20336   7.754   2.028   6.530 -1.4874 -2.7157 -0.1122
  912MOL0     H20337   7.751   1.869   6.279  0.4706 -1.2251  1.6188
  912MOL0     H20338   7.568   1.836   6.008 -2.2214  3.2951  1.0842
  912MOL0     H20339   7.422   1.770   6.062  1.1786 -2.2845 -3.3888
  912MOL0     H20340   7.684   1.654   6.141  0.6858  2.6178  0.1940
  912MOL0     H20341   7.603   1.615   5.992  2.9716  0.6846  1.0018
  912MOL0     H20342   7.574   1.439   6.127  2.6848  1.7406  0.3203
  912MOL0     H20343   7.509   1.531   6.264 -1.9806 -1.9545 -0.0670
  912MOL0     H20344   7.322   1.412   6.112  3.5872 -0.4683  0.6723
  912MOL0     H20345   7.357   1.562   6.014  4.8559 -0.4602 -0.8634
  912MOL0     H20346   7.129   1.479   6.022 -2.5103 -1.5333  0.3973
  912MOL0     H20347   6.883   1.510   6.015 -0.5664  3.1730 -2.2304
  912MOL0     H20348   6.523   1.833   6.413 -1.2627  2.0432 -2.3946
  912MOL0     H20349   6.293   1.823   6.475 -0.1760 -0.2796 -0.1056
  912MOL0     H20350   6.024   1.572   6.229 -2.1811  0.6757 -0.9169
  912MOL0     H20351   6.066   1.730   6.201 -0.1803 -1.1559 -0.8234
  912MOL0     H20352   5.830   1.620   6.371 -1.2873  1.3301 -0.5017
  912MOL0     H20353   5.811   1.722   6.233  0.8981  0.6679 -0.0118
  912MOL0     H20354   5.941   1.901   6.360 -1.6290 -0.7964 -3.3606
  912MOL0     H20355   5.909   1.810   6.509 -0.5720  0.8546  0.4333
  912MOL0     H20356   5.694   1.896   6.326  1.8767 -0.7068 -0.5539
  912MOL0     H20357   5.675   1.818   6.487 -1.6333  2.1402  1.2043
  912MOL0     H20358   5.817   2.093   6.460 -0.7448  0.8917 -1.6036
  912MOL0     H20359   5.792   1.989   6.599 -0.0768  1.6137 -0.0153
  912MOL0     H20360   5.634   2.160   6.617  1.1291  1.6689 -2.4193
  912MOL0     H20361   5.551   2.003   6.586 -0.0101 -0.6432  0.7371
  912MOL0     H20362   5.640   2.201   6.362 -2.2645  2.7617 -1.8588
  912MOL0     H20363   5.524   2.077   6.336 -1.2474  1.0099 -0.4751
  912MOL0     H20364   5.403   2.293   6.352 -0.8974 -2.2567 -0.1388
  912MOL0     H20365   5.475   2.313   6.510  0.1981  0.8762  0.6848
  912MOL0     H20366   6.235   1.460   6.253 -0.2473 -0.2687  1.5276
  912MOL0     H20367   6.496   1.457   6.220  0.4179  0.9503  0.0046
  912MOL0     H20368   6.904   1.721   6.384  2.1432  0.6476  1.0216
  912MOL0     H20369   7.138   1.725   6.385  0.3926  1.0169 -0.7519
  912MOL0     H20370   7.015   2.758   6.672  0.0255  0.6341  0.1478
  912MOL0     H20371   6.793   2.889   6.689  0.9894 -0.1336  0.5365
  912MOL0     H20372   6.559   3.245   6.592  1.4588 -1.6019 -1.5700
  912MOL0     H20373   6.334   3.405   6.559 -0.1707  0.2910  0.0184
  912MOL0     H20374   6.170   3.497   6.403 -2.8975 -0.0963 -2.8577
  912MOL0     H20375   6.116   3.487   6.573  0.7678  2.0839 -0.2996
  912MOL0     H20376   5.949   3.583   6.401 -1.1283  0.5171  1.7632
  912MOL0     H20377   5.899   3.410   6.384 -2.3323  1.5830  0.5461
  912MOL0     H20378   5.936   3.567   6.640 -0.7580  1.2720 -1.0202
  912MOL0     H20379   5.883   3.395   6.627  0.2248 -1.2918 -1.3360
  912MOL0     H20380   5.739   3.629   6.480 -0.0340  1.4359  2.2837
  912MOL0     H20381   5.693   3.460   6.510  2.7627 -0.7300 -1.7945
  912MOL0     H20382   5.530   3.636   6.843 -1.2282 -0.2276 -2.1831
  912MOL0     H20383   6.147   3.095   6.349  0.5147  0.8353 -0.1826
  912MOL0     H20384   6.339   2.966   6.333 -1.9432  0.5670 -0.0149
  913MOL0     O20385   6.869   9.341   1.871  0.2294  0.0934  0.6172
  913MOL0     C20386   6.865   9.457   1.832 -0.0792  0.5545 -0.7561
  913MOL0     O20387   6.965   9.539   1.821  0.5012 -0.4085 -0.8305
  913MOL0     C20388   7.090   9.507   1.856  0.0822  0.7380 -0.5711
  913MOL0     C20389   7.103   9.447   1.979  0.0185 -0.2815 -0.6342
  913MOL0     C20390   7.229   9.400   2.020  0.0378  1.2068  0.3294
  913MOL0     C20391   7.347   9.410   1.947  0.2559  0.3678  0.8915
  913MOL0     O20392   7.468   9.349   1.974  0.1287 -1.1275 -0.0229
  913MOL0     C20393   7.493   9.299   2.105 -0.2561  0.6609 -0.4145
  913MOL0     C20394   7.623   9.222   2.120 -0.4923  0.4159  0.2604
  913MOL0     C20395   7.733   9.332   2.119  0.4679  0.4081  0.9476
  913MOL0     C20396   7.873   9.275   2.120 -0.3869 -0.1155  0.1305
  913MOL0     C20397   7.989   9.380   2.132 -0.1095  0.1422 -0.4733
  913MOL0     C20398   8.117   9.309   2.176 -1.0126  0.2545  0.3232
  913MOL0     C20399   8.252   9.391   2.173 -0.3101 -0.5299  0.0479
  913MOL0     C20400   8.276   9.457   2.303 -0.4585 -0.2261 -0.1682
  913MOL0     N20401   8.395   9.536   2.288 -0.1852 -0.1687  0.3721
  913MOL0     C20402   8.522   9.495   2.328 -0.9337 -0.2276 -0.1126
  913MOL0     C20403   8.606   9.592   2.283  1.1370  0.2055  0.0690
  913MOL0     C20404   8.752   9.591   2.286 -0.9334  0.6042  0.5661
  913MOL0     C20405   8.823   9.452   2.296  0.1952 -0.5070 -0.8452
  913MOL0     C20406   8.863   9.373   2.172  0.3894  0.3267 -0.0379
  913MOL0     C20407   8.734   9.298   2.114  0.0521  0.0648 -0.5628
  913MOL0     O20408   8.707   9.192   2.198  0.0276 -0.3119 -0.4225
  913MOL0     C20409   8.590   9.117   2.169  0.2207 -0.8052 -0.2521
  913MOL0     C20410   8.513   9.136   2.054  0.1637 -0.5546  0.2163
  913MOL0     C20411   8.389   9.077   2.044  0.8698 -0.3781  0.5786
  913MOL0     C20412   8.353   8.976   2.142 -0.4942  0.0749 -0.7411
  913MOL0     C20413   8.216   8.926   2.125  0.5034  0.7581 -0.7237
  913MOL0     O20414   8.137   8.953   2.014 -0.3139 -0.2124 -0.3180
  913MOL0     C20415   8.014   8.893   1.994 -0.2456 -0.3294 -0.5201
  913MOL0     C20416   7.922   8.867   2.099 -0.9852 -0.2712  0.4720
  913MOL0     C20417   7.816   8.782   2.080 -0.0731 -0.2685 -0.3695
  913MOL0     C20418   7.786   8.733   1.954  0.1231 -0.0390  0.4558
  913MOL0     O20419   7.672   8.647   1.934 -0.4579  1.4069  0.4920
  913MOL0     C20420   7.572   8.708   1.841 -0.9695  0.1590 -0.3716
  913MOL0     C20421   7.449   8.732   1.917 -0.2227 -0.3703  0.5207
  913MOL0     C20422   7.462   8.848   2.015 -0.2756  0.1445 -0.2520
  913MOL0     C20423   7.355   8.830   2.129 -0.5377 -0.2141 -0.1458
  913MOL0     C20424   7.206   8.840   2.093  0.8117  0.3180 -0.1216
  913MOL0     C20425   7.169   8.978   2.053 -0.0768 -0.2856 -0.6623
  913MOL0     C20426   7.011   8.995   2.069 -0.5128 -0.1981 -0.3200
  913MOL0     C20427   6.960   9.134   2.077  0.4370  0.1720 -0.3372
  913MOL0    Cl20428   6.984   9.207   2.241  0.0486  0.1260 -0.2047
  913MOL0     C20429   7.883   8.751   1.845 -0.0613 -0.6533 -0.3174
  913MOL0     C20430   7.995   8.842   1.866 -0.6402  0.4049  1.0465
  913MOL0     O20431   8.178   8.855   2.216  0.3499 -0.7310 -0.3920
  913MOL0     C20432   8.434   8.943   2.255  0.5079  0.2083 -0.0424
  913MOL0     C20433   8.556   9.019   2.270  1.0909  0.7245  0.1630
  913MOL0     N20434   8.529   9.693   2.243  0.7692 -0.5946 -0.0300
  913MOL0     N20435   8.404   9.665   2.243  0.1348 -0.1995  0.3075
  913MOL0     C20436   7.330   9.469   1.819 -0.6133 -0.3624 -0.8043
  913MOL0     C20437   7.203   9.516   1.771 -0.2503 -0.1110  0.4398
  913MOL0     C20438   6.737   9.506   1.781  0.4831  0.8043  0.6948
  913MOL0     C20439   6.715   9.641   1.767  0.6245  0.2909 -0.5680
  913MOL0     C20440   6.598   9.689   1.722  0.1453 -0.0465  0.2359
  913MOL0     C20441   6.488   9.609   1.685 -0.5768  0.8718  0.0314
  913MOL0     O20442   6.357   9.648   1.654 -0.7818 -0.4726 -0.1067
  913MOL0     C20443   6.318   9.781   1.655 -0.0818 -0.4381 -0.3137
  913MOL0     C20444   6.367   9.847   1.529 -0.0293 -0.3246  1.0587
  913MOL0     C20445   6.411   9.992   1.553 -0.4122 -1.2572  0.5448
  913MOL0     C20446   6.305  10.091   1.508 -0.4179  0.4824  0.6945
  913MOL0     C20447   6.348  10.222   1.538  0.1348 -0.4260 -0.0872
  913MOL0     C20448   6.384  10.336   1.564  0.0570  0.3926 -0.2174
  913MOL0     C20449   6.512   9.472   1.686  0.0984 -0.5824  0.5882
  913MOL0     C20450   6.628   9.416   1.740 -0.0642  0.2265 -0.3782
  913MOL0     H20451   7.014   9.439   2.040  0.4837  0.4392  0.1527
  913MOL0     H20452   7.213   9.346   2.113 -1.3947 -0.5103 -0.8529
  913MOL0     H20453   7.419   9.222   2.131 -0.8926  0.3313 -3.0086
  913MOL0     H20454   7.492   9.375   2.184  0.2465 -0.7862  1.0361
  913MOL0     H20455   7.647   9.149   2.042  1.2011  1.8772 -0.6618
  913MOL0     H20456   7.638   9.164   2.211  1.8496 -0.3638 -0.5482
  913MOL0     H20457   7.714   9.398   2.204  0.2505  1.7074 -0.0646
  913MOL0     H20458   7.712   9.392   2.030  0.3390  0.7546  1.2108
  913MOL0     H20459   7.867   9.225   2.217 -3.6410  0.5071  0.3642
  913MOL0     H20460   7.890   9.199   2.042 -1.3185 -2.5706  2.1684
  913MOL0     H20461   7.969   9.453   2.211  1.7082 -0.3869  0.5079
  913MOL0     H20462   8.015   9.429   2.037  1.9546 -1.4531 -0.7982
  913MOL0     H20463   8.128   9.222   2.110  1.7531  1.0267 -0.3507
  913MOL0     H20464   8.106   9.271   2.278 -1.0491 -3.4453 -0.9022
  913MOL0     H20465   8.339   9.327   2.156 -1.1749 -1.9415  0.7146
  913MOL0     H20466   8.255   9.461   2.090 -2.8077  1.4280  1.4505
  913MOL0     H20467   8.302   9.396   2.389 -0.1150  1.4321  0.9609
  913MOL0     H20468   8.193   9.525   2.327  0.9289  1.8168 -0.9018
  913MOL0     H20469   8.552   9.398   2.367  1.1205  0.9655  1.5019
  913MOL0     H20470   8.781   9.652   2.371 -2.0985  1.3701  0.4463
  913MOL0     H20471   8.802   9.639   2.202  2.9966 -1.3509  1.5414
  913MOL0     H20472   8.767   9.376   2.352 -1.0541 -1.1790 -2.9132
  913MOL0     H20473   8.912   9.457   2.361  0.9050 -2.5059 -1.5974
  913MOL0     H20474   8.894   9.444   2.095  0.4806 -0.3645 -0.6515
  913MOL0     H20475   8.942   9.298   2.185 -1.7653 -1.6754  3.1435
  913MOL0     H20476   8.763   9.256   2.017  1.7315 -0.9730  0.3419
  913MOL0     H20477   8.647   9.364   2.109  2.2591  3.2520 -0.1914
  913MOL0     H20478   8.537   9.208   1.976 -1.7874 -1.4568 -1.2966
  913MOL0     H20479   8.338   9.096   1.950  1.8904  0.9380  0.2579
  913MOL0     H20480   7.945   8.913   2.194 -0.2972  0.7927 -0.1943
  913MOL0     H20481   7.762   8.754   2.170 -0.2277  1.3036  0.0584
  913MOL0     H20482   7.554   8.629   1.767  0.7190 -0.4042 -0.2233
  913MOL0     H20483   7.618   8.792   1.789  1.7247 -0.2203  1.2052
  913MOL0     H20484   7.434   8.640   1.973  2.5961 -0.5156  1.2006
  913MOL0     H20485   7.364   8.741   1.849  2.3745  0.5076 -2.9105
  913MOL0     H20486   7.444   8.945   1.968  2.0909  1.1025  0.6677
  913MOL0     H20487   7.560   8.864   2.062 -1.9728  0.7025  3.4704
  913MOL0     H20488   7.379   8.733   2.173  0.7089 -0.7529 -1.9330
  913MOL0     H20489   7.383   8.903   2.206  0.2404  0.2432 -0.8504
  913MOL0     H20490   7.158   8.812   2.187 -1.3650  1.5435 -0.7885
  913MOL0     H20491   7.164   8.772   2.019 -1.6259  1.1399  0.4111
  913MOL0     H20492   7.192   9.003   1.949  1.5495 -0.1566 -0.3076
  913MOL0     H20493   7.227   9.049   2.113  0.8463 -2.1061  0.7247
  913MOL0     H20494   6.958   8.936   1.994 -0.2304  0.7615 -1.2930
  913MOL0     H20495   6.980   8.947   2.162 -4.2500 -1.3699 -1.9980
  913MOL0     H20496   6.857   9.136   2.042  1.0542  1.6461 -2.2547
  913MOL0     H20497   7.015   9.194   2.004 -3.0607  0.2291 -3.1587
  913MOL0     H20498   7.879   8.687   1.757 -1.1041  1.0781 -1.5857
  913MOL0     H20499   8.069   8.842   1.787 -3.2111 -0.1304 -1.5484
  913MOL0     H20500   8.412   8.875   2.337  1.1044 -1.0128 -0.8576
  913MOL0     H20501   8.624   9.013   2.355 -0.4592  0.4883  1.4299
  913MOL0     H20502   7.420   9.476   1.760  2.2168  1.7488  3.2675
  913MOL0     H20503   7.195   9.559   1.672 -1.5051 -1.5670 -0.1295
  913MOL0     H20504   6.801   9.702   1.791  1.7532 -0.4947 -2.3863
  913MOL0     H20505   6.585   9.796   1.736 -2.3504 -0.4903  2.0122
  913MOL0     H20506   6.361   9.836   1.739  0.6583 -1.4048 -0.0442
  913MOL0     H20507   6.209   9.789   1.659 -0.0962 -1.1091  1.3948
  913MOL0     H20508   6.456   9.805   1.481  0.8721  0.1249  2.2949
  913MOL0     H20509   6.286   9.846   1.455 -0.8513  1.9980  1.8317
  913MOL0     H20510   6.509  10.019   1.512 -1.3458 -0.1408 -1.0398
  913MOL0     H20511   6.414  10.005   1.661 -3.5973  0.6921  0.5223
  913MOL0     H20512   6.298  10.087   1.399 -2.5978  1.2435  0.7580
  913MOL0     H20513   6.205  10.077   1.548 -0.5555 -2.1753 -0.3648
  913MOL0     H20514   6.414  10.437   1.579 -0.8168  0.4852  1.1012
  913MOL0     H20515   6.429   9.419   1.641 -0.8510 -0.0066  1.5974
  913MOL0     H20516   6.627   9.308   1.756  2.1589  0.1902 -0.0905
  914MOL0     O20517   5.738   8.080   9.885  0.3554  0.6150 -0.3093
  914MOL0     C20518   5.827   8.076   9.961  0.2107 -0.0255 -0.3836
  914MOL0     O20519   5.821   8.095  10.098 -0.5190  0.2023 -0.3240
  914MOL0     C20520   5.696   8.106  10.154  0.4056 -0.2216 -0.6037
  914MOL0     C20521   5.628   8.007  10.237 -1.0831 -0.1149 -0.3934
  914MOL0     C20522   5.498   8.042  10.290 -0.2623  0.0493 -0.6352
  914MOL0     C20523   5.439   8.158  10.259 -0.8873 -0.6818  0.3928
  914MOL0     O20524   5.309   8.177  10.303  0.6509 -0.4228 -0.2660
  914MOL0     C20525   5.246   8.305  10.280 -0.0616  0.0290  0.9952
  914MOL0     C20526   5.122   8.325  10.381  0.0108 -0.8295  0.2665
  914MOL0     C20527   5.006   8.221  10.375 -0.4918  0.2065 -0.2527
  914MOL0     C20528   4.907   8.255  10.493  0.5069 -0.2631 -0.6335
  914MOL0     C20529   4.787   8.162  10.497 -0.5439  0.3685  0.4786
  914MOL0     C20530   4.699   8.196  10.611  0.0069  0.0672  0.2221
  914MOL0     C20531   4.632   8.331  10.612  0.4104 -1.9914  1.2331
  914MOL0     C20532   4.522   8.359  10.704 -0.0207  0.9341  0.0840
  914MOL0     N20533   4.394   8.308  10.643 -0.0452 -0.3727 -0.0695
  914MOL0     C20534   4.313   8.206  10.693  0.6177 -0.0935 -0.3688
  914MOL0     C20535   4.201   8.205  10.636  0.7883  0.1073  0.3460
  914MOL0     C20536   4.089   8.111  10.658  0.4074 -0.2975 -0.3520
  914MOL0     C20537   3.972   8.170  10.737 -0.0368  0.4686  0.3337
  914MOL0     C20538   3.891   8.275  10.659 -0.3389 -0.8258  0.0428
  914MOL0     C20539   3.751   8.305  10.722 -0.1489  0.0426  0.0082
  914MOL0     O20540   3.688   8.395  10.630 -1.1360 -0.1042 -0.0056
  914MOL0     C20541   3.558   8.426  10.643  0.2605 -0.8192  0.3615
  914MOL0     C20542   3.515   8.530  10.567  0.1710 -0.0374  0.0110
  914MOL0     C20543   3.375   8.561  10.567  0.4933 -0.2519 -0.8900
  914MOL0     C20544   3.290   8.503  10.652  0.2872  0.0813  0.2149
  914MOL0     C20545   3.147   8.546  10.656  0.1710  0.5234 -1.0729
  914MOL0     O20546   3.066   8.481  10.740 -0.3528  0.3501 -0.6031
  914MOL0     C20547   2.939   8.526  10.752 -0.3356 -0.3560  0.3121
  914MOL0     C20548   2.914   8.611  10.854  0.0653  0.6871 -0.6217
  914MOL0     C20549   2.785   8.678  10.864  0.2382 -0.7218  1.2171
  914MOL0     C20550   2.680   8.644  10.781 -0.8826 -1.1425  0.4438
  914MOL0     O20551   2.563   8.706  10.794 -0.4941 -0.9242 -0.3239
  914MOL0     C20552   2.467   8.701  10.688 -0.0500  0.2095  0.0866
  914MOL0     C20553   2.360   8.807  10.715 -0.0313  0.2781  0.1401
  914MOL0     C20554   2.226   8.774  10.634 -0.4535 -0.7825 -0.5426
  914MOL0     C20555   2.114   8.852  10.697  0.0772 -0.5148 -0.5044
  914MOL0     C20556   1.975   8.800  10.670 -0.4179  0.8980  0.4223
  914MOL0     C20557   1.864   8.884  10.729  0.1359 -0.4619 -0.1882
  914MOL0     C20558   1.814   8.983  10.624 -0.2590  0.3807  0.6165
  914MOL0     C20559   1.678   9.031  10.662  0.4867 -0.2556  0.0134
  914MOL0    Cl20560   1.642   9.071  10.839 -0.3611  0.2752  0.4026
  914MOL0     C20561   2.705   8.545  10.686 -0.3709  0.0049  0.8721
  914MOL0     C20562   2.838   8.493  10.666  0.2098  0.8102 -0.1585
  914MOL0     O20563   3.116   8.640  10.579 -1.0741 -0.4338  0.4432
  914MOL0     C20564   3.340   8.405  10.747  0.8869 -0.0132 -0.3542
  914MOL0     C20565   3.473   8.367  10.740 -1.0338  0.5583  0.1188
  914MOL0     N20566   4.208   8.311  10.542  0.1379 -0.1052 -0.0936
  914MOL0     N20567   4.322   8.368  10.544  0.5185  0.0814  0.5947
  914MOL0     C20568   5.520   8.258  10.200  1.3667  0.8003  0.4879
  914MOL0     C20569   5.639   8.234  10.142 -0.3940  0.9577  0.6112
  914MOL0     C20570   5.963   8.065   9.912  0.8886  0.4202 -0.3632
  914MOL0     C20571   6.000   8.069   9.771  1.1812 -0.2340 -0.5819
  914MOL0     C20572   6.134   8.058   9.747  0.1426  0.1121 -0.6145
  914MOL0     C20573   6.237   8.055   9.847  0.0576 -0.1580  0.2752
  914MOL0     O20574   6.357   8.024   9.795  0.3658 -0.1461  0.1373
  914MOL0     C20575   6.470   8.038   9.880  0.4584  0.8329  0.6036
  914MOL0     C20576   6.594   8.026   9.791 -0.6232 -0.4091 -0.0571
  914MOL0     C20577   6.630   7.881   9.762  0.0125  0.8484  0.3790
  914MOL0     C20578   6.733   7.872   9.643  0.8756  0.3207  0.2509
  914MOL0     C20579   6.868   7.891   9.685 -0.0664  0.0901 -0.6793
  914MOL0     C20580   6.984   7.873   9.734 -1.0709 -0.2791 -0.2850
  914MOL0     C20581   6.196   8.034   9.985 -0.5846  0.0207 -0.7909
  914MOL0     C20582   6.059   8.045  10.011  0.2675 -0.6428 -0.3415
  914MOL0     H20583   5.668   7.908  10.259  0.4208  0.4930 -0.2790
  914MOL0     H20584   5.434   7.988  10.359  0.3168 -0.4730 -0.5013
  914MOL0     H20585   5.204   8.301  10.180 -0.8501 -3.6986  1.3471
  914MOL0     H20586   5.316   8.389  10.285 -0.6682  0.5546  0.7660
  914MOL0     H20587   5.083   8.421  10.348 -0.4300 -1.1387 -0.1103
  914MOL0     H20588   5.166   8.328  10.481  2.1608  1.2326 -0.6528
  914MOL0     H20589   5.037   8.116  10.379 -0.3425  0.1965 -1.2979
  914MOL0     H20590   4.948   8.225  10.281 -1.8597 -0.3968  0.5292
  914MOL0     H20591   4.959   8.243  10.588 -1.2851  1.5425  0.6639
  914MOL0     H20592   4.869   8.356  10.477 -0.1133 -0.0847  1.6373
  914MOL0     H20593   4.827   8.060  10.503  0.5022  0.8170  1.6508
  914MOL0     H20594   4.735   8.173  10.402 -1.1256 -0.7932  0.6509
  914MOL0     H20595   4.760   8.184  10.701 -1.1766  0.8019  1.1620
  914MOL0     H20596   4.623   8.117  10.609  0.3173 -0.2295 -1.1532
  914MOL0     H20597   4.705   8.399  10.658 -2.6787  0.6249  2.6230
  914MOL0     H20598   4.609   8.367  10.511 -1.7528  2.2218  2.9928
  914MOL0     H20599   4.505   8.464  10.732 -1.2756  1.1630 -1.3529
  914MOL0     H20600   4.540   8.305  10.797 -0.7577  3.5363  1.8742
  914MOL0     H20601   4.357   8.135  10.762  0.7540  0.5559  0.2258
  914MOL0     H20602   4.136   8.023  10.703 -2.3823 -1.0008  1.4959
  914MOL0     H20603   4.054   8.070  10.563 -0.2579  1.5989 -0.9657
  914MOL0     H20604   4.008   8.223  10.826  0.8115  1.8940 -0.8091
  914MOL0     H20605   3.905   8.086  10.759 -0.3914  0.1442 -1.7332
  914MOL0     H20606   3.948   8.368  10.667 -0.6706 -0.3066 -2.5861
  914MOL0     H20607   3.886   8.239  10.556  0.1402 -2.4274  0.5566
  914MOL0     H20608   3.752   8.345  10.823  5.9034 -1.7182  1.0624
  914MOL0     H20609   3.693   8.213  10.712  1.7577 -1.1253 -0.8569
  914MOL0     H20610   3.585   8.580  10.502  2.1205  0.6629  2.4812
  914MOL0     H20611   3.348   8.637  10.495  1.5497  1.5213  0.5050
  914MOL0     H20612   2.985   8.640  10.930 -0.6156  0.2266  0.2142
  914MOL0     H20613   2.757   8.754  10.937  0.1180  0.5725 -0.1500
  914MOL0     H20614   2.417   8.604  10.691 -1.6520  1.0146  2.3772
  914MOL0     H20615   2.513   8.742  10.597 -0.9680  1.2050  0.0392
  914MOL0     H20616   2.394   8.910  10.700 -0.8861  0.6095  0.4362
  914MOL0     H20617   2.342   8.803  10.823  0.2675 -0.2904  0.1715
  914MOL0     H20618   2.213   8.666  10.648  0.0595 -0.6081  1.5381
  914MOL0     H20619   2.235   8.791  10.526 -1.7150 -2.1728 -0.8989
  914MOL0     H20620   2.125   8.875  10.803 -3.9022 -0.3344  0.0279
  914MOL0     H20621   2.116   8.952  10.652 -0.2359  1.4973  3.5780
  914MOL0     H20622   1.969   8.710  10.732  3.3537  1.9244  2.6367
  914MOL0     H20623   1.954   8.779  10.565 -1.7027  0.8643  0.6767
  914MOL0     H20624   1.903   8.939  10.815 -1.3928  0.2405  0.0825
  914MOL0     H20625   1.785   8.821  10.769  0.8194 -0.1732  1.7373
  914MOL0     H20626   1.876   9.073  10.618 -2.8136  2.1324 -1.6365
  914MOL0     H20627   1.811   8.940  10.523  2.9349  1.3789 -0.0007
  914MOL0     H20628   1.617   8.947  10.628 -0.5946  0.3327  0.4495
  914MOL0     H20629   1.659   9.123  10.607 -0.5471  0.2294  1.1453
  914MOL0     H20630   2.622   8.511  10.625 -0.9898 -0.4845  1.9641
  914MOL0     H20631   2.856   8.414  10.594  1.1049 -1.2295  2.1640
  914MOL0     H20632   3.277   8.345  10.812  1.0484 -2.6500 -2.4738
  914MOL0     H20633   3.496   8.286  10.808 -1.6234 -0.8422 -1.3051
  914MOL0     H20634   5.481   8.357  10.180 -0.4167 -0.4723 -3.3707
  914MOL0     H20635   5.683   8.299  10.068 -3.5817  2.4119 -0.1650
  914MOL0     H20636   5.931   8.083   9.688  2.1739 -0.9545 -1.5676
  914MOL0     H20637   6.161   8.074   9.643 -0.9952  0.8099 -0.8238
  914MOL0     H20638   6.460   7.958   9.954 -2.2781 -0.0592 -0.6324
  914MOL0     H20639   6.468   8.136   9.928  0.6076  0.5991  1.0949
  914MOL0     H20640   6.567   8.082   9.700 -1.3405 -1.6902 -0.6631
  914MOL0     H20641   6.683   8.073   9.832 -1.8947  0.6069  1.6434
  914MOL0     H20642   6.542   7.820   9.740 -0.4657  1.6896 -0.1119
  914MOL0     H20643   6.686   7.829   9.840 -0.8561 -0.5270  0.1086
  914MOL0     H20644   6.734   7.770   9.603 -0.2703  0.4186 -0.0750
  914MOL0     H20645   6.701   7.935   9.559  1.7360 -0.8042 -0.9469
  914MOL0     H20646   7.083   7.863   9.773  0.7500  5.0491 -2.5741
  914MOL0     H20647   6.263   8.014  10.067  2.3235  3.5839 -2.0486
  914MOL0     H20648   6.040   8.027  10.116  1.9928 -1.3298 -0.1038
  915MOL0     O20649   0.554   7.898   6.023 -0.1726 -0.0877  0.3316
  915MOL0     C20650   0.616   7.935   5.921 -0.3816 -0.1152  0.1242
  915MOL0     O20651   0.564   7.978   5.809 -0.6383  0.5906  0.4098
  915MOL0     C20652   0.428   7.987   5.800  1.0111  0.4457  0.6039
  915MOL0     C20653   0.329   7.895   5.850  0.8575  0.4302 -0.1495
  915MOL0     C20654   0.186   7.920   5.820 -0.3833 -0.4038 -1.4583
  915MOL0     C20655   0.146   8.033   5.760 -0.1384 -1.1476 -0.1779
  915MOL0     O20656   0.015   8.054   5.741  0.2915 -0.4526  0.1730
  915MOL0     C20657  -0.048   8.026   5.614  0.1408  0.1478  0.1746
  915MOL0     C20658  -0.204   8.048   5.627  0.2833 -0.6477  0.1142
  915MOL0     C20659  -0.266   8.008   5.499  0.2595 -0.0849 -0.6821
  915MOL0     C20660  -0.411   8.054   5.489 -0.6163 -0.2462 -0.7063
  915MOL0     C20661  -0.494   8.022   5.360 -1.1800 -0.3821  0.3416
  915MOL0     C20662  -0.461   8.093   5.231  0.5621 -0.6619  0.1639
  915MOL0     C20663  -0.352   8.021   5.161  0.4145 -0.0718  0.1221
  915MOL0     C20664  -0.322   8.100   5.030 -0.4254  0.0692  0.4470
  915MOL0     N20665  -0.429   8.069   4.924 -0.0726  1.1670 -0.0749
  915MOL0     C20666  -0.432   7.949   4.858 -0.5905 -0.6124  0.5462
  915MOL0     C20667  -0.524   7.960   4.765  0.6225 -1.2546  0.5936
  915MOL0     C20668  -0.560   7.854   4.663 -0.3721 -0.2018  0.3993
  915MOL0     C20669  -0.707   7.853   4.617  0.0505 -0.2403  0.3686
  915MOL0     C20670  -0.725   7.743   4.510  0.0902 -1.2162 -0.4686
  915MOL0     C20671  -0.867   7.711   4.467  1.4449  0.6721 -0.0068
  915MOL0     O20672  -0.946   7.829   4.439  0.7704  0.1333  0.3445
  915MOL0     C20673  -1.071   7.816   4.383 -0.3583 -0.6383  0.4795
  915MOL0     C20674  -1.152   7.700   4.389  0.0217 -0.9095 -0.1439
  915MOL0     C20675  -1.282   7.704   4.339  0.4620  1.0681  0.1122
  915MOL0     C20676  -1.347   7.821   4.298 -0.2567  0.2997 -0.9083
  915MOL0     C20677  -1.479   7.819   4.250  0.2815 -0.4140  1.0434
  915MOL0     O20678  -1.548   7.703   4.252  0.3796 -0.1845 -0.3733
  915MOL0     C20679  -1.676   7.695   4.202  0.0948  0.9706 -0.4931
  915MOL0     C20680  -1.783   7.658   4.287  0.1028  0.1933 -0.5278
  915MOL0     C20681  -1.909   7.642   4.230  0.0763  0.2707  0.6233
  915MOL0     C20682  -1.922   7.636   4.090 -0.6418  0.0568  0.7020
  915MOL0     O20683  -2.044   7.609   4.038  0.2230 -0.0289 -0.6891
  915MOL0     C20684  -2.104   7.718   3.976  0.2616  0.2720 -0.0041
  915MOL0     C20685  -2.231   7.753   4.052 -0.5648  0.6355  0.6294
  915MOL0     C20686  -2.320   7.638   4.096  0.1604  0.4734  0.1914
  915MOL0     C20687  -2.442   7.694   4.149  0.1037 -0.0880  0.1375
  915MOL0     C20688  -2.526   7.587   4.208  0.5228  0.1576 -0.2504
  915MOL0     C20689  -2.671   7.648   4.218 -0.4645  0.7279 -0.6474
  915MOL0     C20690  -2.753   7.552   4.307 -1.0075 -0.3575 -0.0496
  915MOL0     C20691  -2.901   7.587   4.288 -0.8958  0.4202 -0.3502
  915MOL0    Cl20692  -3.015   7.500   4.393  0.2811 -0.2863  0.0857
  915MOL0     C20693  -1.814   7.664   4.005 -0.1656 -0.6226  0.4159
  915MOL0     C20694  -1.691   7.699   4.063  0.4827  0.3767 -0.3573
  915MOL0     O20695  -1.530   7.923   4.206  0.0990 -0.1618 -0.3007
  915MOL0     C20696  -1.264   7.933   4.284  0.5369  0.0268 -0.3550
  915MOL0     C20697  -1.130   7.932   4.326  0.4161 -0.3699 -0.2725
  915MOL0     N20698  -0.574   8.089   4.769 -0.1112  0.0382 -0.4723
  915MOL0     N20699  -0.515   8.152   4.863  0.4477 -0.5556 -0.3499
  915MOL0     C20700   0.243   8.127   5.718 -0.5220 -0.6497  0.7125
  915MOL0     C20701   0.380   8.106   5.738  0.1766 -0.4033 -1.1201
  915MOL0     C20702   0.759   7.926   5.929  0.0568  0.0842  0.4431
  915MOL0     C20703   0.828   7.934   6.055  0.5564 -0.0016 -0.5466
  915MOL0     C20704   0.969   7.930   6.062 -0.7827  0.3140  0.5143
  915MOL0     C20705   1.046   7.918   5.949 -0.9682  1.2234  0.4096
  915MOL0     O20706   1.177   7.892   5.949  0.5493 -0.0199  0.0580
  915MOL0     C20707   1.247   7.862   6.068 -0.4662  0.2416  0.6954
  915MOL0     C20708   1.402   7.815   6.039  0.3593  0.4054 -0.7967
  915MOL0     C20709   1.500   7.813   6.159 -0.4737  0.1709 -0.9464
  915MOL0     C20710   1.429   7.794   6.296 -0.1407 -0.1295  0.1854
  915MOL0     C20711   1.516   7.802   6.416 -0.6653  1.4797  0.8047
  915MOL0     C20712   1.576   7.828   6.519 -0.3801  0.3607  0.0979
  915MOL0     C20713   0.985   7.932   5.829  0.7349  0.4065 -0.4294
  915MOL0     C20714   0.849   7.936   5.816 -0.0993 -0.4766 -0.6600
  915MOL0     H20715   0.343   7.800   5.901 -1.2085 -0.0489 -0.3796
  915MOL0     H20716   0.109   7.857   5.863  0.1983 -0.0654  0.1613
  915MOL0     H20717  -0.028   7.923   5.583  1.5750  1.0807 -2.3610
  915MOL0     H20718  -0.013   8.093   5.534 -2.2349 -0.8172 -1.8141
  915MOL0     H20719  -0.203   8.157   5.644  0.5012 -0.3674 -1.5424
  915MOL0     H20720  -0.243   7.990   5.711  1.3194  2.1234  2.6973
  915MOL0     H20721  -0.259   7.900   5.483  1.4985 -0.0796 -0.3020
  915MOL0     H20722  -0.211   8.064   5.423 -0.4267 -0.7081 -1.6536
  915MOL0     H20723  -0.463   8.018   5.579  1.2799  2.2673  1.5444
  915MOL0     H20724  -0.404   8.162   5.500  4.2526 -0.5028  1.1113
  915MOL0     H20725  -0.596   8.050   5.387 -0.8690  1.2201 -0.0634
  915MOL0     H20726  -0.516   7.915   5.352 -2.1270 -0.0930 -1.2676
  915MOL0     H20727  -0.444   8.198   5.259  0.5314 -1.1290  2.0910
  915MOL0     H20728  -0.553   8.095   5.172  1.2438 -0.6476 -0.9177
  915MOL0     H20729  -0.253   8.019   5.207  1.9988  1.1942 -2.9231
  915MOL0     H20730  -0.396   7.925   5.132 -0.2708  0.1276  0.4813
  915MOL0     H20731  -0.224   8.076   4.986  0.3986 -1.3007  2.8413
  915MOL0     H20732  -0.320   8.208   5.045 -0.5163  0.5484 -2.3113
  915MOL0     H20733  -0.375   7.857   4.867 -1.1720 -1.2880 -1.8432
  915MOL0     H20734  -0.530   7.752   4.690 -4.7273 -1.6408  0.6487
  915MOL0     H20735  -0.505   7.889   4.575  0.1831  0.0721  0.8543
  915MOL0     H20736  -0.739   7.949   4.575  1.8740 -0.9880 -3.1233
  915MOL0     H20737  -0.774   7.830   4.701 -1.6819 -0.4777 -1.0127
  915MOL0     H20738  -0.665   7.763   4.422 -1.1696  2.4078 -0.6862
  915MOL0     H20739  -0.679   7.657   4.560  2.8297  0.6356  0.4020
  915MOL0     H20740  -0.911   7.654   4.550  3.9624 -1.1043  0.2381
  915MOL0     H20741  -0.858   7.656   4.374 -2.5023  2.1761 -1.4597
  915MOL0     H20742  -1.131   7.607   4.441  1.0792  0.8943  2.9033
  915MOL0     H20743  -1.326   7.605   4.337  2.3790  0.1838  0.0326
  915MOL0     H20744  -1.764   7.644   4.393  1.2398  1.8604 -0.4671
  915MOL0     H20745  -1.988   7.598   4.289 -0.6731 -0.8345 -1.1142
  915MOL0     H20746  -2.127   7.682   3.875 -0.0503 -1.3216  0.5916
  915MOL0     H20747  -2.038   7.803   3.963 -0.5313  0.5382 -2.8646
  915MOL0     H20748  -2.287   7.813   3.979 -1.1483  3.1443  2.9695
  915MOL0     H20749  -2.205   7.813   4.140  2.0878 -1.5082  1.4492
  915MOL0     H20750  -2.271   7.579   4.174 -2.3718 -1.9803  0.0564
  915MOL0     H20751  -2.350   7.580   4.009  3.4304 -0.6755 -0.3215
  915MOL0     H20752  -2.429   7.768   4.228 -4.0025 -0.3296  1.2892
  915MOL0     H20753  -2.485   7.736   4.057  1.9936  3.1088  0.5760
  915MOL0     H20754  -2.482   7.563   4.305  1.4574  0.3719 -0.6135
  915MOL0     H20755  -2.529   7.499   4.144  0.4683  0.4183 -0.6108
  915MOL0     H20756  -2.706   7.649   4.115  0.9147 -0.3338 -1.1474
  915MOL0     H20757  -2.667   7.750   4.257 -0.8021  0.4345  0.1732
  915MOL0     H20758  -2.723   7.449   4.283 -1.1692 -0.9932  2.2259
  915MOL0     H20759  -2.715   7.567   4.409 -0.1434 -0.9073 -0.2812
  915MOL0     H20760  -2.938   7.561   4.189 -0.0665  0.0977 -0.5857
  915MOL0     H20761  -2.927   7.691   4.310 -0.2018  0.6308 -0.4961
  915MOL0     H20762  -1.828   7.673   3.898 -0.2196 -1.0110  0.3879
  915MOL0     H20763  -1.613   7.727   3.993 -0.1796  0.6802 -0.9885
  915MOL0     H20764  -1.303   8.027   4.246  0.9037  0.3120 -0.0345
  915MOL0     H20765  -1.082   8.029   4.318 -1.1468  0.4290 -0.3863
  915MOL0     H20766   0.209   8.218   5.670  2.1700  1.1482  1.9589
  915MOL0     H20767   0.439   8.185   5.693 -1.7456  1.6156 -0.2966
  915MOL0     H20768   0.775   7.942   6.149  3.0524 -0.9525  1.0646
  915MOL0     H20769   1.006   7.932   6.164 -2.1193  0.9341  1.0211
  915MOL0     H20770   1.192   7.789   6.128  1.8918 -1.0585  1.4254
  915MOL0     H20771   1.269   7.951   6.127  0.4039  0.6673 -0.2351
  915MOL0     H20772   1.396   7.710   6.011 -1.8335 -0.2774  1.8946
  915MOL0     H20773   1.445   7.875   5.958 -1.3823  2.7351 -0.0958
  915MOL0     H20774   1.550   7.910   6.158  1.5512 -0.6596  2.5474
  915MOL0     H20775   1.578   7.737   6.145 -0.9561 -0.1125 -2.3105
  915MOL0     H20776   1.347   7.866   6.309  0.1157  0.1268  0.3846
  915MOL0     H20777   1.393   7.692   6.309 -1.1210  0.1078 -0.4980
  915MOL0     H20778   1.627   7.836   6.613 -1.6279 -1.2890  0.9735
  915MOL0     H20779   1.042   7.923   5.738  1.5567  1.1880 -0.0066
  915MOL0     H20780   0.797   7.945   5.721  0.4612  0.0838 -0.9239
  916MOL0     O20781   2.410   4.974   0.670  0.1752  0.5905 -0.5431
  916MOL0     C20782   2.451   5.091   0.672  0.4647 -0.6384  1.1767
  916MOL0     O20783   2.368   5.202   0.670 -0.1323  0.4890  0.2542
  916MOL0     C20784   2.240   5.176   0.685  0.1989 -0.1264  0.0229
  916MOL0     C20785   2.185   5.147   0.816 -0.4959 -0.0577 -0.0906
  916MOL0     C20786   2.048   5.126   0.835  0.1904  0.1479 -0.9114
  916MOL0     C20787   1.964   5.141   0.730  1.0791 -0.1626 -1.8634
  916MOL0     O20788   1.826   5.130   0.754  0.8137  0.5143 -0.0897
  916MOL0     C20789   1.759   5.193   0.862 -0.2114 -0.2695  0.4935
  916MOL0     C20790   1.669   5.095   0.941  0.2116 -0.1497 -0.3481
  916MOL0     C20791   1.608   5.149   1.071  0.6585 -0.7386 -0.6097
  916MOL0     C20792   1.512   5.056   1.138  0.7219  0.9506  0.0083
  916MOL0     C20793   1.416   5.112   1.233  0.0878  0.3376  0.1507
  916MOL0     C20794   1.304   5.007   1.268  0.2524  0.2053  0.8350
  916MOL0     C20795   1.202   5.062   1.372 -0.2756  0.8053  0.3064
  916MOL0     C20796   1.111   5.176   1.318  0.2353 -0.8772 -0.2392
  916MOL0     N20797   1.020   5.113   1.221 -1.2568 -0.0257 -0.0529
  916MOL0     C20798   0.885   5.109   1.242  0.2895  0.1195  0.2654
  916MOL0     C20799   0.838   5.077   1.119  0.0930 -0.1954  0.7380
  916MOL0     C20800   0.691   5.048   1.093 -0.2625 -0.1601  0.2199
  916MOL0     C20801   0.628   5.171   1.004 -0.4486  0.4325  0.2797
  916MOL0     C20802   0.584   5.293   1.086 -0.4391  0.6996 -0.0769
  916MOL0     C20803   0.439   5.281   1.136  1.0817  0.1047 -0.5096
  916MOL0     O20804   0.354   5.288   1.024 -0.1953 -0.1591 -0.3727
  916MOL0     C20805   0.222   5.283   1.040  0.1520 -0.5178 -0.3062
  916MOL0     C20806   0.155   5.313   1.160  0.7536  0.2021 -0.6887
  916MOL0     C20807   0.021   5.304   1.178 -0.0456 -0.7492 -0.0351
  916MOL0     C20808  -0.067   5.279   1.065 -0.1671  0.7814  0.5132
  916MOL0     C20809  -0.220   5.281   1.080  0.1143 -0.1281  0.2233
  916MOL0     O20810  -0.266   5.268   1.209 -0.1436  0.0108 -0.1913
  916MOL0     C20811  -0.397   5.251   1.240  1.1011  0.6805 -0.5808
  916MOL0     C20812  -0.508   5.271   1.156 -0.0520 -0.8412 -0.5088
  916MOL0     C20813  -0.635   5.236   1.203 -0.4614 -0.4301 -0.5828
  916MOL0     C20814  -0.661   5.204   1.342  0.6613  0.0721 -0.2945
  916MOL0     O20815  -0.798   5.180   1.388 -0.8407 -0.1876 -1.0903
  916MOL0     C20816  -0.907   5.233   1.305 -0.5377 -0.0280 -0.4679
  916MOL0     C20817  -1.051   5.194   1.348  0.1631  0.1206  1.1845
  916MOL0     C20818  -1.065   5.041   1.343 -0.0967 -0.2456 -1.2096
  916MOL0     C20819  -1.177   5.003   1.439  0.2075 -0.3907  0.0944
  916MOL0     C20820  -1.159   5.020   1.585 -1.2316  0.4105 -0.4802
  916MOL0     C20821  -1.236   4.902   1.653  0.4551  0.3603 -0.2695
  916MOL0     C20822  -1.393   4.906   1.635 -0.6805  0.3462 -0.3600
  916MOL0     C20823  -1.461   4.802   1.718 -0.4808  1.1283 -0.2330
  916MOL0    Cl20824  -1.644   4.825   1.734  0.0509 -0.1862  0.3241
  916MOL0     C20825  -0.549   5.191   1.424 -0.0376 -0.2798 -0.7642
  916MOL0     C20826  -0.420   5.215   1.375  0.2386  0.4305 -0.6153
  916MOL0     O20827  -0.286   5.270   0.979  0.7816 -0.3584 -0.4566
  916MOL0     C20828   0.002   5.252   0.947 -0.1761 -0.6054 -0.6529
  916MOL0     C20829   0.139   5.261   0.933 -0.3020 -0.1940 -0.5249
  916MOL0     N20830   0.942   5.059   1.034 -0.2145  0.2064 -0.0187
  916MOL0     N20831   1.058   5.079   1.095 -0.1722  0.4444  0.4399
  916MOL0     C20832   2.014   5.159   0.602 -1.2521 -0.0037  0.7901
  916MOL0     C20833   2.147   5.182   0.586 -0.6378 -0.4184  0.2372
  916MOL0     C20834   2.598   5.113   0.655 -1.3139 -0.3306  0.3392
  916MOL0     C20835   2.680   5.005   0.694 -0.0774 -0.6197  0.4430
  916MOL0     C20836   2.823   5.021   0.698 -0.7483  0.2220 -0.9008
  916MOL0     C20837   2.889   5.130   0.639 -0.2778 -0.4916 -0.4774
  916MOL0     O20838   3.028   5.158   0.639  0.4311  0.5126  0.2226
  916MOL0     C20839   3.125   5.047   0.651 -0.0890 -0.1654  0.7257
  916MOL0     C20840   3.248   5.086   0.571 -0.3248  0.5744  0.1098
  916MOL0     C20841   3.207   5.103   0.424 -0.3828 -0.3553 -0.8623
  916MOL0     C20842   3.279   5.217   0.361  0.0979 -0.3925 -1.5781
  916MOL0     C20843   3.264   5.250   0.224 -0.0507  0.2938  0.4600
  916MOL0     C20844   3.255   5.282   0.112  0.9337  0.3888  0.2291
  916MOL0     C20845   2.799   5.230   0.598  0.4177 -1.1561  0.4180
  916MOL0     C20846   2.660   5.237   0.613 -0.8105 -0.5361  0.6967
  916MOL0     H20847   2.250   5.136   0.903 -1.4393 -1.3716  0.4885
  916MOL0     H20848   2.011   5.080   0.927  0.8517  1.1985 -0.0898
  916MOL0     H20849   1.695   5.278   0.833  0.9628  0.4661  0.0069
  916MOL0     H20850   1.837   5.240   0.923  0.7444 -3.1351  1.6415
  916MOL0     H20851   1.720   5.003   0.969 -2.3134 -2.1618 -1.9129
  916MOL0     H20852   1.584   5.059   0.882 -2.2457  0.3951  2.5884
  916MOL0     H20853   1.557   5.241   1.042 -0.9877 -1.1779  0.7204
  916MOL0     H20854   1.697   5.177   1.128  0.8336  1.6908 -1.9762
  916MOL0     H20855   1.452   5.012   1.058  2.2972 -1.5847  0.1004
  916MOL0     H20856   1.569   4.982   1.195 -1.7609 -1.3547 -0.3094
  916MOL0     H20857   1.359   5.191   1.184  1.7515  1.4863 -0.0054
  916MOL0     H20858   1.459   5.143   1.328 -0.6578  0.8011  0.3403
  916MOL0     H20859   1.354   4.922   1.315  1.9659  1.6414  1.7287
  916MOL0     H20860   1.260   4.967   1.176  0.4516  0.1834  0.7486
  916MOL0     H20861   1.151   4.975   1.416  2.7626 -0.8305  0.8326
  916MOL0     H20862   1.260   5.101   1.455  0.2206  0.8324 -0.0520
  916MOL0     H20863   1.169   5.259   1.277 -0.0387 -0.4105  0.3010
  916MOL0     H20864   1.069   5.225   1.406  1.9906 -0.5343  0.4591
  916MOL0     H20865   0.829   5.116   1.335  0.3510  1.8652  0.2190
  916MOL0     H20866   0.638   5.030   1.187  0.1311 -1.0133  0.2825
  916MOL0     H20867   0.691   4.960   1.028  1.6709 -2.0928  2.6185
  916MOL0     H20868   0.537   5.145   0.949  0.4774  0.9768 -1.5620
  916MOL0     H20869   0.706   5.195   0.932  1.2329  0.3867  2.0126
  916MOL0     H20870   0.654   5.305   1.169 -0.4062 -0.1580  0.0297
  916MOL0     H20871   0.591   5.388   1.031 -0.9377  0.0944 -1.2246
  916MOL0     H20872   0.428   5.358   1.213 -1.4856 -2.4813  1.9796
  916MOL0     H20873   0.421   5.188   1.191  1.1561 -0.0775 -0.7944
  916MOL0     H20874   0.213   5.359   1.239 -0.3998  1.2531 -0.4205
  916MOL0     H20875  -0.025   5.318   1.275 -1.2987  1.4977 -0.8869
  916MOL0     H20876  -0.509   5.302   1.052  0.5053 -1.3354 -0.6724
  916MOL0     H20877  -0.708   5.240   1.123  0.1286 -0.1451 -1.1073
  916MOL0     H20878  -0.891   5.203   1.201 -0.4718 -1.1058 -0.1617
  916MOL0     H20879  -0.902   5.342   1.312 -4.4742  0.1938  2.8840
  916MOL0     H20880  -1.127   5.219   1.274  2.5325 -1.9642 -2.2432
  916MOL0     H20881  -1.083   5.238   1.443 -0.5860 -0.1929  1.0829
  916MOL0     H20882  -0.969   5.004   1.377 -1.7932 -2.6342  1.4052
  916MOL0     H20883  -1.079   4.992   1.246  2.7961 -1.7369 -0.9724
  916MOL0     H20884  -1.260   5.068   1.409  0.0961  0.5869  2.3247
  916MOL0     H20885  -1.211   4.902   1.418 -1.3960 -0.1350  1.2926
  916MOL0     H20886  -1.199   5.112   1.627  1.6022  0.3880  2.6121
  916MOL0     H20887  -1.055   5.010   1.614 -1.8358 -3.5471  1.0119
  916MOL0     H20888  -1.222   4.913   1.761 -0.6710  0.7506 -0.1431
  916MOL0     H20889  -1.191   4.805   1.628  1.0651 -0.0485  2.1515
  916MOL0     H20890  -1.427   4.997   1.686  0.6890  2.1983 -2.5512
  916MOL0     H20891  -1.431   4.905   1.533 -0.3383 -2.5955 -0.5375
  916MOL0     H20892  -1.425   4.795   1.821  0.6487  1.7728 -0.5632
  916MOL0     H20893  -1.439   4.708   1.667  1.7867  1.2922  0.3482
  916MOL0     H20894  -0.571   5.165   1.527 -2.9715  1.5108 -0.8201
  916MOL0     H20895  -0.334   5.203   1.441  0.0547  1.0882 -0.2506
  916MOL0     H20896  -0.064   5.228   0.864 -1.6346 -1.2947  0.6626
  916MOL0     H20897   0.198   5.237   0.844  0.9753  1.7471 -0.2542
  916MOL0     H20898   1.940   5.168   0.523  1.8085  0.3282 -2.2861
  916MOL0     H20899   2.192   5.189   0.488  2.1469  0.8149  1.5056
  916MOL0     H20900   2.624   4.923   0.738  1.2894 -2.2050 -0.6724
  916MOL0     H20901   2.883   4.952   0.757 -0.0701 -0.4425 -2.3158
  916MOL0     H20902   3.081   4.954   0.614 -1.1263 -0.1444  1.8358
  916MOL0     H20903   3.160   5.033   0.753 -0.8967  0.5204  1.1136
  916MOL0     H20904   3.308   5.171   0.606 -0.4257  0.7283 -0.0872
  916MOL0     H20905   3.317   5.001   0.571  0.8674  1.5061  0.8228
  916MOL0     H20906   3.103   5.133   0.404 -0.1655  1.9155  1.0210
  916MOL0     H20907   3.230   5.007   0.378  1.0883 -0.7739  0.6738
  916MOL0     H20908   3.247   5.309   0.411  0.1657 -1.4522  0.5395
  916MOL0     H20909   3.383   5.196   0.385  0.1143  0.3889 -0.9068
  916MOL0     H20910   3.245   5.313   0.010  1.8967 -0.4415 -0.1362
  916MOL0     H20911   2.844   5.321   0.559  0.2436 -0.9238  0.7569
  916MOL0     H20912   2.599   5.323   0.589  0.5168  0.2557  0.0372
  917MOL0     O20913   6.185   7.344   9.914 -0.3735  0.2150  0.5303
  917MOL0     C20914   6.204   7.219   9.928  0.0032 -1.2341 -0.6338
  917MOL0     O20915   6.109   7.125   9.919  0.4280  0.1459  0.1265
  917MOL0     C20916   5.977   7.160   9.941 -0.0885 -0.1121 -0.5817
  917MOL0     C20917   5.928   7.138  10.066 -1.0388 -0.0066 -0.8659
  917MOL0     C20918   5.793   7.157  10.090 -0.1876  0.1431 -0.0286
  917MOL0     C20919   5.699   7.187   9.992  0.1904 -0.6977 -0.2478
  917MOL0     O20920   5.578   7.227  10.041 -0.5403  0.2764 -0.2622
  917MOL0     C20921   5.466   7.256   9.951 -0.4598  0.3615  0.7851
  917MOL0     C20922   5.332   7.204  10.006 -0.1585 -0.1916 -0.0186
  917MOL0     C20923   5.300   7.246  10.151  0.1181 -0.4682 -0.4091
  917MOL0     C20924   5.150   7.262  10.182 -0.0975  1.5369  0.9651
  917MOL0     C20925   5.104   7.398  10.129 -0.5148  1.0974 -0.6400
  917MOL0     C20926   4.950   7.400  10.138  0.8621  1.0230 -0.5000
  917MOL0     C20927   4.880   7.291  10.054  0.6540 -0.7018  0.0859
  917MOL0     C20928   4.731   7.329  10.044 -0.2413 -0.3137  0.2743
  917MOL0     N20929   4.694   7.395   9.919  0.0265 -1.0728 -0.1501
  917MOL0     C20930   4.763   7.476   9.830 -0.9376  0.1181 -0.0968
  917MOL0     C20931   4.681   7.498   9.722  0.4834  0.3097  0.4715
  917MOL0     C20932   4.708   7.575   9.603  0.0453 -0.8312  0.8750
  917MOL0     C20933   4.809   7.489   9.514  1.0770  0.2223 -0.7161
  917MOL0     C20934   4.823   7.556   9.371 -0.3939  0.5277 -0.2923
  917MOL0     C20935   4.969   7.575   9.321 -0.0991 -1.2623 -0.7083
  917MOL0     O20936   5.032   7.678   9.393  0.5931 -0.0556 -0.2630
  917MOL0     C20937   5.173   7.694   9.378  0.6503 -0.2056 -0.3048
  917MOL0     C20938   5.227   7.806   9.442 -0.3899  0.4651  0.1952
  917MOL0     C20939   5.373   7.832   9.440  0.0641  0.2858  0.1621
  917MOL0     C20940   5.459   7.731   9.387  0.3449  0.6121  0.9416
  917MOL0     C20941   5.610   7.745   9.393  0.2150  0.4654  0.0990
  917MOL0     O20942   5.662   7.836   9.483  0.3855  0.1761  0.2229
  917MOL0     C20943   5.796   7.862   9.477  0.2231 -0.0230  0.0488
  917MOL0     C20944   5.834   7.978   9.427  0.5636  0.4732 -0.0174
  917MOL0     C20945   5.971   8.004   9.416  0.1110  0.1499  0.2025
  917MOL0     C20946   6.067   7.898   9.443 -0.2954  0.1427 -0.1866
  917MOL0     O20947   6.205   7.926   9.418 -0.7075  0.9006  0.5792
  917MOL0     C20948   6.289   7.815   9.426  0.2539  1.2240  0.2188
  917MOL0     C20949   6.439   7.859   9.417  0.5503 -0.2076 -0.0451
  917MOL0     C20950   6.472   7.938   9.286  0.1269  0.5367  0.5880
  917MOL0     C20951   6.619   7.967   9.279 -0.0981  0.4959 -0.1289
  917MOL0     C20952   6.651   8.018   9.141  0.1854 -0.0026 -0.1137
  917MOL0     C20953   6.807   8.040   9.135 -0.1900 -0.2465  0.9285
  917MOL0     C20954   6.837   8.046   8.988 -0.4532  0.4387 -0.8531
  917MOL0     C20955   6.987   8.037   8.975 -0.4731 -0.1692  0.2683
  917MOL0    Cl20956   7.038   7.870   8.969  0.6161 -0.0259 -0.2931
  917MOL0     C20957   6.022   7.783   9.500  0.3599  1.0031  0.1069
  917MOL0     C20958   5.885   7.770   9.527 -0.1985 -0.2064  0.4868
  917MOL0     O20959   5.671   7.680   9.307 -0.5121  0.1661 -0.2122
  917MOL0     C20960   5.399   7.623   9.326  0.3672  0.1549  0.2755
  917MOL0     C20961   5.258   7.603   9.309 -0.9354 -1.0655 -0.0538
  917MOL0     N20962   4.563   7.418   9.745 -0.0856  0.1107 -0.7147
  917MOL0     N20963   4.574   7.369   9.866  0.5961 -0.5328 -0.2675
  917MOL0     C20964   5.748   7.202   9.861 -0.6254 -0.1799 -0.0724
  917MOL0     C20965   5.889   7.193   9.841  0.5604  0.7458 -0.0361
  917MOL0     C20966   6.338   7.163   9.971  0.3684 -0.1908  0.5231
  917MOL0     C20967   6.454   7.240   9.970 -0.1548 -0.3778  0.8170
  917MOL0     C20968   6.577   7.185   9.997 -1.3802  0.9546  0.4240
  917MOL0     C20969   6.596   7.050  10.033 -0.9412  1.6175 -0.5810
  917MOL0     O20970   6.725   7.005  10.057  0.6790  0.7850 -0.1476
  917MOL0     C20971   6.741   6.873  10.116  0.3062  0.4523 -0.4690
  917MOL0     C20972   6.885   6.856  10.165 -0.8825  1.0017 -0.1295
  917MOL0     C20973   6.976   6.780  10.058  0.1728 -0.0778  0.8961
  917MOL0     C20974   6.961   6.827   9.915 -0.6450 -0.9580  0.1807
  917MOL0     C20975   7.088   6.809   9.841  0.4912 -0.4743  0.1500
  917MOL0     C20976   7.185   6.779   9.785 -0.8903 -0.1733 -0.1234
  917MOL0     C20977   6.479   6.971  10.035  0.5124 -0.1494 -0.9450
  917MOL0     C20978   6.354   7.028  10.001  0.0170  0.1808 -0.4966
  917MOL0     H20979   5.997   7.115  10.147  1.3038 -0.7498 -2.9657
  917MOL0     H20980   5.761   7.154  10.194  2.1569  0.2631  0.7789
  917MOL0     H20981   5.483   7.209   9.853 -2.9971  1.3301 -0.1996
  917MOL0     H20982   5.478   7.364   9.946 -2.4095  0.5882  0.0674
  917MOL0     H20983   5.329   7.095   9.999  2.3420 -0.2880 -0.3623
  917MOL0     H20984   5.249   7.232   9.940 -1.5869 -0.8198  1.4591
  917MOL0     H20985   5.350   7.340  10.178  1.3685 -1.4437  0.8338
  917MOL0     H20986   5.345   7.158  10.197  0.0519 -0.1363  0.3012
  917MOL0     H20987   5.099   7.182  10.128  1.5090  0.5890  0.7650
  917MOL0     H20988   5.142   7.237  10.288  0.9459 -0.0463  0.7098
  917MOL0     H20989   5.141   7.413  10.028  3.1811  0.4988  0.4895
  917MOL0     H20990   5.148   7.479  10.189  1.6167 -0.2834 -0.2445
  917MOL0     H20991   4.910   7.499  10.114 -1.2353 -0.0436 -1.6615
  917MOL0     H20992   4.918   7.387  10.242 -2.9536 -3.1202 -1.9217
  917MOL0     H20993   4.913   7.273   9.952 -3.7298  1.0287 -1.8772
  917MOL0     H20994   4.889   7.194  10.105 -1.5901 -0.6163  0.7647
  917MOL0     H20995   4.702   7.395  10.126  3.1550 -0.6110  1.8869
  917MOL0     H20996   4.674   7.236  10.047 -0.9081  0.0482 -0.6553
  917MOL0     H20997   4.864   7.515   9.838  0.0133 -2.1508 -0.3430
  917MOL0     H20998   4.746   7.672   9.638  1.7108 -2.3577  3.6722
  917MOL0     H20999   4.617   7.591   9.546  0.6348  0.0741  0.1557
  917MOL0     H21000   4.770   7.386   9.512 -0.3491  0.7037  0.3244
  917MOL0     H21001   4.907   7.489   9.562  0.2347  0.4365  1.0721
  917MOL0     H21002   4.755   7.506   9.301 -0.3411  0.8964 -0.6097
  917MOL0     H21003   4.779   7.656   9.376  1.4674  1.4642 -1.5215
  917MOL0     H21004   4.974   7.605   9.216  1.3261  0.0680 -0.2864
  917MOL0     H21005   5.015   7.477   9.338 -2.9486 -2.6898 -0.5435
  917MOL0     H21006   5.161   7.869   9.500 -0.2699  0.6577  0.1234
  917MOL0     H21007   5.415   7.920   9.489  2.4519 -0.7808  0.1354
  917MOL0     H21008   5.757   8.050   9.401 -0.0881 -0.2369 -0.0817
  917MOL0     H21009   5.999   8.103   9.381 -1.2224  0.4403 -0.1023
  917MOL0     H21010   6.268   7.732   9.358  3.0476 -1.0414  1.8824
  917MOL0     H21011   6.278   7.768   9.524  1.6848 -0.6835 -0.4821
  917MOL0     H21012   6.487   7.761   9.430 -0.5501 -0.8817 -0.8707
  917MOL0     H21013   6.447   7.911   9.513 -4.4750 -1.2335  1.2499
  917MOL0     H21014   6.423   8.035   9.279  2.3922  1.6558 -0.7932
  917MOL0     H21015   6.446   7.867   9.206  0.3804 -1.1939  1.9776
  917MOL0     H21016   6.644   8.048   9.349 -0.1403  1.5389 -1.2919
  917MOL0     H21017   6.666   7.870   9.298  1.8466  1.6565  1.5850
  917MOL0     H21018   6.606   8.113   9.111  1.9287  1.0562  0.4438
  917MOL0     H21019   6.617   7.935   9.079  0.1527 -1.2314  1.4718
  917MOL0     H21020   6.866   7.956   9.171  2.7993  0.0353 -2.6583
  917MOL0     H21021   6.829   8.142   9.169 -2.7045  1.1053 -1.1142
  917MOL0     H21022   6.780   7.969   8.935 -1.3030  0.7488 -0.4109
  917MOL0     H21023   6.803   8.145   8.956 -1.7374  2.0479  4.4884
  917MOL0     H21024   7.040   8.100   9.047  1.9748  0.0605 -1.5943
  917MOL0     H21025   7.017   8.076   8.877  0.4194 -2.1925 -0.3148
  917MOL0     H21026   6.090   7.702   9.523 -0.2384  1.0325  2.1641
  917MOL0     H21027   5.844   7.680   9.572  0.1151  0.2719  1.7513
  917MOL0     H21028   5.460   7.545   9.282 -1.6397 -1.6850  0.5634
  917MOL0     H21029   5.222   7.509   9.270 -4.1801 -0.7969  1.9458
  917MOL0     H21030   5.673   7.234   9.789 -0.7243  0.7581  0.4224
  917MOL0     H21031   5.911   7.199   9.735 -1.0469 -2.4973 -0.6785
  917MOL0     H21032   6.454   7.340   9.929  0.8944 -1.0372 -0.8885
  917MOL0     H21033   6.668   7.239   9.972  1.5045 -3.0067  1.3847
  917MOL0     H21034   6.735   6.796  10.039 -2.2754  1.8286 -1.7762
  917MOL0     H21035   6.666   6.854  10.193 -0.3463  0.7701 -1.0075
  917MOL0     H21036   6.935   6.950  10.188 -1.6073  2.1787 -2.9691
  917MOL0     H21037   6.894   6.796  10.257  0.4739  0.1033 -0.8184
  917MOL0     H21038   6.935   6.679  10.054  0.6018 -0.2158 -0.5416
  917MOL0     H21039   7.081   6.765  10.087 -0.1531 -0.3403  2.0005
  917MOL0     H21040   6.882   6.774   9.862 -1.5989 -0.9158  1.4920
  917MOL0     H21041   6.930   6.932   9.917 -0.5895 -0.9375  1.5434
  917MOL0     H21042   7.277   6.756   9.736  0.8128  3.1924  1.1426
  917MOL0     H21043   6.490   6.865  10.055  0.9600  0.4680  2.7989
  917MOL0     H21044   6.263   6.971   9.988 -0.3969  0.6897  0.1377
  918MOL0     O21045   2.558  10.381   7.846  0.5217  0.0191 -0.3553
  918MOL0     C21046   2.556  10.417   7.963  0.3522  0.2705 -0.3144
  918MOL0     O21047   2.476  10.370   8.063 -0.1677  0.7654  0.1635
  918MOL0     C21048   2.370  10.285   8.058 -0.2812  0.6001  1.0063
  918MOL0     C21049   2.340  10.206   7.946 -0.0901 -0.6582  0.0460
  918MOL0     C21050   2.225  10.126   7.945  0.9421  0.0461  0.3956
  918MOL0     C21051   2.155  10.107   8.065  0.1304  0.4906 -0.4446
  918MOL0     O21052   2.051  10.013   8.079 -0.1271  0.2445  0.5746
  918MOL0     C21053   2.033   9.905   7.976 -0.0954 -0.4134  0.2932
  918MOL0     C21054   1.928   9.807   8.018  0.2513  0.6808  0.4359
  918MOL0     C21055   1.794   9.880   8.039  0.3996 -0.7271  0.2407
  918MOL0     C21056   1.684   9.798   8.112 -0.3809  0.2267  0.2221
  918MOL0     C21057   1.617   9.690   8.026 -0.2720  0.2438  0.0735
  918MOL0     C21058   1.547   9.578   8.111 -0.2698 -0.0963 -0.6535
  918MOL0     C21059   1.415   9.615   8.176  0.5200 -0.3266 -0.3891
  918MOL0     C21060   1.352   9.516   8.258  0.4920 -0.1885  0.4874
  918MOL0     N21061   1.308   9.394   8.192  0.5776 -0.5590  0.1429
  918MOL0     C21062   1.177   9.355   8.193 -0.0551  0.2929 -0.3807
  918MOL0     C21063   1.183   9.227   8.150  0.6336 -0.3474 -0.6356
  918MOL0     C21064   1.068   9.129   8.126 -0.0642  0.6726 -0.2860
  918MOL0     C21065   0.937   9.202   8.092  0.1762 -0.2001  0.2502
  918MOL0     C21066   0.840   9.089   8.045  0.9791  0.2924 -0.2802
  918MOL0     C21067   0.703   9.129   8.014 -0.2202  0.9355  0.0153
  918MOL0     O21068   0.659   9.026   7.934  0.3590  0.7506  0.6388
  918MOL0     C21069   0.522   8.985   7.949 -0.8658 -0.3268  0.3335
  918MOL0     C21070   0.437   8.998   8.052  0.5643 -1.0650 -1.2349
  918MOL0     C21071   0.305   8.949   8.043 -0.7937 -0.5941 -1.1888
  918MOL0     C21072   0.260   8.876   7.932 -0.6226  0.9821 -0.2272
  918MOL0     C21073   0.125   8.811   7.932  0.5652 -0.0743 -0.3216
  918MOL0     O21074   0.092   8.741   7.820 -0.4242 -0.0072 -0.5592
  918MOL0     C21075  -0.021   8.672   7.798 -0.6540 -0.0604  0.9377
  918MOL0     C21076  -0.139   8.699   7.863  0.7402  0.5838  0.2004
  918MOL0     C21077  -0.258   8.614   7.842 -1.0751  0.1429  0.3387
  918MOL0     C21078  -0.241   8.509   7.755 -0.7918  0.2535  0.6218
  918MOL0     O21079  -0.351   8.428   7.743 -0.8205  0.0973 -0.1830
  918MOL0     C21080  -0.335   8.288   7.757 -1.0096  0.6693  0.3275
  918MOL0     C21081  -0.474   8.223   7.774  0.1623  0.3271  0.3832
  918MOL0     C21082  -0.564   8.241   7.646 -0.1618  0.1326  0.2419
  918MOL0     C21083  -0.691   8.154   7.656  0.3559  0.4878  0.4599
  918MOL0     C21084  -0.807   8.207   7.566  0.2675 -0.0835  0.4224
  918MOL0     C21085  -0.936   8.120   7.564 -0.5609 -1.2737  0.0570
  918MOL0     C21086  -0.922   7.988   7.494 -0.3529 -0.4956 -0.3352
  918MOL0     C21087  -0.966   8.000   7.352 -0.0834 -0.3084  0.0392
  918MOL0    Cl21088  -1.142   8.040   7.328  0.5881 -0.2796  0.3013
  918MOL0     C21089  -0.119   8.485   7.687 -1.3915  0.3198 -0.0565
  918MOL0     C21090  -0.004   8.560   7.711 -0.3042 -0.2708 -1.3193
  918MOL0     O21091   0.057   8.817   8.033  0.1995  0.2755  0.0281
  918MOL0     C21092   0.355   8.865   7.826 -0.2774 -0.2874  0.7663
  918MOL0     C21093   0.482   8.917   7.834 -0.2481 -0.5561 -0.0324
  918MOL0     N21094   1.307   9.205   8.102  0.5156  0.4925 -0.5745
  918MOL0     N21095   1.385   9.298   8.136 -0.5615 -0.2853  0.3068
  918MOL0     C21096   2.185  10.186   8.180 -0.2196 -0.5446  1.0041
  918MOL0     C21097   2.294  10.274   8.173 -0.2936 -0.1428  0.2232
  918MOL0     C21098   2.658  10.510   8.020  0.1636  0.1595  0.3367
  918MOL0     C21099   2.777  10.525   7.949 -0.1354 -0.2377  0.0611
  918MOL0     C21100   2.878  10.615   7.995  0.3281 -0.0064  1.1978
  918MOL0     C21101   2.852  10.690   8.112  0.3806 -0.0260  0.1997
  918MOL0     O21102   2.945  10.762   8.178 -0.3846 -0.5223  0.3378
  918MOL0     C21103   3.075  10.778   8.117 -0.8459  0.6510 -0.4032
  918MOL0     C21104   3.143  10.890   8.197  0.7042 -0.5002  0.1419
  918MOL0     C21105   3.062  11.026   8.180 -0.4571  0.5667 -0.4546
  918MOL0     C21106   3.127  11.129   8.271 -0.1233  0.0218  0.3058
  918MOL0     C21107   3.063  11.262   8.270  0.5882  0.4758 -0.1728
  918MOL0     C21108   3.009  11.365   8.272  0.5844  0.1600 -0.1428
  918MOL0     C21109   2.730  10.676   8.177 -0.2749  0.1227  0.0464
  918MOL0     C21110   2.628  10.587   8.136 -0.7335 -0.6696  0.1006
  918MOL0     H21111   2.409  10.201   7.862  1.0936  0.1560  0.9395
  918MOL0     H21112   2.197  10.073   7.854 -0.8156 -0.7300  1.3334
  918MOL0     H21113   2.130   9.857   7.960  1.5544  1.4282  3.6149
  918MOL0     H21114   2.013   9.958   7.883  0.9051  1.2059  0.9603
  918MOL0     H21115   1.956   9.748   8.106 -1.0331 -0.5046  0.0879
  918MOL0     H21116   1.908   9.742   7.933 -0.6148  3.5458 -1.7017
  918MOL0     H21117   1.758   9.924   7.946  0.2731  2.5552  1.6889
  918MOL0     H21118   1.811   9.977   8.087  1.5465  0.8374 -3.0450
  918MOL0     H21119   1.736   9.752   8.197  1.0363  0.7819 -0.3011
  918MOL0     H21120   1.605   9.863   8.151  0.7944  0.3396  2.6205
  918MOL0     H21121   1.688   9.645   7.955  0.3829  1.0834  0.1714
  918MOL0     H21122   1.550   9.742   7.957  1.5345  0.4478 -1.6233
  918MOL0     H21123   1.613   9.534   8.186 -1.5408  0.2387  0.7186
  918MOL0     H21124   1.529   9.500   8.036  0.3378 -2.7229  1.7439
  918MOL0     H21125   1.415   9.703   8.240 -4.6828  1.8071 -2.7084
  918MOL0     H21126   1.348   9.632   8.091 -0.9167  2.9275  1.2034
  918MOL0     H21127   1.256   9.545   8.303  1.4980  3.3794  0.6795
  918MOL0     H21128   1.423   9.500   8.340  1.4445 -0.4327 -0.3668
  918MOL0     H21129   1.087   9.394   8.241 -1.3277 -3.2747  0.4690
  918MOL0     H21130   1.065   9.066   8.215 -1.0763  0.9909 -0.0892
  918MOL0     H21131   1.101   9.073   8.038  0.1216  1.4229 -0.7004
  918MOL0     H21132   0.955   9.274   8.012  1.9973 -0.9219 -0.0324
  918MOL0     H21133   0.905   9.250   8.185 -2.1273 -1.0970 -0.0190
  918MOL0     H21134   0.881   9.036   7.958  0.5920 -1.1685  0.4068
  918MOL0     H21135   0.836   9.008   8.118 -0.7488 -0.1777 -0.8729
  918MOL0     H21136   0.697   9.224   7.961 -0.7573  0.7966 -0.1790
  918MOL0     H21137   0.655   9.145   8.111 -1.8123 -0.8761 -0.3975
  918MOL0     H21138   0.461   9.060   8.137 -1.3213 -0.7441 -0.8923
  918MOL0     H21139   0.237   8.951   8.128 -1.4274 -4.6313 -1.3731
  918MOL0     H21140  -0.143   8.783   7.932 -3.0042  0.1154  0.7663
  918MOL0     H21141  -0.358   8.642   7.872  0.0675  2.6070  2.2056
  918MOL0     H21142  -0.279   8.262   7.847 -0.8354 -0.6526 -0.1317
  918MOL0     H21143  -0.279   8.250   7.671  1.6636  0.2188  2.1326
  918MOL0     H21144  -0.525   8.268   7.860 -0.0343 -1.0602  1.0275
  918MOL0     H21145  -0.463   8.117   7.801 -0.8500  1.0365  4.1085
  918MOL0     H21146  -0.508   8.215   7.556  1.8299  2.5627  0.6470
  918MOL0     H21147  -0.599   8.345   7.645 -0.8319 -0.0917 -1.0765
  918MOL0     H21148  -0.668   8.049   7.640 -2.6505 -0.5520  2.2376
  918MOL0     H21149  -0.715   8.146   7.762  0.0031 -0.6550  0.2978
  918MOL0     H21150  -0.761   8.212   7.467  0.0275 -1.2905  0.2327
  918MOL0     H21151  -0.834   8.303   7.612  0.3270 -0.1709  0.6337
  918MOL0     H21152  -1.021   8.176   7.523  0.5249  0.2548 -0.2198
  918MOL0     H21153  -0.964   8.104   7.669 -1.3089  3.1635  0.7399
  918MOL0     H21154  -0.815   7.969   7.498 -0.7090 -2.4505  1.6631
  918MOL0     H21155  -0.972   7.906   7.545  1.1661  0.2490  2.5704
  918MOL0     H21156  -0.954   7.905   7.298 -2.1494 -1.2506  1.1288
  918MOL0     H21157  -0.913   8.077   7.295  1.3386 -2.1967 -1.3123
  918MOL0     H21158  -0.128   8.404   7.615 -2.6306  1.4527 -1.2392
  918MOL0     H21159   0.088   8.533   7.659  0.0494 -2.1932  0.1675
  918MOL0     H21160   0.323   8.804   7.742 -0.7089 -0.5696  1.1308
  918MOL0     H21161   0.560   8.889   7.765  0.9797 -1.2796  1.5794
  918MOL0     H21162   2.120  10.168   8.265  1.8605 -0.2290  2.7542
  918MOL0     H21163   2.340  10.319   8.261  3.2618 -2.6408 -0.1159
  918MOL0     H21164   2.806  10.473   7.858 -1.1704  2.1532 -1.7191
  918MOL0     H21165   2.973  10.623   7.944 -0.9996 -2.4233 -1.9675
  918MOL0     H21166   3.082  10.799   8.010 -2.8942  0.4056 -0.6176
  918MOL0     H21167   3.131  10.687   8.143 -0.9560  1.1721  1.7609
  918MOL0     H21168   3.150  10.866   8.304 -0.4964 -0.6085  0.2082
  918MOL0     H21169   3.245  10.907   8.160 -0.2705  2.3620 -1.5824
  918MOL0     H21170   2.956  11.008   8.201 -0.3304 -1.3257 -1.2524
  918MOL0     H21171   3.054  11.061   8.077  0.8261 -0.6668 -1.0020
  918MOL0     H21172   3.114  11.090   8.372 -1.3677 -2.6060 -0.7885
  918MOL0     H21173   3.232  11.151   8.254  0.3941 -2.1745  0.3844
  918MOL0     H21174   2.969  11.464   8.281  0.3661  0.1449 -0.9094
  918MOL0     H21175   2.715  10.751   8.253  2.8870 -1.0094  1.9746
  918MOL0     H21176   2.532  10.578   8.185 -0.8547  1.3889  0.3037
  919MOL0     O21177   0.029  10.123   7.861 -0.4990  0.0253  0.3911
  919MOL0     C21178   0.029  10.155   7.975  0.0253  0.2076  0.1882
  919MOL0     O21179  -0.050  10.101   8.068 -0.3448 -0.1253  0.8692
  919MOL0     C21180  -0.115   9.979   8.047  0.1332  0.9798  0.0215
  919MOL0     C21181  -0.039   9.866   8.028 -0.9541  0.8941  0.3106
  919MOL0     C21182  -0.097   9.738   8.019 -0.7696 -0.2526 -0.0789
  919MOL0     C21183  -0.230   9.718   8.028  0.5380 -0.5120  0.2429
  919MOL0     O21184  -0.257   9.588   8.027 -0.1582  1.0214 -0.1667
  919MOL0     C21185  -0.392   9.570   7.986  0.1682 -0.3811 -0.6559
  919MOL0     C21186  -0.422   9.425   7.968  0.1254  0.1275  0.8902
  919MOL0     C21187  -0.566   9.383   7.942  0.3875  0.6505  0.0041
  919MOL0     C21188  -0.572   9.229   7.899  0.0058 -0.6077 -0.9555
  919MOL0     C21189  -0.726   9.195   7.888 -0.5879  0.0465  0.8189
  919MOL0     C21190  -0.764   9.150   8.030  0.0771  1.0580  0.1789
  919MOL0     C21191  -0.911   9.123   8.054 -0.1884 -0.8835 -0.2457
  919MOL0     C21192  -0.963   9.259   8.094  0.0058 -0.7865 -0.1443
  919MOL0     N21193  -1.110   9.272   8.132  0.2501  0.0813 -0.3719
  919MOL0     C21194  -1.221   9.217   8.062  0.1348  0.0217 -0.7321
  919MOL0     C21195  -1.332   9.254   8.131  0.0784 -0.1422 -0.0932
  919MOL0     C21196  -1.474   9.214   8.090 -0.8997  0.1645 -0.8865
  919MOL0     C21197  -1.563   9.191   8.209 -1.1215  0.2400 -0.7749
  919MOL0     C21198  -1.692   9.131   8.159  0.3822  0.5102  1.0438
  919MOL0     C21199  -1.804   9.102   8.273 -0.4995 -0.5342  0.7300
  919MOL0     O21200  -1.921   9.051   8.206 -0.0055 -0.3344  0.3505
  919MOL0     C21201  -2.035   9.007   8.279 -0.9103 -0.1699 -0.3916
  919MOL0     C21202  -2.041   9.003   8.419  0.3217  0.5042  0.6594
  919MOL0     C21203  -2.160   8.956   8.480  0.4848  0.2866 -0.4960
  919MOL0     C21204  -2.269   8.913   8.398 -0.1414  0.4399  1.4660
  919MOL0     C21205  -2.403   8.881   8.461 -0.3566 -0.5803  0.4401
  919MOL0     O21206  -2.408   8.903   8.596 -0.3694  0.1932  0.1604
  919MOL0     C21207  -2.529   8.886   8.660  0.5365 -0.4441  0.3697
  919MOL0     C21208  -2.572   8.761   8.704 -0.0924  0.1311 -0.5961
  919MOL0     C21209  -2.691   8.741   8.776 -0.3006 -0.1011 -0.7001
  919MOL0     C21210  -2.772   8.853   8.802 -0.2333  0.4527 -0.4922
  919MOL0     O21211  -2.878   8.847   8.887  0.0613 -0.5504  0.2081
  919MOL0     C21212  -2.971   8.746   8.843 -0.0939  0.0635 -0.2135
  919MOL0     C21213  -3.089   8.755   8.938  1.1891  0.3061  0.1063
  919MOL0     C21214  -3.222   8.694   8.897 -0.0434 -0.1471 -0.5989
  919MOL0     C21215  -3.213   8.596   8.774  0.3514  0.2706 -0.2691
  919MOL0     C21216  -3.325   8.498   8.752  0.6308  0.1987 -0.7603
  919MOL0     C21217  -3.465   8.543   8.799 -1.5091  0.2669  0.1928
  919MOL0     C21218  -3.574   8.433   8.767  0.3651  0.1039  0.6433
  919MOL0     C21219  -3.691   8.452   8.852  1.0914  0.0066 -0.9065
  919MOL0    Cl21220  -3.748   8.626   8.875 -0.0675 -0.0311  0.0022
  919MOL0     C21221  -2.726   8.981   8.762 -0.6599  0.1691 -0.1449
  919MOL0     C21222  -2.606   9.001   8.690 -0.6732 -0.0425 -0.0452
  919MOL0     O21223  -2.493   8.849   8.390  0.0201  0.3847 -0.5083
  919MOL0     C21224  -2.260   8.917   8.252 -0.0284 -0.2115  0.0420
  919MOL0     C21225  -2.140   8.963   8.206 -0.4750 -0.9118 -0.0001
  919MOL0     N21226  -1.292   9.336   8.235  0.3076  0.5456  0.2239
  919MOL0     N21227  -1.156   9.342   8.240  1.0072  0.7960 -0.1236
  919MOL0     C21228  -0.316   9.828   8.052 -0.6954 -0.1594 -0.3824
  919MOL0     C21229  -0.257   9.961   8.056 -0.3633  0.5319 -0.1995
  919MOL0     C21230   0.108  10.268   8.018  0.1041 -0.4064 -0.0766
  919MOL0     C21231   0.200  10.333   7.929  0.6243 -0.1784 -0.6738
  919MOL0     C21232   0.265  10.455   7.963 -0.9864  0.0065  0.0241
  919MOL0     C21233   0.245  10.508   8.093  1.4206  0.1898  0.0088
  919MOL0     O21234   0.308  10.623   8.121  0.2656 -0.6105 -0.1123
  919MOL0     C21235   0.430  10.663   8.053  0.0746  0.9549 -0.8981
  919MOL0     C21236   0.485  10.776   8.132  0.5335  0.5115  0.2428
  919MOL0     C21237   0.585  10.867   8.064  0.2827 -0.4328 -0.9156
  919MOL0     C21238   0.666  10.959   8.160  0.3627 -0.2958 -0.2648
  919MOL0     C21239   0.705  11.089   8.090  0.0564 -0.2271  0.8284
  919MOL0     C21240   0.741  11.200   8.050 -0.0124  0.0639 -0.6876
  919MOL0     C21241   0.158  10.448   8.180  0.0420  0.1473  0.1433
  919MOL0     C21242   0.097  10.324   8.143  0.0817 -0.0741 -1.1121
  919MOL0     H21243   0.069   9.878   8.025 -0.9258  0.5581 -1.8833
  919MOL0     H21244  -0.030   9.654   8.002  1.7741  1.7736 -0.6550
  919MOL0     H21245  -0.409   9.628   7.895 -2.4955  0.0626  0.0463
  919MOL0     H21246  -0.453   9.612   8.067 -1.3067 -2.4546 -0.6398
  919MOL0     H21247  -0.390   9.364   8.053  1.8068  1.3867  1.2100
  919MOL0     H21248  -0.363   9.400   7.880  0.6569  2.6341  0.4767
  919MOL0     H21249  -0.610   9.439   7.859  1.0880  4.1396  1.8069
  919MOL0     H21250  -0.613   9.395   8.040 -1.1074  0.9286 -0.7125
  919MOL0     H21251  -0.516   9.216   7.806 -1.2929 -0.5106 -1.7726
  919MOL0     H21252  -0.525   9.166   7.976  0.4692  0.0711 -0.6696
  919MOL0     H21253  -0.743   9.112   7.819 -1.1750 -1.1276  2.3331
  919MOL0     H21254  -0.777   9.281   7.843 -0.7220 -0.6364 -0.3776
  919MOL0     H21255  -0.724   9.216   8.107  1.2949 -0.9337  1.3440
  919MOL0     H21256  -0.712   9.055   8.042 -2.1934 -0.2459  0.2863
  919MOL0     H21257  -0.968   9.081   7.970 -4.2876  0.7025  1.4835
  919MOL0     H21258  -0.928   9.061   8.143  1.8886 -2.2042 -0.7062
  919MOL0     H21259  -0.959   9.324   8.005 -1.1221  1.4149  1.3031
  919MOL0     H21260  -0.920   9.296   8.187 -0.7549 -1.6855  0.5773
  919MOL0     H21261  -1.212   9.157   7.972 -2.5079 -1.5100 -0.0840
  919MOL0     H21262  -1.474   9.125   8.026 -1.2322 -1.1681  0.8856
  919MOL0     H21263  -1.513   9.300   8.034 -3.3519 -0.6699 -0.6014
  919MOL0     H21264  -1.577   9.279   8.273  0.0377 -2.0444  2.9712
  919MOL0     H21265  -1.516   9.117   8.274 -1.7920 -0.1877 -0.7700
  919MOL0     H21266  -1.736   9.207   8.093  1.9664 -1.1074 -2.0805
  919MOL0     H21267  -1.676   9.038   8.104 -0.7587  0.8979  0.0018
  919MOL0     H21268  -1.834   9.188   8.333  0.6543  0.7176 -0.4284
  919MOL0     H21269  -1.755   9.024   8.332  0.3953 -0.3802  0.2145
  919MOL0     H21270  -1.955   9.019   8.483  0.2898 -2.0422  1.4712
  919MOL0     H21271  -2.156   8.966   8.588  0.2499 -1.9698 -0.2173
  919MOL0     H21272  -2.503   8.681   8.680  2.0029  1.5055  0.4956
  919MOL0     H21273  -2.706   8.644   8.822  1.5815  0.3087  0.8958
  919MOL0     H21274  -2.919   8.652   8.860  2.1547  1.5499  1.7159
  919MOL0     H21275  -2.993   8.759   8.736 -0.0490  2.0589 -0.0105
  919MOL0     H21276  -3.111   8.860   8.960 -2.7822 -0.3279 -0.1726
  919MOL0     H21277  -3.061   8.708   9.033 -0.3644  2.1616  1.5715
  919MOL0     H21278  -3.291   8.777   8.883 -0.7232 -0.2765  1.6295
  919MOL0     H21279  -3.260   8.646   8.988  0.7983  1.5855  0.7197
  919MOL0     H21280  -3.208   8.665   8.690  2.5813 -0.4789 -0.8328
  919MOL0     H21281  -3.121   8.537   8.782  0.0854 -0.5459 -2.6753
  919MOL0     H21282  -3.293   8.406   8.802 -0.1836 -1.2791 -2.8270
  919MOL0     H21283  -3.332   8.475   8.645  1.6518 -0.5887 -0.6667
  919MOL0     H21284  -3.492   8.642   8.761  0.2722  0.4754 -0.6374
  919MOL0     H21285  -3.453   8.543   8.908 -0.8181 -2.0701  0.1715
  919MOL0     H21286  -3.613   8.447   8.666  0.2826  0.0963  0.6738
  919MOL0     H21287  -3.520   8.338   8.769 -0.5508 -0.4859 -1.0835
  919MOL0     H21288  -3.663   8.423   8.954  3.4623 -2.3406 -2.1014
  919MOL0     H21289  -3.764   8.381   8.812  1.5287 -0.5061 -0.8071
  919MOL0     H21290  -2.785   9.069   8.785 -3.1856 -1.0607 -1.4448
  919MOL0     H21291  -2.573   9.098   8.654 -0.7314 -0.8106 -2.2606
  919MOL0     H21292  -2.348   8.888   8.196 -0.4605 -0.5401  0.8706
  919MOL0     H21293  -2.117   8.976   8.100  0.2862  2.2570  0.4489
  919MOL0     H21294  -0.424   9.831   8.053 -0.6830  0.7450  0.4790
  919MOL0     H21295  -0.315  10.049   8.081  1.5281  1.6225  0.4734
  919MOL0     H21296   0.220  10.287   7.833 -1.1757 -1.5394 -0.4290
  919MOL0     H21297   0.342  10.499   7.900 -0.0659 -0.6480  0.6597
  919MOL0     H21298   0.402  10.695   7.952 -0.4376  0.9966 -0.7495
  919MOL0     H21299   0.506  10.585   8.048 -0.8721 -0.1848  1.1233
  919MOL0     H21300   0.392  10.829   8.157  1.1127  1.4789  0.4053
  919MOL0     H21301   0.518  10.732   8.227  1.7252 -1.3454 -0.9789
  919MOL0     H21302   0.536  10.927   7.986  0.5209  0.0030 -0.7339
  919MOL0     H21303   0.655  10.799   8.014  1.7572  1.4511 -1.5515
  919MOL0     H21304   0.606  10.988   8.247 -0.3036  1.9494 -1.3813
  919MOL0     H21305   0.757  10.906   8.191  0.0564  0.6599  2.5380
  919MOL0     H21306   0.770  11.302   8.034  0.0744 -0.0155 -1.0587
  919MOL0     H21307   0.143  10.491   8.278 -0.0457  0.4753 -0.0120
  919MOL0     H21308   0.040  10.275   8.221 -0.8472  3.2060  0.4565
  920MOL0     O21309   0.969   6.022   8.952 -0.5271 -0.2955 -0.2690
  920MOL0     C21310   0.975   6.121   9.022 -0.1069 -0.4273  0.4972
  920MOL0     O21311   0.901   6.144   9.136 -0.1469  1.1162  0.8901
  920MOL0     C21312   0.830   6.036   9.192 -0.4993 -0.1955 -0.0449
  920MOL0     C21313   0.693   6.044   9.217 -0.8700  0.7130 -0.0160
  920MOL0     C21314   0.628   5.941   9.290  0.0395 -0.6505 -0.1835
  920MOL0     C21315   0.697   5.827   9.328  0.4785  0.3729  0.1940
  920MOL0     O21316   0.626   5.727   9.386 -0.0647 -0.2800 -0.0461
  920MOL0     C21317   0.514   5.682   9.318 -0.3801 -0.2863 -0.4919
  920MOL0     C21318   0.456   5.555   9.384 -0.1468 -0.9626  0.2356
  920MOL0     C21319   0.535   5.430   9.327 -0.2181 -0.5504 -0.2125
  920MOL0     C21320   0.468   5.294   9.353 -0.6842 -0.2504 -0.0578
  920MOL0     C21321   0.564   5.177   9.318 -0.4029 -0.1142  0.8244
  920MOL0     C21322   0.487   5.048   9.311 -0.3787  0.6088 -0.9092
  920MOL0     C21323   0.571   4.920   9.330  0.0317 -0.6543 -0.7650
  920MOL0     C21324   0.656   4.889   9.214  0.6696 -0.4226 -0.3729
  920MOL0     N21325   0.572   4.830   9.104 -0.2087  1.0444 -0.3336
  920MOL0     C21326   0.524   4.698   9.103 -0.6809 -1.0540 -0.1793
  920MOL0     C21327   0.413   4.709   9.021  0.1244  1.0665 -0.6144
  920MOL0     C21328   0.317   4.597   8.997  0.4476  0.9031 -0.6975
  920MOL0     C21329   0.189   4.629   8.923  0.2866 -0.8644 -0.0255
  920MOL0     C21330   0.101   4.727   8.997 -0.2916 -0.3043 -0.2372
  920MOL0     C21331  -0.021   4.760   8.908  0.3039  0.3132  0.3371
  920MOL0     O21332  -0.104   4.643   8.905  0.1626  0.1388 -0.6526
  920MOL0     C21333  -0.223   4.650   8.844  0.4360  0.5641 -0.1192
  920MOL0     C21334  -0.299   4.537   8.865 -0.4768  1.0439  0.5173
  920MOL0     C21335  -0.432   4.529   8.819 -0.3977  0.1618  0.1846
  920MOL0     C21336  -0.494   4.636   8.759 -0.3934  0.9930 -0.2216
  920MOL0     C21337  -0.636   4.636   8.728  0.0255 -0.4446  0.3764
  920MOL0     O21338  -0.684   4.745   8.664 -0.0784 -0.2305  0.4614
  920MOL0     C21339  -0.819   4.761   8.644 -0.4130  0.2874 -0.1057
  920MOL0     C21340  -0.921   4.697   8.713 -0.8573 -0.2551 -0.2609
  920MOL0     C21341  -1.063   4.716   8.682 -0.1381 -0.2224 -1.5718
  920MOL0     C21342  -1.088   4.796   8.566 -0.7489  0.6198 -0.6643
  920MOL0     O21343  -1.211   4.817   8.522 -0.1558  0.1536  0.2449
  920MOL0     C21344  -1.320   4.781   8.603 -1.0787 -0.3006 -0.0663
  920MOL0     C21345  -1.450   4.826   8.536 -0.5082  0.6127 -0.6989
  920MOL0     C21346  -1.564   4.732   8.595  0.0574 -0.0639 -0.3531
  920MOL0     C21347  -1.702   4.775   8.559  0.2987  0.0804  0.1531
  920MOL0     C21348  -1.811   4.669   8.591 -0.1647 -0.5351 -0.2733
  920MOL0     C21349  -1.943   4.730   8.611 -0.4720  0.6669  0.5984
  920MOL0     C21350  -2.012   4.803   8.488 -0.1294 -0.3121 -0.0036
  920MOL0     C21351  -2.155   4.853   8.526 -0.0143 -0.9272  0.0452
  920MOL0    Cl21352  -2.271   4.723   8.549  0.2678 -0.6229  0.3221
  920MOL0     C21353  -0.985   4.857   8.493  0.0856  0.1691 -0.0808
  920MOL0     C21354  -0.853   4.839   8.537 -0.9585  0.0160  0.1642
  920MOL0     O21355  -0.700   4.537   8.763  0.1782 -0.6517 -0.5872
  920MOL0     C21356  -0.420   4.763   8.752 -0.0023  0.4420 -0.0304
  920MOL0     C21357  -0.289   4.764   8.796  0.0681 -0.2577 -0.3182
  920MOL0     N21358   0.404   4.833   8.966 -0.0788  0.8643 -0.6177
  920MOL0     N21359   0.502   4.907   9.016  0.6349 -0.2521 -0.2351
  920MOL0     C21360   0.833   5.820   9.306 -0.2627  0.2168  0.6854
  920MOL0     C21361   0.897   5.931   9.251  0.2986 -0.0535  0.1462
  920MOL0     C21362   1.067   6.230   8.981 -0.0157  0.7017 -0.6110
  920MOL0     C21363   1.054   6.359   9.049  0.3880  0.3789  0.4099
  920MOL0     C21364   1.109   6.464   8.986 -0.5524  1.0589  0.3433
  920MOL0     C21365   1.187   6.454   8.870  0.1201  0.0785 -0.0612
  920MOL0     O21366   1.241   6.555   8.796  0.2821 -0.5998 -0.2181
  920MOL0     C21367   1.201   6.688   8.829 -0.3051  1.0735 -0.5711
  920MOL0     C21368   1.265   6.773   8.728 -0.1218 -0.1218 -0.6460
  920MOL0     C21369   1.268   6.919   8.780 -0.5923  0.1544  0.4504
  920MOL0     C21370   1.360   6.998   8.687  0.2236  0.0911  0.7336
  920MOL0     C21371   1.355   7.141   8.717 -0.0910  0.5088 -0.3351
  920MOL0     C21372   1.359   7.254   8.758  0.0186  0.4401 -0.3645
  920MOL0     C21373   1.193   6.328   8.810 -0.8561 -0.5667 -0.2858
  920MOL0     C21374   1.136   6.220   8.857 -0.1429 -0.1700  0.1179
  920MOL0     H21375   0.647   6.136   9.181  0.5076  0.3656 -2.9583
  920MOL0     H21376   0.519   5.945   9.295  0.0876  0.9176  0.1640
  920MOL0     H21377   0.519   5.664   9.210 -3.4686  1.8227 -1.1221
  920MOL0     H21378   0.435   5.757   9.316 -0.7129 -0.4107  2.4574
  920MOL0     H21379   0.350   5.543   9.359  0.2766 -2.6383 -0.9276
  920MOL0     H21380   0.448   5.563   9.493 -1.9400 -5.7899  0.7184
  920MOL0     H21381   0.637   5.434   9.368 -1.5573 -0.2620  3.4171
  920MOL0     H21382   0.537   5.439   9.218  0.2726  1.1298 -0.0992
  920MOL0     H21383   0.441   5.287   9.458 -0.1901  1.2206  0.1860
  920MOL0     H21384   0.373   5.291   9.299 -1.3155 -0.3247  1.0399
  920MOL0     H21385   0.651   5.170   9.384 -0.3196 -1.9661  0.5765
  920MOL0     H21386   0.592   5.209   9.218 -1.2289  0.8712  0.8917
  920MOL0     H21387   0.429   5.033   9.220  2.5289 -0.8041 -2.6698
  920MOL0     H21388   0.413   5.046   9.392 -1.1442 -1.0207 -1.6072
  920MOL0     H21389   0.646   4.934   9.408  0.4383 -2.2488 -0.8384
  920MOL0     H21390   0.511   4.834   9.358  0.8203 -1.8314 -2.5212
  920MOL0     H21391   0.735   4.819   9.243  1.2449 -0.4062 -1.8224
  920MOL0     H21392   0.713   4.978   9.186  1.0641  0.5135  2.9995
  920MOL0     H21393   0.564   4.615   9.160  2.1561 -0.6904 -1.4442
  920MOL0     H21394   0.307   4.545   9.093  0.0646 -0.0202 -1.2289
  920MOL0     H21395   0.370   4.525   8.935 -0.1925  0.6551 -0.9681
  920MOL0     H21396   0.133   4.538   8.897 -0.3542 -0.2789 -0.7230
  920MOL0     H21397   0.211   4.662   8.821  2.3515 -0.5887  0.4713
  920MOL0     H21398   0.057   4.665   9.076  3.2556 -1.2138  1.1869
  920MOL0     H21399   0.151   4.814   9.039  2.3344 -1.8974  0.1163
  920MOL0     H21400   0.003   4.788   8.805 -2.1958 -2.5828 -1.2049
  920MOL0     H21401  -0.070   4.847   8.952 -3.1818 -2.0482  1.5620
  920MOL0     H21402  -0.253   4.455   8.919 -1.9170 -0.5422 -0.5686
  920MOL0     H21403  -0.469   4.427   8.829 -0.1170  0.0830  0.4586
  920MOL0     H21404  -0.892   4.623   8.787  1.1831 -1.1942 -1.9072
  920MOL0     H21405  -1.145   4.675   8.739 -1.7815  1.8139 -2.3260
  920MOL0     H21406  -1.318   4.832   8.700  2.3633 -0.4571  0.0796
  920MOL0     H21407  -1.314   4.673   8.621 -3.3167 -0.1330  2.3161
  920MOL0     H21408  -1.454   4.816   8.427 -1.5805 -0.3794 -0.5931
  920MOL0     H21409  -1.473   4.930   8.561  0.2581  0.4699  0.6593
  920MOL0     H21410  -1.560   4.722   8.704  2.4587 -0.4992 -0.4326
  920MOL0     H21411  -1.551   4.632   8.552 -0.2429 -0.6143  0.8055
  920MOL0     H21412  -1.719   4.868   8.614 -0.0423  0.9776 -1.4204
  920MOL0     H21413  -1.718   4.803   8.455  0.2003  2.5685  0.7860
  920MOL0     H21414  -1.786   4.593   8.666  0.8824 -1.5530 -1.5965
  920MOL0     H21415  -1.832   4.610   8.501 -0.7609 -0.8979  0.0925
  920MOL0     H21416  -1.939   4.802   8.694 -0.1905 -0.2634  1.4031
  920MOL0     H21417  -2.004   4.644   8.639  2.6997 -1.6760  0.9022
  920MOL0     H21418  -1.953   4.891   8.461 -1.3605  1.0182  1.3653
  920MOL0     H21419  -2.017   4.747   8.394 -1.5051  1.3537 -1.0021
  920MOL0     H21420  -2.192   4.919   8.447  0.9791 -2.0813 -1.4383
  920MOL0     H21421  -2.164   4.906   8.622  0.1622 -0.7050 -0.0586
  920MOL0     H21422  -1.012   4.911   8.403  1.3900  0.4120 -0.3476
  920MOL0     H21423  -0.770   4.884   8.484 -1.0433  1.1824  0.9721
  920MOL0     H21424  -0.468   4.858   8.734 -0.4251  0.6635  2.0191
  920MOL0     H21425  -0.235   4.856   8.776 -0.7337  0.5981  1.2785
  920MOL0     H21426   0.884   5.728   9.333  0.9754  0.7823  0.3489
  920MOL0     H21427   1.005   5.916   9.248  0.3408  0.0651  0.8990
  920MOL0     H21428   0.996   6.385   9.137  0.1704  1.3492 -0.0006
  920MOL0     H21429   1.104   6.559   9.039  2.3963  0.1336  2.5289
  920MOL0     H21430   1.231   6.705   8.933  0.6540  0.1615 -0.6862
  920MOL0     H21431   1.092   6.697   8.835 -0.1865  1.7473  1.1574
  920MOL0     H21432   1.370   6.744   8.735 -0.1205  0.1831  1.6660
  920MOL0     H21433   1.228   6.757   8.627 -1.0933 -4.6021  0.2020
  920MOL0     H21434   1.321   6.919   8.876  2.4180 -3.1620 -0.9824
  920MOL0     H21435   1.169   6.966   8.780  0.0931  1.7354 -1.4046
  920MOL0     H21436   1.458   6.957   8.712 -0.2064  0.2937  3.0137
  920MOL0     H21437   1.343   6.974   8.582 -1.5050  0.0228  0.9971
  920MOL0     H21438   1.359   7.358   8.782  1.4583  0.1427  1.0931
  920MOL0     H21439   1.246   6.321   8.716  2.4401  0.9589  1.3134
  920MOL0     H21440   1.137   6.131   8.796 -3.7137  0.9281 -1.8272
  921MOL0     O21441   1.015   3.946  11.226 -0.7911 -0.9038  0.1043
  921MOL0     C21442   1.038   3.989  11.112  0.0076 -0.2495 -1.1358
  921MOL0     O21443   0.949   4.056  11.032 -0.2131 -0.3961  0.3097
  921MOL0     C21444   0.828   4.089  11.082  0.2311  0.5840 -0.2592
  921MOL0     C21445   0.815   4.205  11.164 -0.3168  1.0408 -0.7107
  921MOL0     C21446   0.692   4.261  11.209  0.2163  0.4756 -0.1080
  921MOL0     C21447   0.578   4.187  11.190 -0.2504 -0.9039 -0.3715
  921MOL0     O21448   0.459   4.227  11.238  0.0349  0.0612 -0.5459
  921MOL0     C21449   0.383   4.306  11.149 -0.7564  0.0146  0.3033
  921MOL0     C21450   0.240   4.255  11.121 -0.0538  0.1184  0.4279
  921MOL0     C21451   0.171   4.222  11.256 -0.0114  1.2535 -0.5961
  921MOL0     C21452   0.019   4.229  11.230  0.2259  0.7364 -0.2209
  921MOL0     C21453  -0.064   4.165  11.342  0.1735 -1.1265  1.0673
  921MOL0     C21454  -0.214   4.201  11.329 -0.3951 -0.3599  0.0515
  921MOL0     C21455  -0.300   4.120  11.429  0.4134  0.3723  0.0097
  921MOL0     C21456  -0.435   4.086  11.363 -1.0005 -0.1850  0.1387
  921MOL0     N21457  -0.522   4.200  11.343 -0.8223  0.7755 -0.3157
  921MOL0     C21458  -0.583   4.274  11.438  0.0473  0.1546  0.4694
  921MOL0     C21459  -0.694   4.332  11.385  0.2463  0.6886  0.1212
  921MOL0     C21460  -0.780   4.441  11.440  0.0752  0.1730 -0.5895
  921MOL0     C21461  -0.904   4.382  11.511  0.5925 -0.0861 -0.7482
  921MOL0     C21462  -1.010   4.353  11.408 -0.0472 -0.2309 -0.1898
  921MOL0     C21463  -1.133   4.292  11.473  0.0993 -0.0542  0.5461
  921MOL0     O21464  -1.242   4.320  11.383  0.3729 -0.7144  0.9490
  921MOL0     C21465  -1.364   4.262  11.403  0.4352 -0.7953  0.2895
  921MOL0     C21466  -1.467   4.288  11.316 -0.4374  0.1352 -0.8587
  921MOL0     C21467  -1.591   4.238  11.344  0.8147  0.0495  0.3043
  921MOL0     C21468  -1.614   4.144  11.449 -0.4016  0.3802 -0.4204
  921MOL0     C21469  -1.755   4.106  11.469 -0.2535  1.1045 -0.4582
  921MOL0     O21470  -1.852   4.172  11.404  0.0012  0.2790  0.1090
  921MOL0     C21471  -1.985   4.152  11.429  0.8969 -0.0005 -0.1703
  921MOL0     C21472  -2.056   4.174  11.557 -0.2005  0.5099  0.2002
  921MOL0     C21473  -2.194   4.159  11.563  0.1844  0.6257  0.7107
  921MOL0     C21474  -2.270   4.122  11.448 -0.3448 -0.1852  0.8906
  921MOL0     O21475  -2.408   4.111  11.429 -0.3284 -0.0831 -0.1879
  921MOL0     C21476  -2.487   4.136  11.546 -0.1103 -0.3102  0.6069
  921MOL0     C21477  -2.631   4.096  11.516  0.0037  0.3913 -0.2984
  921MOL0     C21478  -2.648   3.942  11.501  0.1974  0.0308 -0.1677
  921MOL0     C21479  -2.798   3.913  11.490 -0.4519 -0.2699 -0.4696
  921MOL0     C21480  -2.828   3.776  11.434 -0.3663 -0.7863 -0.2927
  921MOL0     C21481  -2.976   3.749  11.437 -0.0726 -0.1038  0.7033
  921MOL0     C21482  -3.031   3.733  11.580  0.0402  0.0027 -0.0913
  921MOL0     C21483  -3.147   3.632  11.586  0.0016 -0.7351 -0.0331
  921MOL0    Cl21484  -3.222   3.618  11.749  0.3173  0.0534  0.1262
  921MOL0     C21485  -2.194   4.113  11.332  1.1495  0.5167  0.1079
  921MOL0     C21486  -2.056   4.121  11.323  0.0548 -0.0791  0.1729
  921MOL0     O21487  -1.767   4.000  11.533  0.2190  0.3747 -0.2207
  921MOL0     C21488  -1.509   4.101  11.530 -0.4137  0.1841  0.0162
  921MOL0     C21489  -1.384   4.164  11.505  0.4193  0.6179  0.3804
  921MOL0     N21490  -0.697   4.284  11.257  0.6334  0.5170 -0.0213
  921MOL0     N21491  -0.601   4.201  11.235  0.5924 -0.0183  0.3226
  921MOL0     C21492   0.594   4.070  11.123  0.6880 -0.0223 -0.2977
  921MOL0     C21493   0.711   4.016  11.064  0.6563  0.3186 -0.2138
  921MOL0     C21494   1.180   3.979  11.061  0.2416  1.2058  0.9292
  921MOL0     C21495   1.278   3.920  11.150  0.2288  0.2920 -0.6019
  921MOL0     C21496   1.417   3.909  11.111  0.1225  0.1982  0.3738
  921MOL0     C21497   1.453   3.959  10.983 -1.0284  0.1242  0.6133
  921MOL0     O21498   1.579   3.962  10.933  0.1522 -0.1371 -0.5767
  921MOL0     C21499   1.648   4.084  10.946  0.1977  0.1438  0.4185
  921MOL0     C21500   1.799   4.045  10.961 -0.5702  0.1893 -0.6485
  921MOL0     C21501   1.849   3.994  10.829  0.2889 -0.4473  0.2614
  921MOL0     C21502   1.992   3.942  10.828  0.2733 -0.8203  0.3223
  921MOL0     C21503   2.096   4.032  10.865  0.3040 -0.4515  0.0276
  921MOL0     C21504   2.168   4.112  10.903 -0.6951 -0.6269 -0.0093
  921MOL0     C21505   1.363   4.017  10.895 -0.4160 -0.3004 -0.6100
  921MOL0     C21506   1.227   4.027  10.933  0.2118 -0.1807 -0.6383
  921MOL0     H21507   0.907   4.254  11.195 -1.1277  1.4532  1.2431
  921MOL0     H21508   0.690   4.347  11.275  0.0807  0.1314  0.3390
  921MOL0     H21509   0.436   4.312  11.054 -0.6372 -0.8780  0.3030
  921MOL0     H21510   0.367   4.408  11.185 -2.2117  0.1028 -0.4877
  921MOL0     H21511   0.236   4.174  11.048 -2.5818  1.6362 -1.2839
  921MOL0     H21512   0.187   4.335  11.067 -1.1932  0.0401  1.3897
  921MOL0     H21513   0.205   4.299  11.326  1.7429 -0.2969  0.3374
  921MOL0     H21514   0.200   4.123  11.292  1.7408  1.7971 -0.4074
  921MOL0     H21515  -0.015   4.332  11.213 -1.9888 -0.2093 -2.0467
  921MOL0     H21516  -0.007   4.174  11.140 -1.5662  0.8091  0.2160
  921MOL0     H21517  -0.023   4.205  11.436  1.0089  2.1599 -0.5262
  921MOL0     H21518  -0.056   4.057  11.335  0.4440 -1.0760  0.5705
  921MOL0     H21519  -0.247   4.167  11.230 -2.8304  0.4144  0.5279
  921MOL0     H21520  -0.238   4.307  11.325  2.3483  0.2813 -2.0201
  921MOL0     H21521  -0.256   4.023  11.452  1.4419  0.2865 -2.0629
  921MOL0     H21522  -0.324   4.180  11.517 -2.1977  0.2621 -0.5454
  921MOL0     H21523  -0.489   4.015  11.426 -0.9457 -0.6030 -0.2835
  921MOL0     H21524  -0.423   4.025  11.273 -6.1274 -2.4751  0.6258
  921MOL0     H21525  -0.552   4.300  11.538 -0.8148  0.8162  0.5781
  921MOL0     H21526  -0.815   4.507  11.361 -0.9724 -0.9826 -1.1259
  921MOL0     H21527  -0.713   4.498  11.504  1.2144  0.4332 -1.9659
  921MOL0     H21528  -0.938   4.448  11.592 -1.6028 -2.1240  0.0993
  921MOL0     H21529  -0.874   4.289  11.560  3.3268  1.2496  0.3513
  921MOL0     H21530  -1.036   4.434  11.339  1.7188  0.9698  0.4741
  921MOL0     H21531  -0.967   4.270  11.350  1.5626  0.2130  0.3106
  921MOL0     H21532  -1.152   4.343  11.568  2.1577  2.9549 -0.4965
  921MOL0     H21533  -1.131   4.183  11.486 -1.3001  0.0322  1.6611
  921MOL0     H21534  -1.459   4.352  11.229 -0.5021  1.7761  0.2914
  921MOL0     H21535  -1.678   4.273  11.290  1.2256 -1.6818 -1.6188
  921MOL0     H21536  -1.988   4.218  11.630  0.7828 -1.2067  0.3695
  921MOL0     H21537  -2.244   4.182  11.656 -0.7546  3.4035 -0.3611
  921MOL0     H21538  -2.483   4.240  11.580  1.8588  0.0499 -0.5915
  921MOL0     H21539  -2.450   4.082  11.634  1.0519  1.3147  1.1758
  921MOL0     H21540  -2.668   4.144  11.425 -1.3743 -2.2014 -1.2097
  921MOL0     H21541  -2.702   4.132  11.591  1.0169  4.1527 -0.9227
  921MOL0     H21542  -2.599   3.901  11.590  0.7410  1.9074  0.4552
  921MOL0     H21543  -2.591   3.906  11.415 -2.0091 -0.1614 -1.6156
  921MOL0     H21544  -2.832   3.938  11.591 -0.0292  1.7861 -0.7792
  921MOL0     H21545  -2.840   3.989  11.423  3.5621  0.6467 -2.2585
  921MOL0     H21546  -2.776   3.698  11.490 -2.0206 -1.9884 -0.3353
  921MOL0     H21547  -2.801   3.774  11.328 -1.0333  0.4816 -0.4992
  921MOL0     H21548  -2.995   3.655  11.384  1.0028 -0.9284  1.7232
  921MOL0     H21549  -3.032   3.829  11.389  3.5227  2.3686  0.2427
  921MOL0     H21550  -2.959   3.696  11.654 -0.9519 -1.0628  0.3803
  921MOL0     H21551  -3.074   3.830  11.608 -0.5614 -0.8547  2.1503
  921MOL0     H21552  -3.110   3.537  11.547 -2.0997 -0.4810 -2.9942
  921MOL0     H21553  -3.224   3.659  11.513  1.3414 -2.5257 -2.2438
  921MOL0     H21554  -2.243   4.097  11.236  2.4655 -0.8513 -0.3861
  921MOL0     H21555  -2.012   4.113  11.224  2.8758 -2.0248  1.4804
  921MOL0     H21556  -1.519   4.021  11.603  0.1568  0.3439  0.2770
  921MOL0     H21557  -1.299   4.132  11.565  0.9270 -2.3923 -1.7279
  921MOL0     H21558   0.503   4.012  11.112  0.4644  0.2293  0.1779
  921MOL0     H21559   0.709   3.917  11.020 -1.6211  0.4825 -0.6037
  921MOL0     H21560   1.252   3.862  11.238  3.0517 -1.6244 -0.8730
  921MOL0     H21561   1.499   3.867  11.168 -1.1670 -1.4253  1.1213
  921MOL0     H21562   1.611   4.134  11.036  0.2682 -0.4588  0.7826
  921MOL0     H21563   1.636   4.156  10.864 -1.0873 -0.4417  0.0828
  921MOL0     H21564   1.853   4.140  10.973 -2.9196  1.9325 -2.9132
  921MOL0     H21565   1.818   3.979  11.046  2.1722  0.7260 -0.7373
  921MOL0     H21566   1.846   4.077  10.757  1.6363  1.2048  2.0307
  921MOL0     H21567   1.786   3.912  10.793 -1.4741  0.5042  1.0355
  921MOL0     H21568   2.007   3.857  10.895 -1.8783 -1.3306  0.2476
  921MOL0     H21569   2.016   3.906  10.727 -0.2323 -1.7413  0.5155
  921MOL0     H21570   2.224   4.198  10.935 -1.6189 -0.2881  0.7371
  921MOL0     H21571   1.397   4.048  10.797 -0.5927 -1.0322 -0.9089
  921MOL0     H21572   1.159   4.069  10.860  2.4483  3.4948 -0.8746
  922MOL0     O21573   8.682   7.615   1.001 -0.6539  0.6911  0.6054
  922MOL0     C21574   8.740   7.542   0.919  0.7728  0.0487 -0.5352
  922MOL0     O21575   8.672   7.468   0.826  0.3767  0.0974 -0.0453
  922MOL0     C21576   8.541   7.496   0.792 -0.4442 -0.1838 -1.1287
  922MOL0     C21577   8.441   7.528   0.886 -0.0083 -0.0959 -0.0864
  922MOL0     C21578   8.312   7.557   0.841 -0.7745  0.3493 -0.4042
  922MOL0     C21579   8.283   7.557   0.706  0.4643  0.8126  0.5127
  922MOL0     O21580   8.158   7.593   0.662  0.4459 -0.7618 -0.5102
  922MOL0     C21581   8.085   7.698   0.736 -0.0363 -0.3889 -0.3627
  922MOL0     C21582   7.946   7.706   0.671 -1.2462 -0.6111 -0.0934
  922MOL0     C21583   7.845   7.662   0.777 -0.4424  0.1141 -0.0657
  922MOL0     C21584   7.729   7.610   0.701  0.4507 -0.0229  0.1524
  922MOL0     C21585   7.635   7.517   0.788 -0.2655  0.1887 -0.7743
  922MOL0     C21586   7.504   7.493   0.708  0.1408 -1.0396  0.2836
  922MOL0     C21587   7.401   7.419   0.799  0.3165 -0.4521 -0.2543
  922MOL0     C21588   7.284   7.390   0.715 -0.4321  0.0011  0.4833
  922MOL0     N21589   7.171   7.497   0.702 -0.3658  0.0673  0.3240
  922MOL0     C21590   7.056   7.486   0.636 -0.3546 -0.5107 -0.0983
  922MOL0     C21591   7.007   7.613   0.647 -0.2429 -0.2182 -0.5235
  922MOL0     C21592   6.875   7.655   0.595  0.7889 -0.4668  0.1889
  922MOL0     C21593   6.761   7.627   0.688 -0.0416  0.3718  0.8868
  922MOL0     C21594   6.753   7.476   0.718  0.1198 -0.7709  0.5695
  922MOL0     C21595   6.618   7.421   0.786 -0.0381 -0.5768  0.4625
  922MOL0     O21596   6.504   7.421   0.693  0.3454  0.3978  0.3660
  922MOL0     C21597   6.390   7.344   0.713  0.1614  0.7695  0.1147
  922MOL0     C21598   6.294   7.333   0.610 -0.5827 -0.4507 -1.4122
  922MOL0     C21599   6.179   7.255   0.629  0.4722 -0.1509  1.1116
  922MOL0     C21600   6.146   7.186   0.754 -0.2829 -0.3262  0.7965
  922MOL0     C21601   6.017   7.122   0.776 -0.1608 -0.5066  0.0756
  922MOL0     O21602   5.987   7.096   0.905 -0.0653 -0.1393  0.7525
  922MOL0     C21603   5.858   7.052   0.930  0.0863  0.2484 -0.9900
  922MOL0     C21604   5.803   6.937   0.879 -0.2908  0.3282 -0.0743
  922MOL0     C21605   5.677   6.907   0.928 -0.0428  0.2698  0.5171
  922MOL0     C21606   5.597   6.987   1.012  0.1849  0.2490  0.1652
  922MOL0     O21607   5.469   6.943   1.030 -0.2814  0.4973  0.2460
  922MOL0     C21608   5.386   7.027   1.111  0.1895  0.0216 -0.4818
  922MOL0     C21609   5.255   6.959   1.142  0.0558 -0.0558  0.3725
  922MOL0     C21610   5.169   6.944   1.010 -0.3645 -0.1129  0.0485
  922MOL0     C21611   5.022   6.886   1.021 -0.4202 -0.4887 -0.1141
  922MOL0     C21612   5.022   6.746   1.067 -0.8482  0.8096  0.0031
  922MOL0     C21613   4.884   6.687   1.085  0.0314  0.8533  0.1269
  922MOL0     C21614   4.840   6.624   0.946  0.1897 -0.5237 -0.2516
  922MOL0     C21615   4.686   6.609   0.918 -0.0535  0.2246 -0.1317
  922MOL0    Cl21616   4.637   6.781   0.893 -0.3916  0.1568 -0.1253
  922MOL0     C21617   5.654   7.100   1.064  0.1851  0.5260  0.7235
  922MOL0     C21618   5.787   7.132   1.020 -0.3855 -0.2053 -0.3321
  922MOL0     O21619   5.932   7.116   0.691 -0.1129 -0.4021  0.4013
  922MOL0     C21620   6.239   7.198   0.852  0.0649  0.4636 -0.1253
  922MOL0     C21621   6.357   7.276   0.831 -0.5384  0.3751 -0.5355
  922MOL0     N21622   7.088   7.691   0.722  0.4607  0.6524 -0.5745
  922MOL0     N21623   7.186   7.622   0.754 -0.0500  0.3372  0.4715
  922MOL0     C21624   8.384   7.525   0.615 -0.5465 -0.2966 -0.2936
  922MOL0     C21625   8.511   7.493   0.657  0.6822 -0.3863 -0.4465
  922MOL0     C21626   8.884   7.521   0.938  0.2366 -0.1561 -0.5464
  922MOL0     C21627   8.963   7.590   1.037 -0.1868  1.2275  0.8013
  922MOL0     C21628   9.100   7.561   1.064  0.0409 -0.7755  0.7105
  922MOL0     C21629   9.153   7.458   0.986 -1.4098  0.4017  0.6352
  922MOL0     O21630   9.282   7.438   1.019  0.4541 -0.0937  0.0500
  922MOL0     C21631   9.378   7.366   0.937  0.1726  0.8493 -0.5266
  922MOL0     C21632   9.362   7.218   0.970  0.3862  0.3339  0.3870
  922MOL0     C21633   9.497   7.157   0.924  0.2393 -0.2326  0.1629
  922MOL0     C21634   9.480   7.004   0.939  0.1901 -0.4025 -0.2174
  922MOL0     C21635   9.461   6.966   1.077 -0.1761 -0.2614  0.7989
  922MOL0     C21636   9.460   6.941   1.194  0.3064 -0.2592  0.4277
  922MOL0     C21637   9.085   7.387   0.875  0.7266 -0.5081 -0.8104
  922MOL0     C21638   8.952   7.420   0.861  0.3074 -0.2564  0.0850
  922MOL0     H21639   8.454   7.518   0.994 -3.9241 -1.4567  0.4283
  922MOL0     H21640   8.231   7.565   0.913  0.9537  1.1514  1.5359
  922MOL0     H21641   8.137   7.792   0.716 -0.7620  0.6236  2.1351
  922MOL0     H21642   8.086   7.677   0.843  3.4873 -1.0112 -0.4152
  922MOL0     H21643   7.940   7.629   0.592  0.1841  1.6605 -2.5874
  922MOL0     H21644   7.926   7.805   0.629 -1.6615 -1.0814 -1.0554
  922MOL0     H21645   7.816   7.748   0.839 -0.5992  0.0007  0.0199
  922MOL0     H21646   7.889   7.578   0.831  1.0416  0.7454 -0.2437
  922MOL0     H21647   7.679   7.697   0.656 -0.6683 -0.2468  0.9326
  922MOL0     H21648   7.764   7.538   0.626  3.8520 -0.4402  1.9248
  922MOL0     H21649   7.611   7.563   0.885 -0.5281  0.5600 -1.0156
  922MOL0     H21650   7.684   7.420   0.807  0.1368  0.7407  1.2257
  922MOL0     H21651   7.532   7.438   0.618  1.4957 -0.3709  0.2850
  922MOL0     H21652   7.460   7.589   0.678  2.9344  0.6832  1.3200
  922MOL0     H21653   7.446   7.326   0.836 -2.3784 -0.6847  2.8484
  922MOL0     H21654   7.370   7.473   0.889  0.6959 -1.1076  0.2837
  922MOL0     H21655   7.239   7.295   0.747 -0.0058 -0.4272 -0.1728
  922MOL0     H21656   7.312   7.377   0.611  1.5407 -0.8584  1.0812
  922MOL0     H21657   7.007   7.411   0.575 -2.9024  1.4650 -0.6808
  922MOL0     H21658   6.859   7.603   0.500 -2.4317 -2.8433  1.8407
  922MOL0     H21659   6.886   7.760   0.568 -1.2192 -0.4433 -0.6972
  922MOL0     H21660   6.669   7.649   0.633  2.4293  1.2164 -3.3696
  922MOL0     H21661   6.777   7.683   0.781  3.4065 -1.4605  1.5611
  922MOL0     H21662   6.778   7.419   0.628 -2.9574  0.2372 -1.1007
  922MOL0     H21663   6.840   7.463   0.783  2.3875  0.6587 -1.9664
  922MOL0     H21664   6.594   7.482   0.874 -1.1033  0.5285 -0.5568
  922MOL0     H21665   6.630   7.320   0.827 -4.1971 -1.8531 -0.9519
  922MOL0     H21666   6.301   7.397   0.522 -0.0555 -0.2325 -1.2184
  922MOL0     H21667   6.119   7.251   0.538  2.5821  0.4498 -0.3748
  922MOL0     H21668   5.860   6.872   0.812  0.0113 -0.1674  0.6475
  922MOL0     H21669   5.630   6.816   0.890 -0.0320 -0.1737  1.5172
  922MOL0     H21670   5.370   7.121   1.057  0.1092 -0.0166 -0.5258
  922MOL0     H21671   5.439   7.046   1.204 -2.2229  1.9247  0.6189
  922MOL0     H21672   5.197   7.017   1.215  1.3897 -0.1226  1.5300
  922MOL0     H21673   5.274   6.861   1.187 -0.9070 -0.6062 -0.3807
  922MOL0     H21674   5.221   6.876   0.942  0.0179  0.9919 -0.7818
  922MOL0     H21675   5.162   7.041   0.960  1.1414  0.6913  1.2871
  922MOL0     H21676   4.961   6.934   1.098  2.2413 -3.4129  4.2432
  922MOL0     H21677   4.961   6.902   0.932 -1.5625  1.9169  0.9946
  922MOL0     H21678   5.068   6.746   1.166  0.1357  0.3450 -0.4344
  922MOL0     H21679   5.086   6.688   1.000  0.0189  2.6653 -0.8599
  922MOL0     H21680   4.814   6.765   1.114  0.8142  1.3647  0.6502
  922MOL0     H21681   4.873   6.600   1.151 -1.9629  0.0053 -1.2193
  922MOL0     H21682   4.900   6.661   0.862  0.6614 -0.3170  0.1696
  922MOL0     H21683   4.871   6.520   0.934  0.0706 -0.4824 -0.9489
  922MOL0     H21684   4.634   6.566   1.003  2.2643 -2.2111  0.1921
  922MOL0     H21685   4.668   6.544   0.832 -0.7010  0.6369 -0.3123
  922MOL0     H21686   5.590   7.166   1.121 -2.8127 -1.6318  0.0904
  922MOL0     H21687   5.844   7.212   1.066 -0.8258 -1.2539  2.1968
  922MOL0     H21688   6.243   7.161   0.954  0.8772  0.4869 -0.1379
  922MOL0     H21689   6.420   7.277   0.919 -0.8260 -0.3910 -0.3154
  922MOL0     H21690   8.371   7.529   0.507  1.2106  0.7680 -0.5047
  922MOL0     H21691   8.598   7.467   0.596  3.2568  1.1344  2.3033
  922MOL0     H21692   8.916   7.660   1.105  0.7100  1.4537  1.1982
  922MOL0     H21693   9.146   7.624   1.140  2.0751 -0.5019 -0.6882
  922MOL0     H21694   9.472   7.403   0.979  1.6275 -0.4842 -2.4302
  922MOL0     H21695   9.364   7.385   0.830 -2.3847  0.4888 -0.3240
  922MOL0     H21696   9.345   7.191   1.075  1.7386 -2.1530  0.0587
  922MOL0     H21697   9.282   7.187   0.903  1.0621  0.4566 -0.4879
  922MOL0     H21698   9.584   7.190   0.982 -0.4487  2.0398  0.0202
  922MOL0     H21699   9.519   7.184   0.820 -2.1199 -1.5441 -0.7303
  922MOL0     H21700   9.389   6.974   0.886  0.2841  0.6553 -1.0106
  922MOL0     H21701   9.563   6.953   0.890 -2.1876 -3.0892 -1.7657
  922MOL0     H21702   9.451   6.911   1.297  1.0432 -2.2318 -0.0302
  922MOL0     H21703   9.135   7.317   0.809  3.7428 -0.9474  1.6968
  922MOL0     H21704   8.893   7.361   0.791 -0.1459 -1.5878  1.5593
  923MOL0     O21705   5.063   8.196   9.353  0.6785  0.5346 -0.4337
  923MOL0     C21706   5.146   8.281   9.320 -0.4303  0.1916 -0.7418
  923MOL0     O21707   5.138   8.413   9.343 -0.5638 -0.4090 -0.3913
  923MOL0     C21708   5.041   8.453   9.424 -0.3527 -0.1767 -0.9809
  923MOL0     C21709   4.908   8.438   9.398 -0.6792  0.3940  0.3705
  923MOL0     C21710   4.808   8.489   9.485 -0.1354 -0.3482 -0.1472
  923MOL0     C21711   4.847   8.563   9.598 -0.4793  0.2564  0.8023
  923MOL0     O21712   4.765   8.616   9.682  0.0774 -1.0549  0.0951
  923MOL0     C21713   4.634   8.647   9.637  0.4303 -0.3991  0.5555
  923MOL0     C21714   4.568   8.751   9.723 -0.7754 -0.7206 -0.1678
  923MOL0     C21715   4.429   8.786   9.666 -0.0004 -0.2984  0.2537
  923MOL0     C21716   4.388   8.919   9.739  0.2546 -0.2710  0.2956
  923MOL0     C21717   4.236   8.961   9.716 -0.7231  0.1759  0.7168
  923MOL0     C21718   4.196   9.056   9.824  0.3697  0.2133 -0.7694
  923MOL0     C21719   4.052   9.102   9.797 -0.3178  0.0892  0.3386
  923MOL0     C21720   3.980   9.124   9.934  1.3717  0.5596  0.2234
  923MOL0     N21721   3.848   9.191   9.900  0.4602 -0.2774 -0.1343
  923MOL0     C21722   3.824   9.311   9.840 -0.4952  0.6899 -0.3734
  923MOL0     C21723   3.692   9.334   9.848 -0.3312 -0.5960 -0.2410
  923MOL0     C21724   3.626   9.460   9.819 -0.4842 -0.3423 -0.0080
  923MOL0     C21725   3.554   9.452   9.685  0.2806  0.9022 -0.5574
  923MOL0     C21726   3.564   9.580   9.600 -0.7391 -1.3010  0.5561
  923MOL0     C21727   3.697   9.602   9.526 -0.4544  0.6900 -0.1715
  923MOL0     O21728   3.830   9.596   9.593 -0.0049 -0.4441  0.4412
  923MOL0     C21729   3.948   9.595   9.522  0.1608  0.4741  0.6694
  923MOL0     C21730   3.954   9.601   9.381 -0.4695  0.6267  0.1747
  923MOL0     C21731   4.079   9.600   9.311 -0.1603  0.5995 -0.1320
  923MOL0     C21732   4.198   9.601   9.392  0.0566  0.5003  1.6118
  923MOL0     C21733   4.328   9.582   9.325 -0.1010 -0.1012 -0.7337
  923MOL0     O21734   4.428   9.541   9.401  0.5456 -0.1305 -0.9374
  923MOL0     C21735   4.552   9.528   9.347 -0.5925 -0.1758 -0.3991
  923MOL0     C21736   4.639   9.482   9.448 -0.7936 -0.0189  0.3067
  923MOL0     C21737   4.770   9.452   9.421 -0.2189  0.2706  0.3337
  923MOL0     C21738   4.821   9.469   9.287 -0.6976 -0.2727 -0.2408
  923MOL0     O21739   4.952   9.447   9.255 -0.0520  0.1831  0.1525
  923MOL0     C21740   5.048   9.378   9.342  0.9787 -0.1118  0.1762
  923MOL0     C21741   5.173   9.347   9.258 -0.0430  0.2989 -0.2648
  923MOL0     C21742   5.145   9.228   9.166  0.3494  0.8660  0.4487
  923MOL0     C21743   5.228   9.239   9.033 -0.1084  0.2048 -0.2565
  923MOL0     C21744   5.233   9.122   8.946  0.3134  0.3166 -0.2518
  923MOL0     C21745   5.095   9.066   8.907 -0.3181 -0.5199  0.0305
  923MOL0     C21746   5.111   8.949   8.811 -0.3597  0.0697 -0.1261
  923MOL0     C21747   4.983   8.886   8.762 -1.0523 -0.4654  0.2744
  923MOL0    Cl21748   4.893   8.832   8.903 -0.1396  0.4080  0.2656
  923MOL0     C21749   4.734   9.522   9.190 -0.2857  0.5126 -0.3207
  923MOL0     C21750   4.600   9.557   9.216  0.3863  0.4948 -0.1133
  923MOL0     O21751   4.329   9.611   9.209  0.0886  0.6067  0.3269
  923MOL0     C21752   4.188   9.603   9.529 -0.6370  0.5777 -0.1998
  923MOL0     C21753   4.060   9.597   9.592 -0.1373 -0.7611  0.6591
  923MOL0     N21754   3.637   9.226   9.915  0.7130  0.5005  0.5040
  923MOL0     N21755   3.733   9.148   9.944  0.9491  0.2076 -0.0076
  923MOL0     C21756   4.981   8.575   9.622 -0.5248 -0.8814 -0.0744
  923MOL0     C21757   5.076   8.530   9.536 -0.3707  0.6147  0.0697
  923MOL0     C21758   5.267   8.232   9.250 -0.0583 -0.0402 -0.6291
  923MOL0     C21759   5.278   8.098   9.205  0.4554 -0.1415  1.2278
  923MOL0     C21760   5.390   8.054   9.138 -0.0987 -0.2138  0.3653
  923MOL0     C21761   5.502   8.126   9.123  0.2215  0.0247 -0.2700
  923MOL0     O21762   5.609   8.051   9.087  0.0119 -1.2979  0.9651
  923MOL0     C21763   5.737   8.111   9.080 -0.5712  1.2654  0.2757
  923MOL0     C21764   5.827   7.992   9.007  1.2261 -0.1204 -0.5376
  923MOL0     C21765   5.961   8.024   8.966 -0.7534 -0.2650 -0.2565
  923MOL0     C21766   6.046   8.050   9.092  0.2718  0.2226 -0.2338
  923MOL0     C21767   6.182   8.082   9.048 -0.0384 -0.0240 -0.4633
  923MOL0     C21768   6.289   8.138   9.015  0.6063 -0.1345  0.5097
  923MOL0     C21769   5.493   8.263   9.141  0.7604  0.0243  0.2844
  923MOL0     C21770   5.382   8.317   9.203  0.3337 -0.0718 -1.0653
  923MOL0     H21771   4.883   8.384   9.307  1.2463 -0.8681  0.5526
  923MOL0     H21772   4.704   8.480   9.457 -0.0318 -1.7819 -0.1217
  923MOL0     H21773   4.579   8.554   9.653  2.9330 -2.2156 -0.6513
  923MOL0     H21774   4.631   8.677   9.532 -0.8065  0.3283  0.7823
  923MOL0     H21775   4.634   8.837   9.734  0.1795 -1.3310 -0.9170
  923MOL0     H21776   4.547   8.708   9.822 -2.9938 -2.2339 -1.2091
  923MOL0     H21777   4.356   8.708   9.689  1.0483 -1.4189 -0.1516
  923MOL0     H21778   4.432   8.806   9.558  0.9418  3.6234  0.8237
  923MOL0     H21779   4.410   8.902   9.845  2.6467  1.5390  0.1677
  923MOL0     H21780   4.456   8.993   9.696  0.2188 -0.5411 -0.2389
  923MOL0     H21781   4.179   8.868   9.714 -0.6743  0.0992  2.3364
  923MOL0     H21782   4.233   9.013   9.619 -1.9067  0.9965  1.1711
  923MOL0     H21783   4.265   9.140   9.839 -0.4285  0.3899  2.8722
  923MOL0     H21784   4.197   9.002   9.919  1.0819  1.1814 -0.2031
  923MOL0     H21785   4.066   9.194   9.740 -1.1087 -1.3297 -2.3109
  923MOL0     H21786   3.989   9.036   9.737  1.3319  0.3321 -1.7578
  923MOL0     H21787   4.035   9.185  10.006  0.5293 -0.1729  1.5370
  923MOL0     H21788   3.947   9.031   9.983 -2.6146  2.2440  1.1858
  923MOL0     H21789   3.902   9.380   9.812  1.8276  1.0239  5.5756
  923MOL0     H21790   3.693   9.546   9.811 -1.7055  0.4485 -3.7219
  923MOL0     H21791   3.549   9.488   9.892 -1.4784 -0.4925 -0.9584
  923MOL0     H21792   3.449   9.432   9.708  0.5922  2.0702  2.4011
  923MOL0     H21793   3.602   9.372   9.628  2.6816  1.1280  1.0058
  923MOL0     H21794   3.481   9.585   9.529 -0.1426  1.5875 -0.0837
  923MOL0     H21795   3.541   9.658   9.673  3.6281  0.7740  0.0824
  923MOL0     H21796   3.706   9.700   9.478  0.6558 -0.3888 -2.2982
  923MOL0     H21797   3.705   9.522   9.452  2.8354  1.3899 -0.7310
  923MOL0     H21798   3.864   9.611   9.321  1.3661  1.8111 -2.6154
  923MOL0     H21799   4.082   9.592   9.203  1.5046  1.6009 -0.1947
  923MOL0     H21800   4.605   9.468   9.549 -1.0133 -0.2652  0.1991
  923MOL0     H21801   4.838   9.406   9.492  1.0316 -0.0447 -1.0167
  923MOL0     H21802   5.004   9.281   9.368 -1.4476  0.9803  0.4019
  923MOL0     H21803   5.065   9.440   9.430 -0.2391  0.1678  0.2309
  923MOL0     H21804   5.254   9.330   9.330 -0.1814  4.8070  1.2907
  923MOL0     H21805   5.205   9.425   9.188  0.2616  1.5710  1.2484
  923MOL0     H21806   5.037   9.224   9.146  0.3792 -1.2075  0.5264
  923MOL0     H21807   5.159   9.134   9.220 -2.3828  0.7871  1.2025
  923MOL0     H21808   5.179   9.322   8.981 -0.3724 -0.5578 -1.2557
  923MOL0     H21809   5.330   9.260   9.068 -0.2912 -0.2710  0.5754
  923MOL0     H21810   5.287   9.035   8.985 -2.8070 -0.7538  2.1013
  923MOL0     H21811   5.292   9.149   8.858  0.2321  4.3146  0.6995
  923MOL0     H21812   5.040   9.148   8.860  2.0068  1.7943  1.0155
  923MOL0     H21813   5.042   9.045   9.000 -0.6354  1.8534  0.4482
  923MOL0     H21814   5.158   8.989   8.721  0.6331  1.5049  1.0036
  923MOL0     H21815   5.164   8.868   8.862  1.7256  0.1382 -2.0170
  923MOL0     H21816   4.988   8.796   8.700 -0.4001  0.8356 -1.6304
  923MOL0     H21817   4.926   8.963   8.709  1.2537  0.6992 -0.6366
  923MOL0     H21818   4.771   9.508   9.088 -1.9773 -1.9905 -0.6677
  923MOL0     H21819   4.532   9.600   9.142  0.4819  3.6416  1.4463
  923MOL0     H21820   4.275   9.599   9.594 -1.9297  0.3753  1.5883
  923MOL0     H21821   4.046   9.595   9.699  0.4533  3.1917  0.9437
  923MOL0     H21822   5.016   8.637   9.704 -1.3412  0.2668 -0.5693
  923MOL0     H21823   5.180   8.533   9.568 -0.5942  2.3316  0.7164
  923MOL0     H21824   5.195   8.031   9.223  0.4518 -0.6264 -0.4029
  923MOL0     H21825   5.386   7.952   9.100  4.6733 -0.4986 -0.0028
  923MOL0     H21826   5.775   8.141   9.178  2.7043 -1.5510  0.0729
  923MOL0     H21827   5.739   8.195   9.010  0.9652  1.4588  0.5206
  923MOL0     H21828   5.826   7.903   9.070  2.2513  1.1300  1.3361
  923MOL0     H21829   5.769   7.962   8.919 -1.6323 -0.4895  1.3531
  923MOL0     H21830   5.971   8.109   8.897 -0.7450  1.0377  1.2987
  923MOL0     H21831   6.003   7.932   8.925  0.9015 -0.1723  1.1286
  923MOL0     H21832   6.006   8.144   9.132 -0.0400  0.1107 -0.2858
  923MOL0     H21833   6.043   7.966   9.162  1.2326 -0.6256 -1.1828
  923MOL0     H21834   6.374   8.185   8.969  0.7833 -0.1209  0.8475
  923MOL0     H21835   5.581   8.324   9.121 -0.0680  1.2456  0.2642
  923MOL0     H21836   5.389   8.422   9.230  4.0098  0.6264 -3.9538
  924MOL0     O21837   0.550   0.473   1.086  0.3696  0.0880 -0.2207
  924MOL0     C21838   0.595   0.369   1.048 -0.3031  0.6855 -0.2555
  924MOL0     O21839   0.523   0.265   0.992 -0.0305 -1.0570 -0.3889
  924MOL0     C21840   0.388   0.264   0.966  0.2657 -0.0589  0.3329
  924MOL0     C21841   0.288   0.322   1.041  0.4284 -0.6220  0.0791
  924MOL0     C21842   0.150   0.310   0.997  0.2937  0.1022  0.3363
  924MOL0     C21843   0.124   0.245   0.873 -0.3407 -0.5452 -0.2011
  924MOL0     O21844  -0.004   0.228   0.817  0.3864 -0.3983  0.1377
  924MOL0     C21845  -0.117   0.248   0.907  0.6259 -0.1515  0.3695
  924MOL0     C21846  -0.246   0.190   0.840  0.4041  0.2908  0.0418
  924MOL0     C21847  -0.358   0.207   0.946  0.4622 -0.2681  0.0838
  924MOL0     C21848  -0.495   0.158   0.897 -0.4169 -0.2143  0.7664
  924MOL0     C21849  -0.606   0.235   0.959  1.3153  0.0655 -0.3453
  924MOL0     C21850  -0.746   0.178   0.941 -0.2822  0.2015  0.0865
  924MOL0     C21851  -0.860   0.248   1.004  0.5026 -0.1081 -0.4770
  924MOL0     C21852  -0.973   0.159   1.058  0.3236  0.2145  0.2763
  924MOL0     N21853  -1.046   0.065   0.966  0.2706 -0.3790  0.3050
  924MOL0     C21854  -1.163   0.089   0.907  0.2265  0.1414  0.2008
  924MOL0     C21855  -1.212  -0.033   0.865  0.4415 -0.0025  0.7266
  924MOL0     C21856  -1.338  -0.047   0.781  0.3006  0.0971 -0.4926
  924MOL0     C21857  -1.460   0.006   0.859 -0.0644 -0.0201 -0.1161
  924MOL0     C21858  -1.581   0.016   0.756 -0.5258 -0.0003 -0.4312
  924MOL0     C21859  -1.705   0.096   0.808 -0.3274  0.0660  0.4132
  924MOL0     O21860  -1.802   0.007   0.862 -0.0531 -0.4510  0.2772
  924MOL0     C21861  -1.915  -0.009   0.785  0.2616  0.3974 -0.4804
  924MOL0     C21862  -1.953  -0.136   0.728  0.7890 -0.6025 -0.3900
  924MOL0     C21863  -2.060  -0.145   0.642 -0.0899 -0.3400  0.0720
  924MOL0     C21864  -2.120  -0.023   0.601  0.8912  0.5476 -1.1850
  924MOL0     C21865  -2.228  -0.042   0.500  0.8356 -0.0626  0.3775
  924MOL0     O21866  -2.329   0.049   0.497  0.2654  0.4456 -0.3765
  924MOL0     C21867  -2.437   0.044   0.413 -0.2481 -0.7719 -0.0902
  924MOL0     C21868  -2.431  -0.005   0.285  0.1907 -0.4274 -0.3521
  924MOL0     C21869  -2.547  -0.002   0.201  0.9130  0.4786  0.7871
  924MOL0     C21870  -2.676   0.030   0.260 -0.1125 -0.3506  0.5214
  924MOL0     O21871  -2.778   0.013   0.183  0.4339 -0.1634 -0.0606
  924MOL0     C21872  -2.891   0.098   0.214  0.6286 -0.3585  0.2768
  924MOL0     C21873  -2.995   0.080   0.098 -0.3440 -0.8021 -0.1235
  924MOL0     C21874  -3.061  -0.061   0.107  0.4191 -0.1460  0.5027
  924MOL0     C21875  -3.124  -0.100  -0.030 -1.1588 -0.6911 -0.0790
  924MOL0     C21876  -3.191  -0.240  -0.035 -0.7957  0.2821  0.2158
  924MOL0     C21877  -3.248  -0.254  -0.180  0.4090 -0.0439 -0.2185
  924MOL0     C21878  -3.347  -0.369  -0.183  0.1592 -0.0251  0.1984
  924MOL0     C21879  -3.443  -0.376  -0.302  0.6195 -0.2194  0.4217
  924MOL0    Cl21880  -3.531  -0.221  -0.329 -0.0412  0.5734 -0.3731
  924MOL0     C21881  -2.678   0.070   0.393 -0.7281 -0.4177  0.5357
  924MOL0     C21882  -2.562   0.092   0.461  1.4994  0.4619 -1.2697
  924MOL0     O21883  -2.222  -0.145   0.431 -0.3628 -0.7077  0.5138
  924MOL0     C21884  -2.093   0.101   0.660  0.4371  1.0414 -0.6562
  924MOL0     C21885  -1.988   0.109   0.749 -0.9343 -0.0007  0.3204
  924MOL0     N21886  -1.105  -0.124   0.889 -0.1823 -0.3172  0.2180
  924MOL0     N21887  -1.010  -0.061   0.954 -0.1964  0.5237  0.7924
  924MOL0     C21888   0.230   0.182   0.806  0.3748  0.4375  0.7394
  924MOL0     C21889   0.358   0.197   0.842 -0.3432  0.2530  0.4977
  924MOL0     C21890   0.740   0.361   1.067 -0.0532  0.3126 -0.4749
  924MOL0     C21891   0.821   0.469   1.078 -0.7002 -0.4785 -0.3323
  924MOL0     C21892   0.960   0.452   1.118 -0.3072 -1.3082  0.1722
  924MOL0     C21893   1.012   0.331   1.146  0.5525  0.2447  0.6706
  924MOL0     O21894   1.145   0.325   1.172 -0.6817  0.5264  0.0739
  924MOL0     C21895   1.212   0.200   1.163 -0.2153  0.2215 -0.0967
  924MOL0     C21896   1.365   0.236   1.173  0.2808  0.8403  0.8390
  924MOL0     C21897   1.401   0.308   1.045  0.4300  0.0762 -0.1674
  924MOL0     C21898   1.547   0.325   1.014 -0.3326 -0.0263  0.8227
  924MOL0     C21899   1.567   0.425   0.899  0.3642  0.3154  0.5298
  924MOL0     C21900   1.571   0.497   0.804  0.5523  0.0236 -0.4981
  924MOL0     C21901   0.921   0.223   1.132 -0.4297 -0.2887  0.0503
  924MOL0     C21902   0.790   0.230   1.083  0.2252 -1.1338 -0.6963
  924MOL0     H21903   0.299   0.383   1.130 -2.1416  0.2677 -0.1401
  924MOL0     H21904   0.068   0.361   1.047 -0.5844 -1.1989  0.2801
  924MOL0     H21905  -0.135   0.356   0.919 -0.2287 -0.4900  2.5818
  924MOL0     H21906  -0.104   0.208   1.008  2.8692  0.8611  0.5312
  924MOL0     H21907  -0.232   0.082   0.834 -0.2472 -0.0789  3.4465
  924MOL0     H21908  -0.266   0.233   0.741  0.0734  1.4744  0.6061
  924MOL0     H21909  -0.368   0.312   0.974  4.0345 -0.0629  1.0704
  924MOL0     H21910  -0.334   0.157   1.040  1.0607  0.6943  0.4628
  924MOL0     H21911  -0.508   0.166   0.789 -0.0446  0.7440  0.7810
  924MOL0     H21912  -0.495   0.052   0.926  0.6917 -0.0490  1.4385
  924MOL0     H21913  -0.610   0.340   0.930 -0.0852 -0.4275 -2.1035
  924MOL0     H21914  -0.588   0.233   1.067 -2.4719 -1.9957  0.4479
  924MOL0     H21915  -0.753   0.076   0.980  0.7804 -0.0825 -0.4324
  924MOL0     H21916  -0.770   0.181   0.834 -1.6689 -0.6701  0.3483
  924MOL0     H21917  -0.831   0.297   1.097  2.4118 -2.3040  0.1759
  924MOL0     H21918  -0.916   0.320   0.944 -3.5405  0.0694  3.0367
  924MOL0     H21919  -1.045   0.223   1.109  1.8359  1.6885  0.6283
  924MOL0     H21920  -0.924   0.098   1.135 -1.2429 -0.1962  0.9944
  924MOL0     H21921  -1.213   0.183   0.883  0.2093  0.3037  0.8552
  924MOL0     H21922  -1.344  -0.152   0.753  3.1462  0.8413 -4.9129
  924MOL0     H21923  -1.337   0.016   0.691  0.8509  1.2670  0.3029
  924MOL0     H21924  -1.436   0.105   0.900 -0.6107 -0.7865  2.1692
  924MOL0     H21925  -1.481  -0.061   0.943 -0.4654  1.3650  0.9316
  924MOL0     H21926  -1.543   0.050   0.659 -1.9519 -0.9949 -1.3721
  924MOL0     H21927  -1.615  -0.085   0.733 -0.8410  0.2132 -0.9173
  924MOL0     H21928  -1.750   0.146   0.721  1.5976 -2.0642 -1.9295
  924MOL0     H21929  -1.672   0.174   0.878  2.1777 -1.5025  1.0728
  924MOL0     H21930  -1.881  -0.215   0.749  1.4559 -0.3873 -1.7342
  924MOL0     H21931  -2.086  -0.244   0.606  0.8912 -1.9682  3.5293
  924MOL0     H21932  -2.348  -0.050   0.232 -0.5109 -0.6208 -1.3119
  924MOL0     H21933  -2.535  -0.038   0.099  2.1434 -2.0259  1.7192
  924MOL0     H21934  -2.860   0.203   0.221 -0.3085 -0.2015  3.0961
  924MOL0     H21935  -2.925   0.067   0.313  3.1668 -1.2027  0.9373
  924MOL0     H21936  -2.938   0.090   0.005  1.4193 -1.0295  0.8864
  924MOL0     H21937  -3.074   0.156   0.091  1.0083  0.5679 -1.2127
  924MOL0     H21938  -3.147  -0.050   0.174 -0.9893  2.1651 -1.5108
  924MOL0     H21939  -2.988  -0.134   0.143 -1.4587 -2.9552 -0.9790
  924MOL0     H21940  -3.208  -0.035  -0.054 -4.1077 -4.8899 -2.5767
  924MOL0     H21941  -3.053  -0.103  -0.114  1.0051 -2.3332  1.6978
  924MOL0     H21942  -3.265  -0.254   0.045 -0.3529  1.4136  0.8418
  924MOL0     H21943  -3.114  -0.316  -0.021 -2.5330 -1.2889  1.7188
  924MOL0     H21944  -3.162  -0.263  -0.247  1.6884 -1.2324  1.5066
  924MOL0     H21945  -3.300  -0.163  -0.213  1.2445  0.3634 -0.4412
  924MOL0     H21946  -3.299  -0.467  -0.173 -1.1737 -0.5344  2.4646
  924MOL0     H21947  -3.410  -0.354  -0.095  1.2041 -1.2310  1.1926
  924MOL0     H21948  -3.523  -0.449  -0.289 -1.0905  1.8187  1.9893
  924MOL0     H21949  -3.380  -0.401  -0.388 -0.3558 -0.9543 -0.1062
  924MOL0     H21950  -2.773   0.090   0.442 -0.4094  4.7555 -0.4302
  924MOL0     H21951  -2.576   0.120   0.565 -0.6940 -1.8520 -0.8230
  924MOL0     H21952  -2.146   0.192   0.636  1.0564  1.0165 -2.2275
  924MOL0     H21953  -1.969   0.205   0.795 -1.0929  0.6047 -0.8489
  924MOL0     H21954   0.215   0.129   0.712 -1.2740  2.7750 -0.4123
  924MOL0     H21955   0.431   0.144   0.781  0.7320  0.5934  1.4641
  924MOL0     H21956   0.785   0.568   1.049  0.0971 -0.1072 -0.0931
  924MOL0     H21957   1.031   0.534   1.121  0.3015 -1.6251 -2.6895
  924MOL0     H21958   1.196   0.152   1.067  0.2280  0.3615 -0.2456
  924MOL0     H21959   1.187   0.130   1.244 -3.5910  0.8499 -0.4547
  924MOL0     H21960   1.370   0.297   1.264  2.2335  0.1312  1.2646
  924MOL0     H21961   1.433   0.151   1.183  0.1719  0.7255  0.6013
  924MOL0     H21962   1.358   0.407   1.061 -0.5879  0.0043 -2.1456
  924MOL0     H21963   1.349   0.268   0.957 -2.5136  2.2208  0.4660
  924MOL0     H21964   1.607   0.358   1.099  0.3625  0.2129  0.2486
  924MOL0     H21965   1.584   0.227   0.980 -2.2072  0.0160 -1.6017
  924MOL0     H21966   1.564   0.568   0.725  1.6398  0.4973 -0.1946
  924MOL0     H21967   0.944   0.119   1.156 -2.4234 -0.1893  2.9418
  924MOL0     H21968   0.732   0.139   1.075  0.0124 -1.2501  1.5004
  925MOL0     O21969   7.623   3.742   0.871  0.2984  0.6055  0.2299
  925MOL0     C21970   7.709   3.692   0.941  0.4840  0.4867 -0.5179
  925MOL0     O21971   7.689   3.583   1.025  0.5039  0.3111 -0.2949
  925MOL0     C21972   7.561   3.534   1.030  0.4461  0.1508 -0.0723
  925MOL0     C21973   7.486   3.558   1.149  0.3908  0.0420 -0.2667
  925MOL0     C21974   7.355   3.505   1.173 -0.7184 -1.0381  1.1432
  925MOL0     C21975   7.300   3.440   1.059 -0.4003  0.6374  0.3704
  925MOL0     O21976   7.173   3.390   1.063  0.2636  0.4129  0.0566
  925MOL0     C21977   7.058   3.472   1.081 -0.5154  0.4431 -0.5060
  925MOL0     C21978   6.939   3.392   1.125 -0.4866 -0.1942  0.2596
  925MOL0     C21979   6.813   3.469   1.115 -0.2675 -0.2025  0.3007
  925MOL0     C21980   6.695   3.377   1.139 -0.5727 -0.6511 -0.2682
  925MOL0     C21981   6.569   3.454   1.167 -0.2481 -0.3857 -0.6180
  925MOL0     C21982   6.440   3.361   1.180  0.6905 -0.4467  0.3157
  925MOL0     C21983   6.308   3.445   1.168  0.2721  0.2864 -0.2309
  925MOL0     C21984   6.308   3.585   1.228  0.4321 -0.4423 -0.2982
  925MOL0     N21985   6.170   3.610   1.264  0.8057  0.0668 -0.4294
  925MOL0     C21986   6.085   3.677   1.178  0.5371 -0.6946  0.0284
  925MOL0     C21987   5.962   3.637   1.212  0.5961  0.4338 -0.4053
  925MOL0     C21988   5.833   3.674   1.138 -0.6388  0.2027 -0.3112
  925MOL0     C21989   5.704   3.658   1.231 -0.1869 -0.4068 -0.1363
  925MOL0     C21990   5.649   3.512   1.233  0.3030 -0.5872  0.5403
  925MOL0     C21991   5.516   3.514   1.314 -0.5899 -0.2323  0.5710
  925MOL0     O21992   5.412   3.587   1.244 -0.8194 -0.2039 -0.0714
  925MOL0     C21993   5.287   3.573   1.296  0.5676  0.4459  0.1824
  925MOL0     C21994   5.266   3.533   1.426 -0.0472 -0.5898 -0.6384
  925MOL0     C21995   5.135   3.510   1.469 -0.2446  0.4465  0.2783
  925MOL0     C21996   5.020   3.530   1.380  0.5624  0.5993 -0.5101
  925MOL0     C21997   4.889   3.504   1.433  0.5588  0.2145 -0.0842
  925MOL0     O21998   4.782   3.509   1.343 -0.6858  0.2180 -1.2149
  925MOL0     C21999   4.654   3.493   1.395 -0.3164 -0.5121  0.3871
  925MOL0     C22000   4.616   3.561   1.512  0.1537  0.0802  1.0057
  925MOL0     C22001   4.480   3.557   1.541  0.2169 -0.0682  0.1042
  925MOL0     C22002   4.379   3.485   1.473 -0.0316 -0.5280 -0.8627
  925MOL0     O22003   4.257   3.503   1.524 -0.5330  0.1913  0.1048
  925MOL0     C22004   4.159   3.415   1.463  0.1110 -0.3930  0.3676
  925MOL0     C22005   4.182   3.270   1.498  0.0625 -0.8788 -1.1265
  925MOL0     C22006   4.073   3.176   1.447 -0.0958  0.2222 -0.1122
  925MOL0     C22007   4.051   3.174   1.293  0.2847 -0.1870  0.5866
  925MOL0     C22008   3.958   3.062   1.230 -0.4724  0.3772  0.0646
  925MOL0     C22009   3.825   3.040   1.294 -0.8119 -0.1257 -0.3754
  925MOL0     C22010   3.753   2.934   1.217 -0.6867 -0.4943  0.1748
  925MOL0     C22011   3.595   2.950   1.202  0.1944  0.1363  0.3912
  925MOL0    Cl22012   3.523   2.982   1.368 -0.1700  0.0154  0.3298
  925MOL0     C22013   4.431   3.420   1.354  0.8611  0.0358  0.2551
  925MOL0     C22014   4.563   3.423   1.313 -0.6905  0.7001  0.5493
  925MOL0     O22015   4.874   3.472   1.553 -0.0365  0.4338 -0.1019
  925MOL0     C22016   5.038   3.581   1.249  0.4706  0.2016  0.5451
  925MOL0     C22017   5.174   3.588   1.205  0.5431  0.2735 -0.3495
  925MOL0     N22018   5.964   3.543   1.319 -0.3615 -0.9894  0.3811
  925MOL0     N22019   6.090   3.534   1.348 -0.2486 -0.1282 -0.4009
  925MOL0     C22020   7.370   3.428   0.935 -0.6591 -0.0739 -0.8047
  925MOL0     C22021   7.499   3.467   0.920 -1.0323  0.1358 -0.8226
  925MOL0     C22022   7.842   3.762   0.930 -0.1243 -0.1551  0.0832
  925MOL0     C22023   7.862   3.869   0.849  0.3763  1.0290  0.3698
  925MOL0     C22024   7.989   3.927   0.837  1.2896 -0.9791 -0.3658
  925MOL0     C22025   8.101   3.877   0.891  0.1367  0.4059 -0.0513
  925MOL0     O22026   8.218   3.941   0.869  0.5749  0.5352 -0.0979
  925MOL0     C22027   8.333   3.880   0.929  0.7292  0.3333  0.2463
  925MOL0     C22028   8.453   3.948   0.867 -0.1444 -0.5858  0.2185
  925MOL0     C22029   8.480   4.091   0.909 -0.1559 -0.8533 -0.8333
  925MOL0     C22030   8.558   4.167   0.801 -0.0586 -0.0748 -0.9232
  925MOL0     C22031   8.572   4.310   0.844  0.0055 -0.0242 -0.6992
  925MOL0     C22032   8.585   4.426   0.894 -0.1256 -0.3205  0.5688
  925MOL0     C22033   8.085   3.753   0.956 -0.4966  0.2462  0.3396
  925MOL0     C22034   7.959   3.707   0.980  0.5036 -0.6028  0.4771
  925MOL0     H22035   7.532   3.622   1.223  0.9704  1.4593 -1.8002
  925MOL0     H22036   7.304   3.518   1.267  0.7890  0.8986  1.7606
  925MOL0     H22037   7.041   3.525   0.986  1.1945 -0.7443 -1.5355
  925MOL0     H22038   7.078   3.541   1.163  0.3816 -0.2052 -0.1646
  925MOL0     H22039   6.959   3.356   1.227  0.7058  0.3943  0.2482
  925MOL0     H22040   6.927   3.299   1.067  1.1438 -0.0696 -0.3150
  925MOL0     H22041   6.806   3.521   1.018  0.2128  3.4559  2.0485
  925MOL0     H22042   6.813   3.547   1.191  0.7719 -0.8978  1.0265
  925MOL0     H22043   6.690   3.312   1.051  0.2701 -0.8939 -0.1443
  925MOL0     H22044   6.705   3.316   1.229 -3.0212 -1.0917 -0.2254
  925MOL0     H22045   6.547   3.531   1.093 -1.4319 -2.8532 -3.0540
  925MOL0     H22046   6.584   3.502   1.264  3.7472 -2.5805  0.0595
  925MOL0     H22047   6.430   3.302   1.271  2.8572 -0.4262  0.6347
  925MOL0     H22048   6.431   3.283   1.104 -3.4883  1.7856 -1.8062
  925MOL0     H22049   6.281   3.461   1.064 -0.0818 -1.9283 -0.5261
  925MOL0     H22050   6.233   3.381   1.215 -0.4127  0.8364 -0.5449
  925MOL0     H22051   6.352   3.659   1.161 -0.6611  2.2508  1.7811
  925MOL0     H22052   6.370   3.595   1.317  2.2786  2.7675 -1.7491
  925MOL0     H22053   6.108   3.755   1.107  1.4148  1.1860  2.2426
  925MOL0     H22054   5.833   3.618   1.044 -4.1482 -0.8274  0.1721
  925MOL0     H22055   5.849   3.778   1.108 -1.2197 -0.4583 -3.2068
  925MOL0     H22056   5.620   3.721   1.201 -2.8314 -2.8818  1.4764
  925MOL0     H22057   5.733   3.684   1.333  0.2742 -1.8164  0.1163
  925MOL0     H22058   5.633   3.476   1.131 -0.8010 -1.5171  1.0298
  925MOL0     H22059   5.728   3.452   1.278  0.8796  0.1706  0.5748
  925MOL0     H22060   5.524   3.542   1.420  1.2967 -1.7477  0.8882
  925MOL0     H22061   5.490   3.408   1.316 -3.4591  0.3678 -0.3725
  925MOL0     H22062   5.344   3.521   1.500 -0.8206 -0.7390  0.1764
  925MOL0     H22063   5.114   3.470   1.568 -0.7726 -1.3589 -0.5126
  925MOL0     H22064   4.689   3.619   1.567  1.6032 -0.6100 -0.1168
  925MOL0     H22065   4.452   3.601   1.636  1.2700 -0.3733  0.5617
  925MOL0     H22066   4.153   3.433   1.355 -0.2781 -0.9151  0.2940
  925MOL0     H22067   4.060   3.451   1.493  0.7014  3.0282 -1.3171
  925MOL0     H22068   4.195   3.256   1.606 -1.4326 -0.2614 -0.8496
  925MOL0     H22069   4.275   3.232   1.454  1.0442  0.2774 -0.1149
  925MOL0     H22070   3.978   3.214   1.486 -0.1652  0.9313 -0.9330
  925MOL0     H22071   4.092   3.076   1.486  1.8009 -0.2242 -2.0261
  925MOL0     H22072   4.000   3.263   1.255 -1.8881 -2.3770 -2.0663
  925MOL0     H22073   4.145   3.156   1.239 -1.3888 -4.5652 -1.3187
  925MOL0     H22074   4.000   2.961   1.239 -0.1587  0.6240  1.6609
  925MOL0     H22075   3.944   3.087   1.124 -1.7578  1.7518  0.5193
  925MOL0     H22076   3.773   3.136   1.291  2.3353  1.8042  1.6240
  925MOL0     H22077   3.826   3.004   1.397 -3.9571 -1.7535 -0.7974
  925MOL0     H22078   3.793   2.921   1.116  0.7514  3.9701 -0.0609
  925MOL0     H22079   3.768   2.835   1.262  2.0730 -1.3560 -2.2900
  925MOL0     H22080   3.549   2.862   1.158 -0.8682  0.1897  1.3485
  925MOL0     H22081   3.578   3.036   1.136 -1.4777 -0.3333  0.1785
  925MOL0     H22082   4.362   3.361   1.295 -1.9889  2.0977  1.2947
  925MOL0     H22083   4.598   3.375   1.223 -3.4307  1.8512 -1.2606
  925MOL0     H22084   4.959   3.591   1.175  0.2842 -2.4341  0.3122
  925MOL0     H22085   5.194   3.627   1.106 -1.1003  3.2761  0.3626
  925MOL0     H22086   7.310   3.392   0.852 -2.6422  1.5405 -0.1390
  925MOL0     H22087   7.546   3.463   0.822  0.4784  2.0435 -0.2366
  925MOL0     H22088   7.783   3.912   0.789 -0.2146 -2.3491 -1.5240
  925MOL0     H22089   7.987   4.015   0.773 -0.1039 -0.3265  0.5318
  925MOL0     H22090   8.350   3.776   0.897 -0.3186  0.7663 -1.9109
  925MOL0     H22091   8.327   3.880   1.038 -1.5826  1.5371  0.1763
  925MOL0     H22092   8.544   3.891   0.886  1.1353  0.9502 -1.0697
  925MOL0     H22093   8.448   3.952   0.757  1.4737  0.4675  0.1442
  925MOL0     H22094   8.534   4.093   1.005  0.0226 -1.2662 -0.9257
  925MOL0     H22095   8.384   4.142   0.923 -1.6490 -3.2950 -1.6645
  925MOL0     H22096   8.662   4.133   0.811 -0.6812 -1.2540  3.3600
  925MOL0     H22097   8.514   4.160   0.701  0.1167 -2.7660 -0.8751
  925MOL0     H22098   8.592   4.520   0.945 -1.8550  0.8320 -1.1782
  925MOL0     H22099   8.166   3.694   0.997 -2.0704 -1.9723  0.4680
  925MOL0     H22100   7.958   3.616   1.039  0.8419 -1.3063 -0.5683
  926MOL0     O22101   4.292   3.492   6.306 -0.0008  0.6106 -0.2744
  926MOL0     C22102   4.227   3.402   6.247  0.6720  0.2046 -1.4200
  926MOL0     O22103   4.256   3.273   6.234  0.3627  0.5778  0.5060
  926MOL0     C22104   4.386   3.238   6.254  0.0499  0.5280  0.3095
  926MOL0     C22105   4.500   3.305   6.198 -0.2142 -0.1557 -0.1420
  926MOL0     C22106   4.623   3.245   6.202 -0.6702 -0.7736 -0.3246
  926MOL0     C22107   4.645   3.140   6.288 -0.7914 -0.8149 -0.6855
  926MOL0     O22108   4.776   3.100   6.308 -0.3834 -0.1203 -0.3822
  926MOL0     C22109   4.852   3.177   6.411 -0.4219  0.3340  0.9603
  926MOL0     C22110   4.987   3.216   6.356  0.2252  0.0749 -0.2669
  926MOL0     C22111   5.074   3.094   6.342  0.4391  0.0086 -0.3458
  926MOL0     C22112   5.114   3.025   6.472  0.0288  0.5676 -0.3181
  926MOL0     C22113   5.229   2.926   6.446  0.1168 -0.0479 -0.6601
  926MOL0     C22114   5.239   2.814   6.552  0.1491  0.2393  0.0133
  926MOL0     C22115   5.224   2.848   6.703  0.0622 -0.0067 -0.1310
  926MOL0     C22116   5.304   2.953   6.761 -0.2753 -0.3778 -1.1534
  926MOL0     N22117   5.263   2.984   6.896 -0.9022 -0.2749 -0.3095
  926MOL0     C22118   5.149   3.040   6.927 -0.3190 -0.5825  0.3314
  926MOL0     C22119   5.165   3.072   7.052 -0.5368  0.5281  0.4149
  926MOL0     C22120   5.075   3.164   7.132 -0.4600  1.1294  0.2900
  926MOL0     C22121   5.043   3.093   7.268  1.4349 -0.7519  1.3146
  926MOL0     C22122   4.972   3.188   7.365  0.5448  0.0061 -0.1158
  926MOL0     C22123   4.955   3.117   7.505  0.6549 -0.1156 -0.0394
  926MOL0     O22124   4.836   3.034   7.507  0.6233  0.3487 -0.4431
  926MOL0     C22125   4.713   3.093   7.513 -0.2664  0.5913 -0.1971
  926MOL0     C22126   4.599   3.008   7.521  0.0091  0.0928 -0.3970
  926MOL0     C22127   4.469   3.051   7.516  0.2262 -0.5495 -0.1515
  926MOL0     C22128   4.445   3.191   7.525 -0.8144 -0.2491  0.6103
  926MOL0     C22129   4.307   3.239   7.532  0.0259 -0.7344 -0.3797
  926MOL0     O22130   4.215   3.159   7.598 -0.6231  0.1678  0.1953
  926MOL0     C22131   4.085   3.193   7.582  0.8081  0.8737  0.3587
  926MOL0     C22132   3.993   3.096   7.539 -0.4145 -0.4445 -0.2201
  926MOL0     C22133   3.860   3.122   7.531  0.1732  0.7742 -0.1842
  926MOL0     C22134   3.807   3.240   7.582 -0.3741  0.7259  0.2586
  926MOL0     O22135   3.671   3.254   7.585  0.5772 -0.9180 -0.5997
  926MOL0     C22136   3.630   3.383   7.635 -0.2180 -1.6786 -0.0657
  926MOL0     C22137   3.475   3.396   7.628  0.4938  0.0236 -0.5693
  926MOL0     C22138   3.413   3.297   7.726 -0.0700 -0.1954  0.4407
  926MOL0     C22139   3.258   3.306   7.708 -0.5815  0.3594  0.2345
  926MOL0     C22140   3.220   3.228   7.586  0.8894  0.1360 -0.5684
  926MOL0     C22141   3.061   3.220   7.588 -0.5533 -0.1311 -0.2378
  926MOL0     C22142   3.009   3.145   7.465 -0.3026  0.6365  0.1860
  926MOL0     C22143   2.859   3.131   7.459 -0.0391 -0.2430 -0.3160
  926MOL0    Cl22144   2.819   3.045   7.315  0.1384  0.2476  0.3685
  926MOL0     C22145   3.898   3.342   7.629 -0.6269 -0.1998  0.5586
  926MOL0     C22146   4.034   3.313   7.635 -0.1234 -0.1232  0.3118
  926MOL0     O22147   4.284   3.346   7.475  0.1694  0.4931 -0.2114
  926MOL0     C22148   4.554   3.281   7.508 -0.0728  0.5667 -0.5351
  926MOL0     C22149   4.689   3.237   7.503  0.3938  1.3458 -0.2810
  926MOL0     N22150   5.289   3.036   7.098  0.7595 -0.0465  0.0019
  926MOL0     N22151   5.347   2.982   7.004 -0.1909  0.3276 -0.2478
  926MOL0     C22152   4.534   3.085   6.355  0.3563 -0.9911  0.2462
  926MOL0     C22153   4.403   3.127   6.337 -0.2855  0.5485 -0.0708
  926MOL0     C22154   4.099   3.442   6.184 -0.5843 -0.3618 -0.3441
  926MOL0     C22155   3.988   3.359   6.169 -0.8606 -0.2387  0.9652
  926MOL0     C22156   3.877   3.400   6.102  1.1138  0.2133 -0.0724
  926MOL0     C22157   3.865   3.530   6.045  0.4121  1.3254  0.3181
  926MOL0     O22158   3.756   3.570   5.973  0.0132  0.2018  0.5143
  926MOL0     C22159   3.728   3.712   5.958  0.3554  0.2225  0.7704
  926MOL0     C22160   3.592   3.733   5.896  0.4386 -0.3863  0.2925
  926MOL0     C22161   3.484   3.640   5.953 -0.0073 -0.5191  0.4419
  926MOL0     C22162   3.337   3.671   5.913  0.6937 -0.0542 -0.2867
  926MOL0     C22163   3.290   3.789   5.981  0.7814  0.4279  0.3254
  926MOL0     C22164   3.232   3.882   6.034 -0.4941  0.4674  0.1227
  926MOL0     C22165   3.979   3.612   6.067  0.7877 -0.2792  1.2483
  926MOL0     C22166   4.094   3.571   6.122  0.5749  0.2686 -0.1106
  926MOL0     H22167   4.488   3.388   6.129  2.3307  2.5299  2.3709
  926MOL0     H22168   4.717   3.278   6.158  0.5239  0.3860  2.8402
  926MOL0     H22169   4.860   3.119   6.504  0.5670  1.4286  1.5755
  926MOL0     H22170   4.788   3.262   6.438 -1.3017 -0.0120  0.0277
  926MOL0     H22171   5.024   3.297   6.419 -2.9110  1.0333  0.4677
  926MOL0     H22172   4.971   3.257   6.257 -2.1495 -1.5056 -0.6032
  926MOL0     H22173   5.168   3.122   6.293 -1.3080  1.0235 -3.4121
  926MOL0     H22174   5.033   3.020   6.272  4.0074 -1.1984 -1.3544
  926MOL0     H22175   5.142   3.094   6.552 -3.1326 -0.9390  2.3588
  926MOL0     H22176   5.021   2.976   6.502 -1.3964  2.2608 -1.7364
  926MOL0     H22177   5.326   2.974   6.432 -0.5821  1.6621  0.0395
  926MOL0     H22178   5.208   2.870   6.354 -0.4874 -2.9852  1.1078
  926MOL0     H22179   5.336   2.764   6.553  0.7527  1.2395 -2.1237
  926MOL0     H22180   5.163   2.739   6.527 -0.0062  0.3792  0.0640
  926MOL0     H22181   5.120   2.873   6.725 -0.3602  1.3657 -3.2376
  926MOL0     H22182   5.252   2.757   6.757 -2.6625 -0.5424  0.5279
  926MOL0     H22183   5.293   3.048   6.708 -0.7471  1.2223  1.5897
  926MOL0     H22184   5.409   2.920   6.761 -1.1215 -3.5719  1.2043
  926MOL0     H22185   5.069   3.074   6.863 -0.6052  0.5968  1.2699
  926MOL0     H22186   4.995   3.184   7.059  3.5406 -0.0975 -5.0662
  926MOL0     H22187   5.137   3.249   7.160  0.2862  0.0750  1.9637
  926MOL0     H22188   5.136   3.058   7.314  0.5265  0.2514  4.1485
  926MOL0     H22189   4.991   2.996   7.261  2.0991 -1.1530  1.8327
  926MOL0     H22190   5.024   3.282   7.384 -0.8801  0.5927  1.1168
  926MOL0     H22191   4.872   3.214   7.329  0.4147 -0.1567  0.1233
  926MOL0     H22192   4.933   3.196   7.576 -1.4695 -0.0403 -0.7247
  926MOL0     H22193   5.052   3.071   7.527  0.7358  0.1818  0.2260
  926MOL0     H22194   4.617   2.902   7.534  1.4124  0.2567 -0.8634
  926MOL0     H22195   4.385   2.982   7.523 -0.4786  0.3171  0.2116
  926MOL0     H22196   4.034   2.999   7.511  0.0176 -0.6193  0.9393
  926MOL0     H22197   3.790   3.046   7.495  0.6385  0.5994 -0.7370
  926MOL0     H22198   3.677   3.464   7.578  0.6356 -2.8728 -1.1093
  926MOL0     H22199   3.664   3.389   7.739  1.1842 -3.4741 -0.3658
  926MOL0     H22200   3.448   3.364   7.527  1.6508 -1.2507 -0.5031
  926MOL0     H22201   3.426   3.494   7.636  2.2624  0.7641  3.9210
  926MOL0     H22202   3.426   3.333   7.828 -4.3460  3.0527  0.1276
  926MOL0     H22203   3.449   3.195   7.714 -1.2690 -1.0260  3.1825
  926MOL0     H22204   3.216   3.254   7.795 -1.6003  0.0571 -0.4211
  926MOL0     H22205   3.221   3.408   7.694  0.7752  0.8437  0.0344
  926MOL0     H22206   3.266   3.129   7.591  2.8157  1.0283  0.4605
  926MOL0     H22207   3.262   3.266   7.492  0.0242 -0.9391 -1.4298
  926MOL0     H22208   3.023   3.321   7.604 -0.6473 -0.3617  1.1172
  926MOL0     H22209   3.019   3.167   7.674  0.5554  0.5509  0.7409
  926MOL0     H22210   3.033   3.208   7.378  0.5842  1.3960  0.9634
  926MOL0     H22211   3.053   3.047   7.447 -0.7714  0.2609  1.0367
  926MOL0     H22212   2.818   3.232   7.446  0.5927 -0.0965 -1.2882
  926MOL0     H22213   2.819   3.081   7.547  0.3567 -2.6707 -1.4257
  926MOL0     H22214   3.869   3.439   7.670  0.5595 -0.1763  1.3960
  926MOL0     H22215   4.106   3.378   7.684 -1.2420  0.8654  0.6946
  926MOL0     H22216   4.524   3.385   7.520  3.3086  2.0457 -3.0562
  926MOL0     H22217   4.761   3.318   7.501 -1.3004  2.9149 -1.6346
  926MOL0     H22218   4.545   2.999   6.421 -1.5747 -0.4276  1.3848
  926MOL0     H22219   4.312   3.082   6.375  0.2399 -1.3765 -0.9572
  926MOL0     H22220   3.995   3.259   6.210  1.4661  0.1118  1.5603
  926MOL0     H22221   3.791   3.335   6.092 -2.5126  4.3659  0.8412
  926MOL0     H22222   3.805   3.751   5.891  0.5687 -1.2241  0.1350
  926MOL0     H22223   3.726   3.768   6.052  4.9781  0.8644  0.7443
  926MOL0     H22224   3.561   3.836   5.918 -0.7211 -1.0140  1.7670
  926MOL0     H22225   3.595   3.725   5.787 -2.8501  0.4417  0.0515
  926MOL0     H22226   3.489   3.628   6.062  0.8047 -1.3174  0.3225
  926MOL0     H22227   3.508   3.544   5.907 -2.6135  1.0055 -4.9324
  926MOL0     H22228   3.331   3.679   5.805 -2.6714 -0.6326 -0.2510
  926MOL0     H22229   3.283   3.578   5.936  1.6828 -0.5067  0.2563
  926MOL0     H22230   3.173   3.965   6.069  1.6326  1.4114  1.7668
  926MOL0     H22231   3.987   3.701   6.006  0.1184  1.6084  3.7476
  926MOL0     H22232   4.179   3.637   6.109 -1.2663  2.8764  0.4088
  927MOL0     O22233   0.354   3.300  10.028 -0.5960  0.0847  0.1812
  927MOL0     C22234   0.391   3.383   9.947  0.2802  1.2211  0.3971
  927MOL0     O22235   0.309   3.478   9.884  0.1589 -0.4613  0.2426
  927MOL0     C22236   0.170   3.459   9.899 -0.2721  0.6231  0.0788
  927MOL0     C22237   0.075   3.565   9.909  0.3154  0.4050 -0.2262
  927MOL0     C22238  -0.068   3.538   9.914 -1.0036 -0.7511 -0.6808
  927MOL0     C22239  -0.118   3.403   9.896 -0.1434  0.3794 -0.1448
  927MOL0     O22240  -0.254   3.377   9.905  0.1988 -0.1488  0.0090
  927MOL0     C22241  -0.308   3.245   9.884 -0.8973 -0.3419 -0.7769
  927MOL0     C22242  -0.460   3.254   9.912  0.0154  0.1264 -0.4576
  927MOL0     C22243  -0.534   3.372   9.847  1.0281  0.0017  0.7088
  927MOL0     C22244  -0.685   3.351   9.857 -0.2246  0.5368  0.3044
  927MOL0     C22245  -0.771   3.476   9.822  0.0393 -0.0796 -0.2214
  927MOL0     C22246  -0.725   3.578   9.712  0.2456 -0.6616  1.1366
  927MOL0     C22247  -0.760   3.539   9.565 -0.4294  0.4017  0.5016
  927MOL0     C22248  -0.697   3.409   9.512 -0.6468 -1.1247  0.9993
  927MOL0     N22249  -0.731   3.387   9.366  0.0573 -0.7736 -0.1079
  927MOL0     C22250  -0.682   3.449   9.251  0.6878 -0.1511 -0.1170
  927MOL0     C22251  -0.755   3.395   9.144  0.2548  0.3339 -0.8401
  927MOL0     C22252  -0.737   3.416   8.998 -1.1488  0.3222  1.1227
  927MOL0     C22253  -0.585   3.389   8.954  0.7682  0.6772 -0.2286
  927MOL0     C22254  -0.571   3.423   8.806 -1.0767  0.4914  0.3652
  927MOL0     C22255  -0.430   3.456   8.756  0.0129 -0.0288  0.1049
  927MOL0     O22256  -0.395   3.589   8.803 -0.7491  0.7785 -1.1464
  927MOL0     C22257  -0.265   3.627   8.780  0.1881  0.8533  0.2443
  927MOL0     C22258  -0.244   3.765   8.771  0.3929 -0.0585 -0.5925
  927MOL0     C22259  -0.109   3.813   8.743 -0.2126 -0.1287 -0.1609
  927MOL0     C22260  -0.002   3.721   8.724  0.6598 -0.5593  0.3939
  927MOL0     C22261   0.135   3.766   8.695  0.0693 -0.6653 -0.6743
  927MOL0     O22262   0.211   3.677   8.623  0.4423  0.4903 -0.6201
  927MOL0     C22263   0.346   3.699   8.602  0.8200  0.3525 -0.2924
  927MOL0     C22264   0.430   3.583   8.595  0.4278 -0.4146 -1.1638
  927MOL0     C22265   0.563   3.612   8.556  0.3586 -1.2214 -0.0495
  927MOL0     C22266   0.610   3.734   8.498  0.1771 -0.3552 -0.9070
  927MOL0     O22267   0.738   3.767   8.447  0.3105  0.1398 -1.2177
  927MOL0     C22268   0.843   3.666   8.463  0.1886  0.0852 -0.1334
  927MOL0     C22269   0.967   3.740   8.420  0.0389 -0.5322 -0.1136
  927MOL0     C22270   1.072   3.634   8.378 -0.3457  0.1728 -0.7585
  927MOL0     C22271   1.191   3.706   8.316  0.4401 -0.3682  0.0780
  927MOL0     C22272   1.333   3.639   8.342  0.9299  0.1793 -0.0432
  927MOL0     C22273   1.424   3.645   8.219  0.6558 -0.3453  0.9478
  927MOL0     C22274   1.476   3.783   8.193  0.5799  0.2374  0.5870
  927MOL0     C22275   1.546   3.787   8.057  0.4866 -1.0236 -0.1236
  927MOL0    Cl22276   1.689   3.667   8.045  0.2704  0.1681  0.0256
  927MOL0     C22277   0.525   3.839   8.503  0.6713  0.1463  0.6291
  927MOL0     C22278   0.389   3.823   8.556 -0.1632  0.1202  0.8252
  927MOL0     O22279   0.176   3.870   8.750 -0.0670 -0.7347 -0.3210
  927MOL0     C22280  -0.028   3.582   8.726  0.5034  0.2091 -0.7069
  927MOL0     C22281  -0.159   3.539   8.749  0.2469  0.0153  0.1232
  927MOL0     N22282  -0.841   3.303   9.195 -0.2890 -0.0682 -0.5886
  927MOL0     N22283  -0.840   3.306   9.322 -0.0776 -0.3599 -0.4690
  927MOL0     C22284  -0.024   3.303   9.870 -0.4479 -0.8113 -0.1511
  927MOL0     C22285   0.116   3.330   9.865 -0.3925  0.0534  0.2175
  927MOL0     C22286   0.537   3.407   9.931  0.8380  0.6616 -0.0317
  927MOL0     C22287   0.627   3.302   9.946  0.2948 -0.2162 -0.6937
  927MOL0     C22288   0.766   3.331   9.937  0.7159 -0.7002  0.1727
  927MOL0     C22289   0.811   3.456   9.899 -0.0577  0.1872  0.8506
  927MOL0     O22290   0.944   3.469   9.894  0.1989  0.3519 -0.1502
  927MOL0     C22291   1.001   3.598   9.899 -0.2909  0.2134  0.2651
  927MOL0     C22292   1.140   3.586   9.937 -0.4294  0.0182  0.5199
  927MOL0     C22293   1.228   3.516   9.835  0.2089  0.9681  0.4272
  927MOL0     C22294   1.295   3.608   9.734  0.7486 -0.0791  0.8212
  927MOL0     C22295   1.379   3.713   9.802  0.3028  0.0773 -0.0854
  927MOL0     C22296   1.449   3.803   9.850  0.9402  0.1912  1.2378
  927MOL0     C22297   0.722   3.561   9.881  0.8227  0.2484  0.0895
  927MOL0     C22298   0.582   3.539   9.905 -0.6484  0.3649 -0.3169
  927MOL0     H22299   0.127   3.661   9.916 -2.2255  1.9644 -1.1743
  927MOL0     H22300  -0.138   3.616   9.941 -1.5654 -2.1112  2.1480
  927MOL0     H22301  -0.257   3.178   9.955  1.5757  0.1833 -1.9427
  927MOL0     H22302  -0.290   3.202   9.785 -0.0032  2.0342 -1.7294
  927MOL0     H22303  -0.468   3.263  10.021  2.2088  0.8872 -0.3117
  927MOL0     H22304  -0.514   3.167   9.873 -1.5673  0.8647  0.0167
  927MOL0     H22305  -0.513   3.366   9.740 -1.4718 -1.2106  0.2112
  927MOL0     H22306  -0.503   3.470   9.886  0.7266  0.3072  0.1899
  927MOL0     H22307  -0.715   3.269   9.791  1.3456  0.6345 -0.5566
  927MOL0     H22308  -0.703   3.319   9.961  0.0791 -1.7877 -0.2955
  927MOL0     H22309  -0.787   3.535   9.913  0.7373 -1.2186  0.6723
  927MOL0     H22310  -0.873   3.442   9.802 -0.4389  0.3280  1.3285
  927MOL0     H22311  -0.618   3.594   9.724  1.4868 -4.0775 -2.7815
  927MOL0     H22312  -0.767   3.677   9.732 -1.9737 -0.8380 -1.8993
  927MOL0     H22313  -0.868   3.521   9.565 -0.5470 -0.3405 -4.4495
  927MOL0     H22314  -0.736   3.625   9.501 -1.3756  0.2247 -0.1074
  927MOL0     H22315  -0.719   3.316   9.565  1.2696 -3.2752 -1.7021
  927MOL0     H22316  -0.588   3.419   9.517 -0.6718 -1.1795  1.8294
  927MOL0     H22317  -0.604   3.522   9.231  0.7237 -0.8116 -2.8486
  927MOL0     H22318  -0.767   3.517   8.971 -2.7244 -0.1177  1.1659
  927MOL0     H22319  -0.807   3.346   8.951  0.4588  0.3424 -1.5150
  927MOL0     H22320  -0.559   3.283   8.963 -2.5568 -0.1584  1.8895
  927MOL0     H22321  -0.536   3.468   9.011 -1.7324  2.3757 -0.2769
  927MOL0     H22322  -0.598   3.335   8.747  0.7582  1.5142 -2.1724
  927MOL0     H22323  -0.620   3.514   8.770 -1.0288 -0.1123 -1.3423
  927MOL0     H22324  -0.435   3.454   8.647  0.7816 -1.9191  0.0699
  927MOL0     H22325  -0.359   3.375   8.775 -0.6641 -1.7602 -3.8112
  927MOL0     H22326  -0.322   3.837   8.793  0.4620 -0.1305 -0.1067
  927MOL0     H22327  -0.087   3.919   8.752  0.0345 -0.2859  1.3436
  927MOL0     H22328   0.397   3.484   8.625 -1.0330  0.1070 -1.0035
  927MOL0     H22329   0.629   3.525   8.555 -0.9257 -2.2194  0.0390
  927MOL0     H22330   0.809   3.577   8.409  1.0914 -1.6559  2.0222
  927MOL0     H22331   0.857   3.627   8.564  0.2769 -0.3703 -0.3187
  927MOL0     H22332   0.992   3.806   8.503  0.2552  1.2961 -1.5859
  927MOL0     H22333   0.949   3.807   8.336  1.0264 -1.9113 -1.4782
  927MOL0     H22334   1.022   3.556   8.319 -0.1795 -0.8125  0.3625
  927MOL0     H22335   1.112   3.580   8.465 -2.9037  2.5306  2.1074
  927MOL0     H22336   1.172   3.700   8.208  3.0797  0.4147 -0.5047
  927MOL0     H22337   1.198   3.815   8.324  1.2516 -0.0360 -3.3724
  927MOL0     H22338   1.320   3.533   8.363 -0.8995 -0.2207 -2.7404
  927MOL0     H22339   1.379   3.681   8.432 -0.9223 -1.2259  1.6377
  927MOL0     H22340   1.373   3.612   8.128 -1.4522  2.2967  1.0831
  927MOL0     H22341   1.514   3.586   8.241  0.9882 -0.0333  0.4550
  927MOL0     H22342   1.394   3.854   8.203  1.9379  1.6756  2.3528
  927MOL0     H22343   1.547   3.826   8.264  0.3817  2.3066 -0.3881
  927MOL0     H22344   1.585   3.889   8.053 -0.2087 -0.5893  2.3065
  927MOL0     H22345   1.469   3.770   7.981 -1.8673  1.5773  1.4936
  927MOL0     H22346   0.568   3.932   8.466  2.3212  0.2313  2.6418
  927MOL0     H22347   0.326   3.911   8.550  0.3829  0.3952 -3.2875
  927MOL0     H22348   0.055   3.515   8.707  0.6324  0.4601 -1.0270
  927MOL0     H22349  -0.161   3.430   8.745  4.5729 -0.3296  1.6059
  927MOL0     H22350  -0.053   3.199   9.859 -1.5854 -0.4272 -0.9201
  927MOL0     H22351   0.190   3.255   9.839 -0.4916  0.5108 -1.4957
  927MOL0     H22352   0.585   3.205   9.970 -1.9565  0.7428 -0.4583
  927MOL0     H22353   0.836   3.254   9.969 -0.0365 -0.4977  2.4547
  927MOL0     H22354   0.955   3.655   9.979  1.9217  0.3412  1.5327
  927MOL0     H22355   1.002   3.648   9.801  3.9189 -2.9969 -1.6985
  927MOL0     H22356   1.180   3.687   9.950 -0.1168  0.1495 -1.2140
  927MOL0     H22357   1.142   3.519  10.023  0.6576 -1.0776 -0.3205
  927MOL0     H22358   1.172   3.441   9.778  1.8617 -0.0275  0.0531
  927MOL0     H22359   1.309   3.456   9.878  1.3811  1.2039 -1.3289
  927MOL0     H22360   1.348   3.556   9.654  0.6256 -0.3950  0.9427
  927MOL0     H22361   1.210   3.654   9.684  0.8969 -1.8320 -1.1915
  927MOL0     H22362   1.513   3.885   9.874 -1.6763  2.2839  1.5847
  927MOL0     H22363   0.759   3.662   9.870  1.5520  0.0248  0.4286
  927MOL0     H22364   0.507   3.617   9.900 -3.4433 -2.1537 -0.6239
  928MOL0     O22365   0.202  10.361   5.279 -0.1843 -0.1316 -1.3989
  928MOL0     C22366   0.220  10.343   5.399 -0.7821  0.3839  0.0049
  928MOL0     O22367   0.134  10.267   5.484  0.6347 -0.0525 -0.0466
  928MOL0     C22368  -0.005  10.271   5.462 -0.6428  0.3510  0.1850
  928MOL0     C22369  -0.065  10.391   5.410 -0.6884  0.2354 -0.9761
  928MOL0     C22370  -0.204  10.404   5.406 -0.6044  0.1821  0.8981
  928MOL0     C22371  -0.283  10.296   5.450 -0.7635  0.4144  0.7164
  928MOL0     O22372  -0.418  10.319   5.430  0.6608 -0.0975 -0.4686
  928MOL0     C22373  -0.484  10.222   5.359  0.1747  1.1952 -0.2349
  928MOL0     C22374  -0.640  10.204   5.408 -0.3488 -0.2409 -0.3522
  928MOL0     C22375  -0.716  10.332   5.362 -0.0611  0.3328  0.2142
  928MOL0     C22376  -0.862  10.328   5.372  0.3127  0.2424 -0.2315
  928MOL0     C22377  -0.932  10.431   5.293 -0.5309  0.2410  0.0048
  928MOL0     C22378  -1.084  10.401   5.306  0.5116 -1.0588 -0.3939
  928MOL0     C22379  -1.175  10.479   5.208  0.3074 -0.0829  0.5772
  928MOL0     C22380  -1.179  10.625   5.252  0.4740 -0.5368  0.2288
  928MOL0     N22381  -1.274  10.698   5.165  0.8937 -0.0538  0.8789
  928MOL0     C22382  -1.255  10.727   5.028 -0.2931 -0.5569 -0.5874
  928MOL0     C22383  -1.360  10.797   4.998 -0.8890 -0.3916  0.7913
  928MOL0     C22384  -1.379  10.869   4.861 -0.9607  0.3348 -0.4483
  928MOL0     C22385  -1.513  10.841   4.781 -0.9191 -0.5958 -0.5335
  928MOL0     C22386  -1.639  10.906   4.852 -0.1339 -0.1610 -0.0294
  928MOL0     C22387  -1.775  10.866   4.793  0.9504  0.1368 -0.8322
  928MOL0     O22388  -1.886  10.918   4.874  0.2497 -0.3165  0.0793
  928MOL0     C22389  -1.999  10.838   4.892  0.6791 -0.3965  0.1194
  928MOL0     C22390  -2.124  10.906   4.897  0.5849  0.7413  0.1564
  928MOL0     C22391  -2.236  10.828   4.907  0.2162 -0.7997  0.5924
  928MOL0     C22392  -2.233  10.683   4.895  0.6299 -0.2283  0.5143
  928MOL0     C22393  -2.360  10.608   4.894 -1.0616  1.7182  0.2821
  928MOL0     O22394  -2.477  10.678   4.911 -0.0460  0.5277 -0.1461
  928MOL0     C22395  -2.591  10.612   4.867 -0.0840 -0.6461 -0.1640
  928MOL0     C22396  -2.628  10.651   4.730  0.1713 -0.2984  0.4957
  928MOL0     C22397  -2.749  10.588   4.678  0.4135 -0.0319 -0.6596
  928MOL0     C22398  -2.835  10.512   4.761  0.0474  1.0839  0.3465
  928MOL0     O22399  -2.960  10.452   4.722 -0.6645 -0.4746  0.6276
  928MOL0     C22400  -2.960  10.380   4.600  1.1350  0.4362 -0.2412
  928MOL0     C22401  -3.098  10.390   4.531  0.5426  1.9219 -0.1195
  928MOL0     C22402  -3.189  10.281   4.595 -0.0391  0.0851 -0.2110
  928MOL0     C22403  -3.339  10.302   4.556 -0.5967  0.1438 -0.1719
  928MOL0     C22404  -3.427  10.189   4.611 -0.8725 -0.8395  0.5804
  928MOL0     C22405  -3.562  10.159   4.529 -0.9213 -0.9267 -0.4277
  928MOL0     C22406  -3.662  10.264   4.554 -0.1412 -0.6652  0.2810
  928MOL0     C22407  -3.770  10.260   4.449  0.1244 -0.5597 -0.2932
  928MOL0    Cl22408  -3.881  10.121   4.480 -0.4857 -0.4865  0.2810
  928MOL0     C22409  -2.786  10.465   4.881  0.6327  0.3503 -0.3638
  928MOL0     C22410  -2.663  10.508   4.945  0.0947  0.1422  0.0843
  928MOL0     O22411  -2.345  10.484   4.898  0.3063 -0.2114 -1.1183
  928MOL0     C22412  -2.109  10.625   4.895 -0.2648  0.1011  0.3848
  928MOL0     C22413  -1.992  10.696   4.889 -0.4446 -1.0113  0.0468
  928MOL0     N22414  -1.446  10.803   5.104  0.3325 -1.6820  0.6413
  928MOL0     N22415  -1.400  10.735   5.204 -0.1952 -0.4257  0.6879
  928MOL0     C22416  -0.220  10.182   5.496  0.1764  0.6537  0.3894
  928MOL0     C22417  -0.081  10.167   5.518  0.6239  0.2263  0.9927
  928MOL0     C22418   0.342  10.408   5.455  0.0226  0.4009  0.0314
  928MOL0     C22419   0.414  10.515   5.386  0.5489  0.5104 -0.5320
  928MOL0     C22420   0.530  10.564   5.444 -0.0986 -0.6023 -0.5810
  928MOL0     C22421   0.576  10.510   5.562  0.4857  0.0128 -0.9685
  928MOL0     O22422   0.696  10.549   5.604  0.1469 -0.9216  0.0156
  928MOL0     C22423   0.805  10.478   5.539  0.0846 -0.0617  0.2130
  928MOL0     C22424   0.911  10.449   5.643 -0.7946 -0.0480 -0.5199
  928MOL0     C22425   0.985  10.583   5.682  0.5639  0.8470  0.3456
  928MOL0     C22426   1.070  10.572   5.805  0.2950 -0.3688 -0.0498
  928MOL0     C22427   1.193  10.518   5.761 -0.1160  0.3598  0.0779
  928MOL0     C22428   1.305  10.477   5.746  1.0418  0.4278  0.3791
  928MOL0     C22429   0.506  10.409   5.631  0.1643  0.0835 -0.0198
  928MOL0     C22430   0.397  10.355   5.570  0.1024 -0.3433  0.8375
  928MOL0     H22431   0.008  10.464   5.375  1.2080 -1.8199 -1.5749
  928MOL0     H22432  -0.240  10.489   5.349  1.1663  1.4012  1.4930
  928MOL0     H22433  -0.433  10.125   5.356  0.6483  1.4626 -1.8085
  928MOL0     H22434  -0.477  10.241   5.252  0.2197 -1.7773 -0.8645
  928MOL0     H22435  -0.642  10.188   5.516  0.6461  0.2119 -0.2559
  928MOL0     H22436  -0.688  10.122   5.353 -3.8827  0.6232  1.1473
  928MOL0     H22437  -0.696  10.350   5.256  0.9368  0.1139  0.3490
  928MOL0     H22438  -0.679  10.416   5.422 -0.5755 -0.1394  1.2283
  928MOL0     H22439  -0.894  10.229   5.336 -0.1282  0.3838 -0.2326
  928MOL0     H22440  -0.896  10.328   5.476 -1.3371 -2.3857 -0.6698
  928MOL0     H22441  -0.900  10.429   5.188  1.2979  0.5034  0.5270
  928MOL0     H22442  -0.915  10.529   5.339 -3.3090  0.3351  1.0251
  928MOL0     H22443  -1.116  10.427   5.407 -2.4669 -1.2196 -1.2004
  928MOL0     H22444  -1.101  10.294   5.288 -1.1225 -1.9917  4.9325
  928MOL0     H22445  -1.137  10.463   5.107  0.2874 -0.4785  0.6279
  928MOL0     H22446  -1.278  10.442   5.205 -0.1062  0.9468  1.4525
  928MOL0     H22447  -1.084  10.676   5.233  0.5291 -0.6650  0.1608
  928MOL0     H22448  -1.216  10.625   5.355  2.1185 -0.8917  0.8561
  928MOL0     H22449  -1.173  10.717   4.957  1.3736 -0.7981  1.2806
  928MOL0     H22450  -1.294  10.838   4.800  0.5366  2.4931  0.4112
  928MOL0     H22451  -1.365  10.974   4.887 -0.8480 -0.0842  1.2909
  928MOL0     H22452  -1.514  10.732   4.768 -2.7931 -0.5282 -1.3129
  928MOL0     H22453  -1.500  10.885   4.682 -1.0561  0.1918 -0.2076
  928MOL0     H22454  -1.644  10.897   4.961  0.1171  0.5044  0.0395
  928MOL0     H22455  -1.635  11.015   4.838  1.2165  0.0090  1.3870
  928MOL0     H22456  -1.779  10.757   4.781  0.3111 -0.0283  0.7084
  928MOL0     H22457  -1.777  10.904   4.691  3.4090 -0.9542 -1.3564
  928MOL0     H22458  -2.143  11.012   4.899 -3.7502  0.2706 -2.8388
  928MOL0     H22459  -2.335  10.872   4.901  0.7186  0.1658 -1.1226
  928MOL0     H22460  -2.578  10.734   4.682  0.5834 -0.0806  1.2874
  928MOL0     H22461  -2.787  10.620   4.581 -2.1281 -0.3903  0.1416
  928MOL0     H22462  -2.939  10.276   4.627  0.6201 -0.0312 -1.5494
  928MOL0     H22463  -2.880  10.401   4.529  1.4417  1.0819  0.2903
  928MOL0     H22464  -3.099  10.371   4.423 -1.0391  1.3632 -0.0340
  928MOL0     H22465  -3.144  10.486   4.555 -1.6979  0.1392  3.5458
  928MOL0     H22466  -3.175  10.279   4.703  0.6956 -2.3346 -0.2931
  928MOL0     H22467  -3.161  10.183   4.556 -2.2050 -0.1686 -1.3345
  928MOL0     H22468  -3.369  10.400   4.593 -1.9885  0.3028 -1.6063
  928MOL0     H22469  -3.332  10.305   4.447  1.3247  0.0814 -0.0741
  928MOL0     H22470  -3.441  10.212   4.717  2.4385 -0.7201  1.0869
  928MOL0     H22471  -3.379  10.091   4.615  2.3396  0.6366  1.4876
  928MOL0     H22472  -3.605  10.074   4.583 -2.2663  0.7684  1.3316
  928MOL0     H22473  -3.526  10.141   4.428  2.3266 -1.6843  0.7216
  928MOL0     H22474  -3.710  10.249   4.651  1.1298 -1.5185  0.7964
  928MOL0     H22475  -3.611  10.361   4.558 -0.5114 -0.4223 -0.6522
  928MOL0     H22476  -3.726  10.249   4.350  1.4097 -0.7436  0.2720
  928MOL0     H22477  -3.827  10.353   4.454  0.4684 -0.3747  0.3629
  928MOL0     H22478  -2.841  10.387   4.932  2.2784  0.4283  1.6507
  928MOL0     H22479  -2.637  10.459   5.039 -0.3838 -0.0905  0.0991
  928MOL0     H22480  -2.098  10.517   4.895  0.4921  0.1744  1.1751
  928MOL0     H22481  -1.913  10.623   4.889 -2.4681 -3.3940  2.0671
  928MOL0     H22482  -0.285  10.098   5.516  3.5275 -2.2873 -0.0321
  928MOL0     H22483  -0.034  10.074   5.548 -2.0202 -1.3527  0.5558
  928MOL0     H22484   0.385  10.564   5.293  2.2269  2.7377  0.0152
  928MOL0     H22485   0.598  10.634   5.395 -1.9623  2.0478  0.4272
  928MOL0     H22486   0.839  10.546   5.460 -0.3412 -1.9563 -1.6951
  928MOL0     H22487   0.782  10.383   5.490  2.2371 -2.2475  3.0898
  928MOL0     H22488   0.871  10.400   5.733  0.3360 -0.9301 -0.4797
  928MOL0     H22489   0.995  10.390   5.605 -0.7884 -0.1307 -0.3778
  928MOL0     H22490   0.907  10.656   5.705 -0.1919 -0.6818  2.9415
  928MOL0     H22491   1.034  10.630   5.595 -0.7297 -1.6652 -1.8802
  928MOL0     H22492   1.092  10.671   5.845 -1.3860  0.0730 -0.1802
  928MOL0     H22493   1.025  10.510   5.883  0.7010 -0.0992  0.4052
  928MOL0     H22494   1.407  10.453   5.725  1.3063  2.2209 -0.5933
  928MOL0     H22495   0.545  10.369   5.724 -2.0648 -0.5199  0.7086
  928MOL0     H22496   0.347  10.271   5.618 -0.4743 -0.2085  0.4840
  929MOL0     O22497   6.947   9.913   9.206  0.4970  0.3911 -1.7490
  929MOL0     C22498   6.915   9.944   9.327 -0.8896  0.1022  0.6122
  929MOL0     O22499   6.982  10.016   9.409 -0.7049 -0.5141 -0.5391
  929MOL0     C22500   7.113  10.040   9.400  0.4361  0.1940  0.1004
  929MOL0     C22501   7.201   9.945   9.348 -0.0147  0.0917  0.2767
  929MOL0     C22502   7.332   9.972   9.333 -0.4630  0.1934  0.2181
  929MOL0     C22503   7.388  10.091   9.381  0.4147  0.2643 -0.0313
  929MOL0     O22504   7.522  10.107   9.367 -0.6163 -0.8340 -0.2220
  929MOL0     C22505   7.583  10.231   9.413 -0.1966 -0.0655  0.7961
  929MOL0     C22506   7.735  10.207   9.421  0.1757  0.8207  0.1758
  929MOL0     C22507   7.796  10.347   9.467  0.6048  0.4506  0.6860
  929MOL0     C22508   7.942  10.344   9.479 -1.0979 -0.2435  0.1643
  929MOL0     C22509   8.005  10.488   9.510  0.8533  0.7511  0.4840
  929MOL0     C22510   8.159  10.492   9.503  0.0436 -0.3513  0.0112
  929MOL0     C22511   8.225  10.634   9.539 -0.1582 -0.2852  0.2501
  929MOL0     C22512   8.232  10.729   9.420 -0.7295  0.0823  0.1962
  929MOL0     N22513   8.276  10.863   9.449 -0.1242  0.6274 -0.5085
  929MOL0     C22514   8.261  10.924   9.573  0.3192 -0.0115 -0.0861
  929MOL0     C22515   8.329  11.037   9.562 -0.2470  0.1685  0.3428
  929MOL0     C22516   8.350  11.136   9.665 -0.5221 -0.2254 -0.1297
  929MOL0     C22517   8.447  11.085   9.769  0.1451 -0.2629  0.1486
  929MOL0     C22518   8.395  11.129   9.911  0.2877  0.3265 -0.1005
  929MOL0     C22519   8.401  11.279   9.942  0.2499  0.0694  0.1127
  929MOL0     O22520   8.421  11.296  10.086 -0.1750 -0.0816 -0.0335
  929MOL0     C22521   8.308  11.287  10.163 -0.9149  0.5863  0.5013
  929MOL0     C22522   8.277  11.169  10.233  0.1111  0.3845 -0.7242
  929MOL0     C22523   8.172  11.153  10.319 -0.0864  0.3423 -0.7685
  929MOL0     C22524   8.073  11.255  10.330 -0.0524  0.4973 -1.0512
  929MOL0     C22525   7.953  11.227  10.411 -0.5098 -0.6525  0.9154
  929MOL0     O22526   7.929  11.098  10.452  0.1196  0.5505  0.0141
  929MOL0     C22527   7.807  11.069  10.512  0.8955 -0.8600  0.4695
  929MOL0     C22528   7.749  10.942  10.492 -0.8152  0.3185  0.5065
  929MOL0     C22529   7.632  10.894  10.558  0.0910  0.8586 -0.5204
  929MOL0     C22530   7.558  10.981  10.638 -0.0214 -0.1541  0.1052
  929MOL0     O22531   7.441  10.931  10.686  0.9547  0.6029  0.1961
  929MOL0     C22532   7.347  11.021  10.740 -0.4594  0.5346  0.1971
  929MOL0     C22533   7.220  10.963  10.806 -0.3209 -0.0303  0.8789
  929MOL0     C22534   7.155  10.873  10.705 -0.9009  0.1710 -0.2793
  929MOL0     C22535   7.017  10.810  10.751 -0.1460 -0.0435  0.3720
  929MOL0     C22536   6.974  10.715  10.640  0.0941  0.1760 -0.4792
  929MOL0     C22537   6.822  10.722  10.634 -0.0282  0.2304  0.2168
  929MOL0     C22538   6.749  10.682  10.756  0.0827 -1.1030  0.3217
  929MOL0     C22539   6.800  10.550  10.809 -0.7340  0.2735 -0.0630
  929MOL0    Cl22540   6.745  10.420  10.699  0.2033 -0.1108  0.2962
  929MOL0     C22541   7.609  11.112  10.661 -0.3467 -0.2200 -0.6947
  929MOL0     C22542   7.730  11.148  10.605 -0.4106  0.3412  1.0145
  929MOL0     O22543   7.872  11.319  10.415  0.1260  0.7244  0.3285
  929MOL0     C22544   8.104  11.377  10.272 -0.3509 -0.4068 -0.3384
  929MOL0     C22545   8.219  11.397  10.195 -0.3181 -0.1512 -0.7963
  929MOL0     N22546   8.373  11.041   9.426 -0.4277 -0.5788 -0.6759
  929MOL0     N22547   8.350  10.932   9.364  0.0266 -0.1104  0.3841
  929MOL0     C22548   7.304  10.181   9.448  0.8224  0.5052  0.7097
  929MOL0     C22549   7.162  10.157   9.458  0.3305  0.2788  1.1794
  929MOL0     C22550   6.771   9.914   9.366  0.1573 -0.8001  0.1657
  929MOL0     C22551   6.717   9.961   9.489  0.7130  0.2694  1.2742
  929MOL0     C22552   6.584   9.931   9.527  0.1543  0.2087 -0.4404
  929MOL0     C22553   6.505   9.857   9.439 -0.1226  0.2006  0.7817
  929MOL0     O22554   6.375   9.831   9.477 -0.3385 -0.2924 -0.2220
  929MOL0     C22555   6.294   9.770   9.381  0.0632  0.5559 -0.0752
  929MOL0     C22556   6.155   9.784   9.433  0.3442 -0.4104 -0.0444
  929MOL0     C22557   6.090   9.926   9.403 -0.4145 -0.6365  0.4629
  929MOL0     C22558   5.984   9.959   9.504  0.4103 -0.2027  0.4775
  929MOL0     C22559   5.930  10.092   9.481 -1.0432 -0.1524  0.5787
  929MOL0     C22560   5.877  10.200   9.494 -0.3064  0.9977  0.7574
  929MOL0     C22561   6.560   9.818   9.316  0.5671  0.4180 -0.0613
  929MOL0     C22562   6.685   9.852   9.275 -0.6095  0.2389  0.4900
  929MOL0     H22563   7.179   9.852   9.295 -0.8482  0.4364 -0.0038
  929MOL0     H22564   7.407   9.911   9.284 -1.2620 -1.5087  1.0202
  929MOL0     H22565   7.556  10.256   9.516  0.0727 -1.3786  1.1973
  929MOL0     H22566   7.561  10.317   9.349  1.1019  0.5760  1.1965
  929MOL0     H22567   7.767  10.182   9.319 -2.2044  0.7911 -0.6175
  929MOL0     H22568   7.742  10.121   9.488 -0.4459 -1.3973 -2.4033
  929MOL0     H22569   7.743  10.382   9.555 -2.4409 -0.1558 -0.7501
  929MOL0     H22570   7.770  10.416   9.386 -1.8851 -2.7468 -1.5429
  929MOL0     H22571   7.978  10.268   9.549 -0.3335  0.6963  0.8269
  929MOL0     H22572   7.980  10.316   9.380 -0.2686  0.5764  0.2345
  929MOL0     H22573   7.974  10.499   9.614  1.2235 -3.7449  1.2669
  929MOL0     H22574   7.964  10.567   9.446 -1.0514 -0.3017  0.3478
  929MOL0     H22575   8.204  10.470   9.406  0.0968 -0.2945  0.0228
  929MOL0     H22576   8.187  10.411   9.572 -0.5431  0.2299  0.9480
  929MOL0     H22577   8.174  10.677   9.626 -2.4929 -1.2992 -0.5329
  929MOL0     H22578   8.328  10.614   9.571  1.1202  0.2966 -3.0892
  929MOL0     H22579   8.130  10.750   9.387 -0.4373  2.9813  0.8418
  929MOL0     H22580   8.296  10.690   9.340  0.8166  0.0110  1.4043
  929MOL0     H22581   8.224  10.888   9.668 -2.0740  2.5866  0.1096
  929MOL0     H22582   8.256  11.160   9.715  0.5567 -0.9640  2.4206
  929MOL0     H22583   8.384  11.219   9.603 -3.1917  1.0152 -0.0672
  929MOL0     H22584   8.545  11.123   9.740 -0.5756  1.5390 -0.0885
  929MOL0     H22585   8.451  10.976   9.774  0.8534 -0.2745 -0.4500
  929MOL0     H22586   8.290  11.099   9.915  0.8771 -1.7965  3.0570
  929MOL0     H22587   8.454  11.082   9.990  0.9230 -0.1644 -0.8508
  929MOL0     H22588   8.307  11.328   9.914 -0.4215 -0.4430  1.3976
  929MOL0     H22589   8.470  11.334   9.877  0.4751  0.8127  0.9630
  929MOL0     H22590   8.352  11.090  10.232  1.0905  1.3015 -0.8645
  929MOL0     H22591   8.174  11.062  10.378 -0.0641  0.9068  0.1186
  929MOL0     H22592   7.806  10.882  10.421  0.9653  1.2591  1.0661
  929MOL0     H22593   7.602  10.791  10.539  2.7340 -0.1319  0.2415
  929MOL0     H22594   7.321  11.091  10.660 -0.6041  0.7535  0.4327
  929MOL0     H22595   7.403  11.069  10.822 -0.0209  1.1166 -0.4331
  929MOL0     H22596   7.158  11.045  10.843 -0.9640  0.4467 -1.1687
  929MOL0     H22597   7.241  10.904  10.896  0.0055 -0.6686  0.3935
  929MOL0     H22598   7.227  10.797  10.671 -0.4092  0.9179 -0.9315
  929MOL0     H22599   7.150  10.939  10.618 -0.5354  1.6905  0.8098
  929MOL0     H22600   7.029  10.756  10.845  2.3097 -1.2024 -0.5170
  929MOL0     H22601   6.939  10.885  10.767 -1.9729 -1.7952  0.1468
  929MOL0     H22602   7.018  10.621  10.674  0.1435  0.9179  1.6959
  929MOL0     H22603   7.018  10.746  10.545  3.8519 -2.8732  0.0177
  929MOL0     H22604   6.805  10.652  10.552 -2.4941 -1.1407  1.7912
  929MOL0     H22605   6.787  10.820  10.600 -0.8116  1.1210  3.2962
  929MOL0     H22606   6.758  10.759  10.834  0.0983 -0.5786 -0.1853
  929MOL0     H22607   6.641  10.680  10.740  0.0927 -2.3290  0.3524
  929MOL0     H22608   6.758  10.541  10.909  3.7420 -2.0050  1.8968
  929MOL0     H22609   6.908  10.554  10.827 -1.0473 -0.0712  2.1346
  929MOL0     H22610   7.551  11.184  10.718 -2.7001 -1.2143 -1.6968
  929MOL0     H22611   7.784  11.237  10.639 -0.5804 -0.3706  3.3183
  929MOL0     H22612   8.042  11.465  10.290  1.5928  1.2065 -1.1836
  929MOL0     H22613   8.241  11.494  10.152  2.6753 -0.6672 -0.6441
  929MOL0     H22614   7.335  10.279   9.483 -0.4477  1.5668 -1.0096
  929MOL0     H22615   7.098  10.237   9.493 -0.7380  1.6036 -3.2032
  929MOL0     H22616   6.785  10.002   9.564  2.7789 -1.6281  0.5457
  929MOL0     H22617   6.543   9.962   9.622  3.3861  1.8285  0.5631
  929MOL0     H22618   6.307   9.662   9.382 -2.7748  0.1254 -0.2766
  929MOL0     H22619   6.310   9.807   9.280  0.0619 -2.0867 -1.1180
  929MOL0     H22620   6.090   9.720   9.373 -0.3096  1.0456 -0.9451
  929MOL0     H22621   6.153   9.762   9.540 -0.8780  2.0554  0.5187
  929MOL0     H22622   6.030   9.934   9.313 -2.5934 -1.5633  1.7426
  929MOL0     H22623   6.167  10.004   9.413 -1.7985  0.5355  2.8368
  929MOL0     H22624   5.903   9.887   9.483  2.4631 -1.5168 -4.5274
  929MOL0     H22625   6.026   9.951   9.605  1.0698  1.2610  0.3374
  929MOL0     H22626   5.814  10.284   9.516 -2.1657 -0.3387  0.8276
  929MOL0     H22627   6.508   9.752   9.246  2.5166  0.9151 -2.0926
  929MOL0     H22628   6.733   9.808   9.188  1.9650 -0.1761  1.9974
  930MOL0     O22629   2.043   4.487   6.170 -0.4280  0.1686  0.0798
  930MOL0     C22630   2.070   4.364   6.164 -0.6638 -0.6149 -0.0515
  930MOL0     O22631   1.985   4.260   6.122 -0.1216  0.2782 -0.3122
  930MOL0     C22632   1.850   4.281   6.110  0.2481  1.5686 -0.1578
  930MOL0     C22633   1.777   4.218   6.010 -0.6281 -0.5860  0.0453
  930MOL0     C22634   1.654   4.247   5.975  1.2142  0.5044 -0.7741
  930MOL0     C22635   1.573   4.333   6.050 -0.8193  0.4402  0.7381
  930MOL0     O22636   1.446   4.353   6.003  0.0812 -0.0039 -0.2687
  930MOL0     C22637   1.351   4.407   6.101  0.2133 -0.1301  0.1933
  930MOL0     C22638   1.232   4.310   6.107  0.0980  0.0187  0.0029
  930MOL0     C22639   1.099   4.385   6.122  0.2212 -1.0551 -0.0061
  930MOL0     C22640   1.084   4.432   6.270 -0.5535 -0.4296  0.9062
  930MOL0     C22641   0.935   4.427   6.301  0.0641  0.5235 -0.0588
  930MOL0     C22642   0.850   4.505   6.202  0.1083  0.2692  0.5193
  930MOL0     C22643   0.711   4.541   6.247  0.1012  0.3672 -0.2062
  930MOL0     C22644   0.623   4.409   6.277 -0.0951  0.4020 -0.0180
  930MOL0     N22645   0.479   4.430   6.299 -0.1564  0.0786  0.2034
  930MOL0     C22646   0.387   4.445   6.198 -0.6988 -0.2009 -0.0114
  930MOL0     C22647   0.270   4.448   6.256  0.3266 -0.2928  0.3402
  930MOL0     C22648   0.150   4.495   6.179  0.0158  0.4615  0.0754
  930MOL0     C22649   0.025   4.419   6.208 -0.5775  0.3701 -0.1325
  930MOL0     C22650  -0.056   4.409   6.080  0.0410  0.1251  0.0886
  930MOL0     C22651  -0.198   4.366   6.114  0.2518 -0.4226  0.2231
  930MOL0     O22652  -0.267   4.469   6.192  0.0743  0.1041  1.0944
  930MOL0     C22653  -0.399   4.462   6.223  0.3337  0.4416  0.3354
  930MOL0     C22654  -0.452   4.545   6.317  0.7830  0.3499 -0.9027
  930MOL0     C22655  -0.582   4.547   6.348 -0.0058 -0.1593 -1.2598
  930MOL0     C22656  -0.677   4.463   6.296  0.4888 -0.1721  0.1071
  930MOL0     C22657  -0.819   4.468   6.333 -0.0966 -0.3926 -1.6801
  930MOL0     O22658  -0.914   4.407   6.255 -0.0135  0.3343  0.1286
  930MOL0     C22659  -1.044   4.412   6.288 -0.1121 -0.1646  0.1696
  930MOL0     C22660  -1.115   4.534   6.293  0.1402 -0.1119 -0.8261
  930MOL0     C22661  -1.248   4.536   6.350 -0.0354  0.0572 -0.5884
  930MOL0     C22662  -1.308   4.410   6.390 -0.0494 -0.8571  0.5036
  930MOL0     O22663  -1.436   4.391   6.425  0.4337  0.6639 -0.0558
  930MOL0     C22664  -1.522   4.498   6.403  0.1038  0.2591  0.3293
  930MOL0     C22665  -1.660   4.431   6.377  0.2912  0.7568 -0.3866
  930MOL0     C22666  -1.774   4.539   6.364  0.1972 -1.1076 -0.2537
  930MOL0     C22667  -1.899   4.483   6.315 -0.5356  1.2102 -0.2264
  930MOL0     C22668  -1.991   4.589   6.249  0.1864  0.3604  0.0659
  930MOL0     C22669  -2.127   4.528   6.190  1.1208 -0.4217  0.6849
  930MOL0     C22670  -2.193   4.626   6.092  0.1573 -0.1406  0.1822
  930MOL0     C22671  -2.276   4.733   6.157  0.0732  0.7388 -0.0761
  930MOL0    Cl22672  -2.410   4.664   6.247 -0.0490  0.2075 -0.3297
  930MOL0     C22673  -1.227   4.292   6.382 -0.0974  0.8229  0.3088
  930MOL0     C22674  -1.104   4.295   6.325 -0.2748  0.1002 -0.1619
  930MOL0     O22675  -0.846   4.525   6.438 -0.8754  0.0218 -0.2333
  930MOL0     C22676  -0.630   4.377   6.191 -0.3078 -0.2530  0.0227
  930MOL0     C22677  -0.487   4.374   6.160 -0.1260  0.0604 -0.5765
  930MOL0     N22678   0.286   4.437   6.393 -0.3766 -0.1725  0.0976
  930MOL0     N22679   0.415   4.420   6.421  0.4042  0.0265  0.3512
  930MOL0     C22680   1.643   4.382   6.170  0.3606 -0.3547  0.2252
  930MOL0     C22681   1.774   4.361   6.200 -0.6189 -0.2507  0.2728
  930MOL0     C22682   2.206   4.328   6.206 -0.3145  1.2720  1.3291
  930MOL0     C22683   2.246   4.194   6.207 -0.1088  0.0191 -0.0071
  930MOL0     C22684   2.377   4.146   6.238 -0.4233 -0.1955  0.0211
  930MOL0     C22685   2.475   4.242   6.274 -0.5574  0.7071 -0.2354
  930MOL0     O22686   2.611   4.229   6.315  0.5774 -0.1968  0.3490
  930MOL0     C22687   2.668   4.097   6.341  0.2634 -0.1945  0.5982
  930MOL0     C22688   2.640   4.083   6.490 -0.1446  0.8201 -0.2892
  930MOL0     C22689   2.653   3.939   6.534  0.6716  0.5209 -0.1496
  930MOL0     C22690   2.551   3.913   6.654 -0.5463 -0.5662 -0.7904
  930MOL0     C22691   2.418   3.903   6.608  0.7112 -0.6547 -0.1168
  930MOL0     C22692   2.305   3.874   6.573 -0.0748  0.3199  0.0229
  930MOL0     C22693   2.439   4.376   6.278  0.5000 -0.6925  0.1523
  930MOL0     C22694   2.308   4.416   6.242  0.9931  0.2583  0.0553
  930MOL0     H22695   1.836   4.178   5.929  0.2803  0.4995  0.1532
  930MOL0     H22696   1.608   4.212   5.883  0.6908  1.3191 -0.8415
  930MOL0     H22697   1.311   4.503   6.067 -0.5017 -1.1471 -2.0372
  930MOL0     H22698   1.383   4.422   6.204 -3.3712 -0.7073  1.5431
  930MOL0     H22699   1.242   4.224   6.173  0.2889 -1.6234 -2.1005
  930MOL0     H22700   1.219   4.258   6.012 -2.6810 -2.7909  1.7225
  930MOL0     H22701   1.013   4.321   6.098 -1.9099  0.8468  2.0508
  930MOL0     H22702   1.085   4.457   6.041  1.4709  0.5255  1.1180
  930MOL0     H22703   1.145   4.384   6.346  2.3691 -0.3119 -1.2033
  930MOL0     H22704   1.114   4.537   6.272 -0.4267 -0.1865 -3.2571
  930MOL0     H22705   0.927   4.480   6.396  1.1952  0.3464  0.1538
  930MOL0     H22706   0.906   4.323   6.314 -3.5398  1.6284  2.1477
  930MOL0     H22707   0.835   4.459   6.103 -0.0346  0.8454  0.2702
  930MOL0     H22708   0.895   4.604   6.191 -1.7226  1.0892  0.0447
  930MOL0     H22709   0.703   4.600   6.339 -1.2205  0.5131 -0.3949
  930MOL0     H22710   0.659   4.595   6.167 -0.4541  1.1032  0.6329
  930MOL0     H22711   0.650   4.362   6.372 -2.0798  2.1677  1.5146
  930MOL0     H22712   0.631   4.339   6.193 -1.3863 -0.9663  0.9425
  930MOL0     H22713   0.410   4.452   6.093  1.1972 -1.0441  0.3104
  930MOL0     H22714   0.179   4.499   6.073 -1.4189  1.6028 -0.3070
  930MOL0     H22715   0.125   4.594   6.217 -0.9710 -0.5173  2.1563
  930MOL0     H22716  -0.032   4.479   6.281 -2.2898 -1.1795 -0.1205
  930MOL0     H22717   0.043   4.317   6.244 -0.6748 -0.0946 -1.3770
  930MOL0     H22718  -0.072   4.496   6.015  1.7936  0.0910 -0.4329
  930MOL0     H22719  -0.003   4.339   6.014  3.8072  1.9574  0.8765
  930MOL0     H22720  -0.191   4.279   6.180 -0.5047  0.5705  1.6456
  930MOL0     H22721  -0.252   4.332   6.025  0.3294  2.3018 -0.9546
  930MOL0     H22722  -0.387   4.609   6.375 -0.0607 -0.5340  1.1216
  930MOL0     H22723  -0.617   4.607   6.431 -0.2750  0.2239 -1.6479
  930MOL0     H22724  -1.082   4.631   6.258  2.2821 -1.2355 -2.0976
  930MOL0     H22725  -1.301   4.630   6.341  1.0744  0.6625 -0.8723
  930MOL0     H22726  -1.497   4.555   6.313  3.0291  0.9181  1.4247
  930MOL0     H22727  -1.533   4.558   6.494  0.2085 -0.8481  1.0875
  930MOL0     H22728  -1.690   4.370   6.463 -1.3808  1.3902 -0.4835
  930MOL0     H22729  -1.647   4.360   6.295 -1.4254 -1.3947  1.0895
  930MOL0     H22730  -1.738   4.611   6.290 -2.6721 -0.9857 -1.6982
  930MOL0     H22731  -1.786   4.594   6.457  0.3564  2.6726 -2.2827
  930MOL0     H22732  -1.874   4.401   6.247  2.2731  2.0052 -0.2844
  930MOL0     H22733  -1.939   4.428   6.401  0.8016 -1.6433 -1.2874
  930MOL0     H22734  -1.938   4.635   6.165 -2.1209 -1.5716 -2.6477
  930MOL0     H22735  -2.009   4.671   6.318 -1.2817 -0.1297  0.3076
  930MOL0     H22736  -2.191   4.510   6.277  2.3214 -1.1292  1.4540
  930MOL0     H22737  -2.110   4.428   6.149  0.5285 -0.8288  1.3931
  930MOL0     H22738  -2.122   4.671   6.023  0.1613  2.8496  1.9363
  930MOL0     H22739  -2.269   4.567   6.039  1.9916 -0.7744 -1.8787
  930MOL0     H22740  -2.321   4.797   6.080 -2.0941  3.2033  2.9834
  930MOL0     H22741  -2.212   4.805   6.208  0.2404  3.4483 -3.7180
  930MOL0     H22742  -1.270   4.196   6.408  3.1572 -0.8849 -0.1666
  930MOL0     H22743  -1.057   4.199   6.304  0.9650  0.9433 -1.4083
  930MOL0     H22744  -0.695   4.310   6.135  1.6384 -4.1488  2.0239
  930MOL0     H22745  -0.461   4.303   6.081 -1.1230 -1.9654  0.8218
  930MOL0     H22746   1.591   4.435   6.249 -2.0953 -1.4697 -0.5421
  930MOL0     H22747   1.815   4.395   6.294 -0.5134  3.2162 -0.8928
  930MOL0     H22748   2.178   4.112   6.188  1.0810 -0.6595 -1.5353
  930MOL0     H22749   2.395   4.039   6.244 -1.5575 -0.3127  1.8929
  930MOL0     H22750   2.777   4.099   6.331  0.1975  1.7092 -0.1053
  930MOL0     H22751   2.622   4.017   6.283 -2.9958  0.9967  1.3024
  930MOL0     H22752   2.709   4.144   6.548  0.7863 -1.1060  0.7321
  930MOL0     H22753   2.538   4.108   6.521 -0.3075 -1.6350  1.4519
  930MOL0     H22754   2.758   3.920   6.559  0.1083 -2.7125  0.1862
  930MOL0     H22755   2.624   3.870   6.454  0.6947 -0.7834  0.9255
  930MOL0     H22756   2.579   3.819   6.702  1.2511  0.8105  1.0038
  930MOL0     H22757   2.560   3.998   6.722  0.7878 -1.7169  0.5437
  930MOL0     H22758   2.208   3.834   6.548 -0.1202 -0.4557  1.3778
  930MOL0     H22759   2.499   4.461   6.311 -0.5818  0.1469 -0.0127
  930MOL0     H22760   2.277   4.520   6.239  0.6642  0.2016  1.0622
  931MOL0     O22761   2.280   9.204   3.991 -0.0597  0.2462  0.4250
  931MOL0     C22762   2.294   9.090   4.028  0.2455 -0.3679  0.1754
  931MOL0     O22763   2.225   8.981   4.001 -0.4804 -0.0530 -0.0518
  931MOL0     C22764   2.098   8.998   3.950 -0.9658 -0.5237 -1.0166
  931MOL0     C22765   2.012   9.091   4.006  0.3350  0.1537  1.4686
  931MOL0     C22766   1.886   9.118   3.956 -0.5525 -0.2233 -0.1677
  931MOL0     C22767   1.841   9.049   3.837 -0.3550 -0.7924 -0.3399
  931MOL0     O22768   1.732   9.084   3.772  0.1735 -0.4486  0.6364
  931MOL0     C22769   1.666   9.215   3.790 -0.2110  1.2653  0.6093
  931MOL0     C22770   1.533   9.238   3.713 -0.0462  0.3497  0.5177
  931MOL0     C22771   1.441   9.112   3.739 -0.1573  0.4806 -0.6387
  931MOL0     C22772   1.294   9.132   3.702 -0.0823  0.9066 -0.0019
  931MOL0     C22773   1.209   9.007   3.744  0.0437 -0.6786  0.5780
  931MOL0     C22774   1.064   9.027   3.684 -0.3917 -1.1911 -0.6214
  931MOL0     C22775   0.983   8.899   3.708 -0.1404  0.1534 -0.0403
  931MOL0     C22776   0.939   8.866   3.860  0.5604  0.1732 -0.2285
  931MOL0     N22777   0.854   8.973   3.915  0.6924  0.0140 -0.1230
  931MOL0     C22778   0.721   8.969   3.884 -0.1919  0.0345 -0.0120
  931MOL0     C22779   0.664   9.013   3.995  0.0710 -0.9863  0.2713
  931MOL0     C22780   0.520   9.015   4.022 -1.2026 -0.4763  0.7780
  931MOL0     C22781   0.488   8.922   4.136  0.3048 -0.5400 -0.4387
  931MOL0     C22782   0.342   8.923   4.185  0.1460 -0.5000  0.0874
  931MOL0     C22783   0.238   8.907   4.076 -0.3914 -0.4446  0.0312
  931MOL0     O22784   0.118   8.887   4.147  0.6381 -0.2740 -0.1724
  931MOL0     C22785   0.007   8.887   4.071  0.8265 -0.3099  0.3121
  931MOL0     C22786  -0.110   8.937   4.131  0.7392  0.2498 -0.5283
  931MOL0     C22787  -0.234   8.933   4.075 -0.0989 -0.5929 -0.0789
  931MOL0     C22788  -0.248   8.904   3.936  0.1276 -1.2997 -0.2037
  931MOL0     C22789  -0.371   8.920   3.864  0.5603  0.3134 -1.1178
  931MOL0     O22790  -0.479   8.942   3.953 -0.6748  0.5818 -0.2095
  931MOL0     C22791  -0.600   8.993   3.908  0.0800  0.6230  0.4095
  931MOL0     C22792  -0.683   9.051   4.003 -0.4454  0.0719 -0.2080
  931MOL0     C22793  -0.813   9.102   3.967 -0.2845  0.0115  0.0581
  931MOL0     C22794  -0.867   9.076   3.839  0.3518 -0.0008 -0.2715
  931MOL0     O22795  -1.003   9.103   3.816 -0.3978 -0.8144  0.3154
  931MOL0     C22796  -1.051   9.122   3.678 -0.3714 -0.2045 -0.8993
  931MOL0     C22797  -1.193   9.167   3.666 -0.8433  0.6254  0.0312
  931MOL0     C22798  -1.288   9.048   3.715 -0.6374  0.5554  0.0801
  931MOL0     C22799  -1.424   9.091   3.684 -0.3148  0.3778 -0.4626
  931MOL0     C22800  -1.523   9.010   3.771  0.5613  1.0875  0.2736
  931MOL0     C22801  -1.660   9.057   3.731 -0.3685  0.4089  0.0324
  931MOL0     C22802  -1.769   8.998   3.812  0.6957  0.1024 -0.7752
  931MOL0     C22803  -1.782   8.846   3.796  0.0453 -0.1836  0.0804
  931MOL0    Cl22804  -1.852   8.787   3.950  0.1040  0.0301  0.3281
  931MOL0     C22805  -0.783   9.022   3.744 -0.4103  0.1829  0.5372
  931MOL0     C22806  -0.649   8.977   3.769  0.0933 -0.4282  0.1148
  931MOL0     O22807  -0.366   8.960   3.751  0.3618  0.2785 -0.2613
  931MOL0     C22808  -0.129   8.863   3.870  0.0062  0.3966  0.0681
  931MOL0     C22809  -0.007   8.841   3.938  0.7070 -0.5504  0.1156
  931MOL0     N22810   0.757   9.048   4.084 -0.7108 -0.2447  0.0995
  931MOL0     N22811   0.870   9.021   4.037 -0.9634  0.6002  0.6330
  931MOL0     C22812   1.924   8.948   3.784  0.5567 -0.1762 -0.7014
  931MOL0     C22813   2.050   8.921   3.847  0.2613  0.2347 -0.6231
  931MOL0     C22814   2.427   9.063   4.097 -0.0304  0.3001  0.9834
  931MOL0     C22815   2.496   9.170   4.155  0.1483  0.3349 -0.2726
  931MOL0     C22816   2.634   9.161   4.196  0.0227  0.6315  0.0538
  931MOL0     C22817   2.697   9.032   4.182  0.6345 -0.4035 -0.3951
  931MOL0     O22818   2.828   9.008   4.201  0.1637  1.0901 -0.1258
  931MOL0     C22819   2.894   9.086   4.305 -0.1217  0.3373 -0.4751
  931MOL0     C22820   2.989   9.193   4.225  0.5944 -0.6988 -1.0631
  931MOL0     C22821   3.082   9.258   4.326 -0.7986 -0.0768  0.1060
  931MOL0     C22822   3.180   9.340   4.240 -0.0178 -0.5439 -0.3119
  931MOL0     C22823   3.296   9.371   4.322 -0.7775 -0.2551  0.3728
  931MOL0     C22824   3.375   9.399   4.410  0.0633 -0.0887  1.3266
  931MOL0     C22825   2.621   8.929   4.149  0.3836  0.9068  0.6630
  931MOL0     C22826   2.492   8.940   4.094  0.3130 -0.1044 -0.2419
  931MOL0     H22827   2.048   9.144   4.094  2.6866 -0.1917  0.7868
  931MOL0     H22828   1.828   9.192   4.010 -0.8739 -0.1830 -0.5628
  931MOL0     H22829   1.725   9.307   3.777  1.9394 -0.1359 -0.0376
  931MOL0     H22830   1.637   9.214   3.895 -0.2886 -1.2524  0.6168
  931MOL0     H22831   1.549   9.262   3.608 -0.8140  1.5165  0.6421
  931MOL0     H22832   1.493   9.329   3.759  0.7484 -0.3228  2.6691
  931MOL0     H22833   1.436   9.094   3.847 -1.0832  0.6535 -0.6437
  931MOL0     H22834   1.487   9.025   3.693 -0.4172  0.3374 -0.6268
  931MOL0     H22835   1.245   9.226   3.728 -1.2682  1.1607 -2.7828
  931MOL0     H22836   1.290   9.137   3.593 -0.8887  3.4565  0.0860
  931MOL0     H22837   1.211   9.027   3.852  0.8176  1.9768  0.1551
  931MOL0     H22838   1.251   8.909   3.722 -3.2690 -2.0724 -0.1312
  931MOL0     H22839   1.083   9.050   3.579  4.6685 -0.5104  0.2000
  931MOL0     H22840   1.012   9.107   3.738 -1.0001 -0.1244 -2.6989
  931MOL0     H22841   0.888   8.898   3.653 -2.3037 -0.7834  3.4189
  931MOL0     H22842   1.050   8.819   3.674  3.6600  2.8695  0.4453
  931MOL0     H22843   1.037   8.861   3.909  0.7150 -0.6863 -0.5905
  931MOL0     H22844   0.885   8.770   3.861  1.1154 -0.1639 -1.2105
  931MOL0     H22845   0.668   8.923   3.802  0.5518 -1.1116  0.1304
  931MOL0     H22846   0.475   8.979   3.929  1.3529 -0.0742 -0.7206
  931MOL0     H22847   0.488   9.117   4.046 -1.2093 -0.6293  1.4252
  931MOL0     H22848   0.546   8.946   4.225 -1.3369  3.4661 -0.2839
  931MOL0     H22849   0.505   8.817   4.111 -0.8818 -0.1534 -3.2109
  931MOL0     H22850   0.325   8.843   4.258 -2.4918  1.1910  1.4726
  931MOL0     H22851   0.323   9.021   4.229  3.5694  0.8327 -1.1025
  931MOL0     H22852   0.253   8.815   4.018 -4.7450 -3.4241  3.0551
  931MOL0     H22853   0.223   8.997   4.015 -0.4335  0.2323  1.0284
  931MOL0     H22854  -0.116   8.963   4.237 -1.8132 -2.4088  0.0914
  931MOL0     H22855  -0.315   8.976   4.133  0.9196  0.1673  0.8057
  931MOL0     H22856  -0.655   9.058   4.108 -2.5563 -1.9119  0.5689
  931MOL0     H22857  -0.878   9.148   4.041  1.3168  2.4708  0.0881
  931MOL0     H22858  -1.044   9.028   3.623 -0.3530  0.2977 -1.7726
  931MOL0     H22859  -0.980   9.195   3.638  2.7943 -0.4638  3.4312
  931MOL0     H22860  -1.216   9.177   3.560 -0.3123 -3.8497 -0.7133
  931MOL0     H22861  -1.214   9.255   3.726  1.3942  2.4080 -1.6150
  931MOL0     H22862  -1.268   9.014   3.817 -2.8552 -3.2689 -0.5672
  931MOL0     H22863  -1.271   8.955   3.661  0.9264  0.6794  0.3115
  931MOL0     H22864  -1.426   9.198   3.705  0.8533  0.1186  1.1378
  931MOL0     H22865  -1.442   9.083   3.576 -5.8318  2.7147 -0.0484
  931MOL0     H22866  -1.510   9.023   3.879  3.4658 -1.1555  0.3146
  931MOL0     H22867  -1.500   8.903   3.762 -0.4178  0.9081 -0.2449
  931MOL0     H22868  -1.677   9.042   3.624  0.5840  2.9697 -0.5506
  931MOL0     H22869  -1.674   9.164   3.710  2.3978 -0.0406 -6.8027
  931MOL0     H22870  -1.755   9.028   3.916 -0.9896  0.4120 -0.6019
  931MOL0     H22871  -1.859   9.047   3.773  0.3454  1.1977  1.2386
  931MOL0     H22872  -1.683   8.802   3.782 -0.4430 -0.4450 -3.5327
  931MOL0     H22873  -1.848   8.831   3.710  0.5860  0.3594 -0.4390
  931MOL0     H22874  -0.822   8.996   3.646 -3.0678  0.5757  1.4058
  931MOL0     H22875  -0.599   8.920   3.692  2.0179 -0.0909  1.0612
  931MOL0     H22876  -0.137   8.841   3.764 -0.4608  2.2135 -0.3188
  931MOL0     H22877   0.080   8.794   3.894  1.1201  1.1854 -1.0367
  931MOL0     H22878   1.876   8.903   3.698 -0.4490  1.0073 -0.7806
  931MOL0     H22879   2.124   8.855   3.804 -0.3465 -0.7424 -0.1865
  931MOL0     H22880   2.443   9.265   4.147 -0.9846 -0.2586 -0.0815
  931MOL0     H22881   2.692   9.245   4.234 -0.0756 -0.1334  2.0041
  931MOL0     H22882   2.955   9.023   4.370 -1.8988  0.6975  1.6950
  931MOL0     H22883   2.827   9.149   4.365  0.8474  2.2950 -1.3690
  931MOL0     H22884   3.044   9.135   4.151 -0.8121 -2.3519 -0.9019
  931MOL0     H22885   2.931   9.271   4.174  4.1673  1.7504 -1.7635
  931MOL0     H22886   3.142   9.185   4.380  0.7617 -0.9994 -2.6850
  931MOL0     H22887   3.023   9.315   4.400 -1.0908 -0.5903  0.2710
  931MOL0     H22888   3.226   9.281   4.161  1.4263  1.4506 -1.0335
  931MOL0     H22889   3.123   9.430   4.215 -0.2074 -0.5286  0.1537
  931MOL0     H22890   3.439   9.439   4.485 -0.8875  4.3676  0.0762
  931MOL0     H22891   2.661   8.829   4.162  1.2829  1.1403 -0.1192
  931MOL0     H22892   2.441   8.852   4.057  0.8091  0.6250 -2.9243
  932MOL0     O22893   1.360   8.743   9.684  0.5586  0.4914  0.5127
  932MOL0     C22894   1.344   8.705   9.799  0.2458  0.1059 -0.7278
  932MOL0     O22895   1.449   8.663   9.879 -0.5279  0.1835  0.9526
  932MOL0     C22896   1.577   8.705   9.848  0.6621  0.4222 -0.1207
  932MOL0     C22897   1.678   8.613   9.881  1.3691  0.3316  0.3324
  932MOL0     C22898   1.811   8.649   9.860 -0.5467  0.0874  0.2183
  932MOL0     C22899   1.841   8.784   9.822 -0.1166  0.4928  0.5688
  932MOL0     O22900   1.968   8.832   9.808 -0.6868 -0.1534 -0.0308
  932MOL0     C22901   2.085   8.744   9.813 -0.1218  0.4766 -0.2375
  932MOL0     C22902   2.204   8.824   9.749  0.0283 -0.7094  0.4731
  932MOL0     C22903   2.289   8.891   9.853 -0.9152  0.3219 -0.1938
  932MOL0     C22904   2.383   8.798   9.923  0.3691 -0.4045  0.3413
  932MOL0     C22905   2.507   8.757   9.844 -0.0140  0.3778  0.1882
  932MOL0     C22906   2.602   8.870   9.805 -0.3929 -0.1400 -0.3942
  932MOL0     C22907   2.746   8.827   9.769 -0.5551 -0.3262 -0.4292
  932MOL0     C22908   2.814   8.740   9.878  0.4654 -1.1433 -0.2758
  932MOL0     N22909   2.952   8.708   9.835 -0.8452  0.0788 -0.4209
  932MOL0     C22910   3.007   8.682   9.705 -1.1086  1.0524 -0.5574
  932MOL0     C22911   3.111   8.604   9.728 -0.7981  0.1602  0.4337
  932MOL0     C22912   3.209   8.551   9.628 -0.5416  0.2280  0.1072
  932MOL0     C22913   3.339   8.490   9.698  0.5763 -0.0141  1.1021
  932MOL0     C22914   3.436   8.427   9.599  0.6855  0.4983 -0.5908
  932MOL0     C22915   3.571   8.406   9.662  0.3249  0.1768 -0.1668
  932MOL0     O22916   3.629   8.524   9.713  0.3982 -0.6049 -0.2154
  932MOL0     C22917   3.755   8.518   9.752 -0.3132  0.9863 -0.2493
  932MOL0     C22918   3.830   8.639   9.774  0.7141  1.1191  0.4720
  932MOL0     C22919   3.955   8.648   9.826  0.7714 -0.5014 -0.7389
  932MOL0     C22920   4.023   8.527   9.861  0.0252 -0.2531  0.2891
  932MOL0     C22921   4.167   8.528   9.927  0.1274  0.3531 -0.4857
  932MOL0     O22922   4.211   8.405   9.959  0.1659 -0.0078 -0.2309
  932MOL0     C22923   4.341   8.391   9.993 -0.4418  0.4824 -0.7965
  932MOL0     C22924   4.393   8.361  10.114 -0.6704 -0.0926  0.3918
  932MOL0     C22925   4.539   8.333  10.133  0.1524  0.2182  0.3907
  932MOL0     C22926   4.626   8.337  10.026  0.8647 -0.3461 -0.5239
  932MOL0     O22927   4.758   8.310  10.060  0.3574 -0.1650  1.0759
  932MOL0     C22928   4.853   8.328   9.957  0.4769 -0.4260  0.5892
  932MOL0     C22929   4.999   8.295  10.001 -1.1543  0.1592  0.3371
  932MOL0     C22930   5.099   8.311   9.884 -0.6264 -1.1383  0.1242
  932MOL0     C22931   5.216   8.206   9.878  0.1145 -0.1813 -0.5477
  932MOL0     C22932   5.302   8.223   9.754  0.2084 -0.4385 -0.0696
  932MOL0     C22933   5.412   8.112   9.760 -0.2757 -0.0273  0.1670
  932MOL0     C22934   5.506   8.132   9.634  0.0029 -0.0272  0.2467
  932MOL0     C22935   5.589   8.265   9.633 -0.0671 -0.4616 -0.1450
  932MOL0    Cl22936   5.669   8.271   9.470 -0.4202  0.3703 -0.3617
  932MOL0     C22937   4.574   8.378   9.907  1.0123 -0.1877 -0.1336
  932MOL0     C22938   4.437   8.407   9.886 -0.1139 -0.7609  0.3965
  932MOL0     O22939   4.228   8.632   9.937  0.3986 -0.0555 -0.7734
  932MOL0     C22940   3.952   8.407   9.841 -0.1317  1.1614 -0.7772
  932MOL0     C22941   3.818   8.398   9.795 -0.1869 -0.5444  0.2765
  932MOL0     N22942   3.135   8.598   9.865  0.8801 -0.4548  0.7934
  932MOL0     N22943   3.034   8.645   9.929 -0.2793  0.2196  0.1693
  932MOL0     C22944   1.733   8.873   9.789 -0.0992  0.2536 -0.1076
  932MOL0     C22945   1.606   8.830   9.788  0.1186  0.3372  0.0251
  932MOL0     C22946   1.208   8.688   9.852  0.0625  0.3336 -0.8065
  932MOL0     C22947   1.099   8.761   9.805  0.2851 -0.3497 -0.9152
  932MOL0     C22948   0.972   8.737   9.849  0.5525  0.3034  0.7505
  932MOL0     C22949   0.945   8.637   9.939  0.0296  0.0631  0.3252
  932MOL0     O22950   0.821   8.601   9.981  0.2315  0.2663  0.1331
  932MOL0     C22951   0.724   8.626   9.873 -0.4435  0.0951  0.2940
  932MOL0     C22952   0.595   8.554   9.907  0.0251  0.9380 -0.3657
  932MOL0     C22953   0.522   8.615  10.027  0.0250  0.0956  0.2042
  932MOL0     C22954   0.418   8.524  10.092 -0.2753  0.1002  0.0435
  932MOL0     C22955   0.309   8.484   9.995 -0.9774 -0.0595  0.3629
  932MOL0     C22956   0.205   8.448   9.940  0.5193  0.2777  0.6032
  932MOL0     C22957   1.053   8.569  10.002  0.3957  0.7729  0.8583
  932MOL0     C22958   1.188   8.591   9.955 -1.2638 -0.5126 -0.7293
  932MOL0     H22959   1.664   8.511   9.915  2.2169  0.1052  0.0028
  932MOL0     H22960   1.889   8.585   9.898 -0.3674 -0.9286 -1.7573
  932MOL0     H22961   2.070   8.653   9.756 -1.4062 -0.4772  1.5197
  932MOL0     H22962   2.109   8.704   9.912 -1.7977 -3.6821 -1.2751
  932MOL0     H22963   2.158   8.901   9.687 -0.1271 -1.0774  0.1230
  932MOL0     H22964   2.259   8.758   9.680 -2.4963 -2.3173 -0.1447
  932MOL0     H22965   2.231   8.935   9.935 -0.5733 -1.9989  1.4031
  932MOL0     H22966   2.340   8.972   9.800  0.4410  0.2077  0.9009
  932MOL0     H22967   2.414   8.845  10.017 -0.2326  0.0788  0.3034
  932MOL0     H22968   2.323   8.714   9.960 -1.3865  0.5509 -0.2395
  932MOL0     H22969   2.497   8.713   9.744  2.2696  1.5031 -0.6093
  932MOL0     H22970   2.549   8.676   9.904  0.8910 -0.0054 -0.9155
  932MOL0     H22971   2.604   8.940   9.890 -1.5550 -1.3074  0.6472
  932MOL0     H22972   2.562   8.921   9.717  2.0363 -0.6954 -1.9227
  932MOL0     H22973   2.747   8.767   9.678 -2.6322 -3.1548  1.2541
  932MOL0     H22974   2.809   8.916   9.756 -0.8893  0.4297  2.4949
  932MOL0     H22975   2.763   8.645   9.893  2.2795 -1.8208  2.1338
  932MOL0     H22976   2.805   8.797   9.971 -1.2683  1.9884 -2.1965
  932MOL0     H22977   2.963   8.709   9.610  0.9669  1.1472 -1.5382
  932MOL0     H22978   3.241   8.631   9.561 -1.0459 -1.0408 -1.7146
  932MOL0     H22979   3.166   8.479   9.558  0.2536  1.1805 -1.4085
  932MOL0     H22980   3.294   8.415   9.764 -0.6886 -0.0640  0.2169
  932MOL0     H22981   3.380   8.578   9.748 -1.6491  2.5902 -1.2842
  932MOL0     H22982   3.387   8.341   9.553  0.8692  2.0490 -3.9915
  932MOL0     H22983   3.443   8.495   9.514  2.2483  2.1502  0.7776
  932MOL0     H22984   3.635   8.350   9.594 -0.2892 -2.0752  1.0262
  932MOL0     H22985   3.557   8.351   9.756  1.1044  3.5387  2.1328
  932MOL0     H22986   3.777   8.732   9.756  0.2258  1.0781  1.6141
  932MOL0     H22987   3.990   8.749   9.846 -0.5652 -0.1718  0.0812
  932MOL0     H22988   4.333   8.357  10.204 -0.1034 -2.4486  0.7535
  932MOL0     H22989   4.594   8.315  10.225 -0.7823 -0.4468  0.8327
  932MOL0     H22990   4.860   8.432   9.923  1.6943 -0.8553 -0.5493
  932MOL0     H22991   4.827   8.283   9.861  0.1646  0.0744  0.4327
  932MOL0     H22992   5.002   8.191  10.035 -0.9463 -0.6439 -1.9261
  932MOL0     H22993   5.028   8.365  10.079  0.1799  0.9774 -0.8373
  932MOL0     H22994   5.126   8.417   9.881  0.3163 -1.3744 -2.3204
  932MOL0     H22995   5.046   8.313   9.788 -0.0253  0.2088 -0.2160
  932MOL0     H22996   5.280   8.232   9.962 -1.6871  2.1730  0.2179
  932MOL0     H22997   5.182   8.104   9.898 -2.5461  0.9742  1.4099
  932MOL0     H22998   5.338   8.326   9.743 -0.2550 -0.3508 -0.8459
  932MOL0     H22999   5.237   8.205   9.668 -0.7293 -1.2228  0.7753
  932MOL0     H23000   5.373   8.010   9.756 -1.2350  0.1562  2.9554
  932MOL0     H23001   5.469   8.120   9.853  1.9272  0.0171 -1.1121
  932MOL0     H23002   5.580   8.053   9.642  0.2989  0.1282 -0.7433
  932MOL0     H23003   5.451   8.121   9.540  3.5682  0.1216 -2.0273
  932MOL0     H23004   5.669   8.261   9.708  0.5470 -2.1568 -0.8433
  932MOL0     H23005   5.517   8.347   9.638 -0.9151 -1.0887 -1.5004
  932MOL0     H23006   4.649   8.398   9.831  0.5837  1.2021 -0.2269
  932MOL0     H23007   4.411   8.428   9.783 -1.1718 -2.9809  0.1332
  932MOL0     H23008   4.003   8.314   9.864 -2.2375  0.1542  0.1577
  932MOL0     H23009   3.773   8.300   9.793  2.0038 -1.5953  0.3207
  932MOL0     H23010   1.762   8.973   9.760 -1.7184  1.9807  3.5091
  932MOL0     H23011   1.525   8.899   9.766 -0.4181 -0.7398 -1.5376
  932MOL0     H23012   1.121   8.835   9.728 -0.4081  1.6135  0.6704
  932MOL0     H23013   0.893   8.796   9.802  0.7190  0.1278  0.2432
  932MOL0     H23014   0.765   8.598   9.776  0.1628 -1.5328  0.9854
  932MOL0     H23015   0.702   8.733   9.872  2.3772  0.7362 -1.0749
  932MOL0     H23016   0.523   8.546   9.826 -1.8881 -1.4256  1.4016
  932MOL0     H23017   0.617   8.452   9.939 -1.3647 -0.4061 -3.3702
  932MOL0     H23018   0.471   8.704   9.989  0.9069  0.0105 -1.2838
  932MOL0     H23019   0.596   8.652  10.098 -0.2480 -0.6730  0.9096
  932MOL0     H23020   0.464   8.437  10.139 -0.7274  1.0658  2.3921
  932MOL0     H23021   0.372   8.582  10.171 -0.1420 -1.3583  1.2330
  932MOL0     H23022   0.109   8.415   9.907 -0.3589 -0.3983  3.5010
  932MOL0     H23023   1.031   8.481  10.060  1.7193 -1.8473 -2.2797
  932MOL0     H23024   1.271   8.539  10.001 -0.8224  1.3392  0.6568
  933MOL0     O23025   5.116   3.246   5.642  0.2228 -0.2128 -0.4247
  933MOL0     C23026   5.057   3.141   5.614 -0.1383  1.1038  1.0785
  933MOL0     O23027   5.119   3.014   5.595 -0.1179  0.4170 -0.3159
  933MOL0     C23028   5.250   2.986   5.621  0.1899  0.2955  0.1938
  933MOL0     C23029   5.307   2.901   5.520 -0.3662 -0.0831 -0.5736
  933MOL0     C23030   5.439   2.853   5.542 -0.0945  0.3251 -0.4289
  933MOL0     C23031   5.514   2.905   5.650 -0.1627  0.0906 -0.7985
  933MOL0     O23032   5.644   2.867   5.674  0.0375 -0.0988 -0.6076
  933MOL0     C23033   5.744   2.870   5.564 -0.3683  0.2567 -0.6552
  933MOL0     C23034   5.885   2.847   5.629 -0.3002  0.1024 -0.4273
  933MOL0     C23035   5.997   2.834   5.522 -0.3286  0.1240 -0.6214
  933MOL0     C23036   6.136   2.873   5.573  0.1224  0.0316  0.1089
  933MOL0     C23037   6.202   2.766   5.677 -1.4744 -0.5093  0.8724
  933MOL0     C23038   6.339   2.826   5.724 -0.1817  0.1538  0.3999
  933MOL0     C23039   6.435   2.705   5.716  0.1729 -0.2114 -0.0371
  933MOL0     C23040   6.486   2.687   5.571  0.0795  0.4163  0.5387
  933MOL0     N23041   6.617   2.621   5.579  0.1273 -1.2978 -0.9162
  933MOL0     C23042   6.739   2.685   5.552  0.3566 -0.2768 -0.5162
  933MOL0     C23043   6.824   2.581   5.577 -0.0610 -0.0290 -0.6926
  933MOL0     C23044   6.975   2.601   5.580  0.3915 -0.0817  1.1289
  933MOL0     C23045   7.025   2.723   5.657 -0.3278 -0.6250  0.4404
  933MOL0     C23046   7.009   2.710   5.815 -0.2290 -0.1245  0.2024
  933MOL0     C23047   7.039   2.847   5.888  0.9074  0.1415  0.4039
  933MOL0     O23048   6.944   2.950   5.838 -0.3482 -0.1411 -0.3870
  933MOL0     C23049   6.819   2.964   5.884  0.1027 -0.4440 -0.2197
  933MOL0     C23050   6.758   3.068   5.825  0.1872  0.1565  0.2065
  933MOL0     C23051   6.624   3.112   5.851  0.2530  0.2145  0.0745
  933MOL0     C23052   6.555   3.053   5.961  0.9320  0.5159 -0.8759
  933MOL0     C23053   6.421   3.099   5.996  0.8507 -0.3088 -0.4369
  933MOL0     O23054   6.387   3.222   5.951 -0.3767 -1.6537  0.2368
  933MOL0     C23055   6.257   3.259   5.968 -0.2140 -0.8271 -0.4063
  933MOL0     C23056   6.154   3.212   5.890 -0.3051 -0.9149  0.2967
  933MOL0     C23057   6.014   3.221   5.912  0.3038  0.8853 -0.5653
  933MOL0     C23058   5.972   3.277   6.039 -0.8363  0.1797  0.5828
  933MOL0     O23059   5.841   3.260   6.074  0.1988  0.3211  0.1092
  933MOL0     C23060   5.774   3.386   6.083  0.5206 -0.0937 -1.2369
  933MOL0     C23061   5.633   3.383   6.152  0.0972 -1.3157 -0.3023
  933MOL0     C23062   5.524   3.363   6.051 -0.4340 -0.4213  0.6682
  933MOL0     C23063   5.392   3.428   6.101  0.3213  0.3056 -0.5523
  933MOL0     C23064   5.290   3.431   5.984 -0.2166  1.1030 -0.2442
  933MOL0     C23065   5.160   3.464   6.043 -0.7949  0.5572 -0.0973
  933MOL0     C23066   5.044   3.390   5.978 -0.2865 -0.4818 -0.2873
  933MOL0     C23067   4.906   3.464   6.006  0.1849  0.5123 -0.8496
  933MOL0    Cl23068   4.906   3.617   5.916  0.3724  0.4053  0.3478
  933MOL0     C23069   6.078   3.330   6.118  0.0293 -1.1722 -1.1595
  933MOL0     C23070   6.215   3.324   6.090  0.3660  0.1065 -0.2216
  933MOL0     O23071   6.347   3.029   6.069 -0.0350 -0.4972 -0.6226
  933MOL0     C23072   6.627   2.956   6.032  0.0705 -0.6791 -0.6774
  933MOL0     C23073   6.763   2.915   6.000  0.8590  0.1174 -0.0522
  933MOL0     N23074   6.759   2.466   5.625 -1.0372 -0.3113  0.0237
  933MOL0     N23075   6.633   2.494   5.626  0.0551 -0.0216  0.6729
  933MOL0     C23076   5.462   2.990   5.748  0.0749  0.1533 -0.0900
  933MOL0     C23077   5.322   3.020   5.737 -0.4922 -0.0904  0.2997
  933MOL0     C23078   4.913   3.145   5.595  0.8393  0.1105  0.0474
  933MOL0     C23079   4.841   3.031   5.546 -0.3278  0.3373  0.8179
  933MOL0     C23080   4.703   3.035   5.513  0.5931 -1.4273 -0.5518
  933MOL0     C23081   4.629   3.156   5.538 -0.4452 -0.3187 -0.8845
  933MOL0     O23082   4.493   3.170   5.523  0.1580  0.8226  0.1540
  933MOL0     C23083   4.423   3.053   5.506  0.3174  0.8543  0.0245
  933MOL0     C23084   4.273   3.077   5.531  0.0535  0.0421  0.8235
  933MOL0     C23085   4.187   2.954   5.513  0.9260  0.0769  1.2664
  933MOL0     C23086   4.039   2.976   5.550  1.0545  0.1893  0.6966
  933MOL0     C23087   3.973   2.850   5.530 -0.5578  0.2709  0.4034
  933MOL0     C23088   3.918   2.747   5.515 -0.2611  0.5320 -0.1520
  933MOL0     C23089   4.713   3.273   5.567  0.0548 -0.4167  0.5220
  933MOL0     C23090   4.846   3.266   5.598 -0.0667  0.6823  0.0984
  933MOL0     H23091   5.243   2.864   5.441  0.9095 -3.1032 -0.3476
  933MOL0     H23092   5.473   2.779   5.471  1.0031  1.4006 -1.0650
  933MOL0     H23093   5.724   2.963   5.510 -5.1152 -0.1201  0.0552
  933MOL0     H23094   5.733   2.786   5.494  1.0107 -2.4855  2.1643
  933MOL0     H23095   5.875   2.754   5.687 -1.4910 -1.1712 -2.5720
  933MOL0     H23096   5.906   2.935   5.690 -2.5467  0.2066  0.3083
  933MOL0     H23097   5.961   2.898   5.441  0.6859 -0.3864 -1.5001
  933MOL0     H23098   5.994   2.733   5.481 -0.5609  0.9120 -2.6659
  933MOL0     H23099   6.202   2.880   5.486  0.1614 -0.2605  0.1124
  933MOL0     H23100   6.122   2.975   5.609  0.0146  1.2341 -3.0797
  933MOL0     H23101   6.208   2.666   5.634 -2.4627 -0.9543  1.7330
  933MOL0     H23102   6.134   2.758   5.762 -0.5063 -2.3108  1.5264
  933MOL0     H23103   6.336   2.856   5.830 -1.8030 -2.2496  1.1218
  933MOL0     H23104   6.377   2.908   5.663 -1.3284  0.2103 -0.2530
  933MOL0     H23105   6.512   2.723   5.792 -0.3672  0.8499  0.2844
  933MOL0     H23106   6.394   2.609   5.749 -1.0318  1.2313  3.0824
  933MOL0     H23107   6.509   2.785   5.527 -0.0791  1.7702  3.2065
  933MOL0     H23108   6.414   2.632   5.510  1.2477 -2.3625  1.4923
  933MOL0     H23109   6.747   2.791   5.532  2.1957 -0.3794 -0.5183
  933MOL0     H23110   7.003   2.615   5.475 -1.1725 -1.7033  0.4337
  933MOL0     H23111   7.021   2.508   5.616  1.4592  0.1147  0.3020
  933MOL0     H23112   6.970   2.810   5.621  0.3625  0.0104  0.9121
  933MOL0     H23113   7.133   2.729   5.640  0.0862 -3.0101  1.6560
  933MOL0     H23114   6.901   2.695   5.831 -0.4628 -0.6185 -1.5800
  933MOL0     H23115   7.076   2.632   5.852  1.8011 -0.1701 -3.1837
  933MOL0     H23116   7.132   2.881   5.842  1.0424 -2.4486 -1.4769
  933MOL0     H23117   7.042   2.838   5.997 -1.8775  0.3960  0.5656
  933MOL0     H23118   6.807   3.121   5.744 -1.8926  1.2850 -0.3816
  933MOL0     H23119   6.590   3.197   5.793  3.6266 -0.0416 -2.6537
  933MOL0     H23120   6.195   3.169   5.799  1.5269  0.5077  0.3975
  933MOL0     H23121   5.941   3.168   5.852 -1.0660 -2.1392  3.3733
  933MOL0     H23122   5.762   3.434   5.986 -0.8966 -0.5666 -1.3116
  933MOL0     H23123   5.824   3.454   6.154 -2.9205 -0.2543  1.6244
  933MOL0     H23124   5.618   3.478   6.205 -1.6920 -1.6173 -0.2095
  933MOL0     H23125   5.626   3.304   6.227 -0.1748 -0.1806  0.9183
  933MOL0     H23126   5.509   3.256   6.033  2.7148 -0.6907 -1.0784
  933MOL0     H23127   5.542   3.406   5.952 -0.5545 -1.0470  0.3689
  933MOL0     H23128   5.361   3.366   6.186  2.4360 -0.8145 -0.5346
  933MOL0     H23129   5.415   3.529   6.135 -0.4702  0.8144 -1.4724
  933MOL0     H23130   5.283   3.334   5.934  1.3476  0.7981  0.0707
  933MOL0     H23131   5.323   3.511   5.916  1.4352 -0.2244 -1.0998
  933MOL0     H23132   5.148   3.572   6.029  0.1672  0.4941 -1.5879
  933MOL0     H23133   5.158   3.432   6.148  0.5925 -3.6713 -1.1499
  933MOL0     H23134   5.049   3.370   5.871  0.1317 -3.7130  0.2409
  933MOL0     H23135   5.053   3.285   6.008 -1.4754 -1.3783 -2.7897
  933MOL0     H23136   4.902   3.481   6.114 -1.5829 -4.9868  0.2821
  933MOL0     H23137   4.820   3.407   5.970 -0.4980  1.1780 -0.3042
  933MOL0     H23138   6.043   3.387   6.204  1.3116 -0.0773 -1.3256
  933MOL0     H23139   6.281   3.372   6.161  0.5293 -2.3381  1.4208
  933MOL0     H23140   6.573   2.920   6.120  1.8170  3.6769  2.5456
  933MOL0     H23141   6.807   2.841   6.066  0.6459 -0.8700 -0.9791
  933MOL0     H23142   5.526   3.030   5.826  1.2923 -4.7758  1.8265
  933MOL0     H23143   5.267   3.088   5.802 -0.1301  1.5333 -1.0260
  933MOL0     H23144   4.894   2.938   5.527  0.1178  0.7465  0.0164
  933MOL0     H23145   4.648   2.947   5.481 -2.5674 -0.2962  1.3228
  933MOL0     H23146   4.455   2.975   5.574  0.1417  0.4526 -0.3471
  933MOL0     H23147   4.435   3.036   5.398 -0.8159  3.4703 -0.6070
  933MOL0     H23148   4.265   3.111   5.634 -0.7363  0.6577  0.5699
  933MOL0     H23149   4.238   3.163   5.472 -0.7496  0.4527  1.8730
  933MOL0     H23150   4.226   2.870   5.572  0.9119 -2.1753 -1.7065
  933MOL0     H23151   4.199   2.916   5.411  3.8794  1.7263  0.8861
  933MOL0     H23152   4.021   3.013   5.652 -2.4047  0.0818  0.2549
  933MOL0     H23153   4.013   3.049   5.472 -1.3075 -1.5192 -0.2362
  933MOL0     H23154   3.874   2.652   5.495 -0.2340  0.5088 -0.1025
  933MOL0     H23155   4.674   3.374   5.560 -0.0123 -0.3144  2.1519
  933MOL0     H23156   4.894   3.359   5.627 -1.0327  1.8793 -1.9024
  934MOL0     O23157   7.885   3.413   8.264 -0.0440 -1.0532  0.8634
  934MOL0     C23158   7.960   3.477   8.195 -0.8188 -0.0300 -0.2362
  934MOL0     O23159   7.936   3.600   8.149 -0.7671 -0.1080 -0.8808
  934MOL0     C23160   7.822   3.674   8.169  0.0550 -0.3090  0.3195
  934MOL0     C23161   7.829   3.783   8.263 -0.0916 -0.5049 -0.1054
  934MOL0     C23162   7.717   3.858   8.305  0.1668  0.0247  0.4599
  934MOL0     C23163   7.595   3.811   8.258 -0.3032 -0.5802  0.5750
  934MOL0     O23164   7.489   3.880   8.304  0.6246 -0.2256  0.2181
  934MOL0     C23165   7.403   3.805   8.390  0.9704 -0.3554  0.2532
  934MOL0     C23166   7.259   3.808   8.338 -0.6313  1.2000 -0.1338
  934MOL0     C23167   7.172   3.722   8.434 -0.4985 -0.0623 -0.3044
  934MOL0     C23168   7.156   3.785   8.572  0.1376  0.2897  0.5036
  934MOL0     C23169   7.032   3.717   8.631 -0.1180  0.4130 -0.2624
  934MOL0     C23170   7.050   3.693   8.781  0.1485 -0.0806  0.1826
  934MOL0     C23171   6.916   3.640   8.834  0.6945  0.5552 -0.6405
  934MOL0     C23172   6.939   3.622   8.989  0.8339  0.6670 -0.0056
  934MOL0     N23173   6.808   3.575   9.041 -0.4459 -0.5245 -0.1311
  934MOL0     C23174   6.689   3.648   9.043  0.8275 -0.8140  0.3313
  934MOL0     C23175   6.592   3.564   9.087 -0.1583 -0.1730  0.4866
  934MOL0     C23176   6.446   3.569   9.107 -0.4677  0.1979 -0.9338
  934MOL0     C23177   6.384   3.441   9.181  0.3313 -0.9555  0.3268
  934MOL0     C23178   6.421   3.435   9.333 -0.2540 -1.0135 -0.1657
  934MOL0     C23179   6.322   3.345   9.419  0.3844  0.1912  0.6230
  934MOL0     O23180   6.191   3.394   9.411  0.8542  0.2429  0.0399
  934MOL0     C23181   6.084   3.313   9.426 -0.6494  0.2777 -0.2087
  934MOL0     C23182   6.077   3.206   9.513 -0.0968 -0.5079  0.3321
  934MOL0     C23183   5.957   3.142   9.538 -0.2604 -0.2192  0.4250
  934MOL0     C23184   5.834   3.165   9.466 -0.0788  0.1544  0.1605
  934MOL0     C23185   5.716   3.093   9.494  0.4444  1.2761  1.0490
  934MOL0     O23186   5.727   2.994   9.579  0.2310 -0.1829 -0.1395
  934MOL0     C23187   5.623   2.937   9.640 -0.2249 -0.1835  0.7328
  934MOL0     C23188   5.664   2.841   9.730  0.9673  0.7310 -0.3362
  934MOL0     C23189   5.568   2.786   9.813  0.2177  0.6126 -0.6080
  934MOL0     C23190   5.437   2.821   9.802  0.0655 -0.7702 -0.1613
  934MOL0     O23191   5.349   2.772   9.894 -0.4143  0.2266  0.1282
  934MOL0     C23192   5.217   2.749   9.845  0.1592  0.7587  0.4801
  934MOL0     C23193   5.150   2.657   9.944 -0.1859 -0.2417 -0.2350
  934MOL0     C23194   5.003   2.645   9.953 -0.8103 -0.3028 -0.6010
  934MOL0     C23195   4.927   2.775   9.988  0.0834 -0.3722 -0.0734
  934MOL0     C23196   4.829   2.746  10.099 -0.0956  0.3390 -0.4435
  934MOL0     C23197   4.717   2.640  10.052 -0.4459 -0.0022  0.2768
  934MOL0     C23198   4.627   2.613  10.169 -0.3473  0.5157  0.1551
  934MOL0     C23199   4.507   2.527  10.122  0.5518 -0.2287  0.8530
  934MOL0    Cl23200   4.446   2.443  10.267 -0.0343  0.1370 -0.1017
  934MOL0     C23201   5.392   2.920   9.715 -1.0919 -0.9830 -0.3005
  934MOL0     C23202   5.491   2.989   9.643  0.5509  0.4074 -0.7036
  934MOL0     O23203   5.612   3.120   9.423 -0.0766 -0.5696 -0.5889
  934MOL0     C23204   5.843   3.265   9.372  0.1030  0.2228  1.0546
  934MOL0     C23205   5.968   3.337   9.349 -0.0120 -0.0604 -0.5228
  934MOL0     N23206   6.662   3.443   9.114  0.0132  0.5891 -0.4730
  934MOL0     N23207   6.790   3.450   9.090  1.0326 -0.7705 -0.3177
  934MOL0     C23208   7.584   3.714   8.165 -0.0901 -0.2734  0.0781
  934MOL0     C23209   7.694   3.643   8.120 -0.3942 -0.3660 -0.1753
  934MOL0     C23210   8.092   3.414   8.155 -0.2725  0.3644 -0.8238
  934MOL0     C23211   8.122   3.286   8.204 -0.4701  0.5163 -0.1378
  934MOL0     C23212   8.250   3.225   8.180  0.0586  0.0711  0.6898
  934MOL0     C23213   8.350   3.307   8.119 -1.2366 -0.5574  0.1490
  934MOL0     O23214   8.480   3.270   8.137 -0.7515  0.3672  0.5078
  934MOL0     C23215   8.578   3.371   8.158 -0.2433 -0.0429  0.0157
  934MOL0     C23216   8.714   3.299   8.193  0.6635 -0.4634 -0.0911
  934MOL0     C23217   8.843   3.385   8.203 -0.1204  0.0320 -0.2731
  934MOL0     C23218   8.964   3.291   8.212  0.1961 -0.5815  0.2104
  934MOL0     C23219   9.004   3.266   8.072 -0.4768 -0.2133 -0.3782
  934MOL0     C23220   9.038   3.257   7.956 -0.1042 -0.4672 -0.2439
  934MOL0     C23221   8.315   3.433   8.068  0.1060  0.8801 -0.4837
  934MOL0     C23222   8.191   3.479   8.092 -0.4338  0.1737  0.0133
  934MOL0     H23223   7.928   3.803   8.301  0.0895 -1.8083  0.1860
  934MOL0     H23224   7.714   3.946   8.368 -1.0700 -0.6393  1.3557
  934MOL0     H23225   7.407   3.854   8.487  0.6191  0.8514 -0.3193
  934MOL0     H23226   7.430   3.699   8.394 -0.7702 -0.8125  1.2869
  934MOL0     H23227   7.245   3.756   8.243  0.1670  0.7523 -0.0120
  934MOL0     H23228   7.218   3.910   8.332 -0.7021  1.3945  2.6279
  934MOL0     H23229   7.211   3.620   8.447  2.8882  1.3395  2.2198
  934MOL0     H23230   7.080   3.711   8.376  0.1708  0.7186 -1.5566
  934MOL0     H23231   7.249   3.773   8.628  1.3528 -0.5407 -1.5621
  934MOL0     H23232   7.145   3.893   8.573  1.1922  0.4309 -0.4859
  934MOL0     H23233   7.015   3.615   8.594 -1.3670  0.2713  0.6584
  934MOL0     H23234   6.943   3.779   8.616 -0.8950 -0.8079 -0.8323
  934MOL0     H23235   7.073   3.784   8.837  2.5765 -0.3106 -0.3594
  934MOL0     H23236   7.131   3.621   8.789  1.5939  1.5388  0.6241
  934MOL0     H23237   6.832   3.701   8.800 -0.8170 -1.2802 -0.3310
  934MOL0     H23238   6.904   3.543   8.786 -1.9483  1.7699 -2.6615
  934MOL0     H23239   6.973   3.714   9.037  2.4846  0.8544 -1.4210
  934MOL0     H23240   7.018   3.551   9.014  2.7586  3.2202  1.4888
  934MOL0     H23241   6.673   3.747   9.003  0.1070 -1.7305 -1.7481
  934MOL0     H23242   6.392   3.579   9.013  1.6426  1.3088 -2.1053
  934MOL0     H23243   6.427   3.656   9.170 -1.6462  0.2688 -1.3685
  934MOL0     H23244   6.424   3.349   9.138  0.0961 -1.0767  0.3643
  934MOL0     H23245   6.276   3.434   9.162  0.6778 -1.3071 -1.7276
  934MOL0     H23246   6.524   3.397   9.336 -0.3872 -1.5182 -1.4994
  934MOL0     H23247   6.433   3.535   9.376  1.2857 -1.7993  1.3946
  934MOL0     H23248   6.361   3.351   9.521  0.5616 -2.6836  0.8128
  934MOL0     H23249   6.328   3.242   9.382 -1.4875 -1.3637  4.1114
  934MOL0     H23250   6.161   3.199   9.581  2.4476  2.9684 -2.1353
  934MOL0     H23251   5.962   3.053   9.599  2.6373 -1.5727 -1.5594
  934MOL0     H23252   5.766   2.807   9.742  1.4955  2.0974 -0.7999
  934MOL0     H23253   5.589   2.713   9.891  0.1732  0.1735 -1.0059
  934MOL0     H23254   5.201   2.705   9.746 -5.3209  2.4515  0.3041
  934MOL0     H23255   5.159   2.842   9.849 -2.3182 -0.4055 -3.0974
  934MOL0     H23256   5.183   2.672  10.047 -0.7924 -2.1890  0.2887
  934MOL0     H23257   5.186   2.557   9.915  0.5909 -0.0578  0.0697
  934MOL0     H23258   4.991   2.577  10.038  3.3624 -1.3788 -0.6479
  934MOL0     H23259   4.960   2.603   9.862 -0.4197  0.4150 -1.1253
  934MOL0     H23260   4.992   2.855  10.024 -1.9739  1.0889  0.5782
  934MOL0     H23261   4.873   2.810   9.900 -0.1974 -0.5184  0.0377
  934MOL0     H23262   4.787   2.844  10.125 -0.2917  0.5164 -1.3867
  934MOL0     H23263   4.880   2.708  10.188  0.4517 -0.0589 -0.9261
  934MOL0     H23264   4.772   2.552  10.020  2.7256  2.1856 -0.8470
  934MOL0     H23265   4.664   2.687   9.969 -0.1977 -1.9357 -1.0318
  934MOL0     H23266   4.681   2.566  10.252 -0.3570 -2.0516 -1.2054
  934MOL0     H23267   4.573   2.700  10.208 -2.3950 -0.6350  0.0223
  934MOL0     H23268   4.545   2.477  10.032  1.3261  1.6886  0.0509
  934MOL0     H23269   4.427   2.592  10.087  1.9338 -0.5386 -3.5826
  934MOL0     H23270   5.294   2.964   9.704 -1.2648 -0.5332  2.3991
  934MOL0     H23271   5.454   3.072   9.584  1.1487 -0.6109 -2.5880
  934MOL0     H23272   5.768   3.255   9.295  0.9644 -0.8045  0.3117
  934MOL0     H23273   5.984   3.406   9.267 -0.1284  0.7410  0.1227
  934MOL0     H23274   7.480   3.696   8.140 -0.5379  1.4636  0.5174
  934MOL0     H23275   7.689   3.549   8.067  0.8122 -1.5058  1.6255
  934MOL0     H23276   8.058   3.228   8.270  0.4702 -1.1974 -0.6676
  934MOL0     H23277   8.275   3.133   8.231  0.8915 -0.5505 -0.7831
  934MOL0     H23278   8.551   3.439   8.238  2.4991  5.5771 -3.2444
  934MOL0     H23279   8.583   3.438   8.072 -1.6129  2.8014  1.9952
  934MOL0     H23280   8.703   3.256   8.293  1.3926 -0.8509 -0.1722
  934MOL0     H23281   8.729   3.218   8.121  1.2313 -0.1691 -0.3100
  934MOL0     H23282   8.832   3.443   8.295  0.8493  0.2782 -0.3030
  934MOL0     H23283   8.855   3.454   8.119 -0.2201 -1.7820 -1.8405
  934MOL0     H23284   9.036   3.353   8.267  0.6740  0.8280 -1.8682
  934MOL0     H23285   8.938   3.202   8.269  0.3963 -0.8835 -0.1623
  934MOL0     H23286   9.073   3.258   7.855  1.1518 -1.0655  0.1684
  934MOL0     H23287   8.392   3.502   8.035  1.4471 -0.5853 -0.5018
  934MOL0     H23288   8.190   3.585   8.067 -0.5827 -0.0657 -1.0592
  935MOL0     O23289   0.404   3.313  10.898 -0.4317  0.0565 -0.0866
  935MOL0     C23290   0.426   3.373  10.999 -0.5644 -1.1058  0.6756
  935MOL0     O23291   0.332   3.407  11.090  0.1453  0.1445  0.5507
  935MOL0     C23292   0.195   3.386  11.077 -1.0427 -0.4825 -0.1820
  935MOL0     C23293   0.128   3.338  10.968 -0.9779 -1.3282  0.0153
  935MOL0     C23294  -0.015   3.335  10.969 -0.7498  0.1588 -1.0098
  935MOL0     C23295  -0.079   3.352  11.094 -0.1224 -0.4946  0.2283
  935MOL0     O23296  -0.210   3.348  11.080  0.2771  0.1860 -0.0402
  935MOL0     C23297  -0.289   3.299  11.189  0.7466 -0.0842  0.0435
  935MOL0     C23298  -0.381   3.414  11.223  0.1854 -0.2735  0.3080
  935MOL0     C23299  -0.484   3.448  11.121  0.6729 -1.0342  0.5572
  935MOL0     C23300  -0.569   3.568  11.160 -0.5185 -0.1897 -0.5408
  935MOL0     C23301  -0.681   3.583  11.054  0.1696 -0.0159  0.6074
  935MOL0     C23302  -0.767   3.711  11.070 -0.3336  0.2040 -0.0764
  935MOL0     C23303  -0.696   3.836  11.029 -0.0297  0.4041 -0.7257
  935MOL0     C23304  -0.790   3.953  11.044  0.4123 -0.0536 -0.3011
  935MOL0     N23305  -0.871   3.958  11.176 -0.4419  0.7139  0.3343
  935MOL0     C23306  -0.824   3.990  11.299  0.7536  1.0713  0.2773
  935MOL0     C23307  -0.928   3.959  11.386 -0.1277 -0.7891  0.0602
  935MOL0     C23308  -0.904   3.964  11.536  0.4277 -1.8287  0.9027
  935MOL0     C23309  -0.831   3.850  11.607 -0.5362  0.4897 -0.9677
  935MOL0     C23310  -0.717   3.784  11.529  0.4242 -0.0367 -0.1511
  935MOL0     C23311  -0.636   3.672  11.604 -0.1640 -0.5682  0.1848
  935MOL0     O23312  -0.572   3.590  11.496 -0.1800 -0.4859 -0.2102
  935MOL0     C23313  -0.437   3.595  11.510  0.4362  0.6456  0.1212
  935MOL0     C23314  -0.367   3.504  11.584 -0.0508 -0.4720  0.0468
  935MOL0     C23315  -0.231   3.498  11.596  0.5133  0.1557  0.1994
  935MOL0     C23316  -0.160   3.606  11.544 -0.1634  0.8113  0.5314
  935MOL0     C23317  -0.013   3.607  11.540  0.4537  0.5258 -0.1923
  935MOL0     O23318   0.044   3.723  11.494  0.1596 -0.2165 -0.7077
  935MOL0     C23319   0.179   3.744  11.484  0.3477  0.2250  1.7662
  935MOL0     C23320   0.212   3.884  11.469 -0.0564 -0.2883 -0.5012
  935MOL0     C23321   0.342   3.924  11.438  0.5383  0.1577  0.1243
  935MOL0     C23322   0.441   3.829  11.420  0.4480 -0.7658  0.2991
  935MOL0     O23323   0.570   3.854  11.394 -0.5122  1.3674  0.0297
  935MOL0     C23324   0.640   3.965  11.460  0.3727 -0.3543 -0.1828
  935MOL0     C23325   0.657   3.958  11.615 -0.5949 -0.2584  0.3568
  935MOL0     C23326   0.757   4.071  11.671  0.4957 -0.5099 -1.0199
  935MOL0     C23327   0.906   4.035  11.644  0.2740 -0.0918 -0.5867
  935MOL0     C23328   1.008   4.148  11.686  0.0459 -0.8790  0.2666
  935MOL0     C23329   1.016   4.164  11.835 -0.1202 -0.1241 -0.6007
  935MOL0     C23330   1.105   4.281  11.884  0.5800 -0.6439  0.5614
  935MOL0     C23331   1.252   4.251  11.900  0.3123  0.4153  0.0344
  935MOL0    Cl23332   1.333   4.276  11.735  0.2239 -0.2840 -0.0385
  935MOL0     C23333   0.413   3.696  11.426  0.2218 -0.3024 -0.6073
  935MOL0     C23334   0.286   3.650  11.455  0.2170 -0.5781 -0.1598
  935MOL0     O23335   0.042   3.500  11.554  0.2491 -0.7497  0.6844
  935MOL0     C23336  -0.228   3.701  11.476  0.0387  0.0016 -0.1399
  935MOL0     C23337  -0.366   3.698  11.457  0.3071 -0.8378  0.1786
  935MOL0     N23338  -1.029   3.898  11.314 -0.0617 -0.7576 -0.2462
  935MOL0     N23339  -0.998   3.900  11.193  0.1820 -0.3254  0.3507
  935MOL0     C23340  -0.013   3.396  11.206 -1.2135 -0.5697  0.2468
  935MOL0     C23341   0.127   3.411  11.197 -0.3315  0.7425  0.5054
  935MOL0     C23342   0.562   3.432  11.020  0.0277  0.2768 -0.3893
  935MOL0     C23343   0.671   3.370  10.954 -0.1155  0.0019 -0.4861
  935MOL0     C23344   0.802   3.426  10.965 -0.4132  0.4510  0.2334
  935MOL0     C23345   0.832   3.538  11.046  0.2620 -0.9125 -0.4140
  935MOL0     O23346   0.962   3.584  11.063  0.3232 -0.2685 -0.7090
  935MOL0     C23347   1.069   3.510  11.007 -0.1532  0.0727  0.0664
  935MOL0     C23348   1.187   3.592  11.052 -0.8667  0.0652  0.3482
  935MOL0     C23349   1.320   3.512  11.060 -0.2478  0.0508  0.7032
  935MOL0     C23350   1.357   3.429  10.939  0.2137  0.5837 -0.0235
  935MOL0     C23351   1.396   3.525  10.835 -0.4747  0.6724  0.7194
  935MOL0     C23352   1.442   3.598  10.753 -0.1483 -0.3821 -0.5190
  935MOL0     C23353   0.714   3.600  11.112 -1.4707  0.0592  1.1139
  935MOL0     C23354   0.588   3.539  11.105 -0.1487 -0.0680  1.3308
  935MOL0     H23355   0.177   3.333  10.871 -0.7169  1.4758 -0.0839
  935MOL0     H23356  -0.084   3.335  10.886 -0.8524  3.5471 -1.0508
  935MOL0     H23357  -0.229   3.263  11.273  1.3733  1.6902  0.3792
  935MOL0     H23358  -0.348   3.218  11.144  2.4749 -1.3459 -0.0619
  935MOL0     H23359  -0.333   3.507  11.255  1.0788 -0.6497  0.0918
  935MOL0     H23360  -0.425   3.383  11.319  3.0658 -1.2019  1.4317
  935MOL0     H23361  -0.545   3.359  11.106  1.7636 -1.4391 -1.9404
  935MOL0     H23362  -0.443   3.452  11.020 -0.2486 -2.0308  0.1223
  935MOL0     H23363  -0.611   3.538  11.257  1.0015 -2.4282 -0.5000
  935MOL0     H23364  -0.505   3.655  11.176  1.7964 -2.2331  2.4925
  935MOL0     H23365  -0.746   3.494  11.050 -0.2985  0.2502  1.8612
  935MOL0     H23366  -0.630   3.593  10.958 -2.6278  3.1840 -0.7622
  935MOL0     H23367  -0.812   3.713  11.170 -0.8787 -1.7539 -0.2476
  935MOL0     H23368  -0.857   3.708  11.008 -1.0147  1.3501  0.8036
  935MOL0     H23369  -0.617   3.850  11.103  0.4480  0.3156 -1.2125
  935MOL0     H23370  -0.645   3.836  10.933  1.4238  2.0538  0.0026
  935MOL0     H23371  -0.860   3.957  10.959  1.9865  4.2055 -1.6478
  935MOL0     H23372  -0.734   4.044  11.025  2.6051 -1.3447 -0.3507
  935MOL0     H23373  -0.725   4.025  11.327  0.0682  3.2982  0.0370
  935MOL0     H23374  -1.003   3.974  11.582 -0.1977  0.1881 -0.7173
  935MOL0     H23375  -0.844   4.054  11.553  1.3760 -1.6572 -2.5950
  935MOL0     H23376  -0.905   3.770  11.617 -0.9364  0.8510 -0.9869
  935MOL0     H23377  -0.801   3.886  11.706 -0.6443  3.6038 -1.9531
  935MOL0     H23378  -0.748   3.744  11.432 -0.5181 -1.0586  0.5555
  935MOL0     H23379  -0.651   3.867  11.504 -0.5311  0.8174  0.0896
  935MOL0     H23380  -0.688   3.596  11.661 -0.3861 -0.9401 -0.5048
  935MOL0     H23381  -0.559   3.722  11.665 -0.4574  1.0520 -0.7031
  935MOL0     H23382  -0.420   3.420  11.627  0.3627 -1.4064 -1.1972
  935MOL0     H23383  -0.194   3.409  11.646 -0.7234 -0.4048  0.1584
  935MOL0     H23384   0.134   3.959  11.473  1.2794  1.0678  1.3121
  935MOL0     H23385   0.362   4.030  11.434 -1.2771  0.6162  1.5555
  935MOL0     H23386   0.599   4.060  11.425  1.4500 -0.0154 -0.5939
  935MOL0     H23387   0.739   3.971  11.413 -0.1789  0.8111 -1.2494
  935MOL0     H23388   0.683   3.859  11.651  0.1175  0.5110  2.0360
  935MOL0     H23389   0.558   3.984  11.654 -0.7643  1.9006 -1.2771
  935MOL0     H23390   0.734   4.067  11.778  2.8730  1.9932 -0.3120
  935MOL0     H23391   0.729   4.169  11.631 -0.4688  1.6917  4.1954
  935MOL0     H23392   0.926   3.945  11.701 -0.7014 -0.2249 -0.4254
  935MOL0     H23393   0.913   4.022  11.535 -0.4448  0.6717 -0.7380
  935MOL0     H23394   0.994   4.241  11.630  0.1497 -0.2544  1.2650
  935MOL0     H23395   1.103   4.104  11.655 -0.9635 -3.0248  0.0019
  935MOL0     H23396   1.051   4.069  11.877 -0.7491  0.8624  2.4393
  935MOL0     H23397   0.922   4.189  11.885  0.7471 -0.0995  1.1068
  935MOL0     H23398   1.096   4.369  11.818  1.2411 -0.5504  0.5948
  935MOL0     H23399   1.054   4.309  11.977  0.9481  1.7160  0.1117
  935MOL0     H23400   1.269   4.147  11.930  2.3463  1.3655  2.5664
  935MOL0     H23401   1.318   4.311  11.964  0.8053  0.6449 -0.6809
  935MOL0     H23402   0.500   3.633  11.409  0.9920 -0.2144  2.3745
  935MOL0     H23403   0.264   3.545  11.470 -3.0417 -0.6512 -3.7962
  935MOL0     H23404  -0.167   3.780  11.434 -0.1047  0.6341  0.8140
  935MOL0     H23405  -0.421   3.775  11.404 -0.6314 -0.5416  1.5102
  935MOL0     H23406  -0.066   3.422  11.297 -1.9800 -0.6740 -0.1612
  935MOL0     H23407   0.176   3.445  11.287  0.5889  0.9216 -0.0511
  935MOL0     H23408   0.646   3.297  10.877  0.6638 -0.0669 -0.6836
  935MOL0     H23409   0.882   3.365  10.925 -0.2568  0.9627 -0.2368
  935MOL0     H23410   1.054   3.494  10.900  0.4592 -0.7102  0.0899
  935MOL0     H23411   1.075   3.414  11.059 -1.3200 -0.9182 -1.5360
  935MOL0     H23412   1.219   3.672  10.984  2.5000  1.8832  3.6539
  935MOL0     H23413   1.149   3.647  11.139 -1.9320  1.0196 -0.6828
  935MOL0     H23414   1.308   3.437  11.139 -1.8594 -0.5136 -0.0367
  935MOL0     H23415   1.402   3.579  11.087  0.8474 -0.9473 -0.0497
  935MOL0     H23416   1.435   3.358  10.968  0.3262 -0.6314 -2.9401
  935MOL0     H23417   1.284   3.362  10.893  0.6868 -0.0270  0.0850
  935MOL0     H23418   1.480   3.671  10.684  1.4656 -2.2166 -1.7010
  935MOL0     H23419   0.736   3.692  11.165 -1.8252 -0.5824  2.3975
  935MOL0     H23420   0.504   3.565  11.169 -1.1538 -2.6413  1.1768
  936MOL0     O23421   8.302  10.638   1.408 -0.0006 -0.6943 -0.5709
  936MOL0     C23422   8.271  10.530   1.447 -0.4515  0.0828 -0.7725
  936MOL0     O23423   8.352  10.438   1.492  0.1620  0.3175  0.1269
  936MOL0     C23424   8.483  10.474   1.509  0.0140 -0.0715 -0.0903
  936MOL0     C23425   8.523  10.578   1.601  1.3348  0.3647  0.1780
  936MOL0     C23426   8.663  10.601   1.612 -0.0157 -0.3694  0.2804
  936MOL0     C23427   8.761  10.525   1.545 -0.2055 -0.4736 -0.1979
  936MOL0     O23428   8.896  10.529   1.563  0.7319 -0.1360 -0.1385
  936MOL0     C23429   8.952  10.655   1.605  0.1468 -0.1452 -1.0777
  936MOL0     C23430   9.085  10.705   1.539  0.2568 -0.3627  0.3007
  936MOL0     C23431   9.190  10.606   1.570 -0.8558 -0.1217  0.2909
  936MOL0     C23432   9.328  10.633   1.506 -0.6821 -0.0883  1.3116
  936MOL0     C23433   9.424  10.509   1.498  1.6245  0.8216  0.2471
  936MOL0     C23434   9.547  10.542   1.420  0.2856 -0.3894 -0.1255
  936MOL0     C23435   9.658  10.442   1.461  0.0135  0.3597  0.1009
  936MOL0     C23436   9.784  10.459   1.380  1.4198  0.8849  0.7875
  936MOL0     N23437   9.856  10.567   1.440  0.3039 -0.0129 -0.0283
  936MOL0     C23438   9.954  10.560   1.536  0.6709  0.0924 -0.4990
  936MOL0     C23439   9.980  10.684   1.567  0.0565  0.0833 -0.5020
  936MOL0     C23440  10.061  10.728   1.688 -0.6532  0.3482 -0.0867
  936MOL0     C23441  10.207  10.697   1.675  0.3468  0.4355 -0.1117
  936MOL0     C23442  10.288  10.706   1.809  0.2794  0.0307  0.0971
  936MOL0     C23443  10.320  10.573   1.880  0.1532  0.0275 -0.3745
  936MOL0     O23444  10.391  10.479   1.792  0.1424 -0.4531 -0.5182
  936MOL0     C23445  10.531  10.474   1.789 -0.8388  0.0896 -0.1548
  936MOL0     C23446  10.592  10.347   1.744  0.6849 -0.6018 -0.3496
  936MOL0     C23447  10.729  10.332   1.744  1.0083 -0.1795  0.8500
  936MOL0     C23448  10.809  10.443   1.791 -0.2830 -0.6256  0.5124
  936MOL0     C23449  10.958  10.436   1.794 -0.6063 -0.6271 -0.7251
  936MOL0     O23450  11.044  10.530   1.848  0.2471  0.2213 -0.1180
  936MOL0     C23451  11.177  10.502   1.876  0.6803  0.5235 -0.1508
  936MOL0     C23452  11.256  10.616   1.869  0.2379 -0.6556 -1.3770
  936MOL0     C23453  11.395  10.610   1.894  0.2808 -0.2792  0.0270
  936MOL0     C23454  11.459  10.498   1.932 -0.6623 -0.0941  0.5855
  936MOL0     O23455  11.597  10.485   1.949 -0.2364 -0.9899 -0.1213
  936MOL0     C23456  11.674  10.561   1.858  0.0847  0.9801 -0.4777
  936MOL0     C23457  11.824  10.540   1.881  0.9574 -0.2531  0.2420
  936MOL0     C23458  11.899  10.620   1.773 -0.4558  0.2186  0.2597
  936MOL0     C23459  12.044  10.640   1.810  0.8470  0.7384  0.0566
  936MOL0     C23460  12.136  10.701   1.705  0.5441  0.5046 -0.0967
  936MOL0     C23461  12.278  10.698   1.749 -0.1280  0.2132 -0.4120
  936MOL0     C23462  12.374  10.782   1.662 -0.7436 -0.1334 -0.2517
  936MOL0     C23463  12.452  10.894   1.735  0.8013 -0.4710  1.0654
  936MOL0    Cl23464  12.346  11.029   1.809 -0.0970 -0.0406  0.2860
  936MOL0     C23465  11.374  10.388   1.956 -0.0814  0.4136  0.3603
  936MOL0     C23466  11.239  10.385   1.921  0.0048  0.8165 -0.0117
  936MOL0     O23467  11.003  10.339   1.740  0.0907  0.8641 -0.3953
  936MOL0     C23468  10.754  10.571   1.829  0.4209 -0.3470 -0.1320
  936MOL0     C23469  10.613  10.587   1.819  0.6998  0.1174 -0.4058
  936MOL0     N23470   9.890  10.762   1.499 -0.0346  0.1216 -0.6546
  936MOL0     N23471   9.816  10.694   1.423 -0.1452  0.4912 -0.3011
  936MOL0     C23472   8.719  10.423   1.476  0.2139  0.5110 -0.4774
  936MOL0     C23473   8.582  10.393   1.453  1.0920  0.4744  0.3008
  936MOL0     C23474   8.123  10.509   1.467 -0.2357  0.3270  0.0799
  936MOL0     C23475   8.035  10.618   1.485 -0.4299 -0.0659 -0.5153
  936MOL0     C23476   7.900  10.591   1.503 -0.8166  0.0081 -0.8442
  936MOL0     C23477   7.852  10.456   1.501  1.4856 -0.7539  0.3702
  936MOL0     O23478   7.718  10.423   1.499  0.0260  0.8422 -0.6322
  936MOL0     C23479   7.623  10.518   1.469  1.0156 -0.5705  0.2946
  936MOL0     C23480   7.479  10.466   1.483 -0.4213  0.6930  0.8657
  936MOL0     C23481   7.380  10.558   1.405  0.9988  0.0249 -0.3372
  936MOL0     C23482   7.362  10.698   1.466  0.0464  0.0695  0.8054
  936MOL0     C23483   7.307  10.684   1.601  0.1007 -0.2083 -0.4818
  936MOL0     C23484   7.273  10.695   1.720  0.9897 -0.8597  0.5601
  936MOL0     C23485   7.938  10.355   1.479 -0.8942 -0.0487 -0.6111
  936MOL0     C23486   8.077  10.378   1.472  0.9559 -0.8013  0.7339
  936MOL0     H23487   8.448  10.639   1.650  1.6330 -0.9087  2.3500
  936MOL0     H23488   8.711  10.667   1.683 -1.5398  1.1919 -0.0921
  936MOL0     H23489   8.979  10.648   1.711  0.5922 -3.0546 -1.3124
  936MOL0     H23490   8.886  10.741   1.590 -0.0115 -0.4124 -1.9802
  936MOL0     H23491   9.108  10.806   1.573  1.2241 -1.1068  1.9872
  936MOL0     H23492   9.068  10.713   1.431 -0.2266  3.1166  0.5444
  936MOL0     H23493   9.158  10.518   1.514 -0.1293  0.0972 -0.4788
  936MOL0     H23494   9.198  10.582   1.677  1.8122 -1.7182 -0.1789
  936MOL0     H23495   9.309  10.666   1.404 -2.1146 -2.0685  0.8944
  936MOL0     H23496   9.380  10.706   1.569 -1.8518  1.0575  0.9799
  936MOL0     H23497   9.383  10.425   1.441  2.9895  1.0857 -1.1866
  936MOL0     H23498   9.441  10.485   1.603 -3.0013 -0.5419  0.9030
  936MOL0     H23499   9.580  10.643   1.448  2.3653 -1.2356  0.6932
  936MOL0     H23500   9.524  10.550   1.313  1.6432  3.5066 -0.2765
  936MOL0     H23501   9.673  10.457   1.568 -1.0060  1.1448  0.1440
  936MOL0     H23502   9.619  10.341   1.443  1.0436 -0.0264 -0.0457
  936MOL0     H23503   9.756  10.472   1.276  1.8435 -2.1962  0.1679
  936MOL0     H23504   9.841  10.365   1.376  3.2369  1.7894 -5.8224
  936MOL0     H23505   9.991  10.472   1.586 -0.4721 -0.3667 -0.4219
  936MOL0     H23506  10.009  10.682   1.773 -0.5797  1.4650  0.5916
  936MOL0     H23507  10.050  10.836   1.706 -0.2702  0.0435  2.4197
  936MOL0     H23508  10.261  10.773   1.619  0.8090  1.3310  1.4725
  936MOL0     H23509  10.213  10.595   1.635 -2.0298 -1.0124  2.7731
  936MOL0     H23510  10.383  10.753   1.786 -0.0422  0.2829 -0.7692
  936MOL0     H23511  10.228  10.758   1.884 -0.5282 -0.1760 -0.3901
  936MOL0     H23512  10.225  10.527   1.910  0.9891 -0.7013  1.3139
  936MOL0     H23513  10.376  10.592   1.972 -1.0335 -2.9784  1.1147
  936MOL0     H23514  10.532  10.258   1.729  1.5682 -1.4077  0.7744
  936MOL0     H23515  10.766  10.244   1.692  2.2117  0.7809  0.0203
  936MOL0     H23516  11.200  10.706   1.843  0.5224  1.0805  3.1042
  936MOL0     H23517  11.460  10.697   1.894 -2.1269  1.6339  0.4042
  936MOL0     H23518  11.656  10.663   1.894  2.8185  0.8766  1.5087
  936MOL0     H23519  11.642  10.547   1.755 -0.3984  0.3126 -0.2378
  936MOL0     H23520  11.842  10.432   1.875  2.1478  0.0109 -1.7267
  936MOL0     H23521  11.852  10.574   1.981  2.1008  0.9589 -0.4647
  936MOL0     H23522  11.854  10.720   1.768 -1.9315 -0.2904  2.3754
  936MOL0     H23523  11.899  10.573   1.674  1.7918  0.5895  0.0309
  936MOL0     H23524  12.044  10.694   1.906 -1.6708 -0.2634  0.6906
  936MOL0     H23525  12.070  10.534   1.822  1.9585  0.8714 -0.9786
  936MOL0     H23526  12.102  10.805   1.710 -3.2087 -0.5068 -1.3282
  936MOL0     H23527  12.116  10.650   1.611 -0.5335  0.4151  0.1661
  936MOL0     H23528  12.321  10.598   1.763  1.1595  1.1410  4.2596
  936MOL0     H23529  12.298  10.735   1.850  3.1070  0.1994 -0.9358
  936MOL0     H23530  12.436  10.708   1.610  1.0669  0.8967  0.3477
  936MOL0     H23531  12.311  10.836   1.591 -1.6057 -0.6037  0.1391
  936MOL0     H23532  12.517  10.932   1.656 -1.5557  1.1433 -0.2463
  936MOL0     H23533  12.494  10.842   1.822 -1.5667 -2.8555  0.9426
  936MOL0     H23534  11.428  10.294   1.964 -0.8704 -0.1486 -0.7055
  936MOL0     H23535  11.172  10.304   1.948  1.5471  0.4576  3.2202
  936MOL0     H23536  10.823  10.646   1.867  1.3944 -1.4878  0.4061
  936MOL0     H23537  10.563  10.674   1.861  2.6738  0.7522  0.7872
  936MOL0     H23538   8.789  10.353   1.431  0.9728  1.2583 -0.4639
  936MOL0     H23539   8.550  10.310   1.390 -1.4908  0.1752  1.8506
  936MOL0     H23540   8.088  10.712   1.492  0.9189 -0.8743  0.7468
  936MOL0     H23541   7.835  10.676   1.521 -0.3938  0.2559 -0.4667
  936MOL0     H23542   7.645  10.560   1.370  1.6792  1.1679  1.1425
  936MOL0     H23543   7.629  10.612   1.524 -2.2994  0.0979 -0.2715
  936MOL0     H23544   7.476  10.361   1.450 -1.3596  0.9084  0.2057
  936MOL0     H23545   7.467  10.463   1.591  0.5959 -0.2029  0.9711
  936MOL0     H23546   7.283  10.508   1.394  0.2773  1.9354 -4.5183
  936MOL0     H23547   7.426  10.573   1.307 -1.6856  3.9077 -1.2424
  936MOL0     H23548   7.456  10.751   1.483 -0.6960  0.7443  3.2004
  936MOL0     H23549   7.285  10.747   1.407 -1.3567 -0.4724  2.1169
  936MOL0     H23550   7.230  10.703   1.818 -1.9124  1.2175 -0.7032
  936MOL0     H23551   7.912  10.251   1.460  2.7732 -0.6284 -3.5704
  936MOL0     H23552   8.146  10.297   1.450  0.8951 -0.6651  0.0288
  937MOL0     O23553   3.764   4.898   7.550 -0.4444 -0.2064 -0.0271
  937MOL0     C23554   3.798   4.889   7.670  1.2127 -0.2896 -1.0082
  937MOL0     O23555   3.709   4.885   7.775  0.2712  0.3503  0.3741
  937MOL0     C23556   3.576   4.884   7.757  0.5310 -0.0794  0.2720
  937MOL0     C23557   3.495   4.980   7.822  0.4121 -0.1945  0.7441
  937MOL0     C23558   3.354   4.962   7.819  0.1946 -0.1216  0.3266
  937MOL0     C23559   3.296   4.856   7.747  0.3554  0.5318  0.3704
  937MOL0     O23560   3.154   4.852   7.735  0.1169  0.6372 -0.0158
  937MOL0     C23561   3.098   4.860   7.604 -0.5470 -0.0047 -0.0821
  937MOL0     C23562   2.949   4.852   7.604  0.0790  0.1153  1.2325
  937MOL0     C23563   2.894   4.726   7.641 -0.5212 -0.9279 -0.1647
  937MOL0     C23564   2.739   4.727   7.647  0.3203  0.2849  0.0930
  937MOL0     C23565   2.674   4.597   7.695 -0.1119 -0.2409  0.0040
  937MOL0     C23566   2.522   4.611   7.741  0.1053  0.8448  0.4721
  937MOL0     C23567   2.465   4.474   7.792 -0.6879  0.3687 -0.3612
  937MOL0     C23568   2.506   4.445   7.939 -0.7585 -0.4805 -0.3539
  937MOL0     N23569   2.481   4.303   7.958  0.0111 -1.1254  0.4638
  937MOL0     C23570   2.367   4.243   7.956 -0.4050 -0.7514  0.7526
  937MOL0     C23571   2.380   4.114   7.992 -0.2116  0.2792 -0.3420
  937MOL0     C23572   2.263   4.017   8.002  0.2217  0.4959  0.3951
  937MOL0     C23573   2.194   4.022   8.133 -0.3754 -0.1133  1.2242
  937MOL0     C23574   2.078   3.913   8.140  0.0830 -0.1148  0.4542
  937MOL0     C23575   1.974   3.931   8.029 -0.3706  1.3335  0.6533
  937MOL0     O23576   2.000   3.825   7.929  0.2107  0.7813  1.2796
  937MOL0     C23577   1.940   3.833   7.803 -0.0475  0.5669 -0.0457
  937MOL0     C23578   1.977   3.743   7.706  0.5119  0.0109  0.3178
  937MOL0     C23579   1.917   3.743   7.577 -0.5071  0.8421 -0.4494
  937MOL0     C23580   1.812   3.830   7.541  0.6705  0.4499 -0.2771
  937MOL0     C23581   1.745   3.808   7.408  1.4653  0.2660  0.2282
  937MOL0     O23582   1.631   3.886   7.390  0.3788  0.5689 -0.1060
  937MOL0     C23583   1.573   3.885   7.268 -0.9444 -0.7095 -0.1059
  937MOL0     C23584   1.616   3.955   7.155 -0.3024 -0.6408 -0.2291
  937MOL0     C23585   1.548   3.951   7.029  0.2361  0.9712  0.3589
  937MOL0     C23586   1.432   3.863   7.015  0.3868  0.3006 -0.3205
  937MOL0     O23587   1.355   3.838   6.900  0.7486  0.3896  0.6816
  937MOL0     C23588   1.409   3.870   6.769  0.1080  0.1395 -0.2222
  937MOL0     C23589   1.503   3.753   6.723 -0.7940 -0.7898 -0.2912
  937MOL0     C23590   1.437   3.625   6.670 -0.1366  0.4103 -0.1661
  937MOL0     C23591   1.340   3.660   6.554 -0.0659  0.3086 -1.5815
  937MOL0     C23592   1.309   3.535   6.458  0.0297 -0.8463 -0.2280
  937MOL0     C23593   1.164   3.538   6.415  0.4807  0.5862  0.6396
  937MOL0     C23594   1.146   3.652   6.317  0.4124 -0.6601  0.4796
  937MOL0     C23595   0.990   3.674   6.286 -0.7412  0.4583  0.0639
  937MOL0    Cl23596   0.909   3.538   6.194 -0.2122  0.6440 -0.4152
  937MOL0     C23597   1.388   3.800   7.135  0.2330 -0.4874  0.3984
  937MOL0     C23598   1.451   3.819   7.259  0.0080  0.6180 -0.3428
  937MOL0     O23599   1.791   3.721   7.325 -0.8809 -0.3888  0.4055
  937MOL0     C23600   1.775   3.925   7.639  0.2159  0.4435  0.8855
  937MOL0     C23601   1.845   3.930   7.766  0.2675 -0.2282  0.4704
  937MOL0     N23602   2.519   4.099   8.022 -1.1913 -0.9461  0.7162
  937MOL0     N23603   2.571   4.208   8.003 -0.7096 -0.2489  0.0624
  937MOL0     C23604   3.378   4.761   7.686 -0.3451  0.3619  0.6163
  937MOL0     C23605   3.517   4.778   7.691  0.0906  0.2335  0.4821
  937MOL0     C23606   3.933   4.923   7.711 -0.3248 -0.7488 -0.1310
  937MOL0     C23607   3.978   4.910   7.840 -0.6833 -0.1939  0.4469
  937MOL0     C23608   4.113   4.915   7.873  0.7196 -0.2398 -0.5220
  937MOL0     C23609   4.200   4.951   7.773 -0.9502  0.1500 -1.0388
  937MOL0     O23610   4.328   4.976   7.812 -0.1694  0.1340 -0.3275
  937MOL0     C23611   4.431   4.982   7.708 -0.0334 -1.1247 -0.0618
  937MOL0     C23612   4.570   4.970   7.755 -0.0509 -0.2021  0.0903
  937MOL0     C23613   4.596   4.844   7.840  0.0363 -0.3909 -0.5726
  937MOL0     C23614   4.739   4.825   7.880 -1.0048  0.4258  0.7354
  937MOL0     C23615   4.761   4.683   7.919 -1.0341  0.0146  1.5705
  937MOL0     C23616   4.786   4.569   7.953  0.6674 -0.0886  0.5524
  937MOL0     C23617   4.156   4.979   7.649  0.1052 -0.4441 -0.3355
  937MOL0     C23618   4.024   4.962   7.611  0.5772  0.1117 -0.5710
  937MOL0     H23619   3.539   5.066   7.872  0.8106  1.2061 -1.8457
  937MOL0     H23620   3.275   5.028   7.853 -2.1033 -0.8831 -2.9932
  937MOL0     H23621   3.134   4.790   7.528 -5.1834 -0.0786 -2.5622
  937MOL0     H23622   3.122   4.958   7.564  2.0000 -0.7254 -0.5085
  937MOL0     H23623   2.903   4.886   7.511 -0.4598 -2.5847  0.4289
  937MOL0     H23624   2.912   4.931   7.670  0.9920 -0.4439  2.4461
  937MOL0     H23625   2.919   4.698   7.744 -1.7217 -0.7077  0.1952
  937MOL0     H23626   2.924   4.651   7.567 -2.6418 -0.1042 -1.9575
  937MOL0     H23627   2.696   4.804   7.712 -2.2369 -1.2006  0.2977
  937MOL0     H23628   2.705   4.742   7.544  0.7353  1.8000  0.1517
  937MOL0     H23629   2.731   4.551   7.777 -0.1420  0.0156  0.1688
  937MOL0     H23630   2.679   4.528   7.611  0.4789  0.0104 -0.1703
  937MOL0     H23631   2.461   4.646   7.658 -1.1623  0.9157  1.4014
  937MOL0     H23632   2.498   4.678   7.824 -3.4049 -1.2845  1.3600
  937MOL0     H23633   2.356   4.462   7.783 -0.4423 -0.4822 -3.8699
  937MOL0     H23634   2.496   4.390   7.729 -1.9842 -1.1003  0.8810
  937MOL0     H23635   2.460   4.503   8.020 -0.9083 -1.1045  0.0155
  937MOL0     H23636   2.614   4.456   7.951 -0.9864  1.7597  0.1398
  937MOL0     H23637   2.274   4.292   7.929  0.0889 -0.7677 -1.1591
  937MOL0     H23638   2.298   3.918   7.971 -2.1853 -0.3028  0.0404
  937MOL0     H23639   2.183   4.044   7.933 -0.4564  0.7336  1.2726
  937MOL0     H23640   2.149   4.121   8.134 -0.5304 -0.1115 -0.8771
  937MOL0     H23641   2.268   4.017   8.213  2.7979  0.6482 -1.4595
  937MOL0     H23642   2.118   3.812   8.142 -1.6739 -0.8340  2.0977
  937MOL0     H23643   2.030   3.931   8.237 -0.0923 -3.2509  1.0575
  937MOL0     H23644   1.984   4.037   8.004 -1.2480  2.5903  4.8041
  937MOL0     H23645   1.874   3.920   8.072 -0.4286  1.4896  0.5602
  937MOL0     H23646   2.049   3.671   7.743  1.8584  0.6173 -1.0018
  937MOL0     H23647   1.955   3.666   7.511  1.6205  3.0746 -2.0652
  937MOL0     H23648   1.712   4.006   7.160  0.1774 -0.9829 -3.5020
  937MOL0     H23649   1.595   4.003   6.947  0.2018 -1.6990 -1.4811
  937MOL0     H23650   1.470   3.962   6.765 -1.5209  1.3019  0.5622
  937MOL0     H23651   1.323   3.893   6.706  0.2044  2.3148  0.3369
  937MOL0     H23652   1.576   3.726   6.800  1.2318  1.2936 -1.3653
  937MOL0     H23653   1.561   3.791   6.638 -0.2052 -0.7155  0.1415
  937MOL0     H23654   1.380   3.590   6.756 -1.8878  0.4684 -1.2407
  937MOL0     H23655   1.524   3.566   6.640  0.0875  1.9691 -3.0014
  937MOL0     H23656   1.248   3.693   6.601  0.1894  1.1052 -1.6304
  937MOL0     H23657   1.370   3.744   6.491  0.3474  0.4084 -1.2543
  937MOL0     H23658   1.329   3.445   6.518  1.2448 -1.4258 -1.4517
  937MOL0     H23659   1.381   3.536   6.376 -1.0921 -2.2077 -1.2829
  937MOL0     H23660   1.097   3.553   6.500  0.0809  0.7615  0.2989
  937MOL0     H23661   1.145   3.440   6.369  0.0723  0.8951  0.1363
  937MOL0     H23662   1.181   3.746   6.360  0.5534 -0.9101  0.9291
  937MOL0     H23663   1.198   3.638   6.222 -0.8003  1.4132 -0.5546
  937MOL0     H23664   0.977   3.757   6.216 -5.3186 -2.0322 -2.5017
  937MOL0     H23665   0.930   3.697   6.374 -0.7775 -1.0638  0.4695
  937MOL0     H23666   1.308   3.729   7.119  0.0160  0.3053 -2.5321
  937MOL0     H23667   1.407   3.770   7.346  0.6993  1.3035  0.4178
  937MOL0     H23668   1.690   3.991   7.626 -0.6883 -0.4582  1.9542
  937MOL0     H23669   1.816   4.012   7.831  0.8329  0.5871 -0.2852
  937MOL0     H23670   3.321   4.691   7.626 -3.6947  2.3874  1.1248
  937MOL0     H23671   3.594   4.713   7.651  0.5759  0.2390  1.3625
  937MOL0     H23672   3.916   4.873   7.921 -2.4037 -0.6595 -1.0095
  937MOL0     H23673   4.146   4.896   7.975 -1.6829  1.8256  0.7513
  937MOL0     H23674   4.430   5.075   7.650  2.9106  1.0690  3.0062
  937MOL0     H23675   4.415   4.903   7.633 -2.4555  0.3139 -1.1672
  937MOL0     H23676   4.631   4.972   7.665 -0.3734  0.0809 -0.1263
  937MOL0     H23677   4.598   5.060   7.810  1.7160 -0.5764 -0.1524
  937MOL0     H23678   4.558   4.753   7.792 -0.9381  1.1319 -2.8666
  937MOL0     H23679   4.545   4.861   7.935  2.3066  1.4212  0.4234
  937MOL0     H23680   4.798   4.849   7.791 -1.3501 -2.6660 -0.4587
  937MOL0     H23681   4.782   4.890   7.956  2.9595  1.8061 -2.3664
  937MOL0     H23682   4.811   4.469   7.982  3.2797  0.2146 -0.4111
  937MOL0     H23683   4.217   5.032   7.577  0.8000  0.3105  0.7842
  937MOL0     H23684   3.989   4.993   7.514 -0.3204  0.5211 -0.1229
  938MOL0     O23685   2.320   8.678   6.673  0.3660  0.0264 -0.1729
  938MOL0     C23686   2.296   8.769   6.597  0.4111 -0.5697  0.3251
  938MOL0     O23687   2.175   8.803   6.559  0.2523 -0.1438 -0.3042
  938MOL0     C23688   2.067   8.728   6.602 -0.0340 -0.3344 -0.3569
  938MOL0     C23689   2.005   8.779   6.720 -0.2220 -0.9563 -0.5821
  938MOL0     C23690   1.897   8.719   6.776  0.1878  0.8703  0.5400
  938MOL0     C23691   1.826   8.618   6.701 -0.5104 -0.1419  0.2934
  938MOL0     O23692   1.714   8.567   6.755  0.4913 -0.5040 -0.6809
  938MOL0     C23693   1.600   8.621   6.684 -0.5565 -0.1498  0.3271
  938MOL0     C23694   1.479   8.595   6.778 -0.2008 -0.5575 -0.1236
  938MOL0     C23695   1.361   8.670   6.705 -0.3198 -0.9125 -0.1136
  938MOL0     C23696   1.240   8.631   6.780 -0.7557 -0.1725 -0.5250
  938MOL0     C23697   1.123   8.714   6.717 -0.0967  0.0145  0.4590
  938MOL0     C23698   0.981   8.687   6.781 -0.0407  0.4470  0.7604
  938MOL0     C23699   0.943   8.535   6.762 -0.1108 -0.4010 -0.5748
  938MOL0     C23700   0.803   8.499   6.825  0.2369 -0.1524  0.1049
  938MOL0     N23701   0.733   8.386   6.753 -1.1662 -0.3844 -0.3605
  938MOL0     C23702   0.641   8.401   6.655  0.3017  0.5110 -0.2322
  938MOL0     C23703   0.608   8.273   6.611  0.3497 -0.8035  0.1875
  938MOL0     C23704   0.502   8.244   6.502  0.7706 -0.0855  0.1078
  938MOL0     C23705   0.354   8.262   6.541 -0.0186 -0.2817 -0.1501
  938MOL0     C23706   0.258   8.183   6.452  0.2443 -0.2855  0.7452
  938MOL0     C23707   0.111   8.207   6.485 -1.4974  0.4872 -0.0184
  938MOL0     O23708   0.076   8.347   6.477 -0.2559 -0.1368  0.2177
  938MOL0     C23709  -0.051   8.390   6.456 -1.2658  0.1317  0.4156
  938MOL0     C23710  -0.068   8.531   6.451 -0.8965  0.2570 -1.1610
  938MOL0     C23711  -0.189   8.588   6.409 -0.0215  0.1145  0.1032
  938MOL0     C23712  -0.300   8.509   6.378  0.7849  0.0140 -0.2729
  938MOL0     C23713  -0.431   8.562   6.336  0.8826  1.3090  0.3018
  938MOL0     O23714  -0.513   8.464   6.280  0.4745  0.1831 -0.0244
  938MOL0     C23715  -0.642   8.483   6.231 -0.1082 -0.6077  0.4258
  938MOL0     C23716  -0.684   8.382   6.151  0.6070  0.5201  0.9390
  938MOL0     C23717  -0.813   8.380   6.097 -0.6427 -0.3739 -0.5375
  938MOL0     C23718  -0.906   8.485   6.123 -0.2919 -0.9027 -0.3004
  938MOL0     O23719  -1.033   8.501   6.067 -0.5368  0.3428 -0.2219
  938MOL0     C23720  -1.085   8.390   6.006 -0.3577  0.3023 -0.1068
  938MOL0     C23721  -1.232   8.423   5.961  0.2445  0.0784 -0.5155
  938MOL0     C23722  -1.239   8.471   5.817 -0.0566 -0.4171 -0.6241
  938MOL0     C23723  -1.382   8.490   5.761 -0.3569 -0.0216  0.3246
  938MOL0     C23724  -1.389   8.551   5.618  0.1554  0.3186 -0.4766
  938MOL0     C23725  -1.337   8.467   5.503 -0.1994  0.6268 -0.3069
  938MOL0     C23726  -1.396   8.519   5.370  0.3325  0.0909 -0.1611
  938MOL0     C23727  -1.314   8.463   5.242 -0.6814 -0.5060 -0.3339
  938MOL0    Cl23728  -1.392   8.520   5.101 -0.0492  0.0719 -0.2068
  938MOL0     C23729  -0.861   8.586   6.209 -0.4099  0.8708 -0.5521
  938MOL0     C23730  -0.731   8.582   6.263  0.4992 -0.3784 -0.2725
  938MOL0     O23731  -0.454   8.681   6.342 -0.2772 -0.0336  0.8777
  938MOL0     C23732  -0.276   8.367   6.379  0.0062  0.2481  0.3970
  938MOL0     C23733  -0.154   8.311   6.403 -1.1824 -0.5282  0.6979
  938MOL0     N23734   0.693   8.185   6.677  0.4396 -0.6682  0.5351
  938MOL0     N23735   0.762   8.251   6.761  0.6100  0.2149  0.3221
  938MOL0     C23736   1.876   8.580   6.571 -0.2259  0.6628 -0.3625
  938MOL0     C23737   1.998   8.628   6.524  0.8097  0.1605 -1.2535
  938MOL0     C23738   2.413   8.849   6.557  0.8925 -0.2877 -0.7037
  938MOL0     C23739   2.545   8.804   6.569  0.8868  0.3434 -1.2157
  938MOL0     C23740   2.661   8.883   6.532  0.5203 -0.9310 -0.3484
  938MOL0     C23741   2.641   9.019   6.484  0.4667  0.5897  0.4207
  938MOL0     O23742   2.737   9.112   6.458  0.5031  0.1518  0.6513
  938MOL0     C23743   2.871   9.081   6.480 -0.2077  0.2149  0.5738
  938MOL0     C23744   2.968   9.206   6.471  1.0243  0.3362  0.6534
  938MOL0     C23745   2.923   9.326   6.560 -0.1625  0.7900  0.0611
  938MOL0     C23746   3.004   9.456   6.531  0.1911 -0.4438 -0.2467
  938MOL0     C23747   3.151   9.449   6.551  0.3023  0.3684  0.6460
  938MOL0     C23748   3.270   9.438   6.556  0.0256  0.0529 -0.6180
  938MOL0     C23749   2.506   9.070   6.494  0.5508  0.4558  0.9089
  938MOL0     C23750   2.399   8.988   6.524  0.3148  0.5563 -0.0889
  938MOL0     H23751   2.059   8.858   6.772 -1.4133  0.6214 -1.6231
  938MOL0     H23752   1.843   8.754   6.863 -0.9949  2.6204 -0.8281
  938MOL0     H23753   1.585   8.583   6.583  0.6157 -0.0807  0.1222
  938MOL0     H23754   1.607   8.730   6.681  0.3328 -0.2178 -1.7555
  938MOL0     H23755   1.500   8.635   6.878  0.3090 -3.9759  1.2812
  938MOL0     H23756   1.469   8.486   6.786  1.4543 -0.7598 -0.4543
  938MOL0     H23757   1.346   8.644   6.600  0.1989  1.6418 -0.8738
  938MOL0     H23758   1.361   8.779   6.704 -0.3911 -0.9117 -0.9400
  938MOL0     H23759   1.224   8.523   6.774  4.6699 -1.2320 -1.0840
  938MOL0     H23760   1.243   8.667   6.884 -5.9264  1.2486 -0.5992
  938MOL0     H23761   1.118   8.695   6.609  0.4967 -1.0606  0.6065
  938MOL0     H23762   1.136   8.822   6.726 -1.0143  0.0489  1.6091
  938MOL0     H23763   0.908   8.742   6.721 -0.2103 -1.5854 -1.0375
  938MOL0     H23764   0.987   8.712   6.887 -0.1532 -1.8903  1.3694
  938MOL0     H23765   0.943   8.521   6.654  3.5909 -1.6768 -0.5585
  938MOL0     H23766   1.023   8.470   6.800  0.1820  1.6797  2.7906
  938MOL0     H23767   0.738   8.587   6.816 -3.7323 -2.5044  2.4872
  938MOL0     H23768   0.832   8.490   6.930  1.1911  0.7019 -0.0734
  938MOL0     H23769   0.597   8.493   6.617 -1.1267  1.1551  2.6521
  938MOL0     H23770   0.517   8.138   6.477 -0.0748 -0.6349  1.7459
  938MOL0     H23771   0.520   8.305   6.413 -0.6936 -0.4517 -0.4686
  938MOL0     H23772   0.332   8.369   6.549  0.7518 -0.2062  1.2951
  938MOL0     H23773   0.344   8.223   6.643  0.9961  3.7964  1.6907
  938MOL0     H23774   0.267   8.195   6.343 -0.8805 -0.1980  0.6501
  938MOL0     H23775   0.287   8.079   6.469  1.2932 -0.0713  0.3318
  938MOL0     H23776   0.074   8.166   6.580 -1.8964 -1.6594 -1.0584
  938MOL0     H23777   0.052   8.143   6.419 -1.9553  0.3939  0.4691
  938MOL0     H23778   0.015   8.590   6.488  0.0593 -2.2689  1.0945
  938MOL0     H23779  -0.195   8.694   6.432  0.8123 -0.1700  1.8233
  938MOL0     H23780  -0.620   8.296   6.136  1.2044  1.1010  0.1049
  938MOL0     H23781  -0.843   8.298   6.032 -0.5038 -0.1432 -0.8980
  938MOL0     H23782  -1.097   8.308   6.078 -1.1348 -1.4206 -2.1005
  938MOL0     H23783  -1.025   8.351   5.923 -1.6562  1.1881 -1.5213
  938MOL0     H23784  -1.272   8.493   6.035 -0.6824 -0.7591 -0.1934
  938MOL0     H23785  -1.296   8.334   5.953  0.8171 -0.1601 -3.1625
  938MOL0     H23786  -1.178   8.407   5.753  0.7537 -0.5597  0.2622
  938MOL0     H23787  -1.177   8.562   5.819 -0.3965 -0.1901  0.1265
  938MOL0     H23788  -1.430   8.393   5.775  0.0048  0.0250  2.0399
  938MOL0     H23789  -1.436   8.564   5.821  2.3939  1.9756  0.5551
  938MOL0     H23790  -1.342   8.649   5.620  0.6656  0.1069  2.8891
  938MOL0     H23791  -1.497   8.562   5.602  0.5978  2.4860 -2.4645
  938MOL0     H23792  -1.359   8.361   5.521  2.6544  0.3238  2.2828
  938MOL0     H23793  -1.228   8.472   5.499 -0.2820  2.5748 -0.9963
  938MOL0     H23794  -1.498   8.481   5.359  1.5838 -3.6574 -0.5850
  938MOL0     H23795  -1.393   8.628   5.362 -0.9831  0.2079  0.7182
  938MOL0     H23796  -1.325   8.354   5.244 -0.3222 -0.5673 -1.1646
  938MOL0     H23797  -1.207   8.487   5.242 -1.1379  2.2914  3.0925
  938MOL0     H23798  -0.926   8.663   6.249 -0.1433  0.5180  0.5873
  938MOL0     H23799  -0.699   8.665   6.326 -0.9584  0.3787 -0.4615
  938MOL0     H23800  -0.349   8.298   6.339 -0.1544  0.4726  0.2970
  938MOL0     H23801  -0.129   8.208   6.380  1.8242 -0.1992  2.0309
  938MOL0     H23802   1.814   8.524   6.502  1.0117 -0.7174 -0.4139
  938MOL0     H23803   2.038   8.604   6.426 -1.0885 -1.2737 -1.7216
  938MOL0     H23804   2.563   8.702   6.601 -2.7319 -0.6738 -1.9354
  938MOL0     H23805   2.760   8.839   6.543  0.0828 -1.6569  0.9826
  938MOL0     H23806   2.900   8.998   6.415 -2.0099  0.0953 -0.1294
  938MOL0     H23807   2.883   9.042   6.582  0.0871 -0.8459  0.1507
  938MOL0     H23808   3.068   9.178   6.503  1.1759  0.4421  0.2874
  938MOL0     H23809   2.977   9.243   6.368  2.4983 -0.0165  0.6338
  938MOL0     H23810   2.933   9.306   6.667  2.1893 -1.5738 -0.5001
  938MOL0     H23811   2.816   9.341   6.543 -0.6712 -0.9033  1.4015
  938MOL0     H23812   2.984   9.487   6.428 -0.6561  0.4156  0.1528
  938MOL0     H23813   2.959   9.530   6.598 -0.0192 -1.4369  0.7429
  938MOL0     H23814   3.376   9.446   6.571 -0.3610  0.4468  2.6872
  938MOL0     H23815   2.509   9.178   6.491  1.3014  0.4454 -2.2905
  938MOL0     H23816   2.297   9.022   6.541 -0.7907 -3.3019  2.3175
  939MOL0     O23817   5.987   4.351   9.910 -0.9262 -0.4224 -0.8158
  939MOL0     C23818   6.089   4.422   9.893  1.1886 -0.4211 -0.1268
  939MOL0     O23819   6.105   4.523   9.797 -0.2773 -0.1523  0.4499
  939MOL0     C23820   6.000   4.554   9.721  0.9662 -0.0675  0.7676
  939MOL0     C23821   5.861   4.551   9.762 -0.7967 -0.1599 -0.9536
  939MOL0     C23822   5.762   4.574   9.670 -0.0357  0.8661  0.8895
  939MOL0     C23823   5.793   4.603   9.536  0.1287 -0.2205  0.1981
  939MOL0     O23824   5.679   4.613   9.451 -0.2515 -0.3515  0.1263
  939MOL0     C23825   5.712   4.622   9.307 -0.6879  0.7761 -0.1863
  939MOL0     C23826   5.591   4.652   9.210  0.1557 -0.2130  0.1424
  939MOL0     C23827   5.495   4.525   9.225 -1.0779 -0.8581  0.2501
  939MOL0     C23828   5.368   4.526   9.136 -0.6554 -0.2922  1.3251
  939MOL0     C23829   5.355   4.404   9.053 -0.6209  0.5262  0.9147
  939MOL0     C23830   5.218   4.373   8.983 -0.2346  0.1944  0.5322
  939MOL0     C23831   5.091   4.356   9.074  0.0073  0.3480 -0.3390
  939MOL0     C23832   5.092   4.227   9.140 -0.7034  0.6563 -0.6112
  939MOL0     N23833   5.055   4.110   9.054 -0.1607  0.0755  0.2134
  939MOL0     C23834   4.963   4.112   8.952  0.6942 -0.2508  0.0155
  939MOL0     C23835   4.968   3.992   8.902 -0.3434 -0.4647 -0.6243
  939MOL0     C23836   4.896   3.928   8.785  0.6041  0.1514 -0.8926
  939MOL0     C23837   4.739   3.929   8.799  0.6477 -0.6103 -0.1172
  939MOL0     C23838   4.687   3.871   8.672 -0.5272 -0.9232 -0.1373
  939MOL0     C23839   4.539   3.833   8.684 -0.7476  0.1355 -1.0987
  939MOL0     O23840   4.487   3.798   8.550 -0.2290 -0.0309 -0.8054
  939MOL0     C23841   4.361   3.751   8.532  0.2594  0.4836  0.0061
  939MOL0     C23842   4.320   3.693   8.408 -0.2043  0.8693 -0.3993
  939MOL0     C23843   4.199   3.643   8.383  0.4188  1.1121  0.1179
  939MOL0     C23844   4.090   3.652   8.476 -0.9560  0.5115  0.5849
  939MOL0     C23845   3.962   3.596   8.444 -0.1376  0.9298  0.0133
  939MOL0     O23846   3.853   3.625   8.532 -0.4189  1.0431 -0.8239
  939MOL0     C23847   3.733   3.557   8.529  0.1057 -0.0187  0.4012
  939MOL0     C23848   3.625   3.621   8.467  0.6283 -0.7121 -0.4616
  939MOL0     C23849   3.495   3.576   8.493  0.0540  0.2536 -0.5250
  939MOL0     C23850   3.472   3.447   8.548 -0.0072  0.6603  0.2603
  939MOL0     O23851   3.343   3.401   8.576  0.4284  0.0258  0.2817
  939MOL0     C23852   3.316   3.257   8.573  0.1749 -0.3877  0.4260
  939MOL0     C23853   3.164   3.218   8.576  0.3909 -0.0492  0.1987
  939MOL0     C23854   3.146   3.075   8.514  0.5047 -0.5771  0.4328
  939MOL0     C23855   2.999   3.056   8.470  0.2650 -0.1982 -0.8323
  939MOL0     C23856   2.969   2.907   8.440  0.1097 -0.7631 -0.3558
  939MOL0     C23857   2.842   2.858   8.502 -0.4122 -0.5809  0.4203
  939MOL0     C23858   2.817   2.712   8.460  0.0003  0.2705  0.2535
  939MOL0     C23859   2.731   2.703   8.333 -0.4228  0.0588 -0.8480
  939MOL0    Cl23860   2.564   2.733   8.369  0.2251  0.2308 -0.5506
  939MOL0     C23861   3.586   3.373   8.585 -0.3569 -0.3365 -0.2856
  939MOL0     C23862   3.712   3.434   8.582 -0.5154  0.0295 -0.2913
  939MOL0     O23863   3.957   3.517   8.345 -0.1304 -0.4847 -0.3044
  939MOL0     C23864   4.126   3.705   8.600 -0.4177 -0.3733 -0.5583
  939MOL0     C23865   4.260   3.755   8.627  1.8373 -0.8760  0.8470
  939MOL0     N23866   5.075   3.921   8.961 -0.3133 -0.1108 -0.2367
  939MOL0     N23867   5.121   3.988   9.053  0.7025  0.0756 -1.0354
  939MOL0     C23868   5.931   4.606   9.490 -0.8697  0.4587 -1.6501
  939MOL0     C23869   6.033   4.584   9.586  0.1984 -0.7368  0.9252
  939MOL0     C23870   6.213   4.401   9.970  0.3970 -0.6063  0.2618
  939MOL0     C23871   6.327   4.479   9.954 -0.3197 -0.3208 -0.1998
  939MOL0     C23872   6.447   4.448  10.012  0.4307 -0.9119  0.3756
  939MOL0     C23873   6.459   4.337  10.103  0.1106  0.4962 -0.6465
  939MOL0     O23874   6.582   4.319  10.155 -0.0606  0.6419 -0.2062
  939MOL0     C23875   6.640   4.187  10.164  0.3763 -0.6330 -0.2266
  939MOL0     C23876   6.791   4.199  10.200 -0.0823  0.0500 -0.8073
  939MOL0     C23877   6.846   4.053  10.222  0.3301  0.2460  0.6875
  939MOL0     C23878   6.990   4.065  10.268  0.2548  0.6338 -0.6669
  939MOL0     C23879   7.051   3.930  10.282  0.0665 -0.4958  0.6364
  939MOL0     C23880   7.110   3.823  10.293 -0.0809 -0.1556  0.1846
  939MOL0     C23881   6.345   4.258  10.114 -0.0339 -1.0130 -0.1054
  939MOL0     C23882   6.224   4.284  10.046 -0.8461 -0.6685  0.2062
  939MOL0     H23883   5.826   4.531   9.863  0.1963  0.2080 -0.5302
  939MOL0     H23884   5.657   4.563   9.693 -0.2244 -0.6925 -0.4823
  939MOL0     H23885   5.759   4.530   9.270 -1.7132  1.5900 -3.9853
  939MOL0     H23886   5.794   4.690   9.283 -0.3175  0.0246 -1.1480
  939MOL0     H23887   5.632   4.653   9.109  0.7664  1.1264  0.3803
  939MOL0     H23888   5.546   4.751   9.221 -0.9507 -0.4285 -2.0155
  939MOL0     H23889   5.441   4.541   9.319 -2.4507  0.9311 -0.7787
  939MOL0     H23890   5.555   4.434   9.228  1.2633  0.5301 -1.1442
  939MOL0     H23891   5.283   4.527   9.205 -1.7199  1.4908  0.0755
  939MOL0     H23892   5.363   4.613   9.070 -1.4007  0.4767  2.3791
  939MOL0     H23893   5.396   4.324   9.116 -2.1458  0.2184  1.5657
  939MOL0     H23894   5.429   4.412   8.972 -0.2248 -2.0804  0.9377
  939MOL0     H23895   5.219   4.279   8.927 -0.8813 -0.7631  2.0452
  939MOL0     H23896   5.189   4.457   8.919  0.7769 -0.5941 -1.0114
  939MOL0     H23897   5.100   4.435   9.149  1.9283 -1.5593  1.5816
  939MOL0     H23898   4.994   4.376   9.027  0.0525 -0.9801 -1.0548
  939MOL0     H23899   5.032   4.230   9.231  0.9796  3.0548  0.5165
  939MOL0     H23900   5.188   4.201   9.185 -0.4241  0.2783 -1.4026
  939MOL0     H23901   4.901   4.196   8.924  1.1765 -0.9541 -3.7977
  939MOL0     H23902   4.932   3.827   8.765 -1.9355 -1.8260  3.1860
  939MOL0     H23903   4.913   3.991   8.697  0.4210  2.1553  0.4318
  939MOL0     H23904   4.695   4.024   8.830 -0.1612 -1.4035  1.2839
  939MOL0     H23905   4.720   3.860   8.882 -0.7557 -1.0364 -0.7517
  939MOL0     H23906   4.690   3.954   8.600 -1.2495 -0.8969 -0.1484
  939MOL0     H23907   4.741   3.786   8.630 -3.6056 -0.9270 -4.9751
  939MOL0     H23908   4.493   3.926   8.717 -1.1366 -0.5458  0.3778
  939MOL0     H23909   4.520   3.752   8.755 -2.2588  0.3234 -1.2673
  939MOL0     H23910   4.395   3.670   8.332  1.6832  0.6694  1.4229
  939MOL0     H23911   4.187   3.606   8.282  3.9974  1.3909 -0.5356
  939MOL0     H23912   3.643   3.720   8.426 -3.1669  0.8566  1.1788
  939MOL0     H23913   3.406   3.635   8.475 -0.3873  0.4097  1.8764
  939MOL0     H23914   3.377   3.203   8.645  2.7125 -1.6082 -2.4402
  939MOL0     H23915   3.356   3.220   8.478  0.0408  1.7771 -0.5389
  939MOL0     H23916   3.111   3.286   8.508 -0.3515  2.8462  3.4038
  939MOL0     H23917   3.121   3.222   8.676 -1.5138 -0.1396 -0.5766
  939MOL0     H23918   3.168   3.004   8.594 -1.6748  0.2616  1.8582
  939MOL0     H23919   3.204   3.056   8.423 -0.8056 -2.7061 -0.0382
  939MOL0     H23920   2.932   3.076   8.554 -2.6494  1.0783 -3.2960
  939MOL0     H23921   2.962   3.130   8.399 -0.1974  0.7005  0.3046
  939MOL0     H23922   3.057   2.847   8.466  0.2253 -0.2658  0.4175
  939MOL0     H23923   2.968   2.888   8.332  2.3731 -2.3119 -0.1894
  939MOL0     H23924   2.757   2.921   8.473  0.8289 -0.0890 -2.4438
  939MOL0     H23925   2.857   2.857   8.610  0.0369  1.5512  0.4345
  939MOL0     H23926   2.910   2.660   8.437 -0.9829 -1.1127 -0.7931
  939MOL0     H23927   2.772   2.656   8.544 -1.0263  0.0612 -0.4117
  939MOL0     H23928   2.744   2.601   8.294  0.8411  0.0608 -0.4780
  939MOL0     H23929   2.774   2.771   8.259  1.5091  0.0719  0.2202
  939MOL0     H23930   3.569   3.284   8.645  1.0904 -1.0386 -0.8802
  939MOL0     H23931   3.803   3.387   8.619 -0.6555  0.5722  0.7651
  939MOL0     H23932   4.052   3.690   8.679 -1.4159  3.4090 -0.5873
  939MOL0     H23933   4.271   3.797   8.727 -1.8704  2.2641  0.1822
  939MOL0     H23934   5.957   4.621   9.386 -2.7178 -0.3555 -2.2757
  939MOL0     H23935   6.135   4.584   9.551 -0.5238 -1.8913 -1.4251
  939MOL0     H23936   6.327   4.561   9.882  0.7249 -0.9033 -0.8955
  939MOL0     H23937   6.538   4.501   9.989  0.9924 -1.4641  1.2558
  939MOL0     H23938   6.641   4.140  10.066  0.7623  0.8300 -0.9540
  939MOL0     H23939   6.587   4.118  10.230  0.1512 -0.8424 -0.6205
  939MOL0     H23940   6.843   4.248  10.118  2.8502 -0.4271  0.6295
  939MOL0     H23941   6.810   4.253  10.294  0.5154  4.0734 -3.0235
  939MOL0     H23942   6.850   3.999  10.128 -0.1199 -1.7030  1.7293
  939MOL0     H23943   6.785   3.998  10.295  1.2235 -2.3773 -0.4388
  939MOL0     H23944   7.057   4.127  10.207  3.1520 -2.0238 -0.4425
  939MOL0     H23945   6.975   4.109  10.367 -0.1498 -1.1040  0.0862
  939MOL0     H23946   7.146   3.722  10.295  2.7857  0.7983  1.1200
  939MOL0     H23947   6.333   4.160  10.160 -2.1477 -1.0648 -0.6377
  939MOL0     H23948   6.144   4.211  10.058 -1.2430  0.1229  3.0619
  940MOL0     O23949   5.370  10.791   8.102 -0.4096 -0.0275 -0.3409
  940MOL0     C23950   5.310  10.716   8.015 -0.4642 -0.3453 -1.0500
  940MOL0     O23951   5.172  10.719   7.990  0.4997  0.1265  1.0097
  940MOL0     C23952   5.094  10.746   8.104  0.4115 -0.2475 -0.5132
  940MOL0     C23953   5.078  10.652   8.205  0.9667  0.9345  0.2335
  940MOL0     C23954   5.004  10.677   8.326 -0.6461 -0.0910  0.2580
  940MOL0     C23955   4.944  10.804   8.334 -0.2423  0.4409  0.0903
  940MOL0     O23956   4.868  10.846   8.442 -0.2501  0.8400 -0.3487
  940MOL0     C23957   4.789  10.744   8.507 -0.3314  0.7840  0.4935
  940MOL0     C23958   4.698  10.685   8.403 -0.1616  0.7727  0.3786
  940MOL0     C23959   4.617  10.594   8.493 -0.1990  0.0890 -0.6040
  940MOL0     C23960   4.513  10.512   8.404 -0.0464 -0.6917  0.3591
  940MOL0     C23961   4.407  10.438   8.496 -0.7142  0.6754 -0.0906
  940MOL0     C23962   4.367  10.312   8.433 -0.2740 -0.1934 -0.0219
  940MOL0     C23963   4.264  10.323   8.322 -0.5574  0.6117 -0.6109
  940MOL0     C23964   4.219  10.186   8.273 -0.2111 -0.5772 -0.4131
  940MOL0     N23965   4.105  10.188   8.182 -0.1561 -0.2943 -0.5352
  940MOL0     C23966   3.978  10.169   8.223  0.5502  0.8858 -0.0699
  940MOL0     C23967   3.914  10.112   8.118 -1.2268  1.1645  0.4328
  940MOL0     C23968   3.773  10.088   8.097  0.2699 -0.1327  0.4948
  940MOL0     C23969   3.728   9.940   8.123 -0.1980 -0.0189 -0.3420
  940MOL0     C23970   3.579   9.927   8.115  0.8962 -0.2833 -0.7543
  940MOL0     C23971   3.530   9.966   7.975  0.4351 -0.0786  0.1285
  940MOL0     O23972   3.391   9.931   7.968  0.3564 -0.7932 -0.0500
  940MOL0     C23973   3.339   9.900   7.848 -0.4807 -1.2282  0.5503
  940MOL0     C23974   3.393   9.951   7.722 -0.7001 -0.4002 -0.0070
  940MOL0     C23975   3.330   9.917   7.607 -1.2405 -0.2115  0.7007
  940MOL0     C23976   3.199   9.862   7.595  0.2323  0.5596  0.0336
  940MOL0     C23977   3.141   9.828   7.461  0.5611 -0.0203 -0.1217
  940MOL0     O23978   3.018   9.758   7.464  0.3205  0.3719 -0.6090
  940MOL0     C23979   2.957   9.724   7.347 -0.1493 -1.0659  0.2929
  940MOL0     C23980   2.822   9.755   7.327 -1.2098  0.1829  0.2996
  940MOL0     C23981   2.754   9.706   7.209 -0.5361 -0.5149  0.8828
  940MOL0     C23982   2.823   9.631   7.112 -0.8184  0.1341  0.3466
  940MOL0     O23983   2.758   9.583   7.005 -0.3031 -0.2445 -0.5591
  940MOL0     C23984   2.684   9.465   7.043 -0.3246  0.5823 -0.1690
  940MOL0     C23985   2.698   9.355   6.940  0.3822 -0.0874 -0.1508
  940MOL0     C23986   2.662   9.384   6.798  0.0760 -0.2701  0.1020
  940MOL0     C23987   2.510   9.426   6.793 -0.3482 -0.0208 -0.2135
  940MOL0     C23988   2.454   9.445   6.642 -0.3534 -0.1940  0.1956
  940MOL0     C23989   2.523   9.568   6.577 -0.1592  0.4322  0.6641
  940MOL0     C23990   2.486   9.574   6.427  0.1997 -0.5578 -0.7587
  940MOL0     C23991   2.565   9.466   6.354  0.1347 -0.4941  0.6999
  940MOL0    Cl23992   2.733   9.530   6.352 -0.0913  0.6503  0.1013
  940MOL0     C23993   2.957   9.601   7.135  0.0363 -0.0909 -0.3429
  940MOL0     C23994   3.016   9.634   7.263  0.9150 -0.3683 -0.0475
  940MOL0     O23995   3.209   9.828   7.359 -0.1059  0.1201 -0.6575
  940MOL0     C23996   3.141   9.828   7.719  0.4271  0.5091  0.3715
  940MOL0     C23997   3.204   9.853   7.844 -0.0098  0.2233 -0.2535
  940MOL0     N23998   4.005  10.105   8.013 -1.0025  0.0753  0.3442
  940MOL0     N23999   4.119  10.130   8.059 -1.0397 -0.4435 -0.3058
  940MOL0     C24000   4.950  10.893   8.221 -0.5128  0.6713 -0.0754
  940MOL0     C24001   5.018  10.863   8.103  0.4021  0.3167 -0.3088
  940MOL0     C24002   5.391  10.648   7.919 -0.2393  0.3536  0.3232
  940MOL0     C24003   5.350  10.542   7.835 -0.9192 -0.5550  0.0039
  940MOL0     C24004   5.434  10.460   7.764  0.1168  0.8374  0.3577
  940MOL0     C24005   5.572  10.480   7.770  0.2462 -0.3890 -0.1241
  940MOL0     O24006   5.659  10.390   7.709  0.4270 -0.2785  0.0521
  940MOL0     C24007   5.669  10.256   7.769 -0.2230 -0.8508  0.1719
  940MOL0     C24008   5.819  10.220   7.776  0.0684  0.1040 -0.2279
  940MOL0     C24009   5.897  10.306   7.873 -0.3933  0.3403 -0.2997
  940MOL0     C24010   6.031  10.230   7.882  0.0863 -0.1204 -0.1917
  940MOL0     C24011   6.125  10.320   7.956 -0.1662 -0.5686 -0.2913
  940MOL0     C24012   6.191  10.391   8.026 -0.2848  0.2369 -0.1587
  940MOL0     C24013   5.618  10.583   7.847 -0.1205  0.0356  0.2867
  940MOL0     C24014   5.532  10.669   7.915 -0.7786  0.6609  0.0936
  940MOL0     H24015   5.133  10.561   8.184  1.8334  1.5425 -0.1531
  940MOL0     H24016   4.992  10.599   8.401  1.4010 -1.9203 -1.2189
  940MOL0     H24017   4.730  10.796   8.583 -0.2216  0.3769  0.8617
  940MOL0     H24018   4.854  10.670   8.556 -1.9021 -1.1128 -0.1214
  940MOL0     H24019   4.753  10.637   8.322  1.1121  0.3216  1.4724
  940MOL0     H24020   4.634  10.766   8.368  2.2302  2.7013  0.2486
  940MOL0     H24021   4.559  10.662   8.556  1.2970  2.1803 -1.3736
  940MOL0     H24022   4.679  10.529   8.555 -0.9249  2.3660  2.8031
  940MOL0     H24023   4.464  10.581   8.335 -0.2112 -1.7729 -0.6155
  940MOL0     H24024   4.576  10.447   8.343  3.0967  1.6675  0.8237
  940MOL0     H24025   4.317  10.498   8.517 -1.3142 -0.2098 -0.0767
  940MOL0     H24026   4.455  10.422   8.593 -1.8083 -0.9491  0.2338
  940MOL0     H24027   4.315  10.266   8.517 -0.7966  2.1485  1.0023
  940MOL0     H24028   4.451  10.242   8.419 -0.8080 -1.0495  0.9099
  940MOL0     H24029   4.179  10.378   8.364  0.1971  1.1086  0.3198
  940MOL0     H24030   4.306  10.391   8.247  1.2950  1.2103  0.8947
  940MOL0     H24031   4.196  10.130   8.364  0.7753  1.9847  1.5482
  940MOL0     H24032   4.304  10.138   8.224 -0.9183 -0.5560 -1.7008
  940MOL0     H24033   3.927  10.204   8.313  1.9816 -0.7096  1.4388
  940MOL0     H24034   3.748  10.110   7.993  0.9434  1.6202  0.6667
  940MOL0     H24035   3.713  10.149   8.165 -1.2647 -0.3491 -0.5968
  940MOL0     H24036   3.749   9.906   8.225 -0.7942 -0.8976 -0.5040
  940MOL0     H24037   3.780   9.877   8.051  0.3069 -1.1433  0.9588
  940MOL0     H24038   3.539   9.827   8.134  2.1483 -1.1498 -2.3996
  940MOL0     H24039   3.536   9.992   8.192 -1.2029  0.6195 -2.5900
  940MOL0     H24040   3.596   9.942   7.891 -1.4370  2.5836 -2.3186
  940MOL0     H24041   3.533  10.076   7.972  0.2603 -0.0332  1.1266
  940MOL0     H24042   3.483  10.009   7.708 -2.5202  2.0190 -2.6955
  940MOL0     H24043   3.385   9.941   7.516 -2.1871  2.8370  0.8005
  940MOL0     H24044   2.771   9.820   7.398 -0.8409  0.9769 -0.1536
  940MOL0     H24045   2.648   9.719   7.190 -1.3911 -1.6803  4.1528
  940MOL0     H24046   2.579   9.492   7.050 -0.8050 -0.7746 -1.4460
  940MOL0     H24047   2.723   9.417   7.133  2.4415 -1.9910 -2.4940
  940MOL0     H24048   2.644   9.272   6.987  2.1275  0.1889  2.5415
  940MOL0     H24049   2.805   9.335   6.940  0.3076 -0.5021  0.2761
  940MOL0     H24050   2.694   9.289   6.753 -1.6628 -1.9083  2.0944
  940MOL0     H24051   2.721   9.472   6.773  0.4043 -1.4783 -4.1043
  940MOL0     H24052   2.437   9.352   6.826 -1.4809  0.9547 -0.4418
  940MOL0     H24053   2.500   9.521   6.847  2.3270  0.5606 -0.6277
  940MOL0     H24054   2.345   9.460   6.647 -0.7490 -2.2889 -1.1287
  940MOL0     H24055   2.475   9.357   6.581  4.4304  1.0174 -0.2989
  940MOL0     H24056   2.632   9.567   6.584 -0.0976 -1.3773 -0.0826
  940MOL0     H24057   2.491   9.657   6.633  0.1723  0.2094  1.2098
  940MOL0     H24058   2.381   9.548   6.415 -0.1564 -1.4421  2.8570
  940MOL0     H24059   2.513   9.666   6.375  2.1938 -0.1113  0.9219
  940MOL0     H24060   2.537   9.456   6.249 -0.1867 -0.7992  0.8119
  940MOL0     H24061   2.559   9.365   6.395 -2.0839 -0.8033 -0.2430
  940MOL0     H24062   3.016   9.546   7.063 -2.5500 -1.2960 -1.6485
  940MOL0     H24063   3.117   9.596   7.273  1.9095  1.7767 -1.4266
  940MOL0     H24064   3.039   9.793   7.733  0.3435  1.0954  1.3224
  940MOL0     H24065   3.143   9.830   7.931  1.1024 -1.5402  0.1235
  940MOL0     H24066   4.899  10.987   8.238  1.0664  2.2852 -3.3464
  940MOL0     H24067   5.002  10.923   8.014 -1.0631 -2.4169 -2.0353
  940MOL0     H24068   5.245  10.515   7.831 -0.8835 -0.7808  0.5052
  940MOL0     H24069   5.392  10.377   7.708  2.3228 -0.5444  0.6172
  940MOL0     H24070   5.615  10.189   7.702  1.1129  0.9894 -2.9694
  940MOL0     H24071   5.627  10.256   7.870  0.7842 -1.3577  0.5948
  940MOL0     H24072   5.829  10.117   7.813 -0.5210 -0.1146 -0.6667
  940MOL0     H24073   5.855  10.226   7.673 -3.7263  0.7538 -1.6889
  940MOL0     H24074   5.859  10.304   7.976  1.5653  2.2106  0.5396
  940MOL0     H24075   5.912  10.410   7.841  2.8316  0.6021  1.6379
  940MOL0     H24076   6.013  10.132   7.928 -2.9255 -0.8032 -2.4875
  940MOL0     H24077   6.083  10.231   7.786  2.3349 -0.2289  0.9514
  940MOL0     H24078   6.258  10.458   8.076 -0.9720  0.4422  0.5183
  940MOL0     H24079   5.727  10.592   7.849  0.3484 -3.3662 -2.1321
  940MOL0     H24080   5.576  10.745   7.980 -0.9424 -0.9107  2.1676
  941MOL0     O24081   3.804   3.925   4.184 -0.0548 -0.8920  0.4564
  941MOL0     C24082   3.835   4.031   4.130 -0.4939  0.6283  0.7990
  941MOL0     O24083   3.745   4.117   4.089  0.1963 -0.1211  0.3759
  941MOL0     C24084   3.615   4.094   4.106 -0.3698 -0.1903  1.0911
  941MOL0     C24085   3.543   4.028   4.006  0.7767  0.6032 -0.0334
  941MOL0     C24086   3.395   4.024   4.014 -0.4980  0.0246  0.3432
  941MOL0     C24087   3.328   4.074   4.130  0.2898  0.5759  0.1847
  941MOL0     O24088   3.195   4.052   4.154 -0.3141 -0.2071  0.3212
  941MOL0     C24089   3.132   4.125   4.265 -0.2448  0.4697 -0.2568
  941MOL0     C24090   2.978   4.103   4.240  0.0588 -0.0831 -1.0487
  941MOL0     C24091   2.899   4.156   4.366 -0.0648  0.6783 -0.5157
  941MOL0     C24092   2.752   4.103   4.371 -0.1137 -0.3185 -0.3930
  941MOL0     C24093   2.675   4.165   4.499  0.0000 -0.0497 -0.6734
  941MOL0     C24094   2.527   4.147   4.488 -0.6653  0.0110  0.8777
  941MOL0     C24095   2.467   4.202   4.620 -0.0956  0.3494 -0.4119
  941MOL0     C24096   2.406   4.334   4.611 -0.5814 -0.5356 -0.0289
  941MOL0     N24097   2.332   4.369   4.738  0.5334  0.0025  0.1200
  941MOL0     C24098   2.203   4.336   4.767  0.3090  0.2648 -0.8206
  941MOL0     C24099   2.173   4.369   4.895 -0.4050  0.4995 -0.4860
  941MOL0     C24100   2.050   4.345   4.968  0.3685 -0.6408  0.2917
  941MOL0     C24101   1.982   4.481   4.976 -0.0014 -0.3091 -0.5221
  941MOL0     C24102   1.881   4.487   5.085 -0.5314 -0.5182 -0.2333
  941MOL0     C24103   1.741   4.455   5.023 -0.6716 -0.0285 -0.3261
  941MOL0     O24104   1.655   4.479   5.134  0.3099  0.9343 -0.5284
  941MOL0     C24105   1.517   4.498   5.110  0.4347  0.3254 -0.7529
  941MOL0     C24106   1.455   4.473   4.983 -0.3641  0.1223  0.6887
  941MOL0     C24107   1.318   4.502   4.966 -0.8824 -0.7267  0.1925
  941MOL0     C24108   1.241   4.541   5.080  0.6232 -0.3439  0.7229
  941MOL0     C24109   1.091   4.546   5.077 -0.6686 -0.6702 -0.1885
  941MOL0     O24110   1.026   4.505   4.962  0.0582 -0.4652  0.2723
  941MOL0     C24111   0.892   4.522   4.951  0.1078  0.1400 -0.0836
  941MOL0     C24112   0.811   4.428   5.020  1.1221  0.0505  0.2907
  941MOL0     C24113   0.671   4.449   5.027  0.1221 -0.6353  1.0479
  941MOL0     C24114   0.616   4.556   4.949 -1.2233  0.5451  0.2113
  941MOL0     O24115   0.475   4.559   4.936  0.5754  0.1610 -0.5783
  941MOL0     C24116   0.412   4.564   5.072  0.5266 -0.0638  0.1582
  941MOL0     C24117   0.259   4.558   5.048 -0.8630 -0.7728  0.0986
  941MOL0     C24118   0.210   4.663   4.951 -0.7758 -0.5847 -0.0943
  941MOL0     C24119   0.063   4.663   4.975  0.3936  0.0519  0.0294
  941MOL0     C24120  -0.027   4.725   4.855 -1.2182 -0.0837 -0.2725
  941MOL0     C24121  -0.172   4.689   4.845  0.2244  0.3456  0.0996
  941MOL0     C24122  -0.258   4.684   4.976  0.0575  0.3985  0.4924
  941MOL0     C24123  -0.402   4.628   4.970 -0.2105  0.0969 -0.8296
  941MOL0    Cl24124  -0.482   4.668   4.815 -0.1236 -0.3683 -0.0027
  941MOL0     C24125   0.698   4.640   4.879 -0.1921  0.1698  0.3468
  941MOL0     C24126   0.833   4.623   4.878 -0.6693 -0.7685 -1.0186
  941MOL0     O24127   1.044   4.585   5.185  0.3485 -0.1394 -0.2700
  941MOL0     C24128   1.301   4.557   5.204  0.0477 -0.4701 -1.4840
  941MOL0     C24129   1.438   4.538   5.225  0.3568  0.2051  0.7685
  941MOL0     N24130   2.297   4.397   4.951 -0.8112 -0.5673  0.2733
  941MOL0     N24131   2.388   4.409   4.856 -0.2153  0.6316  0.5494
  941MOL0     C24132   3.408   4.138   4.220  0.0307  0.6426  0.0508
  941MOL0     C24133   3.548   4.145   4.216 -0.3369  0.2152  0.8371
  941MOL0     C24134   3.978   4.061   4.105 -0.0449 -0.6834  0.3059
  941MOL0     C24135   4.081   3.991   4.175 -0.0616 -0.0313 -0.0394
  941MOL0     C24136   4.210   4.024   4.156 -0.2636  0.7067  0.0338
  941MOL0     C24137   4.250   4.111   4.048  0.9189 -0.3536 -0.4008
  941MOL0     O24138   4.376   4.126   3.996 -0.4496 -0.3344 -0.3817
  941MOL0     C24139   4.485   4.078   4.081 -1.0480  0.4826  0.9210
  941MOL0     C24140   4.622   4.123   4.037  0.6998 -0.0932 -0.1479
  941MOL0     C24141   4.669   4.251   4.109 -0.0629  1.6142 -0.6198
  941MOL0     C24142   4.799   4.313   4.064  0.7317 -1.1292 -0.1921
  941MOL0     C24143   4.919   4.237   4.078 -0.6320  0.1642 -0.4106
  941MOL0     C24144   5.015   4.168   4.085 -0.4941 -0.2957 -0.7784
  941MOL0     C24145   4.152   4.170   3.969 -1.5404 -0.4526  0.6065
  941MOL0     C24146   4.014   4.150   3.996  0.0483 -0.2934 -0.5902
  941MOL0     H24147   3.590   4.001   3.912  0.5825 -0.6077  0.1960
  941MOL0     H24148   3.333   3.980   3.936 -1.4768 -2.0867  2.2245
  941MOL0     H24149   3.160   4.230   4.253 -0.5174  0.2057 -4.6984
  941MOL0     H24150   3.158   4.073   4.358 -1.1280  0.0910 -0.2170
  941MOL0     H24151   2.954   4.000   4.211 -0.6748  0.2011 -1.4995
  941MOL0     H24152   2.956   4.155   4.146 -2.8325  0.1249 -0.3701
  941MOL0     H24153   2.891   4.264   4.355 -2.2531  0.6491  0.1901
  941MOL0     H24154   2.955   4.125   4.455  1.8033  1.5026 -1.3671
  941MOL0     H24155   2.704   4.130   4.277 -2.5452 -0.7466  0.6666
  941MOL0     H24156   2.758   3.994   4.378  3.3986 -0.1546  3.1470
  941MOL0     H24157   2.690   4.273   4.501  0.4087 -0.1079  1.1943
  941MOL0     H24158   2.714   4.130   4.595  0.8028 -1.9163 -1.6222
  941MOL0     H24159   2.504   4.040   4.483  1.1779 -0.3946  0.3081
  941MOL0     H24160   2.495   4.188   4.392  3.4261  1.6785  0.0162
  941MOL0     H24161   2.403   4.121   4.658 -0.2556  0.2536 -0.8769
  941MOL0     H24162   2.549   4.202   4.691  1.9183  2.8988 -2.5396
  941MOL0     H24163   2.337   4.342   4.526 -0.3679  0.5524 -0.1106
  941MOL0     H24164   2.484   4.408   4.594  2.2695 -4.0397 -4.6538
  941MOL0     H24165   2.134   4.299   4.692 -0.6899  1.6791 -0.6381
  941MOL0     H24166   2.073   4.325   5.074  0.9182  0.4174  0.3801
  941MOL0     H24167   1.985   4.265   4.932  1.5155 -1.4192 -0.1246
  941MOL0     H24168   1.927   4.481   4.881 -0.8107 -0.4707 -0.0614
  941MOL0     H24169   2.054   4.563   4.990  0.2402 -0.7964  1.3943
  941MOL0     H24170   1.899   4.422   5.172  0.4346  2.5818  2.0644
  941MOL0     H24171   1.873   4.594   5.104 -0.6844  0.0667 -3.1654
  941MOL0     H24172   1.748   4.351   4.990  1.7234 -0.5389  1.4767
  941MOL0     H24173   1.717   4.523   4.941 -0.6152  0.5690  0.1447
  941MOL0     H24174   1.509   4.448   4.893 -1.0865 -0.9126  0.5186
  941MOL0     H24175   1.278   4.480   4.867 -4.6843  0.9416  1.1874
  941MOL0     H24176   0.863   4.348   5.072  0.6524 -0.5539 -0.1623
  941MOL0     H24177   0.620   4.376   5.088  0.8364 -0.8535  1.4006
  941MOL0     H24178   0.444   4.655   5.123 -2.2639  1.0869 -0.0056
  941MOL0     H24179   0.442   4.477   5.132  0.8271 -0.9821 -1.2766
  941MOL0     H24180   0.209   4.574   5.144 -0.8122  1.5738 -0.2072
  941MOL0     H24181   0.248   4.459   5.004 -1.5655 -0.4687 -0.4204
  941MOL0     H24182   0.235   4.637   4.848 -3.1774 -4.2697  0.0512
  941MOL0     H24183   0.246   4.765   4.970 -0.6202 -0.3706 -1.4521
  941MOL0     H24184   0.034   4.558   4.986  1.2050 -0.4121 -1.8836
  941MOL0     H24185   0.048   4.722   5.066  1.1765 -4.5806  3.5889
  941MOL0     H24186   0.016   4.704   4.757  0.1905 -0.0213  0.3078
  941MOL0     H24187  -0.015   4.834   4.858  0.5537 -0.1782 -2.0729
  941MOL0     H24188  -0.177   4.590   4.799  1.4670  1.4634 -2.7037
  941MOL0     H24189  -0.231   4.746   4.773 -2.6871 -0.3612  1.7466
  941MOL0     H24190  -0.205   4.627   5.053  0.0566 -1.8691 -1.0880
  941MOL0     H24191  -0.265   4.788   5.009 -1.1442 -0.0230  1.6548
  941MOL0     H24192  -0.463   4.665   5.052  0.6643 -2.0748  0.9226
  941MOL0     H24193  -0.410   4.521   4.991 -1.5108  0.6150  1.5733
  941MOL0     H24194   0.662   4.725   4.822 -0.7692  1.1110  2.0292
  941MOL0     H24195   0.898   4.690   4.823  0.8379 -0.0674  1.4380
  941MOL0     H24196   1.236   4.583   5.287  0.8440  0.9469 -1.2759
  941MOL0     H24197   1.502   4.562   5.310  2.8338  1.1364 -1.2110
  941MOL0     H24198   3.363   4.181   4.309  0.5096  3.0554 -0.8236
  941MOL0     H24199   3.603   4.193   4.296  1.3385  0.8163 -0.6017
  941MOL0     H24200   4.060   3.926   4.258  0.1220  1.5020  1.2597
  941MOL0     H24201   4.292   3.983   4.213  0.5218 -1.2310 -2.3353
  941MOL0     H24202   4.485   3.969   4.097 -0.9724  0.7448  2.8672
  941MOL0     H24203   4.473   4.122   4.180 -1.7559  2.8776 -0.1503
  941MOL0     H24204   4.692   4.042   4.055 -0.7528 -1.3095  0.2490
  941MOL0     H24205   4.618   4.157   3.933  2.5031 -1.9966 -0.8849
  941MOL0     H24206   4.672   4.230   4.216  0.3557 -0.8536 -1.0579
  941MOL0     H24207   4.596   4.332   4.099 -0.4252  1.1143 -2.4937
  941MOL0     H24208   4.793   4.352   3.962  1.0932 -1.3527 -0.3012
  941MOL0     H24209   4.816   4.397   4.132  0.1512  0.3340 -1.7887
  941MOL0     H24210   5.100   4.103   4.096 -0.6694 -0.2500  1.1691
  941MOL0     H24211   4.176   4.237   3.888 -0.3256  1.2205  2.2550
  941MOL0     H24212   3.932   4.194   3.941  0.4595  1.1413 -0.1051
  942MOL0     O24213   7.606   8.479   0.087 -0.2566 -0.0213 -0.2392
  942MOL0     C24214   7.572   8.382   0.009  0.7762 -0.0344  0.0616
  942MOL0     O24215   7.447   8.341  -0.007  0.1013 -0.4234  0.0360
  942MOL0     C24216   7.336   8.392   0.051  0.2358  1.4041  0.6271
  942MOL0     C24217   7.242   8.309   0.108  0.2072 -0.2963 -0.4482
  942MOL0     C24218   7.108   8.353   0.158 -0.4904  0.1171  0.1553
  942MOL0     C24219   7.086   8.491   0.144 -0.0539  0.9091  0.2380
  942MOL0     O24220   6.961   8.554   0.158 -0.4612 -0.4425 -0.1474
  942MOL0     C24221   6.842   8.471   0.137 -0.3979  0.2588 -0.0437
  942MOL0     C24222   6.717   8.552   0.183 -0.4778  0.7548 -0.3359
  942MOL0     C24223   6.593   8.506   0.118  0.3948 -0.6841 -0.3325
  942MOL0     C24224   6.472   8.565   0.183 -0.3140  0.9055 -0.9788
  942MOL0     C24225   6.348   8.541   0.091 -0.0337 -0.0456  0.3316
  942MOL0     C24226   6.226   8.620   0.130 -0.7549 -1.2206 -0.5206
  942MOL0     C24227   6.098   8.596   0.059 -0.7184  0.1992  1.4752
  942MOL0     C24228   5.983   8.695   0.090  0.0967 -0.0168  0.5917
  942MOL0     N24229   5.980   8.838   0.055  0.0310  0.4838  0.3673
  942MOL0     C24230   6.000   8.902  -0.069  0.0860  0.2902  0.7945
  942MOL0     C24231   5.993   9.033  -0.044 -0.6979 -0.8116  0.1430
  942MOL0     C24232   5.990   9.143  -0.139  0.4567 -0.0514  0.8755
  942MOL0     C24233   6.081   9.259  -0.098 -0.1606 -0.0055 -0.7381
  942MOL0     C24234   6.130   9.339  -0.220 -0.3836  0.2015 -0.5772
  942MOL0     C24235   6.208   9.471  -0.191 -0.2072  1.3647  0.4974
  942MOL0     O24236   6.305   9.503  -0.293  0.3693 -0.1156  0.6600
  942MOL0     C24237   6.423   9.430  -0.319 -0.6209 -0.9143  0.0229
  942MOL0     C24238   6.457   9.332  -0.233 -0.7231 -0.1993 -0.5962
  942MOL0     C24239   6.583   9.274  -0.244 -1.7162  0.1402  0.6782
  942MOL0     C24240   6.668   9.308  -0.353  0.5661 -0.2590 -0.4328
  942MOL0     C24241   6.800   9.259  -0.375  0.6135  0.2530  0.3717
  942MOL0     O24242   6.841   9.263  -0.512 -0.6506 -0.0817  0.7416
  942MOL0     C24243   6.961   9.207  -0.540  0.2456 -0.1037 -0.4237
  942MOL0     C24244   6.962   9.090  -0.616 -0.4224 -0.6762 -0.3668
  942MOL0     C24245   7.077   9.009  -0.626  0.9098  1.0320 -0.0486
  942MOL0     C24246   7.197   9.048  -0.565  0.6553 -0.6444 -0.0938
  942MOL0     O24247   7.300   8.972  -0.597 -0.2306 -0.5382 -0.0145
  942MOL0     C24248   7.417   8.965  -0.519 -0.5167 -0.9273  0.6511
  942MOL0     C24249   7.527   9.037  -0.594 -0.0130  0.5887 -0.2477
  942MOL0     C24250   7.642   9.060  -0.491 -0.1845  0.1336  0.3416
  942MOL0     C24251   7.761   9.123  -0.558  0.1988 -0.8396  0.0190
  942MOL0     C24252   7.888   9.139  -0.479  0.0208 -0.4224 -0.6620
  942MOL0     C24253   7.940   9.026  -0.387 -0.3441  0.4954  0.1087
  942MOL0     C24254   8.065   9.060  -0.304  0.7360 -0.7331 -0.6120
  942MOL0     C24255   8.192   9.048  -0.387  0.0221 -0.1446  1.0360
  942MOL0    Cl24256   8.329   9.059  -0.277  0.1778  0.3206  0.1557
  942MOL0     C24257   7.192   9.155  -0.479 -0.0356  0.3532  0.0317
  942MOL0     C24258   7.080   9.230  -0.465 -0.1386  0.4560  0.0122
  942MOL0     O24259   6.850   9.193  -0.284  0.7701 -0.1145 -0.1052
  942MOL0     C24260   6.625   9.412  -0.442 -0.4345 -0.7526 -0.2393
  942MOL0     C24261   6.502   9.462  -0.429 -0.0099 -0.0732  0.1294
  942MOL0     N24262   5.971   9.051   0.090  0.6841  0.6647 -0.3607
  942MOL0     N24263   5.956   8.932   0.147  0.3357  0.7337 -0.1804
  942MOL0     C24264   7.184   8.579   0.099 -0.2000 -0.3716 -0.3795
  942MOL0     C24265   7.308   8.527   0.050  0.3045  0.3828  0.7418
  942MOL0     C24266   7.674   8.299  -0.055 -0.1369 -0.1267 -0.1860
  942MOL0     C24267   7.809   8.341  -0.058 -0.8603  0.4133 -0.6651
  942MOL0     C24268   7.914   8.269  -0.109  0.8866  0.0443  0.7097
  942MOL0     C24269   7.887   8.145  -0.170 -0.1074  0.4071 -0.7597
  942MOL0     O24270   7.976   8.058  -0.225 -0.0881 -0.4157  0.8568
  942MOL0     C24271   8.113   8.104  -0.226 -0.4941 -0.2029 -0.0865
  942MOL0     C24272   8.205   8.013  -0.306 -0.3729  0.2354 -1.0681
  942MOL0     C24273   8.201   7.882  -0.232 -0.1580 -0.3598 -0.1870
  942MOL0     C24274   8.329   7.858  -0.163  0.1599 -0.1320  0.2600
  942MOL0     C24275   8.358   7.964  -0.066 -0.1083 -0.8695 -0.6504
  942MOL0     C24276   8.367   8.045   0.031 -0.3498  0.5234 -0.5165
  942MOL0     C24277   7.751   8.099  -0.170  0.4218 -0.1729 -1.3076
  942MOL0     C24278   7.644   8.175  -0.115  0.4550 -0.0515  0.1839
  942MOL0     H24279   7.267   8.203   0.114 -2.4291 -0.9828 -0.3933
  942MOL0     H24280   7.034   8.280   0.189 -0.9257  0.7848  0.7113
  942MOL0     H24281   6.840   8.374   0.187 -0.6999 -0.4504 -1.3802
  942MOL0     H24282   6.824   8.444   0.033  0.6200 -0.9432  0.0796
  942MOL0     H24283   6.734   8.659   0.163 -0.7576  1.3682  2.3131
  942MOL0     H24284   6.709   8.537   0.291  2.6529 -1.3906 -0.2783
  942MOL0     H24285   6.592   8.397   0.133 -2.9083 -0.7351 -0.2792
  942MOL0     H24286   6.595   8.518   0.009  1.2881 -5.3620 -1.0528
  942MOL0     H24287   6.451   8.508   0.274  2.3283 -1.8835 -1.9478
  942MOL0     H24288   6.477   8.673   0.203 -0.5739  0.7443  0.0127
  942MOL0     H24289   6.320   8.435   0.096  0.6752 -0.3478 -1.3409
  942MOL0     H24290   6.386   8.574  -0.006  3.5642 -0.2345  1.5026
  942MOL0     H24291   6.252   8.726   0.118  0.7893 -1.3960  0.9342
  942MOL0     H24292   6.210   8.612   0.238  0.8643 -0.0385 -0.1501
  942MOL0     H24293   6.118   8.588  -0.048 -1.9794  2.6824  0.9742
  942MOL0     H24294   6.058   8.497   0.083 -2.0726 -0.1281 -1.6960
  942MOL0     H24295   5.968   8.694   0.198  0.0312  1.1589  0.6137
  942MOL0     H24296   5.889   8.652   0.055 -1.1504  1.6718  1.6888
  942MOL0     H24297   6.015   8.864  -0.169  0.8228  2.1566  0.1533
  942MOL0     H24298   5.890   9.184  -0.150  0.5968 -0.1558 -1.3515
  942MOL0     H24299   6.010   9.108  -0.241 -2.7079  1.5424 -0.3906
  942MOL0     H24300   6.165   9.227  -0.036 -2.6051  0.1056  2.9770
  942MOL0     H24301   6.042   9.333  -0.027 -0.2397 -0.5714 -0.1807
  942MOL0     H24302   6.188   9.271  -0.283 -0.3916  0.0645 -0.4369
  942MOL0     H24303   6.041   9.365  -0.277 -1.0729  2.2943  1.3104
  942MOL0     H24304   6.269   9.462  -0.100  0.3033 -2.4483 -0.0563
  942MOL0     H24305   6.135   9.551  -0.181 -2.0259  0.0546 -1.4898
  942MOL0     H24306   6.392   9.293  -0.156  0.8691 -2.7714 -0.4448
  942MOL0     H24307   6.616   9.198  -0.173  2.1925 -0.9771 -1.9900
  942MOL0     H24308   6.865   9.070  -0.661 -2.9491  1.5182  3.5287
  942MOL0     H24309   7.075   8.917  -0.685  3.6075  1.5925 -1.1708
  942MOL0     H24310   7.456   8.863  -0.514  1.0981 -0.3395  0.4873
  942MOL0     H24311   7.397   9.007  -0.420 -0.9315 -2.8202  1.4168
  942MOL0     H24312   7.486   9.130  -0.635  1.0423  0.3197 -2.0288
  942MOL0     H24313   7.569   8.973  -0.673 -0.1711  0.3696 -0.1521
  942MOL0     H24314   7.670   8.962  -0.453 -0.8719 -0.6852 -1.2061
  942MOL0     H24315   7.622   9.121  -0.402  1.8006  1.6368 -0.1696
  942MOL0     H24316   7.785   9.075  -0.654 -2.4941  1.2267 -1.8579
  942MOL0     H24317   7.723   9.220  -0.589 -0.4455 -1.2069 -0.3815
  942MOL0     H24318   7.865   9.221  -0.410  0.8623  1.7064 -2.7659
  942MOL0     H24319   7.975   9.181  -0.530  0.9340 -2.8515 -1.1975
  942MOL0     H24320   7.965   8.942  -0.453 -0.3515  0.5878 -0.0137
  942MOL0     H24321   7.853   8.989  -0.334 -0.4951 -0.0264 -0.4880
  942MOL0     H24322   8.060   9.156  -0.251 -2.6986 -1.6201  0.9205
  942MOL0     H24323   8.072   8.984  -0.226  1.9132  0.0639  0.1061
  942MOL0     H24324   8.205   9.131  -0.457 -1.5525 -0.7658 -0.0671
  942MOL0     H24325   8.209   8.960  -0.451  0.0553  1.1669 -0.8394
  942MOL0     H24326   7.279   9.178  -0.419  0.8712  0.1578 -1.1830
  942MOL0     H24327   7.079   9.304  -0.386 -1.5881  0.6118 -0.1144
  942MOL0     H24328   6.691   9.430  -0.526 -0.8966 -2.7008 -1.0691
  942MOL0     H24329   6.462   9.523  -0.509  1.2225 -0.1695 -0.5892
  942MOL0     H24330   7.168   8.686   0.094  1.0919 -0.1687 -0.5721
  942MOL0     H24331   7.374   8.604   0.012  0.1873 -0.3007 -0.9324
  942MOL0     H24332   7.850   8.433  -0.018  0.0209 -0.3429  0.2073
  942MOL0     H24333   8.015   8.308  -0.107  1.1386 -0.3798 -1.1513
  942MOL0     H24334   8.143   8.116  -0.122  2.1381  1.8267 -0.9798
  942MOL0     H24335   8.108   8.203  -0.274 -2.1854  0.4307  1.2708
  942MOL0     H24336   8.166   8.005  -0.408 -0.4640 -2.1486 -0.9012
  942MOL0     H24337   8.305   8.057  -0.303 -0.8941  1.3894  0.2742
  942MOL0     H24338   8.178   7.790  -0.285  0.7760 -3.2644  3.8953
  942MOL0     H24339   8.119   7.882  -0.159  0.0984  0.0496  0.1106
  942MOL0     H24340   8.327   7.753  -0.130  0.0274 -2.0635 -4.8300
  942MOL0     H24341   8.398   7.872  -0.247 -2.5919  3.5110 -1.6894
  942MOL0     H24342   8.363   8.113   0.114 -0.2480 -2.3099  2.0125
  942MOL0     H24343   7.734   8.002  -0.217 -0.2995 -0.8387  0.2411
  942MOL0     H24344   7.542   8.139  -0.127  1.4627 -4.0106  1.7359
  943MOL0     O24345   3.992   0.810   2.738 -0.3093  0.4487  0.3442
  943MOL0     C24346   3.973   0.738   2.638  0.2126  0.3801  0.0149
  943MOL0     O24347   4.069   0.670   2.570  0.0941  0.1471  0.5123
  943MOL0     C24348   4.194   0.659   2.616 -0.2148  0.0874 -0.5485
  943MOL0     C24349   4.221   0.599   2.747 -0.0322 -1.1026 -0.7326
  943MOL0     C24350   4.352   0.611   2.800 -0.3648 -0.1028  0.2304
  943MOL0     C24351   4.463   0.660   2.725 -0.2897 -0.2656  1.4585
  943MOL0     O24352   4.595   0.672   2.769 -0.2386 -0.5669  0.5973
  943MOL0     C24353   4.645   0.556   2.824  0.4000  0.0926 -0.4905
  943MOL0     C24354   4.660   0.438   2.731  0.4705  0.0585  0.8084
  943MOL0     C24355   4.773   0.342   2.774 -1.0633  0.1214  0.1304
  943MOL0     C24356   4.828   0.247   2.659 -0.3108 -0.6784  0.1823
  943MOL0     C24357   4.736   0.140   2.616 -0.2439 -0.0609  0.2829
  943MOL0     C24358   4.711   0.038   2.732  1.3589 -0.1076 -0.3360
  943MOL0     C24359   4.661  -0.099   2.678  0.4787  0.0395 -0.5693
  943MOL0     C24360   4.591  -0.181   2.781 -0.7850  0.4060 -0.1740
  943MOL0     N24361   4.476  -0.113   2.834  0.0644 -0.4746  0.2683
  943MOL0     C24362   4.351  -0.105   2.766 -0.3594 -0.2706 -0.2243
  943MOL0     C24363   4.269  -0.036   2.853  0.3350  0.2918  0.7505
  943MOL0     C24364   4.139   0.034   2.812  0.3332 -0.7479 -1.3445
  943MOL0     C24365   4.175   0.162   2.757 -0.4875  0.3508 -0.1520
  943MOL0     C24366   4.075   0.229   2.659 -0.2796 -0.2093  0.1461
  943MOL0     C24367   3.932   0.261   2.708 -0.2067 -0.1953 -0.1509
  943MOL0     O24368   3.937   0.378   2.780 -0.2936 -0.0716 -0.9721
  943MOL0     C24369   3.817   0.427   2.833 -1.0729 -0.7682 -0.0360
  943MOL0     C24370   3.829   0.552   2.907  0.7994  0.2517  0.0617
  943MOL0     C24371   3.715   0.620   2.935  0.2581  0.1414  0.6029
  943MOL0     C24372   3.588   0.563   2.914 -0.2455  0.0940 -0.0403
  943MOL0     C24373   3.467   0.637   2.948 -0.6186  0.0963 -0.2624
  943MOL0     O24374   3.353   0.577   2.950  0.1817 -0.4310  0.3301
  943MOL0     C24375   3.243   0.653   2.993  0.6973  0.0293 -0.1910
  943MOL0     C24376   3.237   0.674   3.126 -0.1839  0.8891  0.0991
  943MOL0     C24377   3.127   0.738   3.182  0.1138  0.0289  0.1762
  943MOL0     C24378   3.019   0.790   3.108  0.2875  0.0920 -0.3226
  943MOL0     O24379   2.917   0.862   3.162  0.9145 -0.3874 -0.7059
  943MOL0     C24380   2.907   0.873   3.307 -0.6744 -0.4936 -0.1987
  943MOL0     C24381   2.817   0.987   3.337 -0.5627 -1.1290  0.9399
  943MOL0     C24382   2.673   0.952   3.371  0.4884 -0.2121 -0.3247
  943MOL0     C24383   2.585   1.083   3.400  0.4259 -0.5012 -0.2698
  943MOL0     C24384   2.444   1.065   3.412  0.1857  0.1347  0.2075
  943MOL0     C24385   2.357   1.183   3.464  1.1106  0.3950  0.2149
  943MOL0     C24386   2.207   1.152   3.471 -0.2920  0.2867  0.7692
  943MOL0     C24387   2.132   1.239   3.569 -0.1665 -0.8422  0.4613
  943MOL0    Cl24388   1.959   1.170   3.576 -0.3741  0.5489 -0.2285
  943MOL0     C24389   3.033   0.784   2.976 -0.3994  0.0730 -0.1841
  943MOL0     C24390   3.142   0.713   2.919 -0.1427  0.6178 -0.0022
  943MOL0     O24391   3.486   0.759   2.976  0.6154 -0.0001  0.7235
  943MOL0     C24392   3.585   0.436   2.861 -0.2192  0.3627  0.7349
  943MOL0     C24393   3.694   0.372   2.817 -0.3749 -0.8668  0.1241
  943MOL0     N24394   4.342   0.001   2.966  0.5335  1.6404 -0.1348
  943MOL0     N24395   4.459  -0.061   2.960 -0.6744  0.3629 -0.1585
  943MOL0     C24396   4.438   0.696   2.586 -0.0669  0.6195  0.5193
  943MOL0     C24397   4.304   0.697   2.535  0.0322 -0.5558 -0.5051
  943MOL0     C24398   3.834   0.720   2.587 -0.0887  0.5347 -0.1760
  943MOL0     C24399   3.786   0.607   2.504 -0.5561 -0.3674 -0.4722
  943MOL0     C24400   3.652   0.597   2.475  0.3730 -0.1593  0.4436
  943MOL0     C24401   3.563   0.688   2.524  0.5377 -0.3956  0.2154
  943MOL0     O24402   3.428   0.691   2.495 -0.0729  0.3350 -0.2173
  943MOL0     C24403   3.367   0.576   2.432 -0.5272  0.3229 -0.4806
  943MOL0     C24404   3.373   0.455   2.529 -0.1922 -0.4659 -0.7921
  943MOL0     C24405   3.298   0.327   2.478 -0.5713 -0.3019 -0.7209
  943MOL0     C24406   3.310   0.210   2.581 -0.6701  0.4967  1.2998
  943MOL0     C24407   3.246   0.257   2.698 -0.1941  0.0916  0.3035
  943MOL0     C24408   3.182   0.294   2.801 -0.6056 -0.1577 -0.4958
  943MOL0     C24409   3.603   0.800   2.601  0.5747 -0.8061  0.8744
  943MOL0     C24410   3.740   0.812   2.632  0.9551 -0.1723  0.1950
  943MOL0     H24411   4.137   0.570   2.808  0.9802 -0.4801  1.0198
  943MOL0     H24412   4.379   0.580   2.901  2.7567  1.5848  0.0276
  943MOL0     H24413   4.585   0.537   2.914 -1.2428  0.0195 -1.5455
  943MOL0     H24414   4.747   0.589   2.845 -0.6584  2.9595  0.6747
  943MOL0     H24415   4.687   0.477   2.633 -1.1791 -1.4315 -0.3108
  943MOL0     H24416   4.565   0.386   2.716  0.9573 -0.7699  0.5355
  943MOL0     H24417   4.746   0.278   2.858  1.8309 -2.2218 -0.5619
  943MOL0     H24418   4.859   0.402   2.802 -1.6492  0.3441  1.5277
  943MOL0     H24419   4.858   0.301   2.568  1.0714  0.2887  1.1745
  943MOL0     H24420   4.928   0.209   2.682  0.5540  1.2308 -0.2229
  943MOL0     H24421   4.782   0.082   2.536 -1.3569 -2.5276  1.3288
  943MOL0     H24422   4.645   0.188   2.578 -0.9756 -2.6770 -1.5489
  943MOL0     H24423   4.635   0.089   2.792  2.1892 -0.9599  1.5005
  943MOL0     H24424   4.801   0.018   2.791  0.9294  0.5203  0.5573
  943MOL0     H24425   4.592  -0.097   2.593 -0.3710  1.6189  0.1130
  943MOL0     H24426   4.757  -0.148   2.660 -0.3134 -0.8307 -2.8019
  943MOL0     H24427   4.653  -0.203   2.869  1.7311 -1.2982 -2.2109
  943MOL0     H24428   4.557  -0.275   2.737 -0.6219  0.3274 -0.1326
  943MOL0     H24429   4.329  -0.129   2.663  0.6004  0.2583 -0.5740
  943MOL0     H24430   4.086   0.057   2.906  0.3112 -2.0162 -1.0292
  943MOL0     H24431   4.070  -0.016   2.743 -2.7052  0.2399  0.7505
  943MOL0     H24432   4.271   0.161   2.705 -0.5141  0.2660 -0.2017
  943MOL0     H24433   4.195   0.236   2.834  2.5314  1.1455 -1.5649
  943MOL0     H24434   4.117   0.320   2.616  0.8813 -0.6724  0.2588
  943MOL0     H24435   4.067   0.154   2.580  3.0467 -2.6322  1.8519
  943MOL0     H24436   3.879   0.184   2.764  0.8539 -0.3020  0.7216
  943MOL0     H24437   3.866   0.268   2.620  0.0520 -1.6361 -0.4734
  943MOL0     H24438   3.925   0.596   2.932  0.2969  0.0120  2.7277
  943MOL0     H24439   3.724   0.726   2.959 -0.4707  0.2504  0.4234
  943MOL0     H24440   3.320   0.645   3.190 -1.6185 -3.6705  0.1789
  943MOL0     H24441   3.131   0.750   3.290  2.9949  3.3533 -0.1190
  943MOL0     H24442   3.001   0.888   3.361 -0.4873 -3.8380  0.5871
  943MOL0     H24443   2.874   0.778   3.351 -1.5387 -1.1511 -2.1434
  943MOL0     H24444   2.827   1.065   3.261  0.6082 -0.5371  1.6672
  943MOL0     H24445   2.846   1.035   3.431 -0.5248 -0.5575  0.6391
  943MOL0     H24446   2.659   0.876   3.447 -1.8616 -0.0587 -0.5347
  943MOL0     H24447   2.616   0.915   3.285 -1.6944  2.2889 -0.0955
  943MOL0     H24448   2.620   1.123   3.495  0.0457  1.6898 -0.9946
  943MOL0     H24449   2.598   1.162   3.325 -1.9946  0.2955  0.0418
  943MOL0     H24450   2.433   0.986   3.487 -2.3203 -0.4232 -0.6367
  943MOL0     H24451   2.401   1.032   3.316 -2.1997 -1.2871  1.6526
  943MOL0     H24452   2.372   1.272   3.402 -0.5937 -0.4972 -1.6033
  943MOL0     H24453   2.407   1.198   3.560 -0.0452 -2.0854  1.3107
  943MOL0     H24454   2.170   1.167   3.369  0.3315 -0.5249  0.4066
  943MOL0     H24455   2.197   1.045   3.494 -0.3379  0.0356 -0.3574
  943MOL0     H24456   2.130   1.347   3.549  2.1487 -0.1748  3.0701
  943MOL0     H24457   2.186   1.229   3.664 -0.6776  1.1429  0.9994
  943MOL0     H24458   2.962   0.830   2.908  1.0340  0.6252 -1.3395
  943MOL0     H24459   3.157   0.713   2.811  0.4098  3.1497  0.0258
  943MOL0     H24460   3.491   0.386   2.838 -0.3541  1.4104 -1.1227
  943MOL0     H24461   3.671   0.279   2.766 -1.1078  0.8426 -2.9467
  943MOL0     H24462   4.523   0.728   2.526 -0.5501  1.9212  0.5204
  943MOL0     H24463   4.278   0.725   2.433  2.1190  3.1195 -0.2232
  943MOL0     H24464   3.840   0.516   2.481 -1.6709 -0.2031 -4.3901
  943MOL0     H24465   3.629   0.511   2.413  1.1285 -1.1240  1.4714
  943MOL0     H24466   3.427   0.559   2.342  2.4262  0.5455  1.3376
  943MOL0     H24467   3.264   0.592   2.399 -0.9040 -0.5464  0.2267
  943MOL0     H24468   3.476   0.430   2.555  1.0591  3.4159 -1.4180
  943MOL0     H24469   3.337   0.489   2.627  1.7879  1.3612 -0.6213
  943MOL0     H24470   3.352   0.302   2.386  3.0814  1.7742  0.6304
  943MOL0     H24471   3.190   0.332   2.462 -0.6479 -3.1978 -1.8403
  943MOL0     H24472   3.260   0.120   2.546  0.7482  0.2155 -0.1003
  943MOL0     H24473   3.412   0.175   2.598 -0.6495 -3.1486 -3.9208
  943MOL0     H24474   3.123   0.328   2.884 -0.3377 -0.0701 -0.3405
  943MOL0     H24475   3.541   0.875   2.648  1.4374  1.2395 -1.0280
  943MOL0     H24476   3.772   0.889   2.702  1.1014 -0.7109  0.7381
  944MOL0     O24477   4.180   5.620   6.862  0.1347  0.6937  0.0390
  944MOL0     C24478   4.214   5.510   6.907 -0.3158 -0.9805 -0.0475
  944MOL0     O24479   4.130   5.405   6.935 -0.0341 -0.3550  1.1360
  944MOL0     C24480   3.992   5.411   6.920 -0.2135 -0.0739 -0.2619
  944MOL0     C24481   3.931   5.295   6.887  0.4738 -0.4069  0.6803
  944MOL0     C24482   3.789   5.278   6.869 -0.0651 -0.3781  0.3344
  944MOL0     C24483   3.701   5.387   6.896  0.0085  0.3256 -0.2104
  944MOL0     O24484   3.566   5.355   6.882  0.2316  0.3871  0.3769
  944MOL0     C24485   3.459   5.438   6.935  0.2175 -0.1583 -0.1701
  944MOL0     C24486   3.325   5.367   6.933 -0.3601 -0.6052 -0.5026
  944MOL0     C24487   3.216   5.451   7.007 -1.4718  0.3180 -0.0756
  944MOL0     C24488   3.075   5.408   6.994  0.6069  0.1736 -1.1034
  944MOL0     C24489   2.971   5.474   7.091 -0.8397 -0.7969  0.1558
  944MOL0     C24490   2.836   5.406   7.082 -0.0751  0.2401  0.8547
  944MOL0     C24491   2.723   5.467   7.176  0.6947  0.5703 -0.0101
  944MOL0     C24492   2.592   5.382   7.142 -0.6886 -1.2103 -0.0367
  944MOL0     N24493   2.565   5.258   7.218 -0.1864 -0.9501  0.3561
  944MOL0     C24494   2.554   5.248   7.354 -0.3803  0.3471 -0.0091
  944MOL0     C24495   2.536   5.114   7.376  0.0950 -0.8136  0.4822
  944MOL0     C24496   2.539   5.046   7.508  0.0012 -0.5018  0.4290
  944MOL0     C24497   2.413   4.955   7.523  1.4978 -0.5970 -0.3004
  944MOL0     C24498   2.313   5.034   7.618  0.4542 -0.3701 -0.0168
  944MOL0     C24499   2.201   4.950   7.661  0.7057  1.1163 -0.1578
  944MOL0     O24500   2.262   4.851   7.744  0.3333  0.0832 -0.1662
  944MOL0     C24501   2.192   4.740   7.784 -0.2362  0.0014  0.5039
  944MOL0     C24502   2.100   4.681   7.695  0.5681 -0.4433 -0.4213
  944MOL0     C24503   2.013   4.579   7.741  0.3524 -0.0419  0.0256
  944MOL0     C24504   2.029   4.542   7.879 -0.2703  0.1697 -0.4550
  944MOL0     C24505   1.934   4.441   7.922  0.0057  1.3409  1.0922
  944MOL0     O24506   1.819   4.420   7.856  1.4234 -0.3575 -0.1288
  944MOL0     C24507   1.718   4.333   7.891 -0.2661 -0.6917 -1.4777
  944MOL0     C24508   1.617   4.325   7.788 -0.3235  0.3228  1.3287
  944MOL0     C24509   1.505   4.235   7.806 -0.0597 -0.1540 -0.5703
  944MOL0     C24510   1.495   4.157   7.927 -0.2032 -0.7383  0.1779
  944MOL0     O24511   1.392   4.081   7.956  0.2739  0.5826  0.1803
  944MOL0     C24512   1.288   4.053   7.869 -0.2799  0.7157  0.4902
  944MOL0     C24513   1.189   3.980   7.954  0.8167  0.5630 -0.1423
  944MOL0     C24514   1.066   4.074   7.961 -0.0425 -0.5545 -0.1435
  944MOL0     C24515   0.963   4.006   8.049  0.2405 -0.4732 -0.7195
  944MOL0     C24516   0.837   4.102   8.056 -0.7518  0.1482  0.3368
  944MOL0     C24517   0.712   4.031   8.100  1.2891 -0.6521  0.0092
  944MOL0     C24518   0.591   4.125   8.087  0.1937  0.0760 -0.1458
  944MOL0     C24519   0.484   4.120   8.195 -0.3748 -1.0329  0.1890
  944MOL0    Cl24520   0.389   3.967   8.178  0.2989  0.2191 -0.0192
  944MOL0     C24521   1.599   4.168   8.018 -0.4723  0.0063  0.5163
  944MOL0     C24522   1.705   4.256   8.006  0.0937 -0.0457  0.1545
  944MOL0     O24523   1.972   4.381   8.021 -0.1260 -0.4918 -0.1432
  944MOL0     C24524   2.129   4.600   7.966 -0.5496  0.1093 -0.1669
  944MOL0     C24525   2.208   4.698   7.913  0.4776  0.4845 -0.1579
  944MOL0     N24526   2.551   5.047   7.255  0.4611 -0.1549 -0.2375
  944MOL0     N24527   2.564   5.143   7.159  0.3360  0.3657 -0.3720
  944MOL0     C24528   3.763   5.503   6.951  0.3119  0.0962  0.2563
  944MOL0     C24529   3.902   5.520   6.950 -0.4890 -0.1209  0.5700
  944MOL0     C24530   4.361   5.500   6.933  0.8037  0.7704 -0.7648
  944MOL0     C24531   4.451   5.610   6.908  1.1356 -0.2380  0.4767
  944MOL0     C24532   4.590   5.589   6.923 -0.1770  0.9624  0.1571
  944MOL0     C24533   4.643   5.467   6.972  0.3848 -0.2721  0.1458
  944MOL0     O24534   4.771   5.442   7.006 -0.1360  0.2776 -0.3292
  944MOL0     C24535   4.863   5.550   7.001  0.4063  0.1938  0.3750
  944MOL0     C24536   5.002   5.500   7.020 -0.4366  0.3688 -0.8433
  944MOL0     C24537   5.122   5.592   7.036 -0.9935  0.3495 -0.1589
  944MOL0     C24538   5.109   5.682   7.170  0.4791 -0.5083 -0.3526
  944MOL0     C24539   5.213   5.780   7.172 -0.0527 -0.1905 -0.4329
  944MOL0     C24540   5.296   5.866   7.212  0.5080  0.8615 -0.0155
  944MOL0     C24541   4.554   5.365   6.996 -0.6470  0.3174 -0.4914
  944MOL0     C24542   4.415   5.374   6.970 -0.5371  0.7849 -1.1834
  944MOL0     H24543   3.991   5.206   6.876  1.8875  0.7125 -1.4580
  944MOL0     H24544   3.750   5.187   6.825 -0.5318  0.1370 -0.3286
  944MOL0     H24545   3.442   5.532   6.881  0.8382  1.2545  1.9753
  944MOL0     H24546   3.486   5.452   7.040 -0.8264  1.0476 -0.0385
  944MOL0     H24547   3.342   5.265   6.967  1.6636  0.0933  0.7327
  944MOL0     H24548   3.297   5.344   6.829  1.3229 -1.3957 -0.8195
  944MOL0     H24549   3.225   5.541   6.946  0.8253 -0.6367 -1.2455
  944MOL0     H24550   3.235   5.458   7.114 -1.2602 -0.8075 -0.0272
  944MOL0     H24551   3.040   5.411   6.890 -1.1854 -0.8270 -0.5856
  944MOL0     H24552   3.069   5.304   7.027 -2.8312 -0.1066 -2.1481
  944MOL0     H24553   2.950   5.577   7.062  0.6773 -1.5479 -4.3701
  944MOL0     H24554   3.007   5.471   7.195  1.2024 -0.7620 -0.4965
  944MOL0     H24555   2.857   5.306   7.119  2.3621 -0.4546 -2.0263
  944MOL0     H24556   2.800   5.419   6.980 -1.0982  1.3938  1.3335
  944MOL0     H24557   2.747   5.453   7.282 -2.8753 -4.4995  0.4882
  944MOL0     H24558   2.712   5.573   7.152  3.1274  0.9960  0.4057
  944MOL0     H24559   2.588   5.358   7.035 -1.5533 -3.0825  0.3733
  944MOL0     H24560   2.506   5.444   7.169 -0.5395 -1.2054  0.4299
  944MOL0     H24561   2.579   5.329   7.423  1.1241  1.3476 -1.6560
  944MOL0     H24562   2.550   5.111   7.595 -0.6274  0.2825 -0.0659
  944MOL0     H24563   2.632   4.988   7.506  0.3306  0.0411 -0.2505
  944MOL0     H24564   2.433   4.863   7.580 -0.3421  0.3140  1.9774
  944MOL0     H24565   2.363   4.929   7.429  2.3703  0.8524 -1.2027
  944MOL0     H24566   2.368   5.076   7.702 -1.4135  1.3172  0.4171
  944MOL0     H24567   2.271   5.119   7.564 -0.2090  0.2408  1.4157
  944MOL0     H24568   2.152   4.906   7.574  2.8417 -2.3690  0.1979
  944MOL0     H24569   2.129   4.995   7.730 -0.3931 -1.3969  0.4737
  944MOL0     H24570   2.096   4.703   7.588 -1.1706 -0.7106 -0.4521
  944MOL0     H24571   1.954   4.515   7.676  1.3807  0.2097 -1.1916
  944MOL0     H24572   1.634   4.374   7.692  1.7351 -2.2728  0.2200
  944MOL0     H24573   1.424   4.223   7.735 -1.0203 -0.4711  0.5606
  944MOL0     H24574   1.328   3.982   7.796  1.7589 -1.5509  3.5600
  944MOL0     H24575   1.248   4.147   7.831 -1.1891 -0.0658 -0.5267
  944MOL0     H24576   1.231   3.946   8.049 -1.5498 -1.6917  0.2031
  944MOL0     H24577   1.150   3.894   7.900 -1.5184  1.6230 -0.2605
  944MOL0     H24578   1.030   4.084   7.858  0.2784 -0.0911 -0.2142
  944MOL0     H24579   1.094   4.173   7.999  0.6302 -0.7366 -0.1397
  944MOL0     H24580   0.930   3.912   8.004  1.2379 -0.3545 -1.7522
  944MOL0     H24581   1.004   3.979   8.147 -0.3718 -2.4385 -0.9608
  944MOL0     H24582   0.823   4.137   7.953 -0.7421  2.9398  1.1906
  944MOL0     H24583   0.856   4.189   8.121  1.3076 -0.7753  1.0672
  944MOL0     H24584   0.721   3.997   8.204 -1.8710  1.6847  1.2181
  944MOL0     H24585   0.693   3.949   8.031 -1.0521  0.9173 -1.3649
  944MOL0     H24586   0.628   4.227   8.105 -0.5538 -0.1333  3.1721
  944MOL0     H24587   0.544   4.114   7.989 -0.9356 -1.2499  0.5178
  944MOL0     H24588   0.421   4.207   8.174  1.6126  0.9245  1.8430
  944MOL0     H24589   0.527   4.127   8.295 -0.2113  1.7439  0.0079
  944MOL0     H24590   1.591   4.103   8.105 -1.3257 -1.1169 -0.3766
  944MOL0     H24591   1.781   4.268   8.082  0.9140  0.4277 -0.7206
  944MOL0     H24592   2.151   4.583   8.071  2.8146  3.3568 -0.1472
  944MOL0     H24593   2.283   4.751   7.972 -0.3329  4.0206 -2.0093
  944MOL0     H24594   3.700   5.578   6.998  0.7637 -0.5161  1.9077
  944MOL0     H24595   3.953   5.605   6.994  1.7217 -1.3623  0.5294
  944MOL0     H24596   4.412   5.706   6.877  1.1980 -1.2416 -3.1560
  944MOL0     H24597   4.651   5.674   6.893  0.7602  0.3210  0.2025
  944MOL0     H24598   4.844   5.628   7.076 -2.8691  2.0952 -2.1447
  944MOL0     H24599   4.857   5.607   6.908  2.3855 -1.3965 -0.7836
  944MOL0     H24600   5.009   5.438   7.110 -0.6275  1.2615 -0.2029
  944MOL0     H24601   5.026   5.441   6.931  0.3188  0.7728 -0.9122
  944MOL0     H24602   5.122   5.655   6.946  3.4427  0.0379 -0.5846
  944MOL0     H24603   5.219   5.542   7.038 -0.9704  0.4120  0.3567
  944MOL0     H24604   5.016   5.739   7.160  1.2349  0.5328 -1.8700
  944MOL0     H24605   5.108   5.626   7.264  1.6749  3.8662  2.5670
  944MOL0     H24606   5.369   5.938   7.241  1.7921  0.0641 -1.1366
  944MOL0     H24607   4.603   5.271   7.021 -1.6090 -0.4858 -1.5207
  944MOL0     H24608   4.352   5.287   6.987 -0.7113  0.6904 -2.2168
  945MOL0     O24609   7.520  10.246   2.740 -0.0109  0.4798  0.3095
  945MOL0     C24610   7.546  10.368   2.732 -0.2699 -0.2224 -0.0564
  945MOL0     O24611   7.456  10.471   2.711 -0.2925 -0.4930 -1.2173
  945MOL0     C24612   7.327  10.436   2.737  0.3448  0.2670  0.2461
  945MOL0     C24613   7.284  10.441   2.865 -0.4716 -0.2488 -0.7026
  945MOL0     C24614   7.149  10.412   2.892  0.4689  0.3605 -0.0611
  945MOL0     C24615   7.063  10.395   2.781 -1.1022  0.1376 -0.0254
  945MOL0     O24616   6.930  10.369   2.791 -0.5153 -0.1426 -0.0242
  945MOL0     C24617   6.875  10.354   2.921 -0.2007 -0.3263 -0.0756
  945MOL0     C24618   6.723  10.337   2.895 -1.7171 -0.5907  0.4122
  945MOL0     C24619   6.636  10.297   3.018 -0.7307 -0.4937 -0.7587
  945MOL0     C24620   6.486  10.302   2.994  0.3888  0.4378 -0.1700
  945MOL0     C24621   6.413  10.267   3.125  0.0024 -0.7464 -0.0550
  945MOL0     C24622   6.267  10.307   3.093 -0.0377  0.0097  0.5657
  945MOL0     C24623   6.187  10.262   3.219 -0.2208 -0.1207  0.3547
  945MOL0     C24624   6.039  10.284   3.192  0.2871  0.1758  0.1218
  945MOL0     N24625   5.955  10.253   3.314 -0.0413  0.7705  0.3662
  945MOL0     C24626   5.902  10.345   3.399  0.5590  0.2588 -0.6679
  945MOL0     C24627   5.827  10.275   3.487 -0.3355  0.2586 -1.4409
  945MOL0     C24628   5.731  10.326   3.591  0.5771  0.5774 -0.6591
  945MOL0     C24629   5.604  10.381   3.525 -0.1620  0.3101 -0.4204
  945MOL0     C24630   5.499  10.425   3.625 -0.5286 -0.3431  0.2696
  945MOL0     C24631   5.387  10.495   3.539  0.3717 -0.2519 -1.0436
  945MOL0     O24632   5.308  10.403   3.473 -0.1934  0.5236 -0.1746
  945MOL0     C24633   5.197  10.365   3.544  0.0689  0.0666 -0.4407
  945MOL0     C24634   5.096  10.451   3.560  0.9781 -0.6386  0.8066
  945MOL0     C24635   4.983  10.419   3.638  0.2161  0.2786  0.7053
  945MOL0     C24636   4.972  10.296   3.703  0.0111 -0.1720 -0.2869
  945MOL0     C24637   4.858  10.275   3.795 -0.4814 -0.2863  0.5835
  945MOL0     O24638   4.756  10.364   3.801  0.3181 -0.1556  0.1437
  945MOL0     C24639   4.625  10.344   3.852  0.7274  0.1732 -0.3931
  945MOL0     C24640   4.523  10.413   3.795  0.5059  0.4199 -0.3962
  945MOL0     C24641   4.391  10.379   3.830 -0.4663 -0.1426 -0.2828
  945MOL0     C24642   4.356  10.294   3.933 -0.1058  0.8445  0.5142
  945MOL0     O24643   4.224  10.280   3.959  0.5764  0.1258 -0.6407
  945MOL0     C24644   4.187  10.222   4.086  0.2141  0.3886 -0.5903
  945MOL0     C24645   4.038  10.230   4.090 -0.2831 -0.9443  0.8680
  945MOL0     C24646   3.980  10.367   4.088  0.2657  0.0296  0.3544
  945MOL0     C24647   3.819  10.367   4.075 -1.1019  0.5305  0.0452
  945MOL0     C24648   3.744  10.318   4.199 -0.6247 -0.2056 -0.3469
  945MOL0     C24649   3.600  10.306   4.169 -0.0151  0.3581 -0.1390
  945MOL0     C24650   3.528  10.210   4.258 -0.1080 -0.1379  0.5994
  945MOL0     C24651   3.383  10.215   4.242  0.0311  0.2676  0.6270
  945MOL0    Cl24652   3.325  10.377   4.291  0.1880 -0.0637 -0.5536
  945MOL0     C24653   4.461  10.237   4.001 -0.4773 -0.2535 -0.2777
  945MOL0     C24654   4.595  10.260   3.959 -0.5264  0.2060  0.0901
  945MOL0     O24655   4.859  10.165   3.858  0.6133  0.3500 -0.1849
  945MOL0     C24656   5.077  10.195   3.670  0.5243 -0.0768 -0.1709
  945MOL0     C24657   5.189  10.233   3.592 -0.9310  0.3793  0.8271
  945MOL0     N24658   5.832  10.138   3.454  0.3084  0.1531  0.5209
  945MOL0     N24659   5.914  10.129   3.351 -0.1885  0.1433  0.6581
  945MOL0     C24660   7.116  10.380   2.649  0.2943  0.4045 -0.8258
  945MOL0     C24661   7.247  10.401   2.631  0.2893 -0.3724 -0.6080
  945MOL0     C24662   7.685  10.416   2.758 -0.3882 -0.1764  0.1171
  945MOL0     C24663   7.725  10.547   2.734  0.0027 -0.2984 -0.7550
  945MOL0     C24664   7.855  10.592   2.744  0.5412  0.1695  0.8612
  945MOL0     C24665   7.952  10.506   2.784  0.3143 -0.2808  0.4096
  945MOL0     O24666   8.069  10.562   2.805  0.3830 -0.8199  0.0596
  945MOL0     C24667   8.171  10.486   2.864  0.1708  0.2339 -0.4082
  945MOL0     C24668   8.308  10.543   2.833 -0.5237 -0.1294  0.1560
  945MOL0     C24669   8.417  10.429   2.845 -0.2212  0.1397 -0.0004
  945MOL0     C24670   8.550  10.474   2.783  0.9983  0.7807 -0.6864
  945MOL0     C24671   8.656  10.369   2.815  0.2766  0.1162  0.1334
  945MOL0     C24672   8.726  10.273   2.839  0.1506 -0.0191  0.1379
  945MOL0     C24673   7.915  10.375   2.809 -0.0820 -0.1533 -0.0416
  945MOL0     C24674   7.786  10.334   2.796  0.4393  0.9091  0.2584
  945MOL0     H24675   7.349  10.459   2.950 -0.2516 -1.3956 -0.6155
  945MOL0     H24676   7.112  10.420   2.994  3.2795 -1.7722  1.2813
  945MOL0     H24677   6.889  10.436   2.993 -4.6455 -0.4120  1.1584
  945MOL0     H24678   6.919  10.263   2.962  1.4905  0.9205  1.0552
  945MOL0     H24679   6.697  10.265   2.816 -3.1457 -0.0022  0.3056
  945MOL0     H24680   6.696  10.437   2.861  3.2906  0.8892  0.0184
  945MOL0     H24681   6.676  10.369   3.091  0.7255 -1.9171 -0.1061
  945MOL0     H24682   6.669  10.201   3.059  2.0014  1.1738  1.2853
  945MOL0     H24683   6.445  10.394   2.949 -1.6513 -0.3372 -0.0153
  945MOL0     H24684   6.464  10.242   2.905  0.3806 -1.3795  1.0200
  945MOL0     H24685   6.447  10.326   3.210  1.4201  0.9983 -1.7398
  945MOL0     H24686   6.431  10.165   3.161  0.6232  0.5835  3.8723
  945MOL0     H24687   6.239  10.254   3.001 -2.2978  1.7452  0.1606
  945MOL0     H24688   6.239  10.412   3.079 -0.6632 -0.3940 -1.5639
  945MOL0     H24689   6.211  10.157   3.237 -1.2004 -0.2045  1.2429
  945MOL0     H24690   6.221  10.322   3.304  2.4363 -1.7196  0.5195
  945MOL0     H24691   6.014  10.206   3.119 -1.1250 -0.7479  1.5346
  945MOL0     H24692   6.027  10.382   3.145  0.6874 -0.1849 -0.7522
  945MOL0     H24693   5.919  10.452   3.386  1.7564  0.0115 -1.3148
  945MOL0     H24694   5.786  10.402   3.647  1.0720  0.8099 -1.4574
  945MOL0     H24695   5.709  10.246   3.663 -0.4671  0.2043 -1.3624
  945MOL0     H24696   5.551  10.305   3.467 -3.2224  1.2886  0.8480
  945MOL0     H24697   5.635  10.465   3.463  3.7129 -0.7052 -0.0956
  945MOL0     H24698   5.467  10.346   3.693  0.5589  0.1359  1.3835
  945MOL0     H24699   5.545  10.505   3.683  0.5610 -0.2994 -0.6145
  945MOL0     H24700   5.430  10.557   3.461 -0.1391  0.1180 -1.0355
  945MOL0     H24701   5.331  10.558   3.609  0.9051 -0.6662 -0.2168
  945MOL0     H24702   5.098  10.553   3.524  2.8546 -1.6016 -2.1400
  945MOL0     H24703   4.906  10.495   3.643  2.1052  2.2338  2.8919
  945MOL0     H24704   4.546  10.461   3.700  0.6314 -0.5479 -0.8639
  945MOL0     H24705   4.305  10.412   3.773  1.1305 -1.8546 -3.9644
  945MOL0     H24706   4.233  10.297   4.151  0.5025 -1.3461  1.3118
  945MOL0     H24707   4.221  10.119   4.103 -2.4303 -0.6362 -0.9831
  945MOL0     H24708   4.008  10.170   4.176  2.4801 -3.9730 -0.0522
  945MOL0     H24709   4.001  10.184   3.997 -0.3551  3.3175 -1.4621
  945MOL0     H24710   4.028  10.417   4.004  3.0580  1.5226  2.6367
  945MOL0     H24711   4.015  10.421   4.176 -1.7447 -0.4926  1.5551
  945MOL0     H24712   3.789  10.470   4.054  3.1464  1.8537 -0.4501
  945MOL0     H24713   3.798  10.306   3.987  2.9638  1.0624 -1.5358
  945MOL0     H24714   3.757  10.388   4.283 -1.6841 -0.4588  0.0526
  945MOL0     H24715   3.785  10.221   4.227  1.2455  0.3376 -1.0661
  945MOL0     H24716   3.591  10.259   4.070 -0.6438  0.0948  0.0362
  945MOL0     H24717   3.554  10.405   4.173 -0.2856  0.2842 -1.0972
  945MOL0     H24718   3.564  10.112   4.226 -0.6748  0.3530 -1.7079
  945MOL0     H24719   3.573  10.222   4.357  4.1755  2.4765 -1.3700
  945MOL0     H24720   3.331  10.147   4.310 -0.4501 -1.0943 -1.0241
  945MOL0     H24721   3.364  10.194   4.136  0.9323  0.3125  0.4416
  945MOL0     H24722   4.445  10.158   4.074  0.6381 -3.4692 -3.2245
  945MOL0     H24723   4.670  10.209   4.019 -2.1035 -3.4666 -0.8101
  945MOL0     H24724   5.075  10.091   3.700  1.3547 -0.5789 -1.7573
  945MOL0     H24725   5.270  10.161   3.586 -1.9891 -0.7241 -2.6194
  945MOL0     H24726   7.052  10.353   2.566 -0.2198 -0.7623 -0.0720
  945MOL0     H24727   7.288  10.399   2.531  0.6424  4.2586 -0.7608
  945MOL0     H24728   7.659  10.623   2.694  0.1951  1.1757  1.5363
  945MOL0     H24729   7.878  10.691   2.704 -0.3111 -1.2072 -3.6581
  945MOL0     H24730   8.166  10.384   2.824  1.7421 -0.4278  0.9443
  945MOL0     H24731   8.152  10.470   2.971 -0.5627  2.3396 -0.1873
  945MOL0     H24732   8.309  10.582   2.731 -1.0434 -1.9797 -0.5995
  945MOL0     H24733   8.329  10.628   2.899  1.9638  0.2836 -1.0484
  945MOL0     H24734   8.380  10.342   2.791  0.4386 -0.6572  0.8055
  945MOL0     H24735   8.436  10.414   2.952  0.3444  1.1328  0.0532
  945MOL0     H24736   8.538  10.480   2.675  0.5050  1.1191 -0.6151
  945MOL0     H24737   8.577  10.576   2.812 -0.4090  1.3068 -1.1689
  945MOL0     H24738   8.796  10.197   2.870 -0.9421 -0.5193  1.5262
  945MOL0     H24739   7.984  10.303   2.851  2.3229  1.2053 -1.4129
  945MOL0     H24740   7.760  10.231   2.820  0.0972  0.8326 -0.4202
  946MOL0     O24741   0.722   5.238   7.330 -0.8389  0.7506  0.2697
  946MOL0     C24742   0.788   5.173   7.249 -0.2692 -0.2127  0.1800
  946MOL0     O24743   0.754   5.061   7.186  0.4290  0.0700 -0.1626
  946MOL0     C24744   0.627   5.012   7.199 -0.8924  0.5233  0.4044
  946MOL0     C24745   0.510   5.075   7.253  0.8161  0.7027 -0.6177
  946MOL0     C24746   0.388   5.002   7.252 -0.4769 -1.3629 -0.7444
  946MOL0     C24747   0.374   4.882   7.198 -0.1487  0.1201 -0.2784
  946MOL0     O24748   0.251   4.821   7.204  0.5712  0.4680 -0.1312
  946MOL0     C24749   0.207   4.726   7.106  0.3645 -0.2083 -0.9496
  946MOL0     C24750   0.058   4.753   7.068  0.4232  0.9141  0.4831
  946MOL0     C24751   0.067   4.864   6.957  0.4938 -0.6257  0.2996
  946MOL0     C24752  -0.061   4.891   6.886 -0.3391 -0.2893  0.1119
  946MOL0     C24753  -0.173   4.952   6.974  0.2659  0.8811  0.5771
  946MOL0     C24754  -0.308   4.959   6.899  0.2934 -0.5322 -1.0196
  946MOL0     C24755  -0.411   5.026   6.992  0.7677 -0.0277 -0.0977
  946MOL0     C24756  -0.558   5.042   6.932 -0.2018 -0.7837  0.0093
  946MOL0     N24757  -0.656   5.074   7.034  0.1762  0.6494 -0.6021
  946MOL0     C24758  -0.721   4.982   7.122 -0.3273 -0.0017 -0.0452
  946MOL0     C24759  -0.836   5.040   7.167  0.0023  0.3729  0.9920
  946MOL0     C24760  -0.937   4.990   7.260 -0.6673 -0.7689 -0.2888
  946MOL0     C24761  -1.000   4.863   7.214 -0.2463 -0.4198 -1.3068
  946MOL0     C24762  -1.052   4.868   7.073  0.1658  0.3220  1.1686
  946MOL0     C24763  -1.184   4.948   7.070  0.3258  0.4112 -0.9727
  946MOL0     O24764  -1.276   4.874   7.151  0.5644 -0.4592  0.2599
  946MOL0     C24765  -1.400   4.939   7.159 -0.2052  0.9745 -0.5544
  946MOL0     C24766  -1.503   4.905   7.076  0.3550  0.2922 -0.6955
  946MOL0     C24767  -1.630   4.969   7.075 -0.6284 -0.0538  0.2206
  946MOL0     C24768  -1.639   5.079   7.164 -0.3313 -0.6673 -0.4775
  946MOL0     C24769  -1.759   5.165   7.165 -0.4084  0.1687 -0.6640
  946MOL0     O24770  -1.740   5.298   7.203  0.2184  0.0322 -0.1791
  946MOL0     C24771  -1.850   5.376   7.241  0.2408  0.3307  0.7844
  946MOL0     C24772  -1.826   5.518   7.261 -0.6919  0.1027  0.2834
  946MOL0     C24773  -1.922   5.595   7.326  0.1727  0.6601 -0.1446
  946MOL0     C24774  -2.050   5.548   7.344  1.0578  0.0919 -0.1588
  946MOL0     O24775  -2.142   5.643   7.383  0.9175 -0.6896 -0.5791
  946MOL0     C24776  -2.284   5.613   7.373 -0.9702 -0.1353 -0.8671
  946MOL0     C24777  -2.357   5.717   7.465  0.0300 -0.3252 -0.4019
  946MOL0     C24778  -2.504   5.714   7.419  0.2127  0.3818 -0.0142
  946MOL0     C24779  -2.569   5.575   7.444  0.5387  0.3088 -0.6952
  946MOL0     C24780  -2.724   5.566   7.405  0.1479 -0.3678  0.6585
  946MOL0     C24781  -2.808   5.641   7.511 -0.5544 -0.3917 -0.1624
  946MOL0     C24782  -2.955   5.642   7.494 -0.4851 -0.0152  0.0711
  946MOL0     C24783  -3.013   5.704   7.368 -0.2751 -0.8166 -0.6374
  946MOL0    Cl24784  -3.029   5.595   7.226  0.2625  0.5276  0.2517
  946MOL0     C24785  -2.081   5.418   7.325  0.6733  0.1330 -0.1671
  946MOL0     C24786  -1.986   5.332   7.277  0.3382 -0.2997 -0.4051
  946MOL0     O24787  -1.864   5.111   7.120  0.5705 -0.3533 -0.5080
  946MOL0     C24788  -1.527   5.118   7.251  0.7796  0.1714 -0.0859
  946MOL0     C24789  -1.409   5.043   7.243 -0.6747 -0.8777 -0.3054
  946MOL0     N24790  -0.841   5.158   7.100 -0.1418 -0.4062  0.0667
  946MOL0     N24791  -0.746   5.176   7.012 -0.8747  0.5687  0.3810
  946MOL0     C24792   0.493   4.819   7.152  0.1923 -0.2626 -0.3305
  946MOL0     C24793   0.615   4.877   7.154 -0.1377 -0.0259 -0.1764
  946MOL0     C24794   0.930   5.222   7.215 -0.6321 -0.0188 -1.0558
  946MOL0     C24795   0.999   5.175   7.100  0.5054  0.7022  0.0619
  946MOL0     C24796   1.125   5.226   7.062 -0.0077 -0.2344 -0.0885
  946MOL0     C24797   1.188   5.319   7.151 -0.7230 -0.0503 -0.3829
  946MOL0     O24798   1.323   5.360   7.113 -0.3023 -0.9932  0.2795
  946MOL0     C24799   1.378   5.468   7.190 -0.1645  0.1089  0.6848
  946MOL0     C24800   1.498   5.524   7.114 -1.1805 -0.8826 -0.3782
  946MOL0     C24801   1.623   5.431   7.103 -0.1998  0.5120 -0.4346
  946MOL0     C24802   1.730   5.490   7.011 -0.1661 -0.9847 -0.9115
  946MOL0     C24803   1.716   5.443   6.871 -0.4954  0.4940 -0.6546
  946MOL0     C24804   1.705   5.390   6.765  0.5749 -0.1072  0.1993
  946MOL0     C24805   1.118   5.371   7.259 -0.2629  0.6618 -0.3408
  946MOL0     C24806   0.991   5.326   7.297  0.6344  1.0400  0.4075
  946MOL0     H24807   0.505   5.176   7.291 -1.9656  1.3271 -2.3729
  946MOL0     H24808   0.293   5.043   7.287 -0.6836  0.1610 -2.8947
  946MOL0     H24809   0.218   4.624   7.144  1.2434 -0.3172 -1.4909
  946MOL0     H24810   0.271   4.731   7.018  1.0679 -0.8280 -0.4936
  946MOL0     H24811   0.001   4.785   7.156 -0.6578 -0.9153  0.5095
  946MOL0     H24812   0.007   4.666   7.025  0.9114  0.6629  0.3976
  946MOL0     H24813   0.138   4.820   6.885 -0.2489 -0.4651 -0.5526
  946MOL0     H24814   0.102   4.955   7.008 -0.5673 -1.0428  1.8127
  946MOL0     H24815  -0.040   4.963   6.806 -5.2243  1.6398  0.2357
  946MOL0     H24816  -0.100   4.795   6.851  0.2891 -1.1921  1.7849
  946MOL0     H24817  -0.142   5.053   7.003  1.7915  1.3711 -2.3252
  946MOL0     H24818  -0.206   4.894   7.060  0.8644 -0.9684 -0.3930
  946MOL0     H24819  -0.341   4.861   6.864 -2.0670  0.0335 -0.5149
  946MOL0     H24820  -0.301   5.027   6.814  1.9791 -2.4615 -2.5470
  946MOL0     H24821  -0.415   4.962   7.081 -0.3273  0.9859  0.6020
  946MOL0     H24822  -0.362   5.120   7.020 -1.8307  0.8243  1.9440
  946MOL0     H24823  -0.602   4.954   6.884 -3.1175  1.5443 -1.9332
  946MOL0     H24824  -0.545   5.122   6.858 -0.3641 -3.5796 -3.2615
  946MOL0     H24825  -0.684   4.889   7.164 -0.6414  1.2573  3.2923
  946MOL0     H24826  -1.013   5.062   7.291 -2.6933 -1.4946 -3.1563
  946MOL0     H24827  -0.877   4.967   7.349  2.2093  0.8520 -1.6613
  946MOL0     H24828  -1.084   4.831   7.276 -0.2916  1.2506 -0.4605
  946MOL0     H24829  -0.922   4.786   7.214 -1.2251 -1.4570 -2.2050
  946MOL0     H24830  -0.987   4.901   6.992 -3.6636  0.0991 -2.3817
  946MOL0     H24831  -1.061   4.760   7.059 -1.0435  0.6845 -1.5859
  946MOL0     H24832  -1.227   4.964   6.971 -1.0240  0.2827 -0.4311
  946MOL0     H24833  -1.151   5.046   7.107  1.9981  0.4124 -2.3442
  946MOL0     H24834  -1.488   4.827   7.001 -0.3256  1.5311 -2.1715
  946MOL0     H24835  -1.703   4.955   6.995 -1.0753  1.0444  0.4291
  946MOL0     H24836  -1.732   5.566   7.235 -1.8764  2.0244 -0.7340
  946MOL0     H24837  -1.898   5.697   7.355  0.5108  0.2828  0.9500
  946MOL0     H24838  -2.310   5.515   7.412 -2.0334  1.2014  2.0722
  946MOL0     H24839  -2.303   5.624   7.266  2.8159  0.8182 -1.5917
  946MOL0     H24840  -2.312   5.814   7.443  0.4342 -0.8517 -2.0841
  946MOL0     H24841  -2.345   5.695   7.571 -1.2103  0.9519  0.0352
  946MOL0     H24842  -2.497   5.743   7.314 -0.2197 -0.7304 -0.3631
  946MOL0     H24843  -2.552   5.794   7.477 -0.5377  0.2718 -0.4728
  946MOL0     H24844  -2.523   5.500   7.379  0.2122  0.9638 -1.7133
  946MOL0     H24845  -2.575   5.544   7.549 -4.2237 -0.1616 -0.8707
  946MOL0     H24846  -2.754   5.461   7.402  0.1457 -0.5173  3.2776
  946MOL0     H24847  -2.735   5.615   7.308  0.7435  0.5803  1.0535
  946MOL0     H24848  -2.766   5.742   7.514  0.3170 -0.3717 -5.0389
  946MOL0     H24849  -2.789   5.598   7.610 -1.0827 -2.1290 -0.7777
  946MOL0     H24850  -3.003   5.544   7.494 -1.7787  0.4846 -3.3988
  946MOL0     H24851  -2.993   5.702   7.578  0.4015  0.2826  0.2753
  946MOL0     H24852  -2.958   5.795   7.343  0.0651 -1.1235 -1.0279
  946MOL0     H24853  -3.116   5.736   7.383  0.3851  1.2446 -0.1544
  946MOL0     H24854  -2.173   5.365   7.342 -0.7205  3.0753  2.5280
  946MOL0     H24855  -2.014   5.227   7.276 -0.2826 -0.1534  0.1776
  946MOL0     H24856  -1.532   5.202   7.319 -3.7616 -1.0633  1.4911
  946MOL0     H24857  -1.322   5.063   7.305  0.0887 -0.3226 -1.5320
  946MOL0     H24858   0.496   4.718   7.112 -2.1889 -0.2730 -0.6225
  946MOL0     H24859   0.702   4.827   7.114 -1.1687 -1.0081 -1.2577
  946MOL0     H24860   0.944   5.117   7.026  0.6403 -1.1906  1.3765
  946MOL0     H24861   1.170   5.182   6.974  2.3062 -1.3745  1.5791
  946MOL0     H24862   1.406   5.422   7.285  0.4323  0.7046  0.8023
  946MOL0     H24863   1.306   5.551   7.198 -1.0293 -0.3347 -1.6282
  946MOL0     H24864   1.469   5.550   7.011  1.4705 -0.0997 -1.0009
  946MOL0     H24865   1.532   5.617   7.161 -2.2133 -0.6084 -0.1358
  946MOL0     H24866   1.593   5.340   7.050  1.8962 -0.8060  0.5240
  946MOL0     H24867   1.668   5.411   7.200  0.0768 -0.6988 -0.7885
  946MOL0     H24868   1.728   5.599   7.006 -0.2444 -0.9610 -0.4384
  946MOL0     H24869   1.830   5.464   7.048  0.6658  0.7721 -1.8015
  946MOL0     H24870   1.689   5.334   6.675 -0.8687  2.4731 -1.2773
  946MOL0     H24871   1.163   5.442   7.328  0.7854  1.5475 -1.8766
  946MOL0     H24872   0.943   5.380   7.378 -1.4223 -0.6747  0.4132
  947MOL0     O24873   7.174   2.213   1.582 -0.0545 -0.4019 -0.4106
  947MOL0     C24874   7.212   2.317   1.525 -0.1131  0.5175 -0.8210
  947MOL0     O24875   7.137   2.398   1.456 -0.5112  0.4733  0.1401
  947MOL0     C24876   7.002   2.360   1.453 -1.1821 -0.4451 -0.7799
  947MOL0     C24877   6.912   2.438   1.535  0.1271  0.4200 -0.2023
  947MOL0     C24878   6.778   2.420   1.519 -0.0855  0.3020  0.4145
  947MOL0     C24879   6.728   2.326   1.430  0.1751  0.7011 -0.1710
  947MOL0     O24880   6.594   2.319   1.406  0.3982 -0.4203 -0.4730
  947MOL0     C24881   6.529   2.211   1.474  0.4859 -0.9436 -0.6126
  947MOL0     C24882   6.377   2.225   1.475  0.3872 -0.2380  0.1545
  947MOL0     C24883   6.319   2.117   1.564  0.0327  0.3488 -0.6186
  947MOL0     C24884   6.174   2.106   1.538 -1.3448 -0.1462 -0.1624
  947MOL0     C24885   6.103   2.025   1.639 -0.1624  0.8061  0.1782
  947MOL0     C24886   5.960   1.973   1.612 -0.4994 -0.7711  0.1634
  947MOL0     C24887   5.865   2.088   1.633 -0.5771  0.6457 -0.1857
  947MOL0     C24888   5.840   2.128   1.781  0.2767 -0.6882  0.4951
  947MOL0     N24889   5.819   2.024   1.876 -0.3612  0.6400 -0.5593
  947MOL0     C24890   5.698   1.974   1.897  0.3920  0.1000  1.0904
  947MOL0     C24891   5.707   1.879   1.999  0.3545  0.2397  0.3902
  947MOL0     C24892   5.598   1.776   2.032  0.0839 -0.3212 -0.6717
  947MOL0     C24893   5.466   1.852   2.067 -0.4314 -0.2082 -0.3476
  947MOL0     C24894   5.350   1.754   2.055  0.5164 -0.0814 -0.5709
  947MOL0     C24895   5.220   1.829   2.052 -0.1775  1.1037 -0.3938
  947MOL0     O24896   5.191   1.863   2.196 -0.2764 -0.9000  0.0414
  947MOL0     C24897   5.061   1.879   2.228 -0.0682  0.2116 -1.3030
  947MOL0     C24898   5.027   1.862   2.361  0.2554 -0.2202 -0.2282
  947MOL0     C24899   4.902   1.894   2.409  0.5225  0.7574  0.2763
  947MOL0     C24900   4.806   1.958   2.323  0.4869  0.8542  1.3394
  947MOL0     C24901   4.669   2.002   2.372 -0.8256  0.4581  0.2689
  947MOL0     O24902   4.665   1.993   2.513  1.2326 -0.5772  0.4155
  947MOL0     C24903   4.558   2.021   2.587  0.5159 -0.3484 -0.7958
  947MOL0     C24904   4.434   2.072   2.538 -0.1053 -1.3025 -0.4421
  947MOL0     C24905   4.326   2.090   2.626 -0.3700 -0.0589  0.2112
  947MOL0     C24906   4.330   2.034   2.750  0.5328 -0.1336 -0.0826
  947MOL0     O24907   4.210   2.044   2.818 -0.4650  0.3098 -0.5422
  947MOL0     C24908   4.192   1.981   2.946  0.0505 -0.3024 -0.1201
  947MOL0     C24909   4.052   2.016   3.002 -0.0570 -0.6196  0.0757
  947MOL0     C24910   3.938   1.964   2.911 -0.1560 -0.1799  0.9377
  947MOL0     C24911   3.800   2.023   2.954 -0.6140 -0.5779 -0.2662
  947MOL0     C24912   3.690   1.943   2.904 -0.5868 -0.2942 -0.4148
  947MOL0     C24913   3.675   1.822   3.003  0.0985 -0.0219 -0.2056
  947MOL0     C24914   3.534   1.810   3.071  0.2519  0.1266  0.7881
  947MOL0     C24915   3.433   1.766   2.966 -0.8022 -1.1470  0.1396
  947MOL0    Cl24916   3.262   1.807   2.985 -0.1557 -0.5053 -0.4425
  947MOL0     C24917   4.447   1.980   2.800  0.3241  0.3683 -0.1359
  947MOL0     C24918   4.556   1.969   2.716  0.0555  0.9929  0.0386
  947MOL0     O24919   4.587   2.050   2.294  0.2390  0.2515  0.0136
  947MOL0     C24920   4.845   1.971   2.186 -0.1187  0.5932  0.8089
  947MOL0     C24921   4.971   1.936   2.142 -0.1680 -0.9786  0.0048
  947MOL0     N24922   5.840   1.883   2.036  0.4260 -0.4176  0.4840
  947MOL0     N24923   5.908   1.969   1.964  0.8304  0.7817  0.1004
  947MOL0     C24924   6.808   2.251   1.354 -0.6160 -0.1041  0.8880
  947MOL0     C24925   6.948   2.265   1.362  0.6918  0.0628 -0.4938
  947MOL0     C24926   7.357   2.319   1.527  0.1684  0.0588 -0.3234
  947MOL0     C24927   7.441   2.235   1.602  0.3931 -0.4599 -0.5527
  947MOL0     C24928   7.578   2.241   1.621 -0.3986 -0.0946  0.8119
  947MOL0     C24929   7.655   2.338   1.544  0.1809 -0.1881 -0.7735
  947MOL0     O24930   7.792   2.356   1.550  0.3756 -0.0789 -0.4673
  947MOL0     C24931   7.871   2.266   1.629  0.1478 -0.7007 -0.3378
  947MOL0     C24932   7.958   2.175   1.547 -0.0797  0.2084 -0.3434
  947MOL0     C24933   8.052   2.246   1.464  0.4363  0.1488 -0.9844
  947MOL0     C24934   8.131   2.160   1.357 -0.1408 -1.0218 -0.0328
  947MOL0     C24935   8.237   2.089   1.434 -0.1004 -0.2644  0.2490
  947MOL0     C24936   8.330   2.033   1.497  0.3375  0.4464 -1.2230
  947MOL0     C24937   7.581   2.431   1.474  0.0566  0.2505 -0.2326
  947MOL0     C24938   7.437   2.415   1.465  0.1715 -0.1912  0.2547
  947MOL0     H24939   6.953   2.504   1.610  0.8729  0.1333 -0.3419
  947MOL0     H24940   6.714   2.473   1.588  0.2595  2.1830 -0.6341
  947MOL0     H24941   6.551   2.217   1.581 -1.7937  3.0754 -0.1954
  947MOL0     H24942   6.556   2.115   1.430 -0.4212 -0.9479 -1.1717
  947MOL0     H24943   6.335   2.236   1.375  0.8729  2.4631  0.1559
  947MOL0     H24944   6.356   2.320   1.526  0.3645  0.6769 -1.5102
  947MOL0     H24945   6.336   2.140   1.670 -0.5445 -0.7067 -0.2865
  947MOL0     H24946   6.372   2.021   1.561 -0.8072 -0.1431  0.0576
  947MOL0     H24947   6.140   2.210   1.541 -0.4906  0.1167  1.4304
  947MOL0     H24948   6.161   2.068   1.437  1.6365  2.0974 -1.5508
  947MOL0     H24949   6.099   2.079   1.734  1.7390  2.3747 -0.5587
  947MOL0     H24950   6.155   1.930   1.653  0.4106  1.1985  0.7739
  947MOL0     H24951   5.939   1.885   1.674 -1.4719 -2.0569 -1.8889
  947MOL0     H24952   5.960   1.946   1.506 -1.8327  0.0047 -0.0663
  947MOL0     H24953   5.895   2.174   1.572  0.8539  0.8223  0.6990
  947MOL0     H24954   5.770   2.057   1.591  0.4166 -0.4725 -1.7215
  947MOL0     H24955   5.759   2.201   1.786  1.1811  0.5245 -1.4741
  947MOL0     H24956   5.928   2.183   1.816 -0.4918  0.7271  0.2780
  947MOL0     H24957   5.607   1.990   1.841  1.2105 -0.2904 -0.3864
  947MOL0     H24958   5.635   1.714   2.114  0.6850  1.0386  0.1144
  947MOL0     H24959   5.585   1.723   1.937  1.3084 -1.0083 -0.4839
  947MOL0     H24960   5.451   1.937   2.001  3.4033  0.6029 -0.3850
  947MOL0     H24961   5.477   1.894   2.168 -2.2911  2.2266 -1.0546
  947MOL0     H24962   5.349   1.703   1.958 -2.0689 -0.1378 -0.5831
  947MOL0     H24963   5.356   1.677   2.133 -1.2785  0.2419 -0.0839
  947MOL0     H24964   5.138   1.770   2.009 -1.1623  1.1170  1.3840
  947MOL0     H24965   5.216   1.921   1.993 -1.0478  1.4577  0.1985
  947MOL0     H24966   5.103   1.831   2.432  0.1856 -1.5570 -0.7033
  947MOL0     H24967   4.879   1.878   2.514  1.3245  0.2781  0.3894
  947MOL0     H24968   4.410   2.103   2.437 -1.6129 -0.8357  0.0357
  947MOL0     H24969   4.230   2.137   2.605 -0.7700  0.9814  3.7064
  947MOL0     H24970   4.253   2.028   3.024 -1.4635 -0.4188  1.1897
  947MOL0     H24971   4.213   1.874   2.937  2.6357 -0.4637  4.5821
  947MOL0     H24972   4.055   2.125   3.011 -0.3731 -0.3770 -2.1666
  947MOL0     H24973   4.036   1.972   3.101  0.4851 -1.6288 -0.2722
  947MOL0     H24974   3.938   1.855   2.923 -0.2906 -0.0702  2.0737
  947MOL0     H24975   3.956   1.987   2.806  0.2912 -2.0950  0.5565
  947MOL0     H24976   3.781   2.039   3.061 -1.9382  1.1324 -0.7250
  947MOL0     H24977   3.800   2.120   2.904 -0.2462 -0.3263  0.2036
  947MOL0     H24978   3.706   1.918   2.798 -0.3871 -4.4501  0.4072
  947MOL0     H24979   3.596   1.997   2.886 -1.1958 -1.2669 -0.2461
  947MOL0     H24980   3.749   1.834   3.082 -0.5187  0.6439  0.2788
  947MOL0     H24981   3.693   1.737   2.936  2.0229  1.3808 -1.5877
  947MOL0     H24982   3.528   1.748   3.161 -2.7362 -0.8094  0.0306
  947MOL0     H24983   3.510   1.913   3.102  0.8378  1.0810 -1.7104
  947MOL0     H24984   3.457   1.662   2.942  1.5984 -1.2756  2.5141
  947MOL0     H24985   3.446   1.824   2.875  0.1420 -0.5133  0.6627
  947MOL0     H24986   4.450   1.926   2.894  1.1441 -2.2688 -1.5607
  947MOL0     H24987   4.649   1.920   2.743  0.0328  0.5082 -0.7417
  947MOL0     H24988   4.774   1.999   2.109  1.2050  5.3065  0.9672
  947MOL0     H24989   4.982   1.955   2.036 -0.0857 -0.5842  0.0835
  947MOL0     H24990   6.752   2.184   1.290  1.8524  0.1381 -1.7486
  947MOL0     H24991   7.019   2.211   1.301 -0.1717 -2.3841  0.5094
  947MOL0     H24992   7.397   2.158   1.664  0.4025 -0.6429 -0.7770
  947MOL0     H24993   7.632   2.167   1.680  2.2638  1.9551  1.1093
  947MOL0     H24994   7.816   2.208   1.703  0.3066 -1.4519 -0.7999
  947MOL0     H24995   7.933   2.330   1.692 -0.5446 -0.2311 -0.1107
  947MOL0     H24996   8.013   2.095   1.597  0.2086 -1.3534 -3.0094
  947MOL0     H24997   7.895   2.114   1.481 -0.0754 -0.7615  0.5298
  947MOL0     H24998   8.131   2.298   1.520 -0.3644 -0.2497  0.5498
  947MOL0     H24999   7.996   2.314   1.399 -1.8158 -1.3050 -0.6397
  947MOL0     H25000   8.069   2.088   1.304 -1.6343  1.5111 -1.9335
  947MOL0     H25001   8.168   2.238   1.291 -2.4945  0.5388  0.3655
  947MOL0     H25002   8.408   1.996   1.560 -1.6617  0.4353  1.4534
  947MOL0     H25003   7.637   2.514   1.434  0.5216  0.2605  0.4283
  947MOL0     H25004   7.383   2.486   1.402 -1.9395 -2.2747 -0.4231
  948MOL0     O25005   5.353   8.682   8.657  0.3203 -1.0011  0.1877
  948MOL0     C25006   5.265   8.634   8.594 -0.5170  0.9543  0.7767
  948MOL0     O25007   5.257   8.635   8.448 -0.1470 -0.0397 -0.4932
  948MOL0     C25008   5.364   8.689   8.386 -0.2081 -0.0646 -1.2892
  948MOL0     C25009   5.459   8.604   8.322 -0.0968 -0.3409 -0.8261
  948MOL0     C25010   5.551   8.651   8.230 -0.3747 -1.3431  0.3872
  948MOL0     C25011   5.557   8.790   8.202 -1.3235  0.4103 -1.1263
  948MOL0     O25012   5.650   8.853   8.114 -0.2557 -0.3224 -0.2774
  948MOL0     C25013   5.762   8.773   8.070 -0.5397  0.7348  0.2371
  948MOL0     C25014   5.886   8.845   8.005  0.8455 -0.3917 -0.3525
  948MOL0     C25015   6.020   8.806   8.061 -0.0231 -0.1456  0.4191
  948MOL0     C25016   6.126   8.901   8.012 -1.0174  1.0351 -0.2189
  948MOL0     C25017   6.272   8.845   8.018  0.1479 -0.2990  0.7515
  948MOL0     C25018   6.354   8.964   7.965 -0.4475  0.5553  0.0944
  948MOL0     C25019   6.506   8.942   7.974  0.0926  0.4734  0.4789
  948MOL0     C25020   6.599   8.994   7.869  0.8356  0.5933  0.1446
  948MOL0     N25021   6.740   8.992   7.919  1.1584 -0.0258 -0.6231
  948MOL0     C25022   6.813   9.103   7.942  0.3735 -0.4159  0.6998
  948MOL0     C25023   6.933   9.060   7.976 -0.1524  0.4257  0.2006
  948MOL0     C25024   7.050   9.153   8.009 -0.1176 -0.6185 -0.0234
  948MOL0     C25025   7.015   9.240   8.132 -1.1535  0.2805 -0.0041
  948MOL0     C25026   7.041   9.392   8.104 -0.0153  0.5759 -0.3476
  948MOL0     C25027   6.922   9.470   8.049  0.2297  0.6434 -0.3834
  948MOL0     O25028   6.805   9.438   8.118  0.6999  0.0887  0.1113
  948MOL0     C25029   6.690   9.468   8.045  0.4163 -0.3279  1.0585
  948MOL0     C25030   6.674   9.575   7.955 -0.1247  0.1837 -0.1634
  948MOL0     C25031   6.564   9.580   7.860  1.3907  0.0774 -0.0280
  948MOL0     C25032   6.454   9.491   7.876  0.7450  0.5452 -0.1006
  948MOL0     C25033   6.330   9.517   7.798 -0.7647 -0.5974  0.2705
  948MOL0     O25034   6.207   9.494   7.856  0.3065 -0.3725 -0.3557
  948MOL0     C25035   6.089   9.518   7.797  0.7011 -1.5285 -0.3990
  948MOL0     C25036   5.968   9.542   7.871  0.3469  0.5180 -0.2081
  948MOL0     C25037   5.839   9.543   7.814 -0.2495  0.3751  0.6938
  948MOL0     C25038   5.828   9.546   7.676  0.4030 -0.7446 -0.1801
  948MOL0     O25039   5.723   9.585   7.596  0.7378 -0.2569 -0.3618
  948MOL0     C25040   5.591   9.601   7.656 -0.7663  0.0007 -0.1502
  948MOL0     C25041   5.499   9.694   7.582 -0.2813 -0.6877 -0.0512
  948MOL0     C25042   5.569   9.820   7.526 -0.0483  0.0320 -0.1588
  948MOL0     C25043   5.476   9.944   7.512  0.6543  1.1035 -0.1560
  948MOL0     C25044   5.553  10.054   7.433 -0.0244  0.5500 -0.0692
  948MOL0     C25045   5.485  10.189   7.419 -0.2216  0.4358 -0.1166
  948MOL0     C25046   5.566  10.278   7.332 -0.4650 -0.1260 -0.1133
  948MOL0     C25047   5.581  10.241   7.179  0.7564  0.2446 -0.2573
  948MOL0    Cl25048   5.439  10.273   7.088 -0.2777 -0.0597 -0.0227
  948MOL0     C25049   5.946   9.529   7.601  0.7904 -0.3373  0.7284
  948MOL0     C25050   6.077   9.522   7.662 -0.1540 -0.1034 -0.5147
  948MOL0     O25051   6.352   9.583   7.688  0.5940  0.5494 -0.6528
  948MOL0     C25052   6.458   9.400   7.979  0.0022 -0.4382 -0.6650
  948MOL0     C25053   6.579   9.379   8.048 -0.4452  0.4474  0.4974
  948MOL0     N25054   6.933   8.918   7.969 -0.2661  0.3466 -0.2844
  948MOL0     N25055   6.817   8.883   7.947  0.4110 -0.4524 -0.6634
  948MOL0     C25056   5.468   8.880   8.267  0.7245 -0.1616  0.0572
  948MOL0     C25057   5.368   8.823   8.359 -0.8904 -0.0568 -0.3216
  948MOL0     C25058   5.151   8.571   8.653 -0.6001  0.9045 -0.9016
  948MOL0     C25059   5.038   8.523   8.582 -0.2964  0.4949 -0.2849
  948MOL0     C25060   4.934   8.458   8.656  0.2050  0.5784  0.6166
  948MOL0     C25061   4.926   8.458   8.796 -0.5322  1.1424 -0.3624
  948MOL0     O25062   4.827   8.399   8.871 -0.4017 -0.2722 -0.3666
  948MOL0     C25063   4.691   8.449   8.845  0.0186 -0.3922  0.0200
  948MOL0     C25064   4.627   8.471   8.982 -0.2586  0.4491  0.9694
  948MOL0     C25065   4.514   8.583   8.969 -1.1584 -0.2388  0.1401
  948MOL0     C25066   4.392   8.555   9.047  0.5856  0.3959  0.1727
  948MOL0     C25067   4.413   8.594   9.191  0.0837  0.7529  0.0459
  948MOL0     C25068   4.437   8.629   9.300 -0.3395 -0.0128 -0.4090
  948MOL0     C25069   5.033   8.515   8.862  0.0312 -0.1203  0.3074
  948MOL0     C25070   5.138   8.559   8.793 -0.4715 -0.9538  0.2260
  948MOL0     H25071   5.462   8.500   8.353  1.7160  0.5526  2.5261
  948MOL0     H25072   5.623   8.589   8.178 -0.6535 -0.1002 -1.6007
  948MOL0     H25073   5.733   8.692   8.001  0.8778  1.8796 -1.8333
  948MOL0     H25074   5.804   8.741   8.165  1.6127 -0.2389 -0.9654
  948MOL0     H25075   5.866   8.949   8.033  3.2081  0.0448 -0.1019
  948MOL0     H25076   5.880   8.839   7.896  0.5535 -0.2555 -0.3453
  948MOL0     H25077   6.043   8.706   8.023  0.0892 -0.0351  0.1950
  948MOL0     H25078   6.015   8.809   8.170 -0.6616  1.9906  0.3824
  948MOL0     H25079   6.097   8.920   7.908 -3.8350  2.3355  0.7029
  948MOL0     H25080   6.120   8.998   8.060  2.2050  2.7078 -2.7237
  948MOL0     H25081   6.262   8.761   7.949 -2.7489 -1.3169  2.2237
  948MOL0     H25082   6.296   8.810   8.119  0.0116  0.0297  0.9000
  948MOL0     H25083   6.328   9.061   8.009  0.3956  0.5485  0.6307
  948MOL0     H25084   6.338   8.982   7.858 -0.3087  1.0775  0.1560
  948MOL0     H25085   6.524   9.004   8.062 -0.8841  4.7186 -2.0613
  948MOL0     H25086   6.533   8.836   7.983 -0.1910  0.5310  2.6787
  948MOL0     H25087   6.592   9.101   7.846  2.8112  1.0890  1.5597
  948MOL0     H25088   6.591   8.929   7.782 -0.3166  1.9144 -0.7944
  948MOL0     H25089   6.785   9.208   7.948  2.2583  0.0491  3.1404
  948MOL0     H25090   7.072   9.216   7.923 -1.7786 -1.6307 -1.2703
  948MOL0     H25091   7.146   9.105   8.032 -0.3239  0.1486  2.7995
  948MOL0     H25092   7.077   9.199   8.212 -1.4115 -0.2130 -0.0548
  948MOL0     H25093   6.909   9.229   8.158 -1.2831 -0.9620 -0.9463
  948MOL0     H25094   7.064   9.426   8.206 -0.7495  0.6280 -0.1911
  948MOL0     H25095   7.128   9.403   8.038 -0.3317 -2.8189 -1.5048
  948MOL0     H25096   6.920   9.440   7.944  2.6431 -1.2890  0.0361
  948MOL0     H25097   6.948   9.576   8.056  0.9434  0.3986  0.9531
  948MOL0     H25098   6.753   9.650   7.946  1.8869 -1.6796  1.0032
  948MOL0     H25099   6.564   9.657   7.784 -2.8102 -0.9396 -1.3147
  948MOL0     H25100   5.973   9.546   7.980 -2.4086  1.0494 -0.0317
  948MOL0     H25101   5.755   9.551   7.883  0.3910 -0.6728  1.6170
  948MOL0     H25102   5.605   9.641   7.757 -3.5606 -2.4820  1.4032
  948MOL0     H25103   5.543   9.503   7.648 -2.3286  0.8408 -1.6954
  948MOL0     H25104   5.419   9.735   7.645 -0.1268  3.0292 -1.9717
  948MOL0     H25105   5.455   9.641   7.497  0.2237 -0.2836 -0.5731
  948MOL0     H25106   5.618   9.799   7.431  2.0326 -1.1826  1.1138
  948MOL0     H25107   5.648   9.852   7.595 -1.0696 -0.8112  1.4725
  948MOL0     H25108   5.392   9.909   7.452  2.0954  1.5398 -2.5934
  948MOL0     H25109   5.451   9.987   7.610  3.3329  0.0065  1.1101
  948MOL0     H25110   5.569  10.012   7.334 -1.4453 -0.6426  0.1629
  948MOL0     H25111   5.648  10.071   7.484 -0.6863 -1.6019  2.0923
  948MOL0     H25112   5.468  10.221   7.522 -0.8212 -0.7408  0.1676
  948MOL0     H25113   5.386  10.173   7.376 -0.1046  2.4169 -1.2178
  948MOL0     H25114   5.527  10.380   7.333  1.3006  0.7131 -3.2505
  948MOL0     H25115   5.666  10.294   7.373 -1.8806  1.6299  3.0251
  948MOL0     H25116   5.598  10.133   7.175  0.0871 -0.0224  2.2605
  948MOL0     H25117   5.666  10.291   7.130 -0.8760  0.9380 -2.5262
  948MOL0     H25118   5.925   9.532   7.495 -1.4231 -1.6997  1.0616
  948MOL0     H25119   6.163   9.498   7.601  0.6461  0.6054  0.3115
  948MOL0     H25120   6.376   9.336   8.010  1.5668 -0.5309  4.1994
  948MOL0     H25121   6.588   9.292   8.113 -0.4703 -0.1628 -0.2992
  948MOL0     H25122   5.461   8.984   8.238 -3.0244 -0.3670 -0.1589
  948MOL0     H25123   5.289   8.889   8.394 -0.7657  0.0741 -0.2831
  948MOL0     H25124   5.032   8.543   8.476  1.3906  0.9509 -0.3272
  948MOL0     H25125   4.859   8.401   8.602  0.6737  0.5907 -0.0537
  948MOL0     H25126   4.626   8.380   8.791 -0.2930  0.1806 -0.3450
  948MOL0     H25127   4.690   8.548   8.798 -1.8226  1.1792  3.0826
  948MOL0     H25128   4.591   8.376   9.021 -0.9154  0.1281 -0.3563
  948MOL0     H25129   4.702   8.513   9.050  0.6371  1.7260 -0.7290
  948MOL0     H25130   4.478   8.579   8.865 -1.5655  3.6249 -0.0012
  948MOL0     H25131   4.545   8.684   8.996 -0.6731 -0.8521  1.9986
  948MOL0     H25132   4.312   8.611   8.998  0.0914  0.1096  0.6397
  948MOL0     H25133   4.374   8.447   9.049 -2.6950  0.8446  0.8092
  948MOL0     H25134   4.451   8.673   9.397  1.8850  1.4553 -1.3275
  948MOL0     H25135   5.019   8.507   8.969 -0.4529  4.9159  0.8254
  948MOL0     H25136   5.219   8.602   8.852 -0.8768 -1.5069  1.2053
  949MOL0     O25137   9.496   8.548   4.747  0.5162  1.1197  0.6491
  949MOL0     C25138   9.514   8.512   4.629 -0.1856  0.2601  0.5492
  949MOL0     O25139   9.438   8.539   4.522  0.0292  0.6281  0.7353
  949MOL0     C25140   9.308   8.560   4.534 -1.1889 -0.0506 -0.3527
  949MOL0     C25141   9.228   8.517   4.644 -0.4396 -0.1716  0.3104
  949MOL0     C25142   9.084   8.538   4.643  0.4492 -0.1986  0.2362
  949MOL0     C25143   9.032   8.611   4.534  0.1643 -1.0415  0.0153
  949MOL0     O25144   8.900   8.660   4.535 -0.1092  0.1136  0.1847
  949MOL0     C25145   8.819   8.641   4.661 -0.3241 -0.2028  0.1676
  949MOL0     C25146   8.706   8.740   4.660  0.2528  0.0138  0.4900
  949MOL0     C25147   8.619   8.714   4.544  1.0824  1.0022 -1.1242
  949MOL0     C25148   8.508   8.810   4.522 -0.5135  0.6970 -0.6591
  949MOL0     C25149   8.407   8.754   4.426  0.1272  0.4713 -0.3360
  949MOL0     C25150   8.306   8.863   4.386  0.2133 -0.9902 -0.9208
  949MOL0     C25151   8.219   8.835   4.269 -0.4904  0.0317  0.0069
  949MOL0     C25152   8.126   8.716   4.269 -0.0633 -0.0494  0.2892
  949MOL0     N25153   8.016   8.734   4.367 -0.7426 -0.2109 -0.0809
  949MOL0     C25154   8.011   8.673   4.493  0.0002 -0.0060  0.3573
  949MOL0     C25155   7.883   8.687   4.528  0.1830  0.0518 -0.0261
  949MOL0     C25156   7.838   8.614   4.656  0.3917  0.8107  0.2261
  949MOL0     C25157   7.699   8.639   4.701 -0.5257  0.7956 -0.2011
  949MOL0     C25158   7.589   8.594   4.603  0.4722  0.1562 -0.3366
  949MOL0     C25159   7.456   8.543   4.670 -0.3488  0.0340 -0.6999
  949MOL0     O25160   7.388   8.647   4.740  0.2160 -0.9846 -0.3041
  949MOL0     C25161   7.258   8.673   4.753  0.6214  0.9913 -1.0420
  949MOL0     C25162   7.167   8.579   4.698  0.0010 -0.0207  0.5727
  949MOL0     C25163   7.026   8.620   4.703 -0.2047  0.7687  0.4985
  949MOL0     C25164   6.980   8.734   4.769 -0.4260  0.8405  0.1309
  949MOL0     C25165   6.841   8.781   4.769  0.0905  0.0477 -0.2209
  949MOL0     O25166   6.813   8.899   4.825  0.4867  0.1849 -0.5268
  949MOL0     C25167   6.682   8.949   4.832 -0.0409  0.4629 -0.2677
  949MOL0     C25168   6.573   8.879   4.889 -0.6417 -0.1355 -0.1011
  949MOL0     C25169   6.450   8.939   4.895  0.1173 -0.1178  0.6510
  949MOL0     C25170   6.431   9.076   4.863 -0.4676 -0.8447 -0.0382
  949MOL0     O25171   6.309   9.142   4.862  0.6604  0.9177  0.7121
  949MOL0     C25172   6.182   9.074   4.893  0.2869 -0.2380  0.4324
  949MOL0     C25173   6.090   9.178   4.955  0.1146  0.4125  0.0474
  949MOL0     C25174   5.953   9.109   4.970  0.9101 -0.0123 -0.0757
  949MOL0     C25175   5.867   9.203   5.042 -0.1949  0.3797 -0.9874
  949MOL0     C25176   5.734   9.140   5.080  0.0966  0.9050  0.4067
  949MOL0     C25177   5.642   9.240   5.148  0.1703  0.4605 -0.0436
  949MOL0     C25178   5.529   9.162   5.225  0.0602 -0.3205 -0.0190
  949MOL0     C25179   5.440   9.261   5.294  0.1615 -0.8534 -0.0847
  949MOL0    Cl25180   5.303   9.177   5.366 -0.0064 -0.4397  0.0051
  949MOL0     C25181   6.542   9.148   4.810  0.2400 -0.1065 -0.0960
  949MOL0     C25182   6.670   9.081   4.803 -0.7867  0.7122  0.7197
  949MOL0     O25183   6.760   8.716   4.702 -0.2736  0.0587  0.6159
  949MOL0     C25184   7.081   8.818   4.830 -0.2508  0.1242 -0.0289
  949MOL0     C25185   7.214   8.793   4.806 -1.0763  0.6820  0.1972
  949MOL0     N25186   7.821   8.766   4.434 -0.2216 -0.4538 -0.2096
  949MOL0     N25187   7.902   8.798   4.341  0.0232  0.2216 -0.0419
  949MOL0     C25188   9.116   8.654   4.430 -0.1589  0.0921 -0.4638
  949MOL0     C25189   9.249   8.633   4.436 -0.4935 -1.1959  1.0122
  949MOL0     C25190   9.642   8.441   4.606  0.1169 -0.3894  0.2736
  949MOL0     C25191   9.734   8.419   4.708 -0.3230 -0.1785 -0.5570
  949MOL0     C25192   9.847   8.339   4.700 -0.1992  0.1204  0.9442
  949MOL0     C25193   9.881   8.284   4.571 -0.5888 -1.2536 -0.4006
  949MOL0     O25194   9.995   8.223   4.543  0.4676  0.1611  0.3141
  949MOL0     C25195  10.089   8.207   4.650  0.0976  0.5433 -0.3661
  949MOL0     C25196  10.230   8.162   4.598 -0.9554 -0.2213 -0.4414
  949MOL0     C25197  10.306   8.279   4.527 -0.8564  0.1040  0.0806
  949MOL0     C25198  10.454   8.276   4.588 -0.4009 -0.4490 -0.2782
  949MOL0     C25199  10.544   8.387   4.556  0.9149 -0.1782 -0.2278
  949MOL0     C25200  10.615   8.479   4.528  0.0987  0.0333  0.7040
  949MOL0     C25201   9.786   8.299   4.467 -0.5899  0.2185  0.4915
  949MOL0     C25202   9.669   8.377   4.483  0.1095  0.2549 -0.3874
  949MOL0     H25203   9.280   8.447   4.709 -2.3487 -0.8996  1.1351
  949MOL0     H25204   9.025   8.506   4.728  0.8510  2.5645  1.6779
  949MOL0     H25205   8.879   8.651   4.751  2.3176 -0.5522 -1.4444
  949MOL0     H25206   8.780   8.538   4.655 -0.8685 -0.1553  2.2339
  949MOL0     H25207   8.739   8.842   4.635 -0.3474 -0.5520 -3.1675
  949MOL0     H25208   8.655   8.746   4.756  2.2712 -1.1638  1.7094
  949MOL0     H25209   8.568   8.623   4.577  1.3747  0.1080 -2.9831
  949MOL0     H25210   8.675   8.682   4.455  0.9767 -1.0894 -0.4826
  949MOL0     H25211   8.467   8.841   4.618 -0.3347 -0.1478 -0.3037
  949MOL0     H25212   8.552   8.897   4.473 -1.9612  2.5109  1.0767
  949MOL0     H25213   8.351   8.669   4.464 -0.1311 -0.3967 -2.4939
  949MOL0     H25214   8.461   8.709   4.342 -2.1725 -0.5873 -1.3318
  949MOL0     H25215   8.356   8.960   4.383 -1.6631  0.2172  1.8927
  949MOL0     H25216   8.236   8.886   4.468  1.4778  0.4520 -0.1831
  949MOL0     H25217   8.160   8.923   4.239 -0.4577  0.6721  1.7158
  949MOL0     H25218   8.291   8.827   4.187  2.1425  2.9007  1.8091
  949MOL0     H25219   8.175   8.624   4.301 -2.3292 -1.4644 -0.0982
  949MOL0     H25220   8.099   8.698   4.165  3.3019  0.6042 -0.8242
  949MOL0     H25221   8.099   8.625   4.536  2.1377  0.0363 -3.5021
  949MOL0     H25222   7.914   8.623   4.734  1.0345 -4.8752  0.6848
  949MOL0     H25223   7.849   8.507   4.636  0.9170  0.7372  0.8762
  949MOL0     H25224   7.686   8.746   4.716 -1.3156  0.7570 -0.5917
  949MOL0     H25225   7.692   8.583   4.795 -1.5503 -0.4147 -0.9683
  949MOL0     H25226   7.567   8.676   4.534 -1.3912  0.5084  0.6070
  949MOL0     H25227   7.625   8.507   4.547 -2.0543 -1.4397  0.3550
  949MOL0     H25228   7.476   8.461   4.740 -3.6784 -0.0419  0.3369
  949MOL0     H25229   7.405   8.500   4.584  1.8433 -2.0705 -1.0482
  949MOL0     H25230   7.191   8.481   4.658  0.0578  0.5992 -0.9433
  949MOL0     H25231   6.957   8.561   4.644 -0.8723 -0.1559  2.1334
  949MOL0     H25232   6.585   8.774   4.915  0.1316  0.6272  3.0079
  949MOL0     H25233   6.376   8.861   4.914 -0.9052 -0.1911 -2.8949
  949MOL0     H25234   6.187   8.992   4.965  0.5781 -1.1573 -0.6009
  949MOL0     H25235   6.146   9.033   4.799  1.0251 -1.0054  0.4752
  949MOL0     H25236   6.087   9.270   4.895  1.8051  1.6866  1.7706
  949MOL0     H25237   6.125   9.216   5.052  1.7450  0.4362 -0.5196
  949MOL0     H25238   5.963   9.013   5.021  1.1586 -1.1236 -2.1129
  949MOL0     H25239   5.911   9.096   4.870 -1.0064  0.3607  0.6344
  949MOL0     H25240   5.925   9.239   5.127 -1.1708 -2.3934  0.9783
  949MOL0     H25241   5.852   9.289   4.975 -2.9916  1.2816  0.6296
  949MOL0     H25242   5.750   9.055   5.147 -0.0025  1.0203  0.5773
  949MOL0     H25243   5.685   9.092   4.994  0.7712  0.6807  0.1391
  949MOL0     H25244   5.603   9.301   5.066  1.6287  0.8072 -0.5044
  949MOL0     H25245   5.703   9.305   5.211  1.2742 -2.4584  2.1320
  949MOL0     H25246   5.477   9.097   5.154  1.4224 -0.9726 -0.4676
  949MOL0     H25247   5.582   9.106   5.302  0.7465  0.8786  0.4115
  949MOL0     H25248   5.400   9.324   5.214 -0.7948 -4.5058 -2.7699
  949MOL0     H25249   5.499   9.316   5.368 -1.1340 -0.5966  0.7739
  949MOL0     H25250   6.530   9.244   4.761 -0.0640 -0.9935 -1.8174
  949MOL0     H25251   6.760   9.141   4.793  1.0047 -1.5219  2.3505
  949MOL0     H25252   7.057   8.915   4.872  2.8327  0.4373  1.2927
  949MOL0     H25253   7.294   8.861   4.835  1.5868 -2.2036  0.1374
  949MOL0     H25254   9.077   8.716   4.350  0.2046 -0.2042 -0.8724
  949MOL0     H25255   9.308   8.671   4.353 -4.7252 -1.3401 -2.4172
  949MOL0     H25256   9.724   8.466   4.805 -0.2901 -1.0861 -0.1067
  949MOL0     H25257   9.922   8.353   4.777  0.3702  1.1268  0.2335
  949MOL0     H25258  10.053   8.136   4.726  1.5826  0.6697  0.4878
  949MOL0     H25259  10.102   8.304   4.698  4.9568 -0.7186  1.4366
  949MOL0     H25260  10.289   8.129   4.685  1.3107  0.1986 -1.7476
  949MOL0     H25261  10.204   8.078   4.534  0.2573 -2.2038  1.5027
  949MOL0     H25262  10.256   8.376   4.537 -0.3786  0.7201 -2.6293
  949MOL0     H25263  10.313   8.260   4.419 -0.3926 -1.8378  0.4298
  949MOL0     H25264  10.449   8.255   4.695 -1.1757 -4.0989 -0.8728
  949MOL0     H25265  10.495   8.189   4.536 -0.7125 -0.4246 -0.5660
  949MOL0     H25266  10.690   8.548   4.496 -0.1141 -0.5751 -1.2840
  949MOL0     H25267   9.812   8.257   4.370 -0.1246  0.8919  0.3243
  949MOL0     H25268   9.607   8.402   4.398  2.7717 -0.8719 -2.8263
  950MOL0     O25269   9.631  10.166   4.586  0.3686 -0.2092 -0.0578
  950MOL0     C25270   9.751  10.190   4.609  0.2341  0.1820 -0.2863
  950MOL0     O25271   9.796  10.270   4.718  0.1463 -0.2956  0.9606
  950MOL0     C25272   9.701  10.312   4.810 -0.7624  0.2206  0.3196
  950MOL0     C25273   9.731  10.436   4.867  0.3812  0.0938 -0.2424
  950MOL0     C25274   9.648  10.496   4.972 -0.2107 -0.6924 -0.3321
  950MOL0     C25275   9.536  10.425   5.027 -0.3832  0.0027 -0.5811
  950MOL0     O25276   9.463  10.470   5.131  0.0867 -0.4253 -0.8884
  950MOL0     C25277   9.514  10.571   5.212 -0.2992  0.0073  0.4868
  950MOL0     C25278   9.417  10.614   5.315  0.8260 -0.0224 -0.1668
  950MOL0     C25279   9.273  10.618   5.257 -0.0557 -0.2218  0.0929
  950MOL0     C25280   9.182  10.650   5.371  0.0326 -0.1333 -0.5827
  950MOL0     C25281   9.039  10.667   5.327 -1.0030 -0.6405 -0.3059
  950MOL0     C25282   9.016  10.793   5.244 -0.1201 -0.0286  0.5722
  950MOL0     C25283   8.871  10.835   5.220 -0.2559 -0.3508 -0.1933
  950MOL0     C25284   8.796  10.914   5.325 -0.0710 -0.4131 -0.3407
  950MOL0     N25285   8.718  10.850   5.425 -0.3345  0.1077  0.1741
  950MOL0     C25286   8.578  10.835   5.408  0.2265  0.5330  0.2803
  950MOL0     C25287   8.541  10.767   5.520 -0.6398  0.2138  0.6166
  950MOL0     C25288   8.401  10.740   5.545  0.6552  0.6150 -0.7507
  950MOL0     C25289   8.342  10.795   5.673 -0.0045 -0.3481 -0.6629
  950MOL0     C25290   8.186  10.780   5.671 -0.3444  0.8407 -0.2466
  950MOL0     C25291   8.152  10.791   5.815  1.3402 -0.5387  0.9301
  950MOL0     O25292   8.014  10.818   5.834 -0.2760 -0.7112  0.0108
  950MOL0     C25293   7.951  10.933   5.784 -0.5514  0.3267  0.2255
  950MOL0     C25294   7.815  10.945   5.809  1.4102  0.3747 -0.6383
  950MOL0     C25295   7.747  11.052   5.767  0.7698 -0.8123  0.3777
  950MOL0     C25296   7.805  11.165   5.703  0.6935  0.0999 -0.1268
  950MOL0     C25297   7.726  11.284   5.660 -0.1344 -0.1772  0.1559
  950MOL0     O25298   7.801  11.398   5.636  0.8878  0.8186 -0.4123
  950MOL0     C25299   7.728  11.509   5.604  0.0227  0.1738  0.5789
  950MOL0     C25300   7.724  11.614   5.690 -0.3870 -0.1202 -0.3449
  950MOL0     C25301   7.653  11.737   5.659  0.5766  0.0004  0.6088
  950MOL0     C25302   7.587  11.742   5.531  0.2903  0.2932 -0.4203
  950MOL0     O25303   7.506  11.851   5.507  0.1700 -0.0595 -0.3601
  950MOL0     C25304   7.487  11.881   5.374 -0.4603 -0.4592 -0.1763
  950MOL0     C25305   7.388  11.993   5.373  0.1430  1.4114 -0.5807
  950MOL0     C25306   7.251  11.946   5.426 -0.1856 -0.3056 -0.4014
  950MOL0     C25307   7.182  12.080   5.449 -0.4053  0.7447 -0.5524
  950MOL0     C25308   7.042  12.065   5.514 -0.2863  1.0031  0.2787
  950MOL0     C25309   6.984  12.199   5.520 -0.0508 -0.0894 -0.1399
  950MOL0     C25310   6.836  12.188   5.552 -0.0199  0.2654 -0.8720
  950MOL0     C25311   6.746  12.167   5.436  0.6179  0.4536  0.9713
  950MOL0    Cl25312   6.581  12.171   5.484  0.2125 -0.1967  0.5292
  950MOL0     C25313   7.588  11.625   5.444  0.2154 -0.7103 -0.6011
  950MOL0     C25314   7.662  11.510   5.479  0.4750 -0.1103  0.1464
  950MOL0     O25315   7.604  11.276   5.654  0.1981  0.4044 -0.0826
  950MOL0     C25316   7.945  11.159   5.691 -0.0497 -0.1377 -0.0928
  950MOL0     C25317   8.012  11.042   5.726  0.7611 -0.4111  0.4183
  950MOL0     N25318   8.648  10.752   5.602  0.0428  0.3688  0.1754
  950MOL0     N25319   8.758  10.793   5.552 -0.1707 -0.5582  0.1451
  950MOL0     C25320   9.509  10.298   4.968  0.0077  0.0291 -0.3730
  950MOL0     C25321   9.591  10.241   4.860  0.5687 -0.2992 -0.6117
  950MOL0     C25322   9.853  10.118   4.520 -0.8335 -0.5125 -0.3554
  950MOL0     C25323   9.826  10.011   4.435  0.0946 -0.7906 -1.0514
  950MOL0     C25324   9.920   9.942   4.362  0.3020  0.4758 -0.1057
  950MOL0     C25325  10.052   9.981   4.366 -0.2062 -0.1867 -0.2370
  950MOL0     O25326  10.143   9.906   4.291 -0.5411 -0.4507 -0.0554
  950MOL0     C25327  10.254   9.858   4.363  0.9971 -0.2821 -0.4572
  950MOL0     C25328  10.380   9.933   4.332  0.8165  0.5081  0.2759
  950MOL0     C25329  10.384   9.985   4.187 -0.0898 -0.1146 -0.1585
  950MOL0     C25330  10.376   9.874   4.078  0.3098  0.4785 -1.0081
  950MOL0     C25331  10.493   9.784   4.067  0.1072 -0.0322 -0.3368
  950MOL0     C25332  10.585   9.709   4.074  0.2575 -0.1526  0.7491
  950MOL0     C25333  10.084  10.092   4.442  0.6319  0.2698 -0.9600
  950MOL0     C25334   9.986  10.155   4.522  0.2278  0.0131 -0.6791
  950MOL0     H25335   9.815  10.490   4.824 -0.0410  1.2597  0.3429
  950MOL0     H25336   9.671  10.596   5.008 -0.1175 -0.0603 -2.0277
  950MOL0     H25337   9.526  10.655   5.143  0.1966 -0.3723  0.1025
  950MOL0     H25338   9.613  10.548   5.253  0.1295  0.9312 -0.0090
  950MOL0     H25339   9.438  10.718   5.342  2.0391 -0.3722  0.3251
  950MOL0     H25340   9.427  10.552   5.404 -2.1533 -0.2078  0.1215
  950MOL0     H25341   9.238  10.521   5.223 -1.2735  0.6273 -1.1849
  950MOL0     H25342   9.268  10.696   5.180 -4.4991  2.8282  3.0006
  950MOL0     H25343   9.192  10.573   5.448 -1.3279  1.7342  1.5883
  950MOL0     H25344   9.212  10.739   5.426  0.8270 -0.3998 -0.5761
  950MOL0     H25345   8.977  10.688   5.415  3.1702  4.5267  1.9209
  950MOL0     H25346   9.007  10.574   5.279 -0.2159 -1.0719 -0.0143
  950MOL0     H25347   9.051  10.765   5.145 -4.1732 -2.5577 -0.4045
  950MOL0     H25348   9.071  10.875   5.292 -0.5380  0.1099  0.8259
  950MOL0     H25349   8.867  10.903   5.135 -0.6198  1.6159  1.3192
  950MOL0     H25350   8.814  10.745   5.193 -0.0733 -0.0061 -1.7949
  950MOL0     H25351   8.730  10.989   5.281 -2.2990 -1.1212  1.5809
  950MOL0     H25352   8.877  10.967   5.375  0.7128 -2.6841  0.9339
  950MOL0     H25353   8.524  10.875   5.323  0.0823 -1.5759 -0.6789
  950MOL0     H25354   8.395  10.631   5.556  3.1690  0.5896  1.2006
  950MOL0     H25355   8.338  10.776   5.463 -2.1676  0.1304  1.0859
  950MOL0     H25356   8.367  10.901   5.681  2.7334 -0.9328 -0.7681
  950MOL0     H25357   8.383  10.734   5.753  3.4526  2.8247  0.2541
  950MOL0     H25358   8.135  10.846   5.600  0.2650  2.9276  1.1508
  950MOL0     H25359   8.158  10.675   5.657 -1.4186  0.5799  2.9901
  950MOL0     H25360   8.211  10.868   5.865  0.4253  0.1181  1.0253
  950MOL0     H25361   8.170  10.695   5.864  3.8055  1.3229  3.9874
  950MOL0     H25362   7.755  10.862   5.844 -1.5669  2.2352 -0.9348
  950MOL0     H25363   7.647  11.051   5.810  0.8985 -1.1856  0.6755
  950MOL0     H25364   7.787  11.608   5.778 -2.5259 -1.4347  1.1864
  950MOL0     H25365   7.639  11.823   5.723 -2.3493 -1.6883  2.4289
  950MOL0     H25366   7.432  11.798   5.328 -0.7675  0.3158 -1.2608
  950MOL0     H25367   7.584  11.908   5.333  1.0076 -2.4087  1.7875
  950MOL0     H25368   7.383  12.041   5.274 -1.5455  0.8643 -0.8040
  950MOL0     H25369   7.425  12.071   5.440  0.4933  2.1421 -1.5977
  950MOL0     H25370   7.257  11.880   5.513 -1.8958 -1.2874 -0.9830
  950MOL0     H25371   7.189  11.888   5.357 -2.8335  1.2865  0.4900
  950MOL0     H25372   7.244  12.138   5.518  2.5854 -1.7285 -0.9427
  950MOL0     H25373   7.179  12.140   5.358  1.4613 -0.1421 -1.2326
  950MOL0     H25374   7.064  12.031   5.616  2.1946 -0.7802 -0.7579
  950MOL0     H25375   6.974  11.997   5.463  0.6152  0.9437 -0.8706
  950MOL0     H25376   6.991  12.256   5.427  1.5887 -0.6301 -0.3804
  950MOL0     H25377   7.027  12.254   5.604 -2.3519  1.3823  0.1573
  950MOL0     H25378   6.816  12.113   5.630 -1.5644  2.0727  0.5611
  950MOL0     H25379   6.804  12.279   5.604  0.0038 -1.0633  1.6113
  950MOL0     H25380   6.776  12.068   5.398  2.8688  1.2605  0.4663
  950MOL0     H25381   6.771  12.242   5.361  2.5508 -0.1714  0.9335
  950MOL0     H25382   7.538  11.617   5.348  0.0217  0.1378 -0.5713
  950MOL0     H25383   7.665  11.425   5.413 -0.3964  0.0142 -0.0604
  950MOL0     H25384   7.986  11.239   5.630 -1.9100 -1.0690 -2.7465
  950MOL0     H25385   8.120  11.040   5.713  0.7063  1.6748 -0.6221
  950MOL0     H25386   9.421  10.247   5.004 -0.0487 -1.8966 -2.9616
  950MOL0     H25387   9.579  10.136   4.837  2.0370 -0.9000  1.1570
  950MOL0     H25388   9.727   9.967   4.445  0.4528 -1.3115  0.5470
  950MOL0     H25389   9.885   9.856   4.305 -0.7933 -0.0248  1.2365
  950MOL0     H25390  10.272   9.761   4.316  1.0570  1.5106 -4.6166
  950MOL0     H25391  10.239   9.843   4.470  0.8408  0.2115 -0.4069
  950MOL0     H25392  10.391  10.016   4.402  1.7522 -2.7442  4.3933
  950MOL0     H25393  10.468   9.868   4.344  0.3031 -0.2278  0.1045
  950MOL0     H25394  10.482  10.032   4.175  0.8076 -1.2137  2.1178
  950MOL0     H25395  10.316  10.069   4.171 -0.3398 -0.1351  0.7440
  950MOL0     H25396  10.283   9.822   4.099 -0.2079  2.2658  1.5696
  950MOL0     H25397  10.377   9.930   3.984  0.2584  2.2439 -0.0001
  950MOL0     H25398  10.660   9.634   4.061  1.5866  1.3528 -0.8887
  950MOL0     H25399  10.176  10.148   4.448 -1.2083  3.3922  3.4239
  950MOL0     H25400  10.023  10.236   4.584  0.5579 -1.4001  1.0368
  951MOL0     O25401   3.632   4.204   8.076 -0.9312 -0.0881 -1.0190
  951MOL0     C25402   3.725   4.287   8.102  0.7963 -0.1096 -0.0840
  951MOL0     O25403   3.706   4.422   8.132  0.4511  0.3776 -0.1491
  951MOL0     C25404   3.580   4.482   8.133  0.0199 -1.0118  0.0617
  951MOL0     C25405   3.563   4.615   8.101 -0.3908 -0.3707  0.4414
  951MOL0     C25406   3.437   4.676   8.111  0.8785  0.9446  0.3171
  951MOL0     C25407   3.325   4.605   8.163  0.5869  0.1867  0.6943
  951MOL0     O25408   3.206   4.681   8.179 -0.6167 -0.6213  0.6212
  951MOL0     C25409   3.088   4.613   8.143 -0.7718 -0.2847 -0.5756
  951MOL0     C25410   2.978   4.712   8.164 -0.0334  0.8672  0.4266
  951MOL0     C25411   2.842   4.634   8.131 -0.3539 -0.1308  0.0618
  951MOL0     C25412   2.719   4.728   8.150  0.2954 -0.1007  0.2905
  951MOL0     C25413   2.706   4.843   8.034  0.2949  1.6378 -0.2677
  951MOL0     C25414   2.585   4.929   8.050  0.3769  0.4870 -0.0773
  951MOL0     C25415   2.570   4.982   8.191 -0.2006  0.6993 -0.5878
  951MOL0     C25416   2.450   5.088   8.191 -0.4164 -0.5430  0.1094
  951MOL0     N25417   2.319   5.021   8.184  0.0534 -0.4636 -0.0802
  951MOL0     C25418   2.251   4.970   8.293  0.4695  0.0662  0.0501
  951MOL0     C25419   2.130   4.926   8.245  0.3714  0.5747  0.0662
  951MOL0     C25420   2.012   4.885   8.334 -0.3164  0.2539  0.8314
  951MOL0     C25421   1.928   4.787   8.250 -0.9422  1.6405  0.4472
  951MOL0     C25422   1.808   4.735   8.330 -0.5768  0.3383 -0.1207
  951MOL0     C25423   1.683   4.808   8.271 -0.2582  0.2287 -0.1037
  951MOL0     O25424   1.572   4.756   8.326  0.6557  0.1380  0.2563
  951MOL0     C25425   1.445   4.815   8.295  0.1821  0.2129 -0.6262
  951MOL0     C25426   1.434   4.896   8.182 -1.1190  0.1624 -0.1045
  951MOL0     C25427   1.317   4.963   8.162  0.2514  0.4903  0.9885
  951MOL0     C25428   1.209   4.946   8.249 -0.0298  0.8483 -0.0573
  951MOL0     C25429   1.081   5.027   8.224  0.4152 -0.3172  0.2641
  951MOL0     O25430   0.968   4.995   8.280 -0.0062  0.3595 -0.2725
  951MOL0     C25431   0.841   5.029   8.243 -0.2195 -0.1288 -0.5868
  951MOL0     C25432   0.746   4.996   8.335 -0.5264  0.9953 -0.0833
  951MOL0     C25433   0.615   5.031   8.312  0.5014 -0.3649  0.2092
  951MOL0     C25434   0.575   5.112   8.201  0.2406 -0.0343 -0.2813
  951MOL0     O25435   0.446   5.151   8.167  0.0147  1.1985  0.2175
  951MOL0     C25436   0.339   5.103   8.255 -0.3578  0.2586  0.0239
  951MOL0     C25437   0.203   5.155   8.186  0.1192 -0.9915  0.6477
  951MOL0     C25438   0.089   5.086   8.250 -0.1321  0.0036 -0.0015
  951MOL0     C25439  -0.040   5.127   8.186 -0.4783  0.6202  0.6158
  951MOL0     C25440  -0.168   5.055   8.227  0.8483  0.3770 -0.2396
  951MOL0     C25441  -0.240   5.113   8.351 -0.7286  0.2913 -1.0523
  951MOL0     C25442  -0.363   5.029   8.408 -0.7882  0.2286  0.2224
  951MOL0     C25443  -0.438   5.099   8.516 -0.7995 -0.0035 -0.4458
  951MOL0    Cl25444  -0.529   5.228   8.415  0.0758 -0.2745  0.0192
  951MOL0     C25445   0.674   5.145   8.106  0.1272  0.2694 -0.0529
  951MOL0     C25446   0.801   5.096   8.129 -0.8498 -0.0819 -0.4657
  951MOL0     O25447   1.088   5.124   8.154 -0.2129 -0.2023  0.4632
  951MOL0     C25448   1.223   4.862   8.361 -0.2287 -0.4246  0.2661
  951MOL0     C25449   1.342   4.798   8.384  0.6480 -0.1476 -0.2870
  951MOL0     N25450   2.138   4.937   8.109 -0.1547 -0.3782  0.5660
  951MOL0     N25451   2.251   4.987   8.068  0.4652 -0.0113  0.0050
  951MOL0     C25452   3.343   4.472   8.209  0.6676 -0.1296  1.2078
  951MOL0     C25453   3.470   4.414   8.192  0.3063  0.3511  0.0307
  951MOL0     C25454   3.861   4.238   8.098 -0.3832  0.1949  0.2830
  951MOL0     C25455   3.972   4.323   8.134 -0.3905 -0.1582 -0.0284
  951MOL0     C25456   4.103   4.278   8.126  0.5658  0.1883 -0.7536
  951MOL0     C25457   4.138   4.156   8.077  0.1987  0.3438 -0.1523
  951MOL0     O25458   4.274   4.133   8.074 -0.3876  0.0631  0.1783
  951MOL0     C25459   4.317   4.005   8.024  0.1390 -0.0691  0.1956
  951MOL0     C25460   4.466   4.012   7.995  0.2745 -0.5085  0.2994
  951MOL0     C25461   4.501   4.094   7.869  0.0208  0.2429  1.3116
  951MOL0     C25462   4.573   4.220   7.907 -0.1137  0.2546  0.8283
  951MOL0     C25463   4.707   4.193   7.954 -0.2893  0.7727 -1.0572
  951MOL0     C25464   4.823   4.175   7.995  0.3057  0.4326  0.6987
  951MOL0     C25465   4.039   4.072   8.034  0.5194  0.3554  0.2847
  951MOL0     C25466   3.896   4.108   8.047  0.3627 -0.1463  0.2628
  951MOL0     H25467   3.646   4.675   8.064 -1.1374  0.2758 -0.2404
  951MOL0     H25468   3.432   4.778   8.073  0.9700  0.0422 -2.3797
  951MOL0     H25469   3.077   4.519   8.197  0.7222 -0.3172 -0.2980
  951MOL0     H25470   3.100   4.582   8.039 -1.0026 -3.2423  0.1816
  951MOL0     H25471   2.996   4.797   8.098  1.7263 -0.7205 -1.2409
  951MOL0     H25472   2.987   4.754   8.265  2.2501  1.8110 -0.1149
  951MOL0     H25473   2.838   4.548   8.199 -1.8173 -0.8893 -0.9326
  951MOL0     H25474   2.851   4.600   8.028  0.8989  1.7137 -0.4704
  951MOL0     H25475   2.631   4.666   8.131  0.1491 -0.3125  1.5818
  951MOL0     H25476   2.713   4.755   8.256  1.7046 -0.4787  0.4973
  951MOL0     H25477   2.700   4.783   7.943 -0.0272 -0.8211  1.2899
  951MOL0     H25478   2.791   4.911   8.033  0.4942  1.3873 -0.9812
  951MOL0     H25479   2.488   4.882   8.032  1.8662 -3.7385  1.7082
  951MOL0     H25480   2.594   5.007   7.974  0.8257  0.6866  0.1818
  951MOL0     H25481   2.553   4.907   8.269 -1.4240 -0.0929 -1.5909
  951MOL0     H25482   2.662   5.036   8.215 -0.8772  1.2625  0.9050
  951MOL0     H25483   2.478   5.160   8.113  0.7866 -0.1209  0.8880
  951MOL0     H25484   2.463   5.139   8.287  0.9051 -2.4994  1.0455
  951MOL0     H25485   2.280   4.956   8.397  2.6759 -0.7931 -0.6167
  951MOL0     H25486   1.958   4.977   8.360  2.4045  2.4613 -0.7302
  951MOL0     H25487   2.042   4.840   8.429  1.4602 -0.4473 -0.0229
  951MOL0     H25488   1.990   4.701   8.227  0.4577  1.7394  3.3255
  951MOL0     H25489   1.902   4.817   8.148 -0.5072 -1.1251 -0.5385
  951MOL0     H25490   1.792   4.628   8.317 -2.6970 -0.0927  4.0264
  951MOL0     H25491   1.808   4.751   8.439  0.7832  1.1411 -0.2155
  951MOL0     H25492   1.681   4.774   8.167 -0.7412 -1.7845  0.5191
  951MOL0     H25493   1.699   4.916   8.281 -0.7905  0.2823  0.1647
  951MOL0     H25494   1.519   4.917   8.119 -1.3368 -0.4796 -0.6218
  951MOL0     H25495   1.308   5.030   8.077 -0.0654  1.6780  1.9293
  951MOL0     H25496   0.773   4.940   8.424 -2.3805 -2.1328 -1.3052
  951MOL0     H25497   0.546   4.993   8.386  0.4899 -0.8392 -0.0453
  951MOL0     H25498   0.333   5.148   8.355  1.4625  5.1313 -1.7508
  951MOL0     H25499   0.339   4.996   8.276 -1.5127  0.3724  0.7072
  951MOL0     H25500   0.207   5.130   8.079  1.0531  2.3099 -0.1984
  951MOL0     H25501   0.197   5.261   8.211 -0.2540 -1.0510  0.8277
  951MOL0     H25502   0.100   5.109   8.357 -1.0138 -0.4265  0.1925
  951MOL0     H25503   0.099   4.978   8.245 -1.8612 -0.2120  0.4491
  951MOL0     H25504  -0.055   5.234   8.203 -1.4624  0.6809 -0.5113
  951MOL0     H25505  -0.036   5.118   8.077  1.1848  0.1626  0.6750
  951MOL0     H25506  -0.155   4.947   8.238  2.2973  0.4615 -0.9123
  951MOL0     H25507  -0.235   5.074   8.142  1.0562 -0.3939 -0.5834
  951MOL0     H25508  -0.274   5.213   8.323 -0.6309 -0.4806 -4.4851
  951MOL0     H25509  -0.177   5.131   8.438 -3.9515  2.9562  0.9521
  951MOL0     H25510  -0.428   5.010   8.322  0.5419  0.6582 -0.9201
  951MOL0     H25511  -0.321   4.937   8.448  0.2455  1.9094  3.3116
  951MOL0     H25512  -0.380   5.145   8.596 -0.0065 -0.9568 -0.4496
  951MOL0     H25513  -0.494   5.030   8.581  0.6526 -0.2295  0.6176
  951MOL0     H25514   0.651   5.202   8.017 -3.1147 -0.7923 -0.0381
  951MOL0     H25515   0.875   5.106   8.050  0.0939 -0.2266  0.3822
  951MOL0     H25516   1.147   4.851   8.438  1.1361  0.7060  1.8422
  951MOL0     H25517   1.348   4.735   8.472 -0.9904 -1.9226 -1.3751
  951MOL0     H25518   3.260   4.411   8.244  1.6347 -1.2623  1.5951
  951MOL0     H25519   3.466   4.308   8.214 -1.8175  0.4575  0.3787
  951MOL0     H25520   3.939   4.421   8.165 -1.4331 -0.5416  0.1167
  951MOL0     H25521   4.185   4.346   8.144  1.8204 -0.4059 -3.5796
  951MOL0     H25522   4.259   3.987   7.933 -0.0882  0.4941  0.2265
  951MOL0     H25523   4.294   3.929   8.099  0.4394  1.0384  1.4433
  951MOL0     H25524   4.523   4.027   8.087  0.6700 -2.4011  0.3954
  951MOL0     H25525   4.476   3.904   7.978  0.1919 -0.5801  0.6807
  951MOL0     H25526   4.413   4.119   7.809  1.5796 -0.5548 -1.5235
  951MOL0     H25527   4.560   4.036   7.797 -0.2090  1.2870  0.2370
  951MOL0     H25528   4.588   4.290   7.824  2.5599  2.2037  2.7977
  951MOL0     H25529   4.528   4.273   7.991  0.9019 -0.7175  2.0405
  951MOL0     H25530   4.924   4.163   8.030  1.0657  3.0036 -0.4317
  951MOL0     H25531   4.071   3.981   7.984 -1.7152  0.7284 -2.0495
  951MOL0     H25532   3.824   4.038   8.006  1.2465 -0.1633 -1.3312
  952MOL0     O25533   3.923   4.549   4.300 -0.0504  0.1486  0.3803
  952MOL0     C25534   3.910   4.553   4.178 -0.2522 -0.2121 -0.5186
  952MOL0     O25535   3.786   4.556   4.113  0.3940  0.3280 -0.4564
  952MOL0     C25536   3.670   4.570   4.181 -0.0881  0.4158  0.1855
  952MOL0     C25537   3.648   4.684   4.266 -1.2818  0.6482  0.8931
  952MOL0     C25538   3.519   4.705   4.301  1.1805 -0.4886  0.6113
  952MOL0     C25539   3.410   4.609   4.279 -0.2625 -0.2313 -0.3168
  952MOL0     O25540   3.285   4.639   4.333 -0.3915 -0.0909  0.1351
  952MOL0     C25541   3.220   4.538   4.420  0.2663 -0.7763  0.7982
  952MOL0     C25542   3.105   4.582   4.507  0.2547 -0.2613 -0.5135
  952MOL0     C25543   3.013   4.461   4.559 -0.2172  0.0871  0.9156
  952MOL0     C25544   2.970   4.477   4.703  0.3120  0.7556  1.0873
  952MOL0     C25545   2.868   4.368   4.731  1.6088 -0.5546  0.4846
  952MOL0     C25546   2.841   4.376   4.884  0.5643 -0.5617  1.4319
  952MOL0     C25547   2.768   4.507   4.932 -0.5727  0.6871 -0.5494
  952MOL0     C25548   2.684   4.468   5.060  0.4298 -0.4307 -0.1958
  952MOL0     N25549   2.622   4.587   5.117  0.5267 -0.0028 -0.2344
  952MOL0     C25550   2.499   4.634   5.090  0.4549 -0.6718 -0.0684
  952MOL0     C25551   2.488   4.745   5.167  0.4593 -0.1042 -0.1295
  952MOL0     C25552   2.370   4.846   5.168  0.0075  0.1486  0.3975
  952MOL0     C25553   2.245   4.769   5.112 -0.6432  0.0176  0.2191
  952MOL0     C25554   2.121   4.860   5.092  0.0158  0.7915  0.3121
  952MOL0     C25555   2.139   5.011   5.068 -1.1255  0.3367  0.3039
  952MOL0     O25556   2.015   5.061   5.039  0.4220 -0.5523 -0.9757
  952MOL0     C25557   1.928   5.111   5.135 -0.6640 -0.0902 -1.2638
  952MOL0     C25558   1.966   5.129   5.269  0.0875 -0.1098  1.0775
  952MOL0     C25559   1.871   5.186   5.354  0.6402  0.3483 -0.7457
  952MOL0     C25560   1.737   5.214   5.317 -0.2005  0.5226 -0.6696
  952MOL0     C25561   1.645   5.275   5.407  0.1202  0.5917 -0.0384
  952MOL0     O25562   1.522   5.307   5.358  0.3157  0.6423  0.0513
  952MOL0     C25563   1.436   5.361   5.442 -0.0494 -0.4024  0.5580
  952MOL0     C25564   1.457   5.464   5.534 -1.0099 -0.0045  0.3710
  952MOL0     C25565   1.355   5.519   5.606  0.1464  0.5153 -0.5259
  952MOL0     C25566   1.223   5.488   5.590 -0.2386 -0.2964 -0.1941
  952MOL0     O25567   1.134   5.563   5.655  0.1367  0.0369 -0.1771
  952MOL0     C25568   0.990   5.537   5.639 -0.2815  0.2796  0.9840
  952MOL0     C25569   0.899   5.647   5.701 -0.7526 -0.6380  0.0298
  952MOL0     C25570   0.748   5.605   5.692  0.6230  0.1915  0.0255
  952MOL0     C25571   0.666   5.712   5.742  0.2969  0.2531 -0.3125
  952MOL0     C25572   0.516   5.668   5.747  0.3900  0.3642 -0.2575
  952MOL0     C25573   0.420   5.766   5.793 -0.9306 -0.2223 -0.3393
  952MOL0     C25574   0.404   5.789   5.946  0.2280 -0.7749 -0.9329
  952MOL0     C25575   0.348   5.930   5.979 -0.1618  0.3486 -0.1884
  952MOL0    Cl25576   0.183   5.941   5.911  0.6444 -0.4681 -0.0673
  952MOL0     C25577   1.196   5.375   5.512  0.6200 -0.1858  0.3694
  952MOL0     C25578   1.300   5.306   5.442  0.8176 -0.4506 -0.1458
  952MOL0     O25579   1.682   5.307   5.524  0.1285  0.8018  0.4981
  952MOL0     C25580   1.702   5.184   5.187 -0.5483  0.7132 -0.0273
  952MOL0     C25581   1.795   5.139   5.102  0.3623 -0.0676  0.8095
  952MOL0     N25582   2.609   4.772   5.226  0.4468 -0.9415 -0.0095
  952MOL0     N25583   2.691   4.679   5.199 -0.5510 -0.0234  0.3645
  952MOL0     C25584   3.437   4.497   4.206 -0.7862  0.2312  0.7971
  952MOL0     C25585   3.567   4.479   4.151 -0.1093 -0.3262 -0.6709
  952MOL0     C25586   4.035   4.538   4.099  0.7887 -0.5630  0.4182
  952MOL0     C25587   4.155   4.517   4.175  0.2093  0.7429  0.0578
  952MOL0     C25588   4.282   4.502   4.106 -0.2293  0.2149  0.5266
  952MOL0     C25589   4.288   4.524   3.972  0.2158 -1.0111  0.1569
  952MOL0     O25590   4.401   4.501   3.908 -0.3358  0.5871 -0.5605
  952MOL0     C25591   4.411   4.528   3.763  0.2998 -0.3388  1.2896
  952MOL0     C25592   4.554   4.550   3.726 -0.4484  0.9670 -0.4777
  952MOL0     C25593   4.620   4.413   3.683 -0.0832  0.2801 -0.0101
  952MOL0     C25594   4.772   4.420   3.674 -0.0209  0.2320  0.2382
  952MOL0     C25595   4.827   4.499   3.563  0.5482  0.1262 -0.1770
  952MOL0     C25596   4.866   4.567   3.468  0.4072 -0.2004  0.1522
  952MOL0     C25597   4.166   4.548   3.904  0.0940  1.1494  0.5283
  952MOL0     C25598   4.042   4.557   3.962 -0.1137  0.6270 -0.2193
  952MOL0     H25599   3.731   4.750   4.291 -0.6868 -0.2227  1.2517
  952MOL0     H25600   3.506   4.800   4.350  0.7395  0.1431 -0.6878
  952MOL0     H25601   3.300   4.492   4.480 -0.7282 -2.4429  0.8988
  952MOL0     H25602   3.186   4.456   4.357 -0.6427 -0.6418  1.1073
  952MOL0     H25603   3.044   4.657   4.455 -0.2135 -0.2354  0.0591
  952MOL0     H25604   3.149   4.639   4.590 -0.1871 -1.2756  0.4427
  952MOL0     H25605   3.074   4.370   4.552  2.1369  1.5833  0.8811
  952MOL0     H25606   2.933   4.444   4.486 -0.5075 -1.3553  1.5275
  952MOL0     H25607   3.059   4.469   4.766  0.4033  0.6593  0.9497
  952MOL0     H25608   2.934   4.580   4.702  2.2790  1.7000 -4.1503
  952MOL0     H25609   2.906   4.269   4.705  1.6371  0.1969 -2.7908
  952MOL0     H25610   2.783   4.391   4.667  1.2496 -1.8889  0.4624
  952MOL0     H25611   2.923   4.356   4.953  1.9418 -1.4884 -0.3978
  952MOL0     H25612   2.779   4.287   4.898 -3.4854  1.9865  1.2165
  952MOL0     H25613   2.843   4.585   4.951  1.7757 -1.8885  1.7424
  952MOL0     H25614   2.700   4.551   4.859 -2.1196 -1.8807 -0.7646
  952MOL0     H25615   2.741   4.416   5.137 -1.4146 -2.8555 -0.3574
  952MOL0     H25616   2.614   4.398   5.014  1.1860 -1.7596  0.6147
  952MOL0     H25617   2.424   4.588   5.027 -0.0325  0.0289 -0.0060
  952MOL0     H25618   2.392   4.927   5.098 -1.6497 -0.6683 -1.1525
  952MOL0     H25619   2.342   4.873   5.271 -0.1636 -1.6660  0.8611
  952MOL0     H25620   2.227   4.678   5.171 -2.7339 -1.1999 -2.1097
  952MOL0     H25621   2.279   4.735   5.014  3.3747  0.4920  1.2869
  952MOL0     H25622   2.064   4.832   5.003 -1.9089  1.2847  1.3351
  952MOL0     H25623   2.057   4.856   5.181 -0.0850  2.3259  0.3251
  952MOL0     H25624   2.217   5.026   4.992  1.7815  1.5267  3.2269
  952MOL0     H25625   2.189   5.053   5.156  1.1321  0.1166 -0.7902
  952MOL0     H25626   2.067   5.116   5.307  0.0706 -0.7816  0.9129
  952MOL0     H25627   1.911   5.206   5.453 -2.9510 -0.9616  1.1408
  952MOL0     H25628   1.552   5.514   5.549  0.3726 -2.9620  2.5474
  952MOL0     H25629   1.379   5.596   5.679  0.2612 -0.3937  0.4127
  952MOL0     H25630   0.970   5.445   5.694  1.6313 -2.6717 -2.7335
  952MOL0     H25631   0.956   5.516   5.537  1.9903 -2.2733  0.6231
  952MOL0     H25632   0.910   5.741   5.645 -0.9574  0.2045  1.3464
  952MOL0     H25633   0.931   5.667   5.804 -2.1772 -0.7035  0.5030
  952MOL0     H25634   0.718   5.522   5.757 -0.0946  1.1564  0.9660
  952MOL0     H25635   0.720   5.574   5.591 -0.9817 -0.8757  0.7480
  952MOL0     H25636   0.696   5.736   5.844 -2.4888  0.6613  0.5004
  952MOL0     H25637   0.678   5.801   5.679  1.6840  0.5150  0.2676
  952MOL0     H25638   0.513   5.577   5.808  1.4927  1.6864  1.9365
  952MOL0     H25639   0.487   5.636   5.647  3.1989 -2.2226 -0.3905
  952MOL0     H25640   0.324   5.730   5.754 -1.3795  0.7654 -0.1857
  952MOL0     H25641   0.443   5.856   5.735 -2.2709  1.1124  1.1070
  952MOL0     H25642   0.341   5.711   5.991 -1.2630  0.3801 -0.9660
  952MOL0     H25643   0.505   5.775   5.986  0.2800 -1.0344 -1.1474
  952MOL0     H25644   0.405   6.006   5.925  1.5937 -1.8076 -1.4928
  952MOL0     H25645   0.358   5.936   6.088  2.9320 -2.4635 -0.1761
  952MOL0     H25646   1.093   5.346   5.494  0.2308  1.1613  0.2630
  952MOL0     H25647   1.273   5.220   5.382  1.2331  1.4920 -3.3899
  952MOL0     H25648   1.602   5.187   5.145 -0.5257  0.4418 -0.1076
  952MOL0     H25649   1.769   5.120   4.998  0.1761  0.5214  0.7458
  952MOL0     H25650   3.360   4.423   4.187 -1.1534  1.3539 -2.9302
  952MOL0     H25651   3.588   4.394   4.086 -1.0902 -1.0816 -0.0256
  952MOL0     H25652   4.168   4.493   4.280 -1.4958 -0.2495  0.0667
  952MOL0     H25653   4.370   4.471   4.160 -0.8299  0.2215  1.5421
  952MOL0     H25654   4.359   4.623   3.744 -2.3555 -2.0655 -0.7626
  952MOL0     H25655   4.357   4.449   3.710  0.3457  0.3283  0.2086
  952MOL0     H25656   4.555   4.618   3.639 -2.0535 -2.1624 -3.1633
  952MOL0     H25657   4.610   4.596   3.807  1.2071  1.1448 -1.6639
  952MOL0     H25658   4.579   4.381   3.587 -1.0637 -0.5566  0.6664
  952MOL0     H25659   4.589   4.331   3.748  2.1626 -0.5999  0.0452
  952MOL0     H25660   4.809   4.456   3.770 -1.0467 -1.3821  1.2760
  952MOL0     H25661   4.812   4.319   3.666 -0.6075 -0.2532  2.7113
  952MOL0     H25662   4.903   4.632   3.391 -0.2756  0.7766  0.6342
  952MOL0     H25663   4.169   4.564   3.797  0.4906 -0.0150  0.3544
  952MOL0     H25664   3.949   4.585   3.913 -0.2062 -1.3112 -1.2218
  953MOL0     O25665   2.889   6.246   6.987  0.0802  0.8410  0.2864
  953MOL0     C25666   2.873   6.266   7.108 -0.4155 -0.1282 -0.3647
  953MOL0     O25667   2.980   6.280   7.194  0.5228 -0.7279  0.3330
  953MOL0     C25668   3.104   6.282   7.144 -0.2478  0.2239  0.0309
  953MOL0     C25669   3.173   6.412   7.140 -0.3591 -0.3519  0.1030
  953MOL0     C25670   3.304   6.415   7.097 -0.1684  0.0894 -0.3583
  953MOL0     C25671   3.372   6.304   7.044  0.1831  0.6179 -0.4782
  953MOL0     O25672   3.507   6.317   7.023 -0.0356  0.0713  0.2213
  953MOL0     C25673   3.582   6.232   6.936 -1.1934 -0.6573 -0.4298
  953MOL0     C25674   3.731   6.232   7.002  0.0308  0.0938  0.2817
  953MOL0     C25675   3.830   6.172   6.900 -0.9462 -0.2168  0.3333
  953MOL0     C25676   3.956   6.133   6.981 -0.4531 -0.0210 -0.2259
  953MOL0     C25677   4.068   6.074   6.892  0.1885 -0.0944 -0.1377
  953MOL0     C25678   4.186   6.023   6.974  0.6713  0.4631  0.0818
  953MOL0     C25679   4.312   5.984   6.901  0.2587 -0.2712  0.3406
  953MOL0     C25680   4.367   6.088   6.802  1.0424  0.2415  0.7861
  953MOL0     N25681   4.413   6.216   6.864  0.2306  0.1201  0.6650
  953MOL0     C25682   4.345   6.337   6.869 -0.3344  0.1175  0.3968
  953MOL0     C25683   4.433   6.409   6.950  0.1088  0.4924 -0.0048
  953MOL0     C25684   4.410   6.542   7.018 -0.4678  0.4419  0.9133
  953MOL0     C25685   4.267   6.595   7.000 -0.3896  0.2989 -0.5041
  953MOL0     C25686   4.177   6.526   7.093  0.2265 -0.2932  0.0761
  953MOL0     C25687   4.032   6.578   7.073  0.1814 -0.4482  0.0213
  953MOL0     O25688   3.985   6.567   6.939 -0.3627 -0.6501  0.3565
  953MOL0     C25689   3.854   6.607   6.925  0.1898  0.2803  1.0476
  953MOL0     C25690   3.789   6.712   6.997 -0.0790  0.5030  0.4476
  953MOL0     C25691   3.650   6.738   6.979 -0.9801  0.3828  0.6376
  953MOL0     C25692   3.581   6.667   6.886 -0.9660 -0.5387  0.5276
  953MOL0     C25693   3.441   6.701   6.858  0.5318  0.1462 -0.6456
  953MOL0     O25694   3.368   6.608   6.790 -0.1606  0.4342  0.4095
  953MOL0     C25695   3.235   6.638   6.775 -0.5160 -0.2240 -0.0175
  953MOL0     C25696   3.190   6.651   6.646  0.8784 -0.1005  0.4729
  953MOL0     C25697   3.053   6.691   6.623 -0.2695 -0.1600  0.2855
  953MOL0     C25698   2.972   6.725   6.732 -0.2633 -0.8550  0.5510
  953MOL0     O25699   2.844   6.761   6.703 -0.0753  0.7646 -0.1223
  953MOL0     C25700   2.740   6.759   6.808 -0.9947  0.5333  0.6230
  953MOL0     C25701   2.604   6.780   6.745 -0.3685  1.1090  0.1458
  953MOL0     C25702   2.497   6.731   6.845 -0.5179 -0.7825 -0.1803
  953MOL0     C25703   2.363   6.760   6.773  0.0637  0.7603 -0.2614
  953MOL0     C25704   2.235   6.736   6.869  0.3768  0.8396  0.0975
  953MOL0     C25705   2.113   6.753   6.786  0.5543 -0.9662 -0.3277
  953MOL0     C25706   1.990   6.721   6.872  0.5938  0.4246  0.0463
  953MOL0     C25707   1.860   6.759   6.798  0.0504 -0.8435 -0.0038
  953MOL0    Cl25708   1.740   6.683   6.896  0.0371 -0.0318 -0.2546
  953MOL0     C25709   3.017   6.712   6.860 -0.0620 -0.0997 -0.3696
  953MOL0     C25710   3.149   6.671   6.883  1.2451  0.1025 -0.5066
  953MOL0     O25711   3.397   6.801   6.905 -0.8960  0.2110  0.2677
  953MOL0     C25712   3.654   6.585   6.801 -0.6538  0.4845  1.1154
  953MOL0     C25713   3.791   6.548   6.821 -0.2037 -0.1361 -0.0274
  953MOL0     N25714   4.549   6.339   6.974 -0.8501  0.5392  0.7734
  953MOL0     N25715   4.532   6.218   6.923  0.7895 -0.3041 -0.1553
  953MOL0     C25716   3.307   6.176   7.041  0.0307  0.9899 -0.5190
  953MOL0     C25717   3.176   6.174   7.084  0.5185 -0.8937 -0.4824
  953MOL0     C25718   2.739   6.282   7.155 -0.1961  0.3455 -0.4806
  953MOL0     C25719   2.704   6.288   7.291  0.5137 -0.9501  0.2239
  953MOL0     C25720   2.579   6.334   7.332  0.4737  0.3280 -0.3253
  953MOL0     C25721   2.482   6.370   7.238 -0.0358  0.4642 -0.1724
  953MOL0     O25722   2.352   6.409   7.260 -0.4496 -0.5645 -0.2112
  953MOL0     C25723   2.322   6.458   7.391  0.3223 -0.4348 -0.5563
  953MOL0     C25724   2.183   6.532   7.384  0.4415 -0.1451 -0.1440
  953MOL0     C25725   2.173   6.645   7.279  0.3021  1.0021  0.8522
  953MOL0     C25726   2.041   6.720   7.293  0.0035 -0.6382  0.7005
  953MOL0     C25727   1.928   6.647   7.238 -0.2800 -0.3943  0.3264
  953MOL0     C25728   1.834   6.583   7.194 -0.8031  0.4159 -0.0880
  953MOL0     C25729   2.520   6.365   7.108 -0.3731 -1.3866 -0.6229
  953MOL0     C25730   2.643   6.326   7.063 -0.6535 -0.8704 -0.0792
  953MOL0     H25731   3.135   6.505   7.182 -1.0356 -0.5128 -0.1338
  953MOL0     H25732   3.369   6.502   7.095 -0.7272  0.5093 -2.5908
  953MOL0     H25733   3.594   6.261   6.831  0.9533 -0.0465 -0.0646
  953MOL0     H25734   3.548   6.128   6.940  0.1872 -1.1001  0.6249
  953MOL0     H25735   3.733   6.173   7.094  1.5351 -2.3860 -1.2452
  953MOL0     H25736   3.764   6.335   7.021  2.1188 -0.5487  0.3885
  953MOL0     H25737   3.866   6.245   6.827  1.1945 -3.2623 -1.9080
  953MOL0     H25738   3.786   6.093   6.839  3.3150 -1.6781 -1.2422
  953MOL0     H25739   3.980   6.216   7.049 -3.1655 -0.5018  1.4611
  953MOL0     H25740   3.932   6.047   7.044  1.3859 -1.7040 -1.6915
  953MOL0     H25741   4.106   6.147   6.821 -2.8827 -0.1158 -2.0107
  953MOL0     H25742   4.033   5.991   6.829  2.5620  0.6917 -2.6761
  953MOL0     H25743   4.155   5.946   7.046 -2.4561  1.3146 -0.1921
  953MOL0     H25744   4.215   6.106   7.039  1.9015  1.6431 -1.8711
  953MOL0     H25745   4.386   5.952   6.976 -2.2998 -2.9632  1.9270
  953MOL0     H25746   4.269   5.894   6.857 -0.6573 -0.0811  0.8183
  953MOL0     H25747   4.294   6.121   6.728  0.3950  2.5845  2.3501
  953MOL0     H25748   4.456   6.045   6.755  0.6827  1.1257 -0.7517
  953MOL0     H25749   4.243   6.353   6.836 -0.1299  0.7894  0.0898
  953MOL0     H25750   4.475   6.622   6.980 -2.6648  2.4029  1.0436
  953MOL0     H25751   4.439   6.551   7.123 -2.5661  0.4189  1.5325
  953MOL0     H25752   4.231   6.563   6.902 -1.0807  0.4935 -0.3195
  953MOL0     H25753   4.266   6.701   7.026  2.6091 -0.3115  2.8932
  953MOL0     H25754   4.174   6.417   7.084  0.0814 -0.5074  2.1251
  953MOL0     H25755   4.200   6.544   7.199  0.1092  0.1733  0.0250
  953MOL0     H25756   4.035   6.683   7.104  1.0595 -0.5799  0.4049
  953MOL0     H25757   3.969   6.517   7.138  1.3397 -1.2943  0.3806
  953MOL0     H25758   3.842   6.764   7.076 -1.4847  0.9018  1.1431
  953MOL0     H25759   3.603   6.822   7.029  2.6216  0.8269  3.7198
  953MOL0     H25760   3.252   6.634   6.559  3.2263  2.1505  1.5625
  953MOL0     H25761   3.022   6.714   6.522  0.9818  0.6439  0.0632
  953MOL0     H25762   2.764   6.839   6.878  2.8218  1.2626 -1.2471
  953MOL0     H25763   2.735   6.659   6.850 -0.4669 -2.2745 -5.0035
  953MOL0     H25764   2.591   6.706   6.665  3.2148  0.1169  0.2983
  953MOL0     H25765   2.597   6.883   6.709  2.2565  1.3876  0.2664
  953MOL0     H25766   2.521   6.798   6.928  2.5473 -0.7083 -0.9949
  953MOL0     H25767   2.507   6.626   6.874 -0.1130 -1.3732 -2.3112
  953MOL0     H25768   2.357   6.861   6.729  0.6901  0.8171 -0.2310
  953MOL0     H25769   2.366   6.690   6.689  1.4126 -0.8327  1.0371
  953MOL0     H25770   2.237   6.803   6.956 -0.1219 -1.8468  2.3517
  953MOL0     H25771   2.230   6.634   6.910  0.6616  1.2859  1.2848
  953MOL0     H25772   2.120   6.680   6.705  1.0227 -0.7948 -0.4414
  953MOL0     H25773   2.103   6.851   6.739  1.2078 -0.5970  0.2838
  953MOL0     H25774   1.978   6.617   6.904 -3.5164  0.8848  0.5725
  953MOL0     H25775   1.998   6.770   6.969 -2.6251 -3.1220  2.3827
  953MOL0     H25776   1.862   6.707   6.701  1.7547 -2.1235  0.6521
  953MOL0     H25777   1.851   6.866   6.781  1.9440 -0.7483 -0.6636
  953MOL0     H25778   2.950   6.752   6.936 -0.8964  0.9064 -1.5920
  953MOL0     H25779   3.191   6.667   6.983 -0.3523 -1.6040  0.1534
  953MOL0     H25780   3.609   6.539   6.714  1.2864 -1.3132  0.9576
  953MOL0     H25781   3.839   6.472   6.760 -2.3953 -3.4390  2.0099
  953MOL0     H25782   3.355   6.088   7.000  2.7943  1.4770  1.3867
  953MOL0     H25783   3.122   6.082   7.066 -2.0075  0.9798 -3.4092
  953MOL0     H25784   2.773   6.257   7.369  0.5939 -0.6569  0.2711
  953MOL0     H25785   2.538   6.323   7.432 -4.0141 -0.7373 -2.0533
  953MOL0     H25786   2.389   6.535   7.433 -3.2595  3.8127 -1.8483
  953MOL0     H25787   2.305   6.378   7.463 -0.4249 -0.1864 -0.4533
  953MOL0     H25788   2.099   6.462   7.377 -0.5792  1.0648 -0.2473
  953MOL0     H25789   2.192   6.584   7.480  0.8669 -0.0964 -0.2059
  953MOL0     H25790   2.195   6.603   7.180  1.3443  0.1126  1.4351
  953MOL0     H25791   2.248   6.722   7.301  0.7694  0.2834  1.8236
  953MOL0     H25792   2.027   6.749   7.398  0.7370  0.7635  0.4420
  953MOL0     H25793   2.061   6.816   7.245  1.4156 -2.5321 -2.8814
  953MOL0     H25794   1.757   6.527   7.144 -2.1009  2.1143 -0.1000
  953MOL0     H25795   2.451   6.395   7.029 -0.4957 -2.3835 -0.9176
  953MOL0     H25796   2.674   6.358   6.964 -0.9976  1.2320  0.4335
  954MOL0     O25797  10.173   4.227   7.989  0.4908 -0.0735  0.9010
  954MOL0     C25798  10.181   4.234   7.866 -0.1217  0.6749  0.1230
  954MOL0     O25799  10.082   4.215   7.768  0.1305  0.0384 -0.6048
  954MOL0     C25800   9.956   4.191   7.815 -0.2306  0.1147  0.3428
  954MOL0     C25801   9.913   4.057   7.842  0.3671  0.2509 -0.3163
  954MOL0     C25802   9.781   4.031   7.892  0.2964  0.0455  0.3123
  954MOL0     C25803   9.687   4.135   7.900 -0.0316 -0.5677 -0.5816
  954MOL0     O25804   9.566   4.111   7.949  0.5959 -0.4954  0.2738
  954MOL0     C25805   9.462   4.175   7.881  0.5280  0.2776  0.0769
  954MOL0     C25806   9.322   4.146   7.929  0.0690 -0.1042  0.8113
  954MOL0     C25807   9.224   4.182   7.822  0.3431 -0.1789 -1.3618
  954MOL0     C25808   9.081   4.160   7.872 -0.1261 -0.6494 -0.3974
  954MOL0     C25809   8.974   4.236   7.785  0.2418  0.4146 -0.0023
  954MOL0     C25810   8.954   4.167   7.643 -0.4093  0.1217 -1.0088
  954MOL0     C25811   8.844   4.224   7.553 -0.2339 -0.4413  0.8591
  954MOL0     C25812   8.825   4.158   7.407 -0.1045 -0.3791  0.6088
  954MOL0     N25813   8.695   4.196   7.361  0.2397 -0.7601 -0.7212
  954MOL0     C25814   8.610   4.123   7.291 -0.1897 -0.8033  0.0630
  954MOL0     C25815   8.527   4.203   7.216  0.2419  0.7263  0.5809
  954MOL0     C25816   8.412   4.153   7.144 -0.3623 -0.5138 -0.8709
  954MOL0     C25817   8.311   4.067   7.237  0.6376  0.0053  1.4207
  954MOL0     C25818   8.168   4.047   7.184 -0.0473 -0.9372 -0.9167
  954MOL0     C25819   8.082   4.171   7.168  0.1284 -0.3734 -0.2281
  954MOL0     O25820   7.943   4.128   7.152 -0.0787  0.4688  0.4225
  954MOL0     C25821   7.863   4.233   7.128  0.1289  0.5689 -0.4773
  954MOL0     C25822   7.731   4.192   7.115 -0.1193 -0.6093 -0.1545
  954MOL0     C25823   7.640   4.293   7.088 -0.5065 -0.2617  0.5324
  954MOL0     C25824   7.674   4.434   7.086  0.2423 -0.3592 -0.5300
  954MOL0     C25825   7.573   4.536   7.068  0.3541 -0.1465  0.8041
  954MOL0     O25826   7.618   4.650   7.006  0.1105  0.6158  0.0435
  954MOL0     C25827   7.518   4.744   7.008 -0.0630 -0.5719  0.1738
  954MOL0     C25828   7.402   4.729   6.932 -0.5455 -0.6651 -0.2041
  954MOL0     C25829   7.289   4.811   6.953 -0.8788 -0.0299 -0.1248
  954MOL0     C25830   7.302   4.920   7.029 -0.0772 -0.1068  0.6170
  954MOL0     O25831   7.185   4.996   7.043 -0.9186 -0.4373  0.0685
  954MOL0     C25832   7.187   5.129   6.988 -0.8304 -0.4566  0.4960
  954MOL0     C25833   7.054   5.173   6.927  0.2601  0.2184  0.0220
  954MOL0     C25834   6.945   5.213   7.022  0.7149 -0.2944 -0.4792
  954MOL0     C25835   6.828   5.277   6.947 -0.6510  1.0801  0.2047
  954MOL0     C25836   6.721   5.311   7.051 -0.3861 -0.3041 -0.1581
  954MOL0     C25837   6.595   5.359   6.981  0.9931 -0.2182  0.3824
  954MOL0     C25838   6.513   5.238   6.920 -0.9427 -0.4328 -1.1065
  954MOL0     C25839   6.401   5.275   6.837  0.4108 -0.2299 -0.0785
  954MOL0    Cl25840   6.282   5.367   6.933  0.5830  0.0740 -0.1312
  954MOL0     C25841   7.420   4.950   7.086  0.2329  0.9824 -0.9343
  954MOL0     C25842   7.529   4.857   7.082 -0.5365 -0.2436  0.3774
  954MOL0     O25843   7.456   4.498   7.081 -0.2606 -0.1642 -0.3446
  954MOL0     C25844   7.808   4.472   7.083 -0.2121 -0.1013 -0.3687
  954MOL0     C25845   7.899   4.369   7.103 -1.0832  0.7703 -0.0910
  954MOL0     N25846   8.548   4.334   7.241  0.3298  0.5666  0.0387
  954MOL0     N25847   8.650   4.324   7.328  0.0319  0.3797 -0.7111
  954MOL0     C25848   9.736   4.266   7.885 -0.8324 -1.3029 -0.0227
  954MOL0     C25849   9.871   4.287   7.850  1.6312  0.4309 -0.2003
  954MOL0     C25850  10.316   4.283   7.806  0.6325 -0.4763 -0.0796
  954MOL0     C25851  10.430   4.284   7.892  0.0087  0.2865 -0.4322
  954MOL0     C25852  10.553   4.323   7.843  0.6401  0.0906 -0.4945
  954MOL0     C25853  10.567   4.360   7.703  0.1940  0.8512  0.5402
  954MOL0     O25854  10.686   4.400   7.640 -0.1995  0.3527 -0.8998
  954MOL0     C25855  10.801   4.376   7.717 -0.2427 -0.1046 -0.1005
  954MOL0     C25856  10.936   4.391   7.631  1.0015  0.1517 -0.1291
  954MOL0     C25857  10.959   4.533   7.574  0.3107  0.2179  0.1910
  954MOL0     C25858  11.092   4.538   7.511  0.2362 -0.4438  0.5289
  954MOL0     C25859  11.206   4.515   7.609 -0.3195  0.2947  0.5371
  954MOL0     C25860  11.297   4.482   7.685  0.4671 -0.7813  0.9628
  954MOL0     C25861  10.452   4.371   7.625  0.6554 -0.8861 -0.8670
  954MOL0     C25862  10.323   4.336   7.676  0.4720  0.2882 -0.1344
  954MOL0     H25863   9.987   3.979   7.827 -1.5174 -1.4240 -1.3752
  954MOL0     H25864   9.747   3.931   7.914  1.3298 -0.8136 -1.7522
  954MOL0     H25865   9.470   4.134   7.780 -0.5177 -4.0248  1.5496
  954MOL0     H25866   9.469   4.284   7.893 -1.6878  0.4263  0.5474
  954MOL0     H25867   9.308   4.201   8.022 -0.6919 -2.0132  1.8885
  954MOL0     H25868   9.308   4.039   7.951  4.5390 -1.2400 -0.8730
  954MOL0     H25869   9.231   4.115   7.736 -0.4570  0.1732 -1.7123
  954MOL0     H25870   9.236   4.285   7.787  1.0280  0.3033  0.1635
  954MOL0     H25871   9.056   4.054   7.883 -0.2807 -0.5793 -0.0649
  954MOL0     H25872   9.062   4.211   7.967 -4.9969  1.5695 -2.1909
  954MOL0     H25873   9.010   4.337   7.764  0.7806  0.3801  0.7181
  954MOL0     H25874   8.881   4.237   7.842  0.0622 -1.2795 -0.1907
  954MOL0     H25875   8.937   4.061   7.663 -2.2521  1.1246  4.6951
  954MOL0     H25876   9.047   4.169   7.585  0.1603 -1.2665 -0.1931
  954MOL0     H25877   8.759   4.213   7.621 -0.5043  4.0291  1.5619
  954MOL0     H25878   8.846   4.332   7.538 -1.1936 -0.4430  0.6918
  954MOL0     H25879   8.837   4.050   7.423  0.5813 -0.2593  0.9488
  954MOL0     H25880   8.898   4.193   7.334  0.6070 -3.8776 -0.5879
  954MOL0     H25881   8.604   4.015   7.293  0.3042 -0.8204  0.9895
  954MOL0     H25882   8.450   4.094   7.059  1.6060 -1.7543  0.7532
  954MOL0     H25883   8.362   4.243   7.108  1.4501  0.5972 -0.7457
  954MOL0     H25884   8.302   4.120   7.332 -1.7112  2.2080  0.0904
  954MOL0     H25885   8.363   3.972   7.256 -1.1074 -1.0227  1.2375
  954MOL0     H25886   8.173   4.000   7.085 -2.6443 -0.1048 -1.5173
  954MOL0     H25887   8.122   3.975   7.252 -4.0818  2.1020 -0.0797
  954MOL0     H25888   8.116   4.214   7.072  3.9377 -0.7162  0.7906
  954MOL0     H25889   8.090   4.244   7.249 -1.6848  0.0098 -0.3468
  954MOL0     H25890   7.680   4.100   7.140 -1.8463  0.6633  1.3379
  954MOL0     H25891   7.538   4.256   7.077  0.9230 -4.9151  0.8386
  954MOL0     H25892   7.377   4.647   6.865 -0.7687  1.0285 -2.2757
  954MOL0     H25893   7.197   4.785   6.902  0.7441 -1.8577 -2.3204
  954MOL0     H25894   7.262   5.124   6.908 -0.7818 -1.3867  0.5853
  954MOL0     H25895   7.215   5.192   7.073 -0.3915  0.1909 -0.1166
  954MOL0     H25896   7.017   5.097   6.858 -0.7225 -0.3024  1.0877
  954MOL0     H25897   7.079   5.269   6.880 -2.5538  1.1780  0.2750
  954MOL0     H25898   6.988   5.277   7.100 -0.8758 -1.5153  1.5145
  954MOL0     H25899   6.899   5.126   7.071  0.1365 -0.0875 -0.6527
  954MOL0     H25900   6.861   5.370   6.899 -0.2525  0.9705  0.2613
  954MOL0     H25901   6.799   5.199   6.877  6.2196  0.3353 -2.6559
  954MOL0     H25902   6.758   5.395   7.111  1.1354 -1.3911  0.4998
  954MOL0     H25903   6.700   5.228   7.119  1.3737 -0.1014  0.6827
  954MOL0     H25904   6.615   5.433   6.902  0.4274 -0.7454 -0.2641
  954MOL0     H25905   6.532   5.411   7.054 -0.4800 -0.5416 -0.6061
  954MOL0     H25906   6.574   5.174   6.857  0.6934 -1.3670  1.2759
  954MOL0     H25907   6.476   5.165   6.993  1.3310 -2.4189 -1.8150
  954MOL0     H25908   6.350   5.183   6.807  1.5621 -0.4585 -1.4166
  954MOL0     H25909   6.439   5.334   6.753 -0.8274  2.3779  1.0701
  954MOL0     H25910   7.434   5.041   7.143 -2.5200  0.6244  0.4561
  954MOL0     H25911   7.616   4.875   7.144 -0.7633  2.2438  0.1031
  954MOL0     H25912   7.842   4.574   7.068 -1.0422 -0.0520 -2.0955
  954MOL0     H25913   8.001   4.404   7.087 -1.0105  0.6081  0.0184
  954MOL0     H25914   9.686   4.359   7.910  1.9360  0.8598 -1.8772
  954MOL0     H25915   9.902   4.389   7.833  2.4440 -0.0577 -1.8050
  954MOL0     H25916  10.424   4.250   7.995 -0.7515 -2.7380 -1.3783
  954MOL0     H25917  10.646   4.332   7.898  0.4888 -1.5895  0.0822
  954MOL0     H25918  10.802   4.277   7.763  2.3443  0.7598  1.9245
  954MOL0     H25919  10.809   4.450   7.796 -0.1638  1.1676 -1.2716
  954MOL0     H25920  11.016   4.352   7.695  0.2495  0.1728  0.8494
  954MOL0     H25921  10.933   4.314   7.552  0.3080 -0.2539  0.2791
  954MOL0     H25922  10.936   4.609   7.650 -0.3986  1.2149 -0.9870
  954MOL0     H25923  10.890   4.547   7.490  3.2971  3.3934 -1.9809
  954MOL0     H25924  11.090   4.460   7.435  0.8232  0.3109 -0.2802
  954MOL0     H25925  11.120   4.630   7.459 -0.6079 -1.1306 -1.2381
  954MOL0     H25926  11.378   4.451   7.749  0.7661  0.7862  1.3973
  954MOL0     H25927  10.455   4.427   7.533  1.8112 -0.3889 -0.5420
  954MOL0     H25928  10.230   4.347   7.622  0.5241 -0.4969 -0.3994
  955MOL0     O25929   2.087   4.389   5.821  0.0949  0.1708 -0.4235
  955MOL0     C25930   2.120   4.504   5.849  0.0089 -0.5456 -0.2716
  955MOL0     O25931   2.041   4.620   5.849  0.2378  0.3633  0.2017
  955MOL0     C25932   1.920   4.605   5.783  0.0056  0.8434  0.5183
  955MOL0     C25933   1.894   4.588   5.646  0.5052  0.0028 -0.4759
  955MOL0     C25934   1.760   4.567   5.594 -0.4550  0.4703 -0.7562
  955MOL0     C25935   1.655   4.555   5.689 -0.4196 -0.5765 -0.7842
  955MOL0     O25936   1.518   4.546   5.657  0.3181 -0.0967 -0.8250
  955MOL0     C25937   1.417   4.620   5.724  0.2061  0.0727 -0.7509
  955MOL0     C25938   1.282   4.587   5.657 -0.4748 -1.1073 -0.7506
  955MOL0     C25939   1.174   4.640   5.758 -0.4534 -0.3357 -0.1276
  955MOL0     C25940   1.038   4.614   5.696  0.7292  0.3899  0.0196
  955MOL0     C25941   0.925   4.682   5.772 -1.5080 -0.2896 -0.4561
  955MOL0     C25942   0.794   4.655   5.705  0.7005 -0.2644 -0.2400
  955MOL0     C25943   0.675   4.709   5.780  1.0345  0.9012 -0.7874
  955MOL0     C25944   0.544   4.671   5.704  0.4862  0.1689  0.4057
  955MOL0     N25945   0.429   4.715   5.776 -0.3349  0.3642  0.2127
  955MOL0     C25946   0.366   4.838   5.764 -0.4835  0.2232 -0.3230
  955MOL0     C25947   0.253   4.818   5.831 -1.0147 -0.4770 -0.5683
  955MOL0     C25948   0.142   4.926   5.855 -0.5011  1.3996  0.0634
  955MOL0     C25949   0.011   4.873   5.934 -1.1825  0.8143  0.6130
  955MOL0     C25950  -0.105   4.945   5.888  0.9804  0.4005 -0.7046
  955MOL0     C25951  -0.232   4.900   5.966 -0.2899 -0.3163  0.7556
  955MOL0     O25952  -0.327   5.005   5.945 -0.7307  0.7100 -0.4645
  955MOL0     C25953  -0.456   4.982   5.993 -1.0224  0.4828  0.1902
  955MOL0     C25954  -0.503   4.858   6.044  0.2500 -0.2678  0.7673
  955MOL0     C25955  -0.634   4.850   6.088 -0.1277  0.2610  0.1135
  955MOL0     C25956  -0.718   4.961   6.095 -0.4882 -0.8644  0.2711
  955MOL0     C25957  -0.851   4.950   6.143 -0.2220 -0.2013 -0.6764
  955MOL0     O25958  -0.909   5.077   6.151 -1.4601  1.0767  0.3904
  955MOL0     C25959  -1.033   5.081   6.198 -0.8212  0.3014 -0.2049
  955MOL0     C25960  -1.137   5.037   6.120 -0.1506  0.7596 -0.3135
  955MOL0     C25961  -1.272   5.066   6.160  0.0095  0.4650  0.3055
  955MOL0     C25962  -1.293   5.124   6.288  0.4637  1.1351 -0.5100
  955MOL0     O25963  -1.421   5.145   6.336 -0.6563  0.2146  0.1486
  955MOL0     C25964  -1.444   5.258   6.419  0.4647  0.6068 -0.3161
  955MOL0     C25965  -1.590   5.241   6.456  0.2617  0.1529 -0.0563
  955MOL0     C25966  -1.681   5.291   6.350  0.6300 -0.3038 -0.2765
  955MOL0     C25967  -1.833   5.284   6.386  0.5122  0.2533 -0.3387
  955MOL0     C25968  -1.912   5.369   6.293 -0.0081  0.6474 -0.7534
  955MOL0     C25969  -2.063   5.368   6.325 -0.6489  0.0313  0.4285
  955MOL0     C25970  -2.134   5.502   6.358 -0.4412 -0.2072  0.6558
  955MOL0     C25971  -2.089   5.559   6.489  0.4985  0.3838 -1.1619
  955MOL0    Cl25972  -2.167   5.714   6.497  0.4598  0.0288  0.0181
  955MOL0     C25973  -1.182   5.158   6.368 -0.0382 -0.6511  0.0989
  955MOL0     C25974  -1.055   5.139   6.320  0.0893 -0.2582 -0.6278
  955MOL0     O25975  -0.898   4.846   6.184 -0.5362  0.2004  0.6510
  955MOL0     C25976  -0.667   5.085   6.031  0.5313 -0.2430  0.2762
  955MOL0     C25977  -0.534   5.093   5.985 -0.3996  0.0906 -0.0554
  955MOL0     N25978   0.249   4.690   5.878 -0.2237  0.6507 -0.0342
  955MOL0     N25979   0.350   4.634   5.845 -0.4256 -0.1504 -0.1734
  955MOL0     C25980   1.688   4.574   5.825 -1.0211  0.3892 -0.2469
  955MOL0     C25981   1.820   4.586   5.872  0.0432  0.4638  0.4546
  955MOL0     C25982   2.266   4.519   5.887  0.3769 -0.4140  0.6891
  955MOL0     C25983   2.362   4.419   5.892  0.0575 -0.2561 -0.3192
  955MOL0     C25984   2.486   4.435   5.937  0.2184 -1.0523  0.5737
  955MOL0     C25985   2.526   4.567   5.970  1.1777 -0.7719  0.3454
  955MOL0     O25986   2.654   4.619   5.988 -0.1416  0.6722 -0.1220
  955MOL0     C25987   2.746   4.524   6.047 -0.6162  0.0954  0.5541
  955MOL0     C25988   2.866   4.588   6.102 -0.8759 -0.1193  0.5968
  955MOL0     C25989   2.967   4.652   6.000  0.8469 -0.0053  0.2473
  955MOL0     C25990   3.109   4.690   6.047  0.6281 -0.7079 -0.6483
  955MOL0     C25991   3.120   4.767   6.172 -0.0093  0.5223 -0.2323
  955MOL0     C25992   3.133   4.819   6.280 -0.0734 -0.1085 -1.4137
  955MOL0     C25993   2.436   4.670   5.959 -0.0680 -0.3910 -0.3091
  955MOL0     C25994   2.308   4.650   5.925 -0.6011  0.1981 -0.0589
  955MOL0     H25995   1.976   4.600   5.576 -0.0591 -0.5696 -1.2611
  955MOL0     H25996   1.733   4.577   5.490  0.8439  1.8167 -0.9953
  955MOL0     H25997   1.450   4.724   5.730 -0.5408  0.2366  1.1050
  955MOL0     H25998   1.407   4.591   5.829 -0.2203 -1.5977 -1.2188
  955MOL0     H25999   1.269   4.479   5.650  0.4305 -1.3211  0.5707
  955MOL0     H26000   1.284   4.632   5.557 -0.3415 -0.6873 -0.5600
  955MOL0     H26001   1.184   4.749   5.768  2.1139 -0.6674  2.0815
  955MOL0     H26002   1.191   4.595   5.856 -0.6596  1.3783  0.7272
  955MOL0     H26003   1.020   4.648   5.594 -1.0622  0.9041  0.4633
  955MOL0     H26004   1.004   4.510   5.697 -3.8733  1.6206 -0.8840
  955MOL0     H26005   0.937   4.791   5.769  0.3108 -0.4669 -0.7219
  955MOL0     H26006   0.929   4.654   5.878  2.0550  0.5651 -0.2656
  955MOL0     H26007   0.788   4.546   5.692 -0.1573 -0.1929 -0.5170
  955MOL0     H26008   0.802   4.703   5.607  0.6445  1.7206  0.6915
  955MOL0     H26009   0.670   4.661   5.878 -1.2742 -0.3801 -1.4665
  955MOL0     H26010   0.684   4.818   5.785 -0.3099  1.2517 -3.7941
  955MOL0     H26011   0.543   4.562   5.698  3.3886  0.1264 -0.7778
  955MOL0     H26012   0.540   4.712   5.602 -1.7925  1.1445  0.8240
  955MOL0     H26013   0.408   4.918   5.704  1.1361 -2.6779 -3.4796
  955MOL0     H26014   0.114   4.961   5.755  2.1081 -1.6248 -1.9097
  955MOL0     H26015   0.185   5.019   5.893  0.3009  2.0616 -2.2563
  955MOL0     H26016   0.027   4.885   6.041 -1.2646  0.2242  0.6963
  955MOL0     H26017  -0.006   4.767   5.912 -0.4204  0.1532  2.9754
  955MOL0     H26018  -0.084   5.049   5.912 -2.3224  0.6730  1.7625
  955MOL0     H26019  -0.131   4.932   5.782 -2.8530 -2.7028  0.3238
  955MOL0     H26020  -0.209   4.877   6.070 -1.5752  2.1018  1.6444
  955MOL0     H26021  -0.263   4.805   5.920  2.0090  0.6263 -3.2945
  955MOL0     H26022  -0.445   4.767   6.032 -0.6138 -0.6121 -1.0888
  955MOL0     H26023  -0.676   4.755   6.120 -2.4785  1.4396  0.7591
  955MOL0     H26024  -1.107   4.997   6.024  0.9812 -0.2802  0.4444
  955MOL0     H26025  -1.358   5.043   6.096  1.9208 -1.0795 -1.8875
  955MOL0     H26026  -1.424   5.352   6.367  3.7559  1.5859  2.3355
  955MOL0     H26027  -1.378   5.258   6.507  1.3742 -0.5561 -0.9644
  955MOL0     H26028  -1.606   5.299   6.547  0.7887 -0.0674  0.1826
  955MOL0     H26029  -1.623   5.138   6.474  0.5859 -0.2211 -1.4587
  955MOL0     H26030  -1.671   5.245   6.252 -1.4150  1.6411 -1.4888
  955MOL0     H26031  -1.672   5.399   6.338  0.2568 -0.2484 -0.0664
  955MOL0     H26032  -1.859   5.179   6.373 -2.6941  0.7354  1.2532
  955MOL0     H26033  -1.860   5.302   6.491 -5.0287  0.2593 -1.4837
  955MOL0     H26034  -1.887   5.330   6.194 -3.5735 -0.2753 -1.4338
  955MOL0     H26035  -1.870   5.469   6.301 -3.9233  2.6518 -2.8025
  955MOL0     H26036  -2.081   5.296   6.405 -0.9036  1.1906  1.4297
  955MOL0     H26037  -2.111   5.324   6.237 -0.5615  1.5897 -0.4192
  955MOL0     H26038  -2.118   5.569   6.272 -2.7457 -0.0164  0.3051
  955MOL0     H26039  -2.243   5.493   6.359 -0.5284  0.1285 -1.3082
  955MOL0     H26040  -1.980   5.567   6.496  0.4646 -0.3323  0.7899
  955MOL0     H26041  -2.130   5.504   6.574 -0.6553  0.9729 -1.3281
  955MOL0     H26042  -1.194   5.200   6.467 -1.1936 -0.7079 -0.0029
  955MOL0     H26043  -0.972   5.177   6.379 -0.3893  1.1041 -0.7871
  955MOL0     H26044  -0.730   5.173   6.033 -0.7205 -1.1141  0.1713
  955MOL0     H26045  -0.500   5.183   5.935 -1.2255  0.1168 -0.5880
  955MOL0     H26046   1.607   4.554   5.895 -0.8547 -2.0286 -0.6778
  955MOL0     H26047   1.850   4.584   5.976  2.9220  0.4248 -0.3065
  955MOL0     H26048   2.340   4.315   5.870  1.8765 -0.5499 -0.9445
  955MOL0     H26049   2.554   4.350   5.945 -0.3671 -1.3677  2.9764
  955MOL0     H26050   2.778   4.454   5.969 -0.4445  0.3399  0.4000
  955MOL0     H26051   2.692   4.460   6.117 -0.7434 -2.3204 -1.5981
  955MOL0     H26052   2.836   4.670   6.169  0.5769 -1.4744  3.0497
  955MOL0     H26053   2.927   4.518   6.161 -1.1264 -0.3582  0.5753
  955MOL0     H26054   2.913   4.741   5.968  0.5171  0.9466  3.2007
  955MOL0     H26055   2.984   4.576   5.922  2.6815 -3.8021  3.9254
  955MOL0     H26056   3.167   4.597   6.056  1.4150 -0.0881  1.7625
  955MOL0     H26057   3.148   4.758   5.971 -2.2929  3.1383  0.9750
  955MOL0     H26058   3.142   4.851   6.381 -2.6329 -0.8853 -0.8464
  955MOL0     H26059   2.479   4.769   5.970 -0.5164 -0.1660 -0.5433
  955MOL0     H26060   2.237   4.731   5.931 -2.9670 -1.7907  0.7272
  956MOL0     O26061   1.192  10.511   3.801  0.0827 -0.1899 -0.0644
  956MOL0     C26062   1.127  10.575   3.722  0.7467 -1.0326 -0.8507
  956MOL0     O26063   0.994  10.552   3.694  0.2176 -0.3700 -0.1751
  956MOL0     C26064   0.923  10.482   3.792  0.0049  0.2385 -0.0503
  956MOL0     C26065   0.941  10.497   3.926  0.3670 -0.8729 -0.9786
  956MOL0     C26066   0.864  10.418   4.013 -0.7488  0.6304  0.4776
  956MOL0     C26067   0.777  10.320   3.967  0.1044 -0.1576 -0.2491
  956MOL0     O26068   0.709  10.256   4.063 -0.6757 -0.1693  0.5890
  956MOL0     C26069   0.711  10.112   4.074 -0.4692 -0.5479 -0.0984
  956MOL0     C26070   0.670  10.058   4.217 -0.1178  0.2788 -0.4451
  956MOL0     C26071   0.754  10.121   4.334 -0.3124 -0.0102  0.3943
  956MOL0     C26072   0.715  10.055   4.460 -0.4845  0.4854  0.3251
  956MOL0     C26073   0.786  10.123   4.574  0.3847  0.0082 -0.7837
  956MOL0     C26074   0.760  10.047   4.708 -1.4390  0.7752  0.6713
  956MOL0     C26075   0.865  10.109   4.797 -0.8234 -0.1314 -0.4902
  956MOL0     C26076   0.854  10.067   4.941 -0.3411 -0.4023 -0.0177
  956MOL0     N26077   0.883   9.920   4.963  0.8492  0.2539 -0.0901
  956MOL0     C26078   0.802   9.803   4.969  0.8070 -0.5017  0.0387
  956MOL0     C26079   0.893   9.705   5.005  0.2136  0.9488 -0.3140
  956MOL0     C26080   0.865   9.559   4.999 -0.7745 -0.2828 -0.2928
  956MOL0     C26081   0.777   9.528   4.881 -0.0393 -0.3117  0.8209
  956MOL0     C26082   0.776   9.380   4.858  0.9467  0.1239  0.7015
  956MOL0     C26083   0.709   9.340   4.722 -0.0796 -0.1051  0.9997
  956MOL0     O26084   0.567   9.361   4.740  0.4727  0.1165  0.4045
  956MOL0     C26085   0.480   9.378   4.638 -0.1612  0.0071 -0.2266
  956MOL0     C26086   0.519   9.380   4.505 -0.0016  0.2568 -0.8962
  956MOL0     C26087   0.416   9.377   4.402  1.0433 -0.7708 -0.1051
  956MOL0     C26088   0.278   9.360   4.439 -0.9608  0.6875 -0.6295
  956MOL0     C26089   0.165   9.350   4.339 -0.2463 -0.1762  0.3764
  956MOL0     O26090   0.204   9.359   4.212  0.6614 -0.8056 -0.0411
  956MOL0     C26091   0.103   9.371   4.122  0.3561  0.0597  0.0483
  956MOL0     C26092   0.041   9.254   4.074 -0.1362 -0.4322  0.0161
  956MOL0     C26093  -0.080   9.260   3.998 -0.2785 -1.0219 -0.6930
  956MOL0     C26094  -0.140   9.382   3.967  0.2931  0.0217  0.0276
  956MOL0     O26095  -0.247   9.393   3.884 -1.0367  0.2381  0.6041
  956MOL0     C26096  -0.343   9.282   3.881 -0.2145 -0.8255  0.0180
  956MOL0     C26097  -0.440   9.313   3.769 -0.1839 -0.7495 -0.4415
  956MOL0     C26098  -0.537   9.425   3.816  0.1181  0.1261 -0.0933
  956MOL0     C26099  -0.673   9.401   3.756  0.7092 -0.2602 -0.3903
  956MOL0     C26100  -0.777   9.500   3.811 -0.1429  0.3259 -0.0744
  956MOL0     C26101  -0.903   9.495   3.733  0.5747  0.0550 -0.2765
  956MOL0     C26102  -1.002   9.604   3.782 -0.1015  0.4290  0.0411
  956MOL0     C26103  -1.140   9.584   3.723  0.7410  1.1135 -0.2780
  956MOL0    Cl26104  -1.157   9.603   3.546  0.0336  0.7744 -0.0732
  956MOL0     C26105  -0.074   9.502   4.008  0.0411  0.2566  0.2100
  956MOL0     C26106   0.045   9.497   4.088  0.3891  0.5913 -0.2836
  956MOL0     O26107   0.050   9.348   4.377 -0.4508  0.5576  0.2623
  956MOL0     C26108   0.250   9.353   4.573  1.0759  1.0005  0.3725
  956MOL0     C26109   0.345   9.358   4.668 -0.8184  0.0943  0.6642
  956MOL0     N26110   1.015   9.764   5.024  0.0575 -0.3879 -0.0115
  956MOL0     N26111   1.005   9.890   5.006  0.4321 -0.1174 -0.0434
  956MOL0     C26112   0.754  10.310   3.827 -0.3911 -0.1079  0.6616
  956MOL0     C26113   0.832  10.388   3.744 -0.2214  0.0689 -0.1509
  956MOL0     C26114   1.193  10.687   3.657 -0.7618 -0.0503  0.8323
  956MOL0     C26115   1.121  10.782   3.583  0.3557 -0.2232 -0.6442
  956MOL0     C26116   1.187  10.861   3.491  0.3089  0.6179  0.3214
  956MOL0     C26117   1.322  10.857   3.477 -0.0814 -0.1190  0.3331
  956MOL0     O26118   1.372  10.947   3.382 -0.0902 -0.4603 -0.0337
  956MOL0     C26119   1.514  10.952   3.356 -0.8719 -0.9099 -0.1000
  956MOL0     C26120   1.543  10.890   3.223  0.0369  0.7140 -0.0642
  956MOL0     C26121   1.494  10.744   3.214 -0.1295  0.4590  0.7725
  956MOL0     C26122   1.522  10.674   3.085  0.3499 -0.3035  0.0233
  956MOL0     C26123   1.450  10.729   2.969 -1.0387  0.1611 -0.3878
  956MOL0     C26124   1.380  10.785   2.895  0.0829  0.1333  0.6649
  956MOL0     C26125   1.402  10.766   3.549 -0.0806  0.5063  0.5864
  956MOL0     C26126   1.337  10.674   3.638 -0.1169 -0.0557 -0.3316
  956MOL0     H26127   1.016  10.569   3.956  0.1961 -1.2661  0.5075
  956MOL0     H26128   0.891  10.429   4.118  3.3402  2.7527 -0.5669
  956MOL0     H26129   0.807  10.070   4.046 -0.6593 -0.6146 -0.6572
  956MOL0     H26130   0.626  10.088   4.009 -2.5724  3.8475  0.6661
  956MOL0     H26131   0.672   9.949   4.225 -0.1736  0.3906  2.3861
  956MOL0     H26132   0.568  10.089   4.241  0.2122 -1.2158  3.9625
  956MOL0     H26133   0.728  10.227   4.330 -1.5109 -0.3139 -0.5612
  956MOL0     H26134   0.859  10.108   4.307 -0.5116  0.2294 -0.5179
  956MOL0     H26135   0.607  10.069   4.475 -0.4774 -1.0026  2.0663
  956MOL0     H26136   0.741   9.949   4.463 -1.9766  0.1149  1.9715
  956MOL0     H26137   0.753  10.227   4.578 -0.1441 -0.1519 -0.8951
  956MOL0     H26138   0.893  10.124   4.555  0.8294  0.4959  1.5493
  956MOL0     H26139   0.781   9.940   4.702 -0.9604  0.9559 -1.8364
  956MOL0     H26140   0.666  10.075   4.757 -0.6186  2.1255  1.5363
  956MOL0     H26141   0.968  10.087   4.767 -0.3097 -0.3718  1.3145
  956MOL0     H26142   0.856  10.217   4.787 -1.8732 -0.3741 -3.1742
  956MOL0     H26143   0.757  10.092   4.987 -0.7577 -2.2934  0.2314
  956MOL0     H26144   0.928  10.126   4.995 -1.2381 -0.0980  0.9145
  956MOL0     H26145   0.700   9.786   4.935  0.8092 -0.3820 -0.0283
  956MOL0     H26146   0.821   9.519   5.091  1.6167 -2.4538  0.0164
  956MOL0     H26147   0.959   9.505   4.989 -0.8402 -0.6164  0.7652
  956MOL0     H26148   0.823   9.565   4.789  0.6027  0.1978  1.3423
  956MOL0     H26149   0.676   9.565   4.904  1.1429  1.2677  4.1064
  956MOL0     H26150   0.877   9.341   4.844  2.6958  3.3068  2.8944
  956MOL0     H26151   0.727   9.334   4.944  0.6972 -1.9083 -0.4844
  956MOL0     H26152   0.728   9.238   4.686  1.0309 -0.0869  1.4834
  956MOL0     H26153   0.750   9.405   4.645 -1.3766 -2.6187 -2.0441
  956MOL0     H26154   0.620   9.370   4.467  0.1327 -1.8345 -0.1054
  956MOL0     H26155   0.438   9.398   4.298 -0.7237 -2.2705 -0.8416
  956MOL0     H26156   0.100   9.164   4.083  0.9402  0.4411  2.6172
  956MOL0     H26157  -0.114   9.162   3.967  1.0554 -1.3922 -1.0628
  956MOL0     H26158  -0.403   9.264   3.971 -0.8552 -0.5012 -0.3391
  956MOL0     H26159  -0.294   9.191   3.844  1.7776 -0.1841  0.9191
  956MOL0     H26160  -0.498   9.222   3.752 -1.5895 -0.4182  2.0222
  956MOL0     H26161  -0.397   9.347   3.674 -1.7475 -2.3459 -1.7909
  956MOL0     H26162  -0.506   9.527   3.789 -0.9242  0.2699 -0.7607
  956MOL0     H26163  -0.540   9.436   3.925  0.4203  1.3566 -0.1859
  956MOL0     H26164  -0.678   9.403   3.646  0.5416 -1.9367 -0.4447
  956MOL0     H26165  -0.703   9.300   3.784 -0.4936  0.8559  2.7534
  956MOL0     H26166  -0.739   9.602   3.815 -0.1573  0.2862  2.1291
  956MOL0     H26167  -0.797   9.466   3.913 -0.4728  0.2672 -0.1571
  956MOL0     H26168  -0.956   9.400   3.736  0.0998  0.3394  1.8083
  956MOL0     H26169  -0.883   9.514   3.627 -1.8842  3.3852 -0.3017
  956MOL0     H26170  -1.012   9.598   3.890 -2.1403  0.9944 -0.0847
  956MOL0     H26171  -0.955   9.699   3.752  0.5552 -0.0062 -0.3474
  956MOL0     H26172  -1.200   9.664   3.769  2.0910  2.6318 -1.0381
  956MOL0     H26173  -1.187   9.494   3.761 -0.9885  1.6188 -1.1059
  956MOL0     H26174  -0.134   9.589   3.984  0.2338 -0.1379 -1.8327
  956MOL0     H26175   0.084   9.587   4.134 -1.7193  0.6257  1.6294
  956MOL0     H26176   0.148   9.336   4.606  0.7968  1.2606 -0.3426
  956MOL0     H26177   0.307   9.346   4.769 -0.6984 -1.0285  0.5910
  956MOL0     H26178   0.675  10.247   3.788 -2.8431  2.9711  0.2929
  956MOL0     H26179   0.832  10.375   3.637 -3.0724 -0.8623 -0.0998
  956MOL0     H26180   1.014  10.782   3.599 -0.2724 -4.5719 -3.2967
  956MOL0     H26181   1.123  10.926   3.434 -2.8467 -0.4270  2.4013
  956MOL0     H26182   1.576  10.919   3.440  1.3177  1.5426 -0.6398
  956MOL0     H26183   1.543  11.057   3.359 -1.6676 -0.6316  4.0342
  956MOL0     H26184   1.501  10.965   3.156  0.7724  3.8767  2.7065
  956MOL0     H26185   1.649  10.881   3.198  0.0065 -1.7087  0.4075
  956MOL0     H26186   1.384  10.746   3.214 -0.5749 -5.6428 -1.0039
  956MOL0     H26187   1.531  10.679   3.294 -0.3996 -1.0069 -0.2539
  956MOL0     H26188   1.629  10.676   3.064  0.5882 -0.2342  1.2027
  956MOL0     H26189   1.500  10.568   3.099  4.5777 -1.0631  2.5330
  956MOL0     H26190   1.315  10.839   2.829 -1.4724 -1.1276  1.1061
  956MOL0     H26191   1.509  10.752   3.547 -0.0683  0.6158  0.4350
  956MOL0     H26192   1.397  10.610   3.702 -1.9726 -0.0650  1.5148
  957MOL0     O26193   3.346   5.517   5.927  0.0780 -0.6534 -0.2279
  957MOL0     C26194   3.419   5.525   6.023 -0.3600 -0.2919 -0.0806
  957MOL0     O26195   3.384   5.519   6.153  0.2239 -0.2145 -0.0613
  957MOL0     C26196   3.257   5.519   6.201 -0.2327  0.3126  0.2951
  957MOL0     C26197   3.214   5.590   6.312  0.1685  0.4688 -0.2257
  957MOL0     C26198   3.079   5.611   6.340  0.2399  0.0848  0.5332
  957MOL0     C26199   2.978   5.534   6.273  0.1233  1.0565  0.3026
  957MOL0     O26200   2.847   5.540   6.306 -0.0378  0.1199  0.6907
  957MOL0     C26201   2.811   5.591   6.436 -0.3112 -0.1660 -0.4658
  957MOL0     C26202   2.685   5.527   6.488 -0.6002 -0.4061 -0.4924
  957MOL0     C26203   2.669   5.581   6.635  0.4957 -0.3581 -0.4413
  957MOL0     C26204   2.533   5.528   6.681  0.5229  0.6702 -0.7733
  957MOL0     C26205   2.475   5.585   6.810  0.0943 -0.0505 -1.0594
  957MOL0     C26206   2.341   5.530   6.872 -0.6014 -0.8281  0.6060
  957MOL0     C26207   2.314   5.615   6.988 -0.3582  0.3534 -1.0819
  957MOL0     C26208   2.180   5.575   7.067 -1.2388 -0.5218  0.0737
  957MOL0     N26209   2.187   5.454   7.148 -0.0239  0.4960  0.4186
  957MOL0     C26210   2.132   5.332   7.099 -0.4677 -0.2620 -0.3842
  957MOL0     C26211   2.169   5.244   7.191 -0.1235 -0.0809  0.1117
  957MOL0     C26212   2.138   5.093   7.181 -0.3804 -0.6854  0.9034
  957MOL0     C26213   2.059   5.055   7.305  1.2718 -0.4402 -0.3011
  957MOL0     C26214   1.902   5.052   7.295 -1.2345 -0.4202 -0.7271
  957MOL0     C26215   1.834   5.162   7.207 -0.1543 -0.4755 -0.0719
  957MOL0     O26216   1.694   5.123   7.198  0.6269  0.3981  0.3170
  957MOL0     C26217   1.609   5.147   7.309 -0.3404  0.5578 -0.3257
  957MOL0     C26218   1.645   5.208   7.435  0.1783 -0.1988  0.3925
  957MOL0     C26219   1.545   5.228   7.529 -0.5262 -0.0109  0.3510
  957MOL0     C26220   1.410   5.192   7.506  0.5458 -1.5652 -0.3064
  957MOL0     C26221   1.294   5.208   7.605 -0.7711  0.1445  0.4793
  957MOL0     O26222   1.165   5.157   7.587 -0.7396 -0.0024  0.6715
  957MOL0     C26223   1.058   5.204   7.664  0.2001  0.1501  0.3216
  957MOL0     C26224   1.052   5.228   7.799 -0.0179 -0.7019 -1.0644
  957MOL0     C26225   0.936   5.283   7.861  0.7099 -0.8392  0.9516
  957MOL0     C26226   0.820   5.305   7.787  0.3897  0.0981 -0.1320
  957MOL0     O26227   0.704   5.368   7.832 -0.2665 -0.0095 -0.1874
  957MOL0     C26228   0.714   5.476   7.920 -0.1175 -0.7799 -0.5735
  957MOL0     C26229   0.817   5.584   7.886 -0.3395  0.3554 -0.8172
  957MOL0     C26230   0.801   5.650   7.750 -0.2635 -0.8534  0.0516
  957MOL0     C26231   0.909   5.767   7.724 -1.0095  0.4974  0.3130
  957MOL0     C26232   1.036   5.714   7.667 -0.6143 -0.7783  0.3582
  957MOL0     C26233   1.143   5.814   7.614  1.0788 -0.7950  0.5922
  957MOL0     C26234   1.218   5.756   7.500 -0.5817  0.5526 -0.0749
  957MOL0     C26235   1.313   5.849   7.444  0.1305 -0.3061 -0.4436
  957MOL0    Cl26236   1.433   5.779   7.338  0.2475  0.2825 -0.0046
  957MOL0     C26237   0.817   5.267   7.652  0.4051  0.4802 -0.3578
  957MOL0     C26238   0.933   5.216   7.598 -0.0763 -0.6164  0.1016
  957MOL0     O26239   1.321   5.298   7.685 -0.5956  0.2779  0.2842
  957MOL0     C26240   1.376   5.139   7.380 -0.8103  0.3739 -0.5737
  957MOL0     C26241   1.479   5.098   7.293  0.5430 -0.1654  0.3593
  957MOL0     N26242   2.224   5.311   7.300 -0.2822 -0.6165 -0.3840
  957MOL0     N26243   2.219   5.442   7.278 -0.0976  0.1216  0.6088
  957MOL0     C26244   3.015   5.463   6.169 -0.3143  0.7072 -0.3673
  957MOL0     C26245   3.150   5.452   6.133  0.2765 -0.9514  0.0716
  957MOL0     C26246   3.567   5.528   6.007 -0.8927  0.5320 -0.2167
  957MOL0     C26247   3.651   5.465   6.107  0.4528 -0.8192  0.5106
  957MOL0     C26248   3.793   5.464   6.095  0.4172  0.4200  0.1290
  957MOL0     C26249   3.854   5.524   5.988  0.1645 -0.1032 -0.2586
  957MOL0     O26250   3.994   5.522   5.967 -0.0227 -0.3543 -0.6122
  957MOL0     C26251   4.082   5.491   6.084 -0.2824  0.6418  0.0635
  957MOL0     C26252   4.089   5.612   6.182 -0.0988 -0.1005  0.5218
  957MOL0     C26253   4.155   5.744   6.129  0.8824 -0.0347 -0.0007
  957MOL0     C26254   4.308   5.741   6.102 -0.2884 -0.0461 -0.4730
  957MOL0     C26255   4.349   5.879   6.076  0.1737 -0.2692 -0.3063
  957MOL0     C26256   4.393   5.990   6.051 -0.2113 -0.2065 -0.2511
  957MOL0     C26257   3.771   5.592   5.903  0.3814 -0.3321  0.3257
  957MOL0     C26258   3.630   5.590   5.911 -0.3515 -0.3226  0.1942
  957MOL0     H26259   3.285   5.659   6.358  0.8814  0.2744 -0.9938
  957MOL0     H26260   3.045   5.677   6.419 -0.9198  0.9262 -0.6315
  957MOL0     H26261   2.805   5.700   6.437  1.1716 -0.0392  1.5939
  957MOL0     H26262   2.891   5.562   6.504  2.2342  2.3623 -2.1739
  957MOL0     H26263   2.702   5.420   6.478 -0.2403 -0.6693  2.2064
  957MOL0     H26264   2.599   5.555   6.426  1.3193  2.2029 -2.2059
  957MOL0     H26265   2.674   5.689   6.650 -1.3901 -0.5561  2.2831
  957MOL0     H26266   2.756   5.543   6.688  0.8433  1.8024  0.6514
  957MOL0     H26267   2.456   5.534   6.604 -0.2726 -4.0105 -0.6566
  957MOL0     H26268   2.553   5.421   6.698  2.4337  0.6575 -2.5821
  957MOL0     H26269   2.464   5.690   6.784 -3.7153  0.1312  0.6081
  957MOL0     H26270   2.554   5.581   6.885 -2.5354  1.8247  2.0786
  957MOL0     H26271   2.360   5.425   6.895 -0.8558 -0.4146  2.9492
  957MOL0     H26272   2.257   5.544   6.802  1.2859 -1.4372 -1.9443
  957MOL0     H26273   2.402   5.622   7.052 -0.3427 -3.3693 -0.4679
  957MOL0     H26274   2.294   5.716   6.952  0.7995  2.2598  3.0385
  957MOL0     H26275   2.090   5.569   7.005 -0.7186  0.1835 -0.7604
  957MOL0     H26276   2.163   5.653   7.142 -0.8725 -1.0949  0.7722
  957MOL0     H26277   2.093   5.310   7.001 -0.8097  0.1401 -0.3441
  957MOL0     H26278   2.229   5.038   7.156  0.3511  0.4307  1.0736
  957MOL0     H26279   2.073   5.072   7.095  0.4476 -3.4108  0.8482
  957MOL0     H26280   2.082   5.116   7.393  0.9263  0.2757 -0.7035
  957MOL0     H26281   2.077   4.950   7.331  1.2479 -1.7282 -4.5830
  957MOL0     H26282   1.869   4.958   7.250 -1.2217 -1.6065  1.5748
  957MOL0     H26283   1.861   5.045   7.396 -0.8241  0.4848 -0.4868
  957MOL0     H26284   1.880   5.156   7.108  0.4557  1.3182  0.0632
  957MOL0     H26285   1.848   5.261   7.251 -2.8920  0.2439 -0.6577
  957MOL0     H26286   1.749   5.235   7.447  0.0478  1.8504 -2.1972
  957MOL0     H26287   1.574   5.281   7.620 -0.7480  0.8711 -0.0807
  957MOL0     H26288   1.146   5.207   7.850 -1.5137 -3.8823  0.6795
  957MOL0     H26289   0.937   5.324   7.961 -1.7215 -0.6920  0.9583
  957MOL0     H26290   0.717   5.437   8.022  0.5513 -3.0811 -1.4141
  957MOL0     H26291   0.616   5.523   7.909  0.7139  0.9419 -0.8637
  957MOL0     H26292   0.909   5.531   7.911 -1.9166 -1.0966  2.7661
  957MOL0     H26293   0.804   5.665   7.959 -0.3521  1.2596 -1.8014
  957MOL0     H26294   0.696   5.682   7.743 -0.2506 -0.6185  0.8951
  957MOL0     H26295   0.815   5.573   7.674  0.3230 -1.5589  0.8634
  957MOL0     H26296   0.869   5.830   7.645 -1.3012 -1.4924 -1.2115
  957MOL0     H26297   0.938   5.820   7.815  1.0343 -0.9410  0.5790
  957MOL0     H26298   1.008   5.644   7.588  1.4157  0.0733 -1.2155
  957MOL0     H26299   1.089   5.660   7.746 -0.6079  2.6193  2.9206
  957MOL0     H26300   1.209   5.851   7.693  2.3605 -1.9446  0.1062
  957MOL0     H26301   1.085   5.900   7.580  0.0411 -2.2632 -1.5297
  957MOL0     H26302   1.279   5.675   7.542 -0.6695  0.2735 -0.4795
  957MOL0     H26303   1.163   5.706   7.421  1.6319 -3.6932  0.7569
  957MOL0     H26304   1.370   5.878   7.534 -0.2831 -1.8129  0.3286
  957MOL0     H26305   1.266   5.932   7.391  2.0594 -0.1358 -1.9872
  957MOL0     H26306   0.733   5.291   7.589  0.6826 -1.5209 -1.5794
  957MOL0     H26307   0.923   5.186   7.495  2.3734 -0.7728 -0.1360
  957MOL0     H26308   1.276   5.109   7.351 -0.5213 -3.6939  1.8844
  957MOL0     H26309   1.462   5.047   7.199 -0.4692  2.5087 -1.0260
  957MOL0     H26310   2.947   5.405   6.108  0.8487 -3.5882  2.0185
  957MOL0     H26311   3.162   5.408   6.035 -0.3527  1.3828 -1.1189
  957MOL0     H26312   3.599   5.408   6.182  0.0144 -1.3827 -0.2118
  957MOL0     H26313   3.841   5.405   6.172  0.0699 -0.7650 -0.5489
  957MOL0     H26314   4.180   5.463   6.043 -1.7432 -2.4675 -1.7149
  957MOL0     H26315   4.045   5.399   6.130 -1.0730 -0.2274 -2.1447
  957MOL0     H26316   3.991   5.633   6.226  0.6178  0.7770  1.7429
  957MOL0     H26317   4.153   5.588   6.267 -1.5975  2.8687  2.6470
  957MOL0     H26318   4.127   5.821   6.202 -1.8916  0.7048 -1.6887
  957MOL0     H26319   4.107   5.764   6.032 -0.6973  3.0980  1.2706
  957MOL0     H26320   4.362   5.696   6.186  0.0788  0.7271 -0.2758
  957MOL0     H26321   4.329   5.684   6.012  1.0195  1.8362 -1.4364
  957MOL0     H26322   4.434   6.080   6.011  1.5165 -1.0498 -0.4645
  957MOL0     H26323   3.811   5.640   5.814  1.2214 -0.8656  0.4111
  957MOL0     H26324   3.578   5.662   5.849  0.6669 -0.1385 -0.4584
  958MOL0     O26325   8.018   6.721   6.269 -0.0486  0.3814 -0.5956
  958MOL0     C26326   8.033   6.832   6.225  0.0742  0.2131 -0.4457
  958MOL0     O26327   7.969   6.947   6.268 -0.1536  0.0610  0.4001
  958MOL0     C26328   7.859   6.951   6.353 -0.0152 -0.7309 -0.2339
  958MOL0     C26329   7.835   7.077   6.421 -0.1420 -0.3368 -0.2946
  958MOL0     C26330   7.721   7.094   6.488  0.2171  0.5339 -0.6363
  958MOL0     C26331   7.636   6.985   6.511 -0.1120 -0.2794  0.1651
  958MOL0     O26332   7.538   6.990   6.605 -0.0778  0.2649  0.9001
  958MOL0     C26333   7.492   7.115   6.651 -0.6072  0.3276  0.4622
  958MOL0     C26334   7.393   7.084   6.760  0.5988  0.2111 -0.0525
  958MOL0     C26335   7.251   7.036   6.703  0.8511  0.2352  0.4163
  958MOL0     C26336   7.180   7.151   6.631  0.4506 -0.8733 -0.5891
  958MOL0     C26337   7.029   7.126   6.598  0.0747  0.4859 -0.3297
  958MOL0     C26338   6.970   7.253   6.543 -0.8334  0.3770 -0.2495
  958MOL0     C26339   6.822   7.247   6.508  0.8826 -0.5009 -1.5358
  958MOL0     C26340   6.798   7.135   6.415 -0.3370  0.1375  0.0500
  958MOL0     N26341   6.655   7.137   6.375  0.4283 -0.0925  0.1681
  958MOL0     C26342   6.594   7.023   6.324  0.2222  0.3529  0.2415
  958MOL0     C26343   6.471   7.058   6.288  0.3748  0.2604 -0.3635
  958MOL0     C26344   6.374   6.951   6.241 -0.8798  0.3435 -0.2997
  958MOL0     C26345   6.237   6.965   6.297 -0.0757  0.2112 -0.8903
  958MOL0     C26346   6.245   6.942   6.444 -0.2551  0.8340  0.0722
  958MOL0     C26347   6.122   6.887   6.508 -0.9851 -0.0146  0.2763
  958MOL0     O26348   6.015   6.966   6.455 -0.3012 -0.2008  0.1148
  958MOL0     C26349   5.900   6.899   6.429 -0.3623 -0.5116  0.4947
  958MOL0     C26350   5.846   6.784   6.493  0.2771 -0.5091  0.6855
  958MOL0     C26351   5.731   6.723   6.451 -0.2656 -0.2100 -0.2794
  958MOL0     C26352   5.663   6.774   6.337 -0.6796  0.5935 -0.2781
  958MOL0     C26353   5.539   6.714   6.297  0.5981 -0.7811 -0.8167
  958MOL0     O26354   5.456   6.661   6.390 -0.5426 -0.2784  0.1486
  958MOL0     C26355   5.340   6.615   6.347  0.3530 -0.4889 -1.3263
  958MOL0     C26356   5.322   6.478   6.342  1.8812  0.3604 -0.2468
  958MOL0     C26357   5.192   6.425   6.292 -0.7462  0.2236 -0.5784
  958MOL0     C26358   5.086   6.513   6.265 -0.4906 -1.2050 -0.8738
  958MOL0     O26359   4.975   6.455   6.216 -0.3133 -0.2662  0.9299
  958MOL0     C26360   4.857   6.528   6.205 -0.2065  0.1470 -0.7834
  958MOL0     C26361   4.744   6.441   6.151 -0.2879  0.0132  0.3345
  958MOL0     C26362   4.608   6.507   6.130  0.2480 -0.0671  0.0023
  958MOL0     C26363   4.539   6.518   6.266 -0.2091  0.1555  0.3113
  958MOL0     C26364   4.403   6.580   6.252 -0.6868 -0.5494  0.1135
  958MOL0     C26365   4.305   6.507   6.166  0.3441 -0.8924  0.4480
  958MOL0     C26366   4.289   6.356   6.203 -0.1760 -0.6035 -0.2156
  958MOL0     C26367   4.158   6.299   6.158 -0.1057  1.0277 -0.2029
  958MOL0    Cl26368   4.169   6.251   5.987  0.6588  0.0350 -0.1278
  958MOL0     C26369   5.109   6.651   6.278  0.2289 -0.7371 -0.2271
  958MOL0     C26370   5.237   6.700   6.313 -0.4995 -0.3936  0.2918
  958MOL0     O26371   5.504   6.723   6.182 -0.0383 -0.1977  0.3262
  958MOL0     C26372   5.728   6.882   6.262  0.0817  0.5324 -0.7475
  958MOL0     C26373   5.836   6.952   6.321 -0.1471 -0.3504  0.4426
  958MOL0     N26374   6.457   7.194   6.307  0.6429  0.3035  0.4725
  958MOL0     N26375   6.567   7.240   6.353 -0.0185 -0.0808  0.8917
  958MOL0     C26376   7.660   6.865   6.449  0.0575  0.0143 -0.3995
  958MOL0     C26377   7.767   6.851   6.358  0.4486  0.8428 -1.0325
  958MOL0     C26378   8.125   6.851   6.115  0.0339 -0.2048 -0.0089
  958MOL0     C26379   8.191   6.977   6.085  0.0289 -0.0564  0.1973
  958MOL0     C26380   8.272   6.997   5.974  0.3591  0.8602 -0.4191
  958MOL0     C26381   8.275   6.899   5.875 -0.3407 -0.2983 -0.4248
  958MOL0     O26382   8.361   6.909   5.767  0.4566  0.0228  0.0476
  958MOL0     C26383   8.353   7.032   5.700  0.0828  0.2073  0.4891
  958MOL0     C26384   8.456   7.035   5.588  0.1169  0.0880 -0.8991
  958MOL0     C26385   8.595   7.014   5.644 -0.4278 -0.2710 -0.3722
  958MOL0     C26386   8.648   7.110   5.752  0.6043  0.2904 -0.1887
  958MOL0     C26387   8.629   7.248   5.695 -0.4349 -0.4409 -0.2650
  958MOL0     C26388   8.598   7.356   5.639 -0.6643 -0.2059  0.0815
  958MOL0     C26389   8.210   6.776   5.895 -0.0039 -0.3042 -0.0828
  958MOL0     C26390   8.130   6.759   6.007  0.1547 -0.2461 -0.7667
  958MOL0     H26391   7.896   7.167   6.416 -2.4968  1.3967  0.4143
  958MOL0     H26392   7.710   7.197   6.521  0.6321  0.9571 -1.7933
  958MOL0     H26393   7.463   7.178   6.567 -1.4790  0.4179  0.8198
  958MOL0     H26394   7.585   7.150   6.698  0.0793 -0.8410  0.0252
  958MOL0     H26395   7.397   7.162   6.836 -0.2412 -0.6477  0.9058
  958MOL0     H26396   7.442   6.995   6.801 -1.0761 -1.1444 -0.8643
  958MOL0     H26397   7.184   6.988   6.775  1.1383  0.6949  0.9941
  958MOL0     H26398   7.274   6.960   6.628 -0.8777  1.1237 -1.0977
  958MOL0     H26399   7.179   7.233   6.704 -0.3049 -0.1545 -1.3898
  958MOL0     H26400   7.228   7.185   6.539  1.2819 -0.2955  0.0492
  958MOL0     H26401   6.975   7.098   6.688  0.6089  0.3914 -0.0325
  958MOL0     H26402   7.019   7.045   6.525 -5.1104 -0.0938  0.6661
  958MOL0     H26403   7.013   7.293   6.451 -0.4284  4.1890  1.4235
  958MOL0     H26404   6.977   7.327   6.623  0.7390  2.0041 -1.8000
  958MOL0     H26405   6.767   7.249   6.603 -0.3615  2.3198 -2.1811
  958MOL0     H26406   6.793   7.337   6.453 -0.5503  0.1279  0.1497
  958MOL0     H26407   6.810   7.036   6.459 -1.3655 -0.0572 -0.0840
  958MOL0     H26408   6.859   7.141   6.324 -1.6035 -0.0641 -0.8472
  958MOL0     H26409   6.630   6.921   6.330 -0.8372  0.0030  0.9234
  958MOL0     H26410   6.412   6.849   6.256 -1.6965 -0.1852 -1.6565
  958MOL0     H26411   6.367   6.962   6.132  2.8872 -1.5950 -0.9080
  958MOL0     H26412   6.164   6.900   6.249 -1.3894 -0.2327  1.5490
  958MOL0     H26413   6.203   7.067   6.278 -0.2637  0.1575 -0.8411
  958MOL0     H26414   6.329   6.877   6.470  2.4870  2.3284 -4.0139
  958MOL0     H26415   6.267   7.039   6.488  1.4823  0.8203 -0.7015
  958MOL0     H26416   6.116   6.909   6.615  1.5298 -1.5646  0.8216
  958MOL0     H26417   6.114   6.779   6.492 -0.7689  0.0759 -0.4851
  958MOL0     H26418   5.908   6.741   6.571  1.4802 -0.5182 -0.2496
  958MOL0     H26419   5.695   6.631   6.497 -1.2178 -0.2443 -1.0458
  958MOL0     H26420   5.409   6.419   6.369 -0.0541 -1.4984  2.5015
  958MOL0     H26421   5.171   6.323   6.260  0.4062  0.1128 -1.0179
  958MOL0     H26422   4.874   6.612   6.136 -0.4393  1.4574  0.6980
  958MOL0     H26423   4.833   6.568   6.304  2.3896  1.6683 -0.6772
  958MOL0     H26424   4.730   6.351   6.213 -0.4359 -1.4890 -1.7932
  958MOL0     H26425   4.786   6.406   6.056  0.2634  1.1546  0.1399
  958MOL0     H26426   4.543   6.457   6.057 -0.5721  0.4361  0.3687
  958MOL0     H26427   4.618   6.610   6.096 -2.1913 -0.7799 -3.5215
  958MOL0     H26428   4.528   6.419   6.312 -0.3492  0.1820  0.3354
  958MOL0     H26429   4.599   6.577   6.336  1.0255  1.3405 -1.6512
  958MOL0     H26430   4.405   6.687   6.228  0.4520 -0.9346 -1.6855
  958MOL0     H26431   4.360   6.575   6.352 -0.2788 -1.1650  0.2636
  958MOL0     H26432   4.335   6.524   6.062 -2.1958  0.2873 -0.1791
  958MOL0     H26433   4.213   6.567   6.162  1.8076  1.4040 -1.3890
  958MOL0     H26434   4.373   6.300   6.161 -1.2563 -2.3181 -0.2059
  958MOL0     H26435   4.289   6.340   6.311 -3.7270 -0.8127 -0.1210
  958MOL0     H26436   4.076   6.370   6.172  0.0667  1.0601  0.7351
  958MOL0     H26437   4.141   6.208   6.218 -1.5976 -0.8213 -3.2016
  958MOL0     H26438   5.032   6.725   6.265  0.7390 -0.3028 -0.8502
  958MOL0     H26439   5.254   6.807   6.314 -0.5184 -0.2467 -3.4548
  958MOL0     H26440   5.690   6.940   6.179 -1.3539  2.6115  1.2406
  958MOL0     H26441   5.886   7.034   6.269  0.7676 -1.1114  0.0889
  958MOL0     H26442   7.596   6.778   6.459  0.9670 -0.5845  0.4523
  958MOL0     H26443   7.784   6.752   6.317  2.4964 -0.4083  2.4260
  958MOL0     H26444   8.180   7.054   6.161  0.7659 -1.2097  1.5194
  958MOL0     H26445   8.332   7.087   5.970  1.6435  0.0675  0.1382
  958MOL0     H26446   8.375   7.126   5.752  0.4456 -0.1480  0.9917
  958MOL0     H26447   8.252   7.035   5.659  0.7444  1.1109 -1.1770
  958MOL0     H26448   8.437   6.951   5.520  0.0426 -0.9344  0.3665
  958MOL0     H26449   8.449   7.122   5.522 -2.6803 -0.2651 -1.1728
  958MOL0     H26450   8.666   7.019   5.562  0.1877 -2.4468 -0.0153
  958MOL0     H26451   8.606   6.913   5.684  1.2576 -0.2289 -0.6932
  958MOL0     H26452   8.592   7.081   5.842  2.3685 -0.5624  0.6782
  958MOL0     H26453   8.754   7.101   5.777  0.3875 -2.5052  0.0038
  958MOL0     H26454   8.589   7.450   5.590 -2.3413  0.7959  2.1572
  958MOL0     H26455   8.233   6.696   5.825 -0.7533 -0.1990 -0.4566
  958MOL0     H26456   8.075   6.666   6.021 -0.6191  0.3696  0.5960
  959MOL0     O26457   8.991   6.662   4.453 -0.0634  0.5576  0.5272
  959MOL0     C26458   9.075   6.690   4.370 -0.4279 -0.5341  1.1135
  959MOL0     O26459   9.052   6.738   4.244  0.8536  0.5674 -0.4020
  959MOL0     C26460   8.920   6.716   4.192 -0.6240 -0.5097 -0.3880
  959MOL0     C26461   8.810   6.783   4.258  0.0015 -0.4410 -0.4522
  959MOL0     C26462   8.683   6.770   4.207  0.0099 -0.0124 -0.1365
  959MOL0     C26463   8.663   6.692   4.090  0.0358 -0.4948  1.4012
  959MOL0     O26464   8.540   6.676   4.021  0.0217  0.6779 -0.2931
  959MOL0     C26465   8.424   6.725   4.086 -0.0505 -0.4614 -0.2824
  959MOL0     C26466   8.307   6.718   3.986 -0.3127  0.4656  0.4349
  959MOL0     C26467   8.170   6.729   4.051  0.1120  0.1123 -0.4182
  959MOL0     C26468   8.047   6.721   3.954 -1.1913 -0.7675 -0.7693
  959MOL0     C26469   7.915   6.750   4.028 -0.5295 -0.5168  0.2139
  959MOL0     C26470   7.890   6.898   4.049  0.8994  0.1022 -0.5355
  959MOL0     C26471   7.763   6.939   4.132  0.1323  0.5464 -0.3046
  959MOL0     C26472   7.766   6.903   4.282 -0.4450 -0.4197 -0.2419
  959MOL0     N26473   7.655   6.963   4.353 -0.2792  0.2763 -0.2167
  959MOL0     C26474   7.604   7.095   4.337  0.4190  0.5045 -0.0033
  959MOL0     C26475   7.518   7.105   4.431  0.7848 -0.7290  0.4033
  959MOL0     C26476   7.415   7.222   4.435 -0.1526  0.0042 -0.3104
  959MOL0     C26477   7.282   7.168   4.417  0.6555 -0.2818 -0.6310
  959MOL0     C26478   7.238   7.108   4.286  0.0355  0.8583  0.9172
  959MOL0     C26479   7.088   7.088   4.290 -0.3772  0.5751 -0.0369
  959MOL0     O26480   7.043   7.005   4.401 -0.2954 -1.0593 -0.5211
  959MOL0     C26481   6.905   7.037   4.419 -0.5650 -0.1271 -0.0405
  959MOL0     C26482   6.859   7.052   4.546 -0.1146 -0.0618 -0.3206
  959MOL0     C26483   6.725   7.068   4.568  0.2666 -0.1858  0.8559
  959MOL0     C26484   6.628   7.078   4.463  0.0873  0.1165 -0.6071
  959MOL0     C26485   6.482   7.103   4.495  0.0841  0.6394  0.0423
  959MOL0     O26486   6.453   7.122   4.627 -0.3645  0.1847 -0.0509
  959MOL0     C26487   6.334   7.171   4.673 -0.3053  0.0624  0.2505
  959MOL0     C26488   6.333   7.305   4.702  0.0992 -0.3608  0.0582
  959MOL0     C26489   6.212   7.355   4.728  0.6881  0.0688 -0.7795
  959MOL0     C26490   6.091   7.286   4.744  0.0764  0.8474  0.4114
  959MOL0     O26491   5.976   7.347   4.778 -0.4437  0.4984 -0.4895
  959MOL0     C26492   5.966   7.485   4.776  0.6183 -0.5033 -0.4966
  959MOL0     C26493   5.819   7.526   4.805  0.1666  0.3698 -0.8233
  959MOL0     C26494   5.805   7.682   4.800 -0.0893 -0.0527 -0.6018
  959MOL0     C26495   5.656   7.727   4.818 -0.0845  0.1959 -0.3384
  959MOL0     C26496   5.592   7.740   4.956 -0.4295  0.1395  0.6138
  959MOL0     C26497   5.664   7.692   5.079 -1.0826 -0.5921  1.0462
  959MOL0     C26498   5.576   7.719   5.201 -0.1867  0.0901 -0.4718
  959MOL0     C26499   5.647   7.671   5.328  0.6847 -0.2838 -0.9107
  959MOL0    Cl26500   5.526   7.680   5.472 -0.7335 -0.0376  0.2628
  959MOL0     C26501   6.088   7.148   4.710 -0.3044  0.5603 -0.3158
  959MOL0     C26502   6.213   7.089   4.666 -0.2315 -0.4191  0.1971
  959MOL0     O26503   6.407   7.132   4.402  1.2816  0.9553 -0.2530
  959MOL0     C26504   6.675   7.068   4.337  0.4587 -0.4077 -0.3067
  959MOL0     C26505   6.812   7.051   4.303 -0.3363  0.0164 -0.9773
  959MOL0     N26506   7.523   6.997   4.512  0.0785 -0.0824  0.4766
  959MOL0     N26507   7.607   6.916   4.469  0.6915  0.2506  0.3421
  959MOL0     C26508   8.768   6.629   4.027 -0.7153  1.1110 -0.5182
  959MOL0     C26509   8.895   6.645   4.072 -0.3344  0.4121 -0.7312
  959MOL0     C26510   9.210   6.704   4.419 -0.2208 -0.9122 -0.8032
  959MOL0     C26511   9.319   6.672   4.340  0.0609 -0.4470  0.8459
  959MOL0     C26512   9.451   6.695   4.390  0.0481  1.0185  0.8352
  959MOL0     C26513   9.479   6.733   4.520  0.6342 -0.4642 -0.2302
  959MOL0     O26514   9.612   6.737   4.551 -0.8517 -0.4132  0.2720
  959MOL0     C26515   9.661   6.848   4.630  1.0644  0.6789  0.7435
  959MOL0     C26516   9.803   6.806   4.637 -0.7550 -0.4940 -0.2135
  959MOL0     C26517   9.879   6.925   4.704  0.0726  0.3127  0.2799
  959MOL0     C26518  10.020   6.943   4.639  0.4278  0.4202  0.4531
  959MOL0     C26519  10.005   6.996   4.501  0.4464 -0.1262  0.0114
  959MOL0     C26520  10.003   7.067   4.405  0.3428  0.2411 -0.5221
  959MOL0     C26521   9.370   6.771   4.596 -0.5358 -0.0614 -0.4497
  959MOL0     C26522   9.245   6.758   4.549  0.8385 -0.7542  0.4780
  959MOL0     H26523   8.824   6.855   4.338 -1.2536 -0.2733 -0.3620
  959MOL0     H26524   8.595   6.822   4.242  0.0071  0.4257 -0.7912
  959MOL0     H26525   8.439   6.829   4.114  0.0919 -0.8804  1.2527
  959MOL0     H26526   8.398   6.662   4.172 -3.6850 -0.5603 -1.2515
  959MOL0     H26527   8.314   6.628   3.925  1.7827 -0.6596  2.1649
  959MOL0     H26528   8.330   6.803   3.922 -0.5583 -0.2713 -0.6542
  959MOL0     H26529   8.155   6.825   4.101 -2.8708 -1.3901  1.9368
  959MOL0     H26530   8.164   6.647   4.124  0.5568 -1.4524 -2.0810
  959MOL0     H26531   8.058   6.783   3.865  1.0803 -0.1818 -0.1325
  959MOL0     H26532   8.046   6.616   3.922  2.2250 -0.5107 -2.0478
  959MOL0     H26533   7.925   6.699   4.125  1.7319  0.4845  0.5682
  959MOL0     H26534   7.835   6.704   3.970  1.9116 -1.5852 -2.5687
  959MOL0     H26535   7.877   6.933   3.946  1.2049  1.8903 -0.0064
  959MOL0     H26536   7.971   6.952   4.099  0.3758  1.1095 -0.7480
  959MOL0     H26537   7.745   7.047   4.130  4.9713  1.5882  0.5620
  959MOL0     H26538   7.671   6.892   4.094 -0.2673 -1.3985  2.7429
  959MOL0     H26539   7.859   6.956   4.306 -1.6841  1.8547 -0.2539
  959MOL0     H26540   7.790   6.797   4.299 -2.4037 -0.7309  0.8175
  959MOL0     H26541   7.615   7.168   4.258 -2.4947  1.4948  0.3895
  959MOL0     H26542   7.441   7.298   4.361 -0.1622  0.4311  0.1196
  959MOL0     H26543   7.416   7.276   4.530  1.6111  0.3773 -0.5065
  959MOL0     H26544   7.208   7.248   4.430  0.2433 -0.7862  0.2189
  959MOL0     H26545   7.273   7.092   4.495  0.1501  1.0552  0.6538
  959MOL0     H26546   7.270   7.164   4.198  2.8710  0.9743  1.9105
  959MOL0     H26547   7.279   7.006   4.286 -1.6483  0.0135  4.3958
  959MOL0     H26548   7.067   7.028   4.201  0.4106  1.0185 -0.5236
  959MOL0     H26549   7.037   7.185   4.282 -1.0197  0.2950  0.4999
  959MOL0     H26550   6.932   7.044   4.626  0.5248  1.2796 -0.7425
  959MOL0     H26551   6.688   7.073   4.670 -2.3014 -1.0474  0.0609
  959MOL0     H26552   6.427   7.360   4.705 -0.0600 -0.0989  0.4316
  959MOL0     H26553   6.210   7.461   4.751 -1.2384 -0.0266 -0.3128
  959MOL0     H26554   5.992   7.520   4.676  0.4346 -1.2193 -0.7989
  959MOL0     H26555   6.032   7.533   4.850 -0.9370 -0.2088  0.7444
  959MOL0     H26556   5.790   7.490   4.904  1.8415 -0.7205 -0.6847
  959MOL0     H26557   5.752   7.480   4.733  0.5224 -2.5914  0.5709
  959MOL0     H26558   5.848   7.698   4.701  1.5979  1.0608  0.2661
  959MOL0     H26559   5.874   7.728   4.871 -1.4180  1.3832 -0.1969
  959MOL0     H26560   5.657   7.828   4.776 -3.0181  1.1766  1.5923
  959MOL0     H26561   5.597   7.658   4.758 -1.5230 -1.7493  3.0284
  959MOL0     H26562   5.490   7.703   4.944  0.4586 -2.6023  0.8572
  959MOL0     H26563   5.589   7.849   4.969  2.4005  0.5839 -1.4070
  959MOL0     H26564   5.760   7.743   5.090 -0.3636 -1.6346 -0.0475
  959MOL0     H26565   5.687   7.585   5.069 -0.3743 -0.5164  1.7680
  959MOL0     H26566   5.543   7.822   5.214 -3.4382 -0.9342  0.2130
  959MOL0     H26567   5.482   7.666   5.184 -0.2937  0.2146 -0.2728
  959MOL0     H26568   5.728   7.743   5.344 -1.0638  1.7236 -0.5372
  959MOL0     H26569   5.681   7.568   5.313 -1.0602 -0.7870 -1.6083
  959MOL0     H26570   6.001   7.086   4.728 -0.1262  0.8985  2.1446
  959MOL0     H26571   6.216   6.992   4.616  1.4627 -0.4833  0.3864
  959MOL0     H26572   6.596   7.077   4.263 -1.1620 -0.6507  1.3147
  959MOL0     H26573   6.850   7.045   4.201  0.2146 -1.0116 -0.7256
  959MOL0     H26574   8.743   6.568   3.940  1.1324  1.3073 -1.2270
  959MOL0     H26575   8.979   6.599   4.021 -0.9049  0.9393 -2.2180
  959MOL0     H26576   9.304   6.650   4.235  1.9997 -0.5778  0.5667
  959MOL0     H26577   9.537   6.685   4.325  0.1675  0.2371  1.1076
  959MOL0     H26578   9.610   6.854   4.726 -0.8204 -1.8954  0.0038
  959MOL0     H26579   9.657   6.949   4.587  1.6362  0.5175  0.2988
  959MOL0     H26580   9.815   6.718   4.701  2.5628 -0.0686 -0.0549
  959MOL0     H26581   9.851   6.776   4.543 -0.1688 -0.8913  0.2084
  959MOL0     H26582   9.890   6.901   4.811 -4.2469  3.4529  1.6934
  959MOL0     H26583   9.828   7.021   4.694 -0.1444  0.4608  2.2634
  959MOL0     H26584  10.074   7.013   4.702 -0.4096  0.1668  1.4901
  959MOL0     H26585  10.080   6.852   4.629  1.0962  0.9382 -0.3298
  959MOL0     H26586  10.012   7.148   4.336  0.4769  0.0992 -0.6722
  959MOL0     H26587   9.388   6.791   4.701 -0.0309 -1.0513 -0.3295
  959MOL0     H26588   9.171   6.796   4.619 -0.7799 -1.2699 -0.8786
  960MOL0     O26589   8.327   6.179   2.098 -0.3007 -0.0487  0.0849
  960MOL0     C26590   8.361   6.214   1.982  0.9937 -0.0883  0.5952
  960MOL0     O26591   8.277   6.215   1.876 -0.6083 -0.0449 -0.7570
  960MOL0     C26592   8.148   6.194   1.888  0.1694 -0.1544  0.2427
  960MOL0     C26593   8.057   6.259   1.973  0.0857  0.6604 -0.3569
  960MOL0     C26594   7.925   6.213   1.977  0.9375  0.1464  0.5189
  960MOL0     C26595   7.871   6.119   1.884 -0.0904  0.0478 -0.5926
  960MOL0     O26596   7.737   6.099   1.869  0.2258  0.1227  0.0747
  960MOL0     C26597   7.652   6.196   1.933 -0.5184 -0.3055 -0.5129
  960MOL0     C26598   7.503   6.172   1.888 -0.4187  0.4081  0.1359
  960MOL0     C26599   7.495   6.142   1.735  0.3413  0.7193  0.5903
  960MOL0     C26600   7.351   6.149   1.691  0.4382 -0.1954  0.0114
  960MOL0     C26601   7.335   6.129   1.534  0.5166 -0.4832 -0.2640
  960MOL0     C26602   7.199   6.154   1.485 -0.3442  0.7408 -0.3797
  960MOL0     C26603   7.167   6.300   1.439 -0.4553 -0.0235 -0.0403
  960MOL0     C26604   7.013   6.324   1.421  0.3831 -0.1637  0.4131
  960MOL0     N26605   6.967   6.252   1.297  0.0510 -0.3674 -0.5316
  960MOL0     C26606   6.941   6.118   1.277  0.4587 -0.6183  0.7032
  960MOL0     C26607   6.884   6.116   1.153  0.3975  0.0360 -0.6622
  960MOL0     C26608   6.847   5.986   1.076  0.8267  0.3945 -0.2059
  960MOL0     C26609   6.693   5.988   1.044 -0.1374 -0.6555 -0.5550
  960MOL0     C26610   6.633   5.852   0.998  0.0118  0.0563  0.0853
  960MOL0     C26611   6.483   5.848   0.979  0.3867 -0.0991 -0.8633
  960MOL0     O26612   6.440   5.961   0.903  0.6940  0.5226  0.2462
  960MOL0     C26613   6.322   5.946   0.837 -0.1815  0.2663 -0.6411
  960MOL0     C26614   6.258   5.822   0.798 -0.2378  1.6228 -0.0757
  960MOL0     C26615   6.132   5.825   0.728  0.3692 -0.3183  0.0060
  960MOL0     C26616   6.061   5.944   0.731 -0.0250 -0.1329  0.2121
  960MOL0     C26617   5.925   5.941   0.673 -0.4739 -0.2376 -0.0821
  960MOL0     O26618   5.876   6.061   0.643 -0.6923  0.6874  1.0779
  960MOL0     C26619   5.739   6.070   0.642 -0.9532 -0.5956  0.8357
  960MOL0     C26620   5.669   6.135   0.744  0.6874  0.2770  0.7454
  960MOL0     C26621   5.532   6.153   0.727  0.0639  0.5424  1.0477
  960MOL0     C26622   5.470   6.114   0.602 -0.0952 -0.0063 -1.2075
  960MOL0     O26623   5.334   6.128   0.586  0.1001 -0.9536 -0.2493
  960MOL0     C26624   5.263   6.029   0.652 -0.0638 -0.2422  0.0378
  960MOL0     C26625   5.160   5.983   0.552 -0.4521  0.9672  1.0330
  960MOL0     C26626   5.168   5.843   0.486 -0.4648 -0.5657  0.2114
  960MOL0     C26627   5.079   5.851   0.360  0.1874 -0.5177  0.2569
  960MOL0     C26628   5.068   5.722   0.288  0.3740 -0.2864  0.3189
  960MOL0     C26629   5.199   5.673   0.222  0.7566 -0.1441  0.3477
  960MOL0     C26630   5.170   5.533   0.152  1.2038 -0.1580 -0.6527
  960MOL0     C26631   5.296   5.456   0.107 -0.3365  0.2951 -0.2276
  960MOL0    Cl26632   5.359   5.364   0.237 -0.5418  0.1556  0.1572
  960MOL0     C26633   5.545   6.047   0.502 -0.2003 -0.3097  1.0048
  960MOL0     C26634   5.681   6.039   0.525  0.5523  0.1694 -0.1057
  960MOL0     O26635   5.869   5.831   0.656  0.0743  0.2464  0.0092
  960MOL0     C26636   6.122   6.059   0.771  0.2915 -0.4801  0.6994
  960MOL0     C26637   6.256   6.063   0.812 -0.3389  0.4672 -0.7336
  960MOL0     N26638   6.889   6.244   1.104 -0.1276  0.7898  0.5862
  960MOL0     N26639   6.931   6.325   1.193 -0.5654 -1.1480  0.1857
  960MOL0     C26640   7.963   6.058   1.805  0.3166  0.3031  0.0885
  960MOL0     C26641   8.098   6.091   1.801 -0.6064  1.2328  0.0704
  960MOL0     C26642   8.499   6.234   1.961 -0.6105  0.5067  0.1337
  960MOL0     C26643   8.566   6.200   1.838 -0.4482 -0.3172 -0.8630
  960MOL0     C26644   8.706   6.221   1.830 -0.4035  0.2023  0.2683
  960MOL0     C26645   8.774   6.287   1.933  0.1378 -0.2665 -0.2912
  960MOL0     O26646   8.895   6.324   1.907  0.4965  0.4916  1.2182
  960MOL0     C26647   8.991   6.356   2.007  0.8591  0.5837  1.0475
  960MOL0     C26648   9.132   6.386   1.943  0.4890 -1.1119  0.0692
  960MOL0     C26649   9.131   6.513   1.851  0.2169 -0.0323  0.0611
  960MOL0     C26650   9.269   6.544   1.796  0.3985  0.7379 -0.0461
  960MOL0     C26651   9.308   6.673   1.823 -0.6728 -0.9706  0.6056
  960MOL0     C26652   9.334   6.791   1.854  0.3316 -0.3446  0.3267
  960MOL0     C26653   8.712   6.320   2.057  0.6462 -0.8791  0.4822
  960MOL0     C26654   8.576   6.280   2.065  0.2939 -0.9048 -0.0494
  960MOL0     H26655   8.087   6.334   2.045  0.4087  0.5944 -0.4211
  960MOL0     H26656   7.856   6.265   2.042 -0.2706 -1.6950  0.7838
  960MOL0     H26657   7.677   6.300   1.910 -0.1331  0.2597  2.1400
  960MOL0     H26658   7.652   6.188   2.042 -0.1066 -0.5742 -0.5307
  960MOL0     H26659   7.445   6.260   1.917 -0.1783  0.4459  0.5056
  960MOL0     H26660   7.454   6.089   1.941 -0.2977 -1.9881 -3.1807
  960MOL0     H26661   7.539   6.045   1.711 -1.5647 -0.5679  1.9399
  960MOL0     H26662   7.545   6.223   1.681  0.5381  0.7470  0.8118
  960MOL0     H26663   7.303   6.060   1.733  1.2186 -0.8998 -0.5540
  960MOL0     H26664   7.308   6.241   1.732  1.3887  0.9308 -1.4188
  960MOL0     H26665   7.350   6.021   1.526 -0.3845 -0.6804  0.6280
  960MOL0     H26666   7.400   6.188   1.468 -1.6934  3.1230  0.5111
  960MOL0     H26667   7.125   6.130   1.561 -2.9282  2.9221 -2.0358
  960MOL0     H26668   7.170   6.089   1.402 -2.8673 -1.5530  2.0796
  960MOL0     H26669   7.192   6.365   1.523 -2.4061  0.1678  0.4459
  960MOL0     H26670   7.228   6.333   1.355 -0.2719 -0.6899 -0.1796
  960MOL0     H26671   6.990   6.428   1.399  1.3601 -0.6134 -3.5257
  960MOL0     H26672   6.954   6.296   1.509 -0.6946  1.9671  0.4238
  960MOL0     H26673   6.965   6.036   1.345 -0.5086  0.0809  1.9271
  960MOL0     H26674   6.873   5.905   1.144 -1.7352  0.0038  0.3870
  960MOL0     H26675   6.910   5.966   0.988 -1.8234  1.4364 -2.4921
  960MOL0     H26676   6.678   6.059   0.962  3.4233 -1.5305 -2.1484
  960MOL0     H26677   6.655   6.018   1.142  2.2934  0.6995  0.0349
  960MOL0     H26678   6.688   5.825   0.907  1.5279  4.2938 -0.5092
  960MOL0     H26679   6.650   5.774   1.073 -2.0479 -0.2246  0.3098
  960MOL0     H26680   6.442   5.851   1.080  2.6532  1.4334  0.0996
  960MOL0     H26681   6.463   5.747   0.943 -0.3730 -0.8751  1.5191
  960MOL0     H26682   6.327   5.738   0.800 -3.1906 -0.9420  0.0258
  960MOL0     H26683   6.077   5.741   0.688  0.0035 -0.3599  0.5809
  960MOL0     H26684   5.707   6.174   0.838 -0.8351 -0.7365  1.8267
  960MOL0     H26685   5.467   6.202   0.798  0.2424  1.8469  0.3436
  960MOL0     H26686   5.210   6.069   0.739 -1.3644  0.4742 -1.0592
  960MOL0     H26687   5.326   5.943   0.678 -0.6768 -0.3069  1.3964
  960MOL0     H26688   5.133   6.049   0.468 -0.6923 -1.4452 -0.9141
  960MOL0     H26689   5.068   5.983   0.611  1.0184 -0.9250  3.4918
  960MOL0     H26690   5.154   5.759   0.555  2.9004 -1.4550  0.0325
  960MOL0     H26691   5.266   5.841   0.438 -1.5301 -0.4409 -2.0589
  960MOL0     H26692   4.976   5.870   0.389  0.4585  0.3186  0.6899
  960MOL0     H26693   5.105   5.930   0.289 -0.0839 -1.9972 -1.5801
  960MOL0     H26694   4.992   5.739   0.211  0.2555  2.5048  0.9176
  960MOL0     H26695   5.028   5.648   0.358  1.8900 -0.2091  1.3190
  960MOL0     H26696   5.275   5.653   0.299 -0.1288 -4.5077  0.3445
  960MOL0     H26697   5.241   5.739   0.146  0.4140  1.1121  1.2115
  960MOL0     H26698   5.108   5.465   0.212 -0.8387  1.3402 -0.9466
  960MOL0     H26699   5.108   5.557   0.065  0.0397  1.6743  0.6065
  960MOL0     H26700   5.374   5.529   0.087  1.0085 -1.6287 -2.4046
  960MOL0     H26701   5.279   5.380   0.030  2.3347 -0.9358  0.2908
  960MOL0     H26702   5.505   6.010   0.409  1.8361 -2.0535  0.7252
  960MOL0     H26703   5.744   5.999   0.446 -1.0113 -2.0961 -0.3023
  960MOL0     H26704   6.075   6.154   0.748  1.1914 -0.3141 -0.5791
  960MOL0     H26705   6.299   6.161   0.828 -0.7242  0.7116 -1.1746
  960MOL0     H26706   7.930   5.979   1.737  2.1466 -2.9134  2.6125
  960MOL0     H26707   8.170   6.035   1.740  2.3758  3.0672  1.6714
  960MOL0     H26708   8.529   6.143   1.754  1.5525 -1.3948 -1.0918
  960MOL0     H26709   8.777   6.194   1.753 -0.2315 -0.4209  0.6400
  960MOL0     H26710   8.987   6.276   2.083 -2.0029  0.4803  0.9300
  960MOL0     H26711   8.953   6.449   2.050 -1.7702  0.6272 -1.0795
  960MOL0     H26712   9.201   6.405   2.026  3.4161  1.2736 -2.6599
  960MOL0     H26713   9.158   6.298   1.884 -0.4947 -2.1178  1.0850
  960MOL0     H26714   9.093   6.599   1.907  1.0210 -0.3059  1.0459
  960MOL0     H26715   9.071   6.491   1.761  0.4068 -1.0171  0.1573
  960MOL0     H26716   9.349   6.476   1.829 -0.3865 -0.6708 -0.9494
  960MOL0     H26717   9.259   6.522   1.690  0.7182  3.7106 -0.7705
  960MOL0     H26718   9.359   6.890   1.885  2.9914 -1.3965  1.7933
  960MOL0     H26719   8.761   6.387   2.127 -1.2653  2.6369 -1.3120
  960MOL0     H26720   8.534   6.307   2.161  0.3786 -2.8735  0.5836
  961MOL0     O26721   5.098  11.103  11.016  0.3751 -1.1443  0.5197
  961MOL0     C26722   5.130  11.026  11.108 -0.6357 -1.0007  0.7255
  961MOL0     O26723   5.060  11.014  11.226 -0.1971  0.1423  0.1608
  961MOL0     C26724   4.925  11.062  11.231 -0.2260  0.1606 -0.1167
  961MOL0     C26725   4.879  11.109  11.348 -0.8063  0.0556  0.0771
  961MOL0     C26726   4.760  11.179  11.371 -0.3337  0.3324 -0.9534
  961MOL0     C26727   4.675  11.204  11.257 -0.2345 -0.2550  0.5646
  961MOL0     O26728   4.566  11.282  11.261  0.3263  0.2782  0.2897
  961MOL0     C26729   4.506  11.314  11.390 -0.7928  0.1139 -0.0865
  961MOL0     C26730   4.393  11.400  11.365  1.0463  0.6054 -1.2807
  961MOL0     C26731   4.328  11.449  11.504  0.0509  0.3394  0.5468
  961MOL0     C26732   4.173  11.468  11.494  0.3469  0.3815  0.2179
  961MOL0     C26733   4.105  11.517  11.616 -0.0404 -0.0041  0.0597
  961MOL0     C26734   3.948  11.534  11.605  0.3229  0.7062  0.1423
  961MOL0     C26735   3.872  11.541  11.737 -0.6030 -1.1687 -0.1393
  961MOL0     C26736   3.725  11.594  11.713 -0.7096  0.4408 -0.4691
  961MOL0     N26737   3.639  11.511  11.626  0.2638  0.0276 -0.2898
  961MOL0     C26738   3.588  11.382  11.660 -0.2922 -1.0878 -0.1861
  961MOL0     C26739   3.493  11.352  11.581 -0.3338  0.0911  0.1344
  961MOL0     C26740   3.409  11.234  11.562 -0.2814 -0.4429 -0.1647
  961MOL0     C26741   3.259  11.259  11.534 -0.2256  0.3772  0.1485
  961MOL0     C26742   3.198  11.337  11.650 -0.2629 -0.2998 -0.8725
  961MOL0     C26743   3.049  11.341  11.627 -1.1936 -0.0928 -0.3601
  961MOL0     O26744   2.994  11.212  11.650 -0.0804  0.0572 -0.3057
  961MOL0     C26745   2.857  11.214  11.673 -0.3264  0.6908  0.5717
  961MOL0     C26746   2.809  11.146  11.783  0.3891  0.4110 -0.1841
  961MOL0     C26747   2.675  11.135  11.797 -0.3693 -0.0500  0.6725
  961MOL0     C26748   2.589  11.163  11.690  0.7281  0.2621  0.0939
  961MOL0     C26749   2.441  11.140  11.698  0.9128 -0.1195  0.1042
  961MOL0     O26750   2.359  11.166  11.586 -1.3138 -0.2065  0.4561
  961MOL0     C26751   2.221  11.140  11.584 -0.1805 -0.3523  0.3963
  961MOL0     C26752   2.164  11.091  11.466  0.3118 -0.0930 -0.3159
  961MOL0     C26753   2.028  11.063  11.442  0.1318  0.4150  0.4855
  961MOL0     C26754   1.938  11.082  11.550 -0.6433  0.2398 -0.8035
  961MOL0     O26755   1.798  11.069  11.533 -0.6432 -0.1485  0.1972
  961MOL0     C26756   1.713  11.054  11.646  0.5642  0.9606  0.2032
  961MOL0     C26757   1.573  11.033  11.587  0.1578  0.8082 -0.6724
  961MOL0     C26758   1.460  11.097  11.677  0.6169  0.3178 -1.1114
  961MOL0     C26759   1.324  11.071  11.605  0.0595 -0.1975 -0.8264
  961MOL0     C26760   1.205  11.113  11.697 -0.3235 -0.3799  0.1658
  961MOL0     C26761   1.083  11.081  11.620  0.0324 -0.7409 -0.0023
  961MOL0     C26762   0.932  11.101  11.671  0.9739 -0.1889 -0.4032
  961MOL0     C26763   0.911  11.254  11.702 -0.1735 -0.2168 -0.2935
  961MOL0    Cl26764   0.738  11.269  11.731 -0.6248  0.0084  0.4373
  961MOL0     C26765   1.992  11.128  11.678 -0.7444  0.3109  0.0981
  961MOL0     C26766   2.129  11.159  11.693  0.8802  0.5494  0.4410
  961MOL0     O26767   2.406  11.082  11.803  0.9720 -0.6283  0.0497
  961MOL0     C26768   2.637  11.237  11.572 -0.2227  0.1013 -0.0077
  961MOL0     C26769   2.776  11.260  11.567  0.3203  0.1475 -0.3255
  961MOL0     N26770   3.477  11.453  11.485 -0.7018 -0.0209 -0.2375
  961MOL0     N26771   3.576  11.534  11.505 -0.0952  0.7152 -0.4930
  961MOL0     C26772   4.725  11.168  11.125 -0.2318 -0.5432 -0.2933
  961MOL0     C26773   4.844  11.092  11.120  0.5976 -0.6947 -0.0389
  961MOL0     C26774   5.258  10.971  11.093 -0.6171 -0.2297 -0.3222
  961MOL0     C26775   5.334  10.995  10.974  0.8547  0.8314  0.0838
  961MOL0     C26776   5.466  10.959  10.971  0.3660 -0.3118  0.4443
  961MOL0     C26777   5.526  10.885  11.073  0.5401 -1.1064 -0.0669
  961MOL0     O26778   5.660  10.859  11.089  0.1198 -0.1801 -0.2100
  961MOL0     C26779   5.757  10.876  10.982  0.4677  0.6178  0.8071
  961MOL0     C26780   5.890  10.791  11.002  0.2389 -0.0507  0.0108
  961MOL0     C26781   5.939  10.806  11.141 -0.2708 -0.1315 -0.0504
  961MOL0     C26782   5.979  10.665  11.207  0.2216 -0.3135  0.2313
  961MOL0     C26783   6.047  10.694  11.328 -0.1162  0.0330 -0.2872
  961MOL0     C26784   6.119  10.704  11.418 -0.9903 -0.2879 -0.0784
  961MOL0     C26785   5.451  10.845  11.182  0.0609 -0.1668  0.3681
  961MOL0     C26786   5.317  10.882  11.193 -0.2517  0.5316  0.5085
  961MOL0     H26787   4.943  11.079  11.431  1.9352  1.4626 -1.3920
  961MOL0     H26788   4.736  11.203  11.474  0.2911 -2.3463 -0.1079
  961MOL0     H26789   4.572  11.373  11.454 -0.8312 -0.3229  0.3627
  961MOL0     H26790   4.483  11.220  11.441  2.1346  0.4803  2.2356
  961MOL0     H26791   4.319  11.344  11.307 -0.5366 -0.3713  1.4693
  961MOL0     H26792   4.421  11.490  11.308 -2.8993  3.0023  0.1061
  961MOL0     H26793   4.375  11.546  11.518 -2.6797  2.0217 -1.0925
  961MOL0     H26794   4.353  11.382  11.586  0.1229 -0.0072  0.2480
  961MOL0     H26795   4.150  11.544  11.419  0.7711  0.7932  0.4954
  961MOL0     H26796   4.128  11.373  11.463 -0.2746  0.3740  1.1054
  961MOL0     H26797   4.146  11.615  11.642 -2.8336  1.0108  0.9404
  961MOL0     H26798   4.134  11.458  11.704 -1.5316  0.3730  0.8341
  961MOL0     H26799   3.902  11.445  11.563 -2.5221  0.7152  2.8970
  961MOL0     H26800   3.929  11.620  11.540 -2.5660 -0.1057 -0.1935
  961MOL0     H26801   3.896  11.454  11.798  1.3663  0.8783  2.2575
  961MOL0     H26802   3.928  11.620  11.789 -0.4021 -0.8691 -0.7986
  961MOL0     H26803   3.738  11.686  11.656  1.5285 -0.7398 -2.0207
  961MOL0     H26804   3.664  11.611  11.803 -3.4819 -1.9424 -1.7284
  961MOL0     H26805   3.634  11.323  11.739 -1.2044 -1.6262 -0.0292
  961MOL0     H26806   3.408  11.183  11.658  1.8781 -3.3448 -1.5132
  961MOL0     H26807   3.456  11.173  11.485 -0.7237 -0.6567 -0.2641
  961MOL0     H26808   3.211  11.163  11.514  1.1617 -0.5839  1.2733
  961MOL0     H26809   3.255  11.320  11.443  1.3843  0.3069  0.0034
  961MOL0     H26810   3.220  11.291  11.747 -2.1990  2.3926  0.9887
  961MOL0     H26811   3.231  11.441  11.643 -0.7862  0.2299  2.5767
  961MOL0     H26812   3.028  11.373  11.525  2.2720  0.4977 -1.0011
  961MOL0     H26813   3.002  11.421  11.686 -0.3882  2.4379 -2.9451
  961MOL0     H26814   2.875  11.127  11.868  2.1527  0.1728 -1.5546
  961MOL0     H26815   2.641  11.097  11.892 -4.3704  0.4324 -0.3995
  961MOL0     H26816   2.237  11.094  11.386  0.5046 -0.2097 -0.1473
  961MOL0     H26817   1.985  11.029  11.349 -0.0491  3.1468 -0.5368
  961MOL0     H26818   1.713  11.141  11.712  0.6676  1.6954 -0.7538
  961MOL0     H26819   1.740  10.967  11.706  0.2106  1.2510  0.7974
  961MOL0     H26820   1.553  10.929  11.563  0.4257  0.8605 -1.1500
  961MOL0     H26821   1.556  11.089  11.494 -1.7317  1.0807 -0.1965
  961MOL0     H26822   1.482  11.204  11.680  1.3657  0.1799 -1.4160
  961MOL0     H26823   1.459  11.060  11.780 -1.0520  1.1498 -0.7892
  961MOL0     H26824   1.321  11.130  11.513 -1.6070  1.6016  0.3061
  961MOL0     H26825   1.319  10.964  11.584 -1.5500 -0.2672 -0.2126
  961MOL0     H26826   1.213  11.220  11.720  0.7667  0.2638 -2.8125
  961MOL0     H26827   1.205  11.050  11.786 -3.9985 -0.7463  0.0815
  961MOL0     H26828   1.090  10.972  11.607  1.6258 -0.9943  2.4100
  961MOL0     H26829   1.078  11.129  11.522  1.2618  0.8072  0.6668
  961MOL0     H26830   0.852  11.081  11.600  2.6721 -0.3314 -2.3656
  961MOL0     H26831   0.918  11.039  11.760 -0.0004  1.0268  0.3271
  961MOL0     H26832   0.941  11.318  11.619  1.4384  0.1241  0.4935
  961MOL0     H26833   0.974  11.269  11.791  0.1578 -2.8817  0.0236
  961MOL0     H26834   1.915  11.136  11.754 -0.8073 -2.9345  0.5330
  961MOL0     H26835   2.156  11.196  11.791 -0.4414  1.8728  0.3394
  961MOL0     H26836   2.576  11.281  11.494  3.4122  3.6124 -1.2371
  961MOL0     H26837   2.824  11.312  11.485  0.6903 -0.3364 -0.4213
  961MOL0     H26838   4.661  11.189  11.040 -0.8065 -0.2864  0.1907
  961MOL0     H26839   4.868  11.067  11.017 -0.7641  1.1192 -0.8612
  961MOL0     H26840   5.301  11.050  10.886  3.7765 -0.2851 -1.8684
  961MOL0     H26841   5.511  10.975  10.873  0.1139 -2.3216 -0.0460
  961MOL0     H26842   5.788  10.980  10.969 -1.5575  1.1766 -0.0042
  961MOL0     H26843   5.710  10.851  10.886 -1.9746 -0.3728  2.1632
  961MOL0     H26844   5.863  10.691  10.968  1.9206 -0.1855 -1.0487
  961MOL0     H26845   5.974  10.824  10.940 -1.4634  2.7696 -0.9378
  961MOL0     H26846   5.865  10.851  11.207 -2.2104 -1.7084 -1.0354
  961MOL0     H26847   6.026  10.871  11.135  0.2663 -0.9269 -1.3919
  961MOL0     H26848   5.898  10.592  11.224 -1.6035  1.8022  1.0931
  961MOL0     H26849   6.049  10.617  11.138  0.1126 -0.4009  0.1799
  961MOL0     H26850   6.180  10.710  11.506  0.7899 -0.5360 -1.2328
  961MOL0     H26851   5.503  10.810  11.271  0.9146  1.4259  0.5346
  961MOL0     H26852   5.269  10.859  11.287 -0.1278 -0.7500  0.2656
  962MOL0     O26853   4.221   0.625  10.412 -0.8580 -0.0493  1.0985
  962MOL0     C26854   4.246   0.508  10.443  0.0243  0.4803 -0.4880
  962MOL0     O26855   4.192   0.439  10.552 -0.3259 -0.2050  0.0059
  962MOL0     C26856   4.080   0.485  10.627 -0.4743  0.0093 -0.2662
  962MOL0     C26857   3.957   0.523  10.553 -0.5414  0.6319 -0.7726
  962MOL0     C26858   3.848   0.566  10.624 -0.0506 -0.1735 -0.5327
  962MOL0     C26859   3.854   0.571  10.764  0.1332  0.5049 -0.2019
  962MOL0     O26860   3.746   0.618  10.827  0.8694  0.2661 -0.8442
  962MOL0     C26861   3.731   0.759  10.853  0.0988  0.2525  0.5154
  962MOL0     C26862   3.621   0.786  10.962  0.1631  0.8856  0.5732
  962MOL0     C26863   3.486   0.751  10.895  0.6663 -0.5749  0.3239
  962MOL0     C26864   3.376   0.754  11.000  0.1104  0.3667  0.0461
  962MOL0     C26865   3.245   0.704  10.931  0.4835 -0.1554  0.1949
  962MOL0     C26866   3.136   0.729  11.031 -0.2074  0.2209 -0.4273
  962MOL0     C26867   3.002   0.705  10.960  0.5132 -0.2125  0.2167
  962MOL0     C26868   2.891   0.704  11.049 -0.4398 -0.6815  0.1248
  962MOL0     N26869   2.768   0.680  10.976 -0.7820 -0.0677 -0.1626
  962MOL0     C26870   2.705   0.557  10.981  0.0581  0.2667  0.1605
  962MOL0     C26871   2.596   0.566  10.907  0.0172 -0.4785 -0.1147
  962MOL0     C26872   2.504   0.450  10.885  0.7126  0.5423 -0.0590
  962MOL0     C26873   2.363   0.506  10.836  0.2200  0.0595  0.5339
  962MOL0     C26874   2.259   0.398  10.841  0.9659 -0.1920 -0.1755
  962MOL0     C26875   2.116   0.438  10.815  0.0713 -1.4434 -0.7295
  962MOL0     O26876   2.027   0.366  10.897 -0.3667 -0.2079 -0.3964
  962MOL0     C26877   1.892   0.390  10.888  0.1977 -0.4090 -0.3822
  962MOL0     C26878   1.810   0.295  10.954 -1.2481 -0.4734  0.5796
  962MOL0     C26879   1.671   0.298  10.941 -0.5486 -0.4667  0.3798
  962MOL0     C26880   1.610   0.392  10.854 -0.9714 -0.8868 -0.5438
  962MOL0     C26881   1.459   0.387  10.841 -0.2474 -0.9389  0.1392
  962MOL0     O26882   1.386   0.345  10.946 -0.8198 -0.8137  0.0239
  962MOL0     C26883   1.247   0.315  10.934 -0.6180  0.2015  0.0755
  962MOL0     C26884   1.206   0.222  11.030  0.3937 -0.1176 -0.4299
  962MOL0     C26885   1.073   0.198  11.046  0.2381  0.5625 -0.1189
  962MOL0     C26886   0.976   0.261  10.955 -0.3673  0.8180 -0.0528
  962MOL0     O26887   0.842   0.228  10.960 -0.1795 -0.1881 -0.3969
  962MOL0     C26888   0.796   0.138  11.065 -0.0577 -0.4004  0.1154
  962MOL0     C26889   0.647   0.128  11.064  0.8465  0.2300 -0.4534
  962MOL0     C26890   0.573   0.255  11.121 -1.1494  0.1118 -1.2105
  962MOL0     C26891   0.434   0.223  11.157  0.0578  0.7236 -0.0381
  962MOL0     C26892   0.368   0.356  11.197  0.2363 -1.0581  0.3256
  962MOL0     C26893   0.234   0.348  11.268  0.5058  0.9565  0.5626
  962MOL0     C26894   0.106   0.322  11.177  0.1257 -0.2654  1.2752
  962MOL0     C26895  -0.025   0.338  11.253 -0.2800 -0.5236 -0.2865
  962MOL0    Cl26896  -0.065   0.519  11.292  0.2023 -0.3373  0.0862
  962MOL0     C26897   1.022   0.341  10.860  0.6075  0.1133  0.2431
  962MOL0     C26898   1.161   0.363  10.842  0.2891  0.3075 -0.4456
  962MOL0     O26899   1.423   0.410  10.724  0.0467 -0.7690  0.2713
  962MOL0     C26900   1.689   0.480  10.783  0.4256  0.7607 -0.1065
  962MOL0     C26901   1.829   0.473  10.792 -0.2510 -0.3683 -0.8778
  962MOL0     N26902   2.592   0.699  10.858  0.6201  0.4795  0.2145
  962MOL0     N26903   2.693   0.762  10.905  0.3188  0.5574  0.0491
  962MOL0     C26904   3.970   0.525  10.838  1.5025  0.5371 -0.4831
  962MOL0     C26905   4.084   0.484  10.768 -0.4452 -0.2291  0.4749
  962MOL0     C26906   4.345   0.441  10.363  0.3971  0.7513 -0.0894
  962MOL0     C26907   4.392   0.492  10.243 -0.2089  1.1265  0.6764
  962MOL0     C26908   4.492   0.414  10.178  0.7698  0.3153  0.3067
  962MOL0     C26909   4.554   0.300  10.227 -1.2923 -0.2040  0.0786
  962MOL0     O26910   4.661   0.253  10.155 -0.7919 -1.3688  0.3260
  962MOL0     C26911   4.715   0.123  10.189 -0.1725 -0.1879 -0.0321
  962MOL0     C26912   4.804   0.073  10.074 -0.7560  0.7196 -0.2776
  962MOL0     C26913   4.900  -0.045  10.112 -0.3815 -0.0201 -0.4954
  962MOL0     C26914   5.001  -0.071  10.004 -0.5498  0.6276  0.5387
  962MOL0     C26915   5.031  -0.218  10.001  0.6568  0.0651 -0.4880
  962MOL0     C26916   5.056  -0.337  10.008  0.2584  0.4849 -0.7354
  962MOL0     C26917   4.505   0.249  10.355 -0.4557 -0.1803  0.5184
  962MOL0     C26918   4.399   0.316  10.420  0.3769  0.0642  0.5593
  962MOL0     H26919   3.955   0.523  10.445  0.2633  1.5643 -0.8018
  962MOL0     H26920   3.753   0.585  10.574  0.8146  0.3047 -2.0540
  962MOL0     H26921   3.711   0.809  10.758  0.4569 -0.0520  0.2772
  962MOL0     H26922   3.826   0.802  10.886  0.0624  3.6167 -3.0784
  962MOL0     H26923   3.630   0.890  10.997 -0.2290  0.3994  2.2226
  962MOL0     H26924   3.637   0.726  11.052  0.4322 -1.3275 -0.8791
  962MOL0     H26925   3.491   0.651  10.851 -0.4177  0.0017 -1.2046
  962MOL0     H26926   3.470   0.829  10.820 -2.1085  2.1531  3.4434
  962MOL0     H26927   3.400   0.686  11.083 -1.4941 -2.0138 -1.2883
  962MOL0     H26928   3.361   0.853  11.042 -2.5186  0.8603 -1.7424
  962MOL0     H26929   3.257   0.601  10.898 -1.3580  0.2251 -1.8669
  962MOL0     H26930   3.230   0.764  10.841 -0.7241 -0.1102  0.4102
  962MOL0     H26931   3.136   0.831  11.068 -0.7711  0.1742 -0.2876
  962MOL0     H26932   3.151   0.670  11.122  0.8204 -1.2206 -1.4806
  962MOL0     H26933   2.974   0.774  10.880 -2.2684  0.0618  1.3041
  962MOL0     H26934   3.009   0.608  10.910  0.6195 -0.8174  1.3805
  962MOL0     H26935   2.884   0.801  11.099 -0.0605 -0.8896  0.6000
  962MOL0     H26936   2.910   0.620  11.116  0.4517 -1.5443 -1.1601
  962MOL0     H26937   2.737   0.467  11.032  3.0269  0.9890 -0.2728
  962MOL0     H26938   2.492   0.407  10.985 -3.2681  3.1735  0.8314
  962MOL0     H26939   2.556   0.385  10.814 -2.0839 -1.4280 -0.4483
  962MOL0     H26940   2.380   0.534  10.732 -0.7349  2.0974  0.8616
  962MOL0     H26941   2.328   0.586  10.902  1.3515  0.0453  1.1831
  962MOL0     H26942   2.284   0.319  10.770  2.7770  1.2264 -1.1909
  962MOL0     H26943   2.256   0.364  10.944  0.3356  1.7452  0.5037
  962MOL0     H26944   2.093   0.434  10.709 -1.8162 -1.2825 -0.3590
  962MOL0     H26945   2.103   0.541  10.850  1.9714 -1.4838  0.2397
  962MOL0     H26946   1.869   0.233  11.022  0.2701  0.9695  0.6541
  962MOL0     H26947   1.614   0.230  11.003  0.0693 -2.3705 -1.0737
  962MOL0     H26948   1.267   0.165  11.100 -2.3214 -3.2980 -0.4071
  962MOL0     H26949   1.045   0.126  11.123 -0.2019  1.1780  0.3078
  962MOL0     H26950   0.828   0.186  11.158  2.5502 -2.2479  0.2827
  962MOL0     H26951   0.846   0.042  11.050  0.9241 -0.4414  2.9900
  962MOL0     H26952   0.622   0.043  11.128 -3.0179  2.7411  1.7515
  962MOL0     H26953   0.610   0.100  10.965 -1.5187 -1.7369  0.8757
  962MOL0     H26954   0.573   0.340  11.051 -2.2689  2.7457  1.7426
  962MOL0     H26955   0.624   0.287  11.212 -2.5158  0.0635 -0.4058
  962MOL0     H26956   0.381   0.161  11.084 -2.5468  0.7958  1.6609
  962MOL0     H26957   0.439   0.154  11.241 -0.6475  0.0143 -0.5655
  962MOL0     H26958   0.357   0.422  11.111 -1.0083 -1.6108  0.0455
  962MOL0     H26959   0.437   0.409  11.264 -0.9159 -0.4430  1.0632
  962MOL0     H26960   0.210   0.436  11.328 -1.1250 -0.5185  2.1910
  962MOL0     H26961   0.231   0.270  11.344  0.2278  1.8766  1.5188
  962MOL0     H26962   0.103   0.398  11.097  0.7868 -0.8125  0.7247
  962MOL0     H26963   0.108   0.224  11.129 -0.6783 -0.8151  2.3410
  962MOL0     H26964  -0.014   0.275  11.341  0.7444 -0.4662 -0.3527
  962MOL0     H26965  -0.104   0.301  11.187 -1.0458  3.2045 -1.7151
  962MOL0     H26966   0.945   0.394  10.805 -1.1232 -0.0218  2.3902
  962MOL0     H26967   1.197   0.423  10.759  2.1542  0.3263  0.3381
  962MOL0     H26968   1.643   0.561  10.728 -0.9468  0.5899  0.7670
  962MOL0     H26969   1.886   0.549  10.740 -0.7541  0.4945 -0.1966
  962MOL0     H26970   3.944   0.519  10.943  1.8412 -0.9244 -0.4582
  962MOL0     H26971   4.171   0.441  10.817 -0.8613 -0.5172  0.9756
  962MOL0     H26972   4.357   0.586  10.203 -0.9381  0.5073 -0.1865
  962MOL0     H26973   4.526   0.450  10.081 -1.2335 -1.4978 -1.1519
  962MOL0     H26974   4.639   0.048  10.210  0.3189 -0.6931 -0.0323
  962MOL0     H26975   4.773   0.127  10.281 -2.2852 -1.0777  1.4033
  962MOL0     H26976   4.740   0.049   9.988 -0.0801 -0.8272 -0.3852
  962MOL0     H26977   4.863   0.157  10.037  0.1724 -0.0879 -0.6627
  962MOL0     H26978   4.841  -0.133  10.139  0.3165  0.1349  1.7451
  962MOL0     H26979   4.947  -0.012  10.205 -1.4932  2.1178 -0.6376
  962MOL0     H26980   4.960  -0.055   9.903 -0.3040  2.4780  0.6957
  962MOL0     H26981   5.082  -0.001  10.026 -0.8154  0.6794  1.3648
  962MOL0     H26982   5.092  -0.438  10.012  0.9143  0.7258 -0.3705
  962MOL0     H26983   4.547   0.161  10.402  0.7509 -1.4137 -2.6424
  962MOL0     H26984   4.352   0.267  10.505 -0.0534  1.0952  0.9287
  963MOL0     O26985   0.635   2.974   4.463 -0.1761  0.6272 -0.5330
  963MOL0     C26986   0.609   2.901   4.558 -0.2517  0.2452  0.2018
  963MOL0     O26987   0.485   2.894   4.619  0.0995 -0.3479  0.2187
  963MOL0     C26988   0.384   2.961   4.561  0.4335 -0.4249  0.0390
  963MOL0     C26989   0.317   3.049   4.647 -0.2731  0.8979  0.3885
  963MOL0     C26990   0.206   3.115   4.594  0.9878  1.0278 -0.9476
  963MOL0     C26991   0.143   3.075   4.484 -0.2260  0.5726  0.1445
  963MOL0     O26992   0.023   3.136   4.455  0.1813 -0.3334 -0.1111
  963MOL0     C26993  -0.086   3.053   4.415  0.5025  0.0453 -0.2323
  963MOL0     C26994  -0.195   3.111   4.499  0.9236  0.2687  0.2244
  963MOL0     C26995  -0.326   3.046   4.438  0.6660 -0.3432  0.8682
  963MOL0     C26996  -0.452   3.098   4.506 -0.5608  0.9493  0.7480
  963MOL0     C26997  -0.493   3.233   4.454 -0.4526  0.3966 -0.0661
  963MOL0     C26998  -0.573   3.322   4.549  0.9524 -0.0759  0.4680
  963MOL0     C26999  -0.712   3.266   4.575  0.1466  0.5462 -0.5422
  963MOL0     C27000  -0.787   3.354   4.677  0.2014 -0.0850  0.2294
  963MOL0     N27001  -0.936   3.367   4.658 -0.1469  0.7755  0.2406
  963MOL0     C27002  -1.010   3.261   4.604  0.8392 -0.3768  0.6289
  963MOL0     C27003  -1.125   3.324   4.574  0.1414  0.0913 -0.0358
  963MOL0     C27004  -1.227   3.265   4.478 -0.1704  0.9683 -0.1075
  963MOL0     C27005  -1.283   3.371   4.386 -0.0855  0.1583 -0.8618
  963MOL0     C27006  -1.365   3.306   4.274  0.4737 -0.3197  0.2100
  963MOL0     C27007  -1.368   3.395   4.138 -0.7931  0.4689  0.3278
  963MOL0     O27008  -1.469   3.489   4.129  0.1133  0.8478  0.2389
  963MOL0     C27009  -1.598   3.438   4.110  0.5657  0.1286  1.0733
  963MOL0     C27010  -1.633   3.303   4.101 -0.1943  0.0398  0.7814
  963MOL0     C27011  -1.767   3.251   4.085  0.4101 -0.8662  0.1066
  963MOL0     C27012  -1.877   3.342   4.069 -0.3135  0.7602 -0.4096
  963MOL0     C27013  -2.022   3.299   4.063  0.2716  0.3305 -0.9848
  963MOL0     O27014  -2.109   3.402   4.068 -0.2140 -0.0787 -0.0172
  963MOL0     C27015  -2.245   3.394   4.041  0.3028  0.3642  0.7103
  963MOL0     C27016  -2.298   3.320   3.940 -0.5487  0.4244 -0.3825
  963MOL0     C27017  -2.434   3.311   3.915  0.2831  0.3373 -0.3188
  963MOL0     C27018  -2.522   3.388   3.993  0.9798  0.1551 -0.0217
  963MOL0     O27019  -2.658   3.380   3.968 -0.7081 -0.5605  0.2696
  963MOL0     C27020  -2.745   3.494   4.000 -0.1556  0.0846 -0.5674
  963MOL0     C27021  -2.886   3.484   3.942  0.0447  0.6718  0.1271
  963MOL0     C27022  -2.880   3.430   3.791  0.4056  0.0183 -0.2929
  963MOL0     C27023  -2.800   3.521   3.702  0.1277  0.6600 -0.4500
  963MOL0     C27024  -2.822   3.503   3.549  0.3313 -0.3226 -0.7985
  963MOL0     C27025  -2.686   3.510   3.472 -0.2571  0.3525 -0.0645
  963MOL0     C27026  -2.710   3.471   3.329 -0.0635 -0.4058 -0.1444
  963MOL0     C27027  -2.586   3.508   3.246  0.6295  0.5326  0.3153
  963MOL0    Cl27028  -2.467   3.391   3.262 -0.0183  0.4746  0.1854
  963MOL0     C27029  -2.467   3.460   4.104 -0.0029  0.2048  0.3544
  963MOL0     C27030  -2.335   3.462   4.126  0.2581 -0.6673  1.1598
  963MOL0     O27031  -2.050   3.180   4.066 -0.0728  0.4410 -0.2584
  963MOL0     C27032  -1.840   3.476   4.070 -0.0524 -0.2804  0.1176
  963MOL0     C27033  -1.712   3.525   4.094 -0.8874  0.0313  0.3481
  963MOL0     N27034  -1.121   3.460   4.599 -0.6947  0.1891  0.2014
  963MOL0     N27035  -1.008   3.487   4.650  0.3915  0.7697 -0.1594
  963MOL0     C27036   0.208   2.982   4.394  0.2663 -0.2068 -0.7674
  963MOL0     C27037   0.329   2.914   4.436  0.4740  0.2322  0.4494
  963MOL0     C27038   0.718   2.823   4.608  0.0198 -0.5602 -0.0764
  963MOL0     C27039   0.826   2.786   4.530 -1.0207 -0.1914 -0.2229
  963MOL0     C27040   0.941   2.718   4.577  0.0130  0.4879 -0.0514
  963MOL0     C27041   0.946   2.682   4.718 -0.3832 -0.3372 -0.0656
  963MOL0     O27042   1.052   2.609   4.776  0.4492  0.4219  0.1674
  963MOL0     C27043   1.168   2.594   4.691 -0.1647  0.6506  0.0399
  963MOL0     C27044   1.281   2.548   4.780 -0.8057  0.1222  0.5754
  963MOL0     C27045   1.395   2.490   4.693  0.1387  0.1124  0.7808
  963MOL0     C27046   1.473   2.398   4.786  0.7485 -0.0117  1.1286
  963MOL0     C27047   1.613   2.386   4.739  0.6468 -0.7209  0.8339
  963MOL0     C27048   1.723   2.383   4.702 -0.5962  0.1075  0.8957
  963MOL0     C27049   0.836   2.707   4.795  1.1617 -1.0020  0.5714
  963MOL0     C27050   0.725   2.780   4.744  0.6015 -0.2511 -0.1365
  963MOL0     H27051   0.357   3.086   4.741 -0.3485  0.8365  0.4441
  963MOL0     H27052   0.151   3.190   4.651  0.6406 -1.0895  1.6753
  963MOL0     H27053  -0.068   2.947   4.434  0.4729  0.1142  0.1795
  963MOL0     H27054  -0.109   3.062   4.308 -1.4248 -1.8449 -0.0503
  963MOL0     H27055  -0.211   3.219   4.489  3.7277  0.6254 -1.3646
  963MOL0     H27056  -0.189   3.087   4.606 -1.3509 -0.4632  0.2321
  963MOL0     H27057  -0.331   2.937   4.442  0.3726 -0.4183 -0.8963
  963MOL0     H27058  -0.329   3.071   4.332  2.6518 -3.6797 -0.1109
  963MOL0     H27059  -0.534   3.028   4.489  0.3702  0.2236 -0.9254
  963MOL0     H27060  -0.433   3.099   4.614 -2.0230  2.3330  1.0494
  963MOL0     H27061  -0.547   3.218   4.360 -3.7768  1.4166  1.5198
  963MOL0     H27062  -0.401   3.282   4.420  2.1959 -2.8265  1.8523
  963MOL0     H27063  -0.580   3.424   4.511  3.2589  0.2595  0.8042
  963MOL0     H27064  -0.517   3.329   4.643  0.8916  1.6853  0.4004
  963MOL0     H27065  -0.759   3.262   4.476  3.1386 -1.4713 -2.0045
  963MOL0     H27066  -0.710   3.164   4.615  0.0662  1.3580  1.7082
  963MOL0     H27067  -0.753   3.458   4.677 -0.7807  0.2907  2.5363
  963MOL0     H27068  -0.771   3.316   4.778 -0.2387 -1.4407 -0.1926
  963MOL0     H27069  -0.986   3.158   4.582  0.9039 -0.3048  0.3553
  963MOL0     H27070  -1.310   3.228   4.539 -0.7204  2.8079  0.3241
  963MOL0     H27071  -1.182   3.187   4.415 -3.0991  0.4004 -1.6923
  963MOL0     H27072  -1.199   3.429   4.346  1.4411 -2.7035 -2.1216
  963MOL0     H27073  -1.349   3.437   4.443 -0.8324 -3.3066  2.6825
  963MOL0     H27074  -1.326   3.215   4.227  0.6308  0.5309 -1.3927
  963MOL0     H27075  -1.467   3.292   4.312 -0.2911  1.0862 -1.1939
  963MOL0     H27076  -1.392   3.322   4.060 -1.1180 -0.4434  1.2714
  963MOL0     H27077  -1.271   3.441   4.114 -0.8054  0.6642  0.6523
  963MOL0     H27078  -1.571   3.221   4.134 -0.9077 -0.8643 -0.0595
  963MOL0     H27079  -1.784   3.145   4.096  0.3023 -0.6551  2.3267
  963MOL0     H27080  -2.224   3.274   3.874  0.2905  0.7895  0.2777
  963MOL0     H27081  -2.484   3.249   3.842  0.3417  0.0288 -0.0973
  963MOL0     H27082  -2.706   3.586   3.957  2.1448  0.0377  1.2237
  963MOL0     H27083  -2.742   3.502   4.109 -0.1944  1.2934 -0.6438
  963MOL0     H27084  -2.922   3.587   3.954  0.4684  0.7101  1.1585
  963MOL0     H27085  -2.948   3.418   4.002  0.7601  0.6485  0.8621
  963MOL0     H27086  -2.985   3.420   3.763  0.1212 -1.2416  1.0860
  963MOL0     H27087  -2.835   3.330   3.786  0.8886  0.1690  0.6900
  963MOL0     H27088  -2.823   3.621   3.739 -0.7111 -0.8658  3.5688
  963MOL0     H27089  -2.698   3.483   3.717 -1.4640 -4.4249 -0.7263
  963MOL0     H27090  -2.894   3.578   3.515  0.1737 -0.2967 -0.4141
  963MOL0     H27091  -2.864   3.404   3.532 -0.4847  0.2595 -2.3719
  963MOL0     H27092  -2.604   3.449   3.511  1.1542  1.0304 -1.8021
  963MOL0     H27093  -2.647   3.612   3.482  0.9232 -0.1528  0.6919
  963MOL0     H27094  -2.736   3.365   3.319 -0.5310 -0.4604  1.3922
  963MOL0     H27095  -2.799   3.517   3.284 -0.9501 -0.6881  1.2266
  963MOL0     H27096  -2.550   3.610   3.265  2.3721 -0.0860  0.5071
  963MOL0     H27097  -2.616   3.513   3.141 -0.8111  1.9229  0.7375
  963MOL0     H27098  -2.532   3.505   4.178  0.7360  0.9465  0.5652
  963MOL0     H27099  -2.285   3.526   4.198  0.2120  3.9514 -2.4760
  963MOL0     H27100  -1.920   3.550   4.071  1.1175  1.0155  0.2911
  963MOL0     H27101  -1.698   3.633   4.084  0.9140 -0.1835  0.3387
  963MOL0     H27102   0.149   2.955   4.307 -0.9322  1.6507 -0.5898
  963MOL0     H27103   0.377   2.839   4.373 -0.0053  0.0059  0.3511
  963MOL0     H27104   0.836   2.836   4.434 -0.0833 -0.0076 -0.0442
  963MOL0     H27105   1.027   2.699   4.514  0.5113 -0.4175  0.8753
  963MOL0     H27106   1.188   2.690   4.642  1.1180 -0.3954 -1.5597
  963MOL0     H27107   1.151   2.517   4.615 -0.5712  0.2198  0.5615
  963MOL0     H27108   1.327   2.633   4.831 -0.7768  0.7731 -0.5000
  963MOL0     H27109   1.247   2.473   4.851  1.0517 -1.2784  0.0577
  963MOL0     H27110   1.458   2.571   4.656 -1.6512  1.2140 -0.0087
  963MOL0     H27111   1.351   2.444   4.604 -0.3709  1.4077  0.3532
  963MOL0     H27112   1.477   2.434   4.890  2.0231 -0.0805  1.1183
  963MOL0     H27113   1.428   2.300   4.800 -0.0893  0.4606  1.8867
  963MOL0     H27114   1.825   2.406   4.677 -0.2459  0.8946  2.8369
  963MOL0     H27115   0.819   2.670   4.896  0.4517  0.7083  1.1147
  963MOL0     H27116   0.648   2.786   4.820  1.3276 -0.8521  0.6532
  964MOL0     O27117   9.671   9.651   8.953  0.0827  0.9017 -0.1497
  964MOL0     C27118   9.674   9.685   9.068  0.3799 -0.1431 -0.4222
  964MOL0     O27119   9.566   9.713   9.145  0.0181 -0.0080 -0.1777
  964MOL0     C27120   9.436   9.693   9.091 -0.2470 -0.2612 -0.0097
  964MOL0     C27121   9.338   9.732   9.184 -0.5085 -0.2668  0.7475
  964MOL0     C27122   9.204   9.725   9.148  0.7507  0.1122  0.3170
  964MOL0     C27123   9.166   9.660   9.025  0.3323 -0.3876 -0.5992
  964MOL0     O27124   9.032   9.640   8.994  0.2334  0.2119  0.0955
  964MOL0     C27125   8.928   9.685   9.082 -0.2314  0.2396 -0.0567
  964MOL0     C27126   8.787   9.660   9.022 -0.6091 -0.4595  0.5618
  964MOL0     C27127   8.686   9.689   9.131  1.3925 -0.0212  0.3246
  964MOL0     C27128   8.555   9.730   9.073  0.1380  0.0472  0.5008
  964MOL0     C27129   8.444   9.724   9.175 -0.0630  0.2861  0.3983
  964MOL0     C27130   8.312   9.768   9.114 -0.6670  0.8103 -0.2248
  964MOL0     C27131   8.237   9.647   9.052  0.0519 -0.2439 -0.1587
  964MOL0     C27132   8.101   9.703   9.011 -0.6303 -1.2139 -0.4467
  964MOL0     N27133   8.021   9.607   8.939  0.5967 -0.0138  0.4721
  964MOL0     C27134   7.985   9.612   8.801 -0.2841 -0.1853  0.2548
  964MOL0     C27135   7.928   9.495   8.774  0.3421 -0.0841 -1.0318
  964MOL0     C27136   7.883   9.444   8.644  0.6742 -0.0563  0.3348
  964MOL0     C27137   7.752   9.369   8.634 -0.3503  0.1271 -0.6414
  964MOL0     C27138   7.703   9.354   8.486  0.3886  0.2693  0.4995
  964MOL0     C27139   7.547   9.332   8.474 -0.8363  0.5513 -0.5198
  964MOL0     O27140   7.474   9.449   8.506 -0.2424 -0.4609 -1.1965
  964MOL0     C27141   7.344   9.442   8.559 -0.2950  0.1055  0.4352
  964MOL0     C27142   7.242   9.364   8.505 -1.0193 -1.0581  0.5875
  964MOL0     C27143   7.116   9.378   8.548 -0.2601 -0.4334  1.0618
  964MOL0     C27144   7.079   9.477   8.640  0.3115 -0.0416  0.1775
  964MOL0     C27145   6.932   9.493   8.667 -1.1946 -0.3467 -0.0770
  964MOL0     O27146   6.902   9.503   8.792  0.2172  0.1209  0.3535
  964MOL0     C27147   6.771   9.509   8.829  0.5990 -0.8164  1.0381
  964MOL0     C27148   6.667   9.422   8.786  0.1533 -0.1541 -0.0090
  964MOL0     C27149   6.536   9.439   8.832  0.1881 -0.0765 -0.8631
  964MOL0     C27150   6.509   9.547   8.918 -0.6153  0.3268  0.7298
  964MOL0     O27151   6.377   9.556   8.950 -0.1181 -0.0622 -0.2577
  964MOL0     C27152   6.328   9.682   9.011 -0.2353  0.5543  1.3544
  964MOL0     C27153   6.174   9.680   8.980 -0.2568  0.0811  0.0576
  964MOL0     C27154   6.106   9.560   9.032 -0.7525 -0.1150 -0.0324
  964MOL0     C27155   5.982   9.524   8.949 -0.5015  0.0123  0.2455
  964MOL0     C27156   5.912   9.393   8.996 -0.8415 -0.4912  0.5560
  964MOL0     C27157   5.804   9.346   8.902  0.2010  1.6876 -0.3891
  964MOL0     C27158   5.753   9.216   8.944  0.4945  0.9166  0.3264
  964MOL0     C27159   5.621   9.183   8.864 -0.3237  0.8049 -0.8581
  964MOL0    Cl27160   5.614   9.002   8.853  0.0775 -0.8814  0.4936
  964MOL0     C27161   6.612   9.631   8.963 -0.0465 -1.1228  0.0693
  964MOL0     C27162   6.742   9.610   8.925  0.9432  0.2183 -0.5407
  964MOL0     O27163   6.853   9.495   8.570 -0.7078  0.2087  0.4054
  964MOL0     C27164   7.178   9.557   8.697  0.1288  0.5749  0.0223
  964MOL0     C27165   7.310   9.536   8.654 -0.0024  0.4501  0.3242
  964MOL0     N27166   7.920   9.423   8.892  0.0362 -0.1864  0.5464
  964MOL0     N27167   7.976   9.495   8.986  0.1894 -0.0760  0.7725
  964MOL0     C27168   9.263   9.618   8.938 -0.3579 -0.5968 -0.4240
  964MOL0     C27169   9.399   9.638   8.969 -0.2470 -0.0825  0.4552
  964MOL0     C27170   9.803   9.712   9.133  1.1404  0.6061 -0.2556
  964MOL0     C27171   9.819   9.757   9.262  0.1473 -0.4090 -0.5280
  964MOL0     C27172   9.946   9.782   9.314  0.6933  0.3266 -0.2415
  964MOL0     C27173  10.060   9.760   9.234  0.5302  0.5114 -0.9122
  964MOL0     O27174  10.185   9.761   9.289  0.3024 -0.3890  0.2402
  964MOL0     C27175  10.206   9.804   9.424  0.6113 -0.5614 -0.2558
  964MOL0     C27176  10.356   9.810   9.431 -0.2389  0.0074 -0.0793
  964MOL0     C27177  10.434   9.917   9.342  1.0653  0.3161 -0.1774
  964MOL0     C27178  10.587   9.909   9.336  0.3075  0.3042 -0.3835
  964MOL0     C27179  10.634   9.879   9.474  0.2510  0.1199 -0.3590
  964MOL0     C27180  10.694   9.860   9.579 -0.0639 -0.4035 -0.3381
  964MOL0     C27181  10.039   9.711   9.107 -0.0125 -0.0516  0.6290
  964MOL0     C27182   9.917   9.690   9.053  0.5720 -0.0919 -0.2086
  964MOL0     H27183   9.367   9.767   9.283  3.0961 -2.8177  0.8029
  964MOL0     H27184   9.130   9.768   9.216 -1.9131  1.8508 -3.3447
  964MOL0     H27185   8.945   9.790   9.104  3.7131 -0.1974 -0.3306
  964MOL0     H27186   8.948   9.631   9.175 -2.4449  0.8084  0.8334
  964MOL0     H27187   8.769   9.558   8.987 -2.4281 -0.0345  0.1868
  964MOL0     H27188   8.772   9.725   8.935 -2.0242  0.6109  1.5618
  964MOL0     H27189   8.728   9.766   9.197  2.3959  0.3513 -0.7111
  964MOL0     H27190   8.655   9.596   9.181 -1.3696  1.4056  1.4788
  964MOL0     H27191   8.573   9.830   9.033 -3.4308  0.1554 -1.1607
  964MOL0     H27192   8.539   9.659   8.991  0.1710  0.4320  0.1620
  964MOL0     H27193   8.469   9.793   9.256  0.6596 -1.0812  1.3943
  964MOL0     H27194   8.436   9.622   9.214 -0.6441 -0.3033 -1.1659
  964MOL0     H27195   8.336   9.843   9.038  3.3129 -0.0416 -0.0072
  964MOL0     H27196   8.243   9.808   9.190 -2.4330 -2.3189 -0.0132
  964MOL0     H27197   8.293   9.614   8.964 -0.5031  0.0143 -0.6146
  964MOL0     H27198   8.234   9.566   9.126  1.9313 -0.1849  0.0391
  964MOL0     H27199   8.125   9.787   8.945  1.2216 -0.6723  0.8538
  964MOL0     H27200   8.042   9.742   9.095  0.8434  1.3077 -0.4954
  964MOL0     H27201   8.015   9.690   8.733  1.5753  0.7380  2.0488
  964MOL0     H27202   7.959   9.399   8.580 -0.2505 -2.4688  0.8396
  964MOL0     H27203   7.857   9.541   8.599  1.1361 -0.2260 -0.3069
  964MOL0     H27204   7.674   9.426   8.685 -2.2517 -0.6260 -2.5356
  964MOL0     H27205   7.760   9.270   8.678  2.3417 -0.1907 -1.6669
  964MOL0     H27206   7.734   9.443   8.431  1.1794  0.2952  0.9697
  964MOL0     H27207   7.764   9.269   8.454 -0.5351 -0.6164  1.0145
  964MOL0     H27208   7.514   9.250   8.538 -0.1356  1.4760  1.0856
  964MOL0     H27209   7.525   9.322   8.367  1.4364  2.2134 -1.2309
  964MOL0     H27210   7.269   9.296   8.424 -1.3918  0.1565 -0.5900
  964MOL0     H27211   7.038   9.330   8.489  1.2359 -1.5918 -0.0293
  964MOL0     H27212   6.706   9.355   8.709 -0.8259 -0.6642 -0.0771
  964MOL0     H27213   6.460   9.382   8.779 -1.6947  0.1952  1.3937
  964MOL0     H27214   6.385   9.768   8.975  0.4613 -0.8515 -1.1371
  964MOL0     H27215   6.354   9.669   9.117  1.4586  2.2153  1.1890
  964MOL0     H27216   6.169   9.688   8.871  1.0152  3.5229  0.1354
  964MOL0     H27217   6.119   9.761   9.029 -1.0414  0.1891 -0.9670
  964MOL0     H27218   6.079   9.573   9.137 -0.1476 -1.7424  0.3535
  964MOL0     H27219   6.174   9.476   9.013 -1.3286 -0.8503  1.0329
  964MOL0     H27220   5.914   9.609   8.960  1.4695  1.4166  2.4992
  964MOL0     H27221   5.997   9.514   8.841  1.8182 -2.0924  0.6892
  964MOL0     H27222   5.873   9.422   9.094  0.4445  0.5262  0.8000
  964MOL0     H27223   5.977   9.305   9.000 -0.3446 -0.1925 -0.4859
  964MOL0     H27224   5.854   9.338   8.805  1.1123  2.5891 -0.0125
  964MOL0     H27225   5.727   9.423   8.893 -2.4965 -0.8302 -0.1975
  964MOL0     H27226   5.822   9.132   8.928 -1.3605 -0.7369  0.5515
  964MOL0     H27227   5.731   9.213   9.051  2.0058 -0.5682  0.6459
  964MOL0     H27228   5.630   9.221   8.762 -0.4863 -0.3945 -1.3253
  964MOL0     H27229   5.527   9.226   8.900  0.0194  0.3328  0.6853
  964MOL0     H27230   6.595   9.711   9.035  3.0291  3.1136 -3.3278
  964MOL0     H27231   6.824   9.674   8.957  0.3455  0.3256  0.8235
  964MOL0     H27232   7.144   9.625   8.775  1.2453  2.0945 -0.7630
  964MOL0     H27233   7.392   9.591   8.698  0.3021  1.2983 -1.2367
  964MOL0     H27234   9.224   9.565   8.851 -1.3565 -0.3186 -0.1605
  964MOL0     H27235   9.460   9.587   8.895  0.4092 -1.4901  1.8808
  964MOL0     H27236   9.740   9.796   9.325  1.4617  0.9034  0.3704
  964MOL0     H27237   9.941   9.814   9.417  1.4202 -1.2892  0.3215
  964MOL0     H27238  10.164   9.733   9.495 -1.8905  0.0871 -0.9860
  964MOL0     H27239  10.159   9.900   9.449  2.1252 -0.3641  2.1841
  964MOL0     H27240  10.363   9.842   9.535  2.2884  0.2268 -0.2495
  964MOL0     H27241  10.391   9.707   9.433  0.3892  0.1696 -1.4870
  964MOL0     H27242  10.402  10.017   9.373 -0.1351  0.1759 -0.8972
  964MOL0     H27243  10.408   9.916   9.236 -0.8863  0.8858  0.2419
  964MOL0     H27244  10.620   9.836   9.262 -1.4128  1.2363 -2.1576
  964MOL0     H27245  10.632  10.007   9.315 -0.7363  0.2760 -3.1035
  964MOL0     H27246  10.728   9.835   9.677 -3.4845 -3.1510  0.3562
  964MOL0     H27247  10.126   9.697   9.044 -1.8237  1.9316 -2.5673
  964MOL0     H27248   9.905   9.663   8.948  0.4707 -0.2288 -0.1629
  965MOL0     O27249   9.857   9.200   9.967  0.1944  0.3560 -0.3184
  965MOL0     C27250   9.897   9.111   9.897  0.0029  0.8177 -0.7443
  965MOL0     O27251   9.822   9.039   9.805  0.5167  0.1102 -0.2474
  965MOL0     C27252   9.685   9.037   9.803 -1.1677  0.0703  0.3958
  965MOL0     C27253   9.636   9.011   9.675 -0.1552  0.1588 -0.3890
  965MOL0     C27254   9.499   8.981   9.654 -0.4280 -0.4657  0.4834
  965MOL0     C27255   9.409   9.004   9.762  0.3085  0.5269 -0.6847
  965MOL0     O27256   9.273   9.004   9.751  0.3648 -0.3012  1.0415
  965MOL0     C27257   9.222   8.886   9.681 -0.0432 -0.6401  0.8498
  965MOL0     C27258   9.212   8.778   9.788  0.7669 -0.6706 -0.0158
  965MOL0     C27259   9.122   8.817   9.904  0.4026  0.2163 -0.2712
  965MOL0     C27260   9.107   8.686   9.992  0.0273 -0.3026 -0.3212
  965MOL0     C27261   9.125   8.707  10.143 -0.4299 -0.2868 -0.2173
  965MOL0     C27262   9.130   8.581  10.223 -0.0189  0.4441 -0.2404
  965MOL0     C27263   9.245   8.483  10.189  0.7162  0.4201  0.1765
  965MOL0     C27264   9.301   8.410  10.314 -0.0570 -0.4493 -0.1475
  965MOL0     N27265   9.390   8.298  10.285  0.2465  0.3358  0.1890
  965MOL0     C27266   9.350   8.166  10.283  0.2124 -0.2884 -0.5791
  965MOL0     C27267   9.460   8.104  10.224 -0.1725  0.0352  0.4891
  965MOL0     C27268   9.459   7.965  10.177 -0.1259  0.2894  0.0731
  965MOL0     C27269   9.577   7.930  10.086  0.0597 -0.5361 -0.0273
  965MOL0     C27270   9.704   7.911  10.161  0.2241 -0.0600 -0.2430
  965MOL0     C27271   9.824   7.916  10.061  0.3694 -0.2957 -0.0188
  965MOL0     O27272   9.827   8.042   9.998  0.5193 -0.1545 -0.6051
  965MOL0     C27273   9.920   8.053   9.895 -0.2271 -0.1012  0.3217
  965MOL0     C27274   9.905   8.165   9.814  0.2109 -0.3010  0.0856
  965MOL0     C27275   9.984   8.173   9.699 -0.6494 -0.0997 -0.0121
  965MOL0     C27276  10.081   8.077   9.664  1.1671  0.0029  0.9900
  965MOL0     C27277  10.164   8.108   9.544  0.5598  1.0556  0.7407
  965MOL0     O27278  10.208   8.006   9.470 -0.0699  0.2151 -0.1263
  965MOL0     C27279  10.285   8.025   9.346  0.4436  0.3806  0.5564
  965MOL0     C27280  10.405   8.095   9.360 -0.2263  0.2588  0.1069
  965MOL0     C27281  10.480   8.127   9.244 -0.1202 -0.6645 -1.1970
  965MOL0     C27282  10.441   8.081   9.121 -0.1424 -0.4796  0.1088
  965MOL0     O27283  10.520   8.113   9.009 -0.2281 -0.1890 -0.3206
  965MOL0     C27284  10.479   8.243   8.960  0.9340 -0.3927  0.2551
  965MOL0     C27285  10.555   8.267   8.827  0.3562  0.1620 -0.2755
  965MOL0     C27286  10.712   8.266   8.847 -0.6368  1.0596  0.5089
  965MOL0     C27287  10.762   8.388   8.918  0.3249  0.6117 -0.2817
  965MOL0     C27288  10.899   8.435   8.873  0.3068  0.5458 -0.6060
  965MOL0     C27289  10.940   8.562   8.945  0.2819  0.1806  0.0244
  965MOL0     C27290  11.066   8.604   8.872 -0.0078  0.1848 -0.7888
  965MOL0     C27291  11.127   8.728   8.927 -0.0810  0.0671  0.0489
  965MOL0    Cl27292  11.160   8.693   9.085  0.3647  0.5337 -0.0341
  965MOL0     C27293  10.328   7.992   9.110  0.2790 -0.4856  0.6167
  965MOL0     C27294  10.245   7.969   9.217 -0.7952 -0.1823  0.6407
  965MOL0     O27295  10.183   8.225   9.522  0.3477 -0.4491 -0.3365
  965MOL0     C27296  10.101   7.972   9.749 -0.3226  0.0363 -0.5152
  965MOL0     C27297  10.022   7.963   9.866 -0.6724 -0.5655 -0.5867
  965MOL0     N27298   9.558   8.195  10.201  0.0703 -0.1862  0.6580
  965MOL0     N27299   9.509   8.313  10.230 -0.5581  0.5476  0.6534
  965MOL0     C27300   9.459   9.042   9.883  0.2557 -0.2268 -0.7212
  965MOL0     C27301   9.595   9.049   9.909 -0.4827 -0.2155 -0.1348
  965MOL0     C27302  10.046   9.085   9.905 -0.2192 -0.2376 -0.5762
  965MOL0     C27303  10.130   9.163   9.995 -0.6595 -0.3714  0.8802
  965MOL0     C27304  10.264   9.133  10.005 -0.4076  0.5039 -0.0737
  965MOL0     C27305  10.319   9.040   9.917  0.4177  0.2939 -0.1092
  965MOL0     O27306  10.450   9.009   9.910 -0.5289  0.4894 -0.4519
  965MOL0     C27307  10.517   8.979  10.042 -0.5777  0.0196  0.5849
  965MOL0     C27308  10.656   9.054  10.057  0.1986 -0.2233  0.1401
  965MOL0     C27309  10.744   8.987  10.150  0.4724  0.3100  0.3405
  965MOL0     C27310  10.801   8.849  10.109  0.8160  0.0278 -0.0311
  965MOL0     C27311  10.899   8.809  10.207 -0.1409 -0.3421  0.5308
  965MOL0     C27312  10.988   8.772  10.282  0.6920  0.5476 -0.1610
  965MOL0     C27313  10.236   8.970   9.829 -0.1361  0.0204 -0.4417
  965MOL0     C27314  10.099   8.992   9.825 -0.2965  0.8338 -0.0296
  965MOL0     H27315   9.701   9.001   9.589 -2.2708  1.5326 -2.2836
  965MOL0     H27316   9.459   8.945   9.559 -0.7336  0.9560  0.0555
  965MOL0     H27317   9.279   8.856   9.593 -0.0757  1.7397 -0.0565
  965MOL0     H27318   9.128   8.924   9.638  1.8833  1.6524 -1.6506
  965MOL0     H27319   9.314   8.762   9.824  0.6358  0.7413  1.0784
  965MOL0     H27320   9.168   8.688   9.745  0.3315  0.8521 -3.0151
  965MOL0     H27321   9.022   8.834   9.863 -1.4618 -2.2202  2.7713
  965MOL0     H27322   9.150   8.899   9.971 -1.6064 -1.6272  3.1305
  965MOL0     H27323   9.003   8.656   9.979 -0.5365  1.1781  0.5717
  965MOL0     H27324   9.170   8.600   9.967 -2.4354 -2.8816  1.6860
  965MOL0     H27325   9.056   8.785  10.176  2.1235  1.0438  2.4743
  965MOL0     H27326   9.221   8.759  10.137  1.1868 -2.9846  0.5757
  965MOL0     H27327   9.033   8.531  10.224  1.7373 -3.2742  0.5208
  965MOL0     H27328   9.154   8.613  10.325  2.2987  1.2124 -0.9667
  965MOL0     H27329   9.189   8.417  10.121  1.9418 -0.5275  0.0469
  965MOL0     H27330   9.322   8.530  10.126  2.2581 -2.1088  0.0424
  965MOL0     H27331   9.219   8.375  10.377  1.5499  0.3251  2.5512
  965MOL0     H27332   9.351   8.481  10.381  0.9948 -0.6944 -0.6512
  965MOL0     H27333   9.252   8.120  10.297  0.9410 -1.5862  0.5218
  965MOL0     H27334   9.365   7.943  10.126 -0.9225 -0.2298  1.6871
  965MOL0     H27335   9.460   7.903  10.267  1.3768 -0.4153 -0.3953
  965MOL0     H27336   9.593   8.008  10.011 -0.6527 -0.4790 -0.1218
  965MOL0     H27337   9.561   7.838  10.029 -1.1669  0.9662 -2.2554
  965MOL0     H27338   9.718   7.988  10.238 -2.5706  0.4601 -0.1726
  965MOL0     H27339   9.703   7.812  10.207 -3.2402  0.1233  0.3063
  965MOL0     H27340   9.810   7.831   9.994  1.8205 -1.1603  0.6976
  965MOL0     H27341   9.919   7.898  10.112 -0.6617  0.8414  2.4988
  965MOL0     H27342   9.833   8.241   9.843  0.8135 -0.7935  3.3284
  965MOL0     H27343   9.977   8.259   9.633 -0.0645  1.2722  1.6253
  965MOL0     H27344  10.431   8.114   9.463 -1.1513 -1.0414  0.6053
  965MOL0     H27345  10.566   8.194   9.253  1.0086 -2.3867  2.8610
  965MOL0     H27346  10.510   8.321   9.031  0.4357  1.6047 -1.6309
  965MOL0     H27347  10.372   8.254   8.937  1.5040  2.8583 -1.3844
  965MOL0     H27348  10.511   8.360   8.789 -0.3902 -1.5082 -3.9492
  965MOL0     H27349  10.533   8.192   8.751  0.7392 -0.6962  0.4504
  965MOL0     H27350  10.742   8.266   8.742 -0.4505 -0.7413  0.5274
  965MOL0     H27351  10.750   8.179   8.901 -0.9696 -0.4070 -1.5083
  965MOL0     H27352  10.694   8.472   8.905 -0.1492  0.7823  2.5566
  965MOL0     H27353  10.756   8.361   9.024  2.7847 -1.6763 -0.5932
  965MOL0     H27354  10.902   8.446   8.765  0.1942 -1.5356 -0.8731
  965MOL0     H27355  10.976   8.360   8.894 -1.2081 -1.1004 -0.6941
  965MOL0     H27356  10.950   8.535   9.050 -0.9535  0.4541  0.2265
  965MOL0     H27357  10.859   8.636   8.942  1.0157  0.9786 -0.6095
  965MOL0     H27358  11.141   8.526   8.857  0.2507  0.3242 -0.2399
  965MOL0     H27359  11.036   8.646   8.775 -1.2454  1.4376  0.0949
  965MOL0     H27360  11.065   8.818   8.920  2.4665  1.9758  0.3021
  965MOL0     H27361  11.221   8.741   8.872  0.5021  0.6998  1.1391
  965MOL0     H27362  10.305   7.946   9.015 -0.7092  0.4011  0.4054
  965MOL0     H27363  10.162   7.899   9.217 -1.1296  0.1355 -1.9623
  965MOL0     H27364  10.178   7.896   9.741  1.6123  1.8312  0.1519
  965MOL0     H27365  10.042   7.884   9.937  1.3959 -1.5370 -2.1395
  965MOL0     H27366   9.383   9.061   9.957  0.7365  0.3725 -0.3732
  965MOL0     H27367   9.638   9.054  10.008  1.2964 -3.2622 -0.6411
  965MOL0     H27368  10.095   9.251  10.048  1.2300  2.8395 -2.6892
  965MOL0     H27369  10.326   9.193  10.070  1.6147  1.4659 -2.7259
  965MOL0     H27370  10.534   8.871  10.035  2.0829  0.4565 -4.7244
  965MOL0     H27371  10.461   8.996  10.134  0.2818 -0.7572  1.2620
  965MOL0     H27372  10.704   9.064   9.959 -1.8052  0.1717 -0.8405
  965MOL0     H27373  10.640   9.155  10.096  0.1091 -0.9956  2.2397
  965MOL0     H27374  10.681   8.972  10.237  0.8494 -1.0808  0.3940
  965MOL0     H27375  10.833   9.045  10.179 -0.1427  0.5701  1.8044
  965MOL0     H27376  10.738   8.762  10.090  2.2010 -0.4737 -2.8644
  965MOL0     H27377  10.850   8.853  10.011  1.1971 -5.8555 -0.4044
  965MOL0     H27378  11.056   8.730  10.353  2.3042  2.9215 -0.1901
  965MOL0     H27379  10.278   8.896   9.762 -0.1110  1.2423 -1.8342
  965MOL0     H27380  10.041   8.932   9.756 -1.1059  0.6771  0.7711
  966MOL0     O27381   1.433  10.205   6.058  0.5920  0.4878 -1.4732
  966MOL0     C27382   1.461  10.323   6.024  0.4926 -0.2442  0.3484
  966MOL0     O27383   1.382  10.429   6.049 -0.4360  0.9602 -0.0984
  966MOL0     C27384   1.244  10.410   6.090 -0.1990  0.4015  0.5993
  966MOL0     C27385   1.194  10.488   6.187 -0.5835 -0.7284 -0.4850
  966MOL0     C27386   1.068  10.474   6.240 -0.0610  0.0049 -0.3544
  966MOL0     C27387   0.982  10.365   6.200 -0.0146  0.0414  0.2331
  966MOL0     O27388   0.849  10.348   6.245  0.7054 -0.6483  0.0028
  966MOL0     C27389   0.805  10.421   6.360 -0.0003  0.0373 -0.5409
  966MOL0     C27390   0.653  10.400   6.387  0.8966  0.9673 -0.3699
  966MOL0     C27391   0.617  10.248   6.411 -0.3293  0.8205 -1.3155
  966MOL0     C27392   0.463  10.222   6.405  0.5995 -0.1053 -0.2320
  966MOL0     C27393   0.437  10.065   6.421 -0.3756  0.1390  0.2222
  966MOL0     C27394   0.291  10.030   6.426 -0.2058 -0.1930 -0.1964
  966MOL0     C27395   0.272   9.881   6.433 -0.0087 -0.5842 -0.5595
  966MOL0     C27396   0.244   9.851   6.579  0.5428  0.3222 -0.0942
  966MOL0     N27397   0.235   9.705   6.605 -0.0173 -0.5062  0.2361
  966MOL0     C27398   0.341   9.608   6.617  0.3073 -0.5408  0.7420
  966MOL0     C27399   0.282   9.491   6.640 -0.4108 -0.0964  0.1372
  966MOL0     C27400   0.361   9.361   6.674 -0.1896 -0.5260  0.1879
  966MOL0     C27401   0.354   9.264   6.561 -0.1364 -0.5602  0.6378
  966MOL0     C27402   0.446   9.287   6.439  0.6115 -0.7104 -0.6208
  966MOL0     C27403   0.601   9.278   6.476  0.0056  0.3053 -1.0111
  966MOL0     O27404   0.644   9.393   6.554 -0.2800  0.5082 -0.0425
  966MOL0     C27405   0.773   9.408   6.605 -0.3442 -0.2999 -0.5653
  966MOL0     C27406   0.883   9.335   6.563 -1.0361 -0.1909  0.0177
  966MOL0     C27407   1.012   9.350   6.616  1.0772 -0.6179 -0.2119
  966MOL0     C27408   1.025   9.452   6.714  0.6858  0.1864  0.2843
  966MOL0     C27409   1.159   9.501   6.733 -0.1221  0.2783 -0.6106
  966MOL0     O27410   1.266   9.419   6.688 -0.1100  0.3267  0.0759
  966MOL0     C27411   1.383   9.483   6.687  0.0142  0.2697 -0.1799
  966MOL0     C27412   1.411   9.595   6.601  0.5284  0.3015  0.6085
  966MOL0     C27413   1.540   9.652   6.591  0.0640  0.3637 -0.3279
  966MOL0     C27414   1.641   9.603   6.673 -0.1682  0.6097  0.4351
  966MOL0     O27415   1.767   9.648   6.661 -0.8317  0.8806 -0.0410
  966MOL0     C27416   1.810   9.754   6.586  0.4476  0.2300  0.1653
  966MOL0     C27417   1.955   9.779   6.615  0.1999 -0.0546  0.4643
  966MOL0     C27418   2.009   9.904   6.552 -0.3164 -0.5902 -0.4064
  966MOL0     C27419   2.162   9.915   6.572  0.0493  0.5284 -0.5921
  966MOL0     C27420   2.239  10.009   6.476 -0.5571  0.7824 -0.2822
  966MOL0     C27421   2.393   9.980   6.485  0.3724  0.4456  0.1109
  966MOL0     C27422   2.467  10.073   6.392 -1.0789  0.6143  0.4583
  966MOL0     C27423   2.616  10.058   6.405  0.0362 -0.4917 -1.1598
  966MOL0    Cl27424   2.672   9.895   6.373  0.3033  0.0076  0.2172
  966MOL0     C27425   1.619   9.497   6.758 -0.5428  0.4822  0.2179
  966MOL0     C27426   1.492   9.431   6.760  0.2599 -0.5964  0.0414
  966MOL0     O27427   1.166   9.611   6.786  0.1306 -0.5782 -0.2995
  966MOL0     C27428   0.914   9.523   6.759  0.3204  1.2698  0.1608
  966MOL0     C27429   0.790   9.497   6.714  0.1988  1.0079 -0.2543
  966MOL0     N27430   0.147   9.517   6.656  0.3855 -0.2956 -0.7155
  966MOL0     N27431   0.125   9.636   6.636  0.6140 -0.1054  0.1906
  966MOL0     C27432   1.035  10.286   6.092 -0.3726 -0.0635  0.2181
  966MOL0     C27433   1.162  10.303   6.038  0.8274  0.0517 -0.4993
  966MOL0     C27434   1.585  10.346   5.949 -1.1428 -0.2304 -0.7390
  966MOL0     C27435   1.667  10.243   5.915 -0.2573 -0.4679  0.6861
  966MOL0     C27436   1.763  10.267   5.820 -0.3825  0.5814 -1.1724
  966MOL0     C27437   1.794  10.392   5.776 -0.2891  0.5620  0.5691
  966MOL0     O27438   1.900  10.397   5.687 -0.4329 -0.8300  0.0463
  966MOL0     C27439   1.980  10.511   5.671  1.1097 -0.9474  0.2432
  966MOL0     C27440   2.100  10.491   5.569  0.2681  0.8912 -0.2706
  966MOL0     C27441   2.235  10.485   5.638 -0.7447  0.1397 -0.0983
  966MOL0     C27442   2.356  10.522   5.548 -0.0709 -0.0883 -0.0958
  966MOL0     C27443   2.471  10.522   5.632 -0.4635  0.0184  0.6758
  966MOL0     C27444   2.564  10.529   5.705 -0.1280 -0.8599 -0.3008
  966MOL0     C27445   1.719  10.497   5.821  0.6953 -0.0017 -0.6575
  966MOL0     C27446   1.606  10.473   5.902  0.0433 -1.1424  0.2009
  966MOL0     H27447   1.258  10.564   6.233  1.2096 -0.7909 -2.7076
  966MOL0     H27448   1.034  10.539   6.320  1.7191  1.5080 -0.7386
  966MOL0     H27449   0.832  10.527   6.353 -1.1973  0.6127  2.2078
  966MOL0     H27450   0.861  10.377   6.443  1.0223 -1.2754 -1.8653
  966MOL0     H27451   0.608  10.432   6.293  2.6185  1.0307 -1.2090
  966MOL0     H27452   0.630  10.458   6.477 -2.1999 -1.5736  0.6791
  966MOL0     H27453   0.663  10.210   6.502 -0.2431  0.6876 -1.4140
  966MOL0     H27454   0.670  10.202   6.327  2.4046  3.7811 -1.4200
  966MOL0     H27455   0.419  10.269   6.494  2.7864  0.0073  0.8446
  966MOL0     H27456   0.417  10.260   6.313 -0.2407  1.7975  0.8945
  966MOL0     H27457   0.477  10.025   6.515 -2.5851  0.1653  1.2464
  966MOL0     H27458   0.481  10.012   6.336 -0.4565 -0.4092  0.5138
  966MOL0     H27459   0.228  10.063   6.343  1.5332  0.3545 -1.3565
  966MOL0     H27460   0.244  10.081   6.511  1.2941 -1.3324  1.3884
  966MOL0     H27461   0.198   9.844   6.362  1.3976 -4.2292 -0.3754
  966MOL0     H27462   0.366   9.837   6.398  1.4019  0.8410  1.2330
  966MOL0     H27463   0.152   9.897   6.614  2.1860  2.6913  1.4166
  966MOL0     H27464   0.317   9.894   6.648 -2.1413  0.2767  2.9604
  966MOL0     H27465   0.448   9.629   6.613  0.1799  0.0838  0.3657
  966MOL0     H27466   0.334   9.311   6.767  0.4576  0.1377  0.7490
  966MOL0     H27467   0.463   9.395   6.692 -1.0298  1.1872  2.2865
  966MOL0     H27468   0.249   9.262   6.531 -0.4559  3.9514  0.7515
  966MOL0     H27469   0.377   9.166   6.604 -0.8655 -0.1747  1.9884
  966MOL0     H27470   0.441   9.206   6.366  4.3311  0.9896 -3.0558
  966MOL0     H27471   0.433   9.381   6.384 -0.8707 -0.9393 -0.6878
  966MOL0     H27472   0.652   9.286   6.380  1.6839 -0.3492 -0.2147
  966MOL0     H27473   0.629   9.186   6.528  0.1558  1.1246  0.4187
  966MOL0     H27474   0.868   9.276   6.473 -1.8317  1.1015 -0.7301
  966MOL0     H27475   1.092   9.292   6.573 -0.5202 -1.5447 -2.0917
  966MOL0     H27476   1.335   9.627   6.529  0.5147 -3.2410 -1.1943
  966MOL0     H27477   1.560   9.727   6.514 -0.6473 -0.7229 -1.6260
  966MOL0     H27478   1.746   9.839   6.612  1.0313  0.1769  1.9905
  966MOL0     H27479   1.797   9.732   6.480  2.4841  0.2583 -0.1255
  966MOL0     H27480   2.009   9.691   6.578 -1.2270 -0.7928  0.0880
  966MOL0     H27481   1.976   9.785   6.722  0.5505  0.5080  0.3703
  966MOL0     H27482   1.961   9.992   6.595  1.3387 -1.2587  3.1981
  966MOL0     H27483   1.977   9.916   6.448  0.7530 -0.2939 -0.7096
  966MOL0     H27484   2.181   9.924   6.679 -0.6284 -1.7052 -0.2373
  966MOL0     H27485   2.199   9.818   6.539 -1.4610  0.0471 -0.9589
  966MOL0     H27486   2.220  10.114   6.496  0.1127  0.6435  1.1866
  966MOL0     H27487   2.210   9.996   6.371  0.4587  0.0615 -0.4970
  966MOL0     H27488   2.403   9.875   6.454 -2.0302 -0.1139  1.0459
  966MOL0     H27489   2.423   9.978   6.590  0.6302 -3.5181  0.1153
  966MOL0     H27490   2.443  10.044   6.289  3.0921  1.0964 -0.8201
  966MOL0     H27491   2.442  10.179   6.402 -1.0783  0.4077  3.7488
  966MOL0     H27492   2.653  10.089   6.503  1.1465 -0.4448 -1.5807
  966MOL0     H27493   2.670  10.126   6.338 -0.7920 -1.0306 -2.4060
  966MOL0     H27494   1.714   9.468   6.801 -0.9567 -0.0906  0.7622
  966MOL0     H27495   1.485   9.342   6.822 -0.5660 -0.4299  0.2021
  966MOL0     H27496   0.921   9.605   6.830 -2.3917  1.0762  0.7836
  966MOL0     H27497   0.697   9.542   6.745 -0.6791 -1.6921  1.3280
  966MOL0     H27498   0.974  10.210   6.045 -2.4904  2.3176 -1.1149
  966MOL0     H27499   1.197  10.230   5.966  0.4365 -0.9607  0.2966
  966MOL0     H27500   1.650  10.141   5.948  1.3313 -0.0338  3.1701
  966MOL0     H27501   1.831  10.195   5.776 -1.6054 -0.1222 -1.9472
  966MOL0     H27502   2.030  10.529   5.766 -0.1348  0.1658  0.7117
  966MOL0     H27503   1.926  10.604   5.653  1.9361 -0.0973  1.9726
  966MOL0     H27504   2.081  10.401   5.510  0.4837  1.0243 -0.5460
  966MOL0     H27505   2.096  10.575   5.498 -1.1268  1.9176  0.9599
  966MOL0     H27506   2.252  10.386   5.680  0.2936 -0.2818 -1.4336
  966MOL0     H27507   2.238  10.559   5.718  3.5581 -0.0832  0.1662
  966MOL0     H27508   2.361  10.464   5.456  1.3932  0.0161 -0.1055
  966MOL0     H27509   2.339  10.625   5.515  1.8796  0.4553  0.4681
  966MOL0     H27510   2.647  10.545   5.771  0.2810  2.7522 -1.4801
  966MOL0     H27511   1.752  10.595   5.788 -0.2123  0.2493 -0.8625
  966MOL0     H27512   1.547  10.560   5.928 -0.7413 -1.4364 -0.5632
  967MOL0     O27513   0.608   5.363   1.421 -0.2002 -0.0862  0.3076
  967MOL0     C27514   0.550   5.475   1.432 -0.9851 -0.4839  0.3790
  967MOL0     O27515   0.611   5.594   1.405 -0.1467 -0.0501 -0.4230
  967MOL0     C27516   0.739   5.587   1.355 -0.2525  0.4124  0.1946
  967MOL0     C27517   0.755   5.624   1.225 -0.6351 -0.3910  0.6333
  967MOL0     C27518   0.883   5.632   1.170 -0.2431 -0.0656 -0.2260
  967MOL0     C27519   0.994   5.569   1.230  0.4150  0.4015 -0.4806
  967MOL0     O27520   1.111   5.545   1.159 -0.0361 -0.1790 -0.9803
  967MOL0     C27521   1.089   5.465   1.045 -0.5887  0.5014  0.0271
  967MOL0     C27522   1.233   5.428   0.989 -0.0215 -0.0470  0.1900
  967MOL0     C27523   1.213   5.380   0.841  0.4985 -0.1707  0.1528
  967MOL0     C27524   1.344   5.329   0.780  0.5133  0.0819  0.8890
  967MOL0     C27525   1.317   5.273   0.640 -0.0557 -0.4132 -0.0467
  967MOL0     C27526   1.217   5.153   0.639 -0.4833 -0.4660 -0.3807
  967MOL0     C27527   1.253   5.037   0.541  0.2004  0.3979  0.2748
  967MOL0     C27528   1.193   4.898   0.576 -0.0190 -0.4858  0.8439
  967MOL0     N27529   1.046   4.915   0.574  0.2430  0.2091  0.8425
  967MOL0     C27530   0.975   4.871   0.677 -0.4176  0.9645 -0.3363
  967MOL0     C27531   0.845   4.879   0.635 -1.4308  0.0282  0.2717
  967MOL0     C27532   0.727   4.831   0.721 -0.6709 -0.1572 -0.1263
  967MOL0     C27533   0.683   4.685   0.674  1.0694  0.0594  0.5164
  967MOL0     C27534   0.533   4.661   0.722 -0.5840 -0.2878 -0.1155
  967MOL0     C27535   0.466   4.528   0.675 -0.5981 -0.9417  0.0302
  967MOL0     O27536   0.354   4.478   0.757  0.1588  0.1186 -0.4487
  967MOL0     C27537   0.218   4.488   0.723  0.1425 -0.4262  0.9193
  967MOL0     C27538   0.125   4.404   0.792  0.7908 -0.1425  1.1433
  967MOL0     C27539  -0.009   4.388   0.756 -0.5729  0.2194 -0.2255
  967MOL0     C27540  -0.061   4.469   0.659  0.8773  0.1951 -0.1089
  967MOL0     C27541  -0.198   4.450   0.604  0.4856 -0.4403  0.1619
  967MOL0     O27542  -0.287   4.425   0.705 -0.6126  0.0336  0.5987
  967MOL0     C27543  -0.411   4.394   0.659 -0.1307  0.5654 -1.3280
  967MOL0     C27544  -0.472   4.279   0.709 -0.5412  0.2645 -0.2796
  967MOL0     C27545  -0.601   4.234   0.678 -0.4413 -0.4977 -0.1145
  967MOL0     C27546  -0.686   4.312   0.591  0.0635  0.0420  0.3917
  967MOL0     O27547  -0.813   4.283   0.557 -0.1847  0.1473  0.2748
  967MOL0     C27548  -0.867   4.167   0.620 -0.4315 -0.2715  0.2769
  967MOL0     C27549  -1.016   4.151   0.574 -0.0840 -0.3474  0.1146
  967MOL0     C27550  -1.078   4.037   0.646  0.4261  0.1752 -0.7835
  967MOL0     C27551  -1.228   4.032   0.613  0.2984  0.0617 -0.2860
  967MOL0     C27552  -1.287   3.912   0.688  0.2763  0.0114  0.5135
  967MOL0     C27553  -1.421   3.875   0.647  0.0316  0.0975  0.2926
  967MOL0     C27554  -1.487   3.771   0.724 -0.5121 -0.1824  0.1098
  967MOL0     C27555  -1.407   3.637   0.747  0.4458 -0.6769 -0.2246
  967MOL0    Cl27556  -1.507   3.549   0.874 -0.1501 -0.3400  0.1242
  967MOL0     C27557  -0.629   4.427   0.527 -0.2521 -0.0535  0.4940
  967MOL0     C27558  -0.486   4.463   0.564 -0.1026 -0.0542 -0.2340
  967MOL0     O27559  -0.223   4.458   0.485  0.2984 -0.6474 -0.0231
  967MOL0     C27560   0.029   4.558   0.595 -1.2155 -0.3531 -1.0456
  967MOL0     C27561   0.166   4.568   0.622 -0.1802  0.4570 -0.0142
  967MOL0     N27562   0.839   4.939   0.516 -0.2988  0.2363 -0.4037
  967MOL0     N27563   0.959   4.949   0.469 -0.4006  0.6468 -0.2255
  967MOL0     C27564   0.981   5.538   1.365 -0.9876 -0.8980  0.9679
  967MOL0     C27565   0.855   5.552   1.424 -0.4592 -0.0330 -0.8534
  967MOL0     C27566   0.407   5.480   1.468  0.6641  0.3891 -0.1950
  967MOL0     C27567   0.346   5.609   1.487  0.6780  0.0378  1.3102
  967MOL0     C27568   0.208   5.624   1.501 -0.2471  0.3402 -0.1125
  967MOL0     C27569   0.123   5.512   1.513 -0.2633 -0.8647 -0.6533
  967MOL0     O27570  -0.013   5.527   1.513  0.0808 -0.0652  0.5120
  967MOL0     C27571  -0.075   5.656   1.512 -0.5598 -0.3148  1.2933
  967MOL0     C27572  -0.222   5.640   1.475  0.9168  0.8349  0.0260
  967MOL0     C27573  -0.248   5.612   1.325  0.5464 -0.6231  0.3653
  967MOL0     C27574  -0.396   5.584   1.309 -0.8659  0.6500 -0.8119
  967MOL0     C27575  -0.481   5.698   1.330  0.6939 -1.2756 -0.3760
  967MOL0     C27576  -0.527   5.804   1.379  0.1974  0.9058 -0.4838
  967MOL0     C27577   0.185   5.385   1.499  0.3526  0.9550 -1.2253
  967MOL0     C27578   0.324   5.366   1.485  0.1102 -0.4785 -0.0304
  967MOL0     H27579   0.670   5.665   1.171 -0.6275  1.0260  1.6210
  967MOL0     H27580   0.898   5.672   1.070 -1.8120  1.8047  0.2131
  967MOL0     H27581   1.023   5.505   0.968  2.0424 -0.1659 -2.7545
  967MOL0     H27582   1.030   5.376   1.073  0.1631  0.5223  1.8039
  967MOL0     H27583   1.271   5.344   1.048 -0.0862 -0.2618 -0.0724
  967MOL0     H27584   1.292   5.520   0.997 -0.8236  0.3611  1.8610
  967MOL0     H27585   1.172   5.461   0.780  1.3682  1.4594  1.6373
  967MOL0     H27586   1.141   5.299   0.858  1.6394 -1.0790  0.8096
  967MOL0     H27587   1.427   5.400   0.787  1.4854 -1.1506  2.3143
  967MOL0     H27588   1.375   5.242   0.839 -0.3916 -0.0834  1.1439
  967MOL0     H27589   1.412   5.241   0.597  1.0635  0.9615  1.2623
  967MOL0     H27590   1.282   5.356   0.577  0.0326 -1.8770 -2.1141
  967MOL0     H27591   1.118   5.195   0.624  0.1159  0.3242 -2.5530
  967MOL0     H27592   1.236   5.106   0.736 -2.4500  0.5168  0.5217
  967MOL0     H27593   1.228   5.066   0.439  2.6337 -1.9347 -1.1157
  967MOL0     H27594   1.362   5.029   0.538  0.0632 -2.4523 -0.9575
  967MOL0     H27595   1.226   4.869   0.676 -0.7638  0.1214  1.2703
  967MOL0     H27596   1.222   4.824   0.500  1.2321 -0.6020  1.4110
  967MOL0     H27597   1.013   4.833   0.772  0.9528  3.7797  0.3452
  967MOL0     H27598   0.646   4.904   0.711 -1.1619 -1.0591 -4.6670
  967MOL0     H27599   0.743   4.826   0.830 -0.5784  1.4431 -0.0401
  967MOL0     H27600   0.751   4.609   0.713  1.2983 -0.0323 -0.0415
  967MOL0     H27601   0.682   4.677   0.564  0.1982 -0.4603  0.5503
  967MOL0     H27602   0.543   4.666   0.830 -2.9376  2.5032  0.0874
  967MOL0     H27603   0.472   4.745   0.686 -0.7608 -1.4407 -2.7988
  967MOL0     H27604   0.539   4.447   0.677  1.2461  0.5277  4.2658
  967MOL0     H27605   0.436   4.537   0.570  1.7977  3.9752 -0.5124
  967MOL0     H27606   0.152   4.326   0.862  0.1935 -1.4093 -0.0090
  967MOL0     H27607  -0.067   4.314   0.810  0.7006  0.2757  1.2859
  967MOL0     H27608  -0.422   4.222   0.787 -1.1285  2.2067  1.6024
  967MOL0     H27609  -0.647   4.146   0.721  1.2580 -0.7798  1.2303
  967MOL0     H27610  -0.863   4.183   0.728 -2.0639 -2.0692  0.6545
  967MOL0     H27611  -0.812   4.077   0.592 -1.5270 -1.5286  1.9660
  967MOL0     H27612  -1.028   4.138   0.466 -3.2064 -0.4254  0.3699
  967MOL0     H27613  -1.065   4.245   0.602  0.3161 -0.4009  1.0156
  967MOL0     H27614  -1.072   4.061   0.753 -0.8721 -1.0356 -0.4098
  967MOL0     H27615  -1.031   3.940   0.631  1.3355  0.4023  0.4133
  967MOL0     H27616  -1.278   4.125   0.643 -0.7176 -1.1405  1.9797
  967MOL0     H27617  -1.230   4.017   0.504 -1.3507  2.3686 -0.6414
  967MOL0     H27618  -1.283   3.944   0.793 -1.0215  3.0665 -0.2800
  967MOL0     H27619  -1.219   3.826   0.686 -1.9218 -1.9588  2.9231
  967MOL0     H27620  -1.421   3.850   0.540 -0.2755  1.6193 -0.0938
  967MOL0     H27621  -1.483   3.965   0.655 -3.7041 -2.2248 -0.0081
  967MOL0     H27622  -1.513   3.808   0.824  2.0243  2.0684  0.0347
  967MOL0     H27623  -1.569   3.752   0.655  1.9527 -1.0750 -2.7530
  967MOL0     H27624  -1.310   3.665   0.789 -1.4373  1.4199  3.2406
  967MOL0     H27625  -1.401   3.578   0.655  0.8257 -1.8885  0.5616
  967MOL0     H27626  -0.704   4.473   0.465 -2.7140 -2.4560  1.4501
  967MOL0     H27627  -0.447   4.547   0.507 -0.1999 -0.6670 -1.2245
  967MOL0     H27628  -0.012   4.638   0.535 -1.0289 -0.1191 -0.8609
  967MOL0     H27629   0.228   4.635   0.564 -1.4189  0.1241 -1.8012
  967MOL0     H27630   1.064   5.504   1.426 -1.4897 -1.9718  1.0833
  967MOL0     H27631   0.852   5.536   1.531  0.7923 -0.2849 -0.8414
  967MOL0     H27632   0.397   5.704   1.497 -3.0060  2.4078 -0.3914
  967MOL0     H27633   0.161   5.721   1.511 -1.2567  0.0314 -1.5444
  967MOL0     H27634  -0.032   5.735   1.449 -1.1936 -0.6083  0.4658
  967MOL0     H27635  -0.066   5.694   1.614  1.7680 -0.5103  1.2020
  967MOL0     H27636  -0.250   5.561   1.545 -3.0954  3.3446  1.6410
  967MOL0     H27637  -0.276   5.732   1.502 -1.4463 -0.5680  0.3523
  967MOL0     H27638  -0.202   5.522   1.283 -0.1376 -0.3969 -0.9545
  967MOL0     H27639  -0.219   5.691   1.255 -1.4106  0.5768  0.8440
  967MOL0     H27640  -0.410   5.546   1.207  2.4445 -1.0585 -0.7620
  967MOL0     H27641  -0.431   5.501   1.371 -1.3579 -0.2520 -2.2562
  967MOL0     H27642  -0.573   5.874   1.445 -0.2899 -0.0023  0.1599
  967MOL0     H27643   0.129   5.297   1.529  0.2911  2.5959  4.6011
  967MOL0     H27644   0.369   5.268   1.479  2.6290  0.5571  0.8118
  968MOL0     O27645   3.932   5.415  11.238  0.0827  0.6413 -0.2390
  968MOL0     C27646   3.831   5.357  11.258 -0.2533 -0.1575 -0.5518
  968MOL0     O27647   3.817   5.267  11.363 -0.4515 -0.5651  0.3569
  968MOL0     C27648   3.920   5.215  11.449  0.4869  0.3221  0.5800
  968MOL0     C27649   3.889   5.136  11.555  1.1477  1.2100 -0.2339
  968MOL0     C27650   3.989   5.089  11.646  0.8386  0.5693  0.3949
  968MOL0     C27651   4.125   5.108  11.621 -0.1077  0.8020  0.0769
  968MOL0     O27652   4.236   5.072  11.697  0.2559 -0.0581 -0.7193
  968MOL0     C27653   4.222   4.974  11.798 -0.3264  0.6698  0.4525
  968MOL0     C27654   4.233   5.043  11.941 -0.9468 -0.2890 -0.3162
  968MOL0     C27655   4.114   5.138  11.973  0.0565  0.3261  0.5117
  968MOL0     C27656   4.117   5.195  12.116  0.4660 -0.1537 -0.7441
  968MOL0     C27657   3.990   5.279  12.155 -0.2984  0.8351 -1.1840
  968MOL0     C27658   3.998   5.312  12.312  0.2118  0.6446  0.8374
  968MOL0     C27659   3.874   5.374  12.376  1.0219 -0.6120 -0.5288
  968MOL0     C27660   3.803   5.485  12.299  0.4010 -0.3129 -0.0011
  968MOL0     N27661   3.727   5.559  12.395  0.6824  0.2286  0.1131
  968MOL0     C27662   3.612   5.504  12.440 -0.1624  0.1998 -0.0679
  968MOL0     C27663   3.577   5.581  12.547  0.3034 -0.1011 -1.1636
  968MOL0     C27664   3.450   5.567  12.625  0.7782 -0.4985 -0.0131
  968MOL0     C27665   3.337   5.658  12.565  0.5503 -0.6546  0.0294
  968MOL0     C27666   3.203   5.599  12.628 -0.8813  0.2722 -0.5361
  968MOL0     C27667   3.073   5.677  12.597 -0.0567 -0.6615  0.1519
  968MOL0     O27668   2.958   5.603  12.649  0.2543  0.1162  0.3718
  968MOL0     C27669   2.840   5.676  12.666  0.3471  0.2699  0.4944
  968MOL0     C27670   2.825   5.811  12.638 -0.6395  1.0728 -1.2878
  968MOL0     C27671   2.695   5.873  12.665 -0.8987 -0.6551  0.4919
  968MOL0     C27672   2.584   5.796  12.710  0.3484 -0.1196  0.7251
  968MOL0     C27673   2.452   5.855  12.723 -0.1740  1.1019  0.2981
  968MOL0     O27674   2.368   5.793  12.803  0.1376 -0.6306  0.6523
  968MOL0     C27675   2.240   5.823  12.791  0.1319 -0.4254  0.0922
  968MOL0     C27676   2.154   5.724  12.747  0.6810  1.0753  0.1176
  968MOL0     C27677   2.016   5.741  12.746  0.3758 -0.3687  0.8844
  968MOL0     C27678   1.965   5.867  12.775  0.7323 -0.2517 -0.2978
  968MOL0     O27679   1.831   5.906  12.768  0.6718 -0.1418 -0.4928
  968MOL0     C27680   1.729   5.811  12.781  0.1903 -0.1500 -0.3719
  968MOL0     C27681   1.590   5.885  12.767  0.3846 -0.1656 -0.0974
  968MOL0     C27682   1.466   5.810  12.817 -0.7496  0.1633 -0.3650
  968MOL0     C27683   1.346   5.903  12.843  0.6017 -0.1400 -0.0640
  968MOL0     C27684   1.215   5.827  12.888 -0.1701  0.5560 -0.3056
  968MOL0     C27685   1.091   5.924  12.886  0.8782  0.3010  0.7338
  968MOL0     C27686   0.972   5.853  12.952  0.8711  0.0242 -0.7758
  968MOL0     C27687   0.892   5.948  13.040  0.2185  1.2018  0.5759
  968MOL0    Cl27688   0.790   6.045  12.932  0.0814 -0.1403 -0.6150
  968MOL0     C27689   2.051   5.971  12.807 -0.2042 -0.5624  0.1536
  968MOL0     C27690   2.187   5.951  12.816  1.3672 -0.0259 -0.1600
  968MOL0     O27691   2.431   5.954  12.653  0.1718  0.2950 -0.7045
  968MOL0     C27692   2.608   5.657  12.739  0.1482  0.9616  0.1273
  968MOL0     C27693   2.734   5.598  12.715 -0.0535 -0.7444  0.4374
  968MOL0     N27694   3.675   5.680  12.571 -0.6503  0.5660  0.1468
  968MOL0     N27695   3.769   5.662  12.474 -0.2821 -1.0572 -0.2739
  968MOL0     C27696   4.162   5.187  11.515 -0.9053 -0.3381  0.8235
  968MOL0     C27697   4.062   5.250  11.437  0.1195 -0.6093 -0.6440
  968MOL0     C27698   3.716   5.381  11.171 -0.0211 -0.6781 -0.6030
  968MOL0     C27699   3.740   5.458  11.054  0.8246  1.0663  0.3587
  968MOL0     C27700   3.633   5.490  10.972  0.9259 -0.0367 -0.3615
  968MOL0     C27701   3.505   5.446  11.002 -0.2380  0.7969 -0.7042
  968MOL0     O27702   3.402   5.491  10.916 -0.6932 -0.1198 -0.5057
  968MOL0     C27703   3.272   5.486  10.964  0.5544  0.1369  0.4322
  968MOL0     C27704   3.247   5.599  11.068  0.4571 -0.3488 -0.0548
  968MOL0     C27705   3.096   5.614  11.101 -0.6919  0.0785  0.1796
  968MOL0     C27706   3.017   5.494  11.164  0.0875  0.7160  0.1338
  968MOL0     C27707   2.985   5.394  11.064  0.3867  0.3236 -0.1753
  968MOL0     C27708   2.960   5.300  10.988  0.3710 -0.1960 -0.1635
  968MOL0     C27709   3.486   5.360  11.112 -0.0394 -0.4057 -0.8361
  968MOL0     C27710   3.591   5.322  11.197 -0.7426 -0.5854  0.4669
  968MOL0     H27711   3.790   5.094  11.558  1.6912 -0.5086 -2.9291
  968MOL0     H27712   3.965   5.032  11.736  1.5303  3.9259  2.8919
  968MOL0     H27713   4.311   4.909  11.791  2.0266  3.7830 -1.1910
  968MOL0     H27714   4.132   4.913  11.784  0.3549 -1.3951  3.9762
  968MOL0     H27715   4.321   5.108  11.952 -0.5361 -1.2615  3.5829
  968MOL0     H27716   4.231   4.960  12.012  1.3350 -0.3163 -0.1962
  968MOL0     H27717   4.028   5.072  11.966  0.8518 -0.7040  0.1602
  968MOL0     H27718   4.089   5.220  11.904 -0.2693  1.7191  2.2135
  968MOL0     H27719   4.129   5.115  12.189 -1.3262 -1.1057 -1.4265
  968MOL0     H27720   4.204   5.261  12.122 -0.7394  1.3821  1.0671
  968MOL0     H27721   3.898   5.220  12.148 -0.9412  1.2727  1.9895
  968MOL0     H27722   3.975   5.364  12.087  0.6587 -0.8444 -3.6485
  968MOL0     H27723   4.086   5.374  12.329  0.6224  0.0952  0.7048
  968MOL0     H27724   4.014   5.213  12.356  3.8398  0.0534 -1.4056
  968MOL0     H27725   3.790   5.304  12.384 -1.2067  1.9838  0.4427
  968MOL0     H27726   3.903   5.399  12.478 -2.5263  0.8318  0.2537
  968MOL0     H27727   3.732   5.436  12.232  0.9044 -1.7875  0.4938
  968MOL0     H27728   3.869   5.551  12.241 -1.1260  0.0875 -1.3489
  968MOL0     H27729   3.564   5.422  12.388 -0.2538  1.6329 -2.3545
  968MOL0     H27730   3.456   5.592  12.732  2.0011  0.8192 -0.3595
  968MOL0     H27731   3.409   5.468  12.605  2.0773 -0.6799 -2.0051
  968MOL0     H27732   3.347   5.657  12.456  3.4170  3.9613 -0.0041
  968MOL0     H27733   3.350   5.762  12.598  1.6997  0.1077 -2.5529
  968MOL0     H27734   3.187   5.493  12.604 -1.3526 -0.6460  3.1758
  968MOL0     H27735   3.217   5.608  12.736  0.6603  0.3362 -0.7232
  968MOL0     H27736   3.070   5.688  12.488 -1.1013 -0.4119  0.1991
  968MOL0     H27737   3.091   5.773  12.646  2.8816 -1.2754  0.4573
  968MOL0     H27738   2.914   5.870  12.618  1.2118 -0.6207  1.2736
  968MOL0     H27739   2.682   5.980  12.651 -1.4693 -0.9793 -1.7658
  968MOL0     H27740   2.191   5.624  12.727 -1.5968  0.7152 -3.3474
  968MOL0     H27741   1.958   5.661  12.702  1.0623  0.9166 -2.7169
  968MOL0     H27742   1.748   5.780  12.884  0.4038  2.7259  0.5599
  968MOL0     H27743   1.729   5.736  12.702 -0.0602  1.4592 -1.9534
  968MOL0     H27744   1.578   5.911  12.661 -2.1581  1.8106  0.5633
  968MOL0     H27745   1.598   5.980  12.822  0.8960  0.7662 -1.7079
  968MOL0     H27746   1.494   5.763  12.911  4.2283  4.0981  0.5865
  968MOL0     H27747   1.439   5.741  12.736  2.5393  0.6491 -2.0686
  968MOL0     H27748   1.366   5.980  12.918  0.2544 -0.3934  0.2974
  968MOL0     H27749   1.318   5.935  12.742 -4.0000 -2.3512  0.2180
  968MOL0     H27750   1.231   5.786  12.988 -2.4761  0.6566  0.1461
  968MOL0     H27751   1.181   5.752  12.816 -0.2445  1.8192 -1.6303
  968MOL0     H27752   1.060   5.967  12.790 -0.4731 -1.7053  0.2201
  968MOL0     H27753   1.113   6.009  12.951  3.3551  1.3780 -1.3483
  968MOL0     H27754   0.909   5.807  12.875  2.0240  2.7050 -3.4936
  968MOL0     H27755   1.009   5.767  13.009 -1.1223 -1.4719 -1.5938
  968MOL0     H27756   0.958   6.021  13.087 -0.2366  1.7849  0.3134
  968MOL0     H27757   0.821   5.899  13.107  0.4369  1.4188  0.9674
  968MOL0     H27758   2.014   6.070  12.832 -2.0120 -1.0786 -0.3320
  968MOL0     H27759   2.253   6.031  12.848  0.6883 -0.0551  1.3712
  968MOL0     H27760   2.530   5.591  12.776 -0.0959 -0.5694 -2.8262
  968MOL0     H27761   2.754   5.492  12.733  0.7495 -0.0761  4.7146
  968MOL0     H27762   4.268   5.204  11.500 -1.2661  1.8595  0.3742
  968MOL0     H27763   4.094   5.331  11.373 -1.5148  1.3283  0.8468
  968MOL0     H27764   3.837   5.493  11.023  0.7862 -1.2807 -2.9097
  968MOL0     H27765   3.625   5.548  10.881 -5.4723 -0.0231 -0.2663
  968MOL0     H27766   3.244   5.390  11.009 -0.4795 -0.2093 -0.8960
  968MOL0     H27767   3.210   5.502  10.876  1.2604 -0.8159 -0.2662
  968MOL0     H27768   3.301   5.577  11.161  0.2140 -3.9511 -0.6414
  968MOL0     H27769   3.283   5.692  11.021 -1.0337  0.3461  0.1189
  968MOL0     H27770   3.043   5.650  11.013  1.0132  0.7755 -0.6142
  968MOL0     H27771   3.103   5.695  11.174 -0.4062 -0.5752  0.8862
  968MOL0     H27772   3.083   5.452  11.241 -1.3138 -3.2759 -0.5962
  968MOL0     H27773   2.924   5.529  11.209 -0.2543  0.8425 -0.6665
  968MOL0     H27774   2.936   5.228  10.913  0.8265 -0.1125 -0.3949
  968MOL0     H27775   3.389   5.325  11.145  1.9882 -3.6915  2.4543
  968MOL0     H27776   3.569   5.269  11.289 -2.5180 -0.7606 -0.0218
  969MOL0     O27777   5.199  10.145   8.205  0.1243 -0.8261 -0.4317
  969MOL0     C27778   5.239  10.170   8.087 -0.2457  0.2482 -0.6161
  969MOL0     O27779   5.359  10.228   8.051  0.0912 -0.0902  0.0898
  969MOL0     C27780   5.453  10.246   8.146  0.4604 -1.0591 -0.4212
  969MOL0     C27781   5.494  10.134   8.227 -0.2058  0.2981 -0.1144
  969MOL0     C27782   5.609  10.134   8.305 -0.0434  0.4647 -0.0718
  969MOL0     C27783   5.699  10.242   8.292  0.5043 -0.4698  0.4485
  969MOL0     O27784   5.821  10.217   8.347  0.8847  0.2754  0.1108
  969MOL0     C27785   5.933  10.289   8.310  0.0481 -0.3123  0.2092
  969MOL0     C27786   6.034  10.302   8.415  1.0321  0.1821  0.2611
  969MOL0     C27787   6.161  10.341   8.354  0.3294 -0.7790  0.1770
  969MOL0     C27788   6.254  10.368   8.476 -0.8371  0.3582  0.3647
  969MOL0     C27789   6.390  10.405   8.418 -0.3248 -0.4599  0.1263
  969MOL0     C27790   6.479  10.448   8.529  0.0696  0.8377 -1.0345
  969MOL0     C27791   6.626  10.443   8.482 -0.8218 -0.1265  0.1413
  969MOL0     C27792   6.680  10.301   8.506  0.3176  0.9373 -1.1733
  969MOL0     N27793   6.820  10.298   8.452 -0.2094 -0.2663  0.0060
  969MOL0     C27794   6.844  10.300   8.318  0.5496 -0.4668  0.9877
  969MOL0     C27795   6.978  10.331   8.306 -0.0886 -0.0045 -0.4619
  969MOL0     C27796   7.052  10.348   8.171  0.0063  0.4301  0.0101
  969MOL0     C27797   7.128  10.229   8.108 -0.2473  0.4489  0.5393
  969MOL0     C27798   7.268  10.220   8.169  0.2585  0.6022 -0.3842
  969MOL0     C27799   7.346  10.098   8.113  0.1931 -0.1341 -0.1342
  969MOL0     O27800   7.390  10.111   7.979 -0.1350 -0.0064 -0.1858
  969MOL0     C27801   7.498  10.036   7.940 -0.4641 -0.5952 -0.0956
  969MOL0     C27802   7.568  10.066   7.818  0.0543 -0.7309  0.1677
  969MOL0     C27803   7.685   9.995   7.795 -0.0021  0.1596  0.9410
  969MOL0     C27804   7.745   9.907   7.885  0.0866 -0.7588  0.4701
  969MOL0     C27805   7.866   9.828   7.861 -0.5244  0.4794 -0.2834
  969MOL0     O27806   7.926   9.776   7.971 -0.8034 -0.6457  0.0412
  969MOL0     C27807   8.017   9.675   7.955  0.4008 -1.2563 -0.6299
  969MOL0     C27808   8.136   9.689   8.027 -0.3462 -0.5893 -0.0520
  969MOL0     C27809   8.237   9.593   8.014  0.1436 -0.2043  0.3001
  969MOL0     C27810   8.209   9.477   7.935 -0.3229 -0.7368 -0.4705
  969MOL0     O27811   8.307   9.388   7.903 -0.4337 -0.1732 -0.2712
  969MOL0     C27812   8.447   9.437   7.905 -0.5886 -0.7410 -1.1211
  969MOL0     C27813   8.528   9.336   7.838 -0.1622 -0.5669  1.2486
  969MOL0     C27814   8.688   9.358   7.854 -0.1521  0.4484  0.4420
  969MOL0     C27815   8.759   9.216   7.838 -0.1247 -0.8085  0.9410
  969MOL0     C27816   8.910   9.215   7.890  0.5035 -0.6203 -0.8763
  969MOL0     C27817   8.987   9.099   7.820  0.3693 -0.9304 -0.7292
  969MOL0     C27818   9.136   9.127   7.844 -0.3437  0.5106  0.5991
  969MOL0     C27819   9.217   9.001   7.798 -0.7222  0.1225 -0.3353
  969MOL0    Cl27820   9.386   9.045   7.761  0.2919  0.0032  0.0650
  969MOL0     C27821   8.094   9.461   7.862 -0.1149 -0.5130 -0.4734
  969MOL0     C27822   7.991   9.557   7.876  0.1812 -0.0054  0.7102
  969MOL0     O27823   7.893   9.799   7.743 -0.5573  0.1170  0.1990
  969MOL0     C27824   7.669   9.877   8.006 -0.7008 -1.0533  0.3455
  969MOL0     C27825   7.547   9.936   8.029 -0.1491 -0.3324  0.6656
  969MOL0     N27826   7.030  10.343   8.433  0.4678 -0.4150 -0.1406
  969MOL0     N27827   6.940  10.318   8.517 -0.2075  0.0065 -0.4230
  969MOL0     C27828   5.667  10.351   8.198  0.0149  0.0944  0.4566
  969MOL0     C27829   5.541  10.353   8.130 -0.7636 -0.3735 -0.3319
  969MOL0     C27830   5.148  10.137   7.984 -0.3347 -0.5627  0.2419
  969MOL0     C27831   5.167  10.197   7.856  0.0550 -0.2717 -0.1832
  969MOL0     C27832   5.081  10.160   7.751 -0.1601  0.0727  0.2157
  969MOL0     C27833   4.963  10.090   7.780  0.3929 -0.0350  0.5867
  969MOL0     O27834   4.857  10.081   7.691  0.3088 -0.1806  0.7694
  969MOL0     C27835   4.835  10.182   7.596  0.1015 -1.0584 -0.2532
  969MOL0     C27836   4.780  10.315   7.653 -0.5605 -0.0363  0.4573
  969MOL0     C27837   4.751  10.425   7.542 -0.1773  0.6454 -0.8875
  969MOL0     C27838   4.654  10.383   7.429 -0.6155 -0.5165  0.1555
  969MOL0     C27839   4.513  10.388   7.463 -0.0105  0.1485 -0.2093
  969MOL0     C27840   4.395  10.361   7.492 -0.9910 -0.4059 -0.2422
  969MOL0     C27841   4.937  10.033   7.908 -0.2424 -0.7345  0.5180
  969MOL0     C27842   5.037  10.045   8.002 -0.8566  0.5016  0.4175
  969MOL0     H27843   5.438  10.041   8.220  0.2906  0.0815 -1.9894
  969MOL0     H27844   5.622  10.056   8.379 -1.1517  2.1232  1.9589
  969MOL0     H27845   5.913  10.388   8.268 -0.6104 -1.4453 -2.3331
  969MOL0     H27846   5.974  10.234   8.225 -0.5031 -1.1563  0.4794
  969MOL0     H27847   6.050  10.211   8.473  2.5345  0.3887  0.2143
  969MOL0     H27848   5.998  10.375   8.488  0.5394 -0.3945  0.6069
  969MOL0     H27849   6.148  10.434   8.299 -0.9708 -1.7614 -1.2659
  969MOL0     H27850   6.206  10.269   8.286  1.2370  0.6207 -0.7411
  969MOL0     H27851   6.232  10.461   8.530  1.7775  0.4696  1.4276
  969MOL0     H27852   6.263  10.286   8.548  1.2116 -0.4595 -0.7354
  969MOL0     H27853   6.370  10.495   8.358 -0.8984 -0.7076 -0.0662
  969MOL0     H27854   6.432  10.331   8.349 -0.5528 -0.7227  0.2680
  969MOL0     H27855   6.471  10.380   8.614  3.5310 -1.5899 -2.4358
  969MOL0     H27856   6.441  10.544   8.564  0.5088  1.1871 -1.4971
  969MOL0     H27857   6.618  10.465   8.375 -1.6880  0.4779  0.3238
  969MOL0     H27858   6.696  10.511   8.533  2.6222 -2.5100 -0.9930
  969MOL0     H27859   6.627  10.226   8.446  1.6802 -0.5908 -0.5592
  969MOL0     H27860   6.685  10.278   8.613 -0.4071  1.5276 -1.0080
  969MOL0     H27861   6.773  10.282   8.238 -2.8254  0.0775  3.6005
  969MOL0     H27862   7.123  10.430   8.181 -0.3017  0.5922  0.9160
  969MOL0     H27863   6.985  10.392   8.096 -0.3028 -1.7469 -1.0655
  969MOL0     H27864   7.135  10.247   8.000 -0.9075 -1.5490  0.1276
  969MOL0     H27865   7.071  10.136   8.117  2.7061 -1.8020 -1.8682
  969MOL0     H27866   7.328  10.311   8.154  2.9904 -0.8952  0.7206
  969MOL0     H27867   7.254  10.206   8.276  1.0316  1.1877 -0.1938
  969MOL0     H27868   7.280  10.011   8.120  0.0491  0.0932  2.4882
  969MOL0     H27869   7.430  10.089   8.183 -1.9816 -1.7723  2.4627
  969MOL0     H27870   7.536  10.144   7.750 -1.3932 -1.1031  0.4033
  969MOL0     H27871   7.752  10.019   7.713  0.8238  1.5745  1.9784
  969MOL0     H27872   8.155   9.778   8.086  2.7600 -0.5566 -0.9248
  969MOL0     H27873   8.329   9.603   8.072  0.6655  3.0561 -0.8562
  969MOL0     H27874   8.465   9.447   8.012 -2.2764 -0.2456 -0.8509
  969MOL0     H27875   8.469   9.534   7.859 -1.1601 -0.5793 -1.0704
  969MOL0     H27876   8.494   9.344   7.735  2.4141 -3.2872  0.0401
  969MOL0     H27877   8.505   9.240   7.885 -2.7121  0.3718  2.1192
  969MOL0     H27878   8.700   9.409   7.951 -2.4256  0.0936  0.9583
  969MOL0     H27879   8.715   9.427   7.773 -1.7955 -0.1749 -0.6918
  969MOL0     H27880   8.701   9.142   7.893  0.2643 -0.0904  2.3917
  969MOL0     H27881   8.757   9.193   7.731  0.0567 -1.4529  1.0763
  969MOL0     H27882   8.913   9.210   7.999  0.8685 -1.9994 -0.9307
  969MOL0     H27883   8.947   9.312   7.858 -0.6369  1.3785  3.2129
  969MOL0     H27884   8.970   9.092   7.712 -0.1569 -1.7625 -0.6053
  969MOL0     H27885   8.968   9.001   7.866 -1.8092 -0.8532 -1.3765
  969MOL0     H27886   9.174   9.212   7.787  0.6782  0.0498  0.5687
  969MOL0     H27887   9.155   9.147   7.950 -0.6459 -1.3746  1.0480
  969MOL0     H27888   9.174   8.965   7.704  1.6751 -0.1011 -1.4033
  969MOL0     H27889   9.214   8.917   7.868 -2.2273  0.7811  0.4450
  969MOL0     H27890   8.073   9.370   7.806 -2.0690  0.0110 -0.6591
  969MOL0     H27891   7.912   9.526   7.808  1.7018 -0.6105 -0.8364
  969MOL0     H27892   7.702   9.821   8.093  1.7293 -0.7645 -0.3105
  969MOL0     H27893   7.487   9.896   8.110  0.8402 -2.8390  0.2701
  969MOL0     H27894   5.734  10.431   8.168  1.6848 -0.6366  2.0767
  969MOL0     H27895   5.520  10.426   8.052  0.1504  0.1118 -0.1380
  969MOL0     H27896   5.254  10.260   7.838 -0.4781 -0.1257 -2.6165
  969MOL0     H27897   5.112  10.206   7.658  1.9529  1.4267  1.4925
  969MOL0     H27898   4.759  10.138   7.530  0.3879  0.6974 -1.8673
  969MOL0     H27899   4.922  10.194   7.531  0.0370  1.6339  0.0539
  969MOL0     H27900   4.687  10.296   7.707 -0.4727  3.5398  2.1614
  969MOL0     H27901   4.851  10.364   7.720 -0.9762  3.5656 -1.4846
  969MOL0     H27902   4.842  10.450   7.488  0.9477  0.8350  1.0326
  969MOL0     H27903   4.714  10.516   7.590 -2.4260 -1.1120  0.9597
  969MOL0     H27904   4.677  10.448   7.344  1.0350 -0.2422  0.7828
  969MOL0     H27905   4.670  10.280   7.397 -1.4258 -1.3662  2.2898
  969MOL0     H27906   4.298  10.329   7.523 -1.4969  1.9681  0.8788
  969MOL0     H27907   4.849   9.974   7.932 -2.6053  1.5198 -1.8993
  969MOL0     H27908   5.021  10.009   8.104 -0.1264  2.6228  1.3256
  970MOL0     O27909   6.611  10.371   8.843 -0.2328 -0.2421  1.2406
  970MOL0     C27910   6.620  10.494   8.873 -0.1524 -0.8030  0.4137
  970MOL0     O27911   6.514  10.578   8.902  0.3248  0.2114  0.4476
  970MOL0     C27912   6.382  10.566   8.863 -0.0932  0.7379 -0.4956
  970MOL0     C27913   6.329  10.646   8.762  0.4013 -0.6387 -0.8212
  970MOL0     C27914   6.188  10.636   8.731 -0.9550  0.0479 -0.6663
  970MOL0     C27915   6.104  10.535   8.789 -0.3063  0.3343  0.4625
  970MOL0     O27916   5.971  10.526   8.750 -0.2199  0.2688  0.1607
  970MOL0     C27917   5.886  10.426   8.806 -0.6105  0.3496  0.2373
  970MOL0     C27918   5.741  10.413   8.742  0.0644 -0.2102 -0.2400
  970MOL0     C27919   5.657  10.316   8.822 -0.6355  0.2317  0.5927
  970MOL0     C27920   5.600  10.382   8.943 -0.0470 -0.1201 -0.5208
  970MOL0     C27921   5.485  10.295   8.982  0.4186  0.4748 -0.0243
  970MOL0     C27922   5.425  10.346   9.112  0.2557 -0.1559 -0.8247
  970MOL0     C27923   5.319  10.257   9.171 -0.5085  0.9961  0.1326
  970MOL0     C27924   5.367  10.115   9.217 -1.2931  0.3125  0.0446
  970MOL0     N27925   5.281  10.042   9.313 -0.2805  0.3041 -0.3131
  970MOL0     C27926   5.177   9.965   9.275  0.2577  0.3179 -0.1287
  970MOL0     C27927   5.142   9.888   9.380 -0.0674  0.2948 -0.4842
  970MOL0     C27928   5.030   9.785   9.393 -0.0877  0.6130  0.0370
  970MOL0     C27929   4.921   9.805   9.295  0.2171  0.2841 -0.1207
  970MOL0     C27930   4.852   9.943   9.308 -0.0663  0.4753 -0.3046
  970MOL0     C27931   4.709   9.929   9.242 -0.2039  0.8263  0.5962
  970MOL0     O27932   4.727   9.886   9.099  0.6067  0.1278 -0.3647
  970MOL0     C27933   4.617   9.925   9.023 -0.4152  0.0434  0.7483
  970MOL0     C27934   4.639   9.992   8.897  0.7324  0.9492 -0.4732
  970MOL0     C27935   4.530  10.003   8.810 -0.4365  0.4464  0.1062
  970MOL0     C27936   4.401   9.977   8.845 -0.1047 -0.0766 -0.8357
  970MOL0     C27937   4.292  10.009   8.755  0.5202 -0.2769  0.1859
  970MOL0     O27938   4.167   9.985   8.804 -0.1030 -0.1764 -0.4378
  970MOL0     C27939   4.051  10.001   8.730  0.2707 -0.1495 -0.3962
  970MOL0     C27940   4.030   9.975   8.590 -0.6363  0.0556  0.0123
  970MOL0     C27941   3.910   9.996   8.534 -0.4280  0.1046  0.6846
  970MOL0     C27942   3.803  10.040   8.607  0.3080  0.5060  0.1265
  970MOL0     O27943   3.687  10.061   8.535 -0.6829 -0.2241 -0.5495
  970MOL0     C27944   3.593  10.159   8.582  0.0209  0.5928  1.3684
  970MOL0     C27945   3.490  10.101   8.688 -0.4225  0.0946  0.2666
  970MOL0     C27946   3.421  10.218   8.773  0.7600 -1.4841  0.0801
  970MOL0     C27947   3.322  10.165   8.878 -0.0901  0.6218 -0.6345
  970MOL0     C27948   3.198  10.259   8.907 -0.5487  0.6542 -0.0384
  970MOL0     C27949   3.242  10.395   8.955  0.5076 -0.4281 -0.3193
  970MOL0     C27950   3.149  10.507   8.910 -0.3862 -0.1344  0.0687
  970MOL0     C27951   3.206  10.651   8.921 -0.3374  0.2024 -0.3202
  970MOL0    Cl27952   3.114  10.757   8.828  0.1995 -0.0445 -0.0576
  970MOL0     C27953   3.820  10.076   8.746  0.2204  0.3983  0.2303
  970MOL0     C27954   3.941  10.048   8.802  0.6938 -0.8225  1.0390
  970MOL0     O27955   4.312  10.052   8.636 -0.7911  0.4991 -0.3806
  970MOL0     C27956   4.375   9.919   8.972 -0.5463  1.1894  0.3427
  970MOL0     C27957   4.488   9.880   9.054 -0.4060 -0.3204  0.6880
  970MOL0     N27958   5.233   9.928   9.480  0.3537 -0.0358 -0.9878
  970MOL0     N27959   5.312  10.010   9.437  0.2460 -0.7704  0.4737
  970MOL0     C27960   6.161  10.452   8.885 -0.6457 -0.5489  0.4417
  970MOL0     C27961   6.300  10.469   8.916 -0.2445  0.7759 -0.1432
  970MOL0     C27962   6.758  10.552   8.901 -0.1402  1.0262  0.1132
  970MOL0     C27963   6.765  10.674   8.959  0.1286 -0.6966 -0.8353
  970MOL0     C27964   6.895  10.731   8.979 -0.0144 -0.1613  0.2384
  970MOL0     C27965   7.007  10.674   8.918 -0.5229  0.0512  0.3353
  970MOL0     O27966   7.133  10.730   8.922  0.0756 -0.2424 -0.1132
  970MOL0     C27967   7.130  10.876   8.891 -0.0069  0.9311 -1.2601
  970MOL0     C27968   7.273  10.912   8.860  0.0212  0.3322 -0.7042
  970MOL0     C27969   7.387  10.868   8.955 -0.6017  0.1538  0.3988
  970MOL0     C27970   7.514  10.955   8.971  0.0751  0.4558 -0.1450
  970MOL0     C27971   7.590  10.987   8.853 -0.2575 -1.3789  0.3399
  970MOL0     C27972   7.676  11.014   8.771  0.5521 -0.1936 -0.1760
  970MOL0     C27973   7.001  10.540   8.868  0.2391 -0.7175  0.6559
  970MOL0     C27974   6.870  10.480   8.857 -0.1574  0.5969 -0.8151
  970MOL0     H27975   6.396  10.708   8.704 -0.3632 -0.8386 -1.9456
  970MOL0     H27976   6.146  10.699   8.653 -0.1410  2.7312  0.9410
  970MOL0     H27977   5.875  10.438   8.914 -2.1307  0.2860  0.1232
  970MOL0     H27978   5.939  10.333   8.783  0.1932  1.0096 -0.6100
  970MOL0     H27979   5.751  10.378   8.639  0.6101 -2.7426  0.6119
  970MOL0     H27980   5.697  10.513   8.743 -2.7420 -1.3514  1.0184
  970MOL0     H27981   5.709  10.222   8.844 -4.7170 -3.0839 -2.2823
  970MOL0     H27982   5.580  10.278   8.755 -1.0449  0.6730  0.8068
  970MOL0     H27983   5.676  10.399   9.020 -0.6703  1.3087 -0.1872
  970MOL0     H27984   5.565  10.484   8.923 -3.2190 -0.5898  1.8642
  970MOL0     H27985   5.523  10.194   8.998 -1.7669 -0.5027 -0.6048
  970MOL0     H27986   5.413  10.305   8.900 -0.9563 -0.4367  1.0092
  970MOL0     H27987   5.375  10.442   9.095 -0.5969 -0.5154 -0.4110
  970MOL0     H27988   5.506  10.362   9.184  0.3140 -0.9228 -0.7074
  970MOL0     H27989   5.265  10.303   9.254 -0.2876  1.3980  0.0565
  970MOL0     H27990   5.243  10.251   9.093 -0.4181  1.1196  0.0353
  970MOL0     H27991   5.462  10.123   9.272 -1.4976  0.6174  0.3554
  970MOL0     H27992   5.391  10.053   9.130  2.5809  0.2182  0.9983
  970MOL0     H27993   5.128   9.952   9.179 -0.8731  1.3832  0.2759
  970MOL0     H27994   4.992   9.774   9.495  1.0008 -0.7593  0.3308
  970MOL0     H27995   5.080   9.689   9.375  0.3162  0.9016 -0.4303
  970MOL0     H27996   4.863   9.715   9.317  0.4856  0.7409  2.7565
  970MOL0     H27997   4.963   9.796   9.194  1.2453  2.5872  0.0368
  970MOL0     H27998   4.845   9.982   9.410 -1.7185  0.6105 -0.4466
  970MOL0     H27999   4.912  10.019   9.257 -0.1301 -0.0304 -1.1402
  970MOL0     H28000   4.655  10.024   9.238 -2.1203 -0.2567 -1.2400
  970MOL0     H28001   4.648   9.848   9.282 -3.1391  1.1705 -2.6947
  970MOL0     H28002   4.739  10.015   8.862  0.4839  1.3634 -0.9297
  970MOL0     H28003   4.543  10.033   8.706  2.4409 -2.0289 -0.3969
  970MOL0     H28004   4.115   9.949   8.528 -0.3201  1.4970 -0.2001
  970MOL0     H28005   3.898   9.968   8.430  1.0101 -0.2981  0.6073
  970MOL0     H28006   3.546  10.208   8.497  0.3816  0.1925  0.9325
  970MOL0     H28007   3.650  10.238   8.632 -1.2214  1.2383  1.7957
  970MOL0     H28008   3.544  10.037   8.759 -0.6970 -0.7583 -0.2825
  970MOL0     H28009   3.410  10.038   8.648 -1.0728  0.3610  1.1282
  970MOL0     H28010   3.371  10.298   8.716  1.9004  0.9029  2.2216
  970MOL0     H28011   3.504  10.270   8.822 -1.1004 -1.1814  3.2012
  970MOL0     H28012   3.279  10.073   8.838 -1.3282  0.8526  0.1293
  970MOL0     H28013   3.378  10.137   8.968  2.2491  2.6644 -1.3320
  970MOL0     H28014   3.143  10.205   8.984  1.1404  1.9918  2.2310
  970MOL0     H28015   3.148  10.266   8.810  0.7707 -0.7575 -0.8822
  970MOL0     H28016   3.344  10.424   8.926  1.3182 -0.0171  2.6261
  970MOL0     H28017   3.236  10.399   9.064 -1.2756  1.7837 -0.4237
  970MOL0     H28018   3.115  10.499   8.806  1.9185 -2.4010 -0.6084
  970MOL0     H28019   3.060  10.502   8.974 -1.3037  3.7892 -0.6385
  970MOL0     H28020   3.306  10.647   8.877 -0.6248 -1.3070 -0.9186
  970MOL0     H28021   3.221  10.682   9.024 -1.9492 -2.0092  0.6619
  970MOL0     H28022   3.735  10.121   8.796  0.0582  2.3585 -1.6723
  970MOL0     H28023   3.962  10.075   8.905 -0.0634 -0.2972  1.0643
  970MOL0     H28024   4.278   9.884   9.006 -0.5533 -0.2905 -1.0654
  970MOL0     H28025   4.467   9.826   9.146 -2.3063  2.0362  1.7351
  970MOL0     H28026   6.099  10.379   8.936 -1.8790  0.7245  0.8507
  970MOL0     H28027   6.340  10.397   8.987  1.3655  2.0496  0.3309
  970MOL0     H28028   6.674  10.718   9.000 -0.2491 -2.2616  0.1155
  970MOL0     H28029   6.891  10.827   9.030  4.3169  1.2571 -1.6016
  970MOL0     H28030   7.098  10.928   8.982  3.1934  2.2409 -0.7464
  970MOL0     H28031   7.057  10.890   8.811 -2.5524 -2.1302  0.2902
  970MOL0     H28032   7.292  10.849   8.772  1.2586  0.3540 -0.4623
  970MOL0     H28033   7.272  11.020   8.844 -2.3134  0.3857 -0.6169
  970MOL0     H28034   7.425  10.775   8.912  1.6360  1.6300 -1.0404
  970MOL0     H28035   7.336  10.851   9.050  0.4500  0.8116  1.1086
  970MOL0     H28036   7.482  11.053   9.007  0.1215 -0.0052  1.1989
  970MOL0     H28037   7.580  10.911   9.046 -0.9126 -0.0576  0.4505
  970MOL0     H28038   7.739  11.030   8.685  0.9733 -1.8265 -0.2006
  970MOL0     H28039   7.093  10.496   8.830  1.8783  2.6491  0.3698
  970MOL0     H28040   6.857  10.389   8.800 -2.8659 -0.2969  1.0376
  971MOL0     O28041   1.966   9.255   8.008  0.3334 -0.1956  0.2696
  971MOL0     C28042   1.999   9.348   7.942 -0.1880 -0.6881 -0.2880
  971MOL0     O28043   1.921   9.410   7.845 -0.5948  0.8518  0.4350
  971MOL0     C28044   1.810   9.349   7.793  0.2904 -0.9808 -0.2972
  971MOL0     C28045   1.695   9.330   7.864 -0.0170 -0.4908 -0.1319
  971MOL0     C28046   1.578   9.282   7.808 -0.2627  0.0113 -0.1786
  971MOL0     C28047   1.581   9.234   7.681 -0.6572 -0.1376 -0.1369
  971MOL0     O28048   1.476   9.176   7.613 -0.0007 -0.4241  0.1919
  971MOL0     C28049   1.365   9.137   7.690  0.2963 -0.1476  0.3067
  971MOL0     C28050   1.281   9.036   7.622  0.7928 -0.1109 -0.5406
  971MOL0     C28051   1.177   8.984   7.717  0.1332  0.1348 -0.3214
  971MOL0     C28052   1.073   8.895   7.646  0.0777 -0.3460  0.3754
  971MOL0     C28053   0.997   8.808   7.758  0.1319  0.6732 -0.0951
  971MOL0     C28054   0.935   8.686   7.686 -0.0794 -0.2135 -0.2274
  971MOL0     C28055   1.032   8.565   7.663 -0.5286  0.2964 -0.2359
  971MOL0     C28056   0.994   8.477   7.556 -1.1840  0.6869 -0.2863
  971MOL0     N28057   0.880   8.389   7.599 -0.2320  1.1462 -0.1563
  971MOL0     C28058   0.894   8.298   7.698 -0.6068  0.0958  0.2373
  971MOL0     C28059   0.774   8.230   7.693 -0.1645 -0.1986  0.7359
  971MOL0     C28060   0.752   8.130   7.802 -0.7672 -0.3525  0.5451
  971MOL0     C28061   0.613   8.064   7.796  0.3553  0.4231  0.4803
  971MOL0     C28062   0.579   7.964   7.686  0.2703 -0.2729 -0.3350
  971MOL0     C28063   0.437   7.904   7.691  0.3794 -0.3404 -0.1723
  971MOL0     O28064   0.442   7.772   7.635  0.4857 -0.1983  0.0782
  971MOL0     C28065   0.342   7.681   7.653  0.4133 -0.2546  0.3516
  971MOL0     C28066   0.373   7.547   7.626  0.5868 -0.9226 -0.1137
  971MOL0     C28067   0.269   7.456   7.620  0.2415 -0.4805 -1.2106
  971MOL0     C28068   0.132   7.487   7.640  0.3039 -0.3266 -0.2385
  971MOL0     C28069   0.016   7.397   7.642 -0.1584  0.4221  0.4667
  971MOL0     O28070  -0.111   7.451   7.648  0.1043 -0.0999  0.3396
  971MOL0     C28071  -0.230   7.382   7.659 -0.7576 -0.6392  0.6734
  971MOL0     C28072  -0.234   7.256   7.718 -0.0220  0.0341 -0.7898
  971MOL0     C28073  -0.356   7.186   7.720  0.3701 -0.0754  0.5740
  971MOL0     C28074  -0.473   7.243   7.662 -0.2374  0.5616  0.0877
  971MOL0     O28075  -0.581   7.170   7.639 -0.0369 -0.1114 -0.3820
  971MOL0     C28076  -0.671   7.179   7.750  0.3578  0.9209  0.7435
  971MOL0     C28077  -0.791   7.095   7.699 -0.6481  0.6449  0.4089
  971MOL0     C28078  -0.879   7.055   7.819  0.2123  0.2229 -0.4903
  971MOL0     C28079  -1.010   6.986   7.771 -0.6676  0.3868  0.3883
  971MOL0     C28080  -1.097   6.938   7.894  1.0686 -0.1057  0.3582
  971MOL0     C28081  -1.237   6.901   7.855  0.2045 -0.4414 -0.8644
  971MOL0     C28082  -1.344   6.882   7.980 -0.3775  0.0660  0.7944
  971MOL0     C28083  -1.345   7.015   8.058 -0.7442  0.7108  0.5363
  971MOL0    Cl28084  -1.481   7.012   8.182  0.0326  0.0623 -0.4763
  971MOL0     C28085  -0.461   7.363   7.597  0.8492 -0.2395  0.7741
  971MOL0     C28086  -0.343   7.436   7.590  0.8438 -0.1028  0.1852
  971MOL0     O28087   0.050   7.280   7.648  0.2665  0.1927  0.0656
  971MOL0     C28088   0.104   7.621   7.669 -0.3860  0.4462 -0.2459
  971MOL0     C28089   0.212   7.719   7.690  0.4825  0.0159  0.3474
  971MOL0     N28090   0.693   8.291   7.597  0.8929 -0.1078  0.7691
  971MOL0     N28091   0.759   8.388   7.542 -0.1930 -0.5424 -0.4779
  971MOL0     C28092   1.694   9.248   7.606 -0.1057 -0.1676 -0.2981
  971MOL0     C28093   1.810   9.311   7.662 -1.1857  0.2455 -0.3205
  971MOL0     C28094   2.130   9.422   7.981  0.0797  0.4748  0.6506
  971MOL0     C28095   2.171   9.538   7.915  0.6001 -0.2950 -0.7919
  971MOL0     C28096   2.291   9.612   7.961 -0.3651  0.6723 -0.0801
  971MOL0     C28097   2.377   9.552   8.057  1.3221 -0.1195  0.2672
  971MOL0     O28098   2.495   9.608   8.093  0.3983  0.2231 -0.1887
  971MOL0     C28099   2.504   9.749   8.102  0.5581  0.7120 -0.0330
  971MOL0     C28100   2.410   9.805   8.206 -0.4159  0.2249 -0.0603
  971MOL0     C28101   2.438   9.957   8.235 -0.1342  0.7533  0.7134
  971MOL0     C28102   2.563   9.981   8.312  0.3046 -0.2374 -0.8370
  971MOL0     C28103   2.619  10.114   8.291  0.2567  0.2150 -0.4205
  971MOL0     C28104   2.657  10.225   8.280 -0.4714 -0.2493  0.3229
  971MOL0     C28105   2.341   9.425   8.114 -0.6803 -0.4554  0.0289
  971MOL0     C28106   2.226   9.357   8.071  0.7397 -0.0534 -0.6381
  971MOL0     H28107   1.704   9.346   7.971  1.2195 -0.3768 -0.2386
  971MOL0     H28108   1.489   9.290   7.869 -0.7425  2.4067 -1.0857
  971MOL0     H28109   1.306   9.224   7.721  0.7345  0.8181 -1.4734
  971MOL0     H28110   1.409   9.087   7.777  0.0908  0.2056  0.6169
  971MOL0     H28111   1.350   8.954   7.601 -1.0278 -1.9504  0.3646
  971MOL0     H28112   1.239   9.075   7.529 -2.4862 -0.0414  0.8366
  971MOL0     H28113   1.121   9.072   7.752 -1.8740 -1.0842 -0.3279
  971MOL0     H28114   1.222   8.936   7.805 -1.9181 -0.3183  0.5402
  971MOL0     H28115   1.004   8.952   7.583  0.6463  0.8536  0.8022
  971MOL0     H28116   1.127   8.822   7.584 -1.0901 -0.4603 -0.5361
  971MOL0     H28117   0.914   8.862   7.803 -1.8578  0.2821 -3.0020
  971MOL0     H28118   1.066   8.774   7.836 -1.7726 -0.9652  0.9932
  971MOL0     H28119   0.897   8.708   7.586 -2.6696  2.1660  1.1261
  971MOL0     H28120   0.853   8.650   7.749 -0.1343  0.1737 -0.0716
  971MOL0     H28121   1.128   8.606   7.630 -1.6006  3.4264  0.1763
  971MOL0     H28122   1.049   8.521   7.762  3.1613  0.8782 -0.4639
  971MOL0     H28123   1.075   8.407   7.534 -0.3487  1.8582 -1.0770
  971MOL0     H28124   0.970   8.529   7.462  1.4270  1.7956 -0.4224
  971MOL0     H28125   0.978   8.275   7.762  1.2306  1.2363 -1.6549
  971MOL0     H28126   0.764   8.177   7.901  1.3246 -0.8573  0.5828
  971MOL0     H28127   0.829   8.052   7.798  0.3365  0.6381  1.6129
  971MOL0     H28128   0.541   8.146   7.787 -0.9667 -0.3684  3.0336
  971MOL0     H28129   0.585   8.024   7.894  0.5281 -1.5885 -0.2525
  971MOL0     H28130   0.607   8.004   7.588  1.8559 -0.0395  0.1791
  971MOL0     H28131   0.657   7.889   7.701 -0.9391 -1.8230 -1.4835
  971MOL0     H28132   0.365   7.962   7.634  0.7775 -1.0150 -1.3851
  971MOL0     H28133   0.409   7.900   7.797 -0.2730 -2.6749 -0.3775
  971MOL0     H28134   0.475   7.521   7.599 -0.0953 -2.3417 -1.4859
  971MOL0     H28135   0.301   7.354   7.602 -0.4167 -0.9325  0.0985
  971MOL0     H28136  -0.144   7.208   7.754 -1.1489 -1.2777  0.4313
  971MOL0     H28137  -0.355   7.083   7.756  0.3336 -0.4711 -0.5126
  971MOL0     H28138  -0.710   7.279   7.772 -3.2380  0.6221 -3.0321
  971MOL0     H28139  -0.624   7.128   7.834  0.0520 -0.9647 -0.1925
  971MOL0     H28140  -0.758   7.001   7.655 -0.8968  0.1296  1.2964
  971MOL0     H28141  -0.848   7.154   7.626  0.4125  2.3758  0.9415
  971MOL0     H28142  -0.908   7.145   7.872  0.1991 -0.1740  0.1910
  971MOL0     H28143  -0.834   6.992   7.897 -2.6404  0.1368  1.2476
  971MOL0     H28144  -1.067   7.068   7.725 -1.4263 -0.2385  0.1866
  971MOL0     H28145  -0.995   6.899   7.706 -0.0925 -0.5160  1.6802
  971MOL0     H28146  -1.098   7.015   7.971  0.7898 -0.9856  1.2637
  971MOL0     H28147  -1.062   6.845   7.940 -0.3137 -1.5102 -1.2469
  971MOL0     H28148  -1.231   6.814   7.789  3.1442  1.6016 -3.5877
  971MOL0     H28149  -1.268   6.981   7.788  2.5631  1.5953  0.3414
  971MOL0     H28150  -1.441   6.853   7.938  0.0024  0.1014 -0.1369
  971MOL0     H28151  -1.308   6.796   8.037  2.0062 -0.9044 -1.9348
  971MOL0     H28152  -1.358   7.102   7.992 -1.1174  0.6337  0.5069
  971MOL0     H28153  -1.250   7.029   8.110 -1.7176  0.4714  2.4851
  971MOL0     H28154  -0.543   7.405   7.540 -1.0230  0.1866  3.6004
  971MOL0     H28155  -0.335   7.536   7.548 -0.4086 -0.9096 -2.1504
  971MOL0     H28156   0.001   7.655   7.668 -0.5312  0.0062 -0.6640
  971MOL0     H28157   0.175   7.817   7.717  2.0806  0.2118  2.0356
  971MOL0     H28158   1.696   9.220   7.501 -0.0124  0.2217 -0.4010
  971MOL0     H28159   1.902   9.324   7.606 -1.9006  1.0428 -1.3249
  971MOL0     H28160   2.101   9.593   7.855 -1.0677 -0.3048  1.0456
  971MOL0     H28161   2.321   9.703   7.910  2.6257 -0.5258 -0.6265
  971MOL0     H28162   2.485   9.795   8.004 -0.9018  0.1260 -0.0535
  971MOL0     H28163   2.609   9.775   8.114  0.9363  0.1549 -1.7581
  971MOL0     H28164   2.307   9.790   8.172 -0.9715 -2.2857  2.3462
  971MOL0     H28165   2.422   9.740   8.294  1.1003 -1.6181 -1.5250
  971MOL0     H28166   2.351   9.992   8.293  0.3399 -0.0941  1.9970
  971MOL0     H28167   2.456   9.994   8.134  1.7419 -1.5641  0.1027
  971MOL0     H28168   2.545   9.967   8.419 -0.6165 -0.4680 -1.0147
  971MOL0     H28169   2.636   9.902   8.294 -1.2843 -1.6581 -1.3208
  971MOL0     H28170   2.675  10.330   8.270 -2.1812 -0.0952 -2.1498
  971MOL0     H28171   2.413   9.375   8.178 -1.3715 -0.5126  0.7849
  971MOL0     H28172   2.210   9.265   8.127  0.6004 -0.4920 -1.3818
  972MOL0     O28173   4.010  10.957  10.892  0.0023  0.2424 -0.1470
  972MOL0     C28174   4.081  10.924  10.803 -0.3316  0.4684 -0.4701
  972MOL0     O28175   4.032  10.861  10.683 -0.3082 -0.1992 -0.4207
  972MOL0     C28176   3.891  10.861  10.677 -1.2049  0.6212  0.8261
  972MOL0     C28177   3.814  10.772  10.754  0.3519 -0.1429  0.6882
  972MOL0     C28178   3.674  10.767  10.750  0.3076  0.2522  1.4540
  972MOL0     C28179   3.603  10.846  10.658  0.2101 -0.4978  0.1270
  972MOL0     O28180   3.466  10.828  10.655 -0.7072  0.1223  0.0575
  972MOL0     C28181   3.396  10.911  10.557 -0.0580  0.1357 -0.1853
  972MOL0     C28182   3.248  10.889  10.577  0.0899 -0.4378 -0.4291
  972MOL0     C28183   3.194  10.753  10.526  0.4589 -0.1358  0.4633
  972MOL0     C28184   3.043  10.757  10.509 -0.7094  0.3920 -0.0542
  972MOL0     C28185   2.983  10.767  10.650 -0.0795 -0.3308  0.4438
  972MOL0     C28186   2.831  10.774  10.626 -1.0013 -0.6446 -0.3173
  972MOL0     C28187   2.762  10.758  10.760  0.2583 -0.5806 -0.3817
  972MOL0     C28188   2.793  10.875  10.857  0.4120 -1.3194  0.3149
  972MOL0     N28189   2.716  10.991  10.805 -0.0092 -0.3059 -0.4705
  972MOL0     C28190   2.578  11.021  10.813 -0.1282 -0.0303 -0.1071
  972MOL0     C28191   2.564  11.146  10.761  0.4881 -0.5581  0.0888
  972MOL0     C28192   2.434  11.223  10.746 -0.6625 -0.1087  0.2027
  972MOL0     C28193   2.302  11.145  10.759 -0.1850 -0.1028  0.8733
  972MOL0     C28194   2.176  11.232  10.725 -0.2128  0.0471  0.1870
  972MOL0     C28195   2.053  11.157  10.662  0.0578  0.3653  0.3379
  972MOL0     O28196   1.930  11.223  10.672  0.3116 -0.3160 -0.0767
  972MOL0     C28197   1.828  11.162  10.613 -0.1128 -0.2742  0.8647
  972MOL0     C28198   1.710  11.223  10.619  0.2963 -0.5854 -0.0868
  972MOL0     C28199   1.586  11.170  10.576 -0.1750  0.6891  0.1122
  972MOL0     C28200   1.592  11.040  10.529 -0.7880 -0.1630  0.8225
  972MOL0     C28201   1.457  10.969  10.486  0.8818 -0.4658  0.0581
  972MOL0     O28202   1.359  11.060  10.456 -0.0808 -0.0419 -0.4685
  972MOL0     C28203   1.229  11.027  10.428  0.5427 -0.8152  0.2773
  972MOL0     C28204   1.177  10.898  10.419  0.0155 -0.2098 -0.2456
  972MOL0     C28205   1.039  10.879  10.396  0.6584 -1.2299  0.2614
  972MOL0     C28206   0.951  10.988  10.394 -0.1958 -0.9114 -0.1417
  972MOL0     O28207   0.814  10.981  10.383 -0.3369 -0.8933 -1.1435
  972MOL0     C28208   0.754  10.843  10.373 -0.1498  0.1101 -0.7426
  972MOL0     C28209   0.607  10.825  10.388  0.0134 -0.9988 -0.8015
  972MOL0     C28210   0.538  10.907  10.273  0.5565  0.2236  0.0375
  972MOL0     C28211   0.386  10.859  10.261 -0.3265 -0.5585 -0.3723
  972MOL0     C28212   0.313  10.899  10.395 -0.2469  0.3199  0.3733
  972MOL0     C28213   0.157  10.877  10.377 -0.0330  0.4041 -1.0382
  972MOL0     C28214   0.114  10.920  10.516  0.3356  0.1446 -0.0396
  972MOL0     C28215  -0.040  10.915  10.530 -0.4046  0.1964  0.7957
  972MOL0    Cl28216  -0.100  10.744  10.541  0.1699 -0.6498 -0.3989
  972MOL0     C28217   1.001  11.114  10.410  0.2813  0.0985 -0.7583
  972MOL0     C28218   1.142  11.133  10.414  0.1706 -0.4149 -0.5533
  972MOL0     O28219   1.444  10.844  10.491  0.3681  0.5732 -0.5259
  972MOL0     C28220   1.713  10.965  10.519 -0.7392 -0.3352  0.2968
  972MOL0     C28221   1.830  11.034  10.552  0.5550  0.2023  0.2056
  972MOL0     N28222   2.685  11.182  10.709 -0.8015 -0.0781  0.3234
  972MOL0     N28223   2.774  11.103  10.761 -0.3579  0.1373  0.2756
  972MOL0     C28224   3.678  10.934  10.573  0.3930  0.6885  0.0065
  972MOL0     C28225   3.818  10.946  10.586 -0.0336 -0.2015  0.3284
  972MOL0     C28226   4.224  10.926  10.823  0.6036  0.1025 -0.1266
  972MOL0     C28227   4.288  11.002  10.929  0.0581  0.6319 -0.6584
  972MOL0     C28228   4.429  10.997  10.937  0.0481  0.1814 -0.0074
  972MOL0     C28229   4.504  10.924  10.851  0.0442  0.0462  0.0057
  972MOL0     O28230   4.639  10.931  10.869 -0.5130  0.0545 -0.1301
  972MOL0     C28231   4.735  10.833  10.816 -0.1014 -0.8849 -0.1137
  972MOL0     C28232   4.843  10.815  10.919 -0.0796  0.3968 -0.1382
  972MOL0     C28233   4.924  10.677  10.902  0.3874 -0.4964  0.1690
  972MOL0     C28234   5.074  10.679  10.950  0.7859 -0.2035 -0.0716
  972MOL0     C28235   5.071  10.676  11.103  0.2253  0.1350  0.3832
  972MOL0     C28236   5.063  10.677  11.222  0.2482  1.2136 -0.3103
  972MOL0     C28237   4.446  10.844  10.751  0.2234  0.6755  0.2990
  972MOL0     C28238   4.304  10.831  10.747 -0.2077 -0.2433 -0.8051
  972MOL0     H28239   3.880  10.716  10.818  1.7079  1.7792  1.0635
  972MOL0     H28240   3.616  10.695  10.807  0.6606 -0.9273  0.3744
  972MOL0     H28241   3.421  10.871  10.458  1.9240  0.0936  0.2999
  972MOL0     H28242   3.412  11.019  10.552 -0.7903  0.3853  1.9151
  972MOL0     H28243   3.196  10.969  10.524  1.9809  1.1263 -0.0317
  972MOL0     H28244   3.229  10.893  10.685  4.7326 -2.8680  0.7485
  972MOL0     H28245   3.238  10.675  10.589  0.7204  0.1786  0.6733
  972MOL0     H28246   3.229  10.731  10.425 -2.0318  1.3562 -0.8306
  972MOL0     H28247   3.018  10.847  10.452  0.8968  1.2859  0.5932
  972MOL0     H28248   3.009  10.670  10.452 -0.9597 -0.7557  1.7797
  972MOL0     H28249   3.006  10.867  10.688  1.3761 -0.4595 -0.0592
  972MOL0     H28250   3.004  10.676  10.706  0.1625 -0.4861  0.1028
  972MOL0     H28251   2.801  10.694  10.558 -0.6268  1.7022 -3.4246
  972MOL0     H28252   2.807  10.868  10.577 -3.1569 -2.3880 -2.8970
  972MOL0     H28253   2.654  10.753  10.746  0.1275  3.3249 -1.9255
  972MOL0     H28254   2.794  10.665  10.808  3.6187  0.3847 -0.4617
  972MOL0     H28255   2.902  10.890  10.861  0.3835 -1.3048  1.8736
  972MOL0     H28256   2.750  10.858  10.956  0.7013  2.3658  1.2148
  972MOL0     H28257   2.490  10.969  10.850  1.5658 -0.4468  3.7289
  972MOL0     H28258   2.440  11.262  10.644  1.0096 -2.8530 -0.8658
  972MOL0     H28259   2.426  11.308  10.815 -2.1098  1.3131 -1.6184
  972MOL0     H28260   2.296  11.111  10.863 -0.5117 -1.1960  0.5036
  972MOL0     H28261   2.298  11.058  10.693 -1.7512  0.5869 -0.0213
  972MOL0     H28262   2.147  11.286  10.817  0.8467 -1.2529  1.3181
  972MOL0     H28263   2.200  11.310  10.652 -2.2647  1.1093  0.5405
  972MOL0     H28264   2.041  11.061  10.713 -2.1468  1.2760  1.6824
  972MOL0     H28265   2.087  11.133  10.561  0.8561  0.9716  0.4442
  972MOL0     H28266   1.706  11.324  10.658 -1.5200 -0.1619 -1.2416
  972MOL0     H28267   1.495  11.229  10.570  0.7552  2.1582  0.1329
  972MOL0     H28268   1.233  10.806  10.430 -0.4619 -0.3860  0.7858
  972MOL0     H28269   0.999  10.780  10.378 -0.9607 -0.1360 -3.0744
  972MOL0     H28270   0.804  10.779  10.447  1.4445  0.8174 -1.1636
  972MOL0     H28271   0.773  10.795  10.276 -1.3037 -1.9704  0.0018
  972MOL0     H28272   0.578  10.853  10.490 -2.2370  0.6719 -1.8136
  972MOL0     H28273   0.569  10.723  10.379 -2.2572 -0.3882  1.0432
  972MOL0     H28274   0.585  10.903  10.175  0.0869 -0.1215 -0.1730
  972MOL0     H28275   0.540  11.011  10.307  1.1277 -0.2561  1.5706
  972MOL0     H28276   0.341  10.900  10.170  1.6904  0.6604 -0.8921
  972MOL0     H28277   0.385  10.750  10.254 -0.9394 -0.9416  3.5549
  972MOL0     H28278   0.332  11.005  10.414 -2.3582  0.8602 -0.2815
  972MOL0     H28279   0.347  10.834  10.476  0.9309  1.9114  1.2203
  972MOL0     H28280   0.133  10.774  10.350 -0.2195  0.2268 -0.2141
  972MOL0     H28281   0.124  10.948  10.300 -0.6926 -1.3160 -2.4087
  972MOL0     H28282   0.164  10.861  10.593  1.1627 -0.3165 -0.9040
  972MOL0     H28283   0.140  11.026  10.526  0.2031  0.1191  0.5771
  972MOL0     H28284  -0.084  10.958  10.440 -1.0714 -2.0399 -0.0133
  972MOL0     H28285  -0.073  10.980  10.612  3.4468  1.5790  1.4691
  972MOL0     H28286   0.932  11.198  10.407  0.2276  0.0859  0.1362
  972MOL0     H28287   1.182  11.232  10.433 -0.2505  0.7295 -4.5584
  972MOL0     H28288   1.714  10.862  10.487  0.0578 -1.4165  3.4624
  972MOL0     H28289   1.924  10.982  10.536  0.3321 -0.1793  0.1253
  972MOL0     H28290   3.632  10.999  10.500  1.6996 -0.6958 -2.1454
  972MOL0     H28291   3.866  11.022  10.526  0.5183  1.2538  2.4905
  972MOL0     H28292   4.234  11.049  11.010 -1.7545 -2.0474 -0.1359
  972MOL0     H28293   4.486  11.044  11.017 -0.4842 -0.8591  1.0070
  972MOL0     H28294   4.779  10.879  10.727 -0.2740  0.8797  0.6774
  972MOL0     H28295   4.698  10.731  10.808  1.6085 -1.6351  0.9902
  972MOL0     H28296   4.907  10.903  10.915  0.1878  0.3847  2.3977
  972MOL0     H28297   4.794  10.816  11.017 -2.1136 -2.5225 -0.9498
  972MOL0     H28298   4.920  10.643  10.798 -3.4511 -2.3671  0.7649
  972MOL0     H28299   4.878  10.592  10.954 -2.0072  0.2861 -0.5537
  972MOL0     H28300   5.126  10.593  10.908 -1.4219 -0.9429 -1.4568
  972MOL0     H28301   5.135  10.767  10.930  2.0214 -0.1799  3.1246
  972MOL0     H28302   5.080  10.695  11.326 -1.7153  1.4264  0.0172
  972MOL0     H28303   4.496  10.782  10.677 -1.5164 -0.1312 -0.2809
  972MOL0     H28304   4.255  10.770  10.671 -0.8575  1.0218 -1.4241
  973MOL0     O28305   1.216  10.301   2.382 -0.1625 -0.3554 -0.2728
  973MOL0     C28306   1.201  10.202   2.453  0.0963 -0.1801 -0.1628
  973MOL0     O28307   1.083  10.153   2.489  0.3340 -0.9013  0.0303
  973MOL0     C28308   0.971  10.221   2.435  0.8090 -0.0431 -0.5869
  973MOL0     C28309   0.924  10.192   2.304 -0.1843 -0.4835 -0.6504
  973MOL0     C28310   0.798  10.230   2.257  0.4656  0.1749  0.3864
  973MOL0     C28311   0.718  10.304   2.342  0.6525  0.1904 -0.1445
  973MOL0     O28312   0.614  10.360   2.279  0.7367  0.0300  0.2918
  973MOL0     C28313   0.489  10.396   2.348 -0.4600 -0.1814 -0.3722
  973MOL0     C28314   0.391  10.285   2.316  0.3487  0.8688 -0.1379
  973MOL0     C28315   0.245  10.320   2.362  0.7863  0.2535 -0.5585
  973MOL0     C28316   0.157  10.201   2.326 -0.3062 -0.4205  0.4871
  973MOL0     C28317   0.017  10.214   2.398 -0.7833 -1.5481 -0.3228
  973MOL0     C28318  -0.061  10.078   2.388 -0.3313  0.2602  0.6328
  973MOL0     C28319  -0.213  10.083   2.420 -0.2005  0.6997 -0.2638
  973MOL0     C28320  -0.277   9.945   2.400  0.2766  0.7422  0.1984
  973MOL0     N28321  -0.425   9.957   2.418 -0.8595  0.4082  0.2749
  973MOL0     C28322  -0.489   9.957   2.539 -0.2888 -0.1108 -0.2126
  973MOL0     C28323  -0.613   9.924   2.502 -0.0202  0.2206  0.8861
  973MOL0     C28324  -0.729   9.894   2.605 -0.1806 -0.1658  0.7999
  973MOL0     C28325  -0.869   9.912   2.554  0.4467 -0.1856 -0.2602
  973MOL0     C28326  -0.910  10.059   2.526  0.3900  0.1553 -0.7762
  973MOL0     C28327  -1.041  10.081   2.453 -0.6933  0.2261  0.0264
  973MOL0     O28328  -1.147  10.008   2.506  1.0821 -0.1490 -0.3997
  973MOL0     C28329  -1.275  10.037   2.458 -0.1169  0.0755  0.1285
  973MOL0     C28330  -1.383   9.968   2.526 -0.3892  0.0975  0.0462
  973MOL0     C28331  -1.509   9.996   2.487  0.3872 -0.8640  0.4630
  973MOL0     C28332  -1.535  10.075   2.373  0.1085  0.1907 -0.3846
  973MOL0     C28333  -1.674  10.104   2.329 -0.5202  0.6242 -0.1343
  973MOL0     O28334  -1.777  10.068   2.417 -0.2737  0.4092 -0.4178
  973MOL0     C28335  -1.906  10.122   2.435  1.1450  0.0663  0.3107
  973MOL0     C28336  -1.987  10.079   2.537  0.7990  0.4518 -0.3358
  973MOL0     C28337  -2.122  10.117   2.547  0.4451  0.2635 -0.0685
  973MOL0     C28338  -2.173  10.197   2.447  0.0351  0.3556 -0.1839
  973MOL0     O28339  -2.305  10.243   2.431  0.0603 -0.0494 -0.2327
  973MOL0     C28340  -2.408  10.179   2.512 -0.0962 -0.9497  0.3790
  973MOL0     C28341  -2.542  10.224   2.459  0.1017 -0.2129  0.6042
  973MOL0     C28342  -2.659  10.137   2.496  0.2061  0.1231 -0.0131
  973MOL0     C28343  -2.778  10.221   2.461  0.0536 -0.4927 -0.8162
  973MOL0     C28344  -2.906  10.142   2.500 -0.1368  0.2583  0.9569
  973MOL0     C28345  -3.043  10.170   2.427 -0.2484 -0.7323 -0.1481
  973MOL0     C28346  -3.102  10.303   2.484 -0.3491 -0.3393  0.6607
  973MOL0     C28347  -3.195  10.371   2.388 -0.1677 -0.5384  0.9039
  973MOL0    Cl28348  -3.341  10.276   2.350 -0.2897  0.0144  0.0591
  973MOL0     C28349  -2.092  10.255   2.354 -0.4604 -0.7654  0.4120
  973MOL0     C28350  -1.956  10.221   2.351 -0.0680  0.3864  0.0059
  973MOL0     O28351  -1.686  10.153   2.216  0.4801  0.2884  0.3142
  973MOL0     C28352  -1.432  10.137   2.305 -0.5692  0.4576  0.6524
  973MOL0     C28353  -1.302  10.119   2.350 -0.3781  0.3337  1.1846
  973MOL0     N28354  -0.622   9.914   2.362  0.1124 -0.1558  0.1688
  973MOL0     N28355  -0.509   9.938   2.315 -0.1588  0.3234 -0.3587
  973MOL0     C28356   0.758  10.344   2.467 -1.1602 -0.0933 -0.8460
  973MOL0     C28357   0.884  10.300   2.521  0.0644  0.7804  0.7962
  973MOL0     C28358   1.322  10.143   2.516  0.7233 -0.4751 -0.7876
  973MOL0     C28359   1.316  10.034   2.607  0.0083  0.0704 -0.3692
  973MOL0     C28360   1.432   9.979   2.668  0.0479  0.0821 -0.0143
  973MOL0     C28361   1.558  10.027   2.631  0.5959 -0.1742 -0.2119
  973MOL0     O28362   1.671   9.966   2.687  0.4538 -0.2962 -0.1860
  973MOL0     C28363   1.659   9.877   2.807 -0.4810 -0.1161  1.0923
  973MOL0     C28364   1.797   9.821   2.836  0.1461 -0.8709  0.8670
  973MOL0     C28365   1.891   9.906   2.922  0.3359 -0.6209  0.4421
  973MOL0     C28366   2.000   9.818   2.982 -0.6352 -0.3441 -0.5389
  973MOL0     C28367   1.952   9.750   3.107  0.1431  0.5342  0.0370
  973MOL0     C28368   1.926   9.690   3.204 -0.9229  0.3422 -0.3432
  973MOL0     C28369   1.571  10.137   2.542  0.1208  0.1525  0.3880
  973MOL0     C28370   1.450  10.195   2.491 -0.4958 -0.1585 -0.1332
  973MOL0     H28371   0.987  10.137   2.235 -1.5477 -1.2633 -1.3254
  973MOL0     H28372   0.754  10.201   2.163 -0.3667 -1.0603  1.1339
  973MOL0     H28373   0.440  10.478   2.295 -0.6690 -0.1401 -0.1196
  973MOL0     H28374   0.495  10.411   2.456  1.7774  1.1648 -0.6417
  973MOL0     H28375   0.425  10.206   2.382  2.0543  2.8322  1.4502
  973MOL0     H28376   0.401  10.261   2.209  0.9078  0.7026 -0.0479
  973MOL0     H28377   0.210  10.400   2.297 -0.2395 -1.4276 -2.1754
  973MOL0     H28378   0.254  10.345   2.468  1.7436 -0.4183 -0.4623
  973MOL0     H28379   0.150  10.204   2.216  0.5471 -0.0517  0.4375
  973MOL0     H28380   0.209  10.113   2.365  0.4475 -0.0164  0.4213
  973MOL0     H28381  -0.042  10.290   2.346 -0.5150  0.5697  2.2782
  973MOL0     H28382   0.027  10.255   2.498  1.0432 -0.9359 -0.7094
  973MOL0     H28383  -0.013  10.005   2.454  1.8741  1.3190  0.3264
  973MOL0     H28384  -0.034  10.037   2.291  1.9625 -1.5109  1.8919
  973MOL0     H28385  -0.216  10.117   2.524  1.6079  0.1036  0.0163
  973MOL0     H28386  -0.266  10.153   2.355  2.3493 -0.5186 -4.0043
  973MOL0     H28387  -0.248   9.854   2.454  0.2192 -0.4542 -1.6812
  973MOL0     H28388  -0.260   9.906   2.299 -0.2626  2.0443 -0.4089
  973MOL0     H28389  -0.449   9.976   2.638 -1.8590 -0.2366  0.4727
  973MOL0     H28390  -0.714   9.956   2.694 -3.3573 -0.9478  2.0229
  973MOL0     H28391  -0.725   9.793   2.647 -0.8008  0.3976  2.2952
  973MOL0     H28392  -0.938   9.862   2.623  0.1045 -2.3120 -2.0141
  973MOL0     H28393  -0.873   9.849   2.464  1.0232  0.1866 -0.5555
  973MOL0     H28394  -0.928  10.112   2.620 -2.6846 -1.1938 -0.4781
  973MOL0     H28395  -0.831  10.110   2.470  2.3725  0.1209  1.8189
  973MOL0     H28396  -1.028  10.045   2.350  1.0092  5.3617 -1.8948
  973MOL0     H28397  -1.062  10.188   2.447  0.1797  0.3504 -1.2836
  973MOL0     H28398  -1.368   9.905   2.613 -3.2507  0.0810  0.6182
  973MOL0     H28399  -1.589   9.951   2.546  0.1360 -0.3900  0.4898
  973MOL0     H28400  -1.955  10.001   2.605 -1.1347  0.3580  0.5549
  973MOL0     H28401  -2.186  10.075   2.624  1.8501 -1.6736  0.1234
  973MOL0     H28402  -2.387  10.219   2.612 -1.4900  0.9145 -0.0003
  973MOL0     H28403  -2.383  10.074   2.499 -2.4452 -1.4350 -0.8232
  973MOL0     H28404  -2.542  10.239   2.351  1.5209 -1.4700  0.3969
  973MOL0     H28405  -2.550  10.327   2.497  0.3817  0.6414 -1.5105
  973MOL0     H28406  -2.662  10.128   2.604  0.7531  0.8023  0.0664
  973MOL0     H28407  -2.666  10.036   2.456 -0.9560 -0.5685  1.8369
  973MOL0     H28408  -2.779  10.318   2.513 -4.2364  0.1204 -1.6908
  973MOL0     H28409  -2.775  10.251   2.356 -1.5340 -0.9829 -1.0177
  973MOL0     H28410  -2.920  10.145   2.609  0.5555  0.5496  1.0389
  973MOL0     H28411  -2.894  10.038   2.468 -0.6504  0.6507 -0.5600
  973MOL0     H28412  -3.121  10.096   2.448  0.0222 -0.0907  3.7717
  973MOL0     H28413  -3.031  10.188   2.320 -0.7434 -3.3218 -0.7189
  973MOL0     H28414  -3.155  10.290   2.578  1.9392  0.3523  2.1366
  973MOL0     H28415  -3.022  10.373   2.512 -0.3747 -1.0245  2.5769
  973MOL0     H28416  -3.150  10.370   2.288  1.4169 -0.7678  1.5763
  973MOL0     H28417  -3.218  10.474   2.416  1.1303  0.1974 -0.5566
  973MOL0     H28418  -2.130  10.327   2.283 -0.4240 -0.8231  0.3349
  973MOL0     H28419  -1.893  10.258   2.271  1.3539 -1.1399  0.3668
  973MOL0     H28420  -1.443  10.197   2.216  1.0100 -0.3198 -0.1086
  973MOL0     H28421  -1.225  10.179   2.302 -1.0302  0.5786  0.4093
  973MOL0     H28422   0.689  10.401   2.529 -0.0459  0.0593  0.3071
  973MOL0     H28423   0.912  10.318   2.624 -0.4918  1.5450  0.8185
  973MOL0     H28424   1.230   9.984   2.649 -0.8545  2.1209  0.4454
  973MOL0     H28425   1.418   9.884   2.717  0.0040 -0.1028 -0.3827
  973MOL0     H28426   1.595   9.792   2.783  1.0209 -1.7371  2.5528
  973MOL0     H28427   1.621   9.921   2.899 -2.4371 -1.8872  1.1926
  973MOL0     H28428   1.783   9.722   2.879 -1.1952 -1.3412 -0.5569
  973MOL0     H28429   1.850   9.797   2.744 -1.5628 -2.0488  0.1487
  973MOL0     H28430   1.834   9.948   3.005  2.1383 -1.1492  2.0085
  973MOL0     H28431   1.927   9.986   2.857  0.8954 -0.4721  0.9274
  973MOL0     H28432   2.037   9.741   2.913 -2.5792 -0.2538 -1.7765
  973MOL0     H28433   2.082   9.884   3.007  1.5336 -3.0992  0.1090
  973MOL0     H28434   1.912   9.638   3.297  3.6000  1.8586  1.4867
  973MOL0     H28435   1.673  10.173   2.534  0.2113 -0.2557 -0.3442
  973MOL0     H28436   1.469  10.282   2.430 -0.8492  0.9851  1.3315
  974MOL0     O28437   6.514   3.606   6.239  0.1185 -0.4285 -0.2388
  974MOL0     C28438   6.501   3.603   6.365  0.3217  0.0823 -0.3953
  974MOL0     O28439   6.575   3.515   6.441 -0.1055 -0.2219 -0.8272
  974MOL0     C28440   6.675   3.451   6.377 -0.5025  0.5031 -0.4405
  974MOL0     C28441   6.660   3.366   6.272  0.5943  0.2998  0.2459
  974MOL0     C28442   6.757   3.304   6.198  0.1053 -0.0823  0.6438
  974MOL0     C28443   6.890   3.322   6.242  0.2449 -0.8679 -0.6369
  974MOL0     O28444   7.001   3.254   6.189  0.4064  0.4632 -0.2383
  974MOL0     C28445   6.996   3.187   6.062 -0.3385  0.7120 -0.0241
  974MOL0     C28446   7.138   3.152   6.026 -0.3468 -0.6668 -0.1600
  974MOL0     C28447   7.224   3.280   5.993  0.2486 -0.0310 -0.6397
  974MOL0     C28448   7.369   3.252   5.978 -1.4038 -0.0911 -0.1047
  974MOL0     C28449   7.433   3.351   5.884 -0.1308  1.0244  0.2023
  974MOL0     C28450   7.580   3.323   5.862  0.2010 -1.1546  0.2912
  974MOL0     C28451   7.635   3.417   5.749  0.2253  0.2677  1.1027
  974MOL0     C28452   7.787   3.403   5.724 -0.5634 -0.1438 -0.4852
  974MOL0     N28453   7.815   3.277   5.655  0.3161 -0.6904 -1.3863
  974MOL0     C28454   7.804   3.262   5.528 -0.4819 -0.4159  0.2222
  974MOL0     C28455   7.829   3.129   5.498 -0.5042  0.1532 -0.1355
  974MOL0     C28456   7.834   3.069   5.363  1.2998 -0.6287 -0.6947
  974MOL0     C28457   7.688   3.024   5.329 -0.3575 -0.5076  0.6379
  974MOL0     C28458   7.638   2.906   5.410  0.1410 -0.2328 -0.1143
  974MOL0     C28459   7.496   2.888   5.374  0.9738 -0.0826  0.6966
  974MOL0     O28460   7.410   2.999   5.427  0.2020 -0.1046  0.2375
  974MOL0     C28461   7.273   2.977   5.427 -0.0995 -0.1346 -0.7290
  974MOL0     C28462   7.188   3.083   5.470 -0.0782 -0.0767 -0.0430
  974MOL0     C28463   7.044   3.080   5.451 -1.0854  0.0066 -0.2885
  974MOL0     C28464   6.983   2.977   5.378 -0.3096  0.5577  0.3114
  974MOL0     C28465   6.831   2.972   5.370  0.1308  0.0273 -0.4747
  974MOL0     O28466   6.768   3.066   5.452  0.2955 -0.4184 -0.5820
  974MOL0     C28467   6.641   3.095   5.424 -0.3734  0.4766  0.2882
  974MOL0     C28468   6.591   3.160   5.304 -0.1987 -0.2604 -0.7515
  974MOL0     C28469   6.461   3.213   5.301 -0.2053 -0.2367 -0.6812
  974MOL0     C28470   6.374   3.190   5.417  0.9593  0.3649 -0.3606
  974MOL0     O28471   6.241   3.216   5.431  0.0616 -0.8051  0.0915
  974MOL0     C28472   6.161   3.275   5.328  0.5129 -0.0426  0.3954
  974MOL0     C28473   6.039   3.201   5.288 -0.1093 -0.2605  0.3118
  974MOL0     C28474   5.941   3.185   5.404  0.2022  0.2914 -0.4679
  974MOL0     C28475   5.856   3.310   5.431  0.3567 -0.3032  0.2195
  974MOL0     C28476   5.763   3.272   5.556  0.3634 -0.4111 -0.2669
  974MOL0     C28477   5.680   3.401   5.586 -0.5973 -1.1829 -0.0284
  974MOL0     C28478   5.754   3.519   5.643 -0.6128 -0.2724  0.3706
  974MOL0     C28479   5.647   3.619   5.700  1.2884 -0.9078 -0.4230
  974MOL0    Cl28480   5.722   3.745   5.810 -0.2050 -0.2927 -0.2339
  974MOL0     C28481   6.414   3.103   5.519 -0.4238 -0.6089 -1.1534
  974MOL0     C28482   6.555   3.069   5.524  0.3985  0.4610 -0.2896
  974MOL0     O28483   6.776   2.892   5.293 -0.9309  0.2535 -0.6628
  974MOL0     C28484   7.066   2.878   5.327 -0.0441 -0.0414 -0.5346
  974MOL0     C28485   7.204   2.873   5.359 -0.5890  0.0509 -0.4987
  974MOL0     N28486   7.859   3.057   5.616  0.5359  0.0501 -0.8146
  974MOL0     N28487   7.852   3.151   5.708 -0.0318 -1.2982  0.3236
  974MOL0     C28488   6.909   3.401   6.363  0.0259  1.0186  1.3762
  974MOL0     C28489   6.807   3.472   6.419  0.1190  0.3140  0.6350
  974MOL0     C28490   6.400   3.687   6.430 -0.4668  0.1038 -0.4548
  974MOL0     C28491   6.372   3.674   6.570 -0.3018  0.2378 -0.0465
  974MOL0     C28492   6.270   3.750   6.632  0.6972  0.3290 -0.2427
  974MOL0     C28493   6.185   3.839   6.555 -0.0943 -0.3977 -0.2939
  974MOL0     O28494   6.092   3.911   6.626  0.4008  0.1640  0.7114
  974MOL0     C28495   5.976   3.839   6.670 -0.1843 -0.1916  0.6702
  974MOL0     C28496   5.899   3.933   6.760 -0.7582  0.9358 -0.1778
  974MOL0     C28497   5.850   4.056   6.684 -0.5849 -0.1388 -0.9378
  974MOL0     C28498   5.729   4.132   6.742  0.0532  0.3243 -0.1789
  974MOL0     C28499   5.746   4.171   6.885  0.8134  0.1474 -0.1447
  974MOL0     C28500   5.783   4.221   6.993  0.0069 -0.1275 -0.2269
  974MOL0     C28501   6.206   3.852   6.419 -0.2537  0.6386  0.6484
  974MOL0     C28502   6.320   3.782   6.357 -0.2303 -0.1743  0.5155
  974MOL0     H28503   6.556   3.355   6.242  0.6753  1.9088 -0.7318
  974MOL0     H28504   6.729   3.239   6.116 -0.3519 -1.3416  1.7525
  974MOL0     H28505   6.956   3.243   5.977 -0.8593  1.6310  0.8018
  974MOL0     H28506   6.945   3.094   6.087  1.4563 -0.0415  1.0143
  974MOL0     H28507   7.133   3.086   5.938  2.6288  0.1867 -1.1013
  974MOL0     H28508   7.179   3.083   6.100  2.7376 -1.8879 -2.7089
  974MOL0     H28509   7.204   3.354   6.071 -2.9817  1.8965 -3.0176
  974MOL0     H28510   7.179   3.330   5.907 -1.1246 -1.4442 -0.7944
  974MOL0     H28511   7.420   3.252   6.075 -2.6163 -0.2954  0.5678
  974MOL0     H28512   7.394   3.150   5.948  0.1831  0.6689 -1.5075
  974MOL0     H28513   7.423   3.449   5.933  0.7364  0.6966  1.0840
  974MOL0     H28514   7.403   3.337   5.780 -0.5946 -1.6072  0.6185
  974MOL0     H28515   7.584   3.217   5.835 -1.3488 -1.1488 -0.0710
  974MOL0     H28516   7.635   3.355   5.951  0.5553  2.3453 -1.0203
  974MOL0     H28517   7.591   3.403   5.650 -1.3661  1.3107  1.6211
  974MOL0     H28518   7.621   3.520   5.783  2.2681  1.2084 -0.6877
  974MOL0     H28519   7.843   3.412   5.817 -0.7066  1.4667 -0.5247
  974MOL0     H28520   7.814   3.489   5.661 -0.2023  0.5588  0.6055
  974MOL0     H28521   7.767   3.337   5.459 -2.5547  0.2563  1.9604
  974MOL0     H28522   7.904   2.985   5.363 -0.4291 -2.1208 -0.3605
  974MOL0     H28523   7.866   3.151   5.298 -2.6711  2.4371  0.8030
  974MOL0     H28524   7.671   2.997   5.225 -1.1008  3.8749 -0.5818
  974MOL0     H28525   7.639   3.122   5.328 -0.0462 -0.3482 -0.8668
  974MOL0     H28526   7.692   2.814   5.386 -0.0792 -0.6695  1.0187
  974MOL0     H28527   7.655   2.915   5.517 -2.3720 -1.6518  0.4797
  974MOL0     H28528   7.470   2.793   5.421  3.0535 -1.1614 -0.1894
  974MOL0     H28529   7.463   2.872   5.271 -3.2241 -1.3150  2.0356
  974MOL0     H28530   7.235   3.165   5.523  0.5278  0.0542 -0.7706
  974MOL0     H28531   6.988   3.162   5.495 -1.0881 -0.5090  0.7069
  974MOL0     H28532   6.659   3.172   5.221  1.5476  1.1585  0.7840
  974MOL0     H28533   6.427   3.270   5.216 -2.8188  2.2761  1.8176
  974MOL0     H28534   6.224   3.290   5.240 -0.6775  0.9093 -0.3252
  974MOL0     H28535   6.128   3.377   5.349  0.5917  0.0381  0.1314
  974MOL0     H28536   6.078   3.106   5.252  1.4068 -0.3528  2.0745
  974MOL0     H28537   5.992   3.258   5.206  0.1465  1.0042  1.0238
  974MOL0     H28538   6.001   3.152   5.489  1.8202 -2.8975 -2.6446
  974MOL0     H28539   5.876   3.100   5.378  2.4785 -1.4573 -0.7670
  974MOL0     H28540   5.925   3.393   5.448  1.9044 -1.6355  0.7933
  974MOL0     H28541   5.809   3.329   5.334  1.0083  1.6108  0.2533
  974MOL0     H28542   5.824   3.235   5.638 -2.5266 -0.7301  1.9100
  974MOL0     H28543   5.693   3.190   5.535 -0.9807  0.7093 -0.3566
  974MOL0     H28544   5.609   3.361   5.659 -0.7296 -1.4008 -0.2739
  974MOL0     H28545   5.623   3.436   5.499 -1.7312 -0.2584  1.0413
  974MOL0     H28546   5.828   3.486   5.717  0.2873  0.1722 -0.3117
  974MOL0     H28547   5.819   3.571   5.572 -0.1060  0.6483  1.4935
  974MOL0     H28548   5.565   3.577   5.758 -1.8065  1.9089 -2.3942
  974MOL0     H28549   5.597   3.681   5.625  1.0581 -2.3534 -1.5057
  974MOL0     H28550   6.347   3.087   5.603  1.0617 -1.0968  0.0007
  974MOL0     H28551   6.601   3.024   5.611  1.1516  0.4496 -0.6865
  974MOL0     H28552   7.029   2.795   5.267  1.6578  0.2631 -2.1007
  974MOL0     H28553   7.257   2.796   5.304  0.4833  0.5171 -0.1450
  974MOL0     H28554   7.009   3.380   6.400  0.1371 -1.8808 -0.2983
  974MOL0     H28555   6.827   3.536   6.505  1.9104  0.1462  0.3682
  974MOL0     H28556   6.435   3.616   6.637  0.5096  1.4508  0.2770
  974MOL0     H28557   6.253   3.746   6.739 -0.6632 -0.3434 -0.4661
  974MOL0     H28558   5.994   3.751   6.733  1.7323  0.5786  1.2529
  974MOL0     H28559   5.920   3.811   6.581 -2.6763  0.0522  2.0662
  974MOL0     H28560   5.818   3.872   6.801  0.0426 -0.0913 -0.0747
  974MOL0     H28561   5.961   3.960   6.846  0.6453 -0.1745 -0.7997
  974MOL0     H28562   5.826   4.045   6.578 -3.5473  2.9122 -0.7499
  974MOL0     H28563   5.937   4.121   6.700 -1.6083  1.3395 -1.1421
  974MOL0     H28564   5.726   4.227   6.688  0.3664  0.3140 -0.2201
  974MOL0     H28565   5.636   4.081   6.715 -0.4207  1.9326 -1.8526
  974MOL0     H28566   5.808   4.276   7.081 -2.0777  2.7800 -1.2818
  974MOL0     H28567   6.142   3.913   6.357 -0.1170 -0.6948 -0.8754
  974MOL0     H28568   6.327   3.779   6.249 -1.9895 -3.4113  0.3819
  975MOL0     O28569   5.207   4.084   8.244 -0.1802 -0.1264  0.5361
  975MOL0     C28570   5.171   4.022   8.341  0.8703  0.1111 -1.0582
  975MOL0     O28571   5.052   3.959   8.352 -0.4516 -0.1486  0.0004
  975MOL0     C28572   4.981   3.903   8.247  0.0853  0.1826  0.0480
  975MOL0     C28573   4.851   3.888   8.280  0.0677  0.3195  0.0272
  975MOL0     C28574   4.757   3.834   8.187  0.5498 -0.2402 -0.6212
  975MOL0     C28575   4.799   3.800   8.052 -0.2979 -0.5657 -0.8717
  975MOL0     O28576   4.690   3.767   7.982 -0.1020  0.1213  0.5312
  975MOL0     C28577   4.702   3.760   7.843  0.9806  0.2632 -0.1090
  975MOL0     C28578   4.670   3.605   7.813 -0.0417  0.4458  0.0752
  975MOL0     C28579   4.518   3.581   7.837  0.0002 -0.2593 -1.3087
  975MOL0     C28580   4.421   3.665   7.750 -0.7888 -0.6979  0.3273
  975MOL0     C28581   4.272   3.644   7.790 -1.1015 -0.1075 -1.3368
  975MOL0     C28582   4.190   3.700   7.686 -0.1927 -0.1588  0.5256
  975MOL0     C28583   4.050   3.722   7.737  0.6214 -0.1097 -0.2474
  975MOL0     C28584   3.954   3.763   7.634  0.7212 -0.1584  0.4225
  975MOL0     N28585   3.829   3.785   7.706  0.1481 -0.2339 -0.6720
  975MOL0     C28586   3.751   3.895   7.708  0.1658 -0.3010  0.4960
  975MOL0     C28587   3.632   3.868   7.773 -0.0725 -0.1998  0.1410
  975MOL0     C28588   3.511   3.950   7.812  0.8766  0.0242 -0.0380
  975MOL0     C28589   3.411   3.915   7.700 -0.3678  0.2189 -0.2693
  975MOL0     C28590   3.272   3.969   7.742 -0.8267  0.7793 -0.1584
  975MOL0     C28591   3.171   3.960   7.635 -0.6289  0.3337 -0.5040
  975MOL0     O28592   3.152   3.812   7.613  0.2323 -0.2397  0.5327
  975MOL0     C28593   3.031   3.761   7.656 -1.0139 -0.1448  0.2051
  975MOL0     C28594   3.029   3.635   7.722 -0.4089  0.1492  0.2322
  975MOL0     C28595   2.913   3.573   7.764  1.3290  0.0587  0.1985
  975MOL0     C28596   2.794   3.645   7.752  0.7033 -0.1288  0.4150
  975MOL0     C28597   2.662   3.590   7.806 -0.2030 -0.0519  0.1791
  975MOL0     O28598   2.550   3.669   7.794  0.0160 -0.4212 -0.3074
  975MOL0     C28599   2.446   3.616   7.863 -0.0742 -0.4328 -1.0487
  975MOL0     C28600   2.344   3.538   7.801 -0.6874  0.2097  0.3169
  975MOL0     C28601   2.240   3.476   7.875  0.2175 -0.2412  0.2747
  975MOL0     C28602   2.237   3.501   8.014  0.0507  0.5431 -0.9801
  975MOL0     O28603   2.136   3.463   8.108 -0.6963  0.1890  0.5142
  975MOL0     C28604   2.003   3.418   8.063  0.2073 -0.3764  0.1628
  975MOL0     C28605   1.931   3.350   8.177 -0.3101 -1.0372  0.2360
  975MOL0     C28606   1.914   3.453   8.295 -0.6305  0.0979  0.2001
  975MOL0     C28607   1.800   3.415   8.386  0.3155 -1.0307 -0.3090
  975MOL0     C28608   1.815   3.485   8.524  0.1199 -0.3262  0.0217
  975MOL0     C28609   1.710   3.438   8.630  1.1973  0.7276  0.7217
  975MOL0     C28610   1.563   3.442   8.587  0.1155  0.3057  0.3075
  975MOL0     C28611   1.473   3.439   8.718  0.5687 -0.5420 -0.5157
  975MOL0    Cl28612   1.444   3.274   8.769 -0.5086 -0.0223 -0.2092
  975MOL0     C28613   2.333   3.593   8.077  0.3929  0.1474  1.1088
  975MOL0     C28614   2.434   3.643   8.000  0.3970 -0.5846  0.3443
  975MOL0     O28615   2.669   3.478   7.852 -0.6363  0.0642 -0.1195
  975MOL0     C28616   2.789   3.765   7.694  0.7148 -0.1875  0.5133
  975MOL0     C28617   2.906   3.822   7.638 -0.2885 -0.1619  0.2930
  975MOL0     N28618   3.650   3.739   7.821 -0.4819 -0.9580  0.0759
  975MOL0     N28619   3.763   3.686   7.784 -0.0790 -0.4751 -0.2089
  975MOL0     C28620   4.933   3.824   8.017 -0.9120 -0.6150  0.2376
  975MOL0     C28621   5.024   3.871   8.119  0.4426  0.9164  0.7331
  975MOL0     C28622   5.252   4.039   8.465 -0.1995  0.5759 -0.1052
  975MOL0     C28623   5.386   4.102   8.450 -0.0539  0.4258  0.1736
  975MOL0     C28624   5.469   4.106   8.560 -0.1719  0.0672  0.4738
  975MOL0     C28625   5.423   4.069   8.683  0.2973 -0.9983 -0.4950
  975MOL0     O28626   5.500   4.087   8.799  0.3404  0.5215  0.1282
  975MOL0     C28627   5.628   4.012   8.794 -0.0576  0.6483 -0.1893
  975MOL0     C28628   5.604   3.859   8.791 -0.1351  0.1135  0.2906
  975MOL0     C28629   5.532   3.804   8.915 -0.5694  0.0842 -0.3277
  975MOL0     C28630   5.463   3.671   8.881  0.4163 -0.2956  0.2129
  975MOL0     C28631   5.574   3.572   8.883  0.4206 -0.6914 -0.5604
  975MOL0     C28632   5.670   3.505   8.901  0.3652  0.0474  0.0496
  975MOL0     C28633   5.297   4.011   8.707  0.0165 -0.0395 -0.0637
  975MOL0     C28634   5.213   3.997   8.594 -0.0499  0.1256  0.6141
  975MOL0     H28635   4.817   3.913   8.380 -2.5928 -2.2192 -0.1149
  975MOL0     H28636   4.656   3.819   8.222  1.7437  1.2708  4.2814
  975MOL0     H28637   4.804   3.768   7.804  1.0582  0.6721  0.1789
  975MOL0     H28638   4.629   3.816   7.783  0.6905  0.7223  0.6596
  975MOL0     H28639   4.729   3.529   7.864  0.2107 -1.6528 -3.0794
  975MOL0     H28640   4.682   3.566   7.711 -0.5994 -4.6159  1.6716
  975MOL0     H28641   4.496   3.587   7.944 -0.2633  0.0123 -1.3771
  975MOL0     H28642   4.499   3.479   7.801  1.1263 -1.6117  1.5928
  975MOL0     H28643   4.429   3.773   7.766 -0.1586 -0.5954 -0.6256
  975MOL0     H28644   4.452   3.645   7.647  0.5200 -0.4494  0.6562
  975MOL0     H28645   4.251   3.687   7.888  0.6496 -0.9585 -0.5612
  975MOL0     H28646   4.252   3.537   7.783  2.4915 -0.7759 -3.4432
  975MOL0     H28647   4.195   3.640   7.595 -2.9728  2.1032 -1.2926
  975MOL0     H28648   4.228   3.798   7.656 -1.5500  0.2126 -0.0796
  975MOL0     H28649   4.009   3.637   7.794  0.3759  0.0913 -0.1218
  975MOL0     H28650   4.070   3.796   7.815  3.5854  0.8798 -1.7915
  975MOL0     H28651   3.936   3.677   7.568 -3.4330 -0.3703  1.5651
  975MOL0     H28652   3.988   3.842   7.566  2.0216 -0.6293  0.4967
  975MOL0     H28653   3.774   3.995   7.671 -0.9054 -0.0241  0.5519
  975MOL0     H28654   3.534   4.057   7.808  0.8720  0.0010 -0.8797
  975MOL0     H28655   3.476   3.924   7.912  1.1531 -0.7890 -0.1432
  975MOL0     H28656   3.405   3.806   7.693  2.6667  0.0187 -1.4637
  975MOL0     H28657   3.433   3.949   7.598  0.7846 -3.0372 -1.2343
  975MOL0     H28658   3.246   3.914   7.833 -0.0681  0.1439 -0.3128
  975MOL0     H28659   3.272   4.074   7.772 -1.6470  0.9955 -0.8751
  975MOL0     H28660   3.227   4.006   7.554  2.4052 -1.4267  0.4624
  975MOL0     H28661   3.075   4.007   7.660 -0.8095  1.2033 -2.6490
  975MOL0     H28662   3.127   3.590   7.732  0.7454  2.2458 -0.9109
  975MOL0     H28663   2.912   3.473   7.808 -0.3708  0.4894  1.2741
  975MOL0     H28664   2.351   3.524   7.694 -0.8733  1.8660  0.0566
  975MOL0     H28665   2.169   3.404   7.836 -1.6986  1.1621  1.0741
  975MOL0     H28666   2.008   3.345   7.982  0.1432  0.0457 -0.2269
  975MOL0     H28667   1.936   3.498   8.029  1.9292  0.8661 -0.4625
  975MOL0     H28668   1.971   3.255   8.214  1.8278  0.0633  0.9300
  975MOL0     H28669   1.829   3.336   8.140  0.0998 -0.4952 -1.1549
  975MOL0     H28670   1.918   3.556   8.258  1.3343 -0.6977 -2.0543
  975MOL0     H28671   2.006   3.449   8.355  0.8814 -0.7820 -2.0318
  975MOL0     H28672   1.703   3.439   8.340 -0.5898 -1.0929  1.4717
  975MOL0     H28673   1.811   3.307   8.404 -1.4094 -0.9415  1.6121
  975MOL0     H28674   1.803   3.592   8.504  0.2189 -0.5358 -1.2434
  975MOL0     H28675   1.914   3.459   8.563  0.0459 -1.2567 -0.3917
  975MOL0     H28676   1.716   3.504   8.717 -1.5417  2.3242 -0.2011
  975MOL0     H28677   1.733   3.337   8.667 -5.1336 -0.2930  3.0577
  975MOL0     H28678   1.538   3.539   8.545 -1.0631  1.5149  3.4756
  975MOL0     H28679   1.527   3.357   8.529 -1.3714  0.8396  0.4120
  975MOL0     H28680   1.381   3.496   8.708 -0.2707 -1.7327  0.2028
  975MOL0     H28681   1.526   3.484   8.803 -1.1361  0.7032 -0.0587
  975MOL0     H28682   2.327   3.608   8.184  0.0543  1.6629  0.9015
  975MOL0     H28683   2.506   3.717   8.034 -0.2409  0.3556 -0.3205
  975MOL0     H28684   2.699   3.825   7.683  1.3657  0.4645 -1.9011
  975MOL0     H28685   2.900   3.909   7.574  2.7214  1.2625  1.7323
  975MOL0     H28686   4.967   3.824   7.914 -0.3354 -1.7913  0.4195
  975MOL0     H28687   5.132   3.868   8.107  0.6187 -3.0193  1.9020
  975MOL0     H28688   5.414   4.131   8.349 -1.7952 -0.8616 -0.7389
  975MOL0     H28689   5.575   4.126   8.554  0.1708 -1.5720  0.5872
  975MOL0     H28690   5.692   4.039   8.879  1.6912 -0.3217 -1.1368
  975MOL0     H28691   5.696   4.035   8.712  0.2305 -1.7568 -0.6883
  975MOL0     H28692   5.542   3.842   8.702  2.1972  4.0305 -2.3893
  975MOL0     H28693   5.702   3.811   8.783  0.0892  0.8329 -1.9542
  975MOL0     H28694   5.462   3.879   8.954  1.3367  1.7549  0.0734
  975MOL0     H28695   5.616   3.796   8.984 -0.1903 -0.0269 -0.7989
  975MOL0     H28696   5.384   3.665   8.956  0.8279  2.7844  1.0003
  975MOL0     H28697   5.416   3.680   8.782  0.7488  2.6386  0.2573
  975MOL0     H28698   5.748   3.431   8.908 -1.0986 -1.8846 -2.2479
  975MOL0     H28699   5.275   3.973   8.807  3.3395  1.3919  1.3841
  975MOL0     H28700   5.123   3.943   8.619  1.0941 -2.1647  0.0302
  976MOL0     O28701   2.959  10.051  10.114 -0.4895  0.2822  0.5796
  976MOL0     C28702   3.044   9.972  10.075 -1.1108  0.0288 -0.8058
  976MOL0     O28703   3.025   9.881   9.981  0.5725 -0.2728 -0.2066
  976MOL0     C28704   2.912   9.851   9.925  1.0687 -0.1909  0.1118
  976MOL0     C28705   2.812   9.944   9.887 -0.2704  0.3354  0.0897
  976MOL0     C28706   2.689   9.903   9.832 -0.6689 -0.5429 -0.3962
  976MOL0     C28707   2.673   9.764   9.801  0.9709 -0.1148 -0.5655
  976MOL0     O28708   2.552   9.724   9.751  0.5233 -0.4274  0.5932
  976MOL0     C28709   2.454   9.702   9.844  0.2684  0.3451 -0.1538
  976MOL0     C28710   2.319   9.756   9.796  0.3653 -0.0629  0.6654
  976MOL0     C28711   2.251   9.689   9.670 -0.5580  0.8849 -0.7286
  976MOL0     C28712   2.112   9.746   9.638 -0.0679  0.6299  0.8752
  976MOL0     C28713   1.999   9.701   9.732 -0.3686  0.3614 -0.1077
  976MOL0     C28714   1.865   9.775   9.728 -0.4302 -0.1754 -0.3262
  976MOL0     C28715   1.868   9.884   9.838 -0.3739  0.3995  0.2365
  976MOL0     C28716   1.756   9.987   9.815 -0.0235  0.0924  0.4030
  976MOL0     N28717   1.735  10.079   9.927  0.4705  0.2089  0.9707
  976MOL0     C28718   1.750  10.214   9.916 -0.2671 -0.2088 -0.3051
  976MOL0     C28719   1.729  10.255  10.043 -0.0227  0.0073 -0.2001
  976MOL0     C28720   1.752  10.400  10.076  0.4373  0.0916  0.1152
  976MOL0     C28721   1.615  10.463  10.121 -0.6281 -0.3613  0.6612
  976MOL0     C28722   1.623  10.613  10.156  0.1323  0.4911  0.5619
  976MOL0     C28723   1.491  10.681  10.169 -0.6103 -0.3852 -0.2697
  976MOL0     O28724   1.416  10.591  10.246  0.2620 -0.1860 -0.9918
  976MOL0     C28725   1.291  10.564  10.215  0.3700  0.3913  0.7250
  976MOL0     C28726   1.246  10.446  10.275 -0.5532 -0.5699  0.7521
  976MOL0     C28727   1.115  10.409  10.272 -0.0073 -0.6482  0.9024
  976MOL0     C28728   1.016  10.499  10.215 -0.5271  0.0256 -0.4334
  976MOL0     C28729   0.877  10.467  10.206 -0.1967 -0.6899 -0.0177
  976MOL0     O28730   0.803  10.538  10.111  0.6665  0.3229  0.9290
  976MOL0     C28731   0.663  10.521  10.105  0.2946 -0.1564 -0.3289
  976MOL0     C28732   0.579  10.429  10.172 -0.4135  0.1325 -0.7526
  976MOL0     C28733   0.442  10.436  10.156 -0.3697  0.5215 -0.7139
  976MOL0     C28734   0.384  10.521  10.063  0.1451 -0.0239  0.3717
  976MOL0     O28735   0.249  10.546  10.053  0.6732  0.2811 -0.2113
  976MOL0     C28736   0.157  10.438  10.064 -0.2270  0.8043  0.1667
  976MOL0     C28737   0.047  10.439   9.967  0.5833  1.2379  1.0635
  976MOL0     C28738  -0.084  10.507  10.008 -0.6008  0.0548  0.2626
  976MOL0     C28739  -0.072  10.649  10.059 -0.2720 -0.2877 -0.0311
  976MOL0     C28740  -0.199  10.704  10.120  0.0290  0.2548 -0.3094
  976MOL0     C28741  -0.175  10.855  10.144  0.0697  1.1125  0.4308
  976MOL0     C28742  -0.295  10.939  10.188  0.0443 -1.0524 -0.9245
  976MOL0     C28743  -0.273  11.095  10.155  0.1301 -0.3550  0.7489
  976MOL0    Cl28744  -0.186  11.188  10.279 -0.1900 -0.4084  0.3197
  976MOL0     C28745   0.473  10.606   9.992  0.5003 -0.1215 -0.8788
  976MOL0     C28746   0.607  10.610  10.018  0.4571  0.0930 -0.1283
  976MOL0     O28747   0.836  10.375  10.275  0.5183 -0.4635 -0.6526
  976MOL0     C28748   1.067  10.630  10.164  0.8531  0.1565 -1.1174
  976MOL0     C28749   1.203  10.661  10.164 -0.2235  0.1810  0.2469
  976MOL0     N28750   1.673  10.156  10.119 -0.3671 -0.1603 -0.1206
  976MOL0     N28751   1.685  10.051  10.052 -0.0982  0.7043  0.6300
  976MOL0     C28752   2.774   9.675   9.825  0.3781 -0.0453 -0.1323
  976MOL0     C28753   2.886   9.718   9.897  0.0503  0.3642  0.1799
  976MOL0     C28754   3.180   9.987  10.128 -0.6307  0.1060 -0.2048
  976MOL0     C28755   3.293   9.926  10.053  0.8355 -0.1690  0.0673
  976MOL0     C28756   3.428   9.948  10.093  0.0294  0.3387 -0.3652
  976MOL0     C28757   3.463  10.019  10.201 -0.1843 -0.5721 -0.3322
  976MOL0     O28758   3.601  10.039  10.232 -0.0705 -0.7485  0.4300
  976MOL0     C28759   3.643  10.107  10.346 -0.3994 -0.5234  0.3024
  976MOL0     C28760   3.798  10.115  10.314  0.6018 -0.2187 -0.0093
  976MOL0     C28761   3.885   9.990  10.355  1.4324 -0.0173 -0.4813
  976MOL0     C28762   4.018   9.968  10.280 -0.2768  0.6434 -0.2639
  976MOL0     C28763   4.102  10.078  10.325 -0.1458  0.2484  0.0160
  976MOL0     C28764   4.162  10.176  10.367 -0.7632  0.1187  0.2857
  976MOL0     C28765   3.355  10.076  10.268  0.5882  0.0390  0.0569
  976MOL0     C28766   3.215  10.062  10.241 -0.5682 -0.1480  0.1466
  976MOL0     H28767   2.828  10.049   9.907 -1.6721  0.5146  0.3824
  976MOL0     H28768   2.609   9.968   9.797 -1.2518 -2.2835 -2.4563
  976MOL0     H28769   2.473   9.747   9.941 -1.9664 -0.6983  0.8397
  976MOL0     H28770   2.445   9.594   9.860 -0.6593  0.2667 -1.0636
  976MOL0     H28771   2.318   9.865   9.793 -1.6888 -0.0736 -1.9947
  976MOL0     H28772   2.254   9.731   9.880 -0.7115  1.2578  0.2519
  976MOL0     H28773   2.239   9.582   9.687  0.1937  0.9970  0.6122
  976MOL0     H28774   2.327   9.703   9.593  0.0481  2.1413  0.0596
  976MOL0     H28775   2.127   9.853   9.656  1.4654  1.1511 -2.7458
  976MOL0     H28776   2.085   9.717   9.536  1.4935 -1.5193  0.9914
  976MOL0     H28777   2.030   9.683   9.836  0.0305 -2.5144 -0.6299
  976MOL0     H28778   1.977   9.599   9.697  4.8613 -0.7174 -1.0117
  976MOL0     H28779   1.778   9.711   9.746 -2.5220  1.5007 -3.4736
  976MOL0     H28780   1.858   9.826   9.631  0.5289  2.3923  0.8461
  976MOL0     H28781   1.860   9.837   9.936  1.6818 -0.6993 -0.0769
  976MOL0     H28782   1.955   9.949   9.830  1.5007 -1.9335  0.6571
  976MOL0     H28783   1.662   9.934   9.799 -0.6229  0.6601  1.9398
  976MOL0     H28784   1.780  10.063   9.740 -0.1765  2.0856  2.2914
  976MOL0     H28785   1.775  10.276   9.830 -2.1832  0.2078 -0.6008
  976MOL0     H28786   1.793  10.453   9.989 -0.7002  0.4942 -0.1882
  976MOL0     H28787   1.819  10.397  10.163  0.2098 -0.3043  0.2764
  976MOL0     H28788   1.586  10.398  10.205  2.7529 -4.2584 -0.8198
  976MOL0     H28789   1.546  10.444  10.039  0.0094  0.4001 -0.0724
  976MOL0     H28790   1.673  10.610  10.254  3.7882 -4.5312 -1.0566
  976MOL0     H28791   1.686  10.667  10.086 -0.0025  1.9441  1.5033
  976MOL0     H28792   1.446  10.701  10.071  1.0467 -0.0460 -1.0053
  976MOL0     H28793   1.512  10.779  10.213  0.7717 -0.3917 -0.8461
  976MOL0     H28794   1.314  10.373  10.318  2.2843  1.6790  0.3775
  976MOL0     H28795   1.082  10.311  10.307 -1.6082 -1.1959 -1.7962
  976MOL0     H28796   0.620  10.361  10.246 -0.0727 -0.6252 -1.6139
  976MOL0     H28797   0.376  10.367  10.206  0.9635 -0.2144  0.1036
  976MOL0     H28798   0.125  10.440  10.169  3.0274 -1.5054  1.3966
  976MOL0     H28799   0.202  10.339  10.046 -0.6827  1.0978 -3.1457
  976MOL0     H28800   0.020  10.334   9.952 -0.7709  0.6846  5.6808
  976MOL0     H28801   0.078  10.469   9.867  0.5763 -0.9034  0.3582
  976MOL0     H28802  -0.127  10.447  10.089  1.3221  0.7225  1.8628
  976MOL0     H28803  -0.149  10.516   9.921 -0.9346  1.5023  0.6360
  976MOL0     H28804   0.011  10.663  10.129 -2.6238 -1.7674  3.3465
  976MOL0     H28805  -0.047  10.705   9.969  0.5936 -0.9944 -0.2516
  976MOL0     H28806  -0.217  10.661  10.219  0.5633  0.3213 -0.1808
  976MOL0     H28807  -0.284  10.680  10.055 -0.7035 -1.3193  1.1375
  976MOL0     H28808  -0.144  10.905  10.051 -0.4735  0.5252 -0.0818
  976MOL0     H28809  -0.092  10.870  10.213  1.1011 -0.5512 -0.3838
  976MOL0     H28810  -0.381  10.905  10.130  0.2343 -1.4350 -0.9827
  976MOL0     H28811  -0.325  10.916  10.291 -0.9491 -5.1913 -1.9838
  976MOL0     H28812  -0.376  11.132  10.158  0.5099  0.8025 -0.1852
  976MOL0     H28813  -0.219  11.108  10.061  1.2224  2.5442  1.6483
  976MOL0     H28814   0.438  10.694   9.940 -0.6051  2.2011  3.3119
  976MOL0     H28815   0.680  10.680   9.978  1.2175 -1.3806 -1.4887
  976MOL0     H28816   0.995  10.705  10.135 -1.2505 -2.4618 -3.1383
  976MOL0     H28817   1.233  10.763  10.139 -3.2355  1.0067 -0.3845
  976MOL0     H28818   2.771   9.569   9.800 -0.4963 -0.4677  1.5681
  976MOL0     H28819   2.967   9.646   9.905 -1.1115 -0.8073  2.7423
  976MOL0     H28820   3.274   9.863   9.967 -3.8264  0.9553  0.0089
  976MOL0     H28821   3.512   9.900  10.044  2.4968  0.7685  3.0979
  976MOL0     H28822   3.633  10.070  10.448  0.4711 -0.5326  0.3954
  976MOL0     H28823   3.599  10.206  10.354  0.6216 -0.0342  0.0405
  976MOL0     H28824   3.812  10.138  10.208 -2.7711 -0.1545 -0.5570
  976MOL0     H28825   3.841  10.195  10.376  2.7317 -3.4716  3.1253
  976MOL0     H28826   3.825   9.900  10.340  2.2925 -0.6447 -0.2827
  976MOL0     H28827   3.899   9.975  10.462 -3.2769 -1.2119  0.1761
  976MOL0     H28828   4.063   9.876  10.319 -2.6284 -1.1222 -1.4340
  976MOL0     H28829   4.000   9.971  10.172  0.8521 -0.3357 -0.4936
  976MOL0     H28830   4.214  10.264  10.397  0.9996 -1.1411  1.1440
  976MOL0     H28831   3.370  10.127  10.363 -1.0354 -1.6758  1.3103
  976MOL0     H28832   3.141  10.113  10.302  0.1667 -0.1747  1.0890
  977MOL0     O28833  10.315  11.123   4.115  0.0725  0.0525  0.2346
  977MOL0     C28834  10.349  11.017   4.161 -0.0615 -0.4426  0.1000
  977MOL0     O28835  10.271  10.926   4.223  0.1240 -0.5474 -0.0847
  977MOL0     C28836  10.141  10.950   4.213 -0.7786 -0.1311 -0.5743
  977MOL0     C28837  10.071  10.880   4.119 -0.3544 -0.3792  1.0788
  977MOL0     C28838   9.940  10.896   4.106  0.4702 -0.3718  0.2473
  977MOL0     C28839   9.870  10.976   4.183  0.3219  0.2873 -1.3339
  977MOL0     O28840   9.735  10.985   4.177  0.5492  0.2836  0.3985
  977MOL0     C28841   9.658  11.055   4.274 -0.2693  0.0668 -0.6283
  977MOL0     C28842   9.521  11.065   4.210  0.6058 -0.4182 -0.5604
  977MOL0     C28843   9.409  11.107   4.309 -0.3016 -0.1307  0.0187
  977MOL0     C28844   9.372  10.982   4.404  0.3168 -0.3641  0.1698
  977MOL0     C28845   9.287  11.015   4.525 -0.6479 -0.5265 -0.4042
  977MOL0     C28846   9.159  11.089   4.483 -1.0851 -0.6442  1.0381
  977MOL0     C28847   9.072  11.087   4.609  0.5354 -0.2499  0.0442
  977MOL0     C28848   8.933  11.142   4.567  0.3747 -0.3298 -0.1951
  977MOL0     N28849   8.841  11.147   4.686 -0.4821  0.5289 -0.1755
  977MOL0     C28850   8.750  11.050   4.729  0.9509 -0.4249  0.0526
  977MOL0     C28851   8.720  11.087   4.855  0.0072 -0.2507 -0.3557
  977MOL0     C28852   8.640  11.020   4.962 -0.0732  0.8559 -0.2546
  977MOL0     C28853   8.491  11.057   4.943 -0.3913  0.7135  0.4487
  977MOL0     C28854   8.387  10.953   5.005  0.3763  0.7945  0.2853
  977MOL0     C28855   8.364  10.831   4.922 -1.0924  0.4693  1.5661
  977MOL0     O28856   8.315  10.873   4.786  0.1955 -0.8176  0.0365
  977MOL0     C28857   8.178  10.896   4.772 -0.1173  0.1177  0.6766
  977MOL0     C28858   8.133  11.030   4.760  0.6578  0.5343  0.0572
  977MOL0     C28859   7.999  11.056   4.766  0.1373 -0.2460  0.3343
  977MOL0     C28860   7.904  10.958   4.783  0.2482 -0.0203  0.4013
  977MOL0     C28861   7.759  10.993   4.794  0.0991  0.5451 -0.7666
  977MOL0     O28862   7.709  11.115   4.736 -0.5520  0.4834 -0.2933
  977MOL0     C28863   7.577  11.161   4.743 -0.1307 -0.1611  0.1543
  977MOL0     C28864   7.477  11.083   4.808  0.1082 -0.0333  0.4271
  977MOL0     C28865   7.360  11.150   4.836  0.3512  0.3223 -0.1320
  977MOL0     C28866   7.338  11.287   4.798 -0.8192  0.7075 -0.1635
  977MOL0     O28867   7.232  11.360   4.827  0.4437 -0.0176  0.1953
  977MOL0     C28868   7.131  11.308   4.912  0.3104 -0.6215  0.0958
  977MOL0     C28869   7.036  11.420   4.969 -0.3031  0.3351 -0.4567
  977MOL0     C28870   6.995  11.510   4.856  0.5422 -0.0363  0.2618
  977MOL0     C28871   6.894  11.447   4.768  0.1867 -0.4896  1.0127
  977MOL0     C28872   6.840  11.555   4.679  0.7194  0.0266  0.6464
  977MOL0     C28873   6.759  11.496   4.562  0.7925  0.3629  0.6712
  977MOL0     C28874   6.680  11.608   4.486 -0.0088  0.1808  0.5304
  977MOL0     C28875   6.622  11.573   4.350 -0.5963  0.5554  0.2331
  977MOL0    Cl28876   6.744  11.522   4.239  0.0109  0.1276 -0.5274
  977MOL0     C28877   7.437  11.349   4.728 -0.7033  0.1508 -0.1500
  977MOL0     C28878   7.556  11.281   4.693 -0.4851 -0.1507 -0.3894
  977MOL0     O28879   7.697  10.901   4.852  0.2373 -0.8611 -0.2316
  977MOL0     C28880   7.953  10.828   4.797  0.2232  0.7978  0.3733
  977MOL0     C28881   8.084  10.798   4.804  0.2603 -0.4650  0.7608
  977MOL0     N28882   8.780  11.210   4.882  0.5238 -0.5693  0.1391
  977MOL0     N28883   8.842  11.246   4.781 -0.2521  0.0091 -0.2521
  977MOL0     C28884   9.949  11.061   4.272  0.4185  0.3599  0.3097
  977MOL0     C28885  10.086  11.047   4.294  0.3295  0.7646  0.2756
  977MOL0     C28886  10.489  10.993   4.169  0.8386  0.6449 -0.5956
  977MOL0     C28887  10.533  10.866   4.188  0.4726  0.1483 -0.1422
  977MOL0     C28888  10.665  10.840   4.198 -0.5843 -0.0071  0.9010
  977MOL0     C28889  10.755  10.937   4.157  0.4981 -0.9881  0.2681
  977MOL0     O28890  10.880  10.897   4.166  0.1592 -0.6258 -0.0188
  977MOL0     C28891  10.990  10.967   4.107 -0.1411 -0.4981  0.1857
  977MOL0     C28892  11.050  11.080   4.195  0.6562  0.3343  0.1805
  977MOL0     C28893  11.131  11.020   4.310  0.4177  0.1809  0.2824
  977MOL0     C28894  11.202  11.134   4.392 -0.2238 -1.0833 -0.2893
  977MOL0     C28895  11.302  11.071   4.478 -0.3362 -0.9049 -0.7848
  977MOL0     C28896  11.379  11.016   4.551  1.2507  0.3647 -0.2940
  977MOL0     C28897  10.708  11.066   4.142  0.5666 -0.4443  0.0952
  977MOL0     C28898  10.579  11.099   4.150  0.2874  0.1269  0.1356
  977MOL0     H28899  10.126  10.809   4.058 -0.9551  0.6329 -0.7038
  977MOL0     H28900   9.878  10.841   4.036  1.8120 -0.3592 -0.9994
  977MOL0     H28901   9.683  11.160   4.296 -0.6081  0.4308 -1.8903
  977MOL0     H28902   9.658  10.981   4.354  1.3139  0.2860 -0.3873
  977MOL0     H28903   9.489  10.982   4.145 -0.4624 -1.0492  0.7052
  977MOL0     H28904   9.517  11.151   4.142 -1.0265  3.0750  3.5117
  977MOL0     H28905   9.325  11.140   4.248  0.9345  2.6661 -0.3283
  977MOL0     H28906   9.453  11.187   4.369  1.9966 -0.7671 -0.7006
  977MOL0     H28907   9.309  10.920   4.340 -1.6028  1.3406  0.2826
  977MOL0     H28908   9.462  10.925   4.430  1.3801  1.5633  0.9882
  977MOL0     H28909   9.345  11.066   4.603  2.8518 -1.0719 -2.4126
  977MOL0     H28910   9.257  10.923   4.575  4.0714 -1.6971  0.8442
  977MOL0     H28911   9.107  11.039   4.401  0.4461  1.1761 -1.2027
  977MOL0     H28912   9.172  11.195   4.459 -1.0915 -0.3788  2.1471
  977MOL0     H28913   9.057  10.984   4.643  1.1349 -1.4626 -2.9791
  977MOL0     H28914   9.116  11.151   4.685  0.1370 -1.6984  1.5659
  977MOL0     H28915   8.884  11.101   4.479 -0.3932 -0.9039  0.4815
  977MOL0     H28916   8.945  11.247   4.540  1.2934 -0.7161 -1.3769
  977MOL0     H28917   8.726  10.956   4.680  0.3341 -0.0215 -0.4510
  977MOL0     H28918   8.666  11.054   5.063 -0.8572 -0.4811  0.4275
  977MOL0     H28919   8.649  10.911   4.954 -2.2351  0.6959 -1.3832
  977MOL0     H28920   8.468  11.076   4.838 -5.2048  0.0009  1.1655
  977MOL0     H28921   8.481  11.152   4.997  1.7194  0.4304  1.4645
  977MOL0     H28922   8.431  10.927   5.101 -2.7072  0.6893  1.7832
  977MOL0     H28923   8.293  11.009   5.006  0.8047  1.7629 -2.7236
  977MOL0     H28924   8.301  10.763   4.979  0.4878 -2.4371  0.0563
  977MOL0     H28925   8.458  10.779   4.901 -1.1799  1.6052 -2.4594
  977MOL0     H28926   8.212  11.103   4.745 -0.1965  1.5169  0.1927
  977MOL0     H28927   7.976  11.162   4.759  2.7749  0.4100  0.5674
  977MOL0     H28928   7.472  10.992   4.867 -3.6615  0.8098  1.6314
  977MOL0     H28929   7.281  11.098   4.888 -0.9705  2.2028 -0.1326
  977MOL0     H28930   7.168  11.246   4.993 -0.0739  0.9757  1.5564
  977MOL0     H28931   7.069  11.237   4.855 -0.4690  0.2556 -0.1929
  977MOL0     H28932   7.096  11.479   5.040 -1.2509  0.9949 -0.1835
  977MOL0     H28933   6.958  11.368   5.026  1.6314 -3.7891 -1.1629
  977MOL0     H28934   7.082  11.535   4.794 -0.0333 -4.5764 -2.7924
  977MOL0     H28935   6.964  11.606   4.900  3.0287  0.4508  1.1281
  977MOL0     H28936   6.940  11.367   4.709  1.2015 -0.0325  1.1514
  977MOL0     H28937   6.823  11.397   4.834  0.3275 -3.5131 -0.9296
  977MOL0     H28938   6.922  11.603   4.626 -1.9037  0.4574 -3.4924
  977MOL0     H28939   6.789  11.630   4.739  4.2643  3.4840 -0.2899
  977MOL0     H28940   6.700  11.411   4.596  0.6903 -0.5149 -1.5811
  977MOL0     H28941   6.834  11.465   4.489 -0.3068  0.9089 -0.7384
  977MOL0     H28942   6.599  11.646   4.548 -0.0487  0.2149  0.4589
  977MOL0     H28943   6.748  11.692   4.465  0.1104 -0.0722 -0.1305
  977MOL0     H28944   6.563  11.656   4.310  0.1713  1.1336  0.2778
  977MOL0     H28945   6.561  11.486   4.374  0.2592 -0.9005 -2.4592
  977MOL0     H28946   7.410  11.451   4.702  0.3663  0.6926  0.7610
  977MOL0     H28947   7.635  11.331   4.638 -0.7672 -0.9595 -1.5857
  977MOL0     H28948   7.878  10.750   4.805 -0.4691  1.3422 -0.5981
  977MOL0     H28949   8.109  10.695   4.827 -2.9201 -0.7369  3.8481
  977MOL0     H28950   9.900  11.140   4.328 -0.1489  0.5141 -0.3919
  977MOL0     H28951  10.139  11.117   4.358  4.5247 -0.4143 -1.5485
  977MOL0     H28952  10.459  10.788   4.200  1.5910 -0.7406  1.4110
  977MOL0     H28953  10.711  10.747   4.229  2.2552  0.9573 -0.0795
  977MOL0     H28954  10.954  11.019   4.018  1.7022 -2.5487 -1.8715
  977MOL0     H28955  11.064  10.890   4.082 -1.6414 -1.8420 -0.3094
  977MOL0     H28956  11.111  11.140   4.127 -0.0944 -0.1131 -0.9289
  977MOL0     H28957  10.968  11.138   4.238  0.1422 -0.7515  0.7138
  977MOL0     H28958  11.203  10.949   4.266 -1.6324 -1.8552  0.0124
  977MOL0     H28959  11.071  10.966   4.383 -3.2840  0.5705 -2.1991
  977MOL0     H28960  11.255  11.206   4.329 -1.1483  1.2102  1.3827
  977MOL0     H28961  11.127  11.181   4.456  0.0249 -2.8572  1.3751
  977MOL0     H28962  11.447  10.952   4.603 -0.8574 -0.3635  1.7412
  977MOL0     H28963  10.781  11.143   4.119  1.8893 -0.9804  2.2354
  977MOL0     H28964  10.548  11.202   4.135 -0.0691  0.3340  2.0429
  978MOL0     O28965   3.052   9.521   0.454 -0.0016  0.8905 -0.0671
  978MOL0     C28966   3.142   9.512   0.368  0.0779  0.6441  0.0079
  978MOL0     O28967   3.115   9.506   0.237 -0.3943 -0.0320  0.1231
  978MOL0     C28968   2.981   9.488   0.210 -0.2338 -0.1873  0.0887
  978MOL0     C28969   2.918   9.360   0.221  0.3171  0.8525  0.5078
  978MOL0     C28970   2.805   9.337   0.152  1.3114  0.8238 -0.2446
  978MOL0     C28971   2.727   9.437   0.092  0.2122  0.5642  1.0652
  978MOL0     O28972   2.618   9.394   0.017 -0.0293 -0.9644  0.3828
  978MOL0     C28973   2.545   9.500  -0.057  0.2209  0.1277 -0.4787
  978MOL0     C28974   2.415   9.439  -0.104  0.1551  0.8866 -0.1654
  978MOL0     C28975   2.343   9.543  -0.198 -0.3408 -0.4476  0.7030
  978MOL0     C28976   2.194   9.526  -0.192  0.4809 -0.1340  0.0605
  978MOL0     C28977   2.119   9.632  -0.268 -0.0902  0.1699 -0.6839
  978MOL0     C28978   1.982   9.574  -0.298 -0.5670  0.2980 -1.3253
  978MOL0     C28979   1.883   9.674  -0.346  0.5681 -0.2430 -0.2036
  978MOL0     C28980   1.858   9.789  -0.241 -0.7531  0.7438  0.0963
  978MOL0     N28981   1.827   9.738  -0.104  0.2164 -0.4883  0.8804
  978MOL0     C28982   1.702   9.714  -0.055  0.3578  0.1889  0.3988
  978MOL0     C28983   1.714   9.691   0.080 -0.2053 -0.2964 -0.0567
  978MOL0     C28984   1.605   9.675   0.189 -0.3676  0.9376  1.1589
  978MOL0     C28985   1.552   9.807   0.258 -0.4243  0.4668  0.3503
  978MOL0     C28986   1.414   9.798   0.315  0.3390  0.3247  0.4544
  978MOL0     C28987   1.363   9.930   0.364 -0.9764  0.1789  0.1167
  978MOL0     O28988   1.239   9.908   0.430 -0.1159  0.3843 -0.0713
  978MOL0     C28989   1.123   9.919   0.354 -0.1061 -1.0724 -1.3100
  978MOL0     C28990   1.109   9.941   0.213 -0.3892 -0.1110 -1.0548
  978MOL0     C28991   0.987   9.929   0.151  1.3022  0.3675 -0.0595
  978MOL0     C28992   0.878   9.897   0.227  0.0384  0.2261  0.8250
  978MOL0     C28993   0.744   9.898   0.164  0.6468 -0.0870  0.2790
  978MOL0     O28994   0.746   9.921   0.026 -0.4008 -0.2228  0.2178
  978MOL0     C28995   0.631   9.903  -0.051 -0.5284  0.3596  0.1284
  978MOL0     C28996   0.642   9.812  -0.155 -0.1552  0.1355 -0.0127
  978MOL0     C28997   0.530   9.783  -0.236 -0.6442 -0.4976 -0.8831
  978MOL0     C28998   0.405   9.843  -0.199  0.3431  0.2637 -0.4894
  978MOL0     O28999   0.289   9.817  -0.265  0.1635  0.1041  0.3799
  978MOL0     C29000   0.237   9.685  -0.255  0.4262  0.3506  0.0069
  978MOL0     C29001   0.138   9.653  -0.355  0.5247 -0.4494  0.7676
  978MOL0     C29002   0.029   9.763  -0.360 -0.2632  0.4950  0.6861
  978MOL0     C29003  -0.100   9.704  -0.421 -0.1314  0.9924 -0.1972
  978MOL0     C29004  -0.205   9.805  -0.458  0.0005  0.4424  0.2840
  978MOL0     C29005  -0.263   9.873  -0.327  0.2364  0.2652  0.2571
  978MOL0     C29006  -0.361   9.983  -0.361  0.3530  0.3370  0.1874
  978MOL0     C29007  -0.416  10.041  -0.231 -0.2003  0.0281 -0.0642
  978MOL0    Cl29008  -0.284  10.136  -0.158  0.0411 -0.0931 -0.2361
  978MOL0     C29009   0.392   9.931  -0.091 -0.4140  0.4951  0.4598
  978MOL0     C29010   0.507   9.957  -0.010  0.7113 -0.2651 -0.7475
  978MOL0     O29011   0.646   9.847   0.220  0.3357 -0.1845 -0.2721
  978MOL0     C29012   0.887   9.882   0.368  0.4354  0.6121 -0.2798
  978MOL0     C29013   1.013   9.889   0.426  0.2356 -0.4876  0.3621
  978MOL0     N29014   1.852   9.708   0.111 -0.6598  0.6468 -0.1904
  978MOL0     N29015   1.918   9.726  -0.001  0.3934  0.1692 -0.7187
  978MOL0     C29016   2.780   9.569   0.103 -0.8566 -0.1293 -0.1808
  978MOL0     C29017   2.904   9.594   0.162  0.7410 -0.5167 -0.0010
  978MOL0     C29018   3.276   9.504   0.423  0.5648 -1.0466  0.7676
  978MOL0     C29019   3.354   9.410   0.378 -0.7992  0.4279  0.0890
  978MOL0     C29020   3.477   9.391   0.447 -0.3565  0.9234  0.1889
  978MOL0     C29021   3.513   9.465   0.555 -0.3796 -0.9533 -0.1233
  978MOL0     O29022   3.638   9.471   0.619  0.2534  0.2932  0.4110
  978MOL0     C29023   3.736   9.396   0.556  0.0616  0.0611 -0.2111
  978MOL0     C29024   3.879   9.431   0.603 -0.4788  0.1527 -0.8474
  978MOL0     C29025   3.982   9.366   0.515 -0.7646 -0.3579  0.7227
  978MOL0     C29026   4.116   9.412   0.565  0.2946 -0.3945 -0.9961
  978MOL0     C29027   4.228   9.353   0.489 -0.0862 -0.3317 -0.2114
  978MOL0     C29028   4.329   9.305   0.440 -0.1906  1.1080 -0.0559
  978MOL0     C29029   3.424   9.554   0.599 -0.6308 -1.0935 -0.2003
  978MOL0     C29030   3.299   9.579   0.536  0.2473  0.1356  0.4557
  978MOL0     H29031   2.978   9.281   0.264  1.2488 -0.2778 -2.6063
  978MOL0     H29032   2.775   9.232   0.150  0.9379  0.9348 -0.4807
  978MOL0     H29033   2.606   9.539  -0.139  1.3553  1.8081  1.0816
  978MOL0     H29034   2.529   9.594  -0.004 -0.4889  0.3587 -1.0749
  978MOL0     H29035   2.358   9.422  -0.012  2.0962 -0.8014  0.8012
  978MOL0     H29036   2.432   9.347  -0.159  0.3269  0.4632  0.5818
  978MOL0     H29037   2.380   9.532  -0.300 -1.5276  0.7424  0.1123
  978MOL0     H29038   2.378   9.642  -0.166  1.1056 -0.8993  0.5737
  978MOL0     H29039   2.173   9.429  -0.237  1.6632 -0.2463 -0.3035
  978MOL0     H29040   2.163   9.533  -0.088 -1.3926 -2.2990 -0.2944
  978MOL0     H29041   2.176   9.670  -0.353  2.9305  0.8823  1.5202
  978MOL0     H29042   2.113   9.723  -0.208 -0.5266  0.2370 -0.8211
  978MOL0     H29043   1.945   9.527  -0.207 -0.0426 -1.4659 -1.9967
  978MOL0     H29044   1.985   9.497  -0.376  2.2143  0.6281 -1.6383
  978MOL0     H29045   1.932   9.713  -0.436  2.8186 -2.6135 -0.1240
  978MOL0     H29046   1.788   9.630  -0.378  0.7399  0.9419 -2.5524
  978MOL0     H29047   1.787   9.860  -0.284  0.1237  0.7373 -1.4597
  978MOL0     H29048   1.951   9.846  -0.243  0.8021 -1.5623 -3.1329
  978MOL0     H29049   1.603   9.696  -0.096  1.3062 -0.9851 -1.5230
  978MOL0     H29050   1.638   9.620   0.277 -0.0213  0.7248  0.8976
  978MOL0     H29051   1.524   9.624   0.137  1.2214 -0.5566  0.0408
  978MOL0     H29052   1.557   9.878   0.175  1.6954  1.6338  1.3683
  978MOL0     H29053   1.625   9.839   0.333  0.0503 -4.1157  2.1675
  978MOL0     H29054   1.347   9.750   0.243  2.6870 -5.0598  1.4127
  978MOL0     H29055   1.423   9.730   0.399  1.2564 -0.7070 -0.4460
  978MOL0     H29056   1.368   9.993   0.275  0.8140 -1.0861 -0.7627
  978MOL0     H29057   1.437   9.968   0.434 -0.6609  0.2895 -0.2708
  978MOL0     H29058   1.189   9.966   0.144  0.3966  0.6410  0.0933
  978MOL0     H29059   0.986   9.938   0.042 -0.0426 -0.8323 -0.1731
  978MOL0     H29060   0.739   9.767  -0.173  0.3198  0.7044  1.0364
  978MOL0     H29061   0.536   9.711  -0.317 -0.1413 -0.6679 -0.6957
  978MOL0     H29062   0.189   9.685  -0.157 -1.2286 -1.7910 -0.7266
  978MOL0     H29063   0.310   9.603  -0.248  1.5299  1.2656 -0.4275
  978MOL0     H29064   0.111   9.552  -0.323 -0.3444 -0.2741  0.6000
  978MOL0     H29065   0.194   9.647  -0.449  0.4462  2.1752  0.4880
  978MOL0     H29066   0.064   9.845  -0.423  0.6380  0.2973  0.9130
  978MOL0     H29067   0.002   9.798  -0.259 -1.0299  0.1966  0.5983
  978MOL0     H29068  -0.083   9.653  -0.517 -4.4744 -1.6761  0.2190
  978MOL0     H29069  -0.134   9.623  -0.356  0.9243  0.1889 -0.6090
  978MOL0     H29070  -0.286   9.753  -0.509 -0.4325 -1.4026  2.6622
  978MOL0     H29071  -0.165   9.885  -0.522 -0.6503  0.2165 -0.4130
  978MOL0     H29072  -0.185   9.921  -0.269  1.9220 -0.8366 -1.0114
  978MOL0     H29073  -0.307   9.800  -0.258  0.2257  1.5934  1.6769
  978MOL0     H29074  -0.328  10.072  -0.417  0.0328 -0.6035 -1.5655
  978MOL0     H29075  -0.448   9.939  -0.410  1.4053  0.7362 -2.1869
  978MOL0     H29076  -0.452   9.969  -0.156 -1.6910  2.3997  1.6168
  978MOL0     H29077  -0.507  10.099  -0.250 -0.2464  0.0591  0.2447
  978MOL0     H29078   0.300   9.986  -0.072  0.6309  3.3929 -2.1511
  978MOL0     H29079   0.497  10.022   0.076 -1.8621 -0.4211 -0.8381
  978MOL0     H29080   0.796   9.858   0.422 -0.8342  4.4839 -0.4542
  978MOL0     H29081   1.023   9.849   0.526 -1.8605  1.2828  1.3718
  978MOL0     H29082   2.715   9.650   0.072  0.8153  1.0439 -0.7506
  978MOL0     H29083   2.947   9.693   0.176  1.9980 -1.4184  3.6341
  978MOL0     H29084   3.321   9.347   0.295  0.2975 -0.4524  0.2857
  978MOL0     H29085   3.542   9.316   0.402  1.7131  1.0457  2.7522
  978MOL0     H29086   3.734   9.426   0.451  1.2106 -1.1469 -0.6039
  978MOL0     H29087   3.728   9.287   0.561 -0.6503  0.1523  1.0093
  978MOL0     H29088   3.891   9.540   0.609 -1.3820  0.1832  1.4845
  978MOL0     H29089   3.891   9.390   0.704  1.6754  1.1935 -0.6148
  978MOL0     H29090   3.969   9.408   0.415 -0.1457 -0.2681  0.6753
  978MOL0     H29091   3.969   9.257   0.506  1.0745 -0.4285 -4.8846
  978MOL0     H29092   4.130   9.520   0.554 -1.3754  0.0732  0.9758
  978MOL0     H29093   4.133   9.387   0.670 -1.0978  0.3631 -0.5634
  978MOL0     H29094   4.392   9.248   0.375 -2.1824 -0.9204 -0.3642
  978MOL0     H29095   3.457   9.612   0.685  2.4948 -1.1590 -1.2455
  978MOL0     H29096   3.242   9.648   0.597  2.8219  3.6675 -0.8224
  979MOL0     O29097   2.002   6.448   2.776  0.3215  1.0889 -0.6474
  979MOL0     C29098   2.072   6.346   2.784 -0.1595 -0.1649 -0.4015
  979MOL0     O29099   2.030   6.210   2.801  0.6730  0.0348  0.6069
  979MOL0     C29100   1.898   6.190   2.842 -0.2385  0.6935 -0.9262
  979MOL0     C29101   1.811   6.280   2.905  0.5641 -0.2396 -0.3938
  979MOL0     C29102   1.679   6.247   2.950 -0.2235  0.3943 -0.5245
  979MOL0     C29103   1.630   6.118   2.930  0.0669  0.1131 -0.2745
  979MOL0     O29104   1.507   6.096   2.986 -0.8423 -0.0501  0.3154
  979MOL0     C29105   1.428   5.989   2.930  0.2471 -0.7825  0.0008
  979MOL0     C29106   1.284   6.010   2.980 -0.7831  1.0629 -0.3171
  979MOL0     C29107   1.254   5.991   3.120  0.9533 -1.0528 -0.4763
  979MOL0     C29108   1.100   6.000   3.143 -0.0175 -0.1579 -0.1410
  979MOL0     C29109   1.077   6.026   3.294  0.6741  0.2078  0.2135
  979MOL0     C29110   0.931   6.027   3.325  0.4052 -0.0869  0.3789
  979MOL0     C29111   0.894   6.083   3.467 -0.1618  0.2847  0.8746
  979MOL0     C29112   0.743   6.043   3.496 -0.0154  0.2044  0.3409
  979MOL0     N29113   0.706   6.066   3.636 -0.0243 -0.2029  0.3916
  979MOL0     C29114   0.662   6.198   3.671  0.0797  0.1922  0.2281
  979MOL0     C29115   0.623   6.184   3.801 -1.0714  0.2400 -0.1235
  979MOL0     C29116   0.575   6.295   3.891  0.5417  0.6908  0.0622
  979MOL0     C29117   0.493   6.243   4.021  0.5947  0.6082  1.4772
  979MOL0     C29118   0.434   6.359   4.094 -1.1005 -0.2985 -0.9469
  979MOL0     C29119   0.335   6.311   4.208 -0.5874  0.7622 -0.0962
  979MOL0     O29120   0.321   6.415   4.312 -0.4972  0.1676  1.4433
  979MOL0     C29121   0.239   6.406   4.412 -0.2010 -0.3021  0.7963
  979MOL0     C29122   0.168   6.287   4.440  0.0020  0.5109 -0.0341
  979MOL0     C29123   0.060   6.287   4.526 -0.6358  0.7853 -0.7270
  979MOL0     C29124   0.020   6.403   4.592  0.4206  0.4207 -0.9241
  979MOL0     C29125  -0.103   6.405   4.688  0.5994 -0.2758 -0.4477
  979MOL0     O29126  -0.136   6.520   4.756  0.2205  0.1268  0.3644
  979MOL0     C29127  -0.259   6.522   4.822 -0.3636  0.8012  0.3390
  979MOL0     C29128  -0.379   6.569   4.770  0.8110 -0.3435  0.0631
  979MOL0     C29129  -0.502   6.576   4.832  0.1354 -0.2065  0.1210
  979MOL0     C29130  -0.498   6.540   4.974  0.0638 -0.3396 -0.1152
  979MOL0     O29131  -0.618   6.549   5.052  0.1444  0.0363  0.4740
  979MOL0     C29132  -0.737   6.571   4.976  0.6330  0.8613 -1.0792
  979MOL0     C29133  -0.765   6.721   4.953 -0.3630 -1.1780  0.1983
  979MOL0     C29134  -0.908   6.753   4.912  0.3039  0.4088  0.1677
  979MOL0     C29135  -0.918   6.902   4.898 -0.2952 -0.5198  1.0060
  979MOL0     C29136  -0.881   6.952   4.753  0.5542  0.3388  0.7321
  979MOL0     C29137  -0.894   7.104   4.743  0.2752 -0.4050  1.0634
  979MOL0     C29138  -0.874   7.170   4.604 -2.0481  1.2601 -0.0203
  979MOL0     C29139  -0.940   7.304   4.603 -0.1645 -0.2887 -0.1602
  979MOL0    Cl29140  -0.850   7.412   4.722 -0.4597 -0.0188 -0.3161
  979MOL0     C29141  -0.379   6.497   5.034 -0.3401  0.1501 -0.5584
  979MOL0     C29142  -0.262   6.478   4.958  0.4093 -0.2704  0.1869
  979MOL0     O29143  -0.172   6.303   4.689 -0.0181 -0.3665  0.6926
  979MOL0     C29144   0.098   6.517   4.576  0.5959 -0.4325  0.7077
  979MOL0     C29145   0.211   6.523   4.497 -0.1603  0.9802  0.1011
  979MOL0     N29146   0.627   6.045   3.832 -0.1790 -0.5770  0.1219
  979MOL0     N29147   0.666   5.984   3.731  0.0153 -0.6930  0.6354
  979MOL0     C29148   1.715   6.026   2.863 -0.6776 -0.9096 -0.3213
  979MOL0     C29149   1.844   6.064   2.818  0.4033  0.3942 -0.0211
  979MOL0     C29150   2.213   6.362   2.769 -1.3784 -0.5064 -0.6892
  979MOL0     C29151   2.301   6.274   2.701 -1.2409 -0.2973 -0.1692
  979MOL0     C29152   2.440   6.305   2.696  0.6398 -0.1042  0.0378
  979MOL0     C29153   2.492   6.415   2.755  0.5396  0.3145 -0.3418
  979MOL0     O29154   2.629   6.429   2.754 -0.0619 -0.2501 -0.0955
  979MOL0     C29155   2.692   6.539   2.816  0.1304 -0.3607 -0.7012
  979MOL0     C29156   2.826   6.544   2.747  0.2069 -0.3231  0.2284
  979MOL0     C29157   2.896   6.676   2.765  0.0241  0.8962  0.3270
  979MOL0     C29158   3.026   6.689   2.676  0.2412  0.3914  0.6661
  979MOL0     C29159   3.148   6.630   2.739 -0.1371  0.8236 -0.4839
  979MOL0     C29160   3.255   6.590   2.781  0.7300 -0.3994 -0.1379
  979MOL0     C29161   2.402   6.506   2.821 -0.1607  0.4653 -0.0520
  979MOL0     C29162   2.266   6.480   2.836 -0.1734 -0.6716  0.6255
  979MOL0     H29163   1.835   6.385   2.916 -0.7771 -0.2062  3.5178
  979MOL0     H29164   1.623   6.328   2.996  2.2343  2.4861 -0.9686
  979MOL0     H29165   1.461   5.891   2.965 -0.5125 -1.3833 -0.8900
  979MOL0     H29166   1.433   5.992   2.820  0.8343 -2.1719 -0.0222
  979MOL0     H29167   1.226   5.933   2.928 -0.5181 -0.2616  1.2808
  979MOL0     H29168   1.261   6.112   2.948  3.0342  1.8084 -1.2662
  979MOL0     H29169   1.310   6.065   3.178  0.2727  1.3203 -2.6616
  979MOL0     H29170   1.288   5.893   3.154  2.5834 -0.4413 -0.2725
  979MOL0     H29171   1.052   6.081   3.089 -1.2738 -1.7578 -1.5443
  979MOL0     H29172   1.060   5.902   3.113  0.6928 -0.5535  0.1681
  979MOL0     H29173   1.120   6.120   3.329  1.9700 -0.6493  0.9772
  979MOL0     H29174   1.118   5.943   3.352  0.5977 -0.8013 -1.1016
  979MOL0     H29175   0.901   5.922   3.323 -1.3785  0.3970 -0.0366
  979MOL0     H29176   0.888   6.098   3.253 -1.2585  0.1484  1.5482
  979MOL0     H29177   0.942   6.019   3.541 -1.4963 -3.1458 -1.0040
  979MOL0     H29178   0.923   6.187   3.483 -2.0529  0.9464  0.3183
  979MOL0     H29179   0.733   5.934   3.493  1.7047  0.0420 -0.0229
  979MOL0     H29180   0.674   6.089   3.423  0.0986 -1.6537 -1.0006
  979MOL0     H29181   0.640   6.276   3.598 -1.9719 -1.7876 -1.4053
  979MOL0     H29182   0.508   6.356   3.830 -0.0521  0.5528  0.5652
  979MOL0     H29183   0.663   6.353   3.919  0.8747 -1.4095  4.0424
  979MOL0     H29184   0.558   6.181   4.084 -0.2626 -1.2368  0.6329
  979MOL0     H29185   0.425   6.168   3.980  1.7735  0.7571 -0.8859
  979MOL0     H29186   0.526   6.402   4.134 -0.6839 -2.8134  1.0333
  979MOL0     H29187   0.377   6.432   4.035 -3.2386 -0.0395  1.3072
  979MOL0     H29188   0.379   6.231   4.269 -1.2327  0.8769  0.5301
  979MOL0     H29189   0.235   6.290   4.169 -1.6699 -1.7637  3.4749
  979MOL0     H29190   0.190   6.196   4.384 -0.9933  0.7562 -0.8484
  979MOL0     H29191   0.010   6.191   4.538  2.1489 -0.6473  0.4749
  979MOL0     H29192  -0.391   6.596   4.665  0.8347 -3.2391 -0.7945
  979MOL0     H29193  -0.586   6.610   4.773  0.6221 -0.0336 -0.4774
  979MOL0     H29194  -0.813   6.533   5.045  0.5559  3.9139  0.6659
  979MOL0     H29195  -0.760   6.512   4.887 -1.5512  0.6729 -0.4464
  979MOL0     H29196  -0.699   6.752   4.872 -1.7677 -2.2813 -1.4271
  979MOL0     H29197  -0.734   6.782   5.039  1.0314 -2.5232  0.6949
  979MOL0     H29198  -0.981   6.708   4.979 -2.3040  1.2199 -1.9223
  979MOL0     H29199  -0.937   6.701   4.820 -2.4253 -0.7022  1.5548
  979MOL0     H29200  -1.019   6.939   4.914 -0.1816  0.5276 -0.5088
  979MOL0     H29201  -0.853   6.943   4.976 -1.5948 -2.2343  3.0799
  979MOL0     H29202  -0.946   6.899   4.683  3.9752  0.6712 -3.0687
  979MOL0     H29203  -0.787   6.912   4.715 -0.0338  0.9920 -1.5676
  979MOL0     H29204  -0.831   7.155   4.816  2.9338  1.7369 -2.4173
  979MOL0     H29205  -0.999   7.126   4.765  0.3085  2.0270 -0.8181
  979MOL0     H29206  -0.768   7.163   4.577 -1.6256  0.6470  1.6449
  979MOL0     H29207  -0.927   7.115   4.525 -0.1183  1.2383 -1.3730
  979MOL0     H29208  -1.039   7.290   4.647 -0.2105 -2.6027 -0.8966
  979MOL0     H29209  -0.955   7.341   4.501 -1.1593  0.2243  0.1642
  979MOL0     H29210  -0.386   6.482   5.141  0.9513  1.3994 -0.2615
  979MOL0     H29211  -0.163   6.451   4.995 -0.3940 -1.0189  1.8964
  979MOL0     H29212   0.073   6.611   4.624 -1.2175 -0.6175  0.1926
  979MOL0     H29213   0.275   6.611   4.496  1.5042 -0.1310 -2.9076
  979MOL0     H29214   1.681   5.923   2.856 -1.0259 -1.0050  1.9372
  979MOL0     H29215   1.904   5.987   2.770  0.5744 -0.9755  2.2372
  979MOL0     H29216   2.263   6.202   2.629 -1.0002 -1.0633  0.4585
  979MOL0     H29217   2.491   6.235   2.630 -2.0752 -2.4010  0.1829
  979MOL0     H29218   2.694   6.535   2.926 -0.6892 -1.6906 -0.7109
  979MOL0     H29219   2.642   6.632   2.786  2.9077  2.2751  2.0097
  979MOL0     H29220   2.890   6.467   2.792  1.0331 -0.4595 -1.1176
  979MOL0     H29221   2.806   6.523   2.642  0.0669 -0.4004  0.2701
  979MOL0     H29222   2.919   6.693   2.871 -3.9960  1.6838  1.2293
  979MOL0     H29223   2.832   6.756   2.726  0.4581 -0.0668 -2.6109
  979MOL0     H29224   3.021   6.649   2.575 -1.2636  0.4494  0.7033
  979MOL0     H29225   3.051   6.791   2.644  0.9642 -0.8127 -3.0465
  979MOL0     H29226   3.338   6.569   2.845  1.0930  0.9841 -0.1253
  979MOL0     H29227   2.437   6.595   2.873 -1.4573  1.3633 -0.6718
  979MOL0     H29228   2.201   6.546   2.892  0.7750  3.7757 -2.8932
  980MOL0     O29229   3.887   5.284   2.808 -0.3343 -0.2334  0.3378
  980MOL0     C29230   3.902   5.402   2.763 -0.4176  0.7172  0.7954
  980MOL0     O29231   3.805   5.502   2.767  0.1034  0.1871 -0.0297
  980MOL0     C29232   3.686   5.464   2.824  0.2365  0.0259  0.0221
  980MOL0     C29233   3.574   5.452   2.744 -0.7970  0.4930 -0.3535
  980MOL0     C29234   3.452   5.411   2.790 -0.0761 -0.0618  0.3906
  980MOL0     C29235   3.430   5.387   2.922  0.0348 -0.5038  0.0904
  980MOL0     O29236   3.306   5.366   2.963 -0.0447  0.8519 -0.2587
  980MOL0     C29237   3.286   5.310   3.093 -0.5080  0.0210  0.1587
  980MOL0     C29238   3.128   5.293   3.090  0.1427  0.6669 -0.5350
  980MOL0     C29239   3.045   5.418   3.117  0.2145  0.4875  0.5763
  980MOL0     C29240   2.898   5.388   3.111  0.6829  0.3386  0.6642
  980MOL0     C29241   2.808   5.506   3.154  1.0076  0.4116 -0.4912
  980MOL0     C29242   2.709   5.472   3.263 -0.0438  0.4558 -0.2035
  980MOL0     C29243   2.603   5.586   3.259  0.1591  0.6469  0.3974
  980MOL0     C29244   2.490   5.583   3.360  0.4271  0.4687  0.2530
  980MOL0     N29245   2.383   5.489   3.334  0.8418 -0.9769  0.6858
  980MOL0     C29246   2.382   5.354   3.322  0.0858 -0.2502 -0.3661
  980MOL0     C29247   2.259   5.298   3.297 -0.0508  0.5558  0.2487
  980MOL0     C29248   2.228   5.149   3.279 -0.2273 -0.0132  0.1062
  980MOL0     C29249   2.314   5.053   3.198  0.2356 -0.0434  0.2888
  980MOL0     C29250   2.337   5.109   3.054 -0.1539 -0.9492 -0.3648
  980MOL0     C29251   2.458   5.030   2.997 -0.6663  0.8199  0.2190
  980MOL0     O29252   2.576   5.050   3.075  0.7690 -0.1695 -0.1043
  980MOL0     C29253   2.693   5.028   3.013 -0.2212  0.5630  0.9437
  980MOL0     C29254   2.811   5.006   3.086  0.3152  0.2041  1.2345
  980MOL0     C29255   2.929   4.952   3.038 -0.3141  0.0818 -0.1168
  980MOL0     C29256   2.943   4.942   2.895 -0.9613 -0.5840 -0.2080
  980MOL0     C29257   3.068   4.889   2.844 -0.1362 -0.3098  0.6355
  980MOL0     O29258   3.180   4.937   2.899 -0.2243 -0.3342  0.6201
  980MOL0     C29259   3.314   4.913   2.860 -0.4789 -0.2035  0.5056
  980MOL0     C29260   3.361   4.808   2.778  0.3814 -0.1802 -0.8997
  980MOL0     C29261   3.496   4.806   2.767  0.0285  1.3049  0.1964
  980MOL0     C29262   3.585   4.901   2.808 -0.5749 -0.4624  0.8176
  980MOL0     O29263   3.716   4.869   2.798 -0.0669 -0.1570  0.3677
  980MOL0     C29264   3.761   4.903   2.670 -0.7318 -0.0346  0.1657
  980MOL0     C29265   3.901   4.848   2.641 -1.1611 -0.3847 -0.0535
  980MOL0     C29266   4.011   4.936   2.702 -0.3505 -0.2209  0.1995
  980MOL0     C29267   4.160   4.897   2.677 -0.0774  1.1227  0.0758
  980MOL0     C29268   4.255   4.957   2.778 -0.3655 -0.0215  0.5873
  980MOL0     C29269   4.394   4.895   2.771  0.1114  0.4966 -0.2571
  980MOL0     C29270   4.489   4.953   2.866 -0.4054  0.1268 -0.1944
  980MOL0     C29271   4.627   4.918   2.826 -0.0717  0.0765 -0.0327
  980MOL0    Cl29272   4.669   4.758   2.897 -0.1217 -0.1909 -0.2347
  980MOL0     C29273   3.536   5.013   2.871  0.4748 -0.1759  0.3960
  980MOL0     C29274   3.400   5.017   2.901  0.5342  0.0148  0.5093
  980MOL0     O29275   3.066   4.831   2.737  0.0665 -0.0221 -0.1690
  980MOL0     C29276   2.839   4.975   2.814  0.2048 -0.8431 -0.1271
  980MOL0     C29277   2.717   5.017   2.870 -0.4105  0.2192  0.4715
  980MOL0     N29278   2.182   5.414   3.291 -0.2270 -0.7148 -0.4174
  980MOL0     N29279   2.250   5.526   3.317 -0.3743  0.8195 -0.8895
  980MOL0     C29280   3.547   5.404   3.013  0.5881  0.0983 -0.2755
  980MOL0     C29281   3.673   5.440   2.967 -0.5087 -0.4056  1.0032
  980MOL0     C29282   4.019   5.443   2.690  0.1912  0.4756  0.0830
  980MOL0     C29283   4.136   5.364   2.681  1.1460  0.5195  0.3011
  980MOL0     C29284   4.244   5.393   2.604  0.1585 -0.5387 -0.7683
  980MOL0     C29285   4.253   5.526   2.554  0.1611  0.2357  0.2810
  980MOL0     O29286   4.364   5.572   2.494 -0.6098  0.0070 -0.0944
  980MOL0     C29287   4.466   5.485   2.445  0.5513 -0.0293 -0.3645
  980MOL0     C29288   4.533   5.554   2.327 -0.3077  0.5090 -0.1323
  980MOL0     C29289   4.603   5.443   2.237 -0.4673 -0.2932  1.1360
  980MOL0     C29290   4.689   5.513   2.128 -1.0098 -0.7796  0.0027
  980MOL0     C29291   4.614   5.596   2.038  0.0217 -0.1008 -0.0344
  980MOL0     C29292   4.556   5.673   1.968 -0.3455 -0.7633 -0.5388
  980MOL0     C29293   4.142   5.607   2.566  0.0020 -0.1224  0.5817
  980MOL0     C29294   4.022   5.568   2.628  0.0693  0.0256  0.6386
  980MOL0     H29295   3.577   5.460   2.636 -0.7761 -1.0859 -0.4961
  980MOL0     H29296   3.371   5.392   2.720  0.0840  2.5285 -0.6259
  980MOL0     H29297   3.328   5.385   3.160  0.5978  3.2139 -3.6994
  980MOL0     H29298   3.336   5.214   3.106  0.2049  0.5479  1.4310
  980MOL0     H29299   3.092   5.212   3.154 -0.5194 -0.7127 -2.5633
  980MOL0     H29300   3.100   5.268   2.988  1.3326  0.4875 -0.8297
  980MOL0     H29301   3.076   5.496   3.047 -0.4351 -0.5260 -0.8801
  980MOL0     H29302   3.067   5.466   3.213 -0.7534 -0.4542  1.2929
  980MOL0     H29303   2.879   5.357   3.008  2.1353 -2.2015  1.0697
  980MOL0     H29304   2.877   5.301   3.173  2.6375 -2.0323 -1.7577
  980MOL0     H29305   2.760   5.545   3.064 -0.2733  0.9970  0.4168
  980MOL0     H29306   2.873   5.583   3.196  0.3724  0.2360  0.8623
  980MOL0     H29307   2.762   5.460   3.358  2.2636 -0.7392 -1.5432
  980MOL0     H29308   2.660   5.378   3.235 -1.6790  1.0480  0.4810
  980MOL0     H29309   2.659   5.673   3.295  0.4575  0.9677 -0.8123
  980MOL0     H29310   2.566   5.609   3.159 -1.6866  1.3742  1.2028
  980MOL0     H29311   2.439   5.680   3.360 -0.5699 -0.0331 -0.9522
  980MOL0     H29312   2.527   5.564   3.461 -2.0565  0.7841  1.3032
  980MOL0     H29313   2.460   5.279   3.330 -1.2020 -1.7216 -0.9292
  980MOL0     H29314   2.125   5.136   3.244 -1.2131  3.9998  0.9784
  980MOL0     H29315   2.219   5.098   3.375 -2.2523 -2.4713 -1.2584
  980MOL0     H29316   2.256   4.960   3.194  0.0701 -0.0199  1.5771
  980MOL0     H29317   2.405   5.031   3.254 -1.7774 -0.5937  3.6538
  980MOL0     H29318   2.250   5.096   2.988 -0.3552  2.3997 -0.9333
  980MOL0     H29319   2.373   5.212   3.053  1.1268 -1.3642  0.5187
  980MOL0     H29320   2.474   5.076   2.899  1.6720  1.5293  0.8680
  980MOL0     H29321   2.433   4.923   2.999  1.1748  0.3651  1.1971
  980MOL0     H29322   2.815   5.022   3.193  1.5735  1.4172  1.0284
  980MOL0     H29323   3.009   4.931   3.109  1.3174  4.5489 -0.3314
  980MOL0     H29324   3.297   4.728   2.742  1.8442 -0.2273 -3.7857
  980MOL0     H29325   3.531   4.715   2.720  1.8001  2.3629 -0.6547
  980MOL0     H29326   3.754   5.009   2.645  0.1237  0.2470  1.0553
  980MOL0     H29327   3.701   4.857   2.591  2.0312 -0.9711 -1.5457
  980MOL0     H29328   3.908   4.832   2.533  0.5613  0.2518 -0.0744
  980MOL0     H29329   3.911   4.747   2.684  2.1899 -0.2920 -0.2961
  980MOL0     H29330   4.001   4.926   2.811  2.6693 -0.1293  0.5711
  980MOL0     H29331   3.983   5.037   2.670 -1.7029  0.2141  2.4862
  980MOL0     H29332   4.171   4.789   2.689 -1.8508  0.6104 -2.1846
  980MOL0     H29333   4.192   4.919   2.575 -1.3787 -0.9371 -0.8283
  980MOL0     H29334   4.212   4.962   2.878  0.5931  1.2270  0.9670
  980MOL0     H29335   4.273   5.064   2.760  2.4298 -0.0621  2.4882
  980MOL0     H29336   4.426   4.912   2.668 -2.5988 -1.9670 -1.6393
  980MOL0     H29337   4.387   4.787   2.785  1.2294  0.4685  0.1403
  980MOL0     H29338   4.484   5.062   2.861 -0.0774  0.2060  1.0826
  980MOL0     H29339   4.465   4.914   2.965 -0.1339 -1.5675 -0.7472
  980MOL0     H29340   4.691   4.997   2.866  0.6464  1.4844 -3.6728
  980MOL0     H29341   4.639   4.924   2.718  0.1948 -0.9463 -0.0705
  980MOL0     H29342   3.599   5.096   2.902 -2.2658  1.0888  3.2342
  980MOL0     H29343   3.361   5.107   2.949 -0.5636  0.2472 -0.7658
  980MOL0     H29344   2.847   4.966   2.706  1.8963 -3.6056  0.1322
  980MOL0     H29345   2.643   5.046   2.796 -2.3089  3.6092  3.3484
  980MOL0     H29346   3.545   5.392   3.121  3.1846  3.0695  0.2349
  980MOL0     H29347   3.758   5.447   3.035  0.3626  0.4217 -0.1158
  980MOL0     H29348   4.135   5.272   2.739  0.3679  0.6551  0.5131
  980MOL0     H29349   4.333   5.334   2.589  0.6492  0.4405 -1.9496
  980MOL0     H29350   4.418   5.392   2.410 -0.2086  1.4066 -3.5024
  980MOL0     H29351   4.537   5.469   2.527 -0.1395  1.5045  0.5650
  980MOL0     H29352   4.454   5.603   2.270 -0.8152 -1.5478 -1.2879
  980MOL0     H29353   4.600   5.634   2.358  1.5444 -1.5945  1.7186
  980MOL0     H29354   4.531   5.379   2.185 -1.7726  2.5222 -0.7712
  980MOL0     H29355   4.668   5.383   2.302  0.9346  0.9721  0.9690
  980MOL0     H29356   4.752   5.577   2.191 -2.1617  1.9296 -1.4295
  980MOL0     H29357   4.753   5.442   2.075  1.2696  0.2676  1.1730
  980MOL0     H29358   4.516   5.754   1.910  1.0609  1.1446  1.0286
  980MOL0     H29359   4.151   5.708   2.528  0.9060 -0.4823 -0.2021
  980MOL0     H29360   3.937   5.635   2.624 -1.8753 -2.0964  3.1672
  981MOL0     O29361   0.145   6.298   3.900 -0.2666 -0.1240  0.4353
  981MOL0     C29362   0.178   6.195   3.840 -0.2852  0.3611  0.0942
  981MOL0     O29363   0.159   6.068   3.898 -1.2726  0.8768  0.2109
  981MOL0     C29364   0.110   6.061   4.025  0.2139 -0.0737 -1.1081
  981MOL0     C29365  -0.015   6.124   4.061 -0.7325  1.0767 -0.2890
  981MOL0     C29366  -0.070   6.103   4.195  0.1825 -0.0923 -0.2183
  981MOL0     C29367  -0.007   6.006   4.282 -0.2858  0.2424 -1.1081
  981MOL0     O29368  -0.060   5.969   4.412 -0.3977 -0.2279 -0.3404
  981MOL0     C29369  -0.200   5.938   4.414 -0.2692  0.4369  1.1583
  981MOL0     C29370  -0.279   6.009   4.512  0.4830  0.3618  0.5151
  981MOL0     C29371  -0.408   5.937   4.549 -0.1504  0.3714 -0.0556
  981MOL0     C29372  -0.501   5.904   4.429 -0.5317 -0.4868 -0.2311
  981MOL0     C29373  -0.627   5.835   4.488 -0.0920 -0.0229  0.8579
  981MOL0     C29374  -0.722   5.785   4.378 -0.5865 -0.2865 -0.1896
  981MOL0     C29375  -0.838   5.695   4.424  0.7971 -0.1744 -0.1057
  981MOL0     C29376  -0.931   5.775   4.516  0.4502  0.0208  0.7213
  981MOL0     N29377  -1.047   5.691   4.554  0.1879 -0.2449 -0.0361
  981MOL0     C29378  -1.183   5.722   4.546 -1.0960  0.1606 -0.2092
  981MOL0     C29379  -1.246   5.621   4.611  0.2984  0.0084 -0.6090
  981MOL0     C29380  -1.399   5.623   4.641 -0.1056 -0.4226  0.0394
  981MOL0     C29381  -1.419   5.608   4.793 -0.0553 -0.5211 -0.0176
  981MOL0     C29382  -1.390   5.472   4.852  0.8402  0.8797  0.5789
  981MOL0     C29383  -1.442   5.340   4.782 -0.7554 -0.4159  0.3283
  981MOL0     O29384  -1.581   5.346   4.757  0.9556 -0.3838  0.0350
  981MOL0     C29385  -1.659   5.319   4.868 -0.1317 -0.1785  0.2256
  981MOL0     C29386  -1.795   5.341   4.849  0.1186 -0.0727  0.1310
  981MOL0     C29387  -1.897   5.308   4.937  0.2363 -0.9500 -0.1317
  981MOL0     C29388  -1.859   5.268   5.059 -0.7650 -0.6299 -0.5518
  981MOL0     C29389  -1.969   5.230   5.159 -0.4609  0.0683 -0.3705
  981MOL0     O29390  -1.930   5.163   5.268  0.1526  1.2659 -0.5797
  981MOL0     C29391  -2.013   5.105   5.361 -1.0413  0.5687  0.7382
  981MOL0     C29392  -2.120   5.178   5.421  0.3122  0.8637  0.2715
  981MOL0     C29393  -2.208   5.116   5.498 -0.2627 -0.7031  0.3975
  981MOL0     C29394  -2.196   4.979   5.521 -0.0401 -0.1549 -0.6484
  981MOL0     O29395  -2.283   4.911   5.608  0.2026 -0.3884 -0.2855
  981MOL0     C29396  -2.419   4.960   5.626  0.0725  0.3451 -0.1723
  981MOL0     C29397  -2.501   4.851   5.693 -0.2633 -0.0606  0.5313
  981MOL0     C29398  -2.642   4.888   5.681  0.0195  0.6892 -0.3401
  981MOL0     C29399  -2.732   4.822   5.791 -0.4314 -0.8869  0.1301
  981MOL0     C29400  -2.885   4.849   5.757 -0.1711  0.9371  0.5653
  981MOL0     C29401  -2.941   4.790   5.631 -0.5814 -0.2055  0.5636
  981MOL0     C29402  -3.099   4.794   5.622 -1.1221 -0.1339 -0.6717
  981MOL0     C29403  -3.163   4.932   5.606  0.5696  0.1734  0.7061
  981MOL0    Cl29404  -3.341   4.933   5.643 -0.1785  0.3151 -0.3517
  981MOL0     C29405  -2.087   4.907   5.474 -0.3891  0.3402  0.2658
  981MOL0     C29406  -1.998   4.970   5.386  0.3392  0.5389  0.6556
  981MOL0     O29407  -2.082   5.261   5.137 -0.2537 -0.0587  0.6850
  981MOL0     C29408  -1.719   5.253   5.093  0.1478  0.3754 -0.0621
  981MOL0     C29409  -1.614   5.272   4.998 -0.2776  0.1681  0.1825
  981MOL0     N29410  -1.151   5.529   4.655  0.0261  0.4782 -0.3809
  981MOL0     N29411  -1.033   5.570   4.618  1.0695 -0.2901 -0.1158
  981MOL0     C29412   0.111   5.942   4.240 -0.7440 -0.3257 -0.8536
  981MOL0     C29413   0.170   5.971   4.117 -0.2336 -0.4921 -0.2824
  981MOL0     C29414   0.244   6.211   3.706 -0.2842 -0.1002  0.5948
  981MOL0     C29415   0.310   6.102   3.650  0.1795  0.3011  0.0118
  981MOL0     C29416   0.368   6.125   3.527  0.4577  0.1608  0.2317
  981MOL0     C29417   0.364   6.245   3.460  0.6457 -1.0633 -0.3675
  981MOL0     O29418   0.434   6.250   3.340  0.6141 -0.1737 -0.1816
  981MOL0     C29419   0.409   6.358   3.256 -0.3394 -0.2496  0.0616
  981MOL0     C29420   0.515   6.351   3.154 -0.6923 -0.1428  0.4964
  981MOL0     C29421   0.658   6.327   3.209  0.2431  1.1472  1.4709
  981MOL0     C29422   0.704   6.403   3.336  0.1248 -0.7087  0.6929
  981MOL0     C29423   0.727   6.554   3.328  0.6312 -0.7098 -0.4061
  981MOL0     C29424   0.745   6.669   3.315  0.1031 -0.3082 -0.2955
  981MOL0     C29425   0.285   6.357   3.521  0.4261 -1.0317  0.0509
  981MOL0     C29426   0.238   6.336   3.643 -0.0032 -0.1943 -0.4905
  981MOL0     H29427  -0.068   6.177   3.984  0.5872  0.3726 -1.7404
  981MOL0     H29428  -0.152   6.159   4.239  2.7939  3.6073  0.4121
  981MOL0     H29429  -0.205   5.831   4.436  1.9198  0.6410  3.1079
  981MOL0     H29430  -0.247   5.951   4.317 -2.3793 -1.7381  1.7848
  981MOL0     H29431  -0.306   6.110   4.483  0.0216 -0.5350 -2.5216
  981MOL0     H29432  -0.216   6.008   4.601  0.0443 -1.8418  0.8765
  981MOL0     H29433  -0.472   6.005   4.607 -0.8109 -0.4669  0.2169
  981MOL0     H29434  -0.376   5.855   4.614 -1.0905 -1.0178 -1.2823
  981MOL0     H29435  -0.520   5.985   4.359  2.1930 -0.5775 -1.1773
  981MOL0     H29436  -0.450   5.823   4.376  2.1710  0.7547  0.3206
  981MOL0     H29437  -0.680   5.912   4.545 -0.9256 -0.3911  0.5919
  981MOL0     H29438  -0.610   5.747   4.549 -1.2667 -2.3229 -1.8910
  981MOL0     H29439  -0.671   5.736   4.295 -0.6464  1.4035 -1.2822
  981MOL0     H29440  -0.756   5.877   4.330  0.4499  0.8175  1.1014
  981MOL0     H29441  -0.886   5.666   4.330  1.0811 -0.3824 -0.1869
  981MOL0     H29442  -0.797   5.599   4.457 -0.1420 -0.6024 -0.1424
  981MOL0     H29443  -0.969   5.862   4.462 -1.8434 -0.5799  1.2435
  981MOL0     H29444  -0.877   5.791   4.610  0.2023  1.5215  0.6217
  981MOL0     H29445  -1.234   5.807   4.502 -1.9249 -1.1232 -1.8196
  981MOL0     H29446  -1.444   5.535   4.596 -0.6063  1.7088 -4.1463
  981MOL0     H29447  -1.455   5.709   4.602 -0.5473  0.0172  1.5709
  981MOL0     H29448  -1.521   5.642   4.814  0.4430  1.8004 -1.0103
  981MOL0     H29449  -1.358   5.673   4.856  0.3858 -1.3185  0.3919
  981MOL0     H29450  -1.284   5.447   4.863  0.4194 -2.5260 -1.4518
  981MOL0     H29451  -1.440   5.480   4.949  1.0120 -0.7401  0.8354
  981MOL0     H29452  -1.411   5.254   4.841 -0.0029  1.3771  2.7067
  981MOL0     H29453  -1.388   5.337   4.687 -1.8953 -2.9576 -0.3369
  981MOL0     H29454  -1.832   5.384   4.756  1.0906  0.4107 -0.0377
  981MOL0     H29455  -2.002   5.320   4.915 -0.9653 -1.1011  4.5484
  981MOL0     H29456  -2.122   5.284   5.395  1.2852  0.8036 -0.0727
  981MOL0     H29457  -2.281   5.178   5.549 -0.5183  1.5181 -2.4074
  981MOL0     H29458  -2.454   4.978   5.524  0.5052 -1.3971 -0.6672
  981MOL0     H29459  -2.415   5.055   5.679  1.6501  0.6380 -0.7569
  981MOL0     H29460  -2.477   4.848   5.800 -1.6858 -1.3652  0.8466
  981MOL0     H29461  -2.488   4.747   5.664 -2.8818 -0.7401  1.5189
  981MOL0     H29462  -2.670   4.849   5.582 -1.3716  0.7128  0.0247
  981MOL0     H29463  -2.657   4.996   5.689 -0.5496  0.7234 -1.6318
  981MOL0     H29464  -2.707   4.716   5.782  0.5639 -0.6117 -0.4973
  981MOL0     H29465  -2.711   4.852   5.894  2.8134 -0.8603 -0.4523
  981MOL0     H29466  -2.901   4.957   5.763 -1.6291  0.6900  2.8780
  981MOL0     H29467  -2.928   4.806   5.848  2.8293 -1.2114  1.1144
  981MOL0     H29468  -2.896   4.693   5.607  0.5671  0.8752 -1.9789
  981MOL0     H29469  -2.894   4.849   5.552  0.9657 -1.4840  0.4748
  981MOL0     H29470  -3.138   4.730   5.543  0.9080 -0.0755 -1.7848
  981MOL0     H29471  -3.139   4.762   5.719 -2.0301  1.4669 -0.4779
  981MOL0     H29472  -3.143   4.968   5.504 -1.2995  0.6092  0.4539
  981MOL0     H29473  -3.110   4.994   5.679  0.0309  1.0638  0.3616
  981MOL0     H29474  -2.078   4.800   5.490  2.4534 -0.6264 -5.1831
  981MOL0     H29475  -1.915   4.918   5.341 -2.4078 -4.6118  0.7765
  981MOL0     H29476  -1.688   5.209   5.187  0.4245 -0.1653 -0.4041
  981MOL0     H29477  -1.509   5.255   5.020 -0.4069  1.1613  1.7012
  981MOL0     H29478   0.168   5.872   4.300  2.5191  0.2561 -3.0353
  981MOL0     H29479   0.260   5.919   4.084  0.0577  0.0104 -0.2837
  981MOL0     H29480   0.310   6.000   3.686  0.7541 -0.2154 -1.3880
  981MOL0     H29481   0.416   6.045   3.472  0.0839 -1.4575  2.1189
  981MOL0     H29482   0.406   6.455   3.306 -1.1256 -0.2599  0.0570
  981MOL0     H29483   0.304   6.353   3.223 -0.1283  1.6428 -1.0377
  981MOL0     H29484   0.485   6.270   3.087 -2.0852  0.3144  0.5412
  981MOL0     H29485   0.519   6.449   3.105 -2.7323 -0.6530 -0.7899
  981MOL0     H29486   0.737   6.351   3.136 -0.0744 -0.1248  0.6661
  981MOL0     H29487   0.673   6.219   3.219 -0.1123  0.3955 -3.3415
  981MOL0     H29488   0.621   6.389   3.407 -1.0152  0.9469 -0.2478
  981MOL0     H29489   0.798   6.371   3.381  0.6893  0.0824  0.0865
  981MOL0     H29490   0.759   6.775   3.319 -0.4696 -0.2731  1.2994
  981MOL0     H29491   0.271   6.458   3.482  0.4284 -1.1756 -0.3287
  981MOL0     H29492   0.203   6.424   3.697  1.1626 -0.2239  0.3309
  982MOL0     O29493   7.858   6.805   1.440  0.5543 -1.1828  0.5165
  982MOL0     C29494   7.832   6.923   1.416 -0.1392  1.3274  0.2512
  982MOL0     O29495   7.917   7.013   1.359  0.1017  0.4348 -0.6181
  982MOL0     C29496   8.049   6.998   1.403  0.2483 -0.0999 -0.0785
  982MOL0     C29497   8.153   7.013   1.313 -0.5420 -0.0814 -0.6504
  982MOL0     C29498   8.287   6.985   1.349  0.7520  0.1989 -0.1514
  982MOL0     C29499   8.325   6.944   1.485  0.2918  0.6912  0.6274
  982MOL0     O29500   8.456   6.924   1.518 -0.2043 -0.2683  0.0704
  982MOL0     C29501   8.522   7.048   1.560  0.8620  0.4607  0.2302
  982MOL0     C29502   8.669   7.017   1.571  0.3726  1.4229 -1.1804
  982MOL0     C29503   8.711   6.925   1.685  0.3702  0.4676  0.6177
  982MOL0     C29504   8.669   6.776   1.675 -0.1059 -0.5187  0.2762
  982MOL0     C29505   8.743   6.677   1.777 -0.1672 -0.1704  0.2274
  982MOL0     C29506   8.721   6.707   1.915 -0.1306  0.2695 -0.5561
  982MOL0     C29507   8.571   6.724   1.960 -0.4356  0.0898 -0.1684
  982MOL0     C29508   8.488   6.593   1.962  0.5402  0.2379  0.1188
  982MOL0     N29509   8.349   6.630   1.915  0.6013  0.4598  0.1900
  982MOL0     C29510   8.261   6.557   1.831  0.3659  0.7626  0.1459
  982MOL0     C29511   8.164   6.641   1.793 -0.2331  0.7594  0.5245
  982MOL0     C29512   8.055   6.617   1.681 -0.4029  0.4831 -0.5650
  982MOL0     C29513   7.915   6.661   1.741 -0.3063  0.8044 -0.0736
  982MOL0     C29514   7.873   6.554   1.847  1.0112 -0.8681  0.4281
  982MOL0     C29515   7.729   6.586   1.899  0.3147  0.2486 -0.0400
  982MOL0     O29516   7.636   6.622   1.788  0.6341  0.5967 -0.1147
  982MOL0     C29517   7.516   6.675   1.829  0.4290  0.0774 -0.4081
  982MOL0     C29518   7.459   6.778   1.753 -0.6678 -0.0173 -0.0893
  982MOL0     C29519   7.341   6.843   1.778 -0.4009 -0.2043  0.6255
  982MOL0     C29520   7.271   6.820   1.896 -0.3382  0.5175  0.0894
  982MOL0     C29521   7.151   6.895   1.937  0.2594 -0.0189 -0.2947
  982MOL0     O29522   7.066   6.836   2.026 -0.6317  0.4689  0.1274
  982MOL0     C29523   6.941   6.888   2.040 -0.1504  0.0679 -0.9984
  982MOL0     C29524   6.904   6.955   2.160  0.1696  0.0556  0.2905
  982MOL0     C29525   6.762   7.008   2.170 -0.9771  0.6246  0.3927
  982MOL0     C29526   6.672   6.981   2.070 -0.1800  0.6475  0.4123
  982MOL0     O29527   6.548   7.019   2.085  0.0730  0.7702 -0.2922
  982MOL0     C29528   6.450   7.019   1.984  0.1652 -0.2046  0.3896
  982MOL0     C29529   6.324   7.075   2.041  0.3453  0.0728 -0.0125
  982MOL0     C29530   6.191   7.034   1.968  0.7485  0.0706  1.1727
  982MOL0     C29531   6.081   7.053   2.074 -0.2090  0.3071 -0.1045
  982MOL0     C29532   5.936   7.025   2.021 -0.3700 -0.2581  0.5726
  982MOL0     C29533   5.834   7.088   2.117 -0.6611 -0.1635  0.4771
  982MOL0     C29534   5.696   7.046   2.081 -0.4818 -0.0088 -0.1832
  982MOL0     C29535   5.587   7.128   2.131 -0.2392 -0.8386  0.0762
  982MOL0    Cl29536   5.575   7.118   2.309  0.4762  0.1284  0.2628
  982MOL0     C29537   6.719   6.921   1.956 -0.8611  0.3836  0.5290
  982MOL0     C29538   6.851   6.878   1.940  0.2329 -0.0418 -0.9446
  982MOL0     O29539   7.137   7.005   1.893  0.2701 -0.0326  0.1082
  982MOL0     C29540   7.323   6.716   1.973 -0.1805 -0.4715  0.2786
  982MOL0     C29541   7.443   6.651   1.943 -0.5208 -0.6416 -0.8310
  982MOL0     N29542   8.176   6.750   1.869  0.6886  0.2556  0.5656
  982MOL0     N29543   8.277   6.736   1.946 -0.2509 -0.2840 -0.3218
  982MOL0     C29544   8.218   6.935   1.579 -0.6156 -0.9796  0.3312
  982MOL0     C29545   8.080   6.961   1.533 -1.1590 -0.1335  0.4454
  982MOL0     C29546   7.685   6.962   1.427 -0.2568 -0.3341  0.4266
  982MOL0     C29547   7.586   6.868   1.416 -0.0398  0.8715 -0.6146
  982MOL0     C29548   7.454   6.909   1.432  0.1723 -0.5114 -0.0631
  982MOL0     C29549   7.426   7.042   1.464  0.6052  0.1660  0.0491
  982MOL0     O29550   7.291   7.056   1.460  0.1484  0.2120  0.1981
  982MOL0     C29551   7.249   7.196   1.467  0.5828 -0.2578 -0.3932
  982MOL0     C29552   7.095   7.203   1.477  0.0256 -0.4083 -0.0298
  982MOL0     C29553   7.042   7.132   1.600 -0.4463  0.6507  0.5777
  982MOL0     C29554   6.884   7.129   1.585 -0.0442 -0.0798 -0.6967
  982MOL0     C29555   6.828   7.272   1.584  0.7198  1.0914 -0.4793
  982MOL0     C29556   6.775   7.381   1.583 -1.1684  0.0885  0.1753
  982MOL0     C29557   7.530   7.138   1.474 -0.8684 -0.4640  0.0018
  982MOL0     C29558   7.662   7.098   1.454  0.0092  0.1075  0.0943
  982MOL0     H29559   8.116   7.046   1.216 -0.1874  1.9357 -0.1570
  982MOL0     H29560   8.366   7.005   1.277  2.2299  2.5313  1.9286
  982MOL0     H29561   8.485   7.078   1.659 -1.2063  1.0907 -0.6764
  982MOL0     H29562   8.512   7.131   1.489  2.1984  0.6769  0.2693
  982MOL0     H29563   8.707   7.117   1.596 -2.2767  2.3556 -0.5529
  982MOL0     H29564   8.716   6.997   1.474 -0.2671  2.0100 -1.6251
  982MOL0     H29565   8.689   6.975   1.779  0.3057  2.3079 -0.3280
  982MOL0     H29566   8.819   6.919   1.698  0.4381  0.0870 -0.0448
  982MOL0     H29567   8.561   6.760   1.684 -0.1648 -0.1657  0.1991
  982MOL0     H29568   8.694   6.741   1.574 -1.4730  1.2077 -0.7175
  982MOL0     H29569   8.850   6.669   1.758  0.2077 -1.7184  2.5416
  982MOL0     H29570   8.707   6.575   1.760 -5.0106  1.3451 -0.1371
  982MOL0     H29571   8.763   6.807   1.931 -0.2342  0.5843 -2.1648
  982MOL0     H29572   8.761   6.637   1.990  0.7432  2.3807  1.0720
  982MOL0     H29573   8.579   6.761   2.063  0.1864 -0.1770 -0.1190
  982MOL0     H29574   8.521   6.804   1.904  1.7928  1.0601 -0.9028
  982MOL0     H29575   8.480   6.563   2.066 -0.0007  2.6335  0.8421
  982MOL0     H29576   8.532   6.516   1.897 -1.8129  0.3775 -1.7637
  982MOL0     H29577   8.273   6.457   1.792  0.1849  1.2705 -1.3007
  982MOL0     H29578   8.050   6.510   1.659  3.7476 -1.1172  4.2335
  982MOL0     H29579   8.083   6.683   1.599 -0.2076  0.9888 -0.1000
  982MOL0     H29580   7.845   6.669   1.657  0.8942 -0.4404 -1.2566
  982MOL0     H29581   7.927   6.754   1.796 -1.3692 -1.1557  3.8066
  982MOL0     H29582   7.872   6.453   1.807 -0.3351 -0.7331  0.0723
  982MOL0     H29583   7.939   6.558   1.934  3.8578 -0.7141 -1.5893
  982MOL0     H29584   7.744   6.676   1.959 -1.5252 -0.3528  1.4165
  982MOL0     H29585   7.694   6.502   1.959  0.2362  0.5243  0.3088
  982MOL0     H29586   7.514   6.794   1.661 -0.2178  1.6807  0.4275
  982MOL0     H29587   7.287   6.913   1.715  0.2059  1.7953  2.2493
  982MOL0     H29588   6.970   6.976   2.243  0.0764  2.0689 -0.0778
  982MOL0     H29589   6.735   7.079   2.248 -3.2521  0.1438  0.1050
  982MOL0     H29590   6.439   6.914   1.955  0.3358  0.1402 -0.9979
  982MOL0     H29591   6.488   7.078   1.900 -3.2449  3.0171  0.8823
  982MOL0     H29592   6.322   7.185   2.040 -0.6939  0.1485  2.5799
  982MOL0     H29593   6.319   7.038   2.144 -0.2186 -3.2795 -1.1353
  982MOL0     H29594   6.198   6.932   1.931 -0.7266  0.5643 -0.6283
  982MOL0     H29595   6.179   7.099   1.881 -1.6929  0.5500  1.8034
  982MOL0     H29596   6.085   6.977   2.152 -1.9449 -1.3529 -1.5146
  982MOL0     H29597   6.088   7.153   2.117  2.3742  0.0865  0.1070
  982MOL0     H29598   5.919   6.918   2.014  2.9156 -0.8929  1.0422
  982MOL0     H29599   5.940   7.072   1.922  0.5210 -2.0324 -0.2759
  982MOL0     H29600   5.829   7.197   2.111 -3.0643 -0.1019  2.3195
  982MOL0     H29601   5.856   7.064   2.221 -1.5601 -1.1103  0.4701
  982MOL0     H29602   5.690   7.042   1.972  3.7144  0.1964 -0.5886
  982MOL0     H29603   5.668   6.946   2.115 -1.7296  1.0009  1.9135
  982MOL0     H29604   5.494   7.088   2.088  0.3593 -5.2758  2.3655
  982MOL0     H29605   5.600   7.231   2.097  1.9817 -0.9207  0.5551
  982MOL0     H29606   6.651   6.894   1.875 -0.3890  1.3353 -0.2130
  982MOL0     H29607   6.887   6.831   1.849  0.9144 -3.0965  0.7762
  982MOL0     H29608   7.263   6.692   2.060  0.1277  0.7593  0.8606
  982MOL0     H29609   7.483   6.577   2.011 -0.5441  1.3856  1.5314
  982MOL0     H29610   8.246   6.914   1.681  1.7759  2.1855  0.5071
  982MOL0     H29611   8.000   6.945   1.605 -1.2413  0.9379  0.5970
  982MOL0     H29612   7.613   6.766   1.391  1.5247  0.7298  1.3635
  982MOL0     H29613   7.374   6.836   1.427 -0.0804 -0.3330  1.0568
  982MOL0     H29614   7.286   7.266   1.391 -0.8749  3.0892  1.7152
  982MOL0     H29615   7.295   7.231   1.560  1.3307  2.6033 -1.7181
  982MOL0     H29616   7.070   7.310   1.474  1.3287 -0.0738  0.5471
  982MOL0     H29617   7.046   7.163   1.388  0.6447 -0.6211 -0.2750
  982MOL0     H29618   7.079   7.183   1.689  1.6815  1.1587 -0.5353
  982MOL0     H29619   7.084   7.032   1.613 -0.6176  0.7410  1.9906
  982MOL0     H29620   6.866   7.078   1.490  1.6068  0.8952 -1.5837
  982MOL0     H29621   6.848   7.078   1.675  1.6660  0.6592  0.4480
  982MOL0     H29622   6.746   7.485   1.588  2.1141  1.0788  0.8375
  982MOL0     H29623   7.517   7.244   1.493 -1.1432 -0.3563 -0.7258
  982MOL0     H29624   7.743   7.170   1.464 -0.2847  0.4770 -0.1602
  983MOL0     O29625   7.560   5.747   7.411 -0.1427 -0.0702 -0.3529
  983MOL0     C29626   7.501   5.717   7.309 -0.3030  1.1114  1.0517
  983MOL0     O29627   7.548   5.740   7.179  0.8186  0.5136  0.5253
  983MOL0     C29628   7.671   5.805   7.171 -0.5799 -0.0756 -0.0042
  983MOL0     C29629   7.794   5.739   7.136  0.9707 -0.1856  0.3321
  983MOL0     C29630   7.917   5.811   7.136  0.6329 -0.1095  0.1629
  983MOL0     C29631   7.918   5.956   7.136  0.2002  0.4212  0.5170
  983MOL0     O29632   8.021   6.046   7.126  0.4482  0.6292 -0.0181
  983MOL0     C29633   8.148   6.000   7.087 -0.6924  0.2621  0.4023
  983MOL0     C29634   8.236   6.115   7.040  0.1917 -0.3351 -0.1044
  983MOL0     C29635   8.178   6.197   6.921  0.0071  0.7442  0.4947
  983MOL0     C29636   8.243   6.333   6.898  1.1377  0.2688  0.4737
  983MOL0     C29637   8.201   6.379   6.754 -0.9045  0.2000 -0.0930
  983MOL0     C29638   8.253   6.519   6.713 -0.6423  0.6123  0.3659
  983MOL0     C29639   8.165   6.584   6.611 -0.0676 -0.7217 -0.2276
  983MOL0     C29640   8.201   6.728   6.567 -0.6046 -0.3193 -0.7970
  983MOL0     N29641   8.136   6.813   6.672 -0.2563 -0.0833 -0.0184
  983MOL0     C29642   8.005   6.856   6.676 -0.7009 -0.1787  0.2359
  983MOL0     C29643   8.006   6.945   6.776 -0.2773 -0.5530  0.1223
  983MOL0     C29644   7.885   7.025   6.835 -0.1229 -0.1420  0.4190
  983MOL0     C29645   7.809   6.948   6.950 -0.4504  0.0916  0.0744
  983MOL0     C29646   7.750   6.815   6.909 -0.3731 -0.7449 -0.7740
  983MOL0     C29647   7.719   6.743   7.045  0.0539 -0.7470  1.3129
  983MOL0     O29648   7.664   6.832   7.140 -0.0792 -0.0870  0.6840
  983MOL0     C29649   7.528   6.844   7.123 -0.9459 -0.5386 -0.1687
  983MOL0     C29650   7.467   6.971   7.112  0.4613 -0.7129  0.6768
  983MOL0     C29651   7.330   7.002   7.098  0.4172  0.2716 -0.0505
  983MOL0     C29652   7.241   6.890   7.094 -0.7482 -0.8141 -0.2405
  983MOL0     C29653   7.101   6.914   7.080 -0.1604  0.1580  0.1125
  983MOL0     O29654   7.024   6.799   7.083  0.1629 -0.7631 -0.3003
  983MOL0     C29655   6.888   6.802   7.092  0.6657 -0.6216 -0.9086
  983MOL0     C29656   6.800   6.892   7.155  0.3232  0.1249 -0.5209
  983MOL0     C29657   6.663   6.864   7.172 -0.3962 -0.0887 -0.3146
  983MOL0     C29658   6.610   6.744   7.132 -0.1308  0.3945  0.5957
  983MOL0     O29659   6.478   6.717   7.176  0.1268  0.4284  0.4914
  983MOL0     C29660   6.446   6.596   7.253 -0.2275  0.4899  0.8117
  983MOL0     C29661   6.377   6.628   7.382 -0.0962  0.5988  1.0459
  983MOL0     C29662   6.248   6.710   7.370 -0.1488  1.0803 -0.2615
  983MOL0     C29663   6.160   6.624   7.283 -0.1697  0.5658  0.6378
  983MOL0     C29664   6.012   6.650   7.315 -0.8439 -0.2405  0.5522
  983MOL0     C29665   5.927   6.540   7.245  0.2328 -0.4133 -0.4797
  983MOL0     C29666   5.777   6.564   7.279 -0.0933  0.6191 -0.1502
  983MOL0     C29667   5.689   6.451   7.230 -0.9810 -1.5017 -0.3879
  983MOL0    Cl29668   5.532   6.479   7.308  0.2855 -0.1537  0.3312
  983MOL0     C29669   6.692   6.656   7.065  0.2341  0.3716  0.3491
  983MOL0     C29670   6.827   6.691   7.049  0.5805  0.6462  1.5432
  983MOL0     O29671   7.059   7.029   7.055 -0.6496  0.3585 -0.1166
  983MOL0     C29672   7.302   6.762   7.103 -0.4068 -0.3270 -0.3761
  983MOL0     C29673   7.438   6.739   7.118 -0.0471  0.2755 -0.3810
  983MOL0     N29674   8.135   6.957   6.829  0.0382  0.2368 -0.6385
  983MOL0     N29675   8.211   6.877   6.771  0.3135  0.8780 -0.7164
  983MOL0     C29676   7.795   6.018   7.150 -0.0546  0.2426  0.3009
  983MOL0     C29677   7.677   5.948   7.165 -0.3307 -0.5436 -0.3008
  983MOL0     C29678   7.361   5.668   7.324  0.0360 -0.5968  0.5661
  983MOL0     C29679   7.280   5.683   7.439  0.4000 -0.7671 -0.4758
  983MOL0     C29680   7.148   5.637   7.431  0.3954 -0.5939 -1.3716
  983MOL0     C29681   7.100   5.569   7.318 -0.1196  0.2676 -0.1884
  983MOL0     O29682   6.975   5.528   7.332 -0.2167 -0.1130  0.1703
  983MOL0     C29683   6.872   5.628   7.336 -0.1206 -0.0134  0.5601
  983MOL0     C29684   6.849   5.714   7.215  0.8639 -0.7219  0.2123
  983MOL0     C29685   6.728   5.798   7.227 -0.4848 -0.6075 -0.1015
  983MOL0     C29686   6.595   5.728   7.178 -0.9766 -0.1840 -0.7060
  983MOL0     C29687   6.489   5.770   7.276 -1.0403  0.2884  0.6588
  983MOL0     C29688   6.412   5.805   7.362 -0.0720 -0.0602  0.2475
  983MOL0     C29689   7.176   5.556   7.206 -0.5766  1.1459  0.4852
  983MOL0     C29690   7.306   5.615   7.203  0.2437  0.1135  0.2513
  983MOL0     H29691   7.790   5.633   7.115 -4.2543 -0.2972  0.6241
  983MOL0     H29692   8.006   5.751   7.122 -0.3180 -3.1563  4.8616
  983MOL0     H29693   8.117   5.934   7.006 -1.5251  1.4733 -0.3011
  983MOL0     H29694   8.203   5.935   7.156  3.3730  0.3754 -2.3696
  983MOL0     H29695   8.328   6.072   6.999  0.2428  0.0784 -0.4397
  983MOL0     H29696   8.274   6.182   7.118  0.7823 -1.3659  0.5078
  983MOL0     H29697   8.071   6.212   6.940  0.0817 -1.4631  3.2006
  983MOL0     H29698   8.184   6.143   6.826 -0.8680  0.9297  0.3239
  983MOL0     H29699   8.201   6.404   6.970 -0.1067  0.6636 -0.5899
  983MOL0     H29700   8.352   6.338   6.901  1.1425  1.5885 -0.7570
  983MOL0     H29701   8.092   6.394   6.751 -0.7766  1.1948 -0.0807
  983MOL0     H29702   8.224   6.307   6.676 -0.4922  0.8350 -0.5697
  983MOL0     H29703   8.353   6.521   6.670 -0.4530  1.0035  0.8151
  983MOL0     H29704   8.259   6.584   6.801 -0.3176  1.4439 -0.2590
  983MOL0     H29705   8.169   6.530   6.517 -0.6978  1.3664 -1.5229
  983MOL0     H29706   8.062   6.585   6.650 -0.0070 -0.3557 -0.0745
  983MOL0     H29707   8.169   6.750   6.465  2.3690 -1.8995 -2.1810
  983MOL0     H29708   8.310   6.737   6.572 -0.8222  4.1358 -0.0517
  983MOL0     H29709   7.924   6.834   6.607 -0.9487 -0.5790  0.6478
  983MOL0     H29710   7.815   7.061   6.759  0.9850  0.8689 -0.1563
  983MOL0     H29711   7.931   7.116   6.874 -0.4669  0.1837  0.0764
  983MOL0     H29712   7.736   7.024   6.978  1.3863  2.8147 -1.9049
  983MOL0     H29713   7.870   6.925   7.038 -3.9093 -1.6070  2.2310
  983MOL0     H29714   7.651   6.837   6.867  0.5369 -0.2823 -2.8357
  983MOL0     H29715   7.817   6.757   6.845  1.4731  0.9449 -0.4673
  983MOL0     H29716   7.821   6.726   7.080  0.9782  3.7147  1.4870
  983MOL0     H29717   7.666   6.650   7.024  0.1969 -0.7493  0.9556
  983MOL0     H29718   7.524   7.064   7.115 -0.1992 -0.3042  0.7361
  983MOL0     H29719   7.296   7.101   7.070 -0.6993 -0.0728  0.0508
  983MOL0     H29720   6.848   6.977   7.202  1.4555 -1.3098  1.0851
  983MOL0     H29721   6.593   6.936   7.213  1.5493  2.7288 -1.6126
  983MOL0     H29722   6.544   6.555   7.276  0.4200  1.6960  0.2890
  983MOL0     H29723   6.393   6.527   7.187  1.7238  1.0200 -1.4763
  983MOL0     H29724   6.453   6.691   7.429  0.1918  2.6262 -1.8882
  983MOL0     H29725   6.355   6.539   7.443 -1.3821  0.6077  0.6228
  983MOL0     H29726   6.258   6.809   7.323  1.1246  0.9082 -0.3757
  983MOL0     H29727   6.203   6.727   7.468  0.5847  1.1370  0.0656
  983MOL0     H29728   6.184   6.638   7.177 -0.2453  0.5779  0.6218
  983MOL0     H29729   6.172   6.518   7.309 -1.7970  0.5551  1.4939
  983MOL0     H29730   5.990   6.752   7.279 -3.2462 -0.8741  0.0422
  983MOL0     H29731   5.995   6.656   7.423  1.7525 -0.2324  1.0342
  983MOL0     H29732   5.948   6.440   7.283 -1.6906  0.0183  1.9926
  983MOL0     H29733   5.926   6.534   7.135 -2.5154 -2.0501 -0.4848
  983MOL0     H29734   5.769   6.555   7.388 -0.7493 -3.8763 -0.4064
  983MOL0     H29735   5.733   6.659   7.247 -1.3681 -0.3593 -1.3929
  983MOL0     H29736   5.723   6.350   7.257  1.0122 -0.5446  0.9323
  983MOL0     H29737   5.682   6.455   7.121  0.3599 -0.2921 -0.4494
  983MOL0     H29738   6.650   6.561   7.033 -4.8809  1.8617  1.6827
  983MOL0     H29739   6.888   6.621   6.993  1.2117  1.0952  1.6585
  983MOL0     H29740   7.229   6.681   7.095 -1.7377  0.7024  0.9447
  983MOL0     H29741   7.477   6.638   7.125 -0.1422  0.2100 -0.7320
  983MOL0     H29742   7.776   6.124   7.164 -1.9933 -0.1425  0.8415
  983MOL0     H29743   7.586   6.005   7.177 -2.2038 -3.5972  1.2289
  983MOL0     H29744   7.320   5.740   7.522 -0.4963  0.8149 -1.0920
  983MOL0     H29745   7.082   5.661   7.514  1.1389  1.2637 -1.2705
  983MOL0     H29746   6.885   5.698   7.419  0.0038  1.8738 -0.9586
  983MOL0     H29747   6.781   5.573   7.362 -0.6454  1.7490  2.8056
  983MOL0     H29748   6.936   5.779   7.201 -0.2998  0.6130 -1.1769
  983MOL0     H29749   6.835   5.649   7.127 -0.7371  0.1989 -0.2536
  983MOL0     H29750   6.741   5.891   7.171 -0.1728 -0.8913 -0.5035
  983MOL0     H29751   6.718   5.838   7.328 -1.1062  1.0730 -0.7991
  983MOL0     H29752   6.571   5.739   7.072 -0.1822  4.6769 -0.6216
  983MOL0     H29753   6.612   5.622   7.193  0.2872 -0.1717 -1.8916
  983MOL0     H29754   6.340   5.850   7.429  0.9484  3.4470 -0.7924
  983MOL0     H29755   7.129   5.504   7.123 -1.2397  1.5304  0.6107
  983MOL0     H29756   7.355   5.621   7.107 -0.6189 -1.3099 -0.3134
  984MOL0     O29757   2.439   4.010   5.895 -0.2813  0.5522 -0.4252
  984MOL0     C29758   2.491   4.068   5.804  0.6223  0.3654  0.3893
  984MOL0     O29759   2.441   4.089   5.680  0.7494  0.1004 -0.3904
  984MOL0     C29760   2.330   4.025   5.645  0.1068  0.6505 -0.2330
  984MOL0     C29761   2.343   3.934   5.543  0.2516  0.0953  1.0994
  984MOL0     C29762   2.224   3.872   5.493  0.9061  0.3530  1.0958
  984MOL0     C29763   2.092   3.913   5.539 -0.0408  0.6463 -0.1109
  984MOL0     O29764   1.965   3.853   5.513 -0.1153  0.1680 -0.1665
  984MOL0     C29765   1.951   3.753   5.410  0.0708  0.0793 -0.0539
  984MOL0     C29766   1.818   3.745   5.335 -0.1800 -0.5151 -0.4976
  984MOL0     C29767   1.697   3.702   5.425 -0.8768 -0.4314 -0.4211
  984MOL0     C29768   1.568   3.730   5.335 -0.0134 -0.3035  0.6963
  984MOL0     C29769   1.447   3.659   5.380  0.3269 -0.4342 -0.4057
  984MOL0     C29770   1.315   3.699   5.314 -0.4433 -0.8382 -1.6067
  984MOL0     C29771   1.191   3.663   5.396 -0.0806  0.4923 -1.1571
  984MOL0     C29772   1.048   3.680   5.350  0.8649 -0.0171 -0.7121
  984MOL0     N29773   0.976   3.720   5.470 -0.5489 -0.5970 -0.1484
  984MOL0     C29774   0.942   3.649   5.580 -0.1956  0.2809 -0.1919
  984MOL0     C29775   0.891   3.730   5.672 -0.0312  0.3393 -0.6463
  984MOL0     C29776   0.838   3.694   5.810  0.5048  0.5801 -0.4800
  984MOL0     C29777   0.701   3.629   5.797  0.1954 -0.2414  0.8226
  984MOL0     C29778   0.594   3.727   5.742  0.3526 -0.3385  0.5912
  984MOL0     C29779   0.453   3.672   5.774  0.0872 -0.3189  0.1532
  984MOL0     O29780   0.347   3.731   5.703 -0.9454 -0.4921 -0.2311
  984MOL0     C29781   0.223   3.695   5.743 -0.1320  0.9091  0.1789
  984MOL0     C29782   0.186   3.617   5.848  0.1463  0.2362 -0.0388
  984MOL0     C29783   0.051   3.588   5.872 -0.1565  0.5957 -0.6833
  984MOL0     C29784  -0.053   3.634   5.784  0.7633 -0.2674 -0.0348
  984MOL0     C29785  -0.194   3.613   5.813 -0.6380  0.4000 -0.3568
  984MOL0     O29786  -0.284   3.686   5.748 -0.2915 -0.0891 -0.5446
  984MOL0     C29787  -0.422   3.686   5.780 -0.0229  0.6703  0.6492
  984MOL0     C29788  -0.478   3.681   5.914  0.8086 -0.7598 -0.6918
  984MOL0     C29789  -0.615   3.698   5.942  0.8983  0.3749  0.4092
  984MOL0     C29790  -0.695   3.729   5.831 -0.7819  0.0470 -0.8167
  984MOL0     O29791  -0.823   3.753   5.865  0.7503 -0.5664  0.2533
  984MOL0     C29792  -0.929   3.798   5.774  0.2307  0.0357 -0.4603
  984MOL0     C29793  -1.055   3.748   5.842 -0.5302 -0.0769 -1.1503
  984MOL0     C29794  -1.176   3.743   5.737 -0.1733  0.4414  0.3353
  984MOL0     C29795  -1.299   3.681   5.800 -1.2748 -0.4439  0.9360
  984MOL0     C29796  -1.409   3.680   5.707  0.1380  0.6481  0.4121
  984MOL0     C29797  -1.549   3.653   5.765 -0.0778 -0.1284  0.0640
  984MOL0     C29798  -1.585   3.504   5.787 -1.0193  0.0470 -0.2329
  984MOL0     C29799  -1.729   3.488   5.839 -0.4858  0.2047 -0.3373
  984MOL0    Cl29800  -1.735   3.541   5.996 -0.0432 -0.4027 -0.1105
  984MOL0     C29801  -0.647   3.736   5.703  0.0512 -0.4119 -0.1964
  984MOL0     C29802  -0.516   3.709   5.679 -0.1119 -0.5465  0.0624
  984MOL0     O29803  -0.217   3.513   5.886 -0.0046 -0.2025  0.1776
  984MOL0     C29804  -0.013   3.714   5.676  0.0774  0.7365 -0.8253
  984MOL0     C29805   0.123   3.742   5.657 -0.5880 -1.0537 -0.8878
  984MOL0     N29806   0.909   3.862   5.623 -0.5447  0.6881 -0.5564
  984MOL0     N29807   0.957   3.850   5.504 -0.5271  0.0273 -1.0398
  984MOL0     C29808   2.093   3.994   5.654 -0.7556  0.5363  0.6444
  984MOL0     C29809   2.207   4.055   5.696 -0.6998  0.6821 -0.2762
  984MOL0     C29810   2.624   4.122   5.832 -0.1240 -0.3774 -0.4595
  984MOL0     C29811   2.673   4.227   5.748 -0.8895 -0.3953  0.4404
  984MOL0     C29812   2.804   4.270   5.768 -0.5665 -0.4838  0.3743
  984MOL0     C29813   2.887   4.206   5.853  0.3454  0.2843 -0.4654
  984MOL0     O29814   3.010   4.259   5.858  0.4081  0.2245 -0.3517
  984MOL0     C29815   3.088   4.283   5.738 -0.3129  0.2777 -0.5001
  984MOL0     C29816   3.227   4.318   5.777  0.5041  0.1522 -0.6720
  984MOL0     C29817   3.302   4.183   5.825  0.2746  0.5193  0.0964
  984MOL0     C29818   3.435   4.216   5.877  0.8987  0.2894 -0.6742
  984MOL0     C29819   3.517   4.282   5.786 -0.0163  0.4853  0.0611
  984MOL0     C29820   3.598   4.338   5.718 -0.0735 -0.4143 -0.4696
  984MOL0     C29821   2.841   4.113   5.943  0.0109 -0.0854  0.2779
  984MOL0     C29822   2.703   4.078   5.937 -0.5814  0.0025 -0.3265
  984MOL0     H29823   2.438   3.926   5.490 -1.6388  1.4858 -2.8731
  984MOL0     H29824   2.227   3.804   5.409 -2.9852  2.2650 -0.8726
  984MOL0     H29825   1.948   3.654   5.456  0.0063 -1.0133 -2.2540
  984MOL0     H29826   2.034   3.752   5.339  0.0205 -2.8075 -0.2210
  984MOL0     H29827   1.834   3.678   5.251  0.4550  0.7413 -1.4175
  984MOL0     H29828   1.797   3.838   5.281  0.6886 -0.0756 -0.1019
  984MOL0     H29829   1.693   3.768   5.512 -0.5466  1.0213 -1.4772
  984MOL0     H29830   1.709   3.596   5.452  2.2993 -0.6158 -2.1123
  984MOL0     H29831   1.556   3.837   5.316  2.1194 -0.1180  0.1421
  984MOL0     H29832   1.575   3.686   5.235  1.0214 -0.6662  0.9178
  984MOL0     H29833   1.433   3.678   5.487 -2.7093 -0.7351 -0.6551
  984MOL0     H29834   1.454   3.551   5.367 -3.7387 -0.7695 -1.0999
  984MOL0     H29835   1.301   3.659   5.213  1.1396 -0.8760 -1.8352
  984MOL0     H29836   1.315   3.808   5.301 -0.2665 -0.7393 -0.8217
  984MOL0     H29837   1.198   3.557   5.421  1.4578  0.7288 -0.4309
  984MOL0     H29838   1.198   3.732   5.481  0.4475  2.7159 -2.8811
  984MOL0     H29839   1.009   3.591   5.300 -0.2029  1.2049 -2.1580
  984MOL0     H29840   1.030   3.764   5.282  0.7245  2.7135  2.4694
  984MOL0     H29841   0.952   3.542   5.595  1.6959  0.7229  2.2443
  984MOL0     H29842   0.842   3.773   5.885  0.4631 -0.9788  1.2264
  984MOL0     H29843   0.900   3.616   5.854 -2.7280 -2.3465 -0.6327
  984MOL0     H29844   0.674   3.592   5.896 -0.8245  0.2852  0.7513
  984MOL0     H29845   0.701   3.542   5.729 -0.5991 -0.1008  0.6342
  984MOL0     H29846   0.599   3.823   5.795  0.9464 -0.9221  1.6401
  984MOL0     H29847   0.600   3.739   5.634  0.9540  1.9737  0.8282
  984MOL0     H29848   0.451   3.685   5.883  1.5988 -0.3637  0.2009
  984MOL0     H29849   0.443   3.566   5.748  0.9536 -0.6224  1.0212
  984MOL0     H29850   0.264   3.563   5.900 -1.2742 -0.7973  1.0746
  984MOL0     H29851   0.025   3.531   5.961 -1.6119  2.5359  0.2011
  984MOL0     H29852  -0.409   3.649   5.992  0.5463  1.4083  0.4938
  984MOL0     H29853  -0.655   3.689   6.043  1.8080  2.2315  0.9878
  984MOL0     H29854  -0.913   3.749   5.677 -2.4478 -3.1464  0.5230
  984MOL0     H29855  -0.933   3.907   5.768  0.8480  0.3755  3.1477
  984MOL0     H29856  -1.092   3.819   5.917  0.7650 -0.1618 -0.4092
  984MOL0     H29857  -1.023   3.657   5.894  4.3959  1.8439 -0.2962
  984MOL0     H29858  -1.138   3.672   5.663  1.0115  0.3064  1.0585
  984MOL0     H29859  -1.186   3.834   5.676  3.6134 -1.4667 -3.7159
  984MOL0     H29860  -1.282   3.580   5.837 -0.8986 -1.7888 -2.5289
  984MOL0     H29861  -1.317   3.757   5.876  3.1906  3.9056 -1.7351
  984MOL0     H29862  -1.392   3.618   5.619  2.0765  1.6575  0.0147
  984MOL0     H29863  -1.413   3.779   5.661 -2.8243 -0.6457 -2.4869
  984MOL0     H29864  -1.611   3.712   5.696  0.6143  1.4978  0.8021
  984MOL0     H29865  -1.555   3.699   5.864  2.0468 -1.8655  1.0791
  984MOL0     H29866  -1.581   3.454   5.689  0.9618  1.5161 -0.9585
  984MOL0     H29867  -1.525   3.455   5.864 -1.2739 -1.9460 -1.2158
  984MOL0     H29868  -1.757   3.383   5.834 -1.1412  0.3959 -0.8166
  984MOL0     H29869  -1.802   3.541   5.777 -1.5872  0.5051  1.1713
  984MOL0     H29870  -0.702   3.757   5.612  2.3416  0.7755 -1.4036
  984MOL0     H29871  -0.466   3.706   5.583 -0.4318  0.7244 -0.1677
  984MOL0     H29872  -0.089   3.744   5.606 -1.7010 -0.2578  0.5773
  984MOL0     H29873   0.164   3.802   5.576  4.0288 -1.0212  1.1277
  984MOL0     H29874   1.994   4.011   5.694 -0.7845  0.0265  0.7898
  984MOL0     H29875   2.204   4.133   5.771  0.2977 -0.0586  0.5634
  984MOL0     H29876   2.610   4.267   5.669 -1.7456 -1.0768  0.7723
  984MOL0     H29877   2.843   4.349   5.705 -2.1139 -2.0150 -2.7454
  984MOL0     H29878   3.047   4.370   5.687  3.1460  2.4750  0.1274
  984MOL0     H29879   3.090   4.192   5.677 -1.1683 -0.7886  0.9769
  984MOL0     H29880   3.287   4.368   5.701  5.3560 -0.6906  2.1360
  984MOL0     H29881   3.225   4.384   5.864 -0.3427 -0.3479 -0.3022
  984MOL0     H29882   3.314   4.117   5.738  0.3302  1.3952 -0.5777
  984MOL0     H29883   3.259   4.132   5.912  2.4128  0.6867  1.3090
  984MOL0     H29884   3.426   4.277   5.967  1.5192  1.2714 -1.2413
  984MOL0     H29885   3.483   4.122   5.906  1.0524  0.5938  0.0853
  984MOL0     H29886   3.683   4.377   5.666  0.3313 -0.7279 -0.0642
  984MOL0     H29887   2.909   4.063   6.010 -0.2537  0.1776  0.7484
  984MOL0     H29888   2.667   3.996   5.998 -1.2647  1.2674  1.0216
  985MOL0     O29889   5.197   2.135   9.800 -0.9007  0.0157 -0.2507
  985MOL0     C29890   5.214   2.225   9.719 -0.6509 -0.3203  0.2015
  985MOL0     O29891   5.122   2.296   9.650  0.2343 -0.4947  0.1513
  985MOL0     C29892   4.993   2.256   9.684 -0.5775  0.2196 -0.1531
  985MOL0     C29893   4.933   2.155   9.606  0.4951 -0.4839  0.7911
  985MOL0     C29894   4.796   2.116   9.627  0.1243  0.3595 -0.4491
  985MOL0     C29895   4.720   2.179   9.728 -0.1913  0.7953  0.1173
  985MOL0     O29896   4.588   2.153   9.757 -0.5956 -0.0391 -0.1234
  985MOL0     C29897   4.503   2.165   9.642 -0.6121  0.4108 -0.1383
  985MOL0     C29898   4.361   2.213   9.677 -0.6648  0.5436 -0.4033
  985MOL0     C29899   4.369   2.359   9.743 -0.8394  0.2496  0.8682
  985MOL0     C29900   4.246   2.423   9.802  0.2176 -0.1598  0.0281
  985MOL0     C29901   4.201   2.357   9.928  0.5453  0.6783 -0.6197
  985MOL0     C29902   4.116   2.454  10.020 -0.4038 -0.3751  0.0773
  985MOL0     C29903   4.027   2.386  10.122 -0.2049 -0.4658  0.4301
  985MOL0     C29904   4.120   2.320  10.224  0.3519  0.3437  0.2637
  985MOL0     N29905   4.076   2.295  10.360  0.8290  0.1082 -0.0415
  985MOL0     C29906   4.150   2.235  10.460  0.2265 -0.0737 -0.6864
  985MOL0     C29907   4.066   2.232  10.562  0.0830  0.3556 -1.5907
  985MOL0     C29908   4.074   2.166  10.699  0.1223  0.7486 -0.8177
  985MOL0     C29909   4.091   2.275  10.809 -0.0155  0.3168  0.4417
  985MOL0     C29910   3.973   2.274  10.904 -0.8742 -0.0557 -0.6541
  985MOL0     C29911   3.839   2.313  10.845  0.8896  0.3562  0.4276
  985MOL0     O29912   3.744   2.305  10.947 -0.6208  0.5876 -0.0967
  985MOL0     C29913   3.611   2.335  10.924  0.1038  0.1718 -0.8975
  985MOL0     C29914   3.533   2.299  11.029 -0.3107  0.2233  1.0580
  985MOL0     C29915   3.391   2.313  11.028  0.2093 -0.5319 -0.2790
  985MOL0     C29916   3.328   2.384  10.920  0.0857 -0.6717  1.2029
  985MOL0     C29917   3.190   2.425  10.929  0.4452  0.1489 -0.6341
  985MOL0     O29918   3.154   2.551  10.875  0.0005 -0.1935  0.8165
  985MOL0     C29919   3.028   2.589  10.907  0.9975 -0.3423 -0.0651
  985MOL0     C29920   2.915   2.587  10.820 -0.7548 -0.5164 -0.5270
  985MOL0     C29921   2.794   2.646  10.863 -0.0324  0.0045  0.3652
  985MOL0     C29922   2.785   2.708  10.990  0.1414 -0.6948 -0.2006
  985MOL0     O29923   2.684   2.792  11.033  0.4543 -0.2200  0.2778
  985MOL0     C29924   2.634   2.878  10.931  0.0304  0.6354 -0.4674
  985MOL0     C29925   2.566   2.994  10.994  0.3226 -0.0110 -0.4519
  985MOL0     C29926   2.421   2.968  11.024  0.7889  0.8663 -0.3957
  985MOL0     C29927   2.330   3.080  11.086 -0.8049 -0.9442 -0.2150
  985MOL0     C29928   2.190   3.037  11.126  0.0142  0.7227 -1.2028
  985MOL0     C29929   2.106   3.152  11.191 -0.3548 -0.4601  0.1567
  985MOL0     C29930   1.967   3.110  11.237  0.0150 -0.4318  0.2268
  985MOL0     C29931   1.858   3.220  11.219 -0.0763 -0.1206  0.1550
  985MOL0    Cl29932   1.693   3.150  11.219  0.0136 -0.1226  0.0191
  985MOL0     C29933   2.896   2.710  11.070  1.1154  0.9544 -0.0722
  985MOL0     C29934   3.011   2.650  11.033  0.3235  0.6973 -0.0810
  985MOL0     O29935   3.107   2.347  10.977 -0.1608  0.0405  0.2048
  985MOL0     C29936   3.412   2.427  10.814 -0.0515 -0.0522  0.1555
  985MOL0     C29937   3.553   2.406  10.824  0.1246 -0.2395 -0.4783
  985MOL0     N29938   3.948   2.294  10.526  0.4797 -0.0481  0.3027
  985MOL0     N29939   3.948   2.318  10.402 -0.7812  1.4371 -0.9075
  985MOL0     C29940   4.788   2.276   9.805  0.6849 -0.3917 -0.6106
  985MOL0     C29941   4.924   2.315   9.787 -0.3533  0.5020  0.9085
  985MOL0     C29942   5.356   2.255   9.692 -0.6350  0.4099 -0.3785
  985MOL0     C29943   5.457   2.164   9.735 -0.5695 -0.3875  0.0083
  985MOL0     C29944   5.593   2.199   9.719  0.2613  0.2408 -0.1134
  985MOL0     C29945   5.636   2.318   9.661 -0.5172 -0.2445  0.2135
  985MOL0     O29946   5.774   2.338   9.651 -0.2738 -0.0010  0.2358
  985MOL0     C29947   5.831   2.450   9.585  0.7772 -0.0357 -0.5701
  985MOL0     C29948   5.964   2.479   9.656  0.5034 -0.4726  0.8649
  985MOL0     C29949   6.022   2.602   9.601  0.5139  0.2107  1.1060
  985MOL0     C29950   6.171   2.605   9.632  0.0279 -0.3819 -0.6073
  985MOL0     C29951   6.240   2.718   9.577  0.8129 -0.0258  0.4560
  985MOL0     C29952   6.320   2.802   9.543  1.2610 -0.1650  0.3507
  985MOL0     C29953   5.535   2.406   9.613  0.6209  0.2374  0.0166
  985MOL0     C29954   5.396   2.369   9.624  0.2951 -0.3139  1.3250
  985MOL0     H29955   4.988   2.111   9.523  1.4370  0.8396  0.6987
  985MOL0     H29956   4.759   2.035   9.565  3.2349 -1.1663 -0.4905
  985MOL0     H29957   4.498   2.063   9.601 -1.7825 -0.3198  1.6973
  985MOL0     H29958   4.557   2.230   9.573  3.1638 -1.2787  0.9757
  985MOL0     H29959   4.327   2.144   9.754  0.7768  0.2178 -0.0513
  985MOL0     H29960   4.292   2.208   9.592 -1.2785  0.6385  0.0764
  985MOL0     H29961   4.393   2.422   9.656 -0.6492  0.5705  1.1539
  985MOL0     H29962   4.457   2.355   9.808 -0.5267  0.7830  0.4906
  985MOL0     H29963   4.267   2.522   9.843 -1.9563 -0.0288  0.9522
  985MOL0     H29964   4.176   2.433   9.718  1.2099 -1.6742 -1.0314
  985MOL0     H29965   4.270   2.298   9.989 -0.8633  1.2291  1.6370
  985MOL0     H29966   4.123   2.288   9.894 -1.4225  3.0306 -1.1752
  985MOL0     H29967   4.062   2.517   9.948 -0.3953  4.0150  3.4543
  985MOL0     H29968   4.174   2.529  10.075 -2.8991  2.2644 -0.6686
  985MOL0     H29969   3.959   2.460  10.166  0.1408 -0.4622  0.9621
  985MOL0     H29970   3.960   2.315  10.073 -2.2899  0.0836  2.3293
  985MOL0     H29971   4.209   2.384  10.226  1.2938 -0.7568 -2.1127
  985MOL0     H29972   4.166   2.230  10.182 -1.4242 -0.0085 -1.1103
  985MOL0     H29973   4.243   2.179  10.460 -0.1844 -0.8104  1.1490
  985MOL0     H29974   4.160   2.098  10.705 -0.2316  0.4294  1.3861
  985MOL0     H29975   3.984   2.103  10.703 -0.4864  1.5472 -1.6245
  985MOL0     H29976   4.100   2.374  10.763  0.1620 -0.9150 -2.3544
  985MOL0     H29977   4.182   2.259  10.869  1.4145  0.4530 -1.6077
  985MOL0     H29978   3.960   2.174  10.947  2.4255 -0.0139  0.7175
  985MOL0     H29979   4.003   2.341  10.984  0.9851  2.2794 -3.1242
  985MOL0     H29980   3.807   2.252  10.760 -1.9006  2.5656 -0.2486
  985MOL0     H29981   3.841   2.417  10.812  1.2474 -0.3221 -1.9143
  985MOL0     H29982   3.590   2.263  11.114 -0.8414 -0.0251  1.3122
  985MOL0     H29983   3.342   2.268  11.113 -1.6521  0.6136 -0.6738
  985MOL0     H29984   2.905   2.539  10.723 -3.4380  1.9289 -1.6032
  985MOL0     H29985   2.704   2.651  10.803 -0.3743  1.0150  0.9293
  985MOL0     H29986   2.561   2.824  10.871  0.8588  1.5173 -2.3452
  985MOL0     H29987   2.710   2.921  10.866 -0.7042  2.0968 -0.4240
  985MOL0     H29988   2.579   3.075  10.922  0.0780 -2.6894 -3.7923
  985MOL0     H29989   2.612   3.024  11.088  0.4494 -0.6637 -0.2966
  985MOL0     H29990   2.426   2.885  11.096  2.9749 -1.4880 -2.9978
  985MOL0     H29991   2.370   2.931  10.934 -0.4476  1.0361  0.2237
  985MOL0     H29992   2.372   3.123  11.178  0.7728  1.4395 -1.9184
  985MOL0     H29993   2.328   3.162  11.014 -2.8331 -0.5848  0.1953
  985MOL0     H29994   2.203   2.962  11.204 -0.1220  0.5168 -1.3795
  985MOL0     H29995   2.134   2.993  11.043  0.5160  0.3140 -1.3219
  985MOL0     H29996   2.095   3.233  11.117  1.6131  1.0480  1.4297
  985MOL0     H29997   2.167   3.191  11.272 -1.0907  0.1369  0.4406
  985MOL0     H29998   1.942   3.023  11.175  1.4118  1.4292 -3.2592
  985MOL0     H29999   1.982   3.080  11.341  1.4727  0.7537  0.3896
  985MOL0     H30000   1.874   3.284  11.133  1.4995 -0.5156  0.1335
  985MOL0     H30001   1.854   3.277  11.312 -0.6887 -1.3884  0.9510
  985MOL0     H30002   2.898   2.747  11.172  0.7706 -0.6405  0.5393
  985MOL0     H30003   3.082   2.657  11.114  1.8253  2.4419 -1.4577
  985MOL0     H30004   3.380   2.488  10.730 -2.6378 -3.1938 -1.3591
  985MOL0     H30005   3.623   2.448  10.753 -0.4625  0.0738 -0.8837
  985MOL0     H30006   4.739   2.318   9.892  1.7589  0.4680 -0.4001
  985MOL0     H30007   4.982   2.383   9.849  1.2617  0.2002 -0.2141
  985MOL0     H30008   5.433   2.077   9.794  0.3923 -1.9058 -1.7263
  985MOL0     H30009   5.673   2.130   9.747  1.4022  1.1228 -1.0876
  985MOL0     H30010   5.780   2.546   9.600 -1.4607 -1.5398  2.5069
  985MOL0     H30011   5.838   2.416   9.481  1.5979 -1.9460  0.0623
  985MOL0     H30012   5.957   2.477   9.766  2.2120 -1.4097  0.9847
  985MOL0     H30013   6.022   2.387   9.650 -2.2560 -2.3966  1.4121
  985MOL0     H30014   5.968   2.691   9.637 -2.3507  0.0010 -2.0749
  985MOL0     H30015   6.003   2.613   9.494 -1.7589  2.0358  1.6094
  985MOL0     H30016   6.174   2.611   9.741  0.0042 -1.8276 -0.5059
  985MOL0     H30017   6.229   2.524   9.586 -1.1633 -1.1025 -0.9049
  985MOL0     H30018   6.394   2.877   9.524  2.4505 -1.3819  0.0485
  985MOL0     H30019   5.562   2.492   9.552  2.0991 -0.4630 -0.3589
  985MOL0     H30020   5.320   2.443   9.601  0.2561 -0.9364 -0.8787
  986MOL0     O30021  10.775   1.645   0.092  0.3323 -0.1276 -0.1800
  986MOL0     C30022  10.683   1.723   0.058  0.6839 -0.4294 -0.5657
  986MOL0     O30023  10.701   1.830  -0.026  0.2416 -0.7167 -0.0821
  986MOL0     C30024  10.823   1.870  -0.051 -0.2016 -0.1097 -0.0989
  986MOL0     C30025  10.926   1.800  -0.112  0.1827  0.6804  0.2528
  986MOL0     C30026  11.052   1.849  -0.136  0.0609 -0.0958 -0.2731
  986MOL0     C30027  11.075   1.985  -0.096  0.7324  0.2018  1.5862
  986MOL0     O30028  11.171   2.066  -0.136 -0.9402 -0.1906 -0.3405
  986MOL0     C30029  11.300   1.993  -0.138 -0.4768 -0.2292  0.8963
  986MOL0     C30030  11.350   1.949  -0.272 -0.1364  0.0714 -0.2516
  986MOL0     C30031  11.500   1.909  -0.280  0.0085 -0.3474 -1.3048
  986MOL0     C30032  11.540   1.784  -0.201  0.2784 -0.1659  0.0599
  986MOL0     C30033  11.686   1.782  -0.179  0.2779  0.0145  0.2590
  986MOL0     C30034  11.755   1.647  -0.173  1.0567 -0.2026  0.9246
  986MOL0     C30035  11.898   1.657  -0.211  0.4490 -0.1364  0.0662
  986MOL0     C30036  11.989   1.538  -0.187  0.1224 -0.9318  0.3316
  986MOL0     N30037  12.114   1.532  -0.255 -0.7644 -0.4919 -0.2518
  986MOL0     C30038  12.144   1.518  -0.391  0.2751 -0.3931 -0.4586
  986MOL0     C30039  12.279   1.508  -0.403  0.3760 -0.0269  0.3280
  986MOL0     C30040  12.350   1.472  -0.531 -0.0130  0.2132 -0.0100
  986MOL0     C30041  12.437   1.336  -0.514  0.1793  0.0924  0.5920
  986MOL0     C30042  12.350   1.217  -0.484  0.0065 -0.1979 -0.0396
  986MOL0     C30043  12.267   1.168  -0.599  0.4658 -0.6919  0.3426
  986MOL0     O30044  12.139   1.236  -0.619  0.2273  0.2099 -0.2650
  986MOL0     C30045  12.029   1.197  -0.544 -0.3644  0.1221 -0.2131
  986MOL0     C30046  12.034   1.111  -0.430 -0.2453  0.8514  0.5014
  986MOL0     C30047  11.917   1.088  -0.348 -0.3655  0.3232  0.3943
  986MOL0     C30048  11.787   1.147  -0.385 -0.2294  0.1225  0.0144
  986MOL0     C30049  11.660   1.114  -0.313 -0.0211  0.1601  0.5214
  986MOL0     O30050  11.545   1.164  -0.367 -0.1140 -0.9252 -0.2502
  986MOL0     C30051  11.419   1.126  -0.333 -0.9566 -0.2038 -0.6047
  986MOL0     C30052  11.375   1.053  -0.213 -0.4194  0.6532  0.5905
  986MOL0     C30053  11.235   1.014  -0.201 -0.0382 -0.4521  1.0408
  986MOL0     C30054  11.143   1.040  -0.297 -0.3955  0.5788  0.6926
  986MOL0     O30055  11.025   0.981  -0.277 -0.0223 -0.4949 -0.3515
  986MOL0     C30056  10.917   1.070  -0.294 -0.1079  0.4442  0.3639
  986MOL0     C30057  10.791   0.992  -0.254 -0.9398 -1.0115  0.7694
  986MOL0     C30058  10.749   0.895  -0.364  0.3452  0.0459  0.3730
  986MOL0     C30059  10.629   0.807  -0.329  0.0517  0.7225 -0.4160
  986MOL0     C30060  10.496   0.887  -0.348  0.3449 -0.3470  0.2047
  986MOL0     C30061  10.393   0.874  -0.238 -1.4074  0.0646  0.2757
  986MOL0     C30062  10.274   0.969  -0.266  0.6018 -0.0503  0.2182
  986MOL0     C30063  10.183   0.936  -0.383  1.6111 -0.0973 -0.1685
  986MOL0    Cl30064  10.250   1.004  -0.532 -0.2065  0.5873  0.1668
  986MOL0     C30065  11.180   1.123  -0.406 -0.0776  1.5685 -0.9639
  986MOL0     C30066  11.317   1.160  -0.423  0.1711  0.2076 -0.0605
  986MOL0     O30067  11.667   1.046  -0.215 -0.3618  0.7229  0.1686
  986MOL0     C30068  11.784   1.230  -0.500  0.5722  0.2566  0.3485
  986MOL0     C30069  11.906   1.254  -0.572  0.3229  0.2380 -0.2868
  986MOL0     N30070  12.331   1.525  -0.275  0.3771  0.1172  0.2464
  986MOL0     N30071  12.233   1.538  -0.189  0.0977 -0.1882  0.0303
  986MOL0     C30072  10.972   2.060  -0.035  0.6788 -0.2120  0.4545
  986MOL0     C30073  10.844   2.011  -0.019  0.1860  0.5934  0.0194
  986MOL0     C30074  10.548   1.696   0.106  0.5102  0.1594 -0.2838
  986MOL0     C30075  10.518   1.586   0.194  0.0233 -0.2498 -0.9021
  986MOL0     C30076  10.388   1.578   0.247  0.0466  0.5856  0.9136
  986MOL0     C30077  10.285   1.670   0.212  0.3915  0.1249  0.1393
  986MOL0     O30078  10.174   1.668   0.296  0.0494  0.3781  0.4480
  986MOL0     C30079  10.066   1.766   0.285  0.6626 -0.3012 -0.0413
  986MOL0     C30080   9.970   1.716   0.179  0.3450 -0.3647 -1.5015
  986MOL0     C30081   9.840   1.806   0.156 -0.8335 -1.1503  0.2899
  986MOL0     C30082   9.847   1.893   0.030 -0.6552 -0.4031 -0.0157
  986MOL0     C30083   9.960   1.979   0.027  0.0005  0.7144  0.3691
  986MOL0     C30084  10.067   2.037   0.001  0.6064  0.0572 -0.2425
  986MOL0     C30085  10.318   1.771   0.116  0.7506 -0.0480 -0.6431
  986MOL0     C30086  10.449   1.780   0.066 -0.7900  0.5300  0.0687
  986MOL0     H30087  10.903   1.705  -0.159 -0.4449  1.4188 -0.9913
  986MOL0     H30088  11.122   1.795  -0.198  2.7294  1.2811  1.3506
  986MOL0     H30089  11.304   1.904  -0.075 -0.6933 -1.1018 -0.3053
  986MOL0     H30090  11.370   2.066  -0.095  1.4969 -1.2419 -0.4926
  986MOL0     H30091  11.338   2.024  -0.351 -0.4821 -2.1865 -2.4868
  986MOL0     H30092  11.295   1.860  -0.302  2.2188 -2.0890  1.3636
  986MOL0     H30093  11.550   1.996  -0.236  1.0480 -1.3612 -0.4439
  986MOL0     H30094  11.535   1.891  -0.382 -2.9513 -1.6705 -2.2020
  986MOL0     H30095  11.494   1.781  -0.102  3.0347  2.1207  1.5784
  986MOL0     H30096  11.505   1.696  -0.256  5.0288 -0.7822 -2.5558
  986MOL0     H30097  11.711   1.841  -0.089 -1.2688  1.3229 -0.1162
  986MOL0     H30098  11.728   1.824  -0.271 -0.3005 -2.1521 -1.0572
  986MOL0     H30099  11.707   1.574  -0.239  5.1063 -1.6762 -0.7093
  986MOL0     H30100  11.744   1.600  -0.074 -0.0364 -2.1228 -0.0469
  986MOL0     H30101  11.886   1.681  -0.317  0.0262 -1.3687 -0.1748
  986MOL0     H30102  11.949   1.738  -0.158  0.2663  0.1735 -0.2265
  986MOL0     H30103  11.941   1.442  -0.208  2.1303 -1.8665 -0.2622
  986MOL0     H30104  12.007   1.552  -0.080 -2.7259 -1.8635  1.0226
  986MOL0     H30105  12.069   1.494  -0.466  0.0003 -0.7366 -0.0813
  986MOL0     H30106  12.421   1.550  -0.559  0.3697  0.5123  1.7037
  986MOL0     H30107  12.266   1.468  -0.601 -1.9622  0.3074  2.1856
  986MOL0     H30108  12.502   1.358  -0.429  1.5763  3.0317 -1.0802
  986MOL0     H30109  12.506   1.334  -0.599 -0.0426  1.3907  0.3701
  986MOL0     H30110  12.415   1.133  -0.458 -2.2255 -1.9528  0.1600
  986MOL0     H30111  12.287   1.240  -0.398 -1.4720  0.8642 -1.3656
  986MOL0     H30112  12.255   1.061  -0.579 -1.8431 -0.2710  1.5782
  986MOL0     H30113  12.335   1.183  -0.683  0.4689  0.6578  0.5565
  986MOL0     H30114  12.119   1.048  -0.404 -2.0022 -0.7346  2.8997
  986MOL0     H30115  11.928   1.025  -0.260  1.7845 -1.3929 -1.0151
  986MOL0     H30116  11.449   1.037  -0.136 -1.2490 -3.2721  0.7482
  986MOL0     H30117  11.201   0.964  -0.111  0.2349 -1.0081  0.8422
  986MOL0     H30118  10.908   1.095  -0.400  3.5057  1.5552  0.1990
  986MOL0     H30119  10.934   1.163  -0.240  3.0460  0.2837 -0.1480
  986MOL0     H30120  10.709   1.064  -0.254 -0.0087  0.1190 -0.7388
  986MOL0     H30121  10.809   0.953  -0.153  1.3781  2.7083  2.0271
  986MOL0     H30122  10.843   0.844  -0.389  1.3537  2.0669 -0.1071
  986MOL0     H30123  10.720   0.957  -0.450 -1.6702  1.2861  1.8684
  986MOL0     H30124  10.628   0.714  -0.387 -1.5637  0.4610 -0.0037
  986MOL0     H30125  10.636   0.768  -0.227  0.0551  0.5233 -0.4917
  986MOL0     H30126  10.461   0.843  -0.442  0.7842  4.0809 -2.3075
  986MOL0     H30127  10.513   0.991  -0.376  1.7967 -1.2208 -2.5520
  986MOL0     H30128  10.434   0.908  -0.143  2.3816  1.3193 -1.6153
  986MOL0     H30129  10.351   0.774  -0.222 -0.6578 -0.4665 -0.9601
  986MOL0     H30130  10.215   0.975  -0.175 -1.3641  1.4822 -1.0648
  986MOL0     H30131  10.310   1.070  -0.289  1.9458 -1.1825 -3.3297
  986MOL0     H30132  10.081   0.973  -0.378  1.2794 -0.8623 -0.9092
  986MOL0     H30133  10.174   0.827  -0.389  1.5073 -0.1419  0.6613
  986MOL0     H30134  11.112   1.138  -0.489 -1.0061 -1.8187 -0.9821
  986MOL0     H30135  11.351   1.221  -0.507 -0.4492  0.3416 -0.2226
  986MOL0     H30136  11.698   1.290  -0.530 -0.7425 -1.3847  0.6583
  986MOL0     H30137  11.902   1.323  -0.656  1.1235 -0.4244 -0.8829
  986MOL0     H30138  10.980   2.166  -0.014  0.1127 -0.7710  4.1680
  986MOL0     H30139  10.774   2.089   0.011 -1.5475 -0.3408 -1.4036
  986MOL0     H30140  10.587   1.513   0.234 -1.2226 -0.0095  1.9490
  986MOL0     H30141  10.365   1.490   0.306 -1.6563  0.1959 -0.2745
  986MOL0     H30142  10.107   1.864   0.260 -3.6977  1.5702 -0.8639
  986MOL0     H30143  10.012   1.774   0.380  1.4048 -0.7633  0.4275
  986MOL0     H30144  10.030   1.684   0.093  1.5991  0.7173 -1.0802
  986MOL0     H30145   9.926   1.625   0.220  0.5229  0.4611  0.6324
  986MOL0     H30146   9.827   1.874   0.241 -0.4876  0.6563 -1.0237
  986MOL0     H30147   9.744   1.754   0.149 -0.7932 -0.9818 -3.0532
  986MOL0     H30148   9.851   1.822  -0.053  3.6372 -0.9190  0.4410
  986MOL0     H30149   9.759   1.956   0.015 -1.0974 -1.5132 -2.6475
  986MOL0     H30150  10.162   2.076  -0.031  0.7666 -0.0730  0.0735
  986MOL0     H30151  10.252   1.849   0.080 -1.8258 -1.5410  0.5701
  986MOL0     H30152  10.480   1.860  -0.000 -0.0226  1.4257  1.4424
  987MOL0     O30153   9.454   5.433   9.704  0.5414 -0.3279 -0.1788
  987MOL0     C30154   9.528   5.341   9.738 -0.3051  0.1545  0.0096
  987MOL0     O30155   9.488   5.222   9.803 -0.0088 -0.7816  0.5192
  987MOL0     C30156   9.359   5.199   9.836  1.1529 -0.3842  0.4852
  987MOL0     C30157   9.326   5.133   9.959 -0.1106 -0.3601  1.2087
  987MOL0     C30158   9.194   5.116  10.003  0.0921  0.1550  0.6886
  987MOL0     C30159   9.085   5.172   9.940 -0.3133 -0.2948 -0.1784
  987MOL0     O30160   8.961   5.174  10.000  0.2393  0.2082  0.4455
  987MOL0     C30161   8.843   5.165   9.921  0.2576 -0.0067 -0.3020
  987MOL0     C30162   8.797   5.307   9.886  0.2037 -0.0784 -0.0357
  987MOL0     C30163   8.665   5.353   9.951 -0.1539  0.4401 -0.1591
  987MOL0     C30164   8.560   5.390   9.843 -0.6870 -0.1141  0.1684
  987MOL0     C30165   8.424   5.417   9.925 -0.1205 -0.7836 -0.2529
  987MOL0     C30166   8.309   5.459   9.835  0.1846  0.7928 -0.4889
  987MOL0     C30167   8.220   5.338   9.793  0.2288 -0.2143 -0.1391
  987MOL0     C30168   8.123   5.287   9.905  0.3845 -0.0405  0.1767
  987MOL0     N30169   7.998   5.371   9.899  0.8001  0.3535 -0.4539
  987MOL0     C30170   7.913   5.360   9.791  0.1563 -0.2602  0.6345
  987MOL0     C30171   7.824   5.458   9.816 -0.5773  1.0994 -0.1751
  987MOL0     C30172   7.689   5.500   9.758 -0.7329  0.2722  0.3264
  987MOL0     C30173   7.671   5.472   9.609  0.5223  0.0352  0.1309
  987MOL0     C30174   7.549   5.538   9.552  0.6369  0.4870 -0.4495
  987MOL0     C30175   7.420   5.483   9.604  0.6450  0.5039  0.3420
  987MOL0     O30176   7.309   5.557   9.540  0.8478 -0.2067 -0.9866
  987MOL0     C30177   7.173   5.516   9.557  0.2629  0.1331  0.5005
  987MOL0     C30178   7.122   5.416   9.646 -0.2764 -0.4287 -0.4276
  987MOL0     C30179   6.983   5.414   9.654  0.3527  0.2975 -0.0447
  987MOL0     C30180   6.900   5.491   9.579  0.1165  0.3422 -0.7228
  987MOL0     C30181   6.750   5.480   9.597  0.2553  0.1946  0.5869
  987MOL0     O30182   6.685   5.593   9.585 -0.0001 -0.5571 -0.6332
  987MOL0     C30183   6.559   5.601   9.641  0.4239  0.7522  0.3970
  987MOL0     C30184   6.446   5.636   9.562 -0.4084  0.3782 -0.2415
  987MOL0     C30185   6.336   5.694   9.616  0.2574 -1.9254  0.2188
  987MOL0     C30186   6.325   5.709   9.751 -0.2892  0.4684  0.1533
  987MOL0     O30187   6.221   5.778   9.804 -0.0954  0.4988  0.2667
  987MOL0     C30188   6.158   5.702   9.913 -0.1912  0.3851  0.8925
  987MOL0     C30189   6.008   5.708   9.902  0.8321  0.6298 -0.5782
  987MOL0     C30190   5.948   5.846   9.892 -0.4112  0.7040 -0.1908
  987MOL0     C30191   5.798   5.843   9.922 -0.3955  0.0440  0.0166
  987MOL0     C30192   5.716   5.902   9.814  0.5859  1.0953  0.5322
  987MOL0     C30193   5.711   5.801   9.707  0.0358  0.0875 -0.2074
  987MOL0     C30194   5.707   5.876   9.566  0.8263  1.4598  0.6571
  987MOL0     C30195   5.697   5.770   9.455 -0.0282 -0.0504 -1.4596
  987MOL0    Cl30196   5.774   5.612   9.496 -0.0592 -0.2513  0.1967
  987MOL0     C30197   6.428   5.657   9.832 -0.4311  0.0348 -0.2418
  987MOL0     C30198   6.546   5.609   9.773  0.0610 -0.9215 -0.8622
  987MOL0     O30199   6.705   5.372   9.631  0.4084  0.0586 -0.3959
  987MOL0     C30200   6.956   5.578   9.490  0.1279 -0.6726 -0.1661
  987MOL0     C30201   7.090   5.605   9.490  0.7180  0.4174  1.2824
  987MOL0     N30202   7.858   5.533   9.926 -0.1765  0.4674 -0.1995
  987MOL0     N30203   7.959   5.478   9.979 -0.2875  0.1193  0.2904
  987MOL0     C30204   9.108   5.240   9.821  0.7069 -0.5591  0.1917
  987MOL0     C30205   9.241   5.245   9.768 -0.8215 -0.0780  0.2766
  987MOL0     C30206   9.674   5.349   9.708  0.1504 -0.4092  0.2646
  987MOL0     C30207   9.763   5.235   9.717  0.0682 -0.6356  0.3592
  987MOL0     C30208   9.894   5.249   9.689  0.1226 -0.2801  0.2887
  987MOL0     C30209   9.955   5.371   9.663 -0.2352  0.1169 -0.5161
  987MOL0     O30210  10.092   5.371   9.643 -0.1226 -0.4429 -0.3038
  987MOL0     C30211  10.171   5.480   9.702  0.6444 -0.9659 -0.0608
  987MOL0     C30212  10.316   5.464   9.668 -0.4240 -1.0984  0.6807
  987MOL0     C30213  10.399   5.601   9.696 -0.4006  0.3145  0.4895
  987MOL0     C30214  10.365   5.704   9.580  0.0923 -0.3857 -0.0401
  987MOL0     C30215  10.467   5.823   9.592  0.1442 -0.2723 -0.8091
  987MOL0     C30216  10.553   5.909   9.604  0.5988  0.2917  0.4218
  987MOL0     C30217   9.871   5.485   9.659  0.0380  0.4475  0.1660
  987MOL0     C30218   9.736   5.477   9.685  0.4226  0.3012  0.2989
  987MOL0     H30219   9.404   5.088  10.020 -0.0897 -1.1646  0.6036
  987MOL0     H30220   9.175   5.071  10.100 -1.5616  0.8261  0.7091
  987MOL0     H30221   8.778   5.112   9.991  1.6090  0.7187  1.5887
  987MOL0     H30222   8.857   5.102   9.833  3.5007  2.4539 -1.7541
  987MOL0     H30223   8.802   5.312   9.777 -0.7710 -0.8472 -0.1292
  987MOL0     H30224   8.877   5.369   9.926  0.9215 -0.9257 -0.1123
  987MOL0     H30225   8.690   5.442  10.009 -0.8700 -1.0372  2.5572
  987MOL0     H30226   8.625   5.287  10.028  1.8513 -0.2689  0.3492
  987MOL0     H30227   8.588   5.482   9.790  1.8786 -0.7862  0.2413
  987MOL0     H30228   8.554   5.306   9.773 -2.4239  0.2331 -0.1614
  987MOL0     H30229   8.435   5.492  10.004  0.8411 -2.0704  0.8707
  987MOL0     H30230   8.398   5.325   9.977 -3.5785  0.6668  0.9123
  987MOL0     H30231   8.361   5.507   9.752  3.0298 -1.5747 -0.2586
  987MOL0     H30232   8.233   5.512   9.893  0.3363 -0.9617  1.4425
  987MOL0     H30233   8.166   5.361   9.700 -1.9218 -1.6521  0.6732
  987MOL0     H30234   8.287   5.255   9.770 -0.5497 -0.6268 -1.0304
  987MOL0     H30235   8.174   5.288  10.002 -0.3680  1.8145  0.5962
  987MOL0     H30236   8.100   5.182   9.884  1.8201 -0.0741 -1.4382
  987MOL0     H30237   7.920   5.290   9.708  0.5177  1.0972 -0.5175
  987MOL0     H30238   7.676   5.608   9.765 -1.8765  0.4653 -3.0631
  987MOL0     H30239   7.617   5.455   9.827 -1.6772 -0.7950 -1.3026
  987MOL0     H30240   7.674   5.365   9.590 -1.2856  0.1295 -0.8131
  987MOL0     H30241   7.756   5.521   9.560 -0.3546 -0.1733 -1.6783
  987MOL0     H30242   7.559   5.646   9.564  5.9104  0.2121  0.1104
  987MOL0     H30243   7.551   5.507   9.447  0.3298  2.0553 -0.9479
  987MOL0     H30244   7.409   5.493   9.713 -0.3319 -0.5672  0.3557
  987MOL0     H30245   7.419   5.379   9.571 -0.1747  0.3758  0.7285
  987MOL0     H30246   7.176   5.352   9.715 -0.7607  3.0388  3.5786
  987MOL0     H30247   6.935   5.347   9.724 -3.2607  0.4740 -2.0875
  987MOL0     H30248   6.441   5.609   9.457 -4.2244 -3.4122  0.6153
  987MOL0     H30249   6.261   5.742   9.553  0.7576 -0.3853  0.7494
  987MOL0     H30250   6.182   5.753  10.007 -0.1417  3.9701 -0.8962
  987MOL0     H30251   6.180   5.595   9.911 -0.7096  0.2822 -0.0924
  987MOL0     H30252   5.966   5.651   9.986  0.4141 -2.0136 -2.4660
  987MOL0     H30253   5.974   5.654   9.813 -1.0071  0.7312  0.0246
  987MOL0     H30254   5.963   5.894   9.795  0.1512  1.8155  0.4174
  987MOL0     H30255   5.992   5.905   9.973 -2.3050 -0.2209  1.6005
  987MOL0     H30256   5.756   5.745   9.949 -1.5091  0.0267 -1.6303
  987MOL0     H30257   5.792   5.901  10.014  0.6273  0.1354  0.0275
  987MOL0     H30258   5.768   5.988   9.772  1.6776  0.1863 -0.0319
  987MOL0     H30259   5.620   5.939   9.852 -0.0388  1.3482 -1.2047
  987MOL0     H30260   5.621   5.743   9.726 -0.9127  0.9184 -1.9121
  987MOL0     H30261   5.797   5.734   9.721  0.3445  0.8580  2.0522
  987MOL0     H30262   5.628   5.952   9.561 -0.6752 -0.0776 -0.3046
  987MOL0     H30263   5.806   5.921   9.557  1.4715 -0.0076  0.1257
  987MOL0     H30264   5.745   5.803   9.363 -1.2351  1.9517 -1.4214
  987MOL0     H30265   5.591   5.749   9.440 -0.0978 -2.0585  1.0928
  987MOL0     H30266   6.432   5.680   9.938 -0.5845  0.6338 -0.3605
  987MOL0     H30267   6.628   5.581   9.837  0.6639 -0.4608 -1.4152
  987MOL0     H30268   6.888   5.643   9.437  1.4472 -1.4696 -3.0344
  987MOL0     H30269   7.129   5.683   9.426 -2.0164  2.2635  1.7418
  987MOL0     H30270   9.034   5.280   9.752  0.0389 -1.5260  0.3273
  987MOL0     H30271   9.259   5.292   9.672  2.7042  0.2014  0.9463
  987MOL0     H30272   9.718   5.138   9.739 -0.4886  0.0800  2.7124
  987MOL0     H30273   9.956   5.160   9.691  2.7439  1.4598  0.0332
  987MOL0     H30274  10.155   5.491   9.810  0.5158  2.9973 -0.3118
  987MOL0     H30275  10.129   5.575   9.667  1.5493  0.2028  1.8812
  987MOL0     H30276  10.346   5.373   9.721 -3.2371 -0.9774  2.6967
  987MOL0     H30277  10.340   5.447   9.563 -1.1967  2.6318 -0.2306
  987MOL0     H30278  10.501   5.566   9.681 -0.7156 -0.8494  0.9640
  987MOL0     H30279  10.385   5.634   9.799  1.2856  0.2157  0.7678
  987MOL0     H30280  10.370   5.657   9.481 -1.2474  0.7650 -0.6929
  987MOL0     H30281  10.259   5.729   9.594  0.2707 -1.2093  3.7530
  987MOL0     H30282  10.624   5.981   9.638 -1.0832  2.5650 -0.6418
  987MOL0     H30283   9.913   5.585   9.654  0.5849  0.1903 -0.6951
  987MOL0     H30284   9.674   5.566   9.690  0.1803  0.0735  1.5254
  988MOL0     O30285   2.141  10.740   3.835  0.4424 -0.1245  0.1680
  988MOL0     C30286   2.208  10.722   3.733  0.4618 -0.1725 -0.4860
  988MOL0     O30287   2.160  10.676   3.611  0.1871  0.1380 -0.4743
  988MOL0     C30288   2.034  10.619   3.610 -0.0689 -0.7165  0.4172
  988MOL0     C30289   1.950  10.683   3.515 -0.5037 -0.0824 -0.3062
  988MOL0     C30290   1.811  10.644   3.523 -0.2702 -0.2072 -1.0123
  988MOL0     C30291   1.756  10.545   3.605  0.5495  0.0442 -0.2055
  988MOL0     O30292   1.620  10.524   3.592 -0.3419  0.6415 -0.3403
  988MOL0     C30293   1.578  10.383   3.568 -0.2937 -0.1898 -0.4777
  988MOL0     C30294   1.521  10.352   3.432 -0.1993 -0.3656 -0.3469
  988MOL0     C30295   1.381  10.400   3.394  0.6529 -0.1327 -0.0884
  988MOL0     C30296   1.274  10.319   3.470  0.9515 -0.0285 -0.6875
  988MOL0     C30297   1.134  10.340   3.429 -0.4355  0.5027  0.1927
  988MOL0     C30298   1.094  10.272   3.293 -0.5196  0.0103 -0.0693
  988MOL0     C30299   0.955  10.316   3.251 -0.4963 -0.3549  0.4333
  988MOL0     C30300   0.910  10.238   3.127 -0.0229  0.1850  0.4672
  988MOL0     N30301   0.772  10.258   3.087  1.1377 -0.4447 -0.2360
  988MOL0     C30302   0.684  10.150   3.075 -0.6379 -0.1958  0.7068
  988MOL0     C30303   0.560  10.211   3.066  0.3141 -0.0183 -0.4726
  988MOL0     C30304   0.431  10.128   3.059 -0.7563 -0.1971 -0.7239
  988MOL0     C30305   0.338  10.155   3.178  0.4412 -0.2293 -0.7345
  988MOL0     C30306   0.244  10.281   3.180 -0.6706 -0.4039 -0.4873
  988MOL0     C30307   0.134  10.280   3.074  0.2758  0.3451  0.4555
  988MOL0     O30308   0.026  10.197   3.112  0.2904  1.4768 -0.1255
  988MOL0     C30309  -0.086  10.207   3.027 -1.1522  0.2403  0.4201
  988MOL0     C30310  -0.103  10.304   2.925 -0.3696 -0.3142  0.4995
  988MOL0     C30311  -0.219  10.317   2.860 -0.0467 -0.4595  0.9414
  988MOL0     C30312  -0.329  10.225   2.885  0.7642  0.1690 -1.0232
  988MOL0     C30313  -0.463  10.243   2.812 -0.7163  0.1752 -0.7877
  988MOL0     O30314  -0.469  10.356   2.745 -0.3068  0.6802  0.4110
  988MOL0     C30315  -0.597  10.407   2.704  0.0847  0.6383 -0.4202
  988MOL0     C30316  -0.643  10.522   2.772  0.0535 -0.5728  0.1201
  988MOL0     C30317  -0.776  10.564   2.748 -1.1176 -0.0760 -0.2339
  988MOL0     C30318  -0.845  10.518   2.640  0.1892  0.6604 -0.0797
  988MOL0     O30319  -0.962  10.584   2.610  0.1034 -0.0303 -0.3381
  988MOL0     C30320  -1.031  10.545   2.495 -0.5901  0.4228  0.3502
  988MOL0     C30321  -1.155  10.631   2.488  0.3498 -0.8913 -0.7716
  988MOL0     C30322  -1.268  10.565   2.419 -0.4747 -0.3407  0.2927
  988MOL0     C30323  -1.404  10.622   2.435  1.1926 -0.5725  0.2798
  988MOL0     C30324  -1.505  10.551   2.357 -0.2086  0.3138 -0.4498
  988MOL0     C30325  -1.637  10.622   2.373  0.1016  0.1403  1.1076
  988MOL0     C30326  -1.737  10.531   2.309  0.7770  0.0748  0.1717
  988MOL0     C30327  -1.874  10.595   2.332 -0.6568  0.1343  0.0488
  988MOL0    Cl30328  -1.916  10.744   2.233 -0.0843 -0.0707 -0.2147
  988MOL0     C30329  -0.793  10.409   2.568  0.0793  0.2927  0.1719
  988MOL0     C30330  -0.673  10.349   2.606  0.0619 -0.1957  0.2207
  988MOL0     O30331  -0.558  10.170   2.845 -0.1693 -0.2069  0.3242
  988MOL0     C30332  -0.309  10.118   2.979  0.3930 -1.0312 -0.0654
  988MOL0     C30333  -0.185  10.109   3.040  0.1788  0.1304  0.7652
  988MOL0     N30334   0.574  10.348   3.085 -0.4714 -0.4095  0.3283
  988MOL0     N30335   0.702  10.373   3.086  0.6945 -1.1012 -0.4207
  988MOL0     C30336   1.849  10.483   3.701  0.5019  0.0127  0.1098
  988MOL0     C30337   1.982  10.523   3.700 -0.2222 -0.1352  0.5514
  988MOL0     C30338   2.349  10.779   3.729  0.1815  0.4075 -0.4819
  988MOL0     C30339   2.425  10.792   3.605  0.2099  0.4163 -0.6536
  988MOL0     C30340   2.551  10.856   3.603 -0.0669  0.3292 -0.8185
  988MOL0     C30341   2.608  10.903   3.720  0.8915  0.5373 -0.3021
  988MOL0     O30342   2.725  10.972   3.703 -0.1606  0.0556  0.4768
  988MOL0     C30343   2.837  10.931   3.784  0.5666  0.4758  0.1930
  988MOL0     C30344   2.965  10.959   3.707 -0.1049  0.6272 -0.2243
  988MOL0     C30345   3.090  10.964   3.795  0.1938  0.4989 -1.0122
  988MOL0     C30346   3.211  10.975   3.710 -0.5924 -0.0355 -0.2519
  988MOL0     C30347   3.329  10.989   3.802  0.4849 -0.1120  0.1902
  988MOL0     C30348   3.434  10.989   3.864 -0.1626 -0.5584  0.2265
  988MOL0     C30349   2.524  10.891   3.833  0.4248  0.5797 -0.0001
  988MOL0     C30350   2.404  10.830   3.844 -0.2481 -0.8428 -0.1809
  988MOL0     H30351   1.985  10.760   3.446 -2.8252  1.3184 -0.0492
  988MOL0     H30352   1.746  10.712   3.469 -2.5857 -0.6878  0.9974
  988MOL0     H30353   1.498  10.368   3.641  1.4755 -0.2974  1.5449
  988MOL0     H30354   1.659  10.313   3.590 -1.8944 -1.7448  0.7752
  988MOL0     H30355   1.530  10.246   3.407  0.8910 -0.2878 -0.3486
  988MOL0     H30356   1.596  10.399   3.367  1.1217  0.4009  1.6473
  988MOL0     H30357   1.362  10.398   3.286 -1.7960  0.5745  0.2696
  988MOL0     H30358   1.370  10.505   3.421  0.4504  0.0690 -0.9417
  988MOL0     H30359   1.293  10.211   3.466 -0.1890 -0.2508 -0.4114
  988MOL0     H30360   1.284  10.350   3.575 -1.6973  1.7728 -0.8716
  988MOL0     H30361   1.124  10.449   3.419  1.1090  0.7302  0.8887
  988MOL0     H30362   1.063  10.312   3.508 -0.4685  0.9076  0.3088
  988MOL0     H30363   1.107  10.164   3.302 -2.0223 -0.0821  1.4336
  988MOL0     H30364   1.162  10.301   3.212 -3.5428  1.3707 -2.2995
  988MOL0     H30365   0.884  10.298   3.333 -0.2339  2.2436  1.3388
  988MOL0     H30366   0.955  10.424   3.235  2.1556 -0.0165  2.1139
  988MOL0     H30367   0.927  10.131   3.141  0.5336 -0.0442 -1.6663
  988MOL0     H30368   0.981  10.270   3.050  0.9922  0.3449  1.4457
  988MOL0     H30369   0.714  10.046   3.075 -1.3014 -0.4206  2.6552
  988MOL0     H30370   0.445  10.022   3.040  2.2607 -0.1400  0.6843
  988MOL0     H30371   0.379  10.172   2.973  0.4834  0.9119 -0.9296
  988MOL0     H30372   0.405  10.169   3.264 -1.3482 -1.9602  1.0373
  988MOL0     H30373   0.273  10.068   3.181 -0.1244  0.2197  1.6299
  988MOL0     H30374   0.189  10.288   3.275 -2.4405 -2.7982 -1.2390
  988MOL0     H30375   0.311  10.366   3.167  0.6907 -1.6149 -1.8493
  988MOL0     H30376   0.184  10.250   2.981 -2.7798  0.0081 -1.2286
  988MOL0     H30377   0.093  10.381   3.066 -2.3269 -0.7013 -0.7162
  988MOL0     H30378  -0.028  10.379   2.906  1.1198 -2.0463 -0.9005
  988MOL0     H30379  -0.234  10.406   2.800  2.8185  1.4442  2.8248
  988MOL0     H30380  -0.578  10.555   2.852  0.7486 -1.3648 -0.0953
  988MOL0     H30381  -0.820  10.644   2.806  1.7803  1.5770 -0.1502
  988MOL0     H30382  -1.052  10.438   2.499  1.0562  0.0772  0.6107
  988MOL0     H30383  -0.979  10.566   2.401 -3.3935  1.0408 -1.1756
  988MOL0     H30384  -1.132  10.723   2.433  0.3354  1.1468  2.4237
  988MOL0     H30385  -1.195  10.658   2.586 -1.8560  0.8759 -2.0421
  988MOL0     H30386  -1.273  10.460   2.448  2.7505 -1.0269 -1.1111
  988MOL0     H30387  -1.246  10.561   2.312  2.2827 -2.6555  0.8117
  988MOL0     H30388  -1.441  10.626   2.539 -1.5542  2.1352 -0.6319
  988MOL0     H30389  -1.402  10.726   2.401  0.4388 -0.9398 -0.9507
  988MOL0     H30390  -1.512  10.448   2.393 -1.4888  0.7402  0.5888
  988MOL0     H30391  -1.479  10.541   2.251 -0.1520 -2.0023 -0.2782
  988MOL0     H30392  -1.633  10.715   2.315 -0.1057 -1.8546 -2.3734
  988MOL0     H30393  -1.667  10.641   2.476  0.3034  0.7846  1.0516
  988MOL0     H30394  -1.714  10.522   2.203  2.0163 -0.6176  0.4750
  988MOL0     H30395  -1.741  10.433   2.357 -1.0764  0.0133 -0.0509
  988MOL0     H30396  -1.881  10.621   2.438  0.3498 -2.5985  0.9015
  988MOL0     H30397  -1.960  10.529   2.318 -1.8090  1.8406 -1.1077
  988MOL0     H30398  -0.848  10.375   2.481  0.4746 -1.9832  0.7487
  988MOL0     H30399  -0.622  10.278   2.542 -0.2513  0.0465 -0.3014
  988MOL0     H30400  -0.392  10.050   3.001 -0.9108  0.8798  1.2055
  988MOL0     H30401  -0.171  10.027   3.110 -2.9557 -1.2288 -0.0198
  988MOL0     H30402   1.809  10.410   3.771  0.8445  0.2617  0.5749
  988MOL0     H30403   2.054  10.503   3.778 -0.7886 -2.8654  0.4527
  988MOL0     H30404   2.394  10.753   3.508  0.2614  0.7236 -0.7921
  988MOL0     H30405   2.594  10.864   3.504  0.5685 -0.6469 -0.6371
  988MOL0     H30406   2.827  10.825   3.808 -1.4312  0.6483  0.2858
  988MOL0     H30407   2.845  10.988   3.877 -2.4293  0.0922  0.8080
  988MOL0     H30408   2.965  10.883   3.629  1.7527  0.0629  0.2676
  988MOL0     H30409   2.947  11.059   3.666  2.0197  0.2181 -2.3830
  988MOL0     H30410   3.085  10.869   3.849 -3.6420  1.3243  0.4724
  988MOL0     H30411   3.088  11.048   3.865 -3.6758 -0.8471  0.8157
  988MOL0     H30412   3.213  10.888   3.643 -1.1480  0.4897 -0.9684
  988MOL0     H30413   3.203  11.069   3.656 -0.5365  1.1714  1.7267
  988MOL0     H30414   3.525  10.995   3.920  0.1235  1.7417 -0.3817
  988MOL0     H30415   2.575  10.916   3.926  1.6639 -0.1535 -0.4523
  988MOL0     H30416   2.358  10.835   3.942 -0.1666 -2.0482 -0.0715
  989MOL0     O30417   8.718   7.306   2.118  0.1084  0.3805 -0.0097
  989MOL0     C30418   8.752   7.194   2.071  0.2171  0.3730 -1.2815
  989MOL0     O30419   8.673   7.083   2.067 -0.2697  0.2258 -0.7547
  989MOL0     C30420   8.540   7.089   2.098  0.5796  0.0036  0.5115
  989MOL0     C30421   8.489   7.115   2.226  0.1887 -0.0231  0.4987
  989MOL0     C30422   8.351   7.094   2.252 -0.2703 -0.3207 -0.4749
  989MOL0     C30423   8.266   7.077   2.146  0.0767  0.6380  0.3462
  989MOL0     O30424   8.129   7.063   2.166 -0.0997 -0.6141 -0.3785
  989MOL0     C30425   8.083   6.927   2.180 -0.2402 -0.0061 -0.2677
  989MOL0     C30426   7.931   6.947   2.186 -0.2267  0.4778 -0.2125
  989MOL0     C30427   7.880   7.009   2.058  0.0782 -0.2729  0.5877
  989MOL0     C30428   7.726   7.009   2.051 -0.2098  0.0999  0.7127
  989MOL0     C30429   7.674   7.028   1.917  0.3488  0.1545 -0.2118
  989MOL0     C30430   7.708   7.169   1.863  0.4646  1.0541 -0.4294
  989MOL0     C30431   7.836   7.163   1.788  0.2036 -0.3393 -0.2581
  989MOL0     C30432   7.871   7.288   1.718 -0.1008 -1.0073 -0.6804
  989MOL0     N30433   7.912   7.387   1.816 -0.2967 -0.6526 -0.1332
  989MOL0     C30434   8.024   7.372   1.900 -0.6208 -0.1632 -0.5766
  989MOL0     C30435   8.018   7.485   1.980 -0.5786 -0.0244  0.4141
  989MOL0     C30436   8.091   7.510   2.105  0.0962 -0.5349  0.5728
  989MOL0     C30437   8.246   7.477   2.109  0.2946 -0.4385  0.1676
  989MOL0     C30438   8.320   7.574   2.016 -1.2178  0.0202  0.2555
  989MOL0     C30439   8.466   7.548   2.040 -1.4438 -0.5204  0.2516
  989MOL0     O30440   8.539   7.668   1.999 -0.6500  0.5678  0.3232
  989MOL0     C30441   8.674   7.655   1.991  0.5217 -0.6028  0.0164
  989MOL0     C30442   8.743   7.658   2.113  0.0382  0.2348  0.0929
  989MOL0     C30443   8.880   7.665   2.122 -1.1034 -0.0182  0.7068
  989MOL0     C30444   8.961   7.663   2.010 -0.2816  0.2282  0.4582
  989MOL0     C30445   9.109   7.673   2.020 -0.4150 -0.2823  1.3823
  989MOL0     O30446   9.178   7.641   1.908 -0.3814 -0.1601  0.3651
  989MOL0     C30447   9.318   7.644   1.888  0.5384 -0.1171 -0.2465
  989MOL0     C30448   9.399   7.693   1.990 -0.1749 -0.0354  0.2702
  989MOL0     C30449   9.539   7.694   1.970 -0.4007  0.1190  0.5141
  989MOL0     C30450   9.590   7.643   1.850 -0.2950 -0.0929  1.0122
  989MOL0     O30451   9.724   7.648   1.812 -0.2123 -0.3117 -0.1922
  989MOL0     C30452   9.830   7.657   1.913  0.3362  0.3240 -1.2726
  989MOL0     C30453   9.960   7.627   1.840  0.4388 -0.1289  0.1689
  989MOL0     C30454  10.072   7.649   1.945  0.5432 -0.1306 -0.5653
  989MOL0     C30455  10.211   7.645   1.882  0.6237  0.6225  0.4772
  989MOL0     C30456  10.328   7.699   1.973 -0.0734 -0.6736  0.6719
  989MOL0     C30457  10.341   7.849   1.927 -0.0626 -1.1484 -0.7772
  989MOL0     C30458  10.468   7.912   1.998 -0.3539  0.1177 -0.1915
  989MOL0     C30459  10.499   8.051   1.965  0.2496 -1.0255 -0.2127
  989MOL0    Cl30460  10.542   8.052   1.791  0.0286  0.2376  0.2823
  989MOL0     C30461   9.503   7.589   1.751 -0.0477  0.0852  0.3606
  989MOL0     C30462   9.364   7.590   1.776 -1.5986  0.0883  0.3376
  989MOL0     O30463   9.157   7.699   2.132  0.2193 -0.3556  0.1775
  989MOL0     C30464   8.896   7.643   1.886 -0.4411 -0.4991 -0.0995
  989MOL0     C30465   8.753   7.648   1.878 -0.1960  0.2088  0.1789
  989MOL0     N30466   7.907   7.564   1.951 -0.4289 -0.2873 -0.3849
  989MOL0     N30467   7.851   7.505   1.852 -0.1234  0.5430  0.5745
  989MOL0     C30468   8.312   7.068   2.019 -0.0833 -0.8157  0.9038
  989MOL0     C30469   8.447   7.058   1.995 -0.7522  0.4987 -0.5032
  989MOL0     C30470   8.892   7.189   2.011 -0.2911 -0.1850  1.1387
  989MOL0     C30471   8.963   7.306   1.986 -0.2090  0.7353 -0.5908
  989MOL0     C30472   9.094   7.290   1.934 -0.4014 -0.1254  1.3455
  989MOL0     C30473   9.147   7.160   1.904  0.1057  0.7017  0.0320
  989MOL0     O30474   9.275   7.135   1.867  0.2261  0.3146  0.0754
  989MOL0     C30475   9.350   7.229   1.795  0.3137  0.0774 -0.5784
  989MOL0     C30476   9.485   7.162   1.752  0.3787 -0.0071  1.0829
  989MOL0     C30477   9.458   7.071   1.630  0.3506  0.1434 -0.0154
  989MOL0     C30478   9.585   7.045   1.536 -0.1769 -0.1146 -0.0144
  989MOL0     C30479   9.600   7.142   1.417 -0.5040  0.3418 -0.5650
  989MOL0     C30480   9.610   7.212   1.321  0.1548 -1.2628 -0.2684
  989MOL0     C30481   9.080   7.049   1.932  0.6188 -0.6334 -0.4748
  989MOL0     C30482   8.954   7.062   1.987  0.1567 -0.4877 -0.3518
  989MOL0     H30483   8.561   7.149   2.300  0.2687  4.1152 -1.2027
  989MOL0     H30484   8.314   7.123   2.350  1.6339 -0.9859  0.4945
  989MOL0     H30485   8.117   6.870   2.266  0.2338 -0.7965 -0.9604
  989MOL0     H30486   8.106   6.876   2.086  2.4680  1.0013 -0.2485
  989MOL0     H30487   7.899   7.010   2.269  2.1624 -0.9767  1.9564
  989MOL0     H30488   7.887   6.847   2.186  0.8156 -0.0508 -2.5275
  989MOL0     H30489   7.918   6.951   1.974 -0.1639  2.1116 -1.2921
  989MOL0     H30490   7.904   7.114   2.036 -1.0769 -0.2574 -0.7483
  989MOL0     H30491   7.690   6.907   2.069  1.8016 -1.0778 -1.4681
  989MOL0     H30492   7.687   7.075   2.129  0.3282 -0.1568  1.2036
  989MOL0     H30493   7.565   7.023   1.920  0.2446  1.8303 -0.4905
  989MOL0     H30494   7.708   6.948   1.851  1.1582 -0.0181  0.3963
  989MOL0     H30495   7.713   7.247   1.940  1.8925  0.3227  0.2586
  989MOL0     H30496   7.626   7.206   1.801 -0.1193  0.4797 -0.0032
  989MOL0     H30497   7.925   7.135   1.844 -0.5444  0.4320  1.3690
  989MOL0     H30498   7.818   7.083   1.716 -2.7513 -3.5885  3.6231
  989MOL0     H30499   7.790   7.332   1.658  0.0996  1.2703  0.5925
  989MOL0     H30500   7.953   7.264   1.650  0.9490 -0.3032  0.3227
  989MOL0     H30501   8.104   7.299   1.903  0.9982  1.5042  2.9002
  989MOL0     H30502   8.045   7.458   2.190  0.4957 -1.5926  0.1550
  989MOL0     H30503   8.083   7.619   2.117  3.1698 -0.1799  0.2890
  989MOL0     H30504   8.269   7.376   2.074  1.5387  0.1436 -0.8001
  989MOL0     H30505   8.290   7.487   2.209  2.1396 -2.2264 -0.3845
  989MOL0     H30506   8.284   7.551   1.915  1.8544 -1.7515 -0.5496
  989MOL0     H30507   8.291   7.676   2.043 -1.2620 -0.1460  0.8512
  989MOL0     H30508   8.501   7.458   1.990 -0.9288 -0.5289  0.6211
  989MOL0     H30509   8.485   7.544   2.147  1.7768  0.5606 -0.1917
  989MOL0     H30510   8.686   7.652   2.205 -0.6970  1.6427 -0.2447
  989MOL0     H30511   8.930   7.665   2.219 -1.3655 -1.6207  0.8669
  989MOL0     H30512   9.369   7.737   2.084  2.9437  2.0361  0.4241
  989MOL0     H30513   9.614   7.720   2.044 -0.4867  0.0978  0.6096
  989MOL0     H30514   9.815   7.590   1.998  1.8823  0.7446 -0.6269
  989MOL0     H30515   9.830   7.762   1.941 -0.6513 -0.1775  0.8105
  989MOL0     H30516   9.978   7.695   1.756 -0.1199 -0.7550 -0.4813
  989MOL0     H30517   9.966   7.522   1.808  0.6700  0.3103 -1.3014
  989MOL0     H30518  10.057   7.585   2.032 -5.1824  1.9803  0.4385
  989MOL0     H30519  10.067   7.750   1.987  2.4334 -0.3963  0.4008
  989MOL0     H30520  10.224   7.536   1.881 -0.3893  0.4755  1.5613
  989MOL0     H30521  10.213   7.696   1.786  0.7113  0.6574  0.4975
  989MOL0     H30522  10.421   7.645   1.953 -0.4289 -1.0710  0.0412
  989MOL0     H30523  10.312   7.702   2.081  0.3845 -2.5514  0.8301
  989MOL0     H30524  10.253   7.906   1.956  0.0095 -0.5084 -1.7747
  989MOL0     H30525  10.354   7.857   1.819 -0.5250  0.1694 -0.7548
  989MOL0     H30526  10.445   7.920   2.105 -2.0930 -0.6001 -0.4712
  989MOL0     H30527  10.559   7.853   1.985 -0.5939  0.1182 -2.2681
  989MOL0     H30528  10.575   8.081   2.038 -0.1622 -0.6412  0.0642
  989MOL0     H30529  10.424   8.127   1.989  2.7230  0.7826  2.4637
  989MOL0     H30530   9.545   7.578   1.652 -0.8171  0.2598  0.0091
  989MOL0     H30531   9.301   7.555   1.694  0.3890 -2.1780 -0.3633
  989MOL0     H30532   8.943   7.635   1.788  1.7912 -0.9229  0.9405
  989MOL0     H30533   8.704   7.655   1.781  0.7118  0.0777 -0.2931
  989MOL0     H30534   8.236   7.054   1.943  0.3807 -1.3210  0.5213
  989MOL0     H30535   8.496   7.049   1.898  0.2673 -2.4773  0.1793
  989MOL0     H30536   8.918   7.403   2.001  0.4296  1.3618 -2.4920
  989MOL0     H30537   9.150   7.383   1.924 -0.7778 -0.0956 -0.9134
  989MOL0     H30538   9.361   7.304   1.874 -3.9795 -0.1338  0.4963
  989MOL0     H30539   9.293   7.278   1.716  0.0995  0.5757 -0.1244
  989MOL0     H30540   9.545   7.246   1.716  0.2539 -0.0261  0.8279
  989MOL0     H30541   9.539   7.113   1.834 -1.0318 -1.9586  0.8994
  989MOL0     H30542   9.377   7.124   1.578 -0.5429  0.8838  2.0102
  989MOL0     H30543   9.420   6.975   1.667 -0.4113  0.4618  0.0481
  989MOL0     H30544   9.675   7.055   1.597  0.2269  0.3981 -0.6725
  989MOL0     H30545   9.569   6.943   1.500  0.8215 -0.5850  0.8276
  989MOL0     H30546   9.620   7.262   1.227 -1.1690 -0.5116 -0.0269
  989MOL0     H30547   9.118   6.949   1.912  1.1853 -0.3851 -0.6598
  989MOL0     H30548   8.912   6.969   2.024  0.3479  0.2986  2.0012
  990MOL0     O30549   5.883  10.807   1.652  0.2197  0.1866 -0.0422
  990MOL0     C30550   5.925  10.726   1.572  0.1604 -0.7951 -0.6116
  990MOL0     O30551   5.861  10.629   1.527 -0.5390  0.6286  0.0457
  990MOL0     C30552   5.724  10.608   1.555 -0.0723 -0.0688  0.6121
  990MOL0     C30553   5.629  10.677   1.479 -0.2885 -0.2918  1.3162
  990MOL0     C30554   5.495  10.653   1.495  1.0373 -0.0165 -0.5411
  990MOL0     C30555   5.450  10.564   1.598  0.2489  0.1601 -0.2116
  990MOL0     O30556   5.311  10.541   1.629 -0.5246 -0.3652  0.0171
  990MOL0     C30557   5.214  10.566   1.527 -0.5914 -0.1488  0.6941
  990MOL0     C30558   5.158  10.707   1.539 -0.7048 -0.6519  0.0978
  990MOL0     C30559   5.086  10.750   1.425 -0.3265 -0.3474  0.6349
  990MOL0     C30560   5.044  10.896   1.429 -0.2601 -0.3937  0.1651
  990MOL0     C30561   4.927  10.934   1.522 -0.5282  0.3201 -0.5564
  990MOL0     C30562   4.791  10.861   1.485 -0.2664 -1.0613 -0.3970
  990MOL0     C30563   4.719  10.897   1.348  0.1395 -0.4573  0.1113
  990MOL0     C30564   4.584  10.837   1.334  0.7870  0.0594  0.3560
  990MOL0     N30565   4.489  10.940   1.394  0.1259  0.4557 -0.5353
  990MOL0     C30566   4.417  11.034   1.318  0.2634 -0.4159  0.0461
  990MOL0     C30567   4.324  11.078   1.404 -0.1249 -0.8350  0.2647
  990MOL0     C30568   4.207  11.171   1.379 -0.2139 -0.3835 -0.3893
  990MOL0     C30569   4.131  11.142   1.255  0.2570  0.0806  0.2693
  990MOL0     C30570   3.987  11.209   1.246  0.1355  0.7881 -0.2730
  990MOL0     C30571   3.895  11.160   1.347  0.2018  0.1575  0.3387
  990MOL0     O30572   3.767  11.206   1.302  0.0518 -0.3833  0.2896
  990MOL0     C30573   3.650  11.168   1.364  0.5264 -0.7459 -1.0628
  990MOL0     C30574   3.647  11.088   1.482  0.1893  0.0463  0.1863
  990MOL0     C30575   3.524  11.028   1.519  0.1842 -0.4409  0.1878
  990MOL0     C30576   3.404  11.041   1.446 -0.5541 -0.3291 -0.3373
  990MOL0     C30577   3.279  10.983   1.478 -0.3356 -1.0820 -0.1141
  990MOL0     O30578   3.282  10.922   1.598  0.6110  0.0440  0.4172
  990MOL0     C30579   3.166  10.877   1.648  0.2880 -0.3228 -0.0239
  990MOL0     C30580   3.109  10.942   1.758 -1.2119 -0.5368  0.5955
  990MOL0     C30581   2.994  10.892   1.820  0.3588 -0.5195  0.8674
  990MOL0     C30582   2.941  10.765   1.778 -0.7461  0.2849  0.8646
  990MOL0     O30583   2.829  10.707   1.826 -0.7327  0.6771  0.8254
  990MOL0     C30584   2.696  10.779   1.843 -0.7437 -0.3650  0.8721
  990MOL0     C30585   2.630  10.759   1.979  0.5577 -0.0857  0.1228
  990MOL0     C30586   2.504  10.851   1.988 -0.0575  0.0520 -0.1637
  990MOL0     C30587   2.420  10.807   2.111  0.6395  0.6385 -0.1168
  990MOL0     C30588   2.274  10.846   2.080 -0.2030 -1.0561  0.5366
  990MOL0     C30589   2.264  10.995   2.061  0.3011 -0.9992 -0.6484
  990MOL0     C30590   2.108  11.031   2.071 -0.1362 -0.0091  0.1549
  990MOL0     C30591   2.078  11.175   2.019 -0.2776  0.3620 -0.7662
  990MOL0    Cl30592   2.123  11.278   2.158  0.0385  0.1589  0.1190
  990MOL0     C30593   3.007  10.700   1.670 -0.6006  0.5143  0.7431
  990MOL0     C30594   3.121  10.750   1.606 -0.2598 -0.2042 -0.2487
  990MOL0     O30595   3.174  11.019   1.419  0.0954  0.2237  1.0653
  990MOL0     C30596   3.419  11.117   1.331  0.2846  0.2693  0.5865
  990MOL0     C30597   3.534  11.184   1.291  0.2138 -0.0474 -0.5567
  990MOL0     N30598   4.336  11.010   1.525 -0.5463 -0.2247 -0.1159
  990MOL0     N30599   4.439  10.938   1.520 -0.6911 -0.0878  0.1051
  990MOL0     C30600   5.539  10.501   1.682 -0.0123 -0.1327  0.7442
  990MOL0     C30601   5.676  10.523   1.658  0.1865  0.1464 -0.3305
  990MOL0     C30602   6.062  10.751   1.526 -0.3767 -0.2616  0.4042
  990MOL0     C30603   6.126  10.869   1.570 -0.1221 -1.0985 -0.2728
  990MOL0     C30604   6.257  10.881   1.537  0.5891  1.6215 -0.2700
  990MOL0     C30605   6.328  10.791   1.456 -0.1640  0.4428  0.0936
  990MOL0     O30606   6.460  10.813   1.436 -0.2112  0.1076  0.1241
  990MOL0     C30607   6.518  10.760   1.316 -0.0889  0.3610 -0.1825
  990MOL0     C30608   6.624  10.867   1.280 -0.5407 -0.0749 -0.3182
  990MOL0     C30609   6.717  10.903   1.398  0.3538  0.3065 -0.8457
  990MOL0     C30610   6.833  10.984   1.349 -0.4966  1.0278 -0.2645
  990MOL0     C30611   6.929  10.898   1.280  0.3265  1.6061 -0.1812
  990MOL0     C30612   7.006  10.834   1.215  0.6124 -0.3587  0.3374
  990MOL0     C30613   6.264  10.670   1.416  0.0050  0.2278  1.2676
  990MOL0     C30614   6.131  10.657   1.455 -0.8393  0.6848 -0.0793
  990MOL0     H30615   5.664  10.751   1.408  0.2494 -1.4241  0.3550
  990MOL0     H30616   5.433  10.723   1.439  2.5532  0.9669 -1.0619
  990MOL0     H30617   5.135  10.493   1.549 -1.3416  1.0267  2.0438
  990MOL0     H30618   5.258  10.552   1.428 -0.4132  4.4191 -0.0691
  990MOL0     H30619   5.235  10.782   1.561  0.2720 -2.1136  2.1113
  990MOL0     H30620   5.087  10.720   1.622  0.0037 -1.3352  0.8429
  990MOL0     H30621   5.004  10.678   1.424  0.4286 -1.2320 -0.8507
  990MOL0     H30622   5.142  10.733   1.333 -1.9561 -4.3802  0.1511
  990MOL0     H30623   5.138  10.948   1.450 -1.7790  1.6959  2.3113
  990MOL0     H30624   5.011  10.923   1.328 -2.4604 -0.8942  0.7142
  990MOL0     H30625   4.912  11.042   1.516 -0.2383  0.3119 -1.5553
  990MOL0     H30626   4.960  10.918   1.625  0.6290  4.2338 -0.1658
  990MOL0     H30627   4.723  10.878   1.569  1.8979 -1.5712  1.5621
  990MOL0     H30628   4.815  10.755   1.491  2.4936 -0.5068 -0.2517
  990MOL0     H30629   4.727  11.005   1.335  3.2300 -0.3688  1.7838
  990MOL0     H30630   4.784  10.859   1.267  0.5257  2.7008 -1.1927
  990MOL0     H30631   4.578  10.734   1.371 -1.3867  0.0323  0.0549
  990MOL0     H30632   4.562  10.837   1.227  1.5780 -0.8852  0.1813
  990MOL0     H30633   4.425  11.051   1.211 -0.2431 -2.7990 -0.4395
  990MOL0     H30634   4.232  11.277   1.368 -4.2618  0.8259  0.2344
  990MOL0     H30635   4.139  11.168   1.465 -2.2806 -1.7652 -1.9588
  990MOL0     H30636   4.110  11.037   1.231 -0.6248  0.1899  0.5107
  990MOL0     H30637   4.175  11.196   1.171 -1.0140 -1.9414 -1.8284
  990MOL0     H30638   4.006  11.315   1.261  2.8819  0.3153  0.2371
  990MOL0     H30639   3.943  11.190   1.148 -1.5879 -1.6236  0.8410
  990MOL0     H30640   3.922  11.181   1.451  2.3831 -0.1258 -0.1020
  990MOL0     H30641   3.896  11.051   1.336  0.2836  0.3103 -1.4090
  990MOL0     H30642   3.734  11.053   1.538 -0.9563 -0.3958  1.7647
  990MOL0     H30643   3.522  10.963   1.606  1.3205  0.0558  0.6107
  990MOL0     H30644   3.154  11.031   1.800  1.7402 -0.6504 -1.9279
  990MOL0     H30645   2.953  10.951   1.901 -1.4031 -0.4939 -0.0122
  990MOL0     H30646   2.627  10.744   1.766 -1.6657  0.2001  1.4230
  990MOL0     H30647   2.724  10.883   1.821  3.3464 -1.1795  1.3597
  990MOL0     H30648   2.698  10.791   2.059 -0.6376  0.2206  1.0411
  990MOL0     H30649   2.603  10.655   2.000  2.1686 -0.7298 -0.7980
  990MOL0     H30650   2.440  10.832   1.902 -1.5842  1.8101  0.5317
  990MOL0     H30651   2.514  10.959   1.975 -0.1260  0.0432 -0.2861
  990MOL0     H30652   2.422  10.699   2.125  2.4520  0.2575 -2.5997
  990MOL0     H30653   2.436  10.859   2.206  2.3408 -1.3798  0.7781
  990MOL0     H30654   2.214  10.814   2.166 -0.7617 -1.6057 -0.0477
  990MOL0     H30655   2.233  10.792   1.994 -0.5206  2.3696 -1.6607
  990MOL0     H30656   2.293  11.022   1.959 -0.6251  0.6763 -0.4966
  990MOL0     H30657   2.313  11.060   2.134  0.4090  0.3432 -1.8880
  990MOL0     H30658   2.068  10.964   1.994  0.1280  0.5378 -0.4702
  990MOL0     H30659   2.049  11.009   2.160 -0.1732  0.2274  0.1891
  990MOL0     H30660   1.975  11.206   1.998 -0.2856  0.6368 -0.3560
  990MOL0     H30661   2.148  11.192   1.937  1.4642 -0.2586  0.5298
  990MOL0     H30662   2.961  10.610   1.630 -0.0707 -0.4345  2.1535
  990MOL0     H30663   3.182  10.686   1.543 -2.5226  1.0497 -4.0017
  990MOL0     H30664   3.352  11.131   1.246 -0.4685 -0.1973  1.0911
  990MOL0     H30665   3.548  11.234   1.196  0.3001 -0.8498 -0.9764
  990MOL0     H30666   5.505  10.427   1.754  0.6046 -1.3785 -0.2057
  990MOL0     H30667   5.745  10.479   1.730 -0.6259  0.3777  0.5992
  990MOL0     H30668   6.075  10.942   1.633 -1.3524  0.1225 -2.5589
  990MOL0     H30669   6.300  10.975   1.566 -2.0780  2.0511  2.8655
  990MOL0     H30670   6.450  10.765   1.230  0.8795  0.3312 -0.9695
  990MOL0     H30671   6.565  10.662   1.323  1.2226  0.8624 -1.2626
  990MOL0     H30672   6.689  10.825   1.202 -0.9470 -0.6690 -0.3477
  990MOL0     H30673   6.573  10.957   1.244  0.0839  0.4320  0.0453
  990MOL0     H30674   6.730  10.814   1.460 -5.5368 -0.7049 -0.5153
  990MOL0     H30675   6.666  10.973   1.465  0.8529  0.1784 -0.3219
  990MOL0     H30676   6.805  11.075   1.295 -3.4354  1.8494  2.3562
  990MOL0     H30677   6.889  11.021   1.435 -0.0752 -0.8262  0.2981
  990MOL0     H30678   7.082  10.780   1.162  0.9546 -0.8464  1.2913
  990MOL0     H30679   6.309  10.585   1.366 -0.0686 -0.2850  2.0525
  990MOL0     H30680   6.078  10.566   1.426  0.1796  0.3179 -0.8377
  991MOL0     O30681   3.789  10.148  10.660 -0.3487 -0.5147 -0.0698
  991MOL0     C30682   3.798  10.263  10.695 -1.2295  0.2840 -0.1258
  991MOL0     O30683   3.692  10.342  10.732 -0.5523  0.2572  0.2811
  991MOL0     C30684   3.566  10.306  10.701  0.7989 -0.3628 -0.2620
  991MOL0     C30685   3.506  10.184  10.739 -0.4042 -0.1320  0.2712
  991MOL0     C30686   3.376  10.154  10.711  0.4152 -0.8106 -0.1257
  991MOL0     C30687   3.303  10.241  10.631 -1.0588 -0.6185  0.0180
  991MOL0     O30688   3.177  10.210  10.583 -0.9409 -0.3151 -0.0703
  991MOL0     C30689   3.085  10.195  10.680  0.2372  0.2668 -0.8737
  991MOL0     C30690   2.974  10.294  10.687  0.7112 -0.0409  0.2647
  991MOL0     C30691   2.871  10.253  10.801  0.2617 -0.2531  0.0998
  991MOL0     C30692   2.774  10.366  10.830 -1.2158  0.1729  0.2983
  991MOL0     C30693   2.689  10.340  10.950 -0.6732  0.3702 -1.0407
  991MOL0     C30694   2.587  10.447  10.969 -0.6808  0.4452  0.3390
  991MOL0     C30695   2.512  10.433  11.108 -0.1411 -0.5970  0.5118
  991MOL0     C30696   2.452  10.571  11.144 -0.9500 -0.0204 -0.6807
  991MOL0     N30697   2.382  10.637  11.035 -0.5336 -0.0535  0.9837
  991MOL0     C30698   2.311  10.580  10.937  0.1779  0.5871  0.5902
  991MOL0     C30699   2.274  10.680  10.856 -0.8599  0.1370 -0.4885
  991MOL0     C30700   2.192  10.682  10.732  0.0270 -0.0196  0.5692
  991MOL0     C30701   2.043  10.675  10.765  0.9986  0.1025  0.2837
  991MOL0     C30702   1.998  10.763  10.873  1.1226 -0.6877  0.5149
  991MOL0     C30703   1.843  10.776  10.876 -0.2868  0.8022  1.1433
  991MOL0     O30704   1.782  10.666  10.947  0.0986  0.0145  0.2229
  991MOL0     C30705   1.642  10.669  10.962  0.5962 -0.2898  0.3081
  991MOL0     C30706   1.559  10.760  10.904  0.5505  0.1351  0.0294
  991MOL0     C30707   1.423  10.745  10.910 -0.2085 -0.9460 -1.0061
  991MOL0     C30708   1.361  10.650  10.990 -0.0263 -0.3155 -0.0845
  991MOL0     C30709   1.206  10.645  11.006  0.1709  0.4990  0.0248
  991MOL0     O30710   1.158  10.549  11.088  0.4245  0.6114 -0.5704
  991MOL0     C30711   1.026  10.517  11.089 -0.0473  0.8194  0.6705
  991MOL0     C30712   0.974  10.496  11.217 -0.1025 -0.2582  0.1538
  991MOL0     C30713   0.839  10.468  11.230  0.5890  0.1485  0.5386
  991MOL0     C30714   0.756  10.440  11.122 -0.0354 -0.7324  0.3094
  991MOL0     O30715   0.627  10.399  11.128 -0.6000  0.1918  0.1060
  991MOL0     C30716   0.570  10.375  11.254  0.4648 -0.3345 -0.3448
  991MOL0     C30717   0.422  10.351  11.230  0.7677  0.5581 -0.7427
  991MOL0     C30718   0.322  10.407  11.341  0.6050  0.0811  0.7203
  991MOL0     C30719   0.181  10.350  11.302 -0.1268 -0.0307  0.2042
  991MOL0     C30720   0.149  10.211  11.343  1.1128  0.2344  0.2617
  991MOL0     C30721   0.041  10.143  11.260  0.8029  0.1368  0.4051
  991MOL0     C30722  -0.002  10.011  11.318  0.4444 -0.3549  0.2199
  991MOL0     C30723  -0.109  10.041  11.428 -0.3359  0.3226 -0.1445
  991MOL0    Cl30724  -0.035  10.018  11.590 -0.0542  0.1276 -0.2494
  991MOL0     C30725   0.812  10.454  10.995 -0.9753  0.2901 -1.2952
  991MOL0     C30726   0.943  10.495  10.984  0.0662  1.0418 -0.0758
  991MOL0     O30727   1.140  10.727  10.949 -0.1222 -0.1002  0.4590
  991MOL0     C30728   1.449  10.560  11.055  0.7839  0.7392  0.1963
  991MOL0     C30729   1.583  10.563  11.034  0.7244  0.1275  0.4087
  991MOL0     N30730   2.336  10.796  10.906 -0.3493 -0.1849  0.0311
  991MOL0     N30731   2.403  10.769  11.009 -0.1959 -0.0015 -0.3812
  991MOL0     C30732   3.360  10.366  10.597 -0.3274  0.0640  0.0646
  991MOL0     C30733   3.489  10.402  10.634  0.8388  0.4868 -0.4215
  991MOL0     C30734   3.940  10.307  10.704 -0.2221  0.8394  0.4601
  991MOL0     C30735   4.051  10.219  10.689  0.2154 -0.1276 -0.0567
  991MOL0     C30736   4.183  10.264  10.680  0.2217  0.5878  0.6895
  991MOL0     C30737   4.206  10.396  10.693  1.0903  0.0737  0.2444
  991MOL0     O30738   4.334  10.451  10.681 -0.1470  0.9669 -0.2763
  991MOL0     C30739   4.454  10.367  10.665  0.3073 -0.7017 -0.1585
  991MOL0     C30740   4.577  10.456  10.676 -0.0872 -0.0577  0.3394
  991MOL0     C30741   4.709  10.384  10.633  0.0104 -0.3370  0.5055
  991MOL0     C30742   4.731  10.253  10.710  0.0964 -0.1018 -0.5895
  991MOL0     C30743   4.865  10.271  10.772  0.0405 -0.1719  0.4418
  991MOL0     C30744   4.973  10.298  10.813  0.2726 -0.7997 -0.8328
  991MOL0     C30745   4.101  10.487  10.698 -1.4129  0.6895 -0.3729
  991MOL0     C30746   3.970  10.439  10.702  0.1909  0.1676 -0.3710
  991MOL0     H30747   3.565  10.128  10.811 -0.2481  1.7748  1.7074
  991MOL0     H30748   3.323  10.066  10.746  2.4195 -1.7838  0.6160
  991MOL0     H30749   3.119  10.185  10.783 -0.1677 -0.2310 -0.7824
  991MOL0     H30750   3.045  10.097  10.648 -1.4083  0.8999 -0.8692
  991MOL0     H30751   2.925  10.293  10.589  1.1845 -0.5991  0.0271
  991MOL0     H30752   3.019  10.392  10.701  0.7886 -0.1538  0.8456
  991MOL0     H30753   2.928  10.224  10.889  0.9067 -1.4206 -0.6712
  991MOL0     H30754   2.813  10.164  10.774 -0.7935  0.4705 -0.0910
  991MOL0     H30755   2.839  10.453  10.841  1.3234 -1.2162 -2.2476
  991MOL0     H30756   2.706  10.380  10.745  1.3032  0.3951 -1.8237
  991MOL0     H30757   2.755  10.334  11.037 -0.6544 -1.3264 -1.1404
  991MOL0     H30758   2.648  10.239  10.956 -1.1029  0.6122  1.7512
  991MOL0     H30759   2.516  10.444  10.886  0.4741 -2.4069 -0.6910
  991MOL0     H30760   2.655  10.533  10.967  1.5990 -1.2264  0.7557
  991MOL0     H30761   2.431  10.362  11.093 -1.4401  0.6737  1.2162
  991MOL0     H30762   2.582  10.413  11.190  1.8459  1.8646 -0.4560
  991MOL0     H30763   2.540  10.629  11.175 -2.6773  1.2319  2.2685
  991MOL0     H30764   2.394  10.565  11.236 -2.7960 -1.0164 -1.8589
  991MOL0     H30765   2.289  10.474  10.926  1.9438 -0.0854  2.7637
  991MOL0     H30766   2.212  10.595  10.670 -1.2545 -0.5945  0.9288
  991MOL0     H30767   2.223  10.773  10.679 -0.6364 -0.4205 -0.5449
  991MOL0     H30768   2.027  10.571  10.792  0.6161  0.4152  1.2963
  991MOL0     H30769   1.994  10.697  10.669  2.1358 -2.0426 -0.8458
  991MOL0     H30770   2.025  10.729  10.973  0.9504 -1.1845  0.3990
  991MOL0     H30771   2.028  10.867  10.859  0.8253 -0.8929 -2.3097
  991MOL0     H30772   1.796  10.783  10.777 -0.7550  1.8994  1.4320
  991MOL0     H30773   1.812  10.870  10.923 -1.8882  0.4827  0.7929
  991MOL0     H30774   1.597  10.845  10.848  0.1909 -0.9892 -2.0327
  991MOL0     H30775   1.367  10.823  10.859 -0.5970  1.1804  2.3572
  991MOL0     H30776   1.022  10.510  11.314  0.4775 -0.8136 -0.0459
  991MOL0     H30777   0.805  10.444  11.331 -2.5392 -3.4957 -1.1313
  991MOL0     H30778   0.587  10.456  11.325  0.9567 -1.3955  0.7751
  991MOL0     H30779   0.610  10.284  11.301 -0.4003 -0.8487 -0.5756
  991MOL0     H30780   0.409  10.243  11.215  1.0072  0.6469 -1.6336
  991MOL0     H30781   0.390  10.394  11.135 -0.3493 -2.0939 -1.6542
  991MOL0     H30782   0.328  10.516  11.347 -0.5954  0.0869  2.6206
  991MOL0     H30783   0.344  10.372  11.442 -1.1885 -1.7628  0.5453
  991MOL0     H30784   0.111  10.418  11.351  1.6189  1.8130  0.2530
  991MOL0     H30785   0.178  10.372  11.195  0.2218  1.7219  0.5177
  991MOL0     H30786   0.127  10.217  11.449  1.3962  2.6126  0.2250
  991MOL0     H30787   0.243  10.154  11.340  0.9706  0.0122 -0.1744
  991MOL0     H30788   0.069  10.132  11.155 -2.6803  2.8532 -1.0173
  991MOL0     H30789  -0.047  10.208  11.262  1.1434  0.6706 -0.9926
  991MOL0     H30790  -0.049   9.949  11.242 -2.2947  0.5671  1.0642
  991MOL0     H30791   0.082   9.950  11.354  2.8045  0.2805 -3.6266
  991MOL0     H30792  -0.193   9.973  11.407 -0.9850 -0.6337  4.5148
  991MOL0     H30793  -0.151  10.142  11.432 -1.1506  0.1399 -2.5035
  991MOL0     H30794   0.750  10.437  10.908 -0.6896 -0.2798 -1.3919
  991MOL0     H30795   0.966  10.527  10.883 -1.3386  3.8195  0.3589
  991MOL0     H30796   1.404  10.487  11.121 -0.4893  0.9783 -0.3771
  991MOL0     H30797   1.654  10.502  11.089  0.8381  0.8831  1.1261
  991MOL0     H30798   3.293  10.438  10.552  0.8565  1.2372  0.1190
  991MOL0     H30799   3.521  10.505  10.631 -0.3719  0.8521 -1.7051
  991MOL0     H30800   4.035  10.112  10.678  1.8834 -0.4391  0.3242
  991MOL0     H30801   4.263  10.191  10.665 -0.7305 -0.1267 -1.2044
  991MOL0     H30802   4.453  10.307  10.574  0.5882 -2.5359  0.9858
  991MOL0     H30803   4.465  10.302  10.752 -0.0395  0.4417  0.7658
  991MOL0     H30804   4.557  10.546  10.617  0.7952  1.0412  1.6370
  991MOL0     H30805   4.579  10.508  10.773 -2.4580  1.1476 -0.1836
  991MOL0     H30806   4.789  10.457  10.649 -0.4447  0.3416 -0.2249
  991MOL0     H30807   4.718  10.364  10.525 -0.6820  1.0947  0.1533
  991MOL0     H30808   4.659  10.251  10.792  0.2887  2.0238 -0.3072
  991MOL0     H30809   4.720  10.160  10.653 -2.4558 -0.3460  0.2099
  991MOL0     H30810   5.067  10.326  10.856  0.3825  0.0666 -1.6171
  991MOL0     H30811   4.117  10.594  10.693 -1.3438  0.7654  1.0792
  991MOL0     H30812   3.899  10.521  10.706  0.8027  0.6565  0.7644
  992MOL0     O30813   0.093   1.364   3.089  0.4741 -0.6288  0.2738
  992MOL0     C30814   0.160   1.270   3.134 -0.3297  0.2159 -0.2817
  992MOL0     O30815   0.106   1.143   3.170 -0.8521  0.3626 -0.1994
  992MOL0     C30816  -0.027   1.122   3.133 -0.7744  0.2560 -0.6294
  992MOL0     C30817  -0.054   1.089   3.001 -0.3322 -0.2673 -0.0168
  992MOL0     C30818  -0.192   1.064   2.967  0.5638 -0.2102  0.8404
  992MOL0     C30819  -0.302   1.087   3.055  0.7984  0.8377 -1.0097
  992MOL0     O30820  -0.431   1.066   3.021  0.1806  0.4018  0.0786
  992MOL0     C30821  -0.538   1.100   3.106  0.0921  0.1972  1.4217
  992MOL0     C30822  -0.663   1.078   3.023  0.4902 -0.0025 -0.5317
  992MOL0     C30823  -0.778   1.045   3.115  0.5532  0.1942 -1.1746
  992MOL0     C30824  -0.892   0.985   3.037 -0.8232 -0.6244  0.0015
  992MOL0     C30825  -1.014   0.978   3.126  0.4004 -0.3578  0.6293
  992MOL0     C30826  -1.121   0.879   3.062 -0.9193 -0.2494  0.2540
  992MOL0     C30827  -1.254   0.892   3.135  0.1488  0.3659  0.4750
  992MOL0     C30828  -1.256   0.875   3.288 -0.1474  0.5580 -0.1297
  992MOL0     N30829  -1.217   0.749   3.345 -0.4991 -0.2981 -0.4020
  992MOL0     C30830  -1.265   0.625   3.312 -1.1153  0.1860 -0.4363
  992MOL0     C30831  -1.209   0.538   3.402  0.7313  0.6545 -0.0725
  992MOL0     C30832  -1.220   0.386   3.413  0.0677  0.3739  0.8888
  992MOL0     C30833  -1.197   0.326   3.552 -1.7025 -0.0282  0.6746
  992MOL0     C30834  -1.118   0.198   3.549  0.7884 -0.3623  0.1976
  992MOL0     C30835  -1.050   0.167   3.688  0.2013 -0.5193 -0.5760
  992MOL0     O30836  -0.922   0.235   3.692 -0.3288 -0.7663 -0.5691
  992MOL0     C30837  -0.841   0.225   3.801  0.9358 -0.8116 -0.3838
  992MOL0     C30838  -0.878   0.173   3.924 -0.7873  0.5215 -0.0195
  992MOL0     C30839  -0.790   0.171   4.036 -0.4190 -0.1032  0.5661
  992MOL0     C30840  -0.661   0.226   4.013 -0.0497  0.3057  0.3419
  992MOL0     C30841  -0.549   0.216   4.111 -0.1316  0.2211  0.1334
  992MOL0     O30842  -0.431   0.257   4.058 -0.2415  0.0059 -0.3874
  992MOL0     C30843  -0.314   0.265   4.143  0.5645 -0.9422 -0.6840
  992MOL0     C30844  -0.188   0.253   4.077  0.8176  0.1822 -0.0534
  992MOL0     C30845  -0.064   0.251   4.146 -0.4801  0.1167  0.4336
  992MOL0     C30846  -0.062   0.251   4.282  0.2685 -0.4301  0.3043
  992MOL0     O30847   0.063   0.227   4.339  0.2500  0.1810 -0.3155
  992MOL0     C30848   0.063   0.216   4.484  0.3166  0.5308  0.1774
  992MOL0     C30849   0.180   0.138   4.547  0.2842  0.0804  0.6242
  992MOL0     C30850   0.172   0.119   4.700 -0.3330 -1.1340 -0.1261
  992MOL0     C30851   0.049   0.047   4.749  0.4215 -0.3245 -1.2398
  992MOL0     C30852   0.047   0.029   4.900 -0.2182  0.3230 -0.1355
  992MOL0     C30853  -0.083  -0.023   4.952 -0.1223 -0.1596 -0.5501
  992MOL0     C30854  -0.137  -0.155   4.892 -0.2607 -0.2324  0.0141
  992MOL0     C30855  -0.216  -0.238   4.991  0.3407 -0.1274  0.1797
  992MOL0    Cl30856  -0.286  -0.372   4.903  0.4984  0.3694  0.2821
  992MOL0     C30857  -0.190   0.266   4.355  0.5017 -0.3014  0.4281
  992MOL0     C30858  -0.310   0.286   4.290 -0.0042  0.3433 -0.0056
  992MOL0     O30859  -0.566   0.166   4.218  0.2652 -0.2866  0.2214
  992MOL0     C30860  -0.629   0.284   3.886  0.0660  0.9473  0.3869
  992MOL0     C30861  -0.718   0.285   3.779  0.7349  0.2541  0.4260
  992MOL0     N30862  -1.131   0.619   3.482 -0.9009 -0.5086 -0.2465
  992MOL0     N30863  -1.140   0.748   3.451 -0.5166  0.0009 -0.3523
  992MOL0     C30864  -0.264   1.122   3.189  0.8869  0.7027  0.1205
  992MOL0     C30865  -0.128   1.138   3.226 -0.8057  0.1310  0.7074
  992MOL0     C30866   0.305   1.280   3.154 -0.3983 -0.5240 -0.0467
  992MOL0     C30867   0.385   1.177   3.204  0.3865  0.0181  0.5286
  992MOL0     C30868   0.523   1.188   3.210 -0.3867 -0.5840  0.1784
  992MOL0     C30869   0.584   1.298   3.164 -0.5338  0.4308  0.2523
  992MOL0     O30870   0.720   1.313   3.160  0.3101 -0.5387  0.4182
  992MOL0     C30871   0.804   1.245   3.257 -0.3428 -0.2672 -0.0204
  992MOL0     C30872   0.809   1.300   3.398  0.5653 -0.5921  0.2919
  992MOL0     C30873   0.866   1.445   3.403 -0.0585  0.2296  0.6658
  992MOL0     C30874   1.010   1.466   3.453 -0.4688  0.1192 -0.0163
  992MOL0     C30875   1.043   1.610   3.456  0.7213 -0.3893 -0.0420
  992MOL0     C30876   1.102   1.713   3.478 -0.0324 -0.3827  1.1125
  992MOL0     C30877   0.509   1.407   3.117  1.0541 -0.9672 -0.5158
  992MOL0     C30878   0.368   1.404   3.110  0.6540  0.1206  0.4722
  992MOL0     H30879   0.030   1.087   2.932 -0.9652  1.5222 -0.9036
  992MOL0     H30880  -0.207   1.044   2.861 -1.7214 -1.8481  1.3908
  992MOL0     H30881  -0.545   1.201   3.149  1.5089  0.1320  1.8721
  992MOL0     H30882  -0.556   1.028   3.186  0.0628  1.2007  2.3471
  992MOL0     H30883  -0.641   0.994   2.956 -0.1298  0.7223 -1.6755
  992MOL0     H30884  -0.692   1.170   2.973  0.5568 -0.6914 -1.8898
  992MOL0     H30885  -0.807   1.135   3.170  2.3482  0.0249  0.1646
  992MOL0     H30886  -0.740   0.969   3.185  2.0269  1.2640 -0.7636
  992MOL0     H30887  -0.911   1.054   2.955  0.6153  0.9694  0.9618
  992MOL0     H30888  -0.862   0.887   2.997  1.4015 -0.4853  1.1528
  992MOL0     H30889  -1.049   1.079   3.149  0.2494 -0.4152  0.6527
  992MOL0     H30890  -0.990   0.937   3.225 -0.4056 -1.9143  0.2080
  992MOL0     H30891  -1.082   0.777   3.059  1.5454  0.5602  1.9991
  992MOL0     H30892  -1.139   0.893   2.955 -2.2480 -1.4069  0.3017
  992MOL0     H30893  -1.285   0.994   3.109  1.0588  0.9621  1.6559
  992MOL0     H30894  -1.333   0.836   3.084 -2.6259  3.5338  0.9368
  992MOL0     H30895  -1.356   0.908   3.316 -0.4915  0.3714 -1.1232
  992MOL0     H30896  -1.190   0.954   3.326  0.1245  0.1169  0.3296
  992MOL0     H30897  -1.338   0.594   3.238 -0.6509  2.3000 -1.8408
  992MOL0     H30898  -1.156   0.341   3.336 -0.6400  0.8953 -0.0283
  992MOL0     H30899  -1.322   0.356   3.386 -0.0793  0.7941  0.9859
  992MOL0     H30900  -1.288   0.317   3.612 -1.0478  0.2672  1.7567
  992MOL0     H30901  -1.141   0.398   3.613 -0.1332 -1.8798  1.5456
  992MOL0     H30902  -1.202   0.129   3.535 -0.9905  1.5019  1.0942
  992MOL0     H30903  -1.038   0.197   3.475  1.5908  0.8818  1.0315
  992MOL0     H30904  -1.031   0.060   3.696 -0.3714 -0.5889 -0.1177
  992MOL0     H30905  -1.117   0.199   3.768  1.0141  1.5367 -0.6435
  992MOL0     H30906  -0.972   0.118   3.933 -0.1548 -0.6414 -0.3135
  992MOL0     H30907  -0.829   0.122   4.125  1.7796  0.5727  1.9785
  992MOL0     H30908  -0.182   0.238   3.969  0.0183 -0.5686 -0.0056
  992MOL0     H30909   0.024   0.249   4.083 -1.0066  2.4531 -0.4837
  992MOL0     H30910  -0.025   0.163   4.519 -0.2067  1.2678  0.0020
  992MOL0     H30911   0.064   0.319   4.522  2.7393 -0.0625  1.9985
  992MOL0     H30912   0.270   0.196   4.526 -0.7267  0.7027 -2.5400
  992MOL0     H30913   0.188   0.037   4.507 -1.0311  0.3983 -0.5073
  992MOL0     H30914   0.175   0.219   4.744  0.4849  0.5675 -3.6819
  992MOL0     H30915   0.257   0.057   4.731 -1.3614 -3.4006 -1.5521
  992MOL0     H30916  -0.036   0.111   4.723  0.9621  0.3545 -1.3335
  992MOL0     H30917   0.038  -0.048   4.696 -1.1106 -0.0053 -1.5611
  992MOL0     H30918   0.074   0.120   4.954 -1.1568  0.6352 -0.1607
  992MOL0     H30919   0.123  -0.045   4.925 -2.3544 -2.7959 -2.1371
  992MOL0     H30920  -0.163   0.052   4.946 -1.6835 -1.4707  2.2502
  992MOL0     H30921  -0.071  -0.039   5.059  2.2231 -3.2460 -1.1461
  992MOL0     H30922  -0.202  -0.140   4.806 -1.5069 -1.8861  0.6004
  992MOL0     H30923  -0.051  -0.212   4.857  1.0577  1.4578  0.3344
  992MOL0     H30924  -0.295  -0.176   5.034  0.6722  1.2293 -1.1014
  992MOL0     H30925  -0.144  -0.271   5.067  0.0523 -1.3774 -0.0678
  992MOL0     H30926  -0.202   0.261   4.463 -0.5589 -1.8425  0.2699
  992MOL0     H30927  -0.398   0.325   4.341  0.3893 -0.2035  1.1400
  992MOL0     H30928  -0.532   0.321   3.856 -0.8200  1.6256 -1.8462
  992MOL0     H30929  -0.691   0.320   3.680  0.4039  1.6116  0.7842
  992MOL0     H30930  -0.333   1.139   3.270 -1.6804 -1.2509 -1.4802
  992MOL0     H30931  -0.087   1.178   3.319  2.7173 -0.9557 -0.2147
  992MOL0     H30932   0.354   1.079   3.239  2.6264 -0.2443  1.9922
  992MOL0     H30933   0.583   1.101   3.233  1.3938  0.2097 -1.2364
  992MOL0     H30934   0.904   1.257   3.215 -0.2067 -0.4847  0.2361
  992MOL0     H30935   0.797   1.137   3.237  3.5250 -0.2278 -2.7166
  992MOL0     H30936   0.705   1.298   3.434 -0.3823  1.2400 -2.0710
  992MOL0     H30937   0.862   1.220   3.452  2.6852 -0.0185 -0.8394
  992MOL0     H30938   0.803   1.492   3.480  2.4032  1.3794  2.0782
  992MOL0     H30939   0.839   1.492   3.308 -3.5844 -2.4128  0.1356
  992MOL0     H30940   1.023   1.423   3.552  0.4923  1.0155  0.2557
  992MOL0     H30941   1.073   1.402   3.390  0.2165  0.4496  0.3249
  992MOL0     H30942   1.170   1.794   3.498  2.1597 -2.2239  1.6073
  992MOL0     H30943   0.555   1.501   3.086 -3.6740  0.8065 -3.2038
  992MOL0     H30944   0.312   1.490   3.073  0.3681  1.3634  3.5276
  993MOL0     O30945   4.264   0.457   5.659  0.4336  0.5972 -0.6722
  993MOL0     C30946   4.350   0.507   5.730  0.4174  0.0946 -0.0377
  993MOL0     O30947   4.333   0.603   5.829 -0.1273 -0.0850 -1.1773
  993MOL0     C30948   4.206   0.644   5.869 -0.8046  0.1845  0.0120
  993MOL0     C30949   4.180   0.779   5.879 -0.5898  0.7580 -0.0928
  993MOL0     C30950   4.066   0.825   5.931 -0.3275  1.1699  0.4769
  993MOL0     C30951   3.968   0.739   5.973 -0.0545 -0.3617 -0.7064
  993MOL0     O30952   3.841   0.772   6.009  0.1503  0.0812 -0.2095
  993MOL0     C30953   3.832   0.909   6.059  0.0416  0.0247  0.3385
  993MOL0     C30954   3.684   0.940   6.086 -0.3740 -0.4699  0.2570
  993MOL0     C30955   3.671   1.081   6.133 -0.1909  0.2207  1.2274
  993MOL0     C30956   3.527   1.132   6.162 -1.0534 -1.0481 -0.0125
  993MOL0     C30957   3.526   1.277   6.196 -0.8706  0.4230  0.8446
  993MOL0     C30958   3.384   1.338   6.222  0.3678  0.1405  0.0837
  993MOL0     C30959   3.361   1.483   6.195 -0.1744 -0.0061  0.5336
  993MOL0     C30960   3.459   1.579   6.262  0.4196  0.5916  0.1460
  993MOL0     N30961   3.413   1.719   6.245 -0.3826  0.1679 -0.1180
  993MOL0     C30962   3.486   1.822   6.194 -0.2447 -0.5976  0.2835
  993MOL0     C30963   3.411   1.933   6.214  0.4343  0.2425 -0.7579
  993MOL0     C30964   3.445   2.079   6.173 -0.1434  0.8311  0.1755
  993MOL0     C30965   3.334   2.194   6.168  0.2503 -0.3608  0.5905
  993MOL0     C30966   3.210   2.164   6.073 -0.1816  0.3397  0.0569
  993MOL0     C30967   3.121   2.288   6.053  0.4824  0.4242  0.1404
  993MOL0     O30968   3.085   2.346   6.182 -0.3497  0.0618 -0.1139
  993MOL0     C30969   2.957   2.402   6.198  0.0629  1.0339  0.3887
  993MOL0     C30970   2.865   2.433   6.095 -0.5266 -0.4278  0.2884
  993MOL0     C30971   2.734   2.471   6.127 -0.5323  0.5264 -0.4556
  993MOL0     C30972   2.687   2.481   6.263 -0.2141  0.0594  0.7734
  993MOL0     C30973   2.558   2.524   6.303  0.2842 -0.8248  1.1736
  993MOL0     O30974   2.523   2.493   6.426  0.0179  0.3266 -0.3249
  993MOL0     C30975   2.402   2.536   6.474 -0.0663  0.0308 -0.3009
  993MOL0     C30976   2.387   2.669   6.502  0.3519  0.0508 -0.3991
  993MOL0     C30977   2.261   2.716   6.544 -0.1564 -0.3036  0.3539
  993MOL0     C30978   2.157   2.628   6.569  0.2295  0.6733 -0.1155
  993MOL0     O30979   2.039   2.675   6.620  0.1753  0.3590  0.8270
  993MOL0     C30980   2.032   2.807   6.660  0.7591 -0.0528 -0.2324
  993MOL0     C30981   1.889   2.844   6.706 -0.1282  0.0752  0.1917
  993MOL0     C30982   1.869   2.997   6.730  0.4597  1.1845 -0.3941
  993MOL0     C30983   1.792   3.020   6.863  0.3247  1.1207  0.8264
  993MOL0     C30984   1.652   2.943   6.865 -1.4233  0.2453  0.6623
  993MOL0     C30985   1.588   2.953   6.994  0.3750  0.2108 -0.0683
  993MOL0     C30986   1.452   2.892   6.978  1.0876  0.1402 -0.3196
  993MOL0     C30987   1.340   2.945   7.070  0.0021 -0.6558 -0.4102
  993MOL0    Cl30988   1.189   2.845   7.049 -0.1029 -0.2636 -0.0352
  993MOL0     C30989   2.163   2.487   6.545  0.4458 -0.1325  0.1781
  993MOL0     C30990   2.295   2.444   6.498 -0.5857  0.2277  0.3746
  993MOL0     O30991   2.486   2.569   6.211  0.0077  0.3149 -0.7323
  993MOL0     C30992   2.783   2.460   6.361  0.1160  0.1421 -0.7661
  993MOL0     C30993   2.919   2.423   6.335 -1.0777 -0.4899  0.5629
  993MOL0     N30994   3.301   1.889   6.283  0.6734 -0.5293 -0.0530
  993MOL0     N30995   3.301   1.768   6.302 -0.1495  0.0754  0.2499
  993MOL0     C30996   3.993   0.603   5.977 -0.2924 -0.3392 -0.3277
  993MOL0     C30997   4.112   0.549   5.926 -0.6131  1.1697  0.2312
  993MOL0     C30998   4.488   0.483   5.710  0.0890  0.0154  0.2312
  993MOL0     C30999   4.580   0.518   5.806  0.5853 -0.5811  0.8338
  993MOL0     C31000   4.719   0.497   5.778 -0.0940 -0.0105 -0.4572
  993MOL0     C31001   4.757   0.412   5.672 -0.8666 -0.5030  0.4040
  993MOL0     O31002   4.895   0.387   5.663 -0.1805 -0.2124  0.1736
  993MOL0     C31003   4.954   0.319   5.557 -0.4209 -0.3159 -0.1188
  993MOL0     C31004   5.098   0.284   5.572  0.0057 -0.8320  0.0164
  993MOL0     C31005   5.137   0.228   5.713  1.0155  0.4827 -0.6277
  993MOL0     C31006   5.049   0.113   5.748 -0.5190 -0.5869 -0.3036
  993MOL0     C31007   5.036  -0.002   5.658 -0.1005  0.0292  0.7170
  993MOL0     C31008   5.029  -0.092   5.575 -0.2002 -0.0295  0.3979
  993MOL0     C31009   4.657   0.373   5.583 -0.6150  0.2670 -0.2468
  993MOL0     C31010   4.527   0.417   5.599 -0.3611 -0.9028 -0.1135
  993MOL0     H31011   4.257   0.845   5.839  0.2126 -0.3002 -0.3490
  993MOL0     H31012   4.057   0.933   5.922  3.1966  1.8931  3.1246
  993MOL0     H31013   3.852   0.985   5.983  1.7911 -1.3131 -0.6009
  993MOL0     H31014   3.880   0.927   6.155  0.9128 -0.8619  0.0830
  993MOL0     H31015   3.636   0.873   6.158  0.9911 -2.1202 -0.3134
  993MOL0     H31016   3.627   0.940   5.992 -1.7166 -0.3874  1.0357
  993MOL0     H31017   3.705   1.149   6.054  2.8839 -1.4426  0.9540
  993MOL0     H31018   3.735   1.093   6.221 -1.0427  1.0081  1.7519
  993MOL0     H31019   3.465   1.128   6.071  0.7109  1.9066 -1.4815
  993MOL0     H31020   3.495   1.072   6.248 -0.1306  1.4419  2.1671
  993MOL0     H31021   3.583   1.335   6.123  0.5221 -2.5857 -0.6219
  993MOL0     H31022   3.576   1.282   6.293 -0.4422 -1.2372  0.7401
  993MOL0     H31023   3.371   1.312   6.328 -1.9198 -4.0522 -1.0080
  993MOL0     H31024   3.307   1.276   6.175  3.6894 -2.3915 -2.5512
  993MOL0     H31025   3.385   1.489   6.088  0.4759  1.6896  0.7343
  993MOL0     H31026   3.260   1.523   6.210  0.2448  0.9630  0.8925
  993MOL0     H31027   3.561   1.561   6.228  0.5741 -0.4677  1.0793
  993MOL0     H31028   3.457   1.550   6.368  1.0763 -2.0566 -0.4996
  993MOL0     H31029   3.592   1.807   6.177 -0.4361 -1.9995  0.2495
  993MOL0     H31030   3.487   2.069   6.073 -1.6034 -2.1577 -0.2445
  993MOL0     H31031   3.519   2.123   6.240 -1.6901  0.5663  2.1611
  993MOL0     H31032   3.371   2.288   6.126  0.2380  0.2638  1.9253
  993MOL0     H31033   3.302   2.232   6.266  1.0161  0.2445  0.6112
  993MOL0     H31034   3.244   2.114   5.982  0.0295 -0.6928  0.6763
  993MOL0     H31035   3.141   2.099   6.128  1.8773 -0.0903  2.3300
  993MOL0     H31036   3.033   2.263   5.992  0.2272  2.4978 -0.4365
  993MOL0     H31037   3.161   2.371   5.993 -0.0942  0.9136  0.4172
  993MOL0     H31038   2.897   2.439   5.992  2.7184  0.8007  1.2551
  993MOL0     H31039   2.674   2.484   6.037 -0.0058  1.2823 -0.7082
  993MOL0     H31040   2.466   2.744   6.503 -1.4875  2.1350 -2.0722
  993MOL0     H31041   2.259   2.824   6.550  3.3635 -0.0290 -0.9037
  993MOL0     H31042   2.050   2.864   6.569 -1.1361  3.6948  1.5477
  993MOL0     H31043   2.107   2.826   6.738  0.3001 -0.8816  0.4397
  993MOL0     H31044   1.882   2.803   6.807  1.7079 -3.2831 -0.8677
  993MOL0     H31045   1.812   2.799   6.642 -1.2647  2.3034 -0.1032
  993MOL0     H31046   1.825   3.046   6.642 -3.1462 -2.2031 -0.7518
  993MOL0     H31047   1.968   3.042   6.744  0.4213  0.7139  1.7810
  993MOL0     H31048   1.851   2.973   6.942 -1.9752 -1.3928  1.2354
  993MOL0     H31049   1.780   3.126   6.886 -2.9619  1.3433 -1.2724
  993MOL0     H31050   1.669   2.840   6.832 -1.8641  0.4986 -0.4060
  993MOL0     H31051   1.603   2.989   6.779  1.4998  0.9854 -0.7352
  993MOL0     H31052   1.575   3.057   7.026 -0.4536 -0.4464  1.9382
  993MOL0     H31053   1.637   2.895   7.073 -0.5093 -1.2938 -0.5871
  993MOL0     H31054   1.426   2.916   6.875  3.3603  4.0392 -0.1926
  993MOL0     H31055   1.449   2.784   6.996 -3.9484  0.3982  2.0674
  993MOL0     H31056   1.321   3.051   7.055 -1.7855 -1.0580 -1.3239
  993MOL0     H31057   1.382   2.934   7.170  0.2725  0.9029 -0.3312
  993MOL0     H31058   2.080   2.418   6.560 -1.8202  2.3659 -0.0329
  993MOL0     H31059   2.320   2.338   6.491 -0.5757  0.0307  2.5641
  993MOL0     H31060   2.764   2.486   6.464  1.8760 -1.5197  0.0488
  993MOL0     H31061   2.990   2.416   6.417 -1.4301  0.0367  0.9163
  993MOL0     H31062   3.925   0.534   6.026 -0.3486 -0.4313 -0.5319
  993MOL0     H31063   4.134   0.444   5.939  0.4543  1.4772  1.1023
  993MOL0     H31064   4.562   0.574   5.896  1.2031  2.7309 -0.9447
  993MOL0     H31065   4.799   0.527   5.845 -0.1205 -1.3338  0.1985
  993MOL0     H31066   4.940   0.374   5.463 -1.9948  0.1963  0.3799
  993MOL0     H31067   4.901   0.224   5.547 -2.3588  0.4190  2.1578
  993MOL0     H31068   5.110   0.211   5.492 -3.8843  1.0326 -2.6307
  993MOL0     H31069   5.161   0.371   5.553 -1.9436  0.0428 -3.3541
  993MOL0     H31070   5.135   0.304   5.791  1.1696  0.1106 -0.2565
  993MOL0     H31071   5.244   0.204   5.722  1.1502  1.5151  0.8069
  993MOL0     H31072   5.080   0.077   5.847  0.5236 -0.6764 -0.6508
  993MOL0     H31073   4.945   0.139   5.771  0.3606  1.4785  1.7042
  993MOL0     H31074   5.035  -0.175   5.508  1.1953  0.7699 -0.5104
  993MOL0     H31075   4.688   0.322   5.492 -2.4562  2.8541 -2.4770
  993MOL0     H31076   4.455   0.404   5.519  0.5927 -1.5961 -0.8879
  994MOL0     O31077   5.041  10.753   4.428  0.5347  0.1029  0.4932
  994MOL0     C31078   5.104  10.821   4.356  0.4988 -0.7245 -0.9774
  994MOL0     O31079   5.062  10.937   4.302  0.1536 -0.3021 -0.8115
  994MOL0     C31080   4.934  10.986   4.335 -0.7524  0.0580 -0.5184
  994MOL0     C31081   4.890  11.011   4.468  0.6015  0.0372 -0.0610
  994MOL0     C31082   4.762  11.062   4.491 -0.7269  0.0708 -0.1060
  994MOL0     C31083   4.673  11.098   4.388 -0.2399 -0.1353  0.3756
  994MOL0     O31084   4.542  11.128   4.427 -0.4303  0.6152  0.6344
  994MOL0     C31085   4.475  11.213   4.339 -0.3274  0.5379  0.3966
  994MOL0     C31086   4.373  11.294   4.424  0.6885 -0.4786  0.6465
  994MOL0     C31087   4.241  11.224   4.459 -0.4525 -0.3836  0.1258
  994MOL0     C31088   4.155  11.303   4.550  0.0245 -0.4805 -0.7544
  994MOL0     C31089   4.025  11.235   4.582 -0.4058 -0.7073  0.3849
  994MOL0     C31090   3.904  11.326   4.631  0.7232  0.6378 -0.0803
  994MOL0     C31091   3.790  11.246   4.697 -0.5206 -0.2829 -0.5237
  994MOL0     C31092   3.755  11.120   4.618  0.3049 -1.0508 -0.8662
  994MOL0     N31093   3.621  11.072   4.661 -0.1708  0.0439  0.0987
  994MOL0     C31094   3.497  11.141   4.639 -0.7118  0.1782  0.3732
  994MOL0     C31095   3.406  11.053   4.688 -0.0486 -1.0959  0.3068
  994MOL0     C31096   3.260  11.060   4.670  0.0007  0.1262  0.2618
  994MOL0     C31097   3.209  10.995   4.538 -0.1910  0.5423  0.0070
  994MOL0     C31098   3.059  10.997   4.540 -0.0382  0.0519  0.6320
  994MOL0     C31099   2.992  10.879   4.612  0.5539  0.4334  0.2253
  994MOL0     O31100   2.848  10.909   4.632 -0.4824  0.1139 -0.1290
  994MOL0     C31101   2.756  10.810   4.640 -0.1035 -0.8975  0.1423
  994MOL0     C31102   2.775  10.679   4.622  0.0264 -1.3708  0.0122
  994MOL0     C31103   2.663  10.590   4.623 -0.1326 -0.7008  0.2037
  994MOL0     C31104   2.529  10.631   4.655 -0.1564  0.5970  1.1035
  994MOL0     C31105   2.416  10.526   4.646  0.0465 -0.4266 -0.2562
  994MOL0     O31106   2.287  10.580   4.631 -0.4782 -0.3004 -0.4445
  994MOL0     C31107   2.185  10.498   4.607 -0.0465 -0.1182  0.7368
  994MOL0     C31108   2.060  10.546   4.646 -0.5074 -0.1351  0.2911
  994MOL0     C31109   1.940  10.480   4.619 -1.1198 -0.4343  0.7980
  994MOL0     C31110   1.946  10.365   4.547  0.5783 -0.3469 -0.2241
  994MOL0     O31111   1.834  10.296   4.507  0.0565  0.4176 -0.2243
  994MOL0     C31112   1.715  10.364   4.506 -0.1278  0.5787  0.5932
  994MOL0     C31113   1.595  10.274   4.454 -0.4051  0.3719 -0.6015
  994MOL0     C31114   1.486  10.233   4.548  0.4659  0.8190 -0.7625
  994MOL0     C31115   1.547  10.148   4.668 -0.4137 -0.8247  0.2965
  994MOL0     C31116   1.523  10.000   4.669  0.3399  0.1670 -0.6394
  994MOL0     C31117   1.379   9.974   4.679  0.1128 -0.1408  0.4886
  994MOL0     C31118   1.337   9.830   4.701 -0.1253  0.4193 -0.3984
  994MOL0     C31119   1.184   9.831   4.723  0.5445 -0.8026  0.0351
  994MOL0    Cl31120   1.097   9.879   4.575  0.2753  0.4076 -0.0111
  994MOL0     C31121   2.067  10.319   4.489 -0.3162 -0.1444 -0.4002
  994MOL0     C31122   2.187  10.395   4.511 -0.9527 -0.2879 -0.1539
  994MOL0     O31123   2.448  10.411   4.652  0.9651  0.4350 -0.2192
  994MOL0     C31124   2.514  10.765   4.689  0.5129  0.0435  1.2000
  994MOL0     C31125   2.620  10.853   4.670  0.5365 -0.4192  0.2408
  994MOL0     N31126   3.463  10.947   4.750  0.3509 -0.0718  0.1654
  994MOL0     N31127   3.595  10.965   4.740  0.3749 -0.0044 -0.5832
  994MOL0     C31128   4.724  11.097   4.260  0.2707  0.1275 -0.3303
  994MOL0     C31129   4.848  11.037   4.234 -1.1430  0.3369 -0.3923
  994MOL0     C31130   5.236  10.775   4.305 -0.4211  0.4283 -0.2139
  994MOL0     C31131   5.321  10.853   4.223 -0.1006 -0.4775  0.4473
  994MOL0     C31132   5.446  10.804   4.179  1.0087  0.4964 -0.6573
  994MOL0     C31133   5.487  10.678   4.208 -0.5555  0.6662  0.3641
  994MOL0     O31134   5.603  10.637   4.145 -0.1317  0.0037 -0.9430
  994MOL0     C31135   5.662  10.510   4.170  0.6888 -0.7022 -0.5788
  994MOL0     C31136   5.801  10.510   4.120 -0.2436  0.4739 -0.3861
  994MOL0     C31137   5.816  10.563   3.979 -0.5803  0.7732 -0.5878
  994MOL0     C31138   5.950  10.533   3.921  0.1351 -0.6604  0.0307
  994MOL0     C31139   5.962  10.580   3.783 -0.7034 -0.2124  1.0904
  994MOL0     C31140   5.974  10.630   3.666  0.4831  0.0122 -0.0956
  994MOL0     C31141   5.402  10.592   4.285 -0.5725  0.5049  0.1809
  994MOL0     C31142   5.279  10.645   4.336  0.8458 -0.3356 -0.0169
  994MOL0     H31143   4.958  10.983   4.548 -0.6466  2.4781  2.0075
  994MOL0     H31144   4.718  11.066   4.590 -1.2131  0.6588 -0.3382
  994MOL0     H31145   4.445  11.149   4.255  3.4614 -1.2836  0.2015
  994MOL0     H31146   4.545  11.288   4.301  0.9575 -0.1505  1.3064
  994MOL0     H31147   4.358  11.391   4.376  1.0572 -1.5215 -1.7206
  994MOL0     H31148   4.421  11.320   4.519  0.7049  3.7332 -0.3105
  994MOL0     H31149   4.276  11.129   4.500 -0.9630 -1.3260 -1.5217
  994MOL0     H31150   4.188  11.179   4.374 -0.0965 -1.3450  0.3914
  994MOL0     H31151   4.202  11.323   4.647 -0.1418  1.2333 -0.9817
  994MOL0     H31152   4.144  11.402   4.503  1.7794  0.4496  0.6721
  994MOL0     H31153   4.036  11.164   4.664 -0.6604  0.3840  1.3998
  994MOL0     H31154   3.990  11.187   4.490  0.9523 -0.2128 -0.4240
  994MOL0     H31155   3.873  11.380   4.541 -0.5346 -0.3953 -0.3023
  994MOL0     H31156   3.937  11.387   4.716  0.1139 -0.5638  1.0422
  994MOL0     H31157   3.812  11.211   4.799 -1.8246  0.2130 -0.0506
  994MOL0     H31158   3.693  11.297   4.702 -0.7992 -0.8644  0.1124
  994MOL0     H31159   3.826  11.042   4.647 -1.5468 -2.6068 -0.2854
  994MOL0     H31160   3.758  11.132   4.509 -0.2977  0.0166 -0.7751
  994MOL0     H31161   3.482  11.227   4.575  2.2284  0.7598  0.3218
  994MOL0     H31162   3.232  11.166   4.670 -0.0439  0.1155  0.6115
  994MOL0     H31163   3.211  10.999   4.747 -0.6705 -1.6707 -1.5103
  994MOL0     H31164   3.240  10.891   4.527 -1.3982  0.0707  0.8134
  994MOL0     H31165   3.240  11.066   4.461 -2.1262  1.9963  0.4818
  994MOL0     H31166   3.031  11.088   4.593 -1.7456  0.1977 -0.4420
  994MOL0     H31167   3.022  11.002   4.438 -0.8021 -0.4126  0.8782
  994MOL0     H31168   3.041  10.873   4.709  0.8780  3.3576  0.3170
  994MOL0     H31169   3.004  10.791   4.547 -1.2407  0.8506 -0.7479
  994MOL0     H31170   2.872  10.635   4.605  0.8434  0.8713 -1.6924
  994MOL0     H31171   2.686  10.491   4.587  3.0999  0.0471 -0.0514
  994MOL0     H31172   2.053  10.641   4.699  1.9662  0.2939 -0.0246
  994MOL0     H31173   1.850  10.525   4.659 -2.0349 -2.0312  0.6329
  994MOL0     H31174   1.729  10.454   4.445 -0.1990 -0.2974 -0.7674
  994MOL0     H31175   1.680  10.396   4.604 -1.2941  4.4216 -0.8832
  994MOL0     H31176   1.637  10.185   4.406  2.0603 -1.6172  4.4527
  994MOL0     H31177   1.547  10.338   4.379 -0.7037  0.7523 -0.0903
  994MOL0     H31178   1.402  10.189   4.494 -0.0470  2.2229 -1.1441
  994MOL0     H31179   1.451  10.327   4.591 -0.0221  0.0864  0.4920
  994MOL0     H31180   1.656  10.152   4.679 -0.1622 -2.3371 -1.2396
  994MOL0     H31181   1.514  10.204   4.756  2.8798  3.1565 -0.6687
  994MOL0     H31182   1.560   9.954   4.761  1.9766  1.3285 -0.6797
  994MOL0     H31183   1.559   9.953   4.577  2.2884  2.7030 -1.2805
  994MOL0     H31184   1.330  10.012   4.588 -0.6276 -3.1732 -0.5040
  994MOL0     H31185   1.326  10.026   4.759  0.4126 -1.9756  1.9437
  994MOL0     H31186   1.371   9.764   4.620  2.4643  1.7429 -0.5118
  994MOL0     H31187   1.382   9.798   4.795 -1.1952 -1.6154 -0.5178
  994MOL0     H31188   1.157   9.899   4.804 -1.5148  0.5197 -1.6705
  994MOL0     H31189   1.151   9.729   4.744  0.7725 -0.7747  0.5469
  994MOL0     H31190   2.063  10.230   4.427 -1.5780 -1.8399  1.9363
  994MOL0     H31191   2.274  10.358   4.458 -1.5974 -3.1222  0.5963
  994MOL0     H31192   2.417  10.804   4.721  0.0972 -0.1203  0.1815
  994MOL0     H31193   2.611  10.960   4.686 -0.4293 -0.3215 -0.7809
  994MOL0     H31194   4.655  11.138   4.187 -0.5966 -1.6727 -0.5557
  994MOL0     H31195   4.887  11.037   4.133  0.7333  0.6158  0.2964
  994MOL0     H31196   5.302  10.957   4.199  2.2002 -0.5571 -2.1183
  994MOL0     H31197   5.508  10.867   4.115 -0.2641  1.4161 -1.0255
  994MOL0     H31198   5.605  10.431   4.118 -1.4774  1.2386 -1.3335
  994MOL0     H31199   5.670  10.490   4.277 -0.0759  1.2755 -0.1197
  994MOL0     H31200   5.855  10.571   4.194 -2.5450 -0.5114  2.2820
  994MOL0     H31201   5.834  10.407   4.133 -0.9956 -0.1856 -3.2183
  994MOL0     H31202   5.810  10.671   3.996 -0.2899  0.5199  1.3047
  994MOL0     H31203   5.737  10.511   3.924 -2.2923  2.3537  0.2702
  994MOL0     H31204   6.021  10.586   3.985 -1.5751  1.9345 -0.0925
  994MOL0     H31205   5.964  10.425   3.913 -0.8707 -0.8354  0.4467
  994MOL0     H31206   5.985  10.675   3.570 -0.4147  0.3213 -0.0592
  994MOL0     H31207   5.425  10.486   4.292  0.1626  0.7611  2.0368
  994MOL0     H31208   5.220  10.573   4.391 -2.5950  1.0708 -1.5625
  995MOL0     O31209   5.648   4.619  10.113  0.1804 -0.0555  0.4499
  995MOL0     C31210   5.617   4.710  10.188 -0.1925  0.5942 -0.6463
  995MOL0     O31211   5.506   4.795  10.173 -0.5163  0.3715 -0.9061
  995MOL0     C31212   5.394   4.766  10.102 -0.0725 -0.7143 -0.5753
  995MOL0     C31213   5.293   4.857  10.114  0.3633 -0.5495 -0.2424
  995MOL0     C31214   5.165   4.834  10.048 -0.1494  0.0586 -0.3343
  995MOL0     C31215   5.137   4.726   9.968 -0.5861  0.0714 -0.0504
  995MOL0     O31216   5.022   4.702   9.901 -0.0015 -0.3109 -0.2621
  995MOL0     C31217   4.919   4.796   9.921 -0.6325  0.1649 -0.8046
  995MOL0     C31218   4.799   4.773   9.840 -0.0415  0.9246  0.2677
  995MOL0     C31219   4.748   4.630   9.850 -0.0129 -0.5042 -0.2667
  995MOL0     C31220   4.603   4.641   9.802 -0.3851  1.2961 -0.3437
  995MOL0     C31221   4.538   4.499   9.811 -1.0206 -0.9146  0.7806
  995MOL0     C31222   4.394   4.507   9.767  0.9434 -0.5807 -0.3598
  995MOL0     C31223   4.300   4.377   9.783 -0.7760  0.4746  0.9314
  995MOL0     C31224   4.155   4.397   9.735  0.5728 -0.0620 -1.5271
  995MOL0     N31225   4.056   4.319   9.810  1.1835 -0.4601 -0.0997
  995MOL0     C31226   4.056   4.187   9.835  0.0627 -0.5215  0.4262
  995MOL0     C31227   3.952   4.171   9.913 -0.7197  0.0695  0.4495
  995MOL0     C31228   3.894   4.047   9.969 -0.7202  0.3756  0.2169
  995MOL0     C31229   3.834   3.962   9.863 -0.3670 -0.3980  0.9483
  995MOL0     C31230   3.741   3.854   9.922 -0.1311 -0.0986 -0.2339
  995MOL0     C31231   3.606   3.832   9.854  0.6065 -0.0075  0.0539
  995MOL0     O31232   3.501   3.793   9.951 -0.3260 -0.4526  0.7363
  995MOL0     C31233   3.365   3.801   9.921 -0.9909  0.3063 -0.9903
  995MOL0     C31234   3.312   3.828   9.797  0.6803 -0.4221  0.1075
  995MOL0     C31235   3.174   3.832   9.775  0.4649  0.3350 -0.6255
  995MOL0     C31236   3.082   3.805   9.881  0.3560 -0.7866 -0.6662
  995MOL0     C31237   2.933   3.819   9.866 -0.6018 -0.3078  0.5496
  995MOL0     O31238   2.849   3.796   9.971  0.2566 -0.6964  0.1495
  995MOL0     C31239   2.716   3.777   9.956  0.4502 -0.8976  1.1222
  995MOL0     C31240   2.637   3.808  10.071  0.1312 -0.0746 -0.0357
  995MOL0     C31241   2.497   3.788  10.071 -0.2391 -0.4366  0.2422
  995MOL0     C31242   2.430   3.732   9.960 -0.0745 -0.1282 -0.3524
  995MOL0     O31243   2.293   3.712   9.967 -0.0255  0.2459  0.1887
  995MOL0     C31244   2.230   3.642   9.862  0.0054 -0.4009 -0.5974
  995MOL0     C31245   2.082   3.625   9.892 -1.3266  0.6074 -0.1206
  995MOL0     C31246   2.044   3.612  10.038  0.4427  0.4779  0.6967
  995MOL0     C31247   1.896   3.583  10.042  0.0273 -0.1572  0.6910
  995MOL0     C31248   1.846   3.538  10.181 -0.4454 -0.4038  0.0011
  995MOL0     C31249   1.695   3.503  10.159 -0.2022 -0.2941  0.4092
  995MOL0     C31250   1.628   3.444  10.289  0.1348  0.1055 -0.1348
  995MOL0     C31251   1.528   3.540  10.360 -0.7625 -0.0034 -0.1973
  995MOL0    Cl31252   1.611   3.689  10.399  0.4907 -0.4256  0.0035
  995MOL0     C31253   2.507   3.703   9.849 -0.1587  0.8244 -0.4236
  995MOL0     C31254   2.646   3.716   9.848  0.5293  0.0274 -0.1346
  995MOL0     O31255   2.897   3.839   9.748 -0.3954 -0.3451 -0.4055
  995MOL0     C31256   3.141   3.773  10.005  0.8302  0.9245  0.2633
  995MOL0     C31257   3.278   3.754  10.023 -0.2169 -0.9370 -0.5225
  995MOL0     N31258   3.892   4.294   9.942  0.5377 -0.1369 -0.1051
  995MOL0     N31259   3.957   4.383   9.873  0.6530 -0.5768 -0.3004
  995MOL0     C31260   5.234   4.622   9.970 -0.0799 -0.1583 -0.5722
  995MOL0     C31261   5.363   4.656  10.021 -0.8135  0.1942  0.1061
  995MOL0     C31262   5.706   4.735  10.300 -0.1956  0.0766  0.7224
  995MOL0     C31263   5.823   4.659  10.318 -0.3205 -0.2607  0.4180
  995MOL0     C31264   5.923   4.695  10.403 -0.6092  0.3131  0.5094
  995MOL0     C31265   5.913   4.806  10.487  0.1828 -0.0888  0.4045
  995MOL0     O31266   6.021   4.842  10.562  0.2266  0.4445  0.0593
  995MOL0     C31267   5.999   4.932  10.672  0.0811  0.8264  0.5862
  995MOL0     C31268   6.129   4.922  10.749  0.8447 -0.0112 -0.0437
  995MOL0     C31269   6.232   5.004  10.673 -0.1701  0.0507  0.6048
  995MOL0     C31270   6.378   5.008  10.738  0.7992  0.2352  0.1368
  995MOL0     C31271   6.465   5.118  10.683 -0.9417  0.8840  0.3928
  995MOL0     C31272   6.538   5.207  10.636 -0.3320  0.0337 -0.2123
  995MOL0     C31273   5.799   4.885  10.473 -0.7494 -0.5120  0.0323
  995MOL0     C31274   5.704   4.856  10.377  0.7091  0.4350 -0.2308
  995MOL0     H31275   5.308   4.952  10.164 -2.5114 -0.2386  0.2194
  995MOL0     H31276   5.098   4.917  10.066 -0.3350 -0.4937  1.8946
  995MOL0     H31277   4.949   4.900   9.902 -1.6973  1.6206  4.0366
  995MOL0     H31278   4.894   4.796  10.028  1.8804  0.3101 -0.1478
  995MOL0     H31279   4.827   4.792   9.736  0.0350 -1.7494 -0.2590
  995MOL0     H31280   4.729   4.850   9.875  0.2648  1.0531  0.6059
  995MOL0     H31281   4.758   4.601   9.955  2.4922  1.4621  0.1343
  995MOL0     H31282   4.808   4.558   9.794 -2.9884  0.1589 -4.8175
  995MOL0     H31283   4.547   4.701   9.873 -0.4404  0.3076  0.4753
  995MOL0     H31284   4.605   4.689   9.704 -3.7066  1.6195 -0.3776
  995MOL0     H31285   4.550   4.465   9.914  3.8743  0.3434  0.8316
  995MOL0     H31286   4.577   4.415   9.752 -0.3808  0.4088 -0.7522
  995MOL0     H31287   4.393   4.541   9.662 -3.2056  0.5918 -0.1261
  995MOL0     H31288   4.355   4.590   9.826  1.8237  1.1654 -2.1189
  995MOL0     H31289   4.336   4.290   9.726 -0.9753  0.0774  1.3986
  995MOL0     H31290   4.307   4.349   9.889  6.0885 -0.9679  0.5424
  995MOL0     H31291   4.138   4.391   9.627 -0.8250  0.2486 -1.3470
  995MOL0     H31292   4.141   4.503   9.760 -1.2912  0.2658 -3.6480
  995MOL0     H31293   4.135   4.121   9.801 -1.4569 -2.8632  1.1974
  995MOL0     H31294   3.807   4.071  10.032 -2.4041 -1.4302 -1.2921
  995MOL0     H31295   3.966   3.988  10.026 -0.2264 -0.1213 -0.8900
  995MOL0     H31296   3.910   3.909   9.805 -1.5061 -0.9403 -0.0758
  995MOL0     H31297   3.772   4.034   9.808  3.1980  0.9166 -1.8190
  995MOL0     H31298   3.794   3.759   9.934  0.4468  0.4968  2.3279
  995MOL0     H31299   3.719   3.873  10.027 -1.7653  2.1336 -0.8906
  995MOL0     H31300   3.617   3.756   9.777  0.5096  1.1109 -1.0942
  995MOL0     H31301   3.564   3.923   9.808 -1.7240 -0.7075  0.6440
  995MOL0     H31302   3.370   3.837   9.705  0.9095 -1.7633  0.0862
  995MOL0     H31303   3.134   3.862   9.678 -1.6475 -2.8360 -0.8923
  995MOL0     H31304   2.698   3.851  10.150  2.6310 -1.1747 -1.2186
  995MOL0     H31305   2.430   3.819  10.151 -1.4103  1.2310 -1.2963
  995MOL0     H31306   2.266   3.540   9.847 -0.6773 -0.5706 -1.1947
  995MOL0     H31307   2.232   3.700   9.769 -1.4610  1.6458  0.5612
  995MOL0     H31308   2.049   3.531   9.847  0.3550 -0.2457  0.3376
  995MOL0     H31309   2.025   3.708   9.848 -2.4240 -0.3091 -0.4930
  995MOL0     H31310   2.075   3.689  10.109  2.1533 -1.6820  2.4239
  995MOL0     H31311   2.091   3.523  10.078  2.1862  0.8241 -0.4954
  995MOL0     H31312   1.849   3.678  10.014 -0.8440  0.3025  3.4688
  995MOL0     H31313   1.873   3.506   9.968  0.6185 -1.0334  1.4084
  995MOL0     H31314   1.855   3.616  10.257 -0.4661 -0.4750  0.0763
  995MOL0     H31315   1.902   3.456  10.227  0.2295 -0.0996 -0.2570
  995MOL0     H31316   1.676   3.437  10.074 -0.0043  0.4036 -0.1831
  995MOL0     H31317   1.640   3.595  10.138  0.3251 -0.1399 -0.3411
  995MOL0     H31318   1.571   3.357  10.253  1.5993 -1.4598  1.1498
  995MOL0     H31319   1.700   3.417  10.367 -0.8533  0.2838  0.8591
  995MOL0     H31320   1.492   3.489  10.450 -0.4456  0.8606  0.4328
  995MOL0     H31321   1.441   3.561  10.298 -0.5497  2.0688  0.1319
  995MOL0     H31322   2.466   3.668   9.755  2.5722 -0.9332 -1.0763
  995MOL0     H31323   2.693   3.678   9.758 -3.1522  0.7886 -2.6212
  995MOL0     H31324   3.072   3.749  10.086 -0.9195 -1.9410 -1.8701
  995MOL0     H31325   3.318   3.718  10.117 -0.9265  0.0689  0.1890
  995MOL0     H31326   5.237   4.534   9.905  0.7671  0.3962 -1.3060
  995MOL0     H31327   5.442   4.583  10.003 -0.9578  0.0296  0.1318
  995MOL0     H31328   5.838   4.566  10.266 -0.2917  0.0534 -0.1426
  995MOL0     H31329   6.011   4.632  10.398 -1.9565 -1.6737  0.7964
  995MOL0     H31330   5.913   4.905  10.734 -1.7010  0.7255 -1.7860
  995MOL0     H31331   5.979   5.027  10.622  0.6019  0.1241 -1.0330
  995MOL0     H31332   6.117   4.963  10.850  0.3458  0.0516 -0.1274
  995MOL0     H31333   6.159   4.818  10.763 -0.0781 -0.3644 -0.5927
  995MOL0     H31334   6.196   5.107  10.670 -4.5817 -1.2816  0.7404
  995MOL0     H31335   6.236   4.961  10.572  0.0998  1.4624 -0.0067
  995MOL0     H31336   6.355   5.023  10.844  0.8125  0.9857  0.0380
  995MOL0     H31337   6.434   4.915  10.724  1.2323  0.2941  1.3603
  995MOL0     H31338   6.608   5.283  10.608  1.0535  0.2997  3.4087
  995MOL0     H31339   5.787   4.982  10.520 -2.4987  0.1002 -1.5778
  995MOL0     H31340   5.632   4.932  10.348  0.0612  0.4530  1.3042
  996MOL0     O31341   9.130   0.708   6.095 -0.0698  0.2888 -0.3511
  996MOL0     C31342   9.055   0.618   6.076 -0.2098  0.2315  0.4144
  996MOL0     O31343   8.931   0.600   6.127  0.0568 -0.2269 -0.0409
  996MOL0     C31344   8.857   0.696   6.185  1.1186  0.1847 -0.2110
  996MOL0     C31345   8.854   0.720   6.324 -0.0610  0.6086  0.5558
  996MOL0     C31346   8.765   0.810   6.373 -0.3391  0.3879 -0.8064
  996MOL0     C31347   8.674   0.877   6.301 -0.3480  0.6198 -0.2854
  996MOL0     O31348   8.598   0.961   6.366 -0.4885 -0.6636 -0.6606
  996MOL0     C31349   8.456   0.972   6.338 -0.1432 -0.9215 -0.4628
  996MOL0     C31350   8.369   0.929   6.461  0.0309 -0.1528 -0.3344
  996MOL0     C31351   8.218   0.955   6.435  0.0738  0.4268  0.2786
  996MOL0     C31352   8.139   0.859   6.514 -0.2897  0.4440  0.3109
  996MOL0     C31353   7.992   0.881   6.484  0.3602  0.1085  0.0064
  996MOL0     C31354   7.915   0.802   6.589 -0.6864  0.2246 -1.0785
  996MOL0     C31355   7.767   0.835   6.609 -1.0893 -0.4993  0.7685
  996MOL0     C31356   7.670   0.729   6.672  1.0330  0.1886 -0.7228
  996MOL0     N31357   7.525   0.766   6.666 -0.6029  0.0147 -0.3826
  996MOL0     C31358   7.454   0.766   6.547  0.0200  0.4005  0.1138
  996MOL0     C31359   7.333   0.824   6.578 -0.1710 -0.3710 -0.0947
  996MOL0     C31360   7.237   0.842   6.475  0.0702 -0.2585 -0.0832
  996MOL0     C31361   7.083   0.857   6.507  0.0025  0.7054 -0.0579
  996MOL0     C31362   7.051   0.964   6.611 -0.1448 -0.7038  0.4332
  996MOL0     C31363   6.898   0.978   6.634  0.3901  0.6190 -0.6143
  996MOL0     O31364   6.848   1.082   6.553 -0.3142  0.1324  0.3982
  996MOL0     C31365   6.724   1.131   6.586  0.3474 -0.7575 -0.5267
  996MOL0     C31366   6.632   1.073   6.678  0.1380 -0.5032  0.1575
  996MOL0     C31367   6.511   1.129   6.708  0.9996 -0.0707  0.1536
  996MOL0     C31368   6.478   1.247   6.649 -0.0172  0.2050 -0.3617
  996MOL0     C31369   6.345   1.322   6.682  0.4521  0.7898  0.0318
  996MOL0     O31370   6.245   1.256   6.755 -0.2736  0.5737  0.3512
  996MOL0     C31371   6.123   1.317   6.754  0.0717 -0.3113 -0.5709
  996MOL0     C31372   6.057   1.378   6.638 -0.3715 -0.2898 -0.1366
  996MOL0     C31373   5.916   1.415   6.625  0.3828 -0.8514  0.0262
  996MOL0     C31374   5.840   1.397   6.742  0.2647  0.4291  0.8655
  996MOL0     O31375   5.701   1.424   6.755 -0.5060  0.3081 -0.4981
  996MOL0     C31376   5.638   1.528   6.677  1.1992 -0.3202  0.1687
  996MOL0     C31377   5.498   1.554   6.728  0.3425 -0.4170  0.5398
  996MOL0     C31378   5.447   1.692   6.697  1.0320  0.1987  0.6212
  996MOL0     C31379   5.299   1.698   6.755  0.7386  0.2352  0.3275
  996MOL0     C31380   5.231   1.830   6.705 -0.1240  0.6522 -0.1496
  996MOL0     C31381   5.081   1.850   6.737 -0.6378  0.3393  0.3686
  996MOL0     C31382   5.028   1.985   6.692  0.8408  0.0819 -0.6049
  996MOL0     C31383   5.082   2.111   6.761 -0.1138  0.7620 -0.0665
  996MOL0    Cl31384   5.011   2.124   6.919  0.5293  0.2422  0.3041
  996MOL0     C31385   5.903   1.347   6.856  0.3844  1.3135  0.4507
  996MOL0     C31386   6.039   1.312   6.865  0.2665 -0.2069 -0.1509
  996MOL0     O31387   6.353   1.444   6.667 -0.1211  0.3767 -0.6953
  996MOL0     C31388   6.561   1.301   6.548  0.5461  0.3191  0.1192
  996MOL0     C31389   6.686   1.247   6.519 -0.2176  0.5258 -0.5886
  996MOL0     N31390   7.339   0.862   6.709 -0.2994 -0.3980  0.7874
  996MOL0     N31391   7.445   0.812   6.763 -0.5778  0.1092  0.2838
  996MOL0     C31392   8.680   0.856   6.158 -0.0940 -0.2155  0.0989
  996MOL0     C31393   8.765   0.763   6.108 -0.6061  0.0055  0.7492
  996MOL0     C31394   9.104   0.501   5.993 -0.4693 -0.2653  0.0020
  996MOL0     C31395   9.230   0.502   5.931 -0.2987 -0.6912  0.5158
  996MOL0     C31396   9.283   0.389   5.866  0.8672  0.2047 -0.1821
  996MOL0     C31397   9.203   0.281   5.830  0.6466 -0.3093 -0.3973
  996MOL0     O31398   9.242   0.165   5.763  0.2475 -0.1260 -0.2134
  996MOL0     C31399   9.366   0.178   5.700  0.2235 -0.2835  0.0220
  996MOL0     C31400   9.390   0.076   5.588  0.2357 -0.5687  0.4153
  996MOL0     C31401   9.428  -0.061   5.623 -0.2426 -0.0069 -0.2030
  996MOL0     C31402   9.320  -0.139   5.699  0.7710 -0.7529  0.4348
  996MOL0     C31403   9.207  -0.175   5.615  0.6711 -0.7912  0.2716
  996MOL0     C31404   9.116  -0.198   5.534 -0.6936  0.3628 -0.0364
  996MOL0     C31405   9.071   0.281   5.880  0.4843  0.8322 -0.4230
  996MOL0     C31406   9.020   0.388   5.966  0.3566 -0.6309  0.6188
  996MOL0     H31407   8.934   0.672   6.378  0.8207  0.3650 -0.9221
  996MOL0     H31408   8.769   0.831   6.480  2.0506  2.5643 -1.2335
  996MOL0     H31409   8.425   0.925   6.245 -1.0185 -0.2935 -0.5061
  996MOL0     H31410   8.436   1.075   6.308 -3.2332 -1.7910 -1.7549
  996MOL0     H31411   8.392   0.983   6.553  2.6587 -0.6904 -0.6131
  996MOL0     H31412   8.399   0.824   6.476 -0.5020 -0.1826  0.6107
  996MOL0     H31413   8.192   0.943   6.329  1.5705 -3.4467  0.1858
  996MOL0     H31414   8.190   1.060   6.453  2.3945  1.6400 -2.4323
  996MOL0     H31415   8.166   0.757   6.486 -0.4971  0.3611  0.4090
  996MOL0     H31416   8.164   0.887   6.617 -2.0104  2.5570  0.2334
  996MOL0     H31417   7.969   0.852   6.381  1.3015  0.7392 -0.3912
  996MOL0     H31418   7.961   0.985   6.497 -3.4581 -0.5313 -2.2681
  996MOL0     H31419   7.965   0.829   6.683  0.6767 -1.9719 -1.1258
  996MOL0     H31420   7.930   0.694   6.578 -2.4394 -0.3211  1.0370
  996MOL0     H31421   7.747   0.925   6.667  0.4650 -0.7584  1.7731
  996MOL0     H31422   7.733   0.845   6.506 -0.5147  0.4607  0.6641
  996MOL0     H31423   7.700   0.711   6.776 -1.3721 -2.9640 -0.4462
  996MOL0     H31424   7.676   0.632   6.622 -2.2571 -0.4861 -0.0138
  996MOL0     H31425   7.488   0.718   6.456 -2.5873 -0.3031 -0.5780
  996MOL0     H31426   7.236   0.748   6.420 -1.3740  0.7254 -1.8370
  996MOL0     H31427   7.266   0.922   6.406 -0.5390 -0.6456 -0.8036
  996MOL0     H31428   7.066   0.761   6.556  3.2416 -0.0161 -0.0990
  996MOL0     H31429   7.018   0.856   6.419 -0.3461 -1.8336  0.1539
  996MOL0     H31430   7.100   0.936   6.705 -2.2178 -0.3184  1.6927
  996MOL0     H31431   7.095   1.061   6.585 -0.2111 -1.1766 -1.6225
  996MOL0     H31432   6.882   1.015   6.736 -0.4940  0.0815 -0.5447
  996MOL0     H31433   6.841   0.885   6.624 -1.2284  0.9670  3.2507
  996MOL0     H31434   6.663   0.984   6.732  5.2216  1.0134  0.3362
  996MOL0     H31435   6.435   1.074   6.764  2.7197  0.4218  3.1218
  996MOL0     H31436   6.112   1.390   6.545 -1.2302  1.3523 -0.4673
  996MOL0     H31437   5.872   1.449   6.532  2.5431  0.9545 -0.4209
  996MOL0     H31438   5.642   1.493   6.573 -0.6379 -0.8297  0.2217
  996MOL0     H31439   5.702   1.614   6.692  0.6272 -0.1135  1.5879
  996MOL0     H31440   5.507   1.533   6.835  1.4307  0.9298  0.7382
  996MOL0     H31441   5.436   1.474   6.688  0.9082 -0.5308 -0.1368
  996MOL0     H31442   5.443   1.718   6.591  1.0197  3.4126  1.2990
  996MOL0     H31443   5.518   1.757   6.748  0.3030 -1.9332  4.8153
  996MOL0     H31444   5.240   1.616   6.711  0.8576  0.7500 -0.8347
  996MOL0     H31445   5.301   1.692   6.864 -1.9583 -1.9789  0.3714
  996MOL0     H31446   5.237   1.841   6.597 -1.5015 -0.6746 -0.4002
  996MOL0     H31447   5.279   1.918   6.749 -2.9092  2.0556  0.3167
  996MOL0     H31448   5.060   1.843   6.845 -0.5955 -1.3734  0.2934
  996MOL0     H31449   5.030   1.773   6.679  2.6837 -1.7764  0.0192
  996MOL0     H31450   5.055   1.995   6.587  2.2778  2.1380 -0.1208
  996MOL0     H31451   4.919   1.992   6.697  0.9683  4.1737  1.1969
  996MOL0     H31452   5.053   2.193   6.695 -1.6834 -1.7535 -2.7790
  996MOL0     H31453   5.190   2.125   6.775 -0.6688  4.7902  1.4736
  996MOL0     H31454   5.842   1.349   6.946  0.4522  2.0875  0.4900
  996MOL0     H31455   6.074   1.285   6.964 -3.3343  0.0530  1.3616
  996MOL0     H31456   6.518   1.378   6.485 -0.9138 -1.9269 -1.8088
  996MOL0     H31457   6.754   1.299   6.452 -0.8167 -0.1131 -1.7235
  996MOL0     H31458   8.606   0.895   6.089 -1.5315  0.6331  2.0291
  996MOL0     H31459   8.772   0.746   6.001  1.4196  0.2035  0.8105
  996MOL0     H31460   9.294   0.589   5.941  0.6809 -1.5953  2.8893
  996MOL0     H31461   9.388   0.392   5.837  1.1043  0.2156  0.6512
  996MOL0     H31462   9.441   0.175   5.780  0.2597 -0.5191 -0.0188
  996MOL0     H31463   9.369   0.280   5.662  0.2941  1.3054  3.8561
  996MOL0     H31464   9.301   0.079   5.524  2.0920  0.1907 -2.2821
  996MOL0     H31465   9.468   0.129   5.534 -2.3391  3.4239  0.2016
  996MOL0     H31466   9.521  -0.063   5.679 -1.3888  0.7075  1.8201
  996MOL0     H31467   9.449  -0.128   5.539 -1.0128 -1.8729  1.0263
  996MOL0     H31468   9.356  -0.232   5.744 -2.3977 -1.9632  0.7027
  996MOL0     H31469   9.268  -0.076   5.772 -0.0600 -2.9842  1.8795
  996MOL0     H31470   9.041  -0.226   5.463  0.6161  0.1218 -1.3820
  996MOL0     H31471   9.024   0.189   5.849 -0.4754  1.5737 -1.2165
  996MOL0     H31472   8.917   0.381   6.001  0.6658 -1.7957  1.3468
  997MOL0     O31473   0.144   1.619   3.404 -0.6123 -0.3600 -0.0916
  997MOL0     C31474   0.122   1.530   3.487  0.3354 -0.1342 -0.2321
  997MOL0     O31475   0.205   1.502   3.598 -0.4578 -0.3107  0.3481
  997MOL0     C31476   0.320   1.581   3.625  0.4901  0.3268 -0.5719
  997MOL0     C31477   0.347   1.598   3.754  0.5830 -0.4503 -0.4498
  997MOL0     C31478   0.450   1.680   3.799  0.7536 -0.0014  0.0334
  997MOL0     C31479   0.529   1.744   3.699  0.2135  0.3841 -0.3478
  997MOL0     O31480   0.631   1.814   3.752  0.0932 -0.4924 -0.7539
  997MOL0     C31481   0.707   1.899   3.675  0.2516  0.0240  0.4137
  997MOL0     C31482   0.833   1.956   3.741 -0.3264  0.3535  0.1927
  997MOL0     C31483   0.799   2.023   3.873  0.6840 -0.7392 -0.1528
  997MOL0     C31484   0.699   2.147   3.850 -0.6962  0.6989 -0.0870
  997MOL0     C31485   0.686   2.229   3.973 -0.0667  0.6249  0.1777
  997MOL0     C31486   0.582   2.339   3.954 -1.0085  1.2441  0.1633
  997MOL0     C31487   0.445   2.274   3.935 -0.3521 -0.5161 -0.3970
  997MOL0     C31488   0.348   2.389   3.922 -0.3631  0.1443 -0.3799
  997MOL0     N31489   0.209   2.349   3.920 -0.3646  0.1704 -0.3062
  997MOL0     C31490   0.106   2.432   3.875 -0.3640  0.1274 -0.0856
  997MOL0     C31491  -0.010   2.369   3.918 -0.0175 -0.4127  0.0304
  997MOL0     C31492  -0.149   2.418   3.872 -0.0071  0.9526  0.1573
  997MOL0     C31493  -0.209   2.350   3.748 -0.3397  0.0075 -0.5827
  997MOL0     C31494  -0.240   2.203   3.779  0.6269  0.4284 -0.0937
  997MOL0     C31495  -0.322   2.191   3.915  0.1334 -0.2274  0.0804
  997MOL0     O31496  -0.443   2.261   3.910  0.3213 -0.8225  0.0446
  997MOL0     C31497  -0.543   2.228   3.820 -0.4971 -0.3323  1.0525
  997MOL0     C31498  -0.620   2.339   3.780  0.4591 -0.6178 -0.0001
  997MOL0     C31499  -0.735   2.331   3.702 -0.3756 -0.8348 -0.3409
  997MOL0     C31500  -0.778   2.210   3.657  0.0276 -0.4195  0.3530
  997MOL0     C31501  -0.896   2.201   3.567 -0.0551  0.5202 -0.0247
  997MOL0     O31502  -0.945   2.313   3.514 -0.3149  0.0999  0.2935
  997MOL0     C31503  -1.046   2.313   3.429  0.5777 -0.2938 -0.1188
  997MOL0     C31504  -1.180   2.316   3.478 -0.1245  0.6094  0.3411
  997MOL0     C31505  -1.290   2.300   3.389 -0.4319  0.4568  0.2399
  997MOL0     C31506  -1.274   2.288   3.251 -0.7593  0.2943 -0.6415
  997MOL0     O31507  -1.382   2.272   3.167  0.3907  0.9005 -0.1122
  997MOL0     C31508  -1.521   2.289   3.211 -0.1823  0.2467 -0.5726
  997MOL0     C31509  -1.607   2.286   3.087  0.4546 -0.1536  1.1618
  997MOL0     C31510  -1.752   2.260   3.119  0.0438 -0.5587 -0.2248
  997MOL0     C31511  -1.842   2.298   2.996  0.4262 -0.1571 -0.7013
  997MOL0     C31512  -1.987   2.269   3.034  0.4795  0.2944  0.0986
  997MOL0     C31513  -2.079   2.258   2.908 -1.5330  0.1744 -0.0730
  997MOL0     C31514  -2.228   2.253   2.947 -0.0961  0.5579  0.8437
  997MOL0     C31515  -2.282   2.388   2.989 -1.0639  0.6655 -0.7593
  997MOL0    Cl31516  -2.460   2.382   3.027 -0.8174 -0.1003 -0.0699
  997MOL0     C31517  -1.150   2.311   3.201 -0.0996  0.0414 -0.2053
  997MOL0     C31518  -1.037   2.324   3.289  0.6380  0.6749 -0.2269
  997MOL0     O31519  -0.945   2.087   3.553 -0.0287  0.3890  0.3017
  997MOL0     C31520  -0.706   2.089   3.699 -0.2929 -0.0550 -0.3305
  997MOL0     C31521  -0.588   2.101   3.782  0.1067  0.8813  1.0018
  997MOL0     N31522   0.021   2.263   3.992  0.0523 -0.2997 -0.1068
  997MOL0     N31523   0.151   2.240   3.994  0.1808  0.6386 -0.9901
  997MOL0     C31524   0.506   1.726   3.561 -0.3590 -0.0446 -0.9995
  997MOL0     C31525   0.404   1.641   3.525 -0.6153 -0.4028 -0.1785
  997MOL0     C31526  -0.006   1.471   3.487  0.5225 -0.1120 -0.1350
  997MOL0     C31527  -0.055   1.416   3.609  0.6514 -0.8805 -0.2456
  997MOL0     C31528  -0.181   1.357   3.611  0.1458 -0.3194  0.1810
  997MOL0     C31529  -0.271   1.370   3.506  0.6516 -0.1157 -0.9108
  997MOL0     O31530  -0.401   1.331   3.497 -0.5410 -0.0738 -0.3850
  997MOL0     C31531  -0.466   1.275   3.615  0.2085  0.2567  0.6887
  997MOL0     C31532  -0.612   1.314   3.602 -0.0859 -0.1238 -0.4509
  997MOL0     C31533  -0.667   1.314   3.461 -0.0716 -0.0307 -0.1413
  997MOL0     C31534  -0.816   1.327   3.462 -0.6095  0.0537 -0.1144
  997MOL0     C31535  -0.885   1.199   3.459 -0.6472 -0.3254  0.0830
  997MOL0     C31536  -0.941   1.093   3.466  0.0407  0.9820 -0.6806
  997MOL0     C31537  -0.218   1.418   3.383  0.1967 -0.1543 -0.4544
  997MOL0     C31538  -0.091   1.476   3.374 -0.3307  0.1115  0.2853
  997MOL0     H31539   0.289   1.554   3.834 -0.1826  1.5451  0.1565
  997MOL0     H31540   0.452   1.684   3.907  1.3771  0.3645  0.0138
  997MOL0     H31541   0.647   1.988   3.655 -1.1258 -0.8616  0.4934
  997MOL0     H31542   0.737   1.855   3.579 -2.7266  0.8113 -0.9784
  997MOL0     H31543   0.891   2.027   3.681  0.8602  1.3814  2.4027
  997MOL0     H31544   0.902   1.874   3.764 -0.7457  0.1937  0.9236
  997MOL0     H31545   0.888   2.059   3.925  0.6218 -1.6639  0.6309
  997MOL0     H31546   0.752   1.955   3.945 -0.4951  2.4012  2.2603
  997MOL0     H31547   0.734   2.208   3.766  0.5360 -1.6158 -1.3502
  997MOL0     H31548   0.604   2.113   3.809 -0.9924 -0.4250  1.4599
  997MOL0     H31549   0.775   2.290   3.986  0.9095 -0.6280 -0.4591
  997MOL0     H31550   0.675   2.155   4.053  1.5822 -0.7395 -0.7818
  997MOL0     H31551   0.599   2.409   3.871  0.4406 -0.7037 -1.2893
  997MOL0     H31552   0.591   2.398   4.046  1.3012  0.2201  0.6695
  997MOL0     H31553   0.456   2.233   3.834 -1.0890  1.4789 -1.3354
  997MOL0     H31554   0.427   2.211   4.022  2.0901  0.1667  0.7005
  997MOL0     H31555   0.372   2.448   3.833 -0.3739 -0.2409 -0.6364
  997MOL0     H31556   0.355   2.455   4.009 -0.8027  0.0868 -0.2977
  997MOL0     H31557   0.121   2.523   3.819 -0.0212 -0.3757 -0.8266
  997MOL0     H31558  -0.128   2.519   3.835  3.5159  0.6091  0.9121
  997MOL0     H31559  -0.217   2.425   3.957 -0.4117  0.1706 -0.0968
  997MOL0     H31560  -0.135   2.347   3.667  0.8612 -1.4579  0.5163
  997MOL0     H31561  -0.304   2.397   3.721 -0.7573  0.2850  1.2412
  997MOL0     H31562  -0.302   2.163   3.699 -0.5285  2.7442 -0.4280
  997MOL0     H31563  -0.146   2.151   3.801  0.0488 -1.0128 -0.8381
  997MOL0     H31564  -0.266   2.208   4.007 -0.0274 -1.2604  0.3859
  997MOL0     H31565  -0.350   2.085   3.921 -0.7136  0.0255  1.0613
  997MOL0     H31566  -0.582   2.432   3.819  0.0090  0.3262 -1.7053
  997MOL0     H31567  -0.786   2.424   3.678  2.5832  1.2220  0.8500
  997MOL0     H31568  -1.188   2.319   3.587 -0.1089 -0.5773  0.3857
  997MOL0     H31569  -1.387   2.290   3.436 -0.4688 -2.3015 -0.2606
  997MOL0     H31570  -1.516   2.387   3.260 -1.6374 -0.1063  0.3517
  997MOL0     H31571  -1.557   2.217   3.285 -0.3023  0.2691 -0.6102
  997MOL0     H31572  -1.565   2.222   3.009 -0.9196  0.5706 -0.2357
  997MOL0     H31573  -1.589   2.386   3.046  3.9814 -0.8922  0.5962
  997MOL0     H31574  -1.777   2.333   3.197  2.0162  1.7446 -1.6119
  997MOL0     H31575  -1.759   2.161   3.165 -0.2008 -0.2426  0.4421
  997MOL0     H31576  -1.836   2.407   2.993  1.1943 -0.0790  1.6346
  997MOL0     H31577  -1.813   2.263   2.897  2.1489 -3.2074  0.7520
  997MOL0     H31578  -2.029   2.343   3.103 -2.6945  0.1321 -1.4808
  997MOL0     H31579  -1.994   2.172   3.084 -1.5455  1.5567  2.4551
  997MOL0     H31580  -2.047   2.171   2.850  1.7441  1.4308 -0.3506
  997MOL0     H31581  -2.052   2.338   2.838  3.6698 -0.5830  0.6330
  997MOL0     H31582  -2.288   2.233   2.858  1.4749  2.8694 -0.8591
  997MOL0     H31583  -2.252   2.179   3.024 -1.0839  0.9968  0.9709
  997MOL0     H31584  -2.262   2.459   2.908 -1.3664  2.8357  0.9528
  997MOL0     H31585  -2.233   2.431   3.077  0.7378 -0.4163 -1.1795
  997MOL0     H31586  -1.129   2.309   3.094  3.3878 -0.8958  0.3709
  997MOL0     H31587  -0.939   2.322   3.243  0.5726  1.8017 -0.4219
  997MOL0     H31588  -0.733   1.994   3.654 -1.5891 -1.2926  2.7252
  997MOL0     H31589  -0.545   2.010   3.821 -1.9921 -0.7732 -0.2997
  997MOL0     H31590   0.576   1.765   3.489  0.2089 -1.5942 -1.3321
  997MOL0     H31591   0.382   1.622   3.420 -0.4992 -5.1486  0.4024
  997MOL0     H31592   0.009   1.413   3.696 -0.4696 -1.9108  0.5736
  997MOL0     H31593  -0.210   1.309   3.704 -0.4311  2.4537  1.5508
  997MOL0     H31594  -0.427   1.330   3.702 -1.1012 -0.7714  1.9737
  997MOL0     H31595  -0.448   1.167   3.615 -0.3940  0.1485 -0.4417
  997MOL0     H31596  -0.670   1.247   3.666 -1.0142  3.4937  2.9149
  997MOL0     H31597  -0.619   1.413   3.649 -2.0677 -0.5496  0.2569
  997MOL0     H31598  -0.633   1.220   3.416  1.3443 -0.2088  1.1755
  997MOL0     H31599  -0.619   1.399   3.413  0.6913  1.3156  2.7575
  997MOL0     H31600  -0.856   1.384   3.546 -0.3532 -2.6286  1.9559
  997MOL0     H31601  -0.849   1.380   3.372 -1.0114  0.9544  0.5443
  997MOL0     H31602  -0.975   0.992   3.461 -0.0311  1.0112 -0.7868
  997MOL0     H31603  -0.285   1.419   3.298 -0.3556  2.4673 -0.0999
  997MOL0     H31604  -0.065   1.524   3.280  1.1012 -0.9600  0.1046
  998MOL0     O31605   4.755   0.714   5.031 -0.4134  0.0283 -0.3728
  998MOL0     C31606   4.803   0.784   4.945 -1.6588 -1.0363 -0.2310
  998MOL0     O31607   4.748   0.870   4.864 -0.9608  0.5370 -0.2622
  998MOL0     C31608   4.614   0.897   4.877 -0.6591  0.0736 -0.0333
  998MOL0     C31609   4.568   1.024   4.920  0.2800 -0.0110 -0.3108
  998MOL0     C31610   4.430   1.047   4.917 -0.4259 -0.6523 -0.8892
  998MOL0     C31611   4.331   0.953   4.903 -0.2537  0.5508 -0.2566
  998MOL0     O31612   4.199   0.987   4.895  0.0463 -0.3293 -0.4573
  998MOL0     C31613   4.092   0.890   4.909  0.1759  0.5337  0.5262
  998MOL0     C31614   3.966   0.961   4.855  0.3527  0.5158  0.3535
  998MOL0     C31615   3.836   0.885   4.891 -0.3226  0.4588  0.2109
  998MOL0     C31616   3.715   0.962   4.882  0.3449 -0.2592  0.2891
  998MOL0     C31617   3.578   0.884   4.890 -0.5240 -1.0189  0.0273
  998MOL0     C31618   3.572   0.805   5.020  0.2837  0.7268 -0.5089
  998MOL0     C31619   3.430   0.761   5.059 -0.4450 -0.1492 -0.6394
  998MOL0     C31620   3.435   0.688   5.194 -0.2120  0.2082  0.2350
  998MOL0     N31621   3.301   0.641   5.223  0.6085  0.7353  0.7445
  998MOL0     C31622   3.191   0.639   5.144  0.1815  0.3710 -0.1070
  998MOL0     C31623   3.101   0.560   5.200 -0.4708 -0.2044  0.6746
  998MOL0     C31624   2.961   0.542   5.151 -0.5688 -0.2438  0.4915
  998MOL0     C31625   2.898   0.665   5.102  0.0308 -0.1760  0.0327
  998MOL0     C31626   2.754   0.638   5.051  0.1563  1.3600 -0.1721
  998MOL0     C31627   2.674   0.756   4.981 -0.4921 -1.6292 -0.5181
  998MOL0     O31628   2.628   0.854   5.086 -0.2071 -0.2408 -0.7485
  998MOL0     C31629   2.529   0.814   5.161  1.1089  0.2163 -0.3095
  998MOL0     C31630   2.551   0.801   5.297  0.3172  0.5128 -0.5930
  998MOL0     C31631   2.459   0.739   5.381  0.4622 -0.0497 -0.4147
  998MOL0     C31632   2.334   0.693   5.327  0.4357 -0.0230  0.3263
  998MOL0     C31633   2.244   0.606   5.408 -0.2234  0.1356  0.8131
  998MOL0     O31634   2.131   0.553   5.338  0.1266  0.7532 -0.2207
  998MOL0     C31635   2.018   0.496   5.400 -0.4147  0.9993 -0.2617
  998MOL0     C31636   1.986   0.492   5.536 -0.1521  0.0577 -0.6675
  998MOL0     C31637   1.859   0.432   5.580 -0.2441 -0.1018  1.1877
  998MOL0     C31638   1.779   0.366   5.482 -0.0919  0.2597  0.5120
  998MOL0     O31639   1.653   0.313   5.492  0.1703  0.4532 -0.0407
  998MOL0     C31640   1.601   0.322   5.624  0.1455 -0.0901  0.3319
  998MOL0     C31641   1.448   0.284   5.625  0.4926 -0.2455  0.4875
  998MOL0     C31642   1.387   0.330   5.756  0.0596 -0.2824 -0.6263
  998MOL0     C31643   1.242   0.300   5.747 -0.2327 -0.2658 -1.2988
  998MOL0     C31644   1.175   0.350   5.874 -0.4477 -0.1240  0.1118
  998MOL0     C31645   1.020   0.368   5.850  0.3072  0.1584  0.2706
  998MOL0     C31646   0.934   0.258   5.915  0.2926 -0.4188 -0.1542
  998MOL0     C31647   0.824   0.196   5.827  0.4310 -0.0715  0.1665
  998MOL0    Cl31648   0.702   0.093   5.927  0.2450  0.1236 -0.1815
  998MOL0     C31649   1.819   0.373   5.347 -0.1072  0.4745 -0.3520
  998MOL0     C31650   1.935   0.439   5.307  0.0501  0.5684 -1.1545
  998MOL0     O31651   2.282   0.575   5.516 -0.5757  0.0786 -0.9537
  998MOL0     C31652   2.308   0.713   5.193  0.0790  0.1588 -0.7367
  998MOL0     C31653   2.405   0.770   5.112 -0.0323  0.7402 -0.2317
  998MOL0     N31654   3.153   0.533   5.330  0.3183  0.2623  0.5964
  998MOL0     N31655   3.274   0.579   5.343 -0.0250  0.2958  0.4876
  998MOL0     C31656   4.380   0.823   4.873 -0.3483  0.4037  0.0986
  998MOL0     C31657   4.518   0.801   4.853  0.9113  0.8805 -0.0129
  998MOL0     C31658   4.947   0.763   4.926 -0.2278  0.1235 -0.0917
  998MOL0     C31659   5.026   0.846   4.841 -0.6904 -0.0051  0.7596
  998MOL0     C31660   5.161   0.833   4.837 -0.1214  0.6013  0.1075
  998MOL0     C31661   5.228   0.736   4.905  0.7094  0.9823 -0.4751
  998MOL0     O31662   5.364   0.732   4.903 -0.0278  0.1110 -0.1442
  998MOL0     C31663   5.414   0.611   4.847  0.3515 -0.0772 -0.4728
  998MOL0     C31664   5.522   0.556   4.935 -0.2351  0.3703  0.5028
  998MOL0     C31665   5.621   0.455   4.863  0.5401 -0.3240 -0.4122
  998MOL0     C31666   5.553   0.321   4.841  0.2838 -0.7299  0.3218
  998MOL0     C31667   5.643   0.208   4.819 -1.1935 -0.1072  0.0322
  998MOL0     C31668   5.725   0.114   4.799 -0.3019  0.0992  0.4517
  998MOL0     C31669   5.163   0.654   4.989 -0.0780 -0.6447  0.7637
  998MOL0     C31670   5.023   0.667   5.005 -0.2192  0.2608 -0.4858
  998MOL0     H31671   4.628   1.112   4.939  2.6559 -0.8985 -2.9123
  998MOL0     H31672   4.398   1.150   4.929  3.0943  0.6964 -1.7851
  998MOL0     H31673   4.075   0.846   5.008 -1.1659 -0.6514 -0.1853
  998MOL0     H31674   4.116   0.805   4.845  0.2640  1.1661 -0.2901
  998MOL0     H31675   3.969   0.966   4.746 -1.1332 -2.4435  0.0800
  998MOL0     H31676   3.964   1.064   4.892 -0.1922  0.5874  0.1385
  998MOL0     H31677   3.847   0.846   4.993  1.7211  0.3124 -0.0285
  998MOL0     H31678   3.833   0.804   4.818 -1.9521  1.6423 -1.1206
  998MOL0     H31679   3.725   1.044   4.953  0.6271  0.2150 -0.2966
  998MOL0     H31680   3.719   1.004   4.781  2.3314 -3.3137 -1.0835
  998MOL0     H31681   3.568   0.820   4.802  0.5190 -1.1288 -0.0288
  998MOL0     H31682   3.497   0.958   4.893 -3.1030 -3.6803  2.7388
  998MOL0     H31683   3.614   0.857   5.106  2.0140 -0.4563 -0.5869
  998MOL0     H31684   3.629   0.713   5.002 -0.5635 -0.3000  1.7204
  998MOL0     H31685   3.360   0.844   5.054  0.8516  1.1175  1.0763
  998MOL0     H31686   3.397   0.690   4.982  2.2934 -1.0415 -1.0797
  998MOL0     H31687   3.463   0.755   5.276  0.0897 -0.6933  0.8933
  998MOL0     H31688   3.504   0.603   5.191  2.9025  2.5706 -1.1893
  998MOL0     H31689   3.178   0.685   5.047  2.2252  1.7122  0.1978
  998MOL0     H31690   2.891   0.503   5.226 -0.5833 -0.7792  0.2076
  998MOL0     H31691   2.974   0.472   5.067 -0.4235  1.9141 -1.3796
  998MOL0     H31692   2.969   0.708   5.031  1.1079 -1.4458  0.2835
  998MOL0     H31693   2.889   0.729   5.191  0.7861 -0.3198  0.2232
  998MOL0     H31694   2.759   0.554   4.981  0.7091 -0.7968  2.3371
  998MOL0     H31695   2.703   0.586   5.132  1.2505  0.1962 -0.1947
  998MOL0     H31696   2.592   0.717   4.920 -1.1276  0.5141 -1.1056
  998MOL0     H31697   2.725   0.825   4.914 -0.5784  0.7714  1.7281
  998MOL0     H31698   2.647   0.827   5.341  0.4273  1.9563 -1.6337
  998MOL0     H31699   2.488   0.730   5.485  1.0667  1.8750 -0.3922
  998MOL0     H31700   2.056   0.537   5.605 -1.9674  1.4125  0.3936
  998MOL0     H31701   1.828   0.447   5.683 -2.5990 -0.3009  0.5530
  998MOL0     H31702   1.607   0.426   5.657  0.3233 -0.0472  0.1701
  998MOL0     H31703   1.664   0.267   5.695  1.4860  3.8406  2.5146
  998MOL0     H31704   1.440   0.175   5.618  3.0288 -0.3921 -1.8223
  998MOL0     H31705   1.399   0.317   5.533  2.4472  1.6836  0.0356
  998MOL0     H31706   1.400   0.436   5.778  0.4174 -0.2334 -1.0566
  998MOL0     H31707   1.440   0.278   5.836  3.6450  2.1049 -1.2393
  998MOL0     H31708   1.201   0.344   5.656 -0.2413  0.5805 -0.8960
  998MOL0     H31709   1.229   0.191   5.746  0.6437 -0.4233 -3.9237
  998MOL0     H31710   1.197   0.457   5.877 -3.3716  0.6326 -1.2046
  998MOL0     H31711   1.200   0.297   5.966  0.3653  1.1515  0.6544
  998MOL0     H31712   0.993   0.374   5.744  0.1588 -3.2001  0.0227
  998MOL0     H31713   0.990   0.469   5.880 -0.2350  0.8616 -2.3432
  998MOL0     H31714   1.006   0.180   5.943  0.8997  0.4344  0.7282
  998MOL0     H31715   0.864   0.297   5.990 -1.2991  1.6755 -2.5893
  998MOL0     H31716   0.870   0.130   5.754  2.5259  1.5294 -0.0569
  998MOL0     H31717   0.766   0.274   5.776 -0.8810 -1.8044 -1.0910
  998MOL0     H31718   1.757   0.330   5.269  0.5491 -1.3536  0.0912
  998MOL0     H31719   1.950   0.438   5.199 -0.6740 -1.8713 -1.3068
  998MOL0     H31720   2.218   0.682   5.141 -0.0837  1.5262 -1.3293
  998MOL0     H31721   2.396   0.772   5.004  0.3268 -3.9891 -0.5531
  998MOL0     H31722   4.320   0.733   4.859 -0.3465  0.4624 -0.2836
  998MOL0     H31723   4.545   0.708   4.805 -1.1875 -1.3033  2.6871
  998MOL0     H31724   4.984   0.933   4.792  2.1813  0.1155 -1.7069
  998MOL0     H31725   5.218   0.893   4.766 -0.3652  3.3009  2.0902
  998MOL0     H31726   5.447   0.629   4.745 -0.8178  1.5271 -0.6023
  998MOL0     H31727   5.337   0.534   4.834  1.8591 -1.7638  0.1180
  998MOL0     H31728   5.577   0.634   4.988 -1.5284  0.9829  1.0049
  998MOL0     H31729   5.471   0.497   5.011 -0.5737  0.4679  0.3535
  998MOL0     H31730   5.703   0.459   4.935 -0.4909  0.4504  0.7505
  998MOL0     H31731   5.662   0.498   4.771  3.2717 -1.2694  0.2689
  998MOL0     H31732   5.489   0.299   4.927  1.4076  0.1099  1.4003
  998MOL0     H31733   5.501   0.324   4.744  2.4890 -1.8122 -0.9792
  998MOL0     H31734   5.800   0.039   4.782 -1.3272 -0.5250 -1.6609
  998MOL0     H31735   5.223   0.587   5.049 -0.6989 -0.1325  1.9970
  998MOL0     H31736   4.965   0.613   5.079 -1.3979 -0.3877 -1.8536
  999MOL0     O31737   9.867   2.235   9.279  0.1650 -0.4142 -0.3837
  999MOL0     C31738   9.900   2.220   9.156 -0.3699 -0.5679  0.3220
  999MOL0     O31739   9.825   2.164   9.064 -0.4681  0.1738  0.7526
  999MOL0     C31740   9.696   2.139   9.091  0.5630  0.1149 -0.0007
  999MOL0     C31741   9.631   2.020   9.064  0.0317  0.0569 -0.2467
  999MOL0     C31742   9.495   1.998   9.092 -0.7158 -0.5301 -0.2160
  999MOL0     C31743   9.415   2.105   9.139 -0.1567 -0.5849 -0.2250
  999MOL0     O31744   9.286   2.091   9.169  0.5358 -0.7739 -0.3483
  999MOL0     C31745   9.227   1.961   9.164 -0.5566  0.6410 -0.6499
  999MOL0     C31746   9.079   1.957   9.212  0.6741 -0.1103 -0.6819
  999MOL0     C31747   8.971   1.993   9.107 -0.0297  0.3155  0.0989
  999MOL0     C31748   8.996   2.118   9.026  0.0290 -0.3260 -1.5485
  999MOL0     C31749   8.884   2.142   8.925 -0.3550 -0.1490  0.6534
  999MOL0     C31750   8.926   2.254   8.829 -0.9098  0.1737 -1.0048
  999MOL0     C31751   8.821   2.284   8.733  0.1078 -0.2137  0.1993
  999MOL0     C31752   8.725   2.396   8.787  0.2244 -0.5714  0.3035
  999MOL0     N31753   8.598   2.410   8.707  0.3660  0.1885  0.0830
  999MOL0     C31754   8.471   2.375   8.743 -0.4003  0.1003 -0.0528
  999MOL0     C31755   8.388   2.404   8.635 -0.2411 -0.3379 -0.2476
  999MOL0     C31756   8.250   2.383   8.630  0.1201  0.4331  0.2274
  999MOL0     C31757   8.218   2.251   8.563 -0.9481  0.2972  0.5033
  999MOL0     C31758   8.075   2.218   8.553  0.5493  0.2953  0.2112
  999MOL0     C31759   7.992   2.314   8.472  0.3994  0.3558  0.0245
  999MOL0     O31760   7.848   2.287   8.471  0.8040 -0.1607  0.6504
  999MOL0     C31761   7.748   2.374   8.432 -0.5313 -0.4609 -0.4131
  999MOL0     C31762   7.624   2.316   8.433 -0.4503 -0.3059 -0.3094
  999MOL0     C31763   7.515   2.386   8.375  0.2828 -0.2447 -0.5182
  999MOL0     C31764   7.537   2.530   8.341  1.0835 -0.0627 -0.3494
  999MOL0     C31765   7.426   2.619   8.328  0.9515 -0.1968  0.6118
  999MOL0     O31766   7.456   2.753   8.350 -0.2832  0.5493  0.2490
  999MOL0     C31767   7.340   2.830   8.328  0.2731 -0.2209 -0.5182
  999MOL0     C31768   7.304   2.860   8.200 -0.4490 -0.9734 -0.4614
  999MOL0     C31769   7.177   2.900   8.169  0.4613 -0.6168  0.2365
  999MOL0     C31770   7.075   2.913   8.265 -0.3140 -1.4471  0.0001
  999MOL0     O31771   6.946   2.937   8.234 -0.3399 -0.0595 -0.2323
  999MOL0     C31772   6.886   2.902   8.109 -0.3378 -1.1453 -0.5977
  999MOL0     C31773   6.736   2.921   8.120 -0.1414  0.1361  0.6957
  999MOL0     C31774   6.657   2.926   7.993  0.6606 -0.7500 -0.1028
  999MOL0     C31775   6.514   2.934   8.017 -0.1998 -0.1296  0.2743
  999MOL0     C31776   6.461   3.068   8.077 -0.2204  0.5118 -1.0987
  999MOL0     C31777   6.505   3.198   8.006  1.0385  0.4496 -0.3369
  999MOL0     C31778   6.430   3.313   8.072  0.5685  0.1700 -0.0332
  999MOL0     C31779   6.465   3.451   8.019 -0.4531  0.4260 -0.0767
  999MOL0    Cl31780   6.446   3.442   7.833  0.2043  0.4791 -0.1573
  999MOL0     C31781   7.117   2.891   8.398  0.0812  0.8545  0.9949
  999MOL0     C31782   7.242   2.853   8.431 -0.3143 -0.0618  0.3661
  999MOL0     O31783   7.313   2.575   8.297  0.5735  0.0972  0.4375
  999MOL0     C31784   7.666   2.576   8.335 -0.3360  0.1028 -0.3820
  999MOL0     C31785   7.770   2.497   8.382  0.0279 -0.1906  0.5094
  999MOL0     N31786   8.467   2.457   8.537  0.4806  0.0132 -0.5274
  999MOL0     N31787   8.588   2.471   8.580 -0.0141  0.1929 -0.1959
  999MOL0     C31788   9.471   2.231   9.159 -0.3652  0.1186 -0.4594
  999MOL0     C31789   9.610   2.244   9.136 -0.0208 -0.1305 -0.3025
  999MOL0     C31790  10.040   2.241   9.126 -0.0680 -0.1499  1.0521
  999MOL0     C31791  10.137   2.287   9.217 -0.6110  0.1267  0.7220
  999MOL0     C31792  10.273   2.293   9.190  0.0700 -0.2081  0.5465
  999MOL0     C31793  10.318   2.260   9.066  0.5800  0.0602  0.5545
  999MOL0     O31794  10.454   2.279   9.048 -0.6986  0.8205  0.6643
  999MOL0     C31795  10.515   2.226   8.933  0.4352 -0.4735  0.5465
  999MOL0     C31796  10.663   2.232   8.952  0.4943 -0.2105 -0.4797
  999MOL0     C31797  10.720   2.369   8.947 -0.4061  0.5040  0.0837
  999MOL0     C31798  10.875   2.372   8.948 -0.1750  0.1432 -0.3086
  999MOL0     C31799  10.912   2.506   8.904 -0.2865 -0.2873  0.4534
  999MOL0     C31800  10.957   2.612   8.864  0.2921  0.3883 -0.3935
  999MOL0     C31801  10.225   2.209   8.975 -0.4847 -0.4376  0.1624
  999MOL0     C31802  10.087   2.200   8.994 -0.7658 -1.2404 -0.1478
  999MOL0     H31803   9.683   1.940   9.012  1.1775 -1.6779  3.2392
  999MOL0     H31804   9.446   1.904   9.068  2.8418 -2.5944  0.0056
  999MOL0     H31805   9.282   1.888   9.223 -0.7270  0.8539 -0.2187
  999MOL0     H31806   9.227   1.923   9.061  1.0172  1.2567 -0.8982
  999MOL0     H31807   9.083   2.037   9.287 -0.4463 -0.2401 -0.4732
  999MOL0     H31808   9.054   1.864   9.262  1.2779 -0.0229 -0.1975
  999MOL0     H31809   8.873   2.006   9.155  0.5879 -0.1183  1.5225
  999MOL0     H31810   8.954   1.915   9.033  0.4937  1.8966 -1.7613
  999MOL0     H31811   9.001   2.204   9.092 -0.0745  0.7824 -2.9273
  999MOL0     H31812   9.099   2.112   8.988  1.5535 -0.8529  2.2032
  999MOL0     H31813   8.789   2.176   8.968 -0.4027  2.7406 -1.3951
  999MOL0     H31814   8.855   2.055   8.864 -0.8177  0.5813 -0.2026
  999MOL0     H31815   8.996   2.204   8.762 -4.1272 -4.1195 -1.5763
  999MOL0     H31816   8.975   2.337   8.882 -0.6962 -0.3997 -0.2974
  999MOL0     H31817   8.872   2.320   8.644  1.4068  0.6878  1.2700
  999MOL0     H31818   8.763   2.194   8.710 -1.7558  0.7106  1.0096
  999MOL0     H31819   8.775   2.493   8.793  0.5554 -0.7128 -0.0618
  999MOL0     H31820   8.685   2.363   8.883  0.0663 -0.2712  0.3409
  999MOL0     H31821   8.446   2.327   8.837 -1.8483 -0.1486 -0.5366
  999MOL0     H31822   8.198   2.469   8.588 -0.1396 -0.0896 -0.5537
  999MOL0     H31823   8.208   2.390   8.731  1.1053  0.7908  0.6207
  999MOL0     H31824   8.261   2.170   8.623  0.7870  0.4937 -0.4147
  999MOL0     H31825   8.252   2.246   8.459 -1.4451 -0.2276  0.3662
  999MOL0     H31826   8.063   2.115   8.521  0.9969  1.4707 -4.3811
  999MOL0     H31827   8.019   2.218   8.647 -0.4144  1.3687 -0.3352
  999MOL0     H31828   8.037   2.339   8.375  0.5989  2.1694  0.5313
  999MOL0     H31829   8.011   2.404   8.531  1.8157 -0.2408  0.5369
  999MOL0     H31830   7.605   2.214   8.465 -0.5203  0.1197  1.0806
  999MOL0     H31831   7.413   2.351   8.378  0.3839 -0.8430 -2.5163
  999MOL0     H31832   7.377   2.854   8.120 -1.1579 -0.0682 -1.1940
  999MOL0     H31833   7.145   2.927   8.069 -0.0175  1.8119  0.9763
  999MOL0     H31834   6.908   2.801   8.071 -0.2756 -1.4372  0.1978
  999MOL0     H31835   6.930   2.975   8.040 -2.4809  0.4743 -0.3445
  999MOL0     H31836   6.720   3.008   8.184  1.9817  1.1193 -0.0001
  999MOL0     H31837   6.704   2.836   8.182 -1.2306 -0.7407 -1.0104
  999MOL0     H31838   6.668   2.838   7.928  1.7085 -0.3367 -0.5023
  999MOL0     H31839   6.693   3.011   7.934  2.4946 -1.7384 -0.5218
  999MOL0     H31840   6.465   2.934   7.919 -0.1351 -1.6829  0.2136
  999MOL0     H31841   6.486   2.848   8.078  1.0142  0.9618  2.4724
  999MOL0     H31842   6.484   3.083   8.183 -3.8846  0.4174 -0.1436
  999MOL0     H31843   6.352   3.053   8.079 -0.1052 -0.4205  0.7291
  999MOL0     H31844   6.478   3.184   7.901 -0.6971 -1.5716  0.3040
  999MOL0     H31845   6.613   3.210   8.013  0.9926  0.0056  1.8666
  999MOL0     H31846   6.325   3.319   8.044  0.0325 -0.4841  1.7453
  999MOL0     H31847   6.438   3.310   8.181 -4.2703 -2.0823  0.5075
  999MOL0     H31848   6.573   3.466   8.029  0.3785 -4.7148  2.1021
  999MOL0     H31849   6.409   3.525   8.077  0.4170 -0.3650  1.8700
  999MOL0     H31850   7.034   2.898   8.468 -1.4966  2.9155 -0.9264
  999MOL0     H31851   7.265   2.834   8.535 -1.2301 -2.0343  0.2579
  999MOL0     H31852   7.692   2.671   8.289  3.0511  0.3088  1.5719
  999MOL0     H31853   7.873   2.533   8.381 -0.4423  1.4731 -2.9604
  999MOL0     H31854   9.409   2.316   9.186 -0.1447 -0.5812  2.6438
  999MOL0     H31855   9.653   2.339   9.164 -3.0700  1.2297  0.1398
  999MOL0     H31856  10.108   2.306   9.320 -1.9938  2.5681 -0.0425
  999MOL0     H31857  10.338   2.324   9.271  2.6067 -3.0068 -0.2418
  999MOL0     H31858  10.480   2.283   8.848  3.5283 -0.6162 -0.9689
  999MOL0     H31859  10.490   2.121   8.914  1.2431 -0.8413  1.4058
  999MOL0     H31860  10.693   2.198   9.052 -2.9553 -2.1233  0.0757
  999MOL0     H31861  10.704   2.175   8.868  5.2872 -2.1461  2.7085
  999MOL0     H31862  10.693   2.422   9.039 -0.2486 -1.1805  1.1516
  999MOL0     H31863  10.698   2.416   8.851  2.0262  2.8892  0.5822
  999MOL0     H31864  10.917   2.365   9.049  0.2387  0.5113 -0.4505
  999MOL0     H31865  10.923   2.291   8.893  0.7337 -0.9244  1.9324
  999MOL0     H31866  10.971   2.706   8.815 -0.4279  0.8302  0.2319
  999MOL0     H31867  10.267   2.184   8.878  0.1049 -4.0844  1.2255
  999MOL0     H31868  10.016   2.150   8.928 -0.3423 -1.9125 -0.0996
 1000MOL0     O31869   9.591   7.940   2.217  0.2455  0.2077  0.5072
 1000MOL0     C31870   9.610   8.059   2.226 -1.1526 -0.1258 -0.2152
 1000MOL0     O31871   9.532   8.143   2.294 -0.2899 -0.3150  0.0108
 1000MOL0     C31872   9.404   8.108   2.334 -0.3189 -0.2487  0.3673
 1000MOL0     C31873   9.322   8.012   2.277  1.1714  0.5264  0.7284
 1000MOL0     C31874   9.185   7.985   2.321  0.8168  0.2486  0.5429
 1000MOL0     C31875   9.134   8.077   2.420 -0.3016  0.2555 -0.0880
 1000MOL0     O31876   9.014   8.073   2.473  0.3774 -0.6078 -0.4130
 1000MOL0     C31877   8.923   7.970   2.435 -0.1036 -0.3352 -0.2279
 1000MOL0     C31878   8.782   7.988   2.501 -1.4305 -0.5842 -0.2622
 1000MOL0     C31879   8.667   7.902   2.447 -0.1368 -0.3016 -0.1392
 1000MOL0     C31880   8.541   7.950   2.498  0.8911  0.0916  0.2524
 1000MOL0     C31881   8.439   7.851   2.453  0.2340  0.0775  0.7165
 1000MOL0     C31882   8.297   7.890   2.492 -0.1993 -1.1220 -1.0995
 1000MOL0     C31883   8.199   7.789   2.442 -0.2612 -0.6479 -0.2037
 1000MOL0     C31884   8.065   7.828   2.477  0.3288  0.0350 -0.7628
 1000MOL0     N31885   7.970   7.709   2.484  0.2309  0.2363 -0.6759
 1000MOL0     C31886   7.911   7.651   2.366 -0.3710  0.0094  0.1738
 1000MOL0     C31887   7.812   7.570   2.408 -0.1232 -0.0308  0.5687
 1000MOL0     C31888   7.707   7.513   2.315 -0.3109  0.3312  0.6906
 1000MOL0     C31889   7.573   7.575   2.320  0.3948 -1.2281 -0.5859
 1000MOL0     C31890   7.500   7.597   2.188  0.1039  1.4236 -0.2590
 1000MOL0     C31891   7.350   7.608   2.214 -0.1312  0.2566 -0.1145
 1000MOL0     O31892   7.304   7.484   2.273  0.3315 -0.2646  0.6851
 1000MOL0     C31893   7.170   7.465   2.285 -0.4049 -0.1748  0.1419
 1000MOL0     C31894   7.071   7.563   2.280  1.0249 -0.8820 -0.3640
 1000MOL0     C31895   6.944   7.520   2.315 -0.4494  0.2025  0.0579
 1000MOL0     C31896   6.907   7.392   2.336  0.0945 -0.5668  0.1305
 1000MOL0     C31897   6.771   7.361   2.386 -0.6489  0.5540  0.2417
 1000MOL0     O31898   6.668   7.424   2.318 -0.2981  0.6737 -0.6850
 1000MOL0     C31899   6.544   7.409   2.372  0.3261  0.2863 -0.2380
 1000MOL0     C31900   6.478   7.288   2.354 -0.0152  0.1338  0.3733
 1000MOL0     C31901   6.351   7.260   2.418  0.2618 -0.5777  0.0232
 1000MOL0     C31902   6.276   7.372   2.482 -0.2342  1.3048  0.4835
 1000MOL0     O31903   6.149   7.362   2.527  0.0545  0.2767 -0.6644
 1000MOL0     C31904   6.083   7.243   2.481  0.2266  0.4630  0.9599
 1000MOL0     C31905   5.934   7.242   2.505  0.1759 -0.6669 -0.9346
 1000MOL0     C31906   5.907   7.254   2.659  0.1539 -0.6971  0.3452
 1000MOL0     C31907   5.763   7.214   2.698 -0.0137  0.0695 -0.1436
 1000MOL0     C31908   5.741   7.208   2.846 -0.1146  0.3928  0.0544
 1000MOL0     C31909   5.608   7.125   2.879 -0.4164  0.0884  0.3912
 1000MOL0     C31910   5.574   7.081   3.018  0.1769  0.6050 -0.7738
 1000MOL0     C31911   5.692   7.054   3.111  0.1183 -0.1673  0.2469
 1000MOL0    Cl31912   5.632   7.023   3.279 -0.2314  0.5301  0.5411
 1000MOL0     C31913   6.346   7.487   2.503 -0.1725  0.0751 -0.0855
 1000MOL0     C31914   6.483   7.505   2.460 -0.3445  0.5505 -0.2195
 1000MOL0     O31915   6.768   7.280   2.475 -0.2654 -0.1566 -0.2459
 1000MOL0     C31916   7.001   7.289   2.318  0.0799  0.5321  0.1914
 1000MOL0     C31917   7.136   7.326   2.303  0.1824 -0.2059 -0.1680
 1000MOL0     N31918   7.805   7.575   2.545  0.2890 -0.0992 -0.4746
 1000MOL0     N31919   7.891   7.659   2.582 -0.5340  0.1839 -1.2878
 1000MOL0     C31920   9.218   8.183   2.469 -0.8603  0.5730 -0.3827
 1000MOL0     C31921   9.347   8.195   2.427 -0.0454  0.2600 -0.1563
 1000MOL0     C31922   9.740   8.114   2.189 -0.3752  0.0001 -0.3169
 1000MOL0     C31923   9.840   8.024   2.139 -0.5595  0.2551  0.1850
 1000MOL0     C31924   9.959   8.081   2.094 -0.0054 -0.2374 -0.1812
 1000MOL0     C31925   9.992   8.222   2.085  0.4400  0.8189 -0.0165
 1000MOL0     O31926  10.115   8.253   2.046  0.3013  0.1990 -0.1236
 1000MOL0     C31927  10.163   8.392   2.010 -0.0571  0.4233 -0.3320
 1000MOL0     C31928  10.291   8.373   1.928 -0.3796 -0.2016  0.3472
 1000MOL0     C31929  10.341   8.503   1.866 -1.1497 -0.4982 -0.3456
 1000MOL0     C31930  10.474   8.485   1.790  0.4290 -0.0701  0.0847
 1000MOL0     C31931  10.579   8.442   1.874  0.4522  0.3808 -0.6725
 1000MOL0     C31932  10.667   8.408   1.951  0.0331  0.7701 -0.3568
 1000MOL0     C31933   9.890   8.304   2.142  0.1681  0.0030 -0.3116
 1000MOL0     C31934   9.766   8.250   2.193  0.3669  0.9833 -0.1739
 1000MOL0     H31935   9.361   7.932   2.215 -1.9039 -0.0841 -0.6245
 1000MOL0     H31936   9.135   7.898   2.281  1.3437  0.2119 -0.0591
 1000MOL0     H31937   8.963   7.869   2.449  0.0905 -0.9153 -3.8933
 1000MOL0     H31938   8.910   7.995   2.329 -3.2482  1.2191  0.3876
 1000MOL0     H31939   8.758   8.094   2.492  3.3420  0.8254  1.1016
 1000MOL0     H31940   8.783   7.965   2.608 -1.5553 -0.0273 -0.1396
 1000MOL0     H31941   8.673   7.801   2.488 -0.4151  0.0707  0.8457
 1000MOL0     H31942   8.668   7.896   2.337  1.8012 -4.9666 -0.1126
 1000MOL0     H31943   8.543   7.970   2.605  1.1103 -0.0760  0.2797
 1000MOL0     H31944   8.515   8.044   2.449 -1.4991 -0.9750 -0.7191
 1000MOL0     H31945   8.467   7.750   2.482  0.5081 -1.0530 -2.9655
 1000MOL0     H31946   8.449   7.849   2.344  0.2962  0.0125  0.7237
 1000MOL0     H31947   8.286   7.995   2.463 -1.4775 -0.9212 -0.0057
 1000MOL0     H31948   8.301   7.892   2.601 -0.5908  0.7991 -1.0853
 1000MOL0     H31949   8.193   7.800   2.334 -4.2536  0.2178 -0.0535
 1000MOL0     H31950   8.223   7.685   2.468  0.7187 -0.4241 -0.1874
 1000MOL0     H31951   8.025   7.912   2.420 -1.2770 -0.1013  0.0871
 1000MOL0     H31952   8.076   7.873   2.577 -1.8576  2.0078 -1.3204
 1000MOL0     H31953   7.926   7.691   2.267  1.4432  1.4934  0.9813
 1000MOL0     H31954   7.688   7.406   2.331 -1.5927 -0.3185 -3.8226
 1000MOL0     H31955   7.750   7.536   2.217 -2.9388  0.1691 -0.5720
 1000MOL0     H31956   7.588   7.676   2.358  2.0126 -0.9398 -1.8743
 1000MOL0     H31957   7.510   7.523   2.393  3.3985 -2.9901  0.9415
 1000MOL0     H31958   7.546   7.682   2.136 -0.1263  2.6083  1.4169
 1000MOL0     H31959   7.513   7.509   2.124 -4.8539 -0.4453  0.8793
 1000MOL0     H31960   7.298   7.620   2.118  0.9876 -0.2864 -0.8045
 1000MOL0     H31961   7.315   7.693   2.273 -0.3856 -0.4676  0.7966
 1000MOL0     H31962   7.109   7.663   2.262  1.0877 -0.8696 -0.1695
 1000MOL0     H31963   6.867   7.596   2.325  0.1099  0.5324  2.6774
 1000MOL0     H31964   6.534   7.224   2.287 -0.9521 -1.5418  1.1158
 1000MOL0     H31965   6.316   7.158   2.433 -0.9640 -0.1424  0.3235
 1000MOL0     H31966   6.115   7.155   2.538 -2.3127 -2.0586 -1.1752
 1000MOL0     H31967   6.094   7.218   2.375 -0.9534 -1.4854  1.2426
 1000MOL0     H31968   5.904   7.144   2.467 -1.5317 -0.2666 -0.6656
 1000MOL0     H31969   5.890   7.332   2.461  1.7165  0.8150  0.3645
 1000MOL0     H31970   5.935   7.352   2.698  1.9011 -1.7966  2.0175
 1000MOL0     H31971   5.968   7.181   2.712  0.7758  0.4180  1.2010
 1000MOL0     H31972   5.680   7.275   2.659 -0.9238 -1.6255 -0.9676
 1000MOL0     H31973   5.750   7.115   2.654 -0.8189  0.4030 -0.7014
 1000MOL0     H31974   5.741   7.311   2.886  1.8690  0.5742 -0.2879
 1000MOL0     H31975   5.833   7.169   2.891  0.7983  1.5997 -0.6893
 1000MOL0     H31976   5.623   7.027   2.831 -0.7538  0.1293  0.1986
 1000MOL0     H31977   5.530   7.182   2.827  2.6448  5.0318  0.6119
 1000MOL0     H31978   5.516   7.161   3.065  0.9686 -0.3949  2.1620
 1000MOL0     H31979   5.519   6.986   3.024  2.1445 -0.5373  0.4597
 1000MOL0     H31980   5.757   7.141   3.099  1.2381 -1.3140 -2.9840
 1000MOL0     H31981   5.756   6.973   3.074  1.3001  1.1148 -0.5901
 1000MOL0     H31982   6.290   7.575   2.536  0.5557  0.3898  0.3321
 1000MOL0     H31983   6.524   7.602   2.489  0.3179  0.4695 -0.8548
 1000MOL0     H31984   6.972   7.185   2.329 -2.0958  1.0979  0.2090
 1000MOL0     H31985   7.220   7.258   2.305  1.0393  0.7663 -1.3963
 1000MOL0     H31986   9.188   8.257   2.543  0.9078  0.3630  0.5957
 1000MOL0     H31987   9.408   8.281   2.451 -0.1533  0.5909 -1.0087
 1000MOL0     H31988   9.826   7.916   2.139  0.8244  0.0308  1.4066
 1000MOL0     H31989  10.031   8.013   2.050 -0.5413 -1.2461  0.4819
 1000MOL0     H31990  10.165   8.459   2.096  0.1409  0.3311 -0.2639
 1000MOL0     H31991  10.086   8.423   1.939 -0.0619  1.0755 -0.0451
 1000MOL0     H31992  10.363   8.329   1.998 -1.9575 -2.3149  0.7203
 1000MOL0     H31993  10.270   8.293   1.857 -2.7558  0.6659 -0.0271
 1000MOL0     H31994  10.363   8.576   1.944 -3.1433 -2.2388  2.0108
 1000MOL0     H31995  10.264   8.547   1.802 -0.8574  0.1757 -0.2474
 1000MOL0     H31996  10.463   8.406   1.715  3.8227  0.3720 -1.0903
 1000MOL0     H31997  10.503   8.574   1.734 -1.4021  1.9415  2.1170
 1000MOL0     H31998  10.733   8.378   2.031 -0.7225  2.3825  0.9190
 1000MOL0     H31999   9.903   8.411   2.139 -0.9314  0.3158  2.7442
 1000MOL0     H32000   9.688   8.319   2.227 -0.0947  1.5007 -2.1059
 1001MOL0     O32001   9.196   8.350   8.696 -0.2075 -0.0023 -0.6246
 1001MOL0     C32002   9.175   8.452   8.636 -0.3496 -0.0897  0.1282
 1001MOL0     O32003   9.056   8.514   8.635 -0.0797 -0.2647 -0.8357
 1001MOL0     C32004   8.961   8.476   8.727  0.4378 -0.8430 -0.9549
 1001MOL0     C32005   8.852   8.420   8.679  0.7392  0.3255 -0.3697
 1001MOL0     C32006   8.747   8.375   8.765  0.6887 -0.4243  0.1613
 1001MOL0     C32007   8.754   8.399   8.905 -0.1786 -0.7673 -0.3383
 1001MOL0     O32008   8.653   8.382   8.995 -0.2827  0.1798  0.0147
 1001MOL0     C32009   8.527   8.361   8.945  0.3596 -0.1412  0.6362
 1001MOL0     C32010   8.427   8.363   9.059  0.1948 -0.4078 -0.1946
 1001MOL0     C32011   8.290   8.313   9.002  0.0241  0.0319  0.2457
 1001MOL0     C32012   8.183   8.295   9.114  0.2806 -0.1771  0.1821
 1001MOL0     C32013   8.042   8.288   9.075  0.2676  0.2015 -0.7278
 1001MOL0     C32014   7.949   8.244   9.190  0.5839  0.0348 -0.1322
 1001MOL0     C32015   7.798   8.275   9.156 -0.2064  0.0674  0.4448
 1001MOL0     C32016   7.706   8.253   9.276  0.5723  0.4371  0.4363
 1001MOL0     N32017   7.566   8.258   9.246 -0.1802  0.0784  0.0880
 1001MOL0     C32018   7.460   8.258   9.335  0.0400 -0.5359  0.0992
 1001MOL0     C32019   7.346   8.253   9.262  0.4003  0.7972 -0.3818
 1001MOL0     C32020   7.202   8.253   9.296  0.8196 -0.7292  0.2285
 1001MOL0     C32021   7.173   8.124   9.373 -0.5270 -0.3061  0.8202
 1001MOL0     C32022   7.170   8.149   9.527  0.1537 -0.5517  1.1946
 1001MOL0     C32023   7.051   8.213   9.593 -0.9684 -0.2741 -0.1539
 1001MOL0     O32024   7.015   8.343   9.544  0.3352  0.0556 -0.4573
 1001MOL0     C32025   6.903   8.399   9.609 -0.4173 -0.0275 -0.4543
 1001MOL0     C32026   6.815   8.325   9.694 -0.3751  0.2745 -0.7600
 1001MOL0     C32027   6.710   8.394   9.753  0.0891 -0.2836 -0.4824
 1001MOL0     C32028   6.686   8.528   9.724  0.4787  0.1092  0.4613
 1001MOL0     C32029   6.559   8.587   9.772  0.6934  0.0592  0.5215
 1001MOL0     O32030   6.478   8.520   9.858 -0.3987 -0.9289  0.8638
 1001MOL0     C32031   6.363   8.562   9.912  0.0756  0.8119 -0.4075
 1001MOL0     C32032   6.306   8.692   9.899  0.8189 -0.4191  0.1969
 1001MOL0     C32033   6.187   8.728   9.967  0.4625 -0.2624  0.5029
 1001MOL0     C32034   6.115   8.626  10.037 -0.1138 -0.3167 -0.4469
 1001MOL0     O32035   5.995   8.665  10.096 -0.2835  0.0100 -0.0314
 1001MOL0     C32036   5.918   8.575  10.180 -0.4110  0.2497  0.1251
 1001MOL0     C32037   5.801   8.658  10.235  0.2349  0.2847  0.6567
 1001MOL0     C32038   5.707   8.582  10.329 -0.0766  0.2546 -0.4282
 1001MOL0     C32039   5.594   8.676  10.386  0.1473 -0.2317  1.0117
 1001MOL0     C32040   5.492   8.596  10.475 -0.5746 -0.5310  0.1552
 1001MOL0     C32041   5.353   8.657  10.486 -0.3832 -0.5979 -0.1063
 1001MOL0     C32042   5.275   8.618  10.608 -0.0843  1.0041 -1.2010
 1001MOL0     C32043   5.130   8.665  10.604  0.3791  0.0045  0.5178
 1001MOL0    Cl32044   5.051   8.629  10.765 -0.5453  0.0390 -0.0515
 1001MOL0     C32045   6.179   8.503  10.059  0.4530  0.6752  0.2878
 1001MOL0     C32046   6.298   8.468   9.998  0.0040 -1.7822 -0.4132
 1001MOL0     O32047   6.540   8.701   9.729 -0.1504 -0.1817  0.2556
 1001MOL0     C32048   6.772   8.602   9.638 -0.6060 -0.4634  0.2388
 1001MOL0     C32049   6.883   8.534   9.587  0.0421 -0.3441  0.2749
 1001MOL0     N32050   7.386   8.233   9.132  0.2860 -0.2824  0.2450
 1001MOL0     N32051   7.514   8.238   9.123 -0.3408 -0.2393 -0.0448
 1001MOL0     C32052   8.879   8.447   8.954  0.3809  1.6813  0.4992
 1001MOL0     C32053   8.979   8.481   8.867  0.8892 -0.1341  0.1632
 1001MOL0     C32054   9.279   8.506   8.550 -0.4153  0.2432 -0.3226
 1001MOL0     C32055   9.406   8.432   8.520  0.1380 -0.7013  0.5939
 1001MOL0     C32056   9.505   8.494   8.449  0.4130  0.4860  0.3143
 1001MOL0     C32057   9.475   8.613   8.383  0.2168 -0.1717 -1.4999
 1001MOL0     O32058   9.568   8.685   8.307 -0.0746  0.2664  0.4530
 1001MOL0     C32059   9.684   8.629   8.252 -0.2121  0.7708 -0.1182
 1001MOL0     C32060   9.802   8.725   8.279  0.2593 -0.1503  0.5632
 1001MOL0     C32061   9.916   8.705   8.184  0.1610  0.3479 -0.3439
 1001MOL0     C32062  10.009   8.812   8.225  0.2333 -0.3752 -0.8656
 1001MOL0     C32063  10.132   8.801   8.155 -0.6675 -0.3612 -0.3497
 1001MOL0     C32064  10.237   8.798   8.103  0.4709 -0.6079 -0.0320
 1001MOL0     C32065   9.347   8.671   8.390 -0.2939 -0.4416 -0.0603
 1001MOL0     C32066   9.250   8.622   8.474  0.4253  0.4278 -0.6349
 1001MOL0     H32067   8.841   8.389   8.575  3.8660 -1.3686 -0.2921
 1001MOL0     H32068   8.651   8.332   8.738 -1.3484  3.2079  0.8917
 1001MOL0     H32069   8.509   8.259   8.908  1.2090  0.4145 -1.4228
 1001MOL0     H32070   8.509   8.441   8.872 -1.3905 -2.8977 -2.2462
 1001MOL0     H32071   8.414   8.464   9.098  1.0075 -1.1465  2.1752
 1001MOL0     H32072   8.462   8.312   9.149 -1.9989  3.3085  3.0604
 1001MOL0     H32073   8.303   8.212   8.961  0.2798 -0.2048  0.9044
 1001MOL0     H32074   8.243   8.365   8.918 -2.9560 -2.7391 -0.0002
 1001MOL0     H32075   8.207   8.211   9.179  1.2982  0.8882  1.2364
 1001MOL0     H32076   8.196   8.378   9.184  4.1636 -2.3388  2.3719
 1001MOL0     H32077   8.021   8.224   8.989 -1.8633  0.9261 -0.8098
 1001MOL0     H32078   8.013   8.391   9.051 -0.8536 -0.3798 -1.9792
 1001MOL0     H32079   7.985   8.304   9.273  4.9936 -0.7040 -1.2509
 1001MOL0     H32080   7.963   8.139   9.219  1.4898  0.8382  2.5796
 1001MOL0     H32081   7.791   8.381   9.129 -0.9629  0.2159  1.2067
 1001MOL0     H32082   7.768   8.208   9.075  0.8094 -0.1887  0.2599
 1001MOL0     H32083   7.729   8.328   9.353  0.7464  2.5042 -1.5248
 1001MOL0     H32084   7.732   8.151   9.308 -2.4162 -0.7832 -0.6463
 1001MOL0     H32085   7.476   8.270   9.442 -2.0475 -1.3165  0.5506
 1001MOL0     H32086   7.142   8.239   9.206  1.2577 -0.5043 -0.1044
 1001MOL0     H32087   7.172   8.344   9.349 -1.6382 -1.0975 -0.4190
 1001MOL0     H32088   7.240   8.046   9.337 -2.4932 -1.1261 -1.3548
 1001MOL0     H32089   7.077   8.087   9.336  0.8482 -0.4548 -2.9831
 1001MOL0     H32090   7.184   8.050   9.572 -1.7289 -0.8499  1.1711
 1001MOL0     H32091   7.268   8.193   9.552  0.1522 -0.4899  1.0904
 1001MOL0     H32092   7.072   8.209   9.700 -2.7380  0.8077  0.2779
 1001MOL0     H32093   6.966   8.147   9.574 -4.1087  3.2908  0.2440
 1001MOL0     H32094   6.818   8.217   9.709  1.7627  0.0492 -2.2687
 1001MOL0     H32095   6.641   8.339   9.816  1.5094 -0.1738  1.2546
 1001MOL0     H32096   6.355   8.775   9.849  1.7858 -0.8600  0.3869
 1001MOL0     H32097   6.157   8.833   9.969 -1.1754 -0.6866 -0.1582
 1001MOL0     H32098   5.978   8.545  10.266  0.7336  0.5303 -0.5471
 1001MOL0     H32099   5.877   8.490  10.125 -0.4748  0.2010  0.2489
 1001MOL0     H32100   5.741   8.691  10.150  0.3306 -0.1005  0.4389
 1001MOL0     H32101   5.843   8.742  10.292 -1.4401  0.7311  1.2906
 1001MOL0     H32102   5.771   8.540  10.406  2.0510  0.3853 -2.0262
 1001MOL0     H32103   5.662   8.509  10.261 -3.2661  0.4917  1.2301
 1001MOL0     H32104   5.638   8.762  10.437  0.5100  0.2221 -0.0524
 1001MOL0     H32105   5.542   8.715  10.298  2.8612  2.0507  0.2875
 1001MOL0     H32106   5.537   8.587  10.574 -0.1021 -1.0403 -0.1036
 1001MOL0     H32107   5.482   8.493  10.440  0.1030  0.2382 -2.5879
 1001MOL0     H32108   5.295   8.619  10.402  0.1585 -1.7712  0.0302
 1001MOL0     H32109   5.352   8.766  10.487 -2.6932 -0.5573  0.7944
 1001MOL0     H32110   5.277   8.510  10.621 -3.0282  1.0601  0.7481
 1001MOL0     H32111   5.327   8.657  10.697 -1.9639  0.6106  0.1285
 1001MOL0     H32112   5.074   8.599  10.537  1.3778  0.3109 -0.6546
 1001MOL0     H32113   5.130   8.767  10.564  0.4970  0.2979  1.2439
 1001MOL0     H32114   6.134   8.422  10.117 -0.0233  0.5668 -0.2271
 1001MOL0     H32115   6.346   8.372  10.013  2.5190 -0.3396  1.6784
 1001MOL0     H32116   6.746   8.706   9.624 -1.7284 -0.5576  1.4243
 1001MOL0     H32117   6.955   8.584   9.523  0.2794 -1.2414 -0.1731
 1001MOL0     H32118   8.893   8.449   9.062 -0.7062  0.3302  0.6889
 1001MOL0     H32119   9.079   8.513   8.892  1.4979 -2.0048  0.3022
 1001MOL0     H32120   9.441   8.341   8.567 -0.7521 -1.4828 -0.2360
 1001MOL0     H32121   9.603   8.447   8.449 -0.3945 -1.2630  0.9187
 1001MOL0     H32122   9.675   8.616   8.144  0.6222  0.7042 -0.1822
 1001MOL0     H32123   9.698   8.528   8.291  0.3807  0.4976 -1.0080
 1001MOL0     H32124   9.765   8.827   8.266 -1.4871 -0.9899 -1.8400
 1001MOL0     H32125   9.850   8.707   8.375  1.0893  2.6656  0.7697
 1001MOL0     H32126   9.881   8.708   8.080 -1.2096 -2.5137 -0.0297
 1001MOL0     H32127   9.969   8.613   8.210  2.6753  1.3891 -1.4518
 1001MOL0     H32128   9.961   8.910   8.215  0.5456  0.0302  1.2389
 1001MOL0     H32129  10.035   8.817   8.331  1.4037 -1.5704 -1.0888
 1001MOL0     H32130  10.331   8.799   8.051  0.9325  1.8922  0.7158
 1001MOL0     H32131   9.334   8.759   8.327 -0.0749  0.4374  1.0801
 1001MOL0     H32132   9.151   8.666   8.474 -0.3815 -1.3148 -0.1961
 1002MOL0     O32133   6.703   8.438   1.185 -0.0703 -0.7412 -0.6210
 1002MOL0     C32134   6.766   8.544   1.202  0.1706  0.5509 -0.5279
 1002MOL0     O32135   6.728   8.654   1.278 -0.0186  1.0855 -0.0266
 1002MOL0     C32136   6.608   8.676   1.334  0.6277  0.5823 -0.4710
 1002MOL0     C32137   6.583   8.797   1.399 -0.4867 -0.0836 -0.8347
 1002MOL0     C32138   6.465   8.823   1.463 -0.1132 -0.1392 -0.0036
 1002MOL0     C32139   6.361   8.736   1.463 -0.2190 -0.3132  0.4842
 1002MOL0     O32140   6.253   8.774   1.537  0.1583 -0.0383  0.6389
 1002MOL0     C32141   6.122   8.714   1.522 -0.2607  0.8185  0.1583
 1002MOL0     C32142   6.018   8.818   1.553  0.9163  0.6559  0.1465
 1002MOL0     C32143   5.954   8.782   1.691  0.5455 -0.6387  0.2745
 1002MOL0     C32144   5.837   8.869   1.716  0.6340 -0.7881 -0.5530
 1002MOL0     C32145   5.769   8.826   1.847  0.2048 -0.3197  0.4625
 1002MOL0     C32146   5.693   8.937   1.898 -0.6883 -0.5015 -0.3189
 1002MOL0     C32147   5.668   8.906   2.046  0.0135  0.2724 -0.1817
 1002MOL0     C32148   5.586   9.015   2.108  0.1074 -0.1554  0.2003
 1002MOL0     N32149   5.447   9.008   2.056  0.0411 -0.2530 -0.5578
 1002MOL0     C32150   5.360   8.906   2.064  0.1762 -0.4756 -0.2948
 1002MOL0     C32151   5.242   8.949   2.017 -0.3376  0.7825 -0.4063
 1002MOL0     C32152   5.128   8.861   1.994  0.8137  0.3396 -0.2774
 1002MOL0     C32153   4.994   8.910   2.045 -0.6546  0.1552 -0.0955
 1002MOL0     C32154   4.873   8.817   2.019 -0.5675 -0.0458 -0.9159
 1002MOL0     C32155   4.881   8.688   2.101  0.3225 -0.7215  0.5660
 1002MOL0     O32156   4.894   8.716   2.243 -0.0619 -0.3424 -0.2468
 1002MOL0     C32157   4.780   8.757   2.307 -0.7889  0.1931 -0.3677
 1002MOL0     C32158   4.811   8.826   2.418 -0.3269 -0.9522 -0.1197
 1002MOL0     C32159   4.707   8.872   2.502  0.6333 -0.9370  0.4193
 1002MOL0     C32160   4.570   8.845   2.473 -0.8197  0.1373 -0.6924
 1002MOL0     C32161   4.465   8.872   2.580 -0.0498 -0.5170 -0.3330
 1002MOL0     O32162   4.350   8.809   2.563  0.4831  0.2736 -0.4884
 1002MOL0     C32163   4.230   8.829   2.633 -0.9477 -0.3982  0.2451
 1002MOL0     C32164   4.212   8.869   2.764  0.2373 -0.1036 -1.2358
 1002MOL0     C32165   4.090   8.890   2.824  0.3250  0.0015 -0.2221
 1002MOL0     C32166   3.975   8.860   2.749  0.1823  0.7050  0.4871
 1002MOL0     O32167   3.857   8.883   2.808 -0.1397 -0.5687  0.6299
 1002MOL0     C32168   3.750   8.897   2.722  0.4189 -0.3604  0.5589
 1002MOL0     C32169   3.620   8.928   2.800  0.0548 -0.6991 -0.2943
 1002MOL0     C32170   3.590   8.839   2.907  1.4592 -0.6380  0.6420
 1002MOL0     C32171   3.447   8.870   2.971 -1.1360  0.1278 -0.2100
 1002MOL0     C32172   3.385   8.747   3.047 -0.0526  0.1136  0.4586
 1002MOL0     C32173   3.458   8.701   3.176 -0.0943 -0.4294 -0.0879
 1002MOL0     C32174   3.404   8.575   3.219 -0.4973  1.4020 -0.3864
 1002MOL0     C32175   3.496   8.510   3.322 -0.1807  0.1567 -0.8595
 1002MOL0    Cl32176   3.492   8.584   3.484  0.3594  0.1460  0.0255
 1002MOL0     C32177   3.989   8.819   2.616  0.5857  0.2512 -0.5025
 1002MOL0     C32178   4.113   8.790   2.569 -0.4435  1.0213  0.3283
 1002MOL0     O32179   4.487   8.952   2.672  0.6723 -0.1361  0.3962
 1002MOL0     C32180   4.539   8.766   2.359 -0.0595 -0.6719  0.0128
 1002MOL0     C32181   4.647   8.730   2.273  0.1061  0.1554  0.2223
 1002MOL0     N32182   5.257   9.082   1.977  0.2706 -0.6208 -0.4917
 1002MOL0     N32183   5.380   9.114   2.002  0.2504  0.2127  0.2372
 1002MOL0     C32184   6.376   8.614   1.401 -0.7691  0.4520  0.2156
 1002MOL0     C32185   6.501   8.582   1.345 -0.2425 -0.0831 -0.4255
 1002MOL0     C32186   6.892   8.548   1.134 -0.6355  0.7820  0.7646
 1002MOL0     C32187   6.938   8.457   1.027  0.1044 -0.3693  0.5470
 1002MOL0     C32188   7.056   8.479   0.958  0.7451  0.5462 -0.1274
 1002MOL0     C32189   7.144   8.581   0.996  0.7795 -0.1623 -0.4237
 1002MOL0     O32190   7.261   8.588   0.931  0.5997 -0.6463 -0.0116
 1002MOL0     C32191   7.349   8.700   0.965  0.5558 -0.5584 -0.1484
 1002MOL0     C32192   7.436   8.730   0.832 -0.1741 -0.0074  0.6170
 1002MOL0     C32193   7.566   8.647   0.828 -0.5021  0.7051  1.0996
 1002MOL0     C32194   7.647   8.679   0.703 -1.3621 -0.1422 -0.1033
 1002MOL0     C32195   7.757   8.590   0.697  0.7171  0.7939 -0.1010
 1002MOL0     C32196   7.851   8.510   0.682  0.4541  0.0509 -0.2269
 1002MOL0     C32197   7.103   8.664   1.095 -0.2456  0.5825 -0.4684
 1002MOL0     C32198   6.980   8.655   1.163 -0.1383  0.5952 -0.1640
 1002MOL0     H32199   6.666   8.864   1.416  0.9293 -1.7414 -0.9847
 1002MOL0     H32200   6.451   8.916   1.516  2.8479  0.1197  0.4514
 1002MOL0     H32201   6.115   8.623   1.581 -3.4911  2.1515  2.1170
 1002MOL0     H32202   6.107   8.686   1.417 -1.0545  0.4491  0.3649
 1002MOL0     H32203   5.941   8.799   1.477 -1.2928  2.3171  1.7961
 1002MOL0     H32204   6.051   8.922   1.542 -0.2342  1.0671  0.3331
 1002MOL0     H32205   6.028   8.773   1.772  1.4581 -3.7153 -0.7334
 1002MOL0     H32206   5.906   8.683   1.688 -2.6179  0.6597  2.7321
 1002MOL0     H32207   5.873   8.972   1.718  1.3858 -0.9754  2.7930
 1002MOL0     H32208   5.765   8.854   1.636 -1.0225  0.3599  0.6676
 1002MOL0     H32209   5.850   8.803   1.918 -0.1522  0.7109  1.2312
 1002MOL0     H32210   5.698   8.744   1.832 -1.5731  1.1145  0.8147
 1002MOL0     H32211   5.597   8.942   1.846 -0.9456 -1.2068  0.0723
 1002MOL0     H32212   5.748   9.030   1.883 -1.3635 -0.2021 -0.9916
 1002MOL0     H32213   5.612   8.813   2.059  2.4602 -1.0779  1.7372
 1002MOL0     H32214   5.762   8.899   2.102  2.1888  1.4258 -3.3855
 1002MOL0     H32215   5.623   9.111   2.074  1.4316  0.0232  1.9918
 1002MOL0     H32216   5.598   9.011   2.217 -2.3397 -0.4423  0.5136
 1002MOL0     H32217   5.380   8.807   2.102 -1.9334 -0.7707  0.2023
 1002MOL0     H32218   5.151   8.759   2.026 -2.0387 -0.0559  0.7560
 1002MOL0     H32219   5.120   8.863   1.885  0.1542  1.6618 -0.2229
 1002MOL0     H32220   4.969   8.997   1.984  0.4238  0.2261 -0.4517
 1002MOL0     H32221   5.007   8.934   2.150  0.5309 -1.1304  0.0866
 1002MOL0     H32222   4.777   8.867   2.037  0.1663  1.2558 -0.5070
 1002MOL0     H32223   4.863   8.793   1.912 -1.1638  0.3806 -0.9624
 1002MOL0     H32224   4.971   8.633   2.075  0.0650 -2.1341  2.4435
 1002MOL0     H32225   4.793   8.630   2.070 -1.2826  2.6937 -1.9376
 1002MOL0     H32226   4.907   8.865   2.452 -1.2499  1.5041 -0.1422
 1002MOL0     H32227   4.726   8.939   2.585 -3.1584  0.0180  0.7269
 1002MOL0     H32228   4.307   8.868   2.818  0.2908 -1.8890 -1.2927
 1002MOL0     H32229   4.072   8.926   2.925 -0.7175 -0.0983 -0.3617
 1002MOL0     H32230   3.731   8.797   2.683  1.0680 -0.9515  1.7296
 1002MOL0     H32231   3.754   8.966   2.637 -2.2522 -0.3941  0.2941
 1002MOL0     H32232   3.537   8.934   2.729 -1.2424  1.3557  1.3098
 1002MOL0     H32233   3.633   9.027   2.844  2.3825 -0.3492 -1.5920
 1002MOL0     H32234   3.671   8.843   2.980  2.3680  0.6256 -0.3913
 1002MOL0     H32235   3.576   8.739   2.866 -0.9515 -0.1655  0.1516
 1002MOL0     H32236   3.446   8.951   3.044  1.8016  0.0149  0.0756
 1002MOL0     H32237   3.371   8.899   2.898 -1.1298  1.7827  0.3984
 1002MOL0     H32238   3.367   8.664   2.979  1.7366 -0.6077  0.8097
 1002MOL0     H32239   3.290   8.783   3.089  0.2174 -0.3205  1.4726
 1002MOL0     H32240   3.459   8.774   3.257  0.1560 -1.6583  1.0443
 1002MOL0     H32241   3.567   8.698   3.165  0.0985  2.6550 -0.0252
 1002MOL0     H32242   3.304   8.596   3.257 -0.7685  0.4354 -0.5501
 1002MOL0     H32243   3.410   8.504   3.136  4.2347  0.5751  0.3454
 1002MOL0     H32244   3.600   8.510   3.288 -0.6764  1.8556 -2.5850
 1002MOL0     H32245   3.457   8.408   3.332 -0.9947  0.6753  2.1624
 1002MOL0     H32246   3.912   8.795   2.543  1.2789 -0.9477 -0.8652
 1002MOL0     H32247   4.119   8.742   2.471 -0.6599  0.6989  0.4708
 1002MOL0     H32248   4.433   8.745   2.346 -0.9793  2.7011  1.1611
 1002MOL0     H32249   4.623   8.660   2.193 -0.9410  1.4781 -0.6624
 1002MOL0     H32250   6.304   8.533   1.402 -0.2765  0.0006  0.0373
 1002MOL0     H32251   6.508   8.481   1.306 -1.1211  0.5026 -2.2441
 1002MOL0     H32252   6.877   8.373   0.995  1.4863 -0.8995 -0.8276
 1002MOL0     H32253   7.091   8.405   0.888  1.7029 -0.3083  1.2214
 1002MOL0     H32254   7.415   8.694   1.052  0.1122  1.3212  0.3548
 1002MOL0     H32255   7.296   8.795   0.978  0.8532 -0.6665  2.3307
 1002MOL0     H32256   7.363   8.727   0.750 -0.3292  2.2309  0.6082
 1002MOL0     H32257   7.463   8.835   0.850  0.5646 -0.0129 -0.3905
 1002MOL0     H32258   7.536   8.543   0.845  1.0897  0.1290  0.5715
 1002MOL0     H32259   7.623   8.670   0.918  0.8555 -0.3486  0.5493
 1002MOL0     H32260   7.584   8.666   0.614 -1.4803 -0.6183  0.0472
 1002MOL0     H32261   7.679   8.782   0.717 -0.2732 -0.4805 -0.0310
 1002MOL0     H32262   7.934   8.445   0.665 -1.3226 -2.4994  0.3157
 1002MOL0     H32263   7.161   8.746   1.137 -1.3492  0.2711  1.8116
 1002MOL0     H32264   6.952   8.731   1.236 -0.0738 -0.3564  0.8899
 1003MOL0     O32265   3.041   6.045   1.466  0.2613  0.2694 -0.2248
 1003MOL0     C32266   3.101   6.156   1.475  0.6174 -0.0278  0.3169
 1003MOL0     O32267   3.059   6.277   1.526  1.0989  0.5685  0.1057
 1003MOL0     C32268   2.931   6.279   1.578 -0.3704 -0.0153  0.4255
 1003MOL0     C32269   2.903   6.241   1.707 -0.0464  0.9062 -0.4695
 1003MOL0     C32270   2.777   6.258   1.767 -0.1881 -0.0713 -0.3000
 1003MOL0     C32271   2.680   6.323   1.694  0.7301  0.1600 -0.7436
 1003MOL0     O32272   2.553   6.336   1.741  0.1261  0.7434 -0.4794
 1003MOL0     C32273   2.487   6.210   1.725  0.1873  0.3111 -0.2582
 1003MOL0     C32274   2.347   6.218   1.788  0.2362 -0.2091  0.2887
 1003MOL0     C32275   2.296   6.348   1.868 -0.3347  0.5803  0.7459
 1003MOL0     C32276   2.159   6.341   1.939  0.1295  0.0433 -0.5222
 1003MOL0     C32277   2.053   6.302   1.835 -0.1912  0.2058  0.7004
 1003MOL0     C32278   1.923   6.264   1.902 -0.2199  1.0490 -0.1945
 1003MOL0     C32279   1.923   6.121   1.975  0.3533 -1.0562 -0.0825
 1003MOL0     C32280   1.965   6.007   1.878  0.1269 -0.2716  0.2022
 1003MOL0     N32281   1.925   5.876   1.944 -0.3961 -0.0234  0.3435
 1003MOL0     C32282   1.857   5.775   1.889 -0.1024  0.1452  0.1418
 1003MOL0     C32283   1.850   5.679   1.988  0.7994  0.3225 -1.0581
 1003MOL0     C32284   1.771   5.548   1.986  0.3929 -0.0680  0.2631
 1003MOL0     C32285   1.621   5.562   2.024  0.3403 -0.7501 -1.1384
 1003MOL0     C32286   1.534   5.637   1.924 -0.1544  0.1802  0.0510
 1003MOL0     C32287   1.390   5.609   1.974  0.3574 -0.6576  0.4616
 1003MOL0     O32288   1.379   5.663   2.113 -0.9579 -0.2861 -0.0354
 1003MOL0     C32289   1.260   5.665   2.173 -0.0690  0.5171  1.1935
 1003MOL0     C32290   1.256   5.749   2.282 -0.0283  1.0439 -0.4412
 1003MOL0     C32291   1.141   5.761   2.359  0.8557  0.1518 -0.6299
 1003MOL0     C32292   1.027   5.680   2.315  0.0081  0.0428  0.7565
 1003MOL0     C32293   0.891   5.693   2.377  0.2191  0.5488 -0.1480
 1003MOL0     O32294   0.787   5.640   2.307  0.4985 -0.4991  0.7763
 1003MOL0     C32295   0.655   5.618   2.359 -1.3460 -0.5487  0.7451
 1003MOL0     C32296   0.617   5.611   2.493 -0.2346  0.0714  0.1512
 1003MOL0     C32297   0.487   5.588   2.530  1.1015  0.4037 -0.1425
 1003MOL0     C32298   0.379   5.573   2.438 -0.3786  0.5730 -0.6437
 1003MOL0     O32299   0.247   5.536   2.479  0.4921  0.3068 -0.2057
 1003MOL0     C32300   0.183   5.618   2.575  0.5323  0.0481 -0.4224
 1003MOL0     C32301   0.085   5.715   2.496 -0.7824 -0.4637  0.7402
 1003MOL0     C32302   0.003   5.795   2.599 -0.2477  0.4418 -0.7488
 1003MOL0     C32303  -0.122   5.868   2.549  0.3217 -0.1277  0.7850
 1003MOL0     C32304  -0.091   5.949   2.433 -0.2109  0.4278  0.2751
 1003MOL0     C32305  -0.220   6.018   2.390 -0.1849 -0.3084 -0.2761
 1003MOL0     C32306  -0.178   6.118   2.279  0.2576 -0.4526 -1.0880
 1003MOL0     C32307  -0.299   6.208   2.221  1.0956  0.5899  0.1271
 1003MOL0    Cl32308  -0.418   6.270   2.338 -0.4290  0.0350 -0.2351
 1003MOL0     C32309   0.422   5.583   2.306 -0.5154 -0.0812  0.5707
 1003MOL0     C32310   0.551   5.605   2.267  0.0007 -0.6698  0.0464
 1003MOL0     O32311   0.874   5.752   2.475  0.4353  0.0548 -0.1942
 1003MOL0     C32312   1.040   5.594   2.203 -0.4585  0.7095  0.4363
 1003MOL0     C32313   1.157   5.587   2.131  0.4821  0.0222  0.6416
 1003MOL0     N32314   1.923   5.724   2.097  0.6115 -0.1902 -0.3300
 1003MOL0     N32315   1.959   5.843   2.070  0.1544  0.0416 -0.1402
 1003MOL0     C32316   2.709   6.363   1.559 -0.4124 -0.9524  0.5427
 1003MOL0     C32317   2.838   6.351   1.505 -0.2872  0.2897  1.1297
 1003MOL0     C32318   3.227   6.172   1.413 -0.7243  0.7325  0.2333
 1003MOL0     C32319   3.317   6.068   1.395 -0.3226  0.0601 -0.9028
 1003MOL0     C32320   3.454   6.096   1.372 -0.4101 -0.0435  0.0407
 1003MOL0     C32321   3.505   6.224   1.353  0.1098 -0.8734  0.5072
 1003MOL0     O32322   3.639   6.222   1.316  0.7282  0.2747 -0.4264
 1003MOL0     C32323   3.698   6.338   1.267 -0.7556  0.9341  0.6311
 1003MOL0     C32324   3.759   6.417   1.381 -0.1208 -0.4660 -0.4148
 1003MOL0     C32325   3.735   6.569   1.355  0.0415  0.5586 -0.2170
 1003MOL0     C32326   3.832   6.648   1.431 -0.2889 -0.0789  0.5020
 1003MOL0     C32327   3.831   6.619   1.575  0.0490  0.5866 -0.3284
 1003MOL0     C32328   3.826   6.616   1.692  0.0858 -0.2632 -0.9036
 1003MOL0     C32329   3.414   6.324   1.361 -0.7585 -0.0244  0.5983
 1003MOL0     C32330   3.278   6.305   1.392 -0.5477  0.4059 -0.0503
 1003MOL0     H32331   2.995   6.194   1.741  0.0688  0.2632 -1.6403
 1003MOL0     H32332   2.770   6.214   1.866 -0.1111  0.4946 -0.0393
 1003MOL0     H32333   2.541   6.128   1.772  0.3623 -0.2162 -1.3527
 1003MOL0     H32334   2.488   6.186   1.619 -2.5955  0.2211 -0.3307
 1003MOL0     H32335   2.320   6.134   1.853  1.3822  1.6203  3.3208
 1003MOL0     H32336   2.290   6.210   1.694 -0.2651 -1.5551  0.6825
 1003MOL0     H32337   2.302   6.430   1.795  0.3015 -0.7376 -0.7586
 1003MOL0     H32338   2.377   6.355   1.940  1.7249 -2.8821 -0.9504
 1003MOL0     H32339   2.165   6.272   2.024  2.8740  0.3112 -0.3915
 1003MOL0     H32340   2.144   6.442   1.977 -0.2933  0.4138 -1.6343
 1003MOL0     H32341   2.075   6.213   1.775 -2.8422 -0.5414  0.6896
 1003MOL0     H32342   2.044   6.387   1.767  0.3466  0.4622  0.9513
 1003MOL0     H32343   1.836   6.260   1.835  1.8398  2.5051 -3.1686
 1003MOL0     H32344   1.899   6.345   1.971  0.2943 -0.4808  1.8854
 1003MOL0     H32345   1.980   6.120   2.068  0.0204 -1.0963  0.1233
 1003MOL0     H32346   1.820   6.110   2.011  0.2234 -0.2572 -0.1772
 1003MOL0     H32347   2.074   6.010   1.871  0.1408  0.2213  0.6224
 1003MOL0     H32348   1.926   6.020   1.777 -0.4270  2.0025  0.6706
 1003MOL0     H32349   1.817   5.771   1.788 -0.5377 -3.2396  0.3561
 1003MOL0     H32350   1.810   5.480   2.062 -1.5658  0.5681  1.9540
 1003MOL0     H32351   1.770   5.503   1.887 -1.0488  2.1455 -0.8295
 1003MOL0     H32352   1.617   5.590   2.130 -1.3338  0.6466 -1.5327
 1003MOL0     H32353   1.589   5.457   2.029  1.2223 -1.0030 -0.6834
 1003MOL0     H32354   1.547   5.745   1.915 -0.4862  0.2491  0.3442
 1003MOL0     H32355   1.549   5.583   1.831 -1.1456 -0.2124  0.1044
 1003MOL0     H32356   1.381   5.501   1.963 -0.6114 -0.6592  1.2083
 1003MOL0     H32357   1.316   5.665   1.916  0.1933 -2.7425 -1.4700
 1003MOL0     H32358   1.343   5.808   2.307  1.3788  0.7961 -4.0930
 1003MOL0     H32359   1.137   5.828   2.444  2.6942 -0.4637 -0.0073
 1003MOL0     H32360   0.697   5.617   2.566 -2.5351 -1.0174  2.9431
 1003MOL0     H32361   0.453   5.580   2.633  0.1967  0.5321 -0.4171
 1003MOL0     H32362   0.253   5.672   2.639 -1.0729  1.0730  0.5693
 1003MOL0     H32363   0.123   5.551   2.637 -0.3041 -0.0883 -1.3585
 1003MOL0     H32364   0.018   5.651   2.437 -0.4914 -1.1427  1.1387
 1003MOL0     H32365   0.152   5.771   2.429 -0.0077 -0.9891  1.0763
 1003MOL0     H32366   0.072   5.864   2.650 -0.0372 -0.8308  0.7868
 1003MOL0     H32367  -0.027   5.727   2.680 -0.4567  2.4272  0.9332
 1003MOL0     H32368  -0.201   5.794   2.531  1.4462 -0.9516 -1.1394
 1003MOL0     H32369  -0.141   5.948   2.621 -2.4088  0.2423 -0.2385
 1003MOL0     H32370  -0.039   5.895   2.354 -0.9750  1.3629 -0.8991
 1003MOL0     H32371  -0.013   6.023   2.453 -0.4421  1.1732 -1.3828
 1003MOL0     H32372  -0.259   6.069   2.479  0.1146  0.8088 -0.7770
 1003MOL0     H32373  -0.292   5.943   2.354 -1.2102  0.8486 -0.7097
 1003MOL0     H32374  -0.098   6.183   2.313 -0.2781  0.0464 -0.7636
 1003MOL0     H32375  -0.142   6.061   2.193  1.3173  0.0265 -0.9714
 1003MOL0     H32376  -0.354   6.141   2.155 -1.6167  2.0842  0.7476
 1003MOL0     H32377  -0.258   6.292   2.163  0.5882  1.6747  1.2881
 1003MOL0     H32378   0.339   5.563   2.239 -1.1582 -3.0546  2.1181
 1003MOL0     H32379   0.574   5.623   2.162  3.6736  0.8633  0.9458
 1003MOL0     H32380   0.961   5.527   2.171  1.1075 -0.0722 -2.1126
 1003MOL0     H32381   1.164   5.516   2.048  4.6205  0.6037  0.2560
 1003MOL0     H32382   2.635   6.409   1.494 -0.1287  0.1827  0.9949
 1003MOL0     H32383   2.865   6.390   1.407 -1.3471 -1.8494 -0.0905
 1003MOL0     H32384   3.283   5.964   1.397 -0.2967  0.0259 -1.8034
 1003MOL0     H32385   3.531   6.025   1.345  0.0708  1.3697 -2.7069
 1003MOL0     H32386   3.621   6.394   1.212 -3.0781 -3.3536 -0.9798
 1003MOL0     H32387   3.774   6.322   1.191 -0.1851  0.8505  1.2136
 1003MOL0     H32388   3.706   6.385   1.471  0.9288 -1.1806 -0.0364
 1003MOL0     H32389   3.863   6.396   1.406 -0.7340 -1.7999  1.1761
 1003MOL0     H32390   3.633   6.580   1.393  0.0192 -2.5402  0.9459
 1003MOL0     H32391   3.743   6.591   1.249 -0.2984 -1.9702 -0.8299
 1003MOL0     H32392   3.931   6.628   1.390 -0.0070 -1.3116  1.6940
 1003MOL0     H32393   3.794   6.748   1.409 -2.2473 -1.2114 -1.6796
 1003MOL0     H32394   3.821   6.624   1.799  0.4991  2.1289 -1.0238
 1003MOL0     H32395   3.449   6.427   1.357 -0.3280 -0.1714  0.4682
 1003MOL0     H32396   3.213   6.392   1.395 -0.8915  0.1126  1.8383
 1004MOL0     O32397   2.482   0.972   8.842 -0.5057  0.0547  0.0012
 1004MOL0     C32398   2.561   1.032   8.911  0.2746  0.4338  0.5489
 1004MOL0     O32399   2.544   1.094   9.029 -0.0203  0.3191  0.5676
 1004MOL0     C32400   2.423   1.140   9.054  1.1901  0.4835 -0.2985
 1004MOL0     C32401   2.356   1.219   8.959 -1.1208 -0.8411 -0.2333
 1004MOL0     C32402   2.229   1.274   8.987 -0.4885 -0.1637 -0.1839
 1004MOL0     C32403   2.165   1.249   9.111 -0.2961 -0.2050  0.2063
 1004MOL0     O32404   2.054   1.308   9.159 -0.4036 -0.3125 -0.0157
 1004MOL0     C32405   1.952   1.332   9.067 -0.8508 -1.0920  0.3511
 1004MOL0     C32406   1.820   1.335   9.142 -0.1601  0.8528  0.5040
 1004MOL0     C32407   1.694   1.350   9.058  0.1690  0.2596  0.2198
 1004MOL0     C32408   1.583   1.358   9.166 -0.0953 -1.0731 -0.0670
 1004MOL0     C32409   1.443   1.387   9.113  0.1035  0.7292 -0.4768
 1004MOL0     C32410   1.352   1.304   9.206  0.0974  0.9914 -0.3784
 1004MOL0     C32411   1.216   1.357   9.206  0.3283 -0.2520 -0.0704
 1004MOL0     C32412   1.151   1.368   9.345 -0.1618  0.8315 -0.6900
 1004MOL0     N32413   1.036   1.283   9.350 -0.5099  0.6856  0.8319
 1004MOL0     C32414   0.914   1.311   9.408 -0.1477  0.0677  0.2716
 1004MOL0     C32415   0.839   1.199   9.411  0.3875 -0.0484 -0.1545
 1004MOL0     C32416   0.694   1.191   9.448  0.2204  0.2474 -0.1493
 1004MOL0     C32417   0.597   1.249   9.339 -0.1852  0.8459  0.2672
 1004MOL0     C32418   0.454   1.267   9.394  0.0225  0.7664 -0.1773
 1004MOL0     C32419   0.365   1.286   9.281 -0.7176 -0.1726  0.0730
 1004MOL0     O32420   0.234   1.332   9.322 -0.1871  0.0765  0.3123
 1004MOL0     C32421   0.135   1.252   9.274 -0.0683  0.2216 -0.4763
 1004MOL0     C32422   0.076   1.275   9.148 -1.0859  1.5759  1.1749
 1004MOL0     C32423  -0.045   1.202   9.116 -0.8044 -0.3069 -0.3879
 1004MOL0     C32424  -0.114   1.115   9.203 -0.1630 -0.5177 -0.2402
 1004MOL0     C32425  -0.239   1.049   9.144  0.3428 -0.3761 -0.3063
 1004MOL0     O32426  -0.279   1.077   9.022  0.2226 -0.1175  0.3323
 1004MOL0     C32427  -0.397   1.020   8.975  0.0844  0.3051 -0.0012
 1004MOL0     C32428  -0.521   1.085   8.955 -0.2945 -0.6204  0.0435
 1004MOL0     C32429  -0.633   1.021   8.898  0.6078 -1.7093 -0.4020
 1004MOL0     C32430  -0.628   0.899   8.840 -0.0047  0.8632 -0.0026
 1004MOL0     O32431  -0.738   0.859   8.773 -0.6768  0.0800 -0.3245
 1004MOL0     C32432  -0.732   0.723   8.718 -0.7690  0.3070  0.0690
 1004MOL0     C32433  -0.851   0.679   8.639  0.4555 -1.3234 -0.3499
 1004MOL0     C32434  -0.849   0.528   8.611 -0.8133 -0.3681  0.0301
 1004MOL0     C32435  -0.969   0.498   8.519  0.1530  0.2456  0.5350
 1004MOL0     C32436  -0.945   0.372   8.442 -0.2371  0.1237 -0.3080
 1004MOL0     C32437  -1.048   0.368   8.326 -0.5805 -0.1428  0.1567
 1004MOL0     C32438  -1.052   0.242   8.247  0.0304 -0.0526  0.8669
 1004MOL0     C32439  -1.109   0.121   8.301  0.3144  1.1013  0.5215
 1004MOL0    Cl32440  -1.128  -0.025   8.194  0.0412 -0.1758  0.1197
 1004MOL0     C32441  -0.504   0.829   8.855  0.0440 -1.0674 -0.0072
 1004MOL0     C32442  -0.395   0.887   8.919  0.2607 -0.4347  0.0181
 1004MOL0     O32443  -0.295   0.969   9.221 -0.4573  0.2384  0.3686
 1004MOL0     C32444  -0.052   1.093   9.332  0.3047 -0.2188 -0.3015
 1004MOL0     C32445   0.070   1.163   9.363 -0.6741 -0.2840 -0.4887
 1004MOL0     N32446   0.916   1.093   9.360  0.0103  0.5072  0.4450
 1004MOL0     N32447   1.037   1.138   9.333 -0.1622  0.3491  0.5749
 1004MOL0     C32448   2.237   1.178   9.203 -1.0562  0.1854  0.3853
 1004MOL0     C32449   2.364   1.125   9.178 -0.5575  0.6636 -0.7310
 1004MOL0     C32450   2.698   1.033   8.868  0.2148  0.4534  0.5295
 1004MOL0     C32451   2.722   1.052   8.733  0.1484  0.4311 -0.1319
 1004MOL0     C32452   2.842   1.049   8.683 -0.6425 -0.1135 -0.1643
 1004MOL0     C32453   2.959   1.062   8.767 -0.0014  0.0450  0.8452
 1004MOL0     O32454   3.079   1.067   8.709  0.9793 -0.3308  0.4883
 1004MOL0     C32455   3.199   1.069   8.787  0.0045  0.2701  0.8557
 1004MOL0     C32456   3.241   0.926   8.829 -0.4940  0.3616 -0.2752
 1004MOL0     C32457   3.287   0.845   8.703  0.0814  0.4296 -1.0604
 1004MOL0     C32458   3.393   0.907   8.618 -0.5851 -0.2730  0.6254
 1004MOL0     C32459   3.508   0.959   8.685  0.1507  0.8749  0.0009
 1004MOL0     C32460   3.619   0.991   8.734 -0.1198  0.4251 -0.0837
 1004MOL0     C32461   2.938   1.052   8.906  0.4068 -0.2085 -0.2703
 1004MOL0     C32462   2.809   1.036   8.955  0.6059 -0.2678  0.5314
 1004MOL0     H32463   2.392   1.252   8.862  0.4360 -1.0282  0.2526
 1004MOL0     H32464   2.191   1.346   8.916 -2.0329 -0.8957 -0.1567
 1004MOL0     H32465   1.963   1.266   8.981  1.0709  0.6709 -0.8441
 1004MOL0     H32466   1.975   1.433   9.031  1.6992 -2.0888 -1.0441
 1004MOL0     H32467   1.828   1.416   9.215  1.3646 -0.9230  2.4344
 1004MOL0     H32468   1.811   1.240   9.197 -1.4278 -1.3026 -3.0636
 1004MOL0     H32469   1.675   1.264   8.993  0.3914 -0.5450  1.2012
 1004MOL0     H32470   1.701   1.440   8.997  1.8033 -0.2488 -0.4023
 1004MOL0     H32471   1.585   1.258   9.209  1.7811 -0.0505  2.5142
 1004MOL0     H32472   1.616   1.420   9.250  1.2340  0.9949 -2.0030
 1004MOL0     H32473   1.429   1.339   9.016  0.2206  1.6353 -0.9564
 1004MOL0     H32474   1.423   1.495   9.107  0.6155  0.7863 -1.2986
 1004MOL0     H32475   1.385   1.296   9.310 -4.1884  1.3278  1.2201
 1004MOL0     H32476   1.353   1.203   9.165 -1.2246  1.3317 -1.3042
 1004MOL0     H32477   1.215   1.458   9.164 -1.3138 -0.0237  0.4293
 1004MOL0     H32478   1.158   1.289   9.143  0.9462 -3.2707  2.4237
 1004MOL0     H32479   1.104   1.467   9.351 -1.8685  0.0743 -0.7767
 1004MOL0     H32480   1.209   1.341   9.434 -0.7103  1.2511 -0.1961
 1004MOL0     H32481   0.883   1.407   9.449  2.5692  0.6127  1.2541
 1004MOL0     H32482   0.680   1.236   9.547 -2.0299  1.0722 -0.7779
 1004MOL0     H32483   0.668   1.084   9.453 -2.2534  0.7157 -1.2717
 1004MOL0     H32484   0.607   1.190   9.247  0.7333  1.7869 -0.2688
 1004MOL0     H32485   0.638   1.347   9.314 -1.7766  1.8072  1.2594
 1004MOL0     H32486   0.425   1.179   9.452 -1.6051  1.1632 -0.3436
 1004MOL0     H32487   0.433   1.347   9.466 -2.3862  0.6399 -0.6433
 1004MOL0     H32488   0.362   1.187   9.235 -2.0398 -0.1548  0.0854
 1004MOL0     H32489   0.417   1.357   9.216  2.6298  0.1519  2.8387
 1004MOL0     H32490   0.114   1.344   9.073 -0.1523  0.5146  0.6530
 1004MOL0     H32491  -0.099   1.221   9.024  0.0285 -1.0164 -1.0333
 1004MOL0     H32492  -0.539   1.182   9.001 -1.6436 -1.1910  0.7663
 1004MOL0     H32493  -0.726   1.075   8.888  1.4961  0.0831  0.6139
 1004MOL0     H32494  -0.727   0.648   8.798 -0.6457 -1.3248 -1.4148
 1004MOL0     H32495  -0.641   0.704   8.661 -0.2378  0.0109  0.9920
 1004MOL0     H32496  -0.858   0.737   8.546 -3.0027 -0.8321  0.0616
 1004MOL0     H32497  -0.935   0.702   8.705  0.8286 -2.3345  0.4981
 1004MOL0     H32498  -0.836   0.467   8.701  1.7723  2.1933  1.5560
 1004MOL0     H32499  -0.766   0.493   8.549 -3.7402 -3.8470 -2.3879
 1004MOL0     H32500  -1.051   0.474   8.586 -0.7702 -3.0649 -1.5655
 1004MOL0     H32501  -0.987   0.575   8.443  2.0943 -1.0481 -1.3285
 1004MOL0     H32502  -0.953   0.284   8.506 -0.8071 -0.3578 -1.0246
 1004MOL0     H32503  -0.842   0.366   8.404  1.3302  2.1384  3.1099
 1004MOL0     H32504  -1.033   0.454   8.259  1.5648 -1.1972 -0.8417
 1004MOL0     H32505  -1.150   0.377   8.364  0.5116  0.2188  3.2452
 1004MOL0     H32506  -1.106   0.258   8.154 -1.0065 -1.8231  1.1284
 1004MOL0     H32507  -0.947   0.218   8.226 -0.0028  0.1806  0.4348
 1004MOL0     H32508  -1.209   0.143   8.339 -0.4886 -0.0463 -0.8438
 1004MOL0     H32509  -1.057   0.080   8.388 -2.2836  0.6820  1.9898
 1004MOL0     H32510  -0.485   0.737   8.801  0.4212 -0.8497 -0.2498
 1004MOL0     H32511  -0.311   0.818   8.923  0.4611 -0.1541  0.9903
 1004MOL0     H32512  -0.097   1.024   9.404 -1.0514  0.7140 -0.2218
 1004MOL0     H32513   0.122   1.152   9.458 -0.7086  2.1127 -0.1216
 1004MOL0     H32514   2.190   1.173   9.301  2.8427  5.7221  3.1241
 1004MOL0     H32515   2.395   1.065   9.263 -4.1816 -0.4885 -0.0310
 1004MOL0     H32516   2.635   1.042   8.669 -1.2500  1.3732  1.5263
 1004MOL0     H32517   2.850   1.047   8.575 -0.3599 -2.0880 -0.1346
 1004MOL0     H32518   3.183   1.123   8.881 -1.4409  2.4727 -0.5467
 1004MOL0     H32519   3.279   1.124   8.738 -0.9157 -0.0054 -1.0535
 1004MOL0     H32520   3.324   0.932   8.900  0.4227 -1.2950 -1.1519
 1004MOL0     H32521   3.158   0.877   8.880 -3.0391  3.5151 -1.0448
 1004MOL0     H32522   3.206   0.819   8.634 -1.3395  5.3510 -1.6639
 1004MOL0     H32523   3.322   0.753   8.749  2.2218  0.4763 -2.4064
 1004MOL0     H32524   3.425   0.832   8.545 -2.2526 -1.9812  1.5410
 1004MOL0     H32525   3.346   0.988   8.561  0.3683 -1.6903 -2.3922
 1004MOL0     H32526   3.713   1.015   8.779  0.6920  0.0377 -1.5277
 1004MOL0     H32527   3.014   1.049   8.982 -0.6346  0.0017  0.8085
 1004MOL0     H32528   2.800   1.013   9.061 -1.8913 -3.2103 -0.1888
 1005MOL0     O32529   5.650   2.285   0.098  0.4052  0.3201 -0.4743
 1005MOL0     C32530   5.738   2.271   0.006  1.2257  0.5166  1.6137
 1005MOL0     O32531   5.725   2.192  -0.108 -0.3995  0.4766 -0.0291
 1005MOL0     C32532   5.612   2.128  -0.145 -0.8480 -0.6717  0.2543
 1005MOL0     C32533   5.620   2.014  -0.222  2.0142  0.1767 -0.2083
 1005MOL0     C32534   5.504   1.951  -0.273 -0.2181  0.3975  0.0439
 1005MOL0     C32535   5.378   2.006  -0.254 -1.1246  0.0676 -0.0242
 1005MOL0     O32536   5.276   1.929  -0.295  0.0344  0.5901 -0.1071
 1005MOL0     C32537   5.148   1.930  -0.229  0.2844 -0.9945 -0.1433
 1005MOL0     C32538   5.059   1.806  -0.233 -0.1615 -0.3204  0.2591
 1005MOL0     C32539   4.932   1.843  -0.151  0.3955 -0.0800  0.0499
 1005MOL0     C32540   4.811   1.744  -0.183  0.0736  0.3819 -0.1672
 1005MOL0     C32541   4.679   1.809  -0.115 -0.5073 -0.2621  0.3481
 1005MOL0     C32542   4.687   1.800   0.040  0.1087  0.2472  0.2218
 1005MOL0     C32543   4.547   1.804   0.108 -0.4123  0.4196  0.6585
 1005MOL0     C32544   4.549   1.855   0.254 -0.0195 -0.2290  0.2202
 1005MOL0     N32545   4.418   1.897   0.302  0.9442  0.0058 -0.4814
 1005MOL0     C32546   4.322   1.813   0.349 -0.6598 -0.1475 -0.7699
 1005MOL0     C32547   4.212   1.890   0.355 -0.2517 -0.7400 -0.4009
 1005MOL0     C32548   4.078   1.852   0.421 -0.3626  0.2079  0.0291
 1005MOL0     C32549   3.964   1.913   0.340  0.2181  1.0847 -0.1362
 1005MOL0     C32550   3.825   1.902   0.406 -0.1038  0.7838 -0.1221
 1005MOL0     C32551   3.710   1.948   0.306 -0.7187  0.0816  0.1578
 1005MOL0     O32552   3.617   1.842   0.288  0.5456  0.2116  0.9431
 1005MOL0     C32553   3.476   1.854   0.303  0.1868 -0.5128 -0.0504
 1005MOL0     C32554   3.408   1.979   0.302 -0.4075  0.6280 -1.0375
 1005MOL0     C32555   3.272   1.979   0.302  0.6189 -0.0759  0.6074
 1005MOL0     C32556   3.197   1.855   0.297  0.1138  0.0101  1.2123
 1005MOL0     C32557   3.047   1.847   0.287 -0.1640 -0.1128 -0.5571
 1005MOL0     O32558   2.988   1.729   0.279 -0.6040  0.1456  0.3135
 1005MOL0     C32559   2.850   1.712   0.283 -0.0211  0.6566  0.4712
 1005MOL0     C32560   2.760   1.788   0.359  0.1240  0.2936 -0.0867
 1005MOL0     C32561   2.626   1.750   0.377  0.3343  0.1577  0.2514
 1005MOL0     C32562   2.568   1.648   0.300  0.2285 -0.1212 -0.5371
 1005MOL0     O32563   2.433   1.612   0.310 -0.0722  0.1618 -0.2567
 1005MOL0     C32564   2.338   1.697   0.374 -0.0524  0.1368  1.3163
 1005MOL0     C32565   2.202   1.694   0.307 -0.8456 -0.4484  0.8781
 1005MOL0     C32566   2.118   1.573   0.356 -0.5080  0.5046 -0.1136
 1005MOL0     C32567   1.978   1.573   0.289 -0.1093 -0.5607 -0.4579
 1005MOL0     C32568   1.884   1.456   0.305 -0.0237  1.1314  0.2133
 1005MOL0     C32569   1.875   1.400   0.450  0.3271 -0.0117  0.9941
 1005MOL0     C32570   1.820   1.488   0.562 -0.0481  0.6521 -0.9960
 1005MOL0     C32571   1.668   1.526   0.550 -0.1554  0.2929 -0.2123
 1005MOL0    Cl32572   1.661   1.710   0.534 -0.1244  0.0773  0.4856
 1005MOL0     C32573   2.654   1.568   0.219  0.8527  0.1568 -0.5049
 1005MOL0     C32574   2.795   1.592   0.225  0.1592  1.2269  0.5859
 1005MOL0     O32575   2.978   1.952   0.278 -0.1071 -0.0501 -0.5715
 1005MOL0     C32576   3.259   1.735   0.314  0.3140  0.5812  0.4303
 1005MOL0     C32577   3.402   1.734   0.308  0.1431 -0.7731  0.2330
 1005MOL0     N32578   4.236   2.017   0.297  0.8654 -0.0997 -0.2556
 1005MOL0     N32579   4.361   2.027   0.284 -0.8145 -0.6833  0.9562
 1005MOL0     C32580   5.371   2.126  -0.184  0.4480 -0.8405 -0.3451
 1005MOL0     C32581   5.491   2.185  -0.130 -0.3890  0.2319 -0.5296
 1005MOL0     C32582   5.852   2.362   0.026 -0.6914 -0.0072  0.1193
 1005MOL0     C32583   5.881   2.420   0.152  0.0753  0.0159 -0.3327
 1005MOL0     C32584   5.997   2.493   0.177 -0.2309  0.0426  0.1998
 1005MOL0     C32585   6.081   2.524   0.067  0.5193 -0.3663  1.1965
 1005MOL0     O32586   6.196   2.589   0.098  0.0918  0.2632 -0.0283
 1005MOL0     C32587   6.299   2.590   0.002 -0.1890  0.4318  0.8846
 1005MOL0     C32588   6.418   2.656   0.064 -0.2020  0.2097 -1.2911
 1005MOL0     C32589   6.393   2.797   0.116  0.0279  0.3249  0.2531
 1005MOL0     C32590   6.511   2.884   0.118 -1.1154  0.1891  0.4333
 1005MOL0     C32591   6.480   3.014   0.076 -0.4225 -0.3078 -0.3037
 1005MOL0     C32592   6.471   3.136   0.066 -0.3056  0.5162 -0.0412
 1005MOL0     C32593   6.053   2.471  -0.066  0.1146  0.5343  0.0531
 1005MOL0     C32594   5.941   2.389  -0.080  0.8655  0.6594 -0.0423
 1005MOL0     H32595   5.710   1.959  -0.245  1.2212 -3.0243  3.2593
 1005MOL0     H32596   5.518   1.869  -0.342  0.0365  0.5447 -0.0783
 1005MOL0     H32597   5.092   2.014  -0.269 -1.7351 -2.5486 -0.7384
 1005MOL0     H32598   5.174   1.946  -0.123  1.4251 -2.5914 -0.1419
 1005MOL0     H32599   5.109   1.726  -0.178 -2.9008 -0.2350  3.1490
 1005MOL0     H32600   5.038   1.784  -0.338 -0.1284  3.5991 -0.7054
 1005MOL0     H32601   4.899   1.945  -0.172 -1.9821 -0.2866  2.3089
 1005MOL0     H32602   4.952   1.835  -0.044 -0.0332  0.5207  0.1772
 1005MOL0     H32603   4.786   1.718  -0.286 -2.3150  1.5510  0.0400
 1005MOL0     H32604   4.831   1.651  -0.129 -2.6337 -0.4257 -0.4233
 1005MOL0     H32605   4.584   1.772  -0.155 -0.4561 -0.1143  0.0867
 1005MOL0     H32606   4.676   1.917  -0.132  0.3772 -0.1655  0.7927
 1005MOL0     H32607   4.733   1.895   0.071 -1.1283  0.7731  0.4982
 1005MOL0     H32608   4.741   1.714   0.080 -2.7637 -1.2403  1.1257
 1005MOL0     H32609   4.475   1.863   0.051  1.0951  1.0506 -0.6818
 1005MOL0     H32610   4.515   1.701   0.121 -0.5244  0.2428 -0.8806
 1005MOL0     H32611   4.619   1.939   0.262  1.5954 -1.2101 -2.2232
 1005MOL0     H32612   4.586   1.771   0.314 -1.1345 -1.6759 -1.0238
 1005MOL0     H32613   4.337   1.708   0.373 -1.9823 -0.1702  0.0606
 1005MOL0     H32614   4.069   1.881   0.526 -1.6989 -0.3629  0.0889
 1005MOL0     H32615   4.070   1.743   0.418  1.1748  0.0774 -0.1900
 1005MOL0     H32616   3.971   1.854   0.249 -0.3240 -1.1144  1.1754
 1005MOL0     H32617   3.983   2.018   0.313 -0.3175  1.5269  1.0992
 1005MOL0     H32618   3.809   1.800   0.443  2.1971  0.8552  1.2601
 1005MOL0     H32619   3.818   1.962   0.498  1.3314  1.3062 -0.3300
 1005MOL0     H32620   3.754   1.968   0.209 -0.7861  2.8638  0.6142
 1005MOL0     H32621   3.657   2.035   0.348 -0.7016  0.9245 -1.4953
 1005MOL0     H32622   3.455   2.076   0.311  1.3789 -0.1690 -1.3354
 1005MOL0     H32623   3.222   2.075   0.307  0.2901 -0.2163  0.0965
 1005MOL0     H32624   2.788   1.867   0.428 -1.8748 -0.8441  2.1797
 1005MOL0     H32625   2.577   1.811   0.452  1.5780 -0.5530  1.7035
 1005MOL0     H32626   2.363   1.803   0.366 -0.6118  0.3933  2.8225
 1005MOL0     H32627   2.321   1.675   0.479  0.0472 -1.0306  1.1059
 1005MOL0     H32628   2.217   1.695   0.198 -0.5589  1.1623  0.9153
 1005MOL0     H32629   2.150   1.787   0.334 -2.2163 -1.1717  0.8532
 1005MOL0     H32630   2.109   1.566   0.464  0.3973  2.4345  0.1413
 1005MOL0     H32631   2.178   1.484   0.338  0.5003  0.7750  1.6597
 1005MOL0     H32632   1.933   1.661   0.335  1.3457 -0.4785  0.8600
 1005MOL0     H32633   1.976   1.599   0.182 -0.0914  0.2177 -0.2735
 1005MOL0     H32634   1.905   1.379   0.230 -2.3717  0.8897 -0.2990
 1005MOL0     H32635   1.785   1.479   0.264  0.6436  0.7734 -1.7167
 1005MOL0     H32636   1.975   1.368   0.482  0.6450  1.4221  1.5384
 1005MOL0     H32637   1.825   1.304   0.437  0.0765  0.4304 -2.0079
 1005MOL0     H32638   1.834   1.439   0.659 -1.0768  4.3363  1.2477
 1005MOL0     H32639   1.885   1.575   0.565 -0.3174  0.8392 -0.2474
 1005MOL0     H32640   1.622   1.484   0.640 -1.2202 -0.7304 -1.2102
 1005MOL0     H32641   1.625   1.462   0.473 -1.0889  0.4153  0.1890
 1005MOL0     H32642   2.631   1.489   0.149  0.6807  1.0203 -1.4625
 1005MOL0     H32643   2.859   1.540   0.155 -0.7997  1.3420 -0.3939
 1005MOL0     H32644   3.202   1.643   0.321  2.5050 -1.0842 -1.7342
 1005MOL0     H32645   3.457   1.641   0.307 -1.0633 -1.5246  0.8967
 1005MOL0     H32646   5.274   2.172  -0.172 -0.0887 -1.6706 -1.3322
 1005MOL0     H32647   5.488   2.283  -0.085  1.2366 -0.3813  1.0690
 1005MOL0     H32648   5.830   2.383   0.240  2.5821 -1.4465  0.5896
 1005MOL0     H32649   6.032   2.523   0.275  1.4605 -2.3779  0.4249
 1005MOL0     H32650   6.268   2.643  -0.089  1.4304 -4.1250 -2.7100
 1005MOL0     H32651   6.322   2.493  -0.043  0.1953  0.9910 -0.1584
 1005MOL0     H32652   6.470   2.591   0.135  0.8194  0.2413 -1.9915
 1005MOL0     H32653   6.487   2.654  -0.020  1.2524 -2.6730 -0.1850
 1005MOL0     H32654   6.356   2.787   0.218 -0.8169  0.5909 -0.0202
 1005MOL0     H32655   6.312   2.831   0.050 -0.7300 -0.8326  0.5680
 1005MOL0     H32656   6.556   2.896   0.217 -0.3312  0.9260  0.0039
 1005MOL0     H32657   6.589   2.846   0.051  1.0755  1.4496  2.1285
 1005MOL0     H32658   6.462   3.241   0.049 -1.8781  0.4862  0.4709
 1005MOL0     H32659   6.123   2.491  -0.147 -0.7446  1.4113 -0.4971
 1005MOL0     H32660   5.921   2.350  -0.180 -0.1830  0.9441  0.0469
 1006MOL0     O32661   9.473   6.390   4.106 -0.6232  0.5129 -0.7383
 1006MOL0     C32662   9.519   6.344   4.208  0.6610 -0.3687 -1.1180
 1006MOL0     O32663   9.455   6.249   4.288  0.0254  1.5222 -0.4031
 1006MOL0     C32664   9.329   6.197   4.251  0.0524 -0.5482  1.0082
 1006MOL0     C32665   9.299   6.065   4.282  0.5889  0.1345 -0.6199
 1006MOL0     C32666   9.165   6.018   4.274 -0.8567  0.0879  0.6322
 1006MOL0     C32667   9.058   6.091   4.216 -0.3520 -0.9004  0.6121
 1006MOL0     O32668   8.928   6.053   4.208  0.3016  0.8094 -0.5931
 1006MOL0     C32669   8.891   5.958   4.301  0.1646 -0.3173 -0.4518
 1006MOL0     C32670   8.733   5.949   4.290 -0.2494 -0.6790 -0.7406
 1006MOL0     C32671   8.684   5.955   4.144  1.4302 -0.6835  0.4100
 1006MOL0     C32672   8.533   5.918   4.117 -0.2171 -0.1968 -0.3000
 1006MOL0     C32673   8.482   5.949   3.973 -0.4802  0.0511  0.0898
 1006MOL0     C32674   8.327   5.966   3.955 -0.3983 -0.1745  0.4546
 1006MOL0     C32675   8.250   5.835   3.954  0.1200  0.2569 -0.2837
 1006MOL0     C32676   8.096   5.873   3.937 -0.8834  0.5364 -0.1742
 1006MOL0     N32677   8.012   5.754   3.956  0.1760  0.3205  0.0364
 1006MOL0     C32678   7.912   5.722   3.869  1.0286  0.8055  0.2098
 1006MOL0     C32679   7.853   5.611   3.920  0.4338 -0.0842 -0.0139
 1006MOL0     C32680   7.731   5.532   3.881 -0.4329  0.3423  0.2009
 1006MOL0     C32681   7.613   5.557   3.972  0.8383  0.8813 -0.0540
 1006MOL0     C32682   7.573   5.697   3.954  0.4663 -0.2757 -0.1879
 1006MOL0     C32683   7.586   5.781   4.081  0.3608  0.7045 -0.2060
 1006MOL0     O32684   7.515   5.902   4.081 -0.9847 -0.0678 -0.9757
 1006MOL0     C32685   7.381   5.913   4.079 -0.0878  0.2729  0.5566
 1006MOL0     C32686   7.297   5.803   4.095  0.6443  0.1905 -0.4462
 1006MOL0     C32687   7.152   5.813   4.073  0.3601 -0.1567 -0.2973
 1006MOL0     C32688   7.094   5.946   4.055 -0.9418 -0.8451 -0.5554
 1006MOL0     C32689   6.961   5.975   4.016 -0.7898  0.1729 -0.7882
 1006MOL0     O32690   6.862   5.899   4.080 -0.2117  0.1544 -0.2200
 1006MOL0     C32691   6.743   5.889   4.015  0.2700  0.7732  0.1453
 1006MOL0     C32692   6.635   5.971   4.057 -0.3837 -0.1359 -0.0010
 1006MOL0     C32693   6.514   5.962   3.995  0.1240  1.0199 -0.7495
 1006MOL0     C32694   6.496   5.876   3.881  0.7939  0.1178 -0.7831
 1006MOL0     O32695   6.366   5.875   3.824 -0.0781 -0.1052 -0.2172
 1006MOL0     C32696   6.355   5.865   3.685 -0.0314 -0.6166  0.1057
 1006MOL0     C32697   6.230   5.930   3.621  0.0403 -0.7351 -0.3119
 1006MOL0     C32698   6.117   5.825   3.610 -0.3017  0.2065  0.0840
 1006MOL0     C32699   5.998   5.903   3.549 -0.3494  0.5058  0.0011
 1006MOL0     C32700   5.870   5.810   3.556  0.4723  0.2519  0.0018
 1006MOL0     C32701   5.882   5.697   3.458 -0.7128  0.4292  1.1371
 1006MOL0     C32702   5.752   5.617   3.449 -0.3365  0.2336 -0.6929
 1006MOL0     C32703   5.772   5.471   3.391  0.3004  0.6406 -0.2615
 1006MOL0    Cl32704   5.617   5.370   3.383  0.0504 -0.0394 -0.2015
 1006MOL0     C32705   6.603   5.801   3.836 -0.5400 -0.6037  0.0741
 1006MOL0     C32706   6.723   5.812   3.902  0.6422  0.8545  0.2859
 1006MOL0     O32707   6.939   6.067   3.940 -0.0696 -0.4536  0.5644
 1006MOL0     C32708   7.186   6.057   4.072  0.1085  0.8535  0.3024
 1006MOL0     C32709   7.324   6.043   4.079 -0.4747  0.6596  0.0295
 1006MOL0     N32710   7.924   5.568   4.035  0.0152 -0.3127  0.8470
 1006MOL0     N32711   8.020   5.656   4.051 -0.3990 -0.3651  0.2767
 1006MOL0     C32712   9.091   6.221   4.182  0.0082  0.2591 -0.2618
 1006MOL0     C32713   9.216   6.281   4.210 -0.3857 -0.0996  0.0858
 1006MOL0     C32714   9.653   6.388   4.257 -0.6221 -0.0926  0.7981
 1006MOL0     C32715   9.734   6.474   4.191  0.2315 -1.0903 -0.4682
 1006MOL0     C32716   9.864   6.512   4.240 -0.5858  0.4815  0.8503
 1006MOL0     C32717   9.912   6.477   4.366  0.6151 -0.2659  0.1919
 1006MOL0     O32718  10.030   6.538   4.410  0.2445  1.4217 -0.0469
 1006MOL0     C32719  10.102   6.471   4.514 -0.0368 -0.5225  0.5872
 1006MOL0     C32720  10.232   6.548   4.551  0.1021  0.4015 -0.8957
 1006MOL0     C32721  10.319   6.573   4.427 -0.3234  0.1696  0.0865
 1006MOL0     C32722  10.437   6.657   4.480 -0.0493  0.2890  0.7265
 1006MOL0     C32723  10.557   6.637   4.389  0.3992  1.1585  0.4302
 1006MOL0     C32724  10.642   6.609   4.309 -0.4873  0.0522  0.3436
 1006MOL0     C32725   9.824   6.395   4.447  0.8390 -0.5123 -0.1237
 1006MOL0     C32726   9.700   6.354   4.385 -0.0377  0.2260 -0.2328
 1006MOL0     H32727   9.367   5.991   4.322 -1.6169 -1.1718  0.9394
 1006MOL0     H32728   9.156   5.918   4.314 -1.0693  0.4978  1.6388
 1006MOL0     H32729   8.916   6.001   4.398 -3.3801 -1.4703  1.1274
 1006MOL0     H32730   8.936   5.859   4.293 -0.6711 -0.6153 -2.2391
 1006MOL0     H32731   8.684   6.030   4.345 -0.6939  1.0190 -3.4360
 1006MOL0     H32732   8.703   5.852   4.330 -2.0182  0.0327 -0.2176
 1006MOL0     H32733   8.740   5.872   4.099  0.7971 -0.7243 -0.3109
 1006MOL0     H32734   8.704   6.056   4.107 -2.5322  0.5332  1.1505
 1006MOL0     H32735   8.501   5.817   4.142  1.0863 -0.3520  0.8584
 1006MOL0     H32736   8.485   5.996   4.178 -0.6113 -2.6630  2.7770
 1006MOL0     H32737   8.522   5.873   3.905 -0.3480  0.1200  0.0915
 1006MOL0     H32738   8.526   6.046   3.950  0.1177  0.9143  4.0722
 1006MOL0     H32739   8.303   6.022   3.865 -0.9383  1.0878  1.3509
 1006MOL0     H32740   8.289   6.011   4.048 -0.0737 -0.2698  0.6332
 1006MOL0     H32741   8.285   5.773   3.871  0.9360 -0.4362  0.5503
 1006MOL0     H32742   8.275   5.776   4.043 -1.6641 -2.3384 -1.3621
 1006MOL0     H32743   8.081   5.916   3.837  1.1570 -0.3842 -0.9390
 1006MOL0     H32744   8.080   5.956   4.007  2.6739  0.0232  1.5087
 1006MOL0     H32745   7.869   5.773   3.782  3.5599  1.2626 -0.8634
 1006MOL0     H32746   7.752   5.425   3.883  1.0400  0.6255  0.8466
 1006MOL0     H32747   7.710   5.559   3.777 -1.9311 -0.1524  0.3535
 1006MOL0     H32748   7.654   5.546   4.073 -0.3460 -1.5316  0.2271
 1006MOL0     H32749   7.530   5.490   3.950  1.4016 -0.5792  2.0020
 1006MOL0     H32750   7.633   5.755   3.883 -1.6037  0.5563 -1.3322
 1006MOL0     H32751   7.472   5.694   3.912 -0.5128  2.2880  1.7227
 1006MOL0     H32752   7.691   5.803   4.100  0.3015 -1.3117  3.5785
 1006MOL0     H32753   7.548   5.732   4.171 -2.3077  1.4317 -0.8481
 1006MOL0     H32754   7.333   5.707   4.128 -3.8385 -2.2628 -1.8535
 1006MOL0     H32755   7.081   5.731   4.076 -0.5933  0.5972 -1.4141
 1006MOL0     H32756   6.655   6.031   4.146 -1.5262  0.2605  0.0048
 1006MOL0     H32757   6.434   6.027   4.027  1.9386  3.0248 -0.0386
 1006MOL0     H32758   6.380   5.766   3.646  0.1778 -0.4798 -0.1111
 1006MOL0     H32759   6.428   5.931   3.638  0.1559  0.1006  1.3506
 1006MOL0     H32760   6.246   5.985   3.528 -1.1942  1.9077  0.9344
 1006MOL0     H32761   6.202   6.011   3.689  1.6672 -0.1936 -0.2534
 1006MOL0     H32762   6.099   5.785   3.710 -3.1258 -0.1120 -0.4609
 1006MOL0     H32763   6.145   5.738   3.549 -0.2374 -0.7495  1.4215
 1006MOL0     H32764   5.990   5.993   3.611  2.1730 -0.3007  1.6356
 1006MOL0     H32765   6.022   5.925   3.445 -1.0746 -2.6739 -0.9609
 1006MOL0     H32766   5.786   5.873   3.528  1.5577  1.5607 -0.4284
 1006MOL0     H32767   5.844   5.769   3.654  0.2093 -0.4389 -0.3510
 1006MOL0     H32768   5.960   5.629   3.492 -1.1545 -1.8656 -2.0889
 1006MOL0     H32769   5.918   5.742   3.365 -3.4017 -0.6167 -0.5155
 1006MOL0     H32770   5.725   5.600   3.554  0.3010 -1.0050 -0.7185
 1006MOL0     H32771   5.681   5.685   3.402 -0.5904  3.0506  3.2344
 1006MOL0     H32772   5.843   5.413   3.450  0.5735  1.0817 -0.1564
 1006MOL0     H32773   5.803   5.484   3.287 -2.2880 -3.6004 -1.8308
 1006MOL0     H32774   6.607   5.721   3.762  2.2883 -1.5100  1.0461
 1006MOL0     H32775   6.802   5.742   3.877 -0.3764 -1.2954  2.7148
 1006MOL0     H32776   7.139   6.155   4.069 -1.7087  0.0318  0.6836
 1006MOL0     H32777   7.388   6.130   4.067  1.2135 -0.8918 -4.9449
 1006MOL0     H32778   9.002   6.269   4.142  0.4211  2.0010  0.8166
 1006MOL0     H32779   9.235   6.386   4.185 -2.1984  0.0106 -0.9820
 1006MOL0     H32780   9.708   6.511   4.093 -0.9422 -1.7697 -0.4275
 1006MOL0     H32781   9.921   6.582   4.180 -1.3678 -0.4220 -1.0181
 1006MOL0     H32782  10.118   6.366   4.486 -0.3921 -0.2127 -0.8719
 1006MOL0     H32783  10.037   6.468   4.602 -2.6330 -1.7914 -1.2148
 1006MOL0     H32784  10.199   6.638   4.604  1.9247  1.7682 -1.9694
 1006MOL0     H32785  10.288   6.490   4.625 -3.8887  0.1104  2.2396
 1006MOL0     H32786  10.258   6.615   4.346 -0.7119 -3.7349 -1.8981
 1006MOL0     H32787  10.355   6.483   4.377 -0.5901  0.9847 -1.6500
 1006MOL0     H32788  10.395   6.758   4.487 -0.9102 -0.0091 -0.1291
 1006MOL0     H32789  10.473   6.630   4.580 -0.4169  2.1836  1.4116
 1006MOL0     H32790  10.729   6.590   4.249 -0.8183 -1.9459  0.4362
 1006MOL0     H32791   9.866   6.348   4.536  0.1279 -3.1561 -1.0762
 1006MOL0     H32792   9.634   6.309   4.459  2.0894  0.9600  2.2787
 1007MOL0     O32793   4.662  10.342   0.466  0.0007 -0.4830  0.9252
 1007MOL0     C32794   4.711  10.453   0.443 -0.0834 -0.9559  1.0110
 1007MOL0     O32795   4.654  10.567   0.463  0.5642 -0.4451 -0.1512
 1007MOL0     C32796   4.522  10.573   0.497  0.0712 -0.0657 -0.1009
 1007MOL0     C32797   4.437  10.534   0.399  0.4920 -0.3061  0.6332
 1007MOL0     C32798   4.300  10.539   0.424 -0.2892 -0.1814  0.6618
 1007MOL0     C32799   4.240  10.593   0.537  1.0074 -0.3702  0.8366
 1007MOL0     O32800   4.103  10.599   0.548  0.1431 -0.1417  0.9603
 1007MOL0     C32801   4.025  10.487   0.491 -0.3176 -0.1903 -0.6519
 1007MOL0     C32802   3.913  10.450   0.583  0.1279 -0.4184 -0.7457
 1007MOL0     C32803   3.812  10.563   0.597  0.4238 -0.2327 -0.2809
 1007MOL0     C32804   3.701  10.515   0.706  0.4286  0.4325  0.4491
 1007MOL0     C32805   3.579  10.587   0.682 -0.1582 -0.1514 -0.6051
 1007MOL0     C32806   3.472  10.522   0.771 -0.0621 -0.0191 -0.1673
 1007MOL0     C32807   3.332  10.585   0.739 -0.2940  1.0414  0.3544
 1007MOL0     C32808   3.213  10.509   0.812 -0.8827 -0.6801  0.1426
 1007MOL0     N32809   3.087  10.559   0.766  0.5238  0.2850  0.1640
 1007MOL0     C32810   3.019  10.669   0.808 -0.0198  0.7803 -0.0998
 1007MOL0     C32811   2.903  10.668   0.729  0.1704 -0.2412 -0.5625
 1007MOL0     C32812   2.807  10.782   0.740 -0.2284 -0.2533  0.3974
 1007MOL0     C32813   2.661  10.759   0.694  0.7441  0.2442  0.3248
 1007MOL0     C32814   2.557  10.830   0.776  0.0912  0.0894  0.0047
 1007MOL0     C32815   2.421  10.762   0.769  0.0743  0.6552  0.3620
 1007MOL0     O32816   2.348  10.809   0.661 -0.6255  0.6724  0.4533
 1007MOL0     C32817   2.214  10.772   0.648 -0.7605 -0.1116  0.8345
 1007MOL0     C32818   2.129  10.721   0.749 -0.0028  0.2820 -0.2756
 1007MOL0     C32819   1.993  10.695   0.726 -0.4665  0.5437  0.4412
 1007MOL0     C32820   1.929  10.721   0.600 -0.5946  0.3056 -0.3588
 1007MOL0     C32821   1.790  10.691   0.580  0.0144  0.5665  0.4855
 1007MOL0     O32822   1.719  10.649   0.692  0.2203 -0.2612  0.6768
 1007MOL0     C32823   1.582  10.655   0.684  0.7170 -0.5598  0.8944
 1007MOL0     C32824   1.500  10.566   0.751  0.1562 -0.4092  0.7793
 1007MOL0     C32825   1.351  10.579   0.744 -0.3095 -0.6249 -0.0720
 1007MOL0     C32826   1.296  10.690   0.685  0.0128  0.3455 -0.0504
 1007MOL0     O32827   1.163  10.714   0.703 -0.4227  0.3547  0.0618
 1007MOL0     C32828   1.090  10.635   0.793  0.7781  0.1541  0.6164
 1007MOL0     C32829   0.942  10.693   0.780 -0.2656  0.2971 -0.6929
 1007MOL0     C32830   0.887  10.690   0.638 -0.1115  0.1539 -0.2075
 1007MOL0     C32831   0.747  10.745   0.628 -0.2993 -0.1836 -0.2717
 1007MOL0     C32832   0.690  10.725   0.487 -0.6907  0.0883  1.2412
 1007MOL0     C32833   0.544  10.763   0.489  0.4273 -0.4918 -1.1848
 1007MOL0     C32834   0.485  10.745   0.348  0.0308 -0.3645 -0.3524
 1007MOL0     C32835   0.331  10.741   0.352 -0.3086 -0.2318 -0.3035
 1007MOL0    Cl32836   0.270  10.885   0.462 -0.0904 -0.5259 -0.2848
 1007MOL0     C32837   1.374  10.779   0.618  0.0141 -0.6746  0.0691
 1007MOL0     C32838   1.515  10.760   0.611  0.9409  0.2331  0.3213
 1007MOL0     O32839   1.758  10.666   0.464  0.0796 -1.0795  0.6296
 1007MOL0     C32840   2.018  10.759   0.502  0.9984 -0.4215 -0.0317
 1007MOL0     C32841   2.149  10.804   0.521  0.4664 -0.3126 -0.2783
 1007MOL0     N32842   2.901  10.570   0.649  0.3215 -0.0143 -0.3263
 1007MOL0     N32843   3.002  10.485   0.679 -0.3545 -0.4160 -0.4517
 1007MOL0     C32844   4.334  10.635   0.633 -0.7756 -0.1460 -0.1984
 1007MOL0     C32845   4.470  10.623   0.618 -0.6489  0.1310  0.1193
 1007MOL0     C32846   4.849  10.464   0.393  0.1295  0.8734 -0.1159
 1007MOL0     C32847   4.916  10.355   0.346  0.1101  0.9035 -0.6177
 1007MOL0     C32848   5.032  10.373   0.267  0.3930 -0.6630  0.0876
 1007MOL0     C32849   5.100  10.488   0.255 -0.6630  0.1593  0.0158
 1007MOL0     O32850   5.215  10.512   0.182  0.1482 -0.2217  0.0339
 1007MOL0     C32851   5.258  10.411   0.091 -0.1242  0.4760  0.0122
 1007MOL0     C32852   5.380  10.481   0.022 -0.0879  0.9140 -0.5684
 1007MOL0     C32853   5.504  10.519   0.105 -1.0614 -0.5044  0.0734
 1007MOL0     C32854   5.561  10.403   0.188 -0.2758  0.2565  0.5286
 1007MOL0     C32855   5.682  10.457   0.242 -0.6723  0.2473  0.4386
 1007MOL0     C32856   5.777  10.533   0.273  0.0910  0.4816 -0.3329
 1007MOL0     C32857   5.050  10.595   0.327  0.7353 -0.2692  0.4248
 1007MOL0     C32858   4.922  10.581   0.388 -0.1444 -0.3002 -0.0064
 1007MOL0     H32859   4.475  10.506   0.301 -0.6077  0.9605 -0.2002
 1007MOL0     H32860   4.237  10.515   0.339  1.4490  0.4184 -0.8465
 1007MOL0     H32861   4.083  10.395   0.475 -1.3830 -0.7465 -1.3966
 1007MOL0     H32862   3.985  10.513   0.393  0.1231 -0.2147 -0.8442
 1007MOL0     H32863   3.941  10.410   0.681  1.2594 -1.3204 -1.4085
 1007MOL0     H32864   3.868  10.364   0.535  0.6253 -1.0497 -0.1026
 1007MOL0     H32865   3.770  10.595   0.501  4.3471 -0.0974 -2.1454
 1007MOL0     H32866   3.871  10.646   0.636 -0.9372  0.9324 -0.6069
 1007MOL0     H32867   3.695  10.407   0.692  3.7602 -0.0839  1.9044
 1007MOL0     H32868   3.731  10.528   0.810  0.0498  2.3613  0.3489
 1007MOL0     H32869   3.552  10.583   0.577  0.1160  0.8438 -0.7287
 1007MOL0     H32870   3.585  10.693   0.709 -1.8233 -0.2922  0.4916
 1007MOL0     H32871   3.494  10.528   0.878  0.3566 -1.3638 -0.1502
 1007MOL0     H32872   3.453  10.415   0.756 -3.6661  0.5205 -0.4569
 1007MOL0     H32873   3.337  10.689   0.771  2.1384  0.5958  1.6308
 1007MOL0     H32874   3.310  10.577   0.632  0.9469  4.1326 -0.2395
 1007MOL0     H32875   3.216  10.537   0.918  0.1068 -0.9056  0.1824
 1007MOL0     H32876   3.219  10.400   0.803 -0.9586 -0.8938  2.2334
 1007MOL0     H32877   3.065  10.747   0.868  0.4219  1.1080 -0.8582
 1007MOL0     H32878   2.850  10.872   0.695 -2.7713  2.1309  2.3402
 1007MOL0     H32879   2.798  10.794   0.848 -0.6759  1.4467  0.2005
 1007MOL0     H32880   2.645  10.651   0.692 -0.4834  0.4293 -0.9411
 1007MOL0     H32881   2.636  10.790   0.592 -0.8182 -0.1615  0.5686
 1007MOL0     H32882   2.590  10.838   0.880  0.4142  1.1591 -0.1680
 1007MOL0     H32883   2.572  10.930   0.734  0.1595 -0.3335 -0.9962
 1007MOL0     H32884   2.361  10.796   0.855 -1.7782 -1.8656  0.1870
 1007MOL0     H32885   2.431  10.654   0.773 -2.0755  0.4476  2.3988
 1007MOL0     H32886   2.172  10.707   0.848  1.7724 -1.3097 -1.1958
 1007MOL0     H32887   1.931  10.664   0.810 -0.4425 -3.4462 -0.8182
 1007MOL0     H32888   1.549  10.488   0.809 -1.3228 -1.0092  1.2657
 1007MOL0     H32889   1.299  10.504   0.803 -1.4525 -2.7513 -3.4880
 1007MOL0     H32890   1.121  10.635   0.898  0.7949  1.0639  0.6193
 1007MOL0     H32891   1.082  10.535   0.750  0.2873  1.0039 -1.4083
 1007MOL0     H32892   0.939  10.794   0.821 -1.0085  1.3256 -3.1267
 1007MOL0     H32893   0.878  10.630   0.842  1.5966 -3.1114 -1.9653
 1007MOL0     H32894   0.885  10.588   0.599  3.6377 -0.0069 -0.3365
 1007MOL0     H32895   0.956  10.746   0.574 -0.0897 -1.1082 -1.3190
 1007MOL0     H32896   0.692  10.694   0.708  0.8324  0.1239  0.7361
 1007MOL0     H32897   0.743  10.850   0.658 -0.3506 -0.3165  0.1959
 1007MOL0     H32898   0.702  10.620   0.460 -2.1457  0.3364 -0.6148
 1007MOL0     H32899   0.738  10.784   0.408  0.1752 -2.4086 -0.2034
 1007MOL0     H32900   0.530  10.869   0.511  3.6762 -0.1731 -0.2535
 1007MOL0     H32901   0.493  10.703   0.565 -1.3242  0.0244 -1.9083
 1007MOL0     H32902   0.513  10.830   0.286 -1.9952  1.8818  1.5789
 1007MOL0     H32903   0.517  10.655   0.294  0.4833 -0.0176 -0.6613
 1007MOL0     H32904   0.303  10.647   0.401  1.5422 -2.0759 -2.5927
 1007MOL0     H32905   0.293  10.736   0.250 -2.7004 -0.1977  0.5193
 1007MOL0     H32906   1.332  10.872   0.579  0.4012  0.2031  1.6692
 1007MOL0     H32907   1.578  10.833   0.562  0.3422 -0.2151 -1.1682
 1007MOL0     H32908   1.974  10.778   0.404 -0.3647  1.7620  0.9190
 1007MOL0     H32909   2.208  10.842   0.439  0.2839 -0.9236 -0.7031
 1007MOL0     H32910   4.297  10.681   0.725 -0.4781 -3.7231  1.9005
 1007MOL0     H32911   4.537  10.650   0.698  0.5503 -2.3578  0.0492
 1007MOL0     H32912   4.876  10.254   0.353  1.0091  0.5056 -1.0521
 1007MOL0     H32913   5.070  10.280   0.226 -1.2269 -1.7108  0.8766
 1007MOL0     H32914   5.177  10.379   0.026 -0.4083  3.8727 -1.5406
 1007MOL0     H32915   5.285  10.329   0.157 -2.0346 -0.7145 -0.6226
 1007MOL0     H32916   5.397  10.404  -0.054 -1.7011  2.0540 -2.1540
 1007MOL0     H32917   5.333  10.563  -0.033 -2.5874  0.2074  0.3632
 1007MOL0     H32918   5.466  10.586   0.182 -1.8638 -0.6785 -0.1595
 1007MOL0     H32919   5.581  10.570   0.048  0.9598 -2.1356  1.2087
 1007MOL0     H32920   5.489  10.382   0.267  2.3845 -0.3469  2.9613
 1007MOL0     H32921   5.588  10.307   0.144 -0.2095  0.2494  0.5853
 1007MOL0     H32922   5.864  10.583   0.310  2.0761 -2.4089 -0.7348
 1007MOL0     H32923   5.103  10.690   0.319  1.4628 -0.0766  4.8867
 1007MOL0     H32924   4.877  10.676   0.413 -2.2669 -0.6929 -1.9816
 1008MOL0     O32925   7.266   0.485   9.170  0.6393 -0.2255 -0.3085
 1008MOL0     C32926   7.324   0.568   9.104 -0.6914 -1.1723  0.9292
 1008MOL0     O32927   7.267   0.665   9.021 -0.0536  0.1676  0.1853
 1008MOL0     C32928   7.132   0.665   8.998 -0.2029 -0.7011  0.3311
 1008MOL0     C32929   7.034   0.636   9.096  0.3169 -0.7783  0.1980
 1008MOL0     C32930   6.893   0.641   9.063 -0.1362  0.7350  0.0474
 1008MOL0     C32931   6.858   0.682   8.934  0.1104 -0.4028  0.4745
 1008MOL0     O32932   6.727   0.704   8.889  0.4824  0.0341  0.3533
 1008MOL0     C32933   6.626   0.632   8.960  0.1280 -0.3271 -1.3346
 1008MOL0     C32934   6.497   0.605   8.884 -0.1220  0.3205 -0.0774
 1008MOL0     C32935   6.380   0.575   8.989  0.1133 -0.4297 -0.5410
 1008MOL0     C32936   6.265   0.488   8.927  0.9948 -0.8053 -0.1847
 1008MOL0     C32937   6.194   0.410   9.037  0.1722 -0.6884  0.9253
 1008MOL0     C32938   6.064   0.352   8.990 -0.6909  0.0922  0.4188
 1008MOL0     C32939   5.951   0.354   9.092  0.0496  0.8700 -0.0503
 1008MOL0     C32940   6.000   0.310   9.233 -0.8575 -0.5296 -1.0500
 1008MOL0     N32941   5.896   0.260   9.319  0.6914  0.3540  0.0510
 1008MOL0     C32942   5.821   0.158   9.281 -0.9924  0.0579  0.1948
 1008MOL0     C32943   5.712   0.155   9.355 -0.3234 -0.1304  0.3091
 1008MOL0     C32944   5.598   0.058   9.351 -0.4656 -0.0777 -0.2580
 1008MOL0     C32945   5.503   0.087   9.234 -0.8119  0.8885 -0.6069
 1008MOL0     C32946   5.385  -0.019   9.211 -1.2963 -0.7253 -0.6469
 1008MOL0     C32947   5.277  -0.016   9.326  1.0678  0.1833  0.6942
 1008MOL0     O32948   5.178  -0.117   9.295 -0.3966  0.1260  0.0845
 1008MOL0     C32949   5.070  -0.134   9.380 -1.0070 -0.7177  0.2396
 1008MOL0     C32950   5.062  -0.100   9.518  0.5225 -0.3520 -0.4166
 1008MOL0     C32951   4.937  -0.121   9.585 -0.4087  0.1393 -0.6600
 1008MOL0     C32952   4.826  -0.170   9.518  0.2625  0.9769  0.7182
 1008MOL0     C32953   4.698  -0.169   9.591  0.3748  0.4108  0.2553
 1008MOL0     O32954   4.690  -0.160   9.729  0.4019 -0.0774 -0.3713
 1008MOL0     C32955   4.570  -0.151   9.788  0.3157  0.0313 -0.1767
 1008MOL0     C32956   4.468  -0.074   9.734  0.3339  0.5270  0.2742
 1008MOL0     C32957   4.354  -0.047   9.808  1.0392 -0.4523  0.6061
 1008MOL0     C32958   4.328  -0.099   9.933 -0.9143 -0.1796 -0.4746
 1008MOL0     O32959   4.222  -0.055  10.012 -0.2389 -0.0055 -0.3836
 1008MOL0     C32960   4.195   0.090  10.023 -0.6975  0.5803  0.2672
 1008MOL0     C32961   4.059   0.114  10.093  0.4406 -0.0320 -0.0088
 1008MOL0     C32962   4.051   0.241  10.189  0.9212 -0.0318  0.1239
 1008MOL0     C32963   4.079   0.366  10.110  1.1734  0.6288  1.0680
 1008MOL0     C32964   3.976   0.405  10.006  0.3987 -0.6239  0.7371
 1008MOL0     C32965   3.841   0.430  10.067 -0.2747  0.0084 -1.0554
 1008MOL0     C32966   3.763   0.503   9.961 -0.4062 -0.0081  0.1905
 1008MOL0     C32967   3.644   0.581  10.018 -0.1911  0.0620 -0.2266
 1008MOL0    Cl32968   3.534   0.471  10.096  0.2174 -0.4611  0.0872
 1008MOL0     C32969   4.419  -0.196   9.979  0.1694  0.2520 -0.2119
 1008MOL0     C32970   4.540  -0.224   9.903  0.0747  0.5166  0.5894
 1008MOL0     O32971   4.597  -0.186   9.514  0.5772  0.1062  0.3635
 1008MOL0     C32972   4.835  -0.214   9.385 -0.3351  0.9886  0.9462
 1008MOL0     C32973   4.959  -0.194   9.318 -0.3326  0.5739  0.0009
 1008MOL0     N32974   5.723   0.271   9.440  0.5716  0.3475  0.6546
 1008MOL0     N32975   5.823   0.341   9.410  0.3782  0.1590 -1.0480
 1008MOL0     C32976   6.960   0.721   8.843  0.0909 -0.4431 -0.9082
 1008MOL0     C32977   7.101   0.713   8.876 -0.2068  0.2684 -0.2254
 1008MOL0     C32978   7.472   0.576   9.103 -0.1694  0.2750  0.8357
 1008MOL0     C32979   7.544   0.679   9.034 -0.1614  0.2664 -0.2516
 1008MOL0     C32980   7.689   0.679   9.042 -0.3426 -0.0032 -0.7348
 1008MOL0     C32981   7.760   0.577   9.126  0.6709  0.0880  0.5320
 1008MOL0     O32982   7.893   0.588   9.140 -0.1143  0.6720 -0.2202
 1008MOL0     C32983   7.970   0.508   9.043 -0.0472 -0.6599  0.3761
 1008MOL0     C32984   8.120   0.533   9.067 -0.2895  0.3874 -0.7990
 1008MOL0     C32985   8.156   0.679   9.059 -0.2694  0.2209 -0.5313
 1008MOL0     C32986   8.308   0.691   9.048  0.0918 -0.1705  0.7247
 1008MOL0     C32987   8.380   0.647   9.175  0.2068 -0.5175  0.3132
 1008MOL0     C32988   8.441   0.609   9.265  0.0700 -0.1370 -0.4864
 1008MOL0     C32989   7.689   0.473   9.183 -0.1634 -0.0302  1.0356
 1008MOL0     C32990   7.550   0.482   9.168 -0.5778  0.4340  0.9500
 1008MOL0     H32991   7.067   0.604   9.195 -1.4894 -1.8180  0.5068
 1008MOL0     H32992   6.824   0.617   9.143  0.1985 -0.7799 -0.0861
 1008MOL0     H32993   6.603   0.697   9.044  2.0159 -1.3896  0.0854
 1008MOL0     H32994   6.667   0.539   9.002  1.9203  0.4843 -1.1936
 1008MOL0     H32995   6.504   0.515   8.821  0.8458  0.0078  0.4515
 1008MOL0     H32996   6.469   0.684   8.814 -0.9453  0.0107 -0.1139
 1008MOL0     H32997   6.324   0.665   9.017  2.3913  1.2141 -0.9825
 1008MOL0     H32998   6.420   0.537   9.083  0.5327  0.8847 -0.1578
 1008MOL0     H32999   6.188   0.552   8.883 -3.6861 -2.2907  4.7529
 1008MOL0     H33000   6.299   0.421   8.848  0.8957 -0.5935 -0.4084
 1008MOL0     H33001   6.176   0.487   9.112  2.8448  0.8069  0.1328
 1008MOL0     H33002   6.265   0.341   9.084  1.0875 -2.1112 -2.2530
 1008MOL0     H33003   6.085   0.251   8.952  1.3102 -0.3005  2.3523
 1008MOL0     H33004   6.028   0.402   8.900 -0.5138 -1.4573 -0.5567
 1008MOL0     H33005   5.907   0.454   9.085 -0.8013  0.4042 -4.8212
 1008MOL0     H33006   5.878   0.278   9.062  1.9064 -1.8873  1.9111
 1008MOL0     H33007   6.040   0.400   9.282  2.1391 -1.7000 -1.1539
 1008MOL0     H33008   6.086   0.243   9.243  0.9696  1.8323  0.1799
 1008MOL0     H33009   5.837   0.087   9.200  1.5291 -2.8783  3.0079
 1008MOL0     H33010   5.546   0.061   9.447  0.6771 -0.4459  0.3979
 1008MOL0     H33011   5.642  -0.040   9.330  3.6108  1.3139  0.8565
 1008MOL0     H33012   5.559   0.097   9.141  1.3172 -0.0910  0.4985
 1008MOL0     H33013   5.458   0.186   9.244 -0.1854  1.3160 -1.8862
 1008MOL0     H33014   5.342   0.012   9.115  1.2500 -0.6339 -1.8541
 1008MOL0     H33015   5.433  -0.116   9.195  0.0561 -0.0638 -0.7396
 1008MOL0     H33016   5.227   0.081   9.327  0.1898 -0.2501  0.3017
 1008MOL0     H33017   5.325  -0.039   9.421 -0.1320 -1.8221  0.8802
 1008MOL0     H33018   5.148  -0.059   9.570 -1.1457 -0.6531  2.7902
 1008MOL0     H33019   4.921  -0.110   9.692  2.0120 -0.7446 -0.1418
 1008MOL0     H33020   4.479  -0.011   9.647 -0.9632  0.5243  0.0965
 1008MOL0     H33021   4.296   0.036   9.769 -0.6982 -1.4613  0.9605
 1008MOL0     H33022   4.190   0.138   9.925 -1.2491  1.3195  0.6442
 1008MOL0     H33023   4.283   0.131  10.074 -0.3222  1.5848 -1.1340
 1008MOL0     H33024   4.048   0.028  10.161  4.7018  0.5188  1.7228
 1008MOL0     H33025   3.976   0.113  10.022 -1.6147  1.6203  2.2116
 1008MOL0     H33026   4.125   0.221  10.267  0.3985 -3.8493 -0.1684
 1008MOL0     H33027   3.955   0.251  10.240  1.2559  0.4557  0.6758
 1008MOL0     H33028   4.100   0.451  10.176  0.0229  2.2913 -0.6180
 1008MOL0     H33029   4.178   0.352  10.066  1.2485 -0.2249  1.4973
 1008MOL0     H33030   3.973   0.309   9.953  0.3766 -1.1017  1.5987
 1008MOL0     H33031   4.014   0.495   9.956 -0.0947 -0.0171  1.4294
 1008MOL0     H33032   3.860   0.488  10.157  1.2537 -0.7168 -0.8640
 1008MOL0     H33033   3.790   0.338  10.094 -2.6643  2.3479  3.4406
 1008MOL0     H33034   3.829   0.574   9.910 -0.4274 -1.0757 -1.3851
 1008MOL0     H33035   3.731   0.439   9.879  1.2550  0.3733 -0.7942
 1008MOL0     H33036   3.585   0.635   9.943  0.7139  1.4568  0.0236
 1008MOL0     H33037   3.684   0.661  10.082 -1.8819 -0.0325  1.0160
 1008MOL0     H33038   4.401  -0.246  10.074 -0.4656 -0.2551 -0.5870
 1008MOL0     H33039   4.608  -0.304   9.929  1.3300  1.4782  0.3551
 1008MOL0     H33040   4.753  -0.253   9.326  0.6812 -1.0424  0.7621
 1008MOL0     H33041   4.984  -0.240   9.223  0.8000 -1.1827  1.0734
 1008MOL0     H33042   6.922   0.758   8.748 -1.7608 -1.1310 -0.4887
 1008MOL0     H33043   7.168   0.750   8.799 -0.2763 -3.4626 -2.2877
 1008MOL0     H33044   7.500   0.761   8.978  0.2040  0.4714 -0.2453
 1008MOL0     H33045   7.752   0.758   9.003 -2.3049  2.2063  0.2634
 1008MOL0     H33046   7.947   0.544   8.942  2.6183 -1.2720 -0.5194
 1008MOL0     H33047   7.958   0.400   9.059 -1.7141 -0.4675  0.6143
 1008MOL0     H33048   8.141   0.485   9.163 -1.3468  0.9655 -0.2631
 1008MOL0     H33049   8.179   0.482   8.990  0.7341 -2.9399  1.9447
 1008MOL0     H33050   8.137   0.728   9.155  2.3615 -1.9068  1.2408
 1008MOL0     H33051   8.105   0.736   8.980 -0.3619  1.5881  0.4805
 1008MOL0     H33052   8.358   0.636   8.967 -0.2835  0.7700 -0.1712
 1008MOL0     H33053   8.333   0.793   9.016 -0.6808 -1.1289 -3.6775
 1008MOL0     H33054   8.506   0.591   9.348  1.7775  0.4210 -1.6447
 1008MOL0     H33055   7.737   0.391   9.235 -0.8839 -1.8824 -1.0639
 1008MOL0     H33056   7.503   0.393   9.209  2.5565 -1.2265  1.3426
 1009MOL0     O33057   0.307   0.884   4.472 -0.2936  0.1949  0.1949
 1009MOL0     C33058   0.306   0.951   4.370  0.6840 -0.1968  0.1043
 1009MOL0     O33059   0.204   0.958   4.277 -0.3472 -0.1932 -0.0178
 1009MOL0     C33060   0.099   0.877   4.303  0.4833  0.4443  0.4890
 1009MOL0     C33061   0.106   0.737   4.287  0.2524 -0.9752  0.0474
 1009MOL0     C33062  -0.001   0.656   4.332 -0.3421 -0.1579 -0.7639
 1009MOL0     C33063  -0.119   0.714   4.384  0.0683 -0.1303  0.0288
 1009MOL0     O33064  -0.221   0.635   4.427  0.7157 -0.5252 -0.7075
 1009MOL0     C33065  -0.357   0.662   4.377  0.2633  0.5687  0.3480
 1009MOL0     C33066  -0.369   0.649   4.226  0.1328 -0.7790  0.1752
 1009MOL0     C33067  -0.513   0.643   4.180 -0.1028 -0.0175  0.2646
 1009MOL0     C33068  -0.521   0.651   4.027 -0.2907 -0.4285 -0.3620
 1009MOL0     C33069  -0.663   0.668   3.971 -0.3790  0.0620  0.5195
 1009MOL0     C33070  -0.663   0.666   3.820  0.5021 -0.2970 -0.2441
 1009MOL0     C33071  -0.800   0.708   3.760 -0.4276  0.9677 -0.5927
 1009MOL0     C33072  -0.800   0.660   3.611  0.4272  0.2225  0.1860
 1009MOL0     N33073  -0.708   0.744   3.548  0.0954  0.8499  0.3185
 1009MOL0     C33074  -0.572   0.713   3.522  0.4015  1.3880  0.3155
 1009MOL0     C33075  -0.516   0.827   3.486  0.5347 -0.2588 -0.8613
 1009MOL0     C33076  -0.375   0.859   3.456 -0.9192 -0.8767 -0.6063
 1009MOL0     C33077  -0.314   0.741   3.400 -0.4382 -0.5079 -0.3642
 1009MOL0     C33078  -0.170   0.767   3.370 -0.4798  0.8212  0.1809
 1009MOL0     C33079  -0.076   0.784   3.498  0.6563  0.2487 -0.4650
 1009MOL0     O33080  -0.063   0.926   3.537 -0.0281 -0.6124  0.0716
 1009MOL0     C33081   0.051   0.969   3.600 -0.2759 -0.0322  0.1269
 1009MOL0     C33082   0.113   1.079   3.549  0.1495  0.1286  0.4407
 1009MOL0     C33083   0.236   1.120   3.599 -0.8838  0.8347 -0.4974
 1009MOL0     C33084   0.302   1.045   3.701 -0.5151  0.5148 -0.7520
 1009MOL0     C33085   0.422   1.104   3.754 -0.3876  0.2242 -0.8808
 1009MOL0     O33086   0.518   1.161   3.669  0.6007 -0.5645 -0.4354
 1009MOL0     C33087   0.624   1.226   3.732  0.1375  0.0542  0.4582
 1009MOL0     C33088   0.748   1.162   3.744  1.1553 -0.2584  0.6908
 1009MOL0     C33089   0.861   1.229   3.798  1.2485 -0.3172  0.0047
 1009MOL0     C33090   0.854   1.363   3.838  0.0146 -0.2589 -0.0265
 1009MOL0     O33091   0.963   1.439   3.878 -0.4675  0.9038 -0.2662
 1009MOL0     C33092   1.092   1.397   3.836 -0.2746  1.0585 -0.4075
 1009MOL0     C33093   1.188   1.478   3.907 -0.7118 -0.7540  0.3711
 1009MOL0     C33094   1.171   1.628   3.868  1.9787  0.4725  0.1878
 1009MOL0     C33095   1.288   1.711   3.930  0.7180 -0.7256  0.5423
 1009MOL0     C33096   1.292   1.854   3.877 -0.1471  0.1144 -0.5159
 1009MOL0     C33097   1.361   1.951   3.974 -0.5286  0.5668  0.0302
 1009MOL0     C33098   1.507   1.913   3.969  0.0461  0.1994 -0.1935
 1009MOL0     C33099   1.588   2.021   4.036 -0.0165 -0.4762 -0.2349
 1009MOL0    Cl33100   1.752   1.979   4.048  0.1610 -0.1821 -0.0725
 1009MOL0     C33101   0.724   1.428   3.831  0.9164 -0.8115  0.1979
 1009MOL0     C33102   0.612   1.361   3.776 -0.0161 -0.6808  0.1842
 1009MOL0     O33103   0.427   1.106   3.874  0.1702  0.0355  0.2392
 1009MOL0     C33104   0.237   0.935   3.754 -0.2419  0.9559  0.7537
 1009MOL0     C33105   0.116   0.891   3.698  0.1900  0.0755 -0.3324
 1009MOL0     N33106  -0.621   0.919   3.474 -0.0729  0.7262 -0.2594
 1009MOL0     N33107  -0.735   0.868   3.510 -0.3073  0.1051  0.4512
 1009MOL0     C33108  -0.120   0.852   4.412 -0.3628 -0.3808  0.3330
 1009MOL0     C33109  -0.016   0.933   4.358 -0.7184 -0.0015  1.5282
 1009MOL0     C33110   0.426   1.035   4.335  0.2554  0.4335  0.2683
 1009MOL0     C33111   0.545   1.008   4.395 -0.0592  0.1574 -0.2866
 1009MOL0     C33112   0.662   1.082   4.364  0.1781 -0.8722 -0.3053
 1009MOL0     C33113   0.660   1.186   4.269  0.4345 -0.4278  0.2977
 1009MOL0     O33114   0.777   1.254   4.249 -0.2401  0.5603 -0.1469
 1009MOL0     C33115   0.784   1.360   4.152 -0.3015 -0.6082 -0.6957
 1009MOL0     C33116   0.747   1.487   4.229 -0.4993  0.6426 -0.7940
 1009MOL0     C33117   0.868   1.546   4.305 -0.2634  0.4852  0.1794
 1009MOL0     C33118   0.980   1.604   4.210 -0.6681 -0.6790  0.1258
 1009MOL0     C33119   1.073   1.696   4.270  0.7855 -0.3129 -0.3677
 1009MOL0     C33120   1.141   1.772   4.338  0.6626 -0.1924  1.1111
 1009MOL0     C33121   0.537   1.213   4.200  0.0253  0.1524  0.2939
 1009MOL0     C33122   0.425   1.136   4.231  0.7575  0.8228  0.0672
 1009MOL0     H33123   0.197   0.707   4.235  0.5678  0.3302 -0.1896
 1009MOL0     H33124   0.010   0.548   4.326  0.2326 -0.3939  2.6205
 1009MOL0     H33125  -0.395   0.759   4.408  0.9759  0.6938  0.8606
 1009MOL0     H33126  -0.420   0.584   4.420 -0.8355  0.1765 -1.8074
 1009MOL0     H33127  -0.314   0.566   4.182  0.1017 -0.1422 -1.1048
 1009MOL0     H33128  -0.313   0.732   4.181 -1.6915  1.5200  1.8704
 1009MOL0     H33129  -0.575   0.720   4.227  0.3391 -0.3335  1.4104
 1009MOL0     H33130  -0.547   0.542   4.206  1.6648 -0.8119 -0.3987
 1009MOL0     H33131  -0.462   0.741   4.003  0.5334 -0.6189  0.8329
 1009MOL0     H33132  -0.481   0.555   3.993 -2.9175 -0.7388 -2.9174
 1009MOL0     H33133  -0.700   0.766   4.001  1.3420  1.2720 -1.0754
 1009MOL0     H33134  -0.725   0.582   3.997  0.5324 -1.2255 -1.3024
 1009MOL0     H33135  -0.635   0.563   3.795  0.9894 -0.3237  0.3746
 1009MOL0     H33136  -0.582   0.728   3.780 -0.3249 -0.5966 -2.5259
 1009MOL0     H33137  -0.885   0.672   3.820 -0.0021  1.4747  0.3315
 1009MOL0     H33138  -0.789   0.817   3.764  0.4825  0.9196  4.2649
 1009MOL0     H33139  -0.900   0.688   3.576  1.8296  0.9817 -3.6321
 1009MOL0     H33140  -0.777   0.554   3.599  2.2596  0.7278 -1.2381
 1009MOL0     H33141  -0.518   0.621   3.545  3.3090  2.3294 -2.0629
 1009MOL0     H33142  -0.331   0.889   3.552 -2.0936  2.3887 -0.9542
 1009MOL0     H33143  -0.364   0.943   3.387  0.2271 -1.0953 -0.7160
 1009MOL0     H33144  -0.363   0.711   3.307 -0.6721 -0.7684 -0.1546
 1009MOL0     H33145  -0.328   0.651   3.459  0.0697  0.2133  0.8897
 1009MOL0     H33146  -0.134   0.674   3.325 -0.8624 -1.4120  4.0804
 1009MOL0     H33147  -0.169   0.843   3.291 -0.4204 -0.3836 -1.0176
 1009MOL0     H33148   0.017   0.730   3.478 -0.6945 -1.3730 -2.9265
 1009MOL0     H33149  -0.120   0.717   3.572  1.0845 -0.8955 -1.2275
 1009MOL0     H33150   0.059   1.122   3.465 -0.2251 -3.1006 -1.1225
 1009MOL0     H33151   0.280   1.214   3.568  1.8523  0.6552  2.3041
 1009MOL0     H33152   0.755   1.059   3.710  0.9767  0.0474 -0.2851
 1009MOL0     H33153   0.956   1.177   3.797  0.5034 -1.8115 -2.5365
 1009MOL0     H33154   1.105   1.415   3.729 -1.6339 -0.2180 -0.8282
 1009MOL0     H33155   1.108   1.294   3.867  0.8214  1.9348  2.1168
 1009MOL0     H33156   1.289   1.441   3.892  0.2015  0.1905  3.4096
 1009MOL0     H33157   1.170   1.472   4.015  0.5210  1.8543  0.7963
 1009MOL0     H33158   1.068   1.653   3.895  1.2845 -2.7619  1.0341
 1009MOL0     H33159   1.172   1.635   3.759 -1.1791 -0.6192 -0.0135
 1009MOL0     H33160   1.269   1.706   4.038  1.7042 -0.0324  0.7624
 1009MOL0     H33161   1.379   1.660   3.898  0.1588 -1.1493 -0.4127
 1009MOL0     H33162   1.193   1.900   3.877  0.1159  1.1921 -5.1700
 1009MOL0     H33163   1.329   1.857   3.774  0.2942 -0.8936 -0.3988
 1009MOL0     H33164   1.330   1.935   4.078 -2.3951 -1.6067 -0.7638
 1009MOL0     H33165   1.346   2.055   3.944 -4.5103 -0.9165 -4.4445
 1009MOL0     H33166   1.527   1.811   4.003  2.6612  0.1159 -1.6952
 1009MOL0     H33167   1.542   1.920   3.866  1.6436 -0.7463  0.2528
 1009MOL0     H33168   1.542   2.050   4.131 -1.2956 -0.5236 -0.8062
 1009MOL0     H33169   1.588   2.106   3.967 -0.6435 -0.2044  0.0898
 1009MOL0     H33170   0.718   1.534   3.854 -2.7855 -0.6707 -0.7603
 1009MOL0     H33171   0.518   1.416   3.779 -0.5075 -1.4792 -0.4501
 1009MOL0     H33172   0.279   0.890   3.843  2.8152  1.6539 -0.2308
 1009MOL0     H33173   0.089   0.793   3.736  2.8500 -1.3228 -1.7281
 1009MOL0     H33174  -0.201   0.890   4.473 -0.5286 -3.4000  2.2431
 1009MOL0     H33175  -0.035   1.039   4.373  0.7847  1.3676 -3.8733
 1009MOL0     H33176   0.564   0.934   4.472  3.5534  0.0469 -1.0713
 1009MOL0     H33177   0.758   1.048   4.399 -0.4169 -0.1439  2.2317
 1009MOL0     H33178   0.719   1.350   4.065 -0.2424  2.6658 -1.2313
 1009MOL0     H33179   0.884   1.367   4.107 -0.4763  1.0727 -0.8713
 1009MOL0     H33180   0.709   1.554   4.150 -2.8251  0.6120  0.2091
 1009MOL0     H33181   0.666   1.457   4.296 -0.9334 -2.1074 -2.4092
 1009MOL0     H33182   0.916   1.467   4.364  1.9248  1.6905  0.1071
 1009MOL0     H33183   0.832   1.620   4.377 -0.3677  1.5103 -0.9016
 1009MOL0     H33184   1.024   1.524   4.150 -2.8178 -2.2436  0.4840
 1009MOL0     H33185   0.935   1.670   4.135  2.2140  1.5266  0.1993
 1009MOL0     H33186   1.199   1.840   4.397 -1.3313  1.8102  0.9045
 1009MOL0     H33187   0.536   1.289   4.122  0.5286  0.4578  0.5825
 1009MOL0     H33188   0.339   1.168   4.174 -0.5846  1.8528  2.5071
 1010MOL0     O33189   7.509   0.601   6.200 -0.6263  0.6270 -0.1882
 1010MOL0     C33190   7.575   0.622   6.101 -1.0915 -0.6853  0.2097
 1010MOL0     O33191   7.518   0.651   5.980 -0.3889  0.2358 -0.1694
 1010MOL0     C33192   7.383   0.650   5.973  0.5191 -0.5089 -0.1974
 1010MOL0     C33193   7.321   0.585   5.867  0.2183 -0.2395  0.3103
 1010MOL0     C33194   7.185   0.595   5.853 -0.1631  1.6809 -0.5601
 1010MOL0     C33195   7.103   0.684   5.926  0.2053 -0.5152 -0.5253
 1010MOL0     O33196   6.968   0.709   5.906  0.1156 -0.6723 -0.4048
 1010MOL0     C33197   6.874   0.600   5.922  0.3481  0.1114  0.3036
 1010MOL0     C33198   6.743   0.646   5.976  0.3840 -0.5076 -0.0384
 1010MOL0     C33199   6.762   0.718   6.111  0.3499 -0.2000  0.1609
 1010MOL0     C33200   6.625   0.754   6.166  0.0023  0.4311  0.4924
 1010MOL0     C33201   6.646   0.851   6.285  0.5214 -0.1267  0.0313
 1010MOL0     C33202   6.503   0.894   6.335  0.0274  0.1265 -0.2073
 1010MOL0     C33203   6.399   0.789   6.351  0.6055  0.4916 -0.0963
 1010MOL0     C33204   6.277   0.839   6.437 -0.1121  0.2936 -0.3143
 1010MOL0     N33205   6.231   0.976   6.398 -0.1800 -0.4916 -0.6828
 1010MOL0     C33206   6.176   1.003   6.271 -0.6194 -0.2740 -1.1793
 1010MOL0     C33207   6.186   1.128   6.239  0.2487 -0.0988  0.0063
 1010MOL0     C33208   6.119   1.198   6.117  0.4936  0.5138 -1.0252
 1010MOL0     C33209   5.980   1.246   6.167  0.3803  0.0119 -0.3131
 1010MOL0     C33210   5.913   1.308   6.048 -0.5022 -0.3104 -0.3500
 1010MOL0     C33211   5.787   1.399   6.079 -0.2148 -0.1106  0.1208
 1010MOL0     O33212   5.713   1.341   6.192  0.0762 -0.7809  0.5078
 1010MOL0     C33213   5.597   1.400   6.230 -0.1535  0.2874  0.2014
 1010MOL0     C33214   5.549   1.362   6.353 -0.7093 -0.3597  0.1038
 1010MOL0     C33215   5.430   1.399   6.407  0.5123 -1.0631  0.5457
 1010MOL0     C33216   5.344   1.478   6.331  0.7442 -0.4745  0.1361
 1010MOL0     C33217   5.214   1.517   6.384  0.2754  1.4065 -0.4743
 1010MOL0     O33218   5.156   1.620   6.329 -0.5212  0.0833 -0.5531
 1010MOL0     C33219   5.036   1.674   6.356  0.0556  0.6159 -0.5262
 1010MOL0     C33220   4.938   1.599   6.426  0.3489 -0.3516 -0.2850
 1010MOL0     C33221   4.827   1.667   6.474  0.5926  0.2596 -0.0919
 1010MOL0     C33222   4.796   1.800   6.436 -0.6912  0.0407 -0.5314
 1010MOL0     O33223   4.681   1.859   6.481  0.5953 -0.1886 -0.1838
 1010MOL0     C33224   4.557   1.788   6.465  0.8095  0.2109  1.0906
 1010MOL0     C33225   4.506   1.798   6.319  0.6321  0.0479  0.5828
 1010MOL0     C33226   4.353   1.768   6.313  0.2367  0.1256  0.5620
 1010MOL0     C33227   4.312   1.731   6.176  0.9544 -0.0571 -0.1267
 1010MOL0     C33228   4.176   1.664   6.164 -0.0368  0.3043  0.5365
 1010MOL0     C33229   4.112   1.648   6.024 -0.0836  0.3766  0.6096
 1010MOL0     C33230   3.989   1.557   6.029 -0.8826 -0.0027  0.1040
 1010MOL0     C33231   4.025   1.410   6.046  0.1465  0.2779  0.7363
 1010MOL0    Cl33232   4.101   1.348   5.887  0.0922 -0.4439 -0.1760
 1010MOL0     C33233   4.901   1.868   6.372  0.3658  0.3588 -0.2547
 1010MOL0     C33234   5.021   1.812   6.338 -0.6266  0.1102 -0.0898
 1010MOL0     O33235   5.173   1.459   6.489  0.4278  0.6509 -0.3450
 1010MOL0     C33236   5.390   1.527   6.204  1.0499 -0.3383  0.0983
 1010MOL0     C33237   5.510   1.488   6.157 -0.2716 -0.3408 -0.5996
 1010MOL0     N33238   6.234   1.193   6.353 -0.0008 -0.0325 -0.5787
 1010MOL0     N33239   6.260   1.097   6.445 -0.3381 -0.2517  0.1863
 1010MOL0     C33240   7.167   0.757   6.024  0.1090  0.6760  0.0025
 1010MOL0     C33241   7.305   0.738   6.055  0.0071  0.1388 -0.3720
 1010MOL0     C33242   7.724   0.627   6.115  0.3976  0.2213  0.7068
 1010MOL0     C33243   7.779   0.583   6.236 -0.4475  0.5993  0.1663
 1010MOL0     C33244   7.912   0.587   6.248 -0.5071  0.7945  0.4871
 1010MOL0     C33245   8.005   0.620   6.140 -1.2752  0.0085 -0.1848
 1010MOL0     O33246   8.146   0.625   6.153 -0.3814  0.3528 -0.4445
 1010MOL0     C33247   8.210   0.555   6.256 -0.7802 -0.4782  0.4530
 1010MOL0     C33248   8.364   0.579   6.237 -0.2035  0.8690 -0.3856
 1010MOL0     C33249   8.423   0.536   6.101 -0.0291 -0.4403 -0.7671
 1010MOL0     C33250   8.503   0.401   6.113 -0.1711 -1.0514  0.6351
 1010MOL0     C33251   8.572   0.361   5.990 -0.3228 -0.0349  0.0911
 1010MOL0     C33252   8.612   0.341   5.876  0.8177 -0.4271 -0.0977
 1010MOL0     C33253   7.944   0.663   6.020 -0.4141  0.3857  0.3529
 1010MOL0     C33254   7.805   0.676   6.010  0.3500  0.1914 -0.1834
 1010MOL0     H33255   7.375   0.529   5.791 -0.3793 -0.0561 -0.2642
 1010MOL0     H33256   7.150   0.541   5.765  4.8873  0.7150 -2.3226
 1010MOL0     H33257   6.914   0.527   5.993  0.5362 -0.6468 -0.5751
 1010MOL0     H33258   6.869   0.548   5.826 -2.3323 -1.4185  1.1687
 1010MOL0     H33259   6.664   0.573   5.995 -1.5700  1.3211 -0.8088
 1010MOL0     H33260   6.706   0.714   5.899  1.4027  0.0163 -0.0832
 1010MOL0     H33261   6.819   0.811   6.100 -2.2515  1.7027  1.6054
 1010MOL0     H33262   6.828   0.663   6.179  2.1208  3.0477  1.3024
 1010MOL0     H33263   6.568   0.813   6.094 -0.5234 -0.9172 -0.2404
 1010MOL0     H33264   6.567   0.663   6.189 -1.2600  0.9195 -0.6531
 1010MOL0     H33265   6.695   0.942   6.250 -0.2777  0.6790  0.9382
 1010MOL0     H33266   6.703   0.800   6.364  0.3191 -0.2093  0.1252
 1010MOL0     H33267   6.470   0.971   6.265 -2.4855 -3.3719 -3.2045
 1010MOL0     H33268   6.523   0.953   6.425 -0.2267  2.2158 -1.4474
 1010MOL0     H33269   6.365   0.748   6.256  1.6427 -0.2809 -0.1484
 1010MOL0     H33270   6.437   0.701   6.403  0.2045  0.1697 -0.3428
 1010MOL0     H33271   6.309   0.850   6.542  1.1016 -1.7859 -0.4226
 1010MOL0     H33272   6.190   0.773   6.447 -0.0968  0.4974  1.5816
 1010MOL0     H33273   6.117   0.934   6.213 -1.6057 -0.9196  0.5054
 1010MOL0     H33274   6.104   1.124   6.037 -0.9054 -1.4068  0.8890
 1010MOL0     H33275   6.179   1.284   6.088  0.5136  0.6955 -0.4474
 1010MOL0     H33276   5.986   1.322   6.246 -2.2513  1.7706 -1.6581
 1010MOL0     H33277   5.919   1.165   6.207  2.0505 -0.8510  0.5811
 1010MOL0     H33278   5.981   1.377   5.996  1.4655 -1.3940  0.6744
 1010MOL0     H33279   5.886   1.229   5.978 -0.0148 -2.3103  1.6336
 1010MOL0     H33280   5.723   1.417   5.993  0.1662 -1.1811 -0.4079
 1010MOL0     H33281   5.810   1.503   6.105  2.3870 -0.4095 -0.7530
 1010MOL0     H33282   5.621   1.306   6.412  0.6249 -2.1641 -3.0177
 1010MOL0     H33283   5.401   1.379   6.510  1.9131  0.7941  1.3773
 1010MOL0     H33284   4.954   1.496   6.456 -0.5556 -0.5098 -0.3250
 1010MOL0     H33285   4.753   1.623   6.541 -0.8271  0.3386 -1.5653
 1010MOL0     H33286   4.484   1.823   6.538 -1.7066  0.7257 -1.5051
 1010MOL0     H33287   4.571   1.681   6.484  1.3972  0.3335  1.3753
 1010MOL0     H33288   4.560   1.738   6.246 -1.3111 -0.0384 -0.8654
 1010MOL0     H33289   4.521   1.899   6.281 -2.1708  0.2436 -0.2861
 1010MOL0     H33290   4.296   1.855   6.346 -3.7725 -1.7273 -0.8593
 1010MOL0     H33291   4.325   1.699   6.394 -0.2836  0.6659  0.8502
 1010MOL0     H33292   4.327   1.805   6.098  2.3300 -1.4038 -1.1955
 1010MOL0     H33293   4.390   1.662   6.142  0.7005 -0.7594  0.6717
 1010MOL0     H33294   4.109   1.714   6.234 -0.7616  0.7155 -0.4274
 1010MOL0     H33295   4.180   1.562   6.202 -1.0905 -1.0248 -2.6571
 1010MOL0     H33296   4.182   1.606   5.951  0.7892 -2.0407  2.7101
 1010MOL0     H33297   4.079   1.750   6.003 -1.5840  0.3819  2.7247
 1010MOL0     H33298   3.920   1.588   6.108 -0.8889 -1.2767  0.6337
 1010MOL0     H33299   3.932   1.562   5.936 -1.1995 -0.0528  0.2953
 1010MOL0     H33300   3.934   1.354   6.064  0.0845  0.3512  0.6530
 1010MOL0     H33301   4.075   1.401   6.143  0.7674 -1.5052  0.2804
 1010MOL0     H33302   4.883   1.969   6.337  0.6149  0.8579  1.0150
 1010MOL0     H33303   5.108   1.862   6.297 -1.2775  1.4364  0.1004
 1010MOL0     H33304   5.329   1.597   6.147 -1.1109 -1.4507  0.9291
 1010MOL0     H33305   5.541   1.526   6.060 -0.3521  0.4858 -0.3082
 1010MOL0     H33306   7.113   0.835   6.077 -0.6835  0.3736 -0.3426
 1010MOL0     H33307   7.354   0.793   6.135  2.0061  1.0848 -2.1335
 1010MOL0     H33308   7.720   0.549   6.320 -0.6056 -3.5689 -1.4055
 1010MOL0     H33309   7.955   0.553   6.341 -1.5279 -1.0279  0.3379
 1010MOL0     H33310   8.186   0.448   6.253 -1.8742 -0.2460  0.4520
 1010MOL0     H33311   8.189   0.604   6.352 -0.2193 -0.0858  0.3790
 1010MOL0     H33312   8.376   0.687   6.222  2.6568  0.5811 -0.6881
 1010MOL0     H33313   8.433   0.547   6.316  2.3076 -1.0855 -3.1841
 1010MOL0     H33314   8.481   0.619   6.060 -3.4808  2.5394 -0.1002
 1010MOL0     H33315   8.336   0.529   6.035 -2.2587  1.3194  1.7579
 1010MOL0     H33316   8.582   0.417   6.187 -1.2175  1.6081  1.2953
 1010MOL0     H33317   8.441   0.314   6.139  0.3577 -1.8180 -0.5832
 1010MOL0     H33318   8.624   0.330   5.770 -0.5288  1.3730 -0.4784
 1010MOL0     H33319   8.002   0.696   5.935 -1.8904  1.7221 -0.1967
 1010MOL0     H33320   7.766   0.708   5.913  0.9284 -1.1090 -0.8762
 1011MOL0     O33321   8.764  11.095   1.634 -0.7513 -0.3252  0.2466
 1011MOL0     C33322   8.841  11.096   1.532 -0.8571  0.2059 -0.6284
 1011MOL0     O33323   8.803  11.110   1.402 -0.2435  0.1231  0.0673
 1011MOL0     C33324   8.663  11.092   1.383 -0.7202  0.1544  0.3667
 1011MOL0     C33325   8.617  10.972   1.349  0.2773  0.1162 -0.1293
 1011MOL0     C33326   8.482  10.956   1.308 -0.4357  0.1179  0.3453
 1011MOL0     C33327   8.390  11.063   1.301  0.1636 -0.3898 -0.1989
 1011MOL0     O33328   8.251  11.055   1.292  0.2615 -0.4124  0.2010
 1011MOL0     C33329   8.202  10.929   1.242  1.4694 -0.9750  0.0777
 1011MOL0     C33330   8.046  10.936   1.250  0.1279  0.1796  0.4658
 1011MOL0     C33331   7.983  10.822   1.174  0.6412  0.3248  0.3026
 1011MOL0     C33332   7.827  10.840   1.200 -0.8623 -0.7997  0.9067
 1011MOL0     C33333   7.743  10.715   1.167 -0.1809  0.4576  0.1457
 1011MOL0     C33334   7.752  10.665   1.022 -1.0765 -0.5216 -0.4333
 1011MOL0     C33335   7.674  10.757   0.917  0.8539  0.5201 -0.1897
 1011MOL0     C33336   7.537  10.804   0.971 -0.7023 -0.0323  0.0005
 1011MOL0     N33337   7.439  10.699   1.007  0.4179  0.0388 -0.2077
 1011MOL0     C33338   7.434  10.569   0.956 -0.2993 -0.4939 -0.1083
 1011MOL0     C33339   7.342  10.509   1.031  1.0177  0.7428  0.4427
 1011MOL0     C33340   7.322  10.363   1.039 -1.1922 -0.4592  0.5134
 1011MOL0     C33341   7.209  10.303   0.948 -0.6401 -0.7553 -0.0790
 1011MOL0     C33342   7.225  10.317   0.792  0.8089 -0.3724  0.1969
 1011MOL0     C33343   7.111  10.230   0.725  0.2454 -0.2592 -0.1680
 1011MOL0     O33344   6.985  10.304   0.762 -0.3746 -0.1789  0.0229
 1011MOL0     C33345   6.870  10.241   0.802 -0.7997 -0.8328 -0.3654
 1011MOL0     C33346   6.754  10.314   0.825  0.2811  0.6923  0.5249
 1011MOL0     C33347   6.634  10.258   0.864  0.1645 -0.1367 -0.6380
 1011MOL0     C33348   6.624  10.120   0.894 -0.2505  0.6053 -0.6838
 1011MOL0     C33349   6.496  10.056   0.959 -1.0825 -0.2700 -0.4052
 1011MOL0     O33350   6.515   9.941   1.028 -0.2240  0.0751  0.6345
 1011MOL0     C33351   6.409   9.863   1.067 -1.1582 -0.8170 -0.3671
 1011MOL0     C33352   6.413   9.731   1.023  0.6418 -0.2041 -0.1530
 1011MOL0     C33353   6.309   9.644   1.059  0.3057 -1.2055  0.8725
 1011MOL0     C33354   6.198   9.690   1.131 -0.0639 -0.4486 -0.5599
 1011MOL0     O33355   6.088   9.617   1.153 -0.1279  0.6731 -0.0947
 1011MOL0     C33356   6.100   9.476   1.173  0.4118  0.2849  0.3086
 1011MOL0     C33357   5.968   9.427   1.226 -0.4829  1.0770  0.1371
 1011MOL0     C33358   5.862   9.446   1.119 -0.1729 -0.4723 -0.1938
 1011MOL0     C33359   5.726   9.406   1.183  0.1111 -0.4082 -0.3271
 1011MOL0     C33360   5.600   9.431   1.092 -0.4622 -0.3925  0.3842
 1011MOL0     C33361   5.473   9.381   1.155 -0.0413 -0.6300  0.2826
 1011MOL0     C33362   5.423   9.470   1.266  0.0993  0.0213  0.0569
 1011MOL0     C33363   5.279   9.431   1.313  0.6797 -0.1005 -0.1960
 1011MOL0    Cl33364   5.217   9.499   1.472  0.5523  0.2915  0.2078
 1011MOL0     C33365   6.197   9.824   1.179  0.0179 -0.0494 -0.3603
 1011MOL0     C33366   6.306   9.912   1.147  0.0976  0.0278 -0.6180
 1011MOL0     O33367   6.395  10.118   0.935  0.0244  1.0341 -0.4763
 1011MOL0     C33368   6.746  10.047   0.885 -0.1124  0.5476  0.6284
 1011MOL0     C33369   6.863  10.102   0.837  0.2371 -0.6073 -0.0742
 1011MOL0     N33370   7.271  10.608   1.101  0.1635  0.5606  0.4906
 1011MOL0     N33371   7.333  10.719   1.089 -0.5533 -0.0034 -0.5663
 1011MOL0     C33372   8.444  11.189   1.335 -0.4237 -0.1319 -0.8311
 1011MOL0     C33373   8.575  11.203   1.369 -0.8050 -0.5291  0.6377
 1011MOL0     C33374   8.985  11.089   1.568 -0.5627  0.3823  0.1455
 1011MOL0     C33375   9.080  11.045   1.474 -1.0941  0.1055  0.5070
 1011MOL0     C33376   9.217  11.054   1.506  0.6303 -1.4010  0.5624
 1011MOL0     C33377   9.261  11.096   1.632  0.2622  0.3101 -0.1308
 1011MOL0     O33378   9.386  11.068   1.679  0.1908 -0.7435  0.4384
 1011MOL0     C33379   9.498  11.046   1.587  0.0519 -0.0311  1.3598
 1011MOL0     C33380   9.625  11.047   1.657 -1.2076  0.0440 -0.2036
 1011MOL0     C33381   9.646  10.927   1.767  0.9331 -0.3126  0.2635
 1011MOL0     C33382   9.768  10.964   1.858 -0.2447 -0.5049 -0.1477
 1011MOL0     C33383   9.801  10.857   1.949  0.1834 -0.2835 -0.3373
 1011MOL0     C33384   9.826  10.767   2.021 -0.3798  0.2115  1.0008
 1011MOL0     C33385   9.165  11.135   1.723 -1.2683  0.0330  0.0000
 1011MOL0     C33386   9.025  11.127   1.696 -0.6516 -0.8580 -0.2991
 1011MOL0     H33387   8.678  10.882   1.348  0.1310 -0.0111 -2.4101
 1011MOL0     H33388   8.464  10.849   1.298  1.7636 -0.4845  2.0968
 1011MOL0     H33389   8.253  10.850   1.298  1.4653 -0.6737  0.5095
 1011MOL0     H33390   8.234  10.911   1.139  1.8140 -1.5643  0.2784
 1011MOL0     H33391   8.012  11.033   1.213 -4.1263 -1.3803 -0.2975
 1011MOL0     H33392   8.020  10.921   1.355 -2.4879 -1.2261 -0.2973
 1011MOL0     H33393   8.019  10.727   1.215 -1.4743 -1.1749 -1.0642
 1011MOL0     H33394   8.004  10.818   1.066 -0.3509 -2.0107  0.1485
 1011MOL0     H33395   7.799  10.883   1.297  1.1547 -1.3472  1.7997
 1011MOL0     H33396   7.797  10.917   1.129  1.9209 -1.4886 -1.1814
 1011MOL0     H33397   7.638  10.737   1.190  0.2916  0.5771  2.4481
 1011MOL0     H33398   7.775  10.634   1.233 -1.6299  0.8710  1.4329
 1011MOL0     H33399   7.714  10.563   1.013  0.9063 -1.1905 -2.4615
 1011MOL0     H33400   7.858  10.652   0.996 -0.5855  3.3602 -0.9501
 1011MOL0     H33401   7.731  10.847   0.891 -1.6817  1.0647 -4.8621
 1011MOL0     H33402   7.663  10.709   0.820  1.9743  2.5695 -1.4018
 1011MOL0     H33403   7.489  10.859   0.889  1.0010  1.1501 -0.2649
 1011MOL0     H33404   7.542  10.889   1.040 -4.1236  3.3111 -3.3592
 1011MOL0     H33405   7.505  10.526   0.885  1.2189 -0.3230  1.2564
 1011MOL0     H33406   7.314  10.337   1.145 -2.2387 -0.7340  0.3703
 1011MOL0     H33407   7.421  10.325   1.010 -0.3866  0.6847  1.6243
 1011MOL0     H33408   7.112  10.342   0.981 -0.4632 -0.5616  0.2244
 1011MOL0     H33409   7.197  10.198   0.975 -1.7869  0.2497  4.2682
 1011MOL0     H33410   7.192  10.416   0.759 -1.1904 -1.2969 -0.7711
 1011MOL0     H33411   7.323  10.293   0.749 -0.0240 -0.5426 -1.7513
 1011MOL0     H33412   7.115  10.126   0.758 -0.0086  0.7453  3.4341
 1011MOL0     H33413   7.129  10.220   0.617  0.4141 -2.2640 -0.0012
 1011MOL0     H33414   6.769  10.422   0.824  2.7117  0.4404 -1.0768
 1011MOL0     H33415   6.555  10.332   0.869  0.8918  0.7252 -1.3520
 1011MOL0     H33416   6.486   9.691   0.953  1.2302 -2.3608  1.5379
 1011MOL0     H33417   6.313   9.544   1.016  1.2232 -0.7370 -0.1751
 1011MOL0     H33418   6.183   9.455   1.241  0.5974  0.5597  0.1689
 1011MOL0     H33419   6.124   9.425   1.079 -0.5398  1.7824 -0.8018
 1011MOL0     H33420   5.951   9.491   1.313  0.9806  0.8685  0.6131
 1011MOL0     H33421   5.966   9.320   1.248  1.0887  1.0811  0.4089
 1011MOL0     H33422   5.872   9.374   1.037 -3.2779  0.6088 -1.6698
 1011MOL0     H33423   5.863   9.547   1.077  1.9339 -2.0460 -4.5711
 1011MOL0     H33424   5.731   9.298   1.204  3.0498 -0.4750 -0.9248
 1011MOL0     H33425   5.727   9.464   1.276 -0.8900  0.9781 -1.1495
 1011MOL0     H33426   5.609   9.373   0.999 -3.2115 -0.3525  0.0156
 1011MOL0     H33427   5.594   9.537   1.068 -2.2569 -0.3732  0.7691
 1011MOL0     H33428   5.492   9.278   1.187  2.9945 -0.1751  0.1765
 1011MOL0     H33429   5.402   9.384   1.072  1.4120 -0.0524 -0.9891
 1011MOL0     H33430   5.494   9.454   1.348  1.0294 -1.0219 -0.9132
 1011MOL0     H33431   5.431   9.575   1.237  3.1570  0.3311  1.6616
 1011MOL0     H33432   5.276   9.322   1.315  0.3426 -0.0817  1.4744
 1011MOL0     H33433   5.210   9.476   1.241  2.9599  0.5100 -2.1572
 1011MOL0     H33434   6.114   9.849   1.244  0.2561  0.2127 -0.1582
 1011MOL0     H33435   6.307  10.017   1.175 -2.7955  0.1969 -0.8686
 1011MOL0     H33436   6.738   9.940   0.902 -0.8118  0.1098 -1.9465
 1011MOL0     H33437   6.955  10.045   0.823 -0.4506 -1.7023 -0.2332
 1011MOL0     H33438   8.379  11.275   1.338 -0.2593 -0.0336  0.5393
 1011MOL0     H33439   8.619  11.301   1.390 -0.2189 -0.7993  0.6867
 1011MOL0     H33440   9.067  11.024   1.368  2.3252 -0.8413  0.1783
 1011MOL0     H33441   9.290  11.019   1.433  0.9047 -0.8629  0.5782
 1011MOL0     H33442   9.500  11.126   1.511  1.8079 -1.3979 -0.1422
 1011MOL0     H33443   9.485  10.948   1.541  0.0949  1.2104 -1.5388
 1011MOL0     H33444   9.710  11.039   1.590 -2.0253 -1.9438 -1.0819
 1011MOL0     H33445   9.627  11.143   1.709 -2.9394  1.1856 -2.0915
 1011MOL0     H33446   9.653  10.829   1.717  0.1000  0.2598 -1.0290
 1011MOL0     H33447   9.559  10.927   1.833  0.0198  1.5606 -0.8455
 1011MOL0     H33448   9.858  10.994   1.804  0.0479 -0.4621  0.3578
 1011MOL0     H33449   9.724  11.051   1.907 -0.0635  1.4305 -3.1580
 1011MOL0     H33450   9.847  10.694   2.097  2.3181 -1.0814 -0.8186
 1011MOL0     H33451   9.198  11.163   1.823  4.4662 -1.8702 -1.0048
 1011MOL0     H33452   8.957  11.161   1.774 -1.1905 -1.0795 -0.6686
 1012MOL0     O33453   0.495   3.887  10.038 -0.2054  0.6171  0.4787
 1012MOL0     C33454   0.586   3.910  10.120  0.1360  0.2094  0.8181
 1012MOL0     O33455   0.566   3.919  10.250  0.1338  0.0339  0.2130
 1012MOL0     C33456   0.444   3.911  10.303  0.2256  0.0110  0.9718
 1012MOL0     C33457   0.362   3.801  10.280 -1.1026 -0.5144  0.7012
 1012MOL0     C33458   0.229   3.799  10.322 -0.0384  0.1568 -0.0042
 1012MOL0     C33459   0.197   3.894  10.420  0.2651 -1.0259 -0.2496
 1012MOL0     O33460   0.065   3.890  10.464  0.2950 -0.9764  0.3527
 1012MOL0     C33461   0.037   3.948  10.594 -0.2164  0.3894 -0.1895
 1012MOL0     C33462  -0.096   3.900  10.641  0.2348  0.3792 -0.5393
 1012MOL0     C33463  -0.209   3.932  10.554  0.8021  0.9075  0.2511
 1012MOL0     C33464  -0.237   4.079  10.511 -1.7112 -0.6495 -1.0571
 1012MOL0     C33465  -0.359   4.087  10.422  0.8308 -0.7450 -0.9291
 1012MOL0     C33466  -0.500   4.036  10.475 -0.6135  0.8261  1.5749
 1012MOL0     C33467  -0.526   4.093  10.605  0.1148 -0.1372 -0.1620
 1012MOL0     C33468  -0.678   4.107  10.636 -0.3811  0.5345 -0.1179
 1012MOL0     N33469  -0.748   3.977  10.652 -0.0651 -0.0066 -0.6028
 1012MOL0     C33470  -0.881   3.963  10.701 -0.2777 -0.2678  0.8731
 1012MOL0     C33471  -0.903   3.829  10.707 -0.4868  0.1433 -0.1508
 1012MOL0     C33472  -1.016   3.762  10.776  0.1913  0.7568 -0.3274
 1012MOL0     C33473  -1.145   3.762  10.694 -0.1163 -0.1751  1.4223
 1012MOL0     C33474  -1.265   3.720  10.774 -0.5009 -0.3593 -0.3121
 1012MOL0     C33475  -1.397   3.730  10.698 -0.4872 -0.7641  0.2688
 1012MOL0     O33476  -1.519   3.718  10.775 -0.0308 -0.4028 -0.6872
 1012MOL0     C33477  -1.640   3.709  10.706  0.0008 -0.2907  0.1860
 1012MOL0     C33478  -1.747   3.742  10.780  0.3099  0.0295  0.2418
 1012MOL0     C33479  -1.876   3.749  10.732 -0.5533 -0.1500  0.6657
 1012MOL0     C33480  -1.896   3.705  10.595 -0.2755  0.9196 -0.0857
 1012MOL0     C33481  -2.030   3.700  10.547  0.2244  0.3447  0.4509
 1012MOL0     O33482  -2.138   3.753  10.620 -0.2939 -0.1178 -0.2188
 1012MOL0     C33483  -2.268   3.757  10.574 -0.7406  0.3642  0.7476
 1012MOL0     C33484  -2.335   3.853  10.635  0.0404 -0.3406  0.3320
 1012MOL0     C33485  -2.475   3.860  10.609 -0.6629 -0.3736 -0.4323
 1012MOL0     C33486  -2.540   3.788  10.505 -1.0037  1.2785 -1.0497
 1012MOL0     O33487  -2.671   3.807  10.477  0.3303 -0.2180  0.6878
 1012MOL0     C33488  -2.721   3.766  10.354 -0.2485 -0.0627  0.3515
 1012MOL0     C33489  -2.872   3.776  10.344  0.4774  0.4958  0.8483
 1012MOL0     C33490  -2.954   3.676  10.438  0.0869  0.9813  0.0743
 1012MOL0     C33491  -3.103   3.662  10.390 -0.7990  0.1951 -0.4255
 1012MOL0     C33492  -3.137   3.578  10.267 -0.4072 -0.0123 -0.6057
 1012MOL0     C33493  -3.223   3.452  10.297  0.0222 -0.0785  0.0115
 1012MOL0     C33494  -3.123   3.343  10.329 -0.0988 -0.3834 -0.6228
 1012MOL0     C33495  -3.030   3.290  10.214 -0.5465 -0.2947 -0.2353
 1012MOL0    Cl33496  -3.119   3.253  10.069 -0.3107 -0.2475 -0.1231
 1012MOL0     C33497  -2.452   3.704  10.432 -1.0866 -0.5907  0.2979
 1012MOL0     C33498  -2.320   3.683  10.468 -0.5170 -0.1106  0.2085
 1012MOL0     O33499  -2.040   3.644  10.438 -0.0272 -0.1641 -0.4276
 1012MOL0     C33500  -1.780   3.674  10.526  0.7806  0.1922  0.5178
 1012MOL0     C33501  -1.650   3.676  10.576 -1.0061 -0.9415 -0.0881
 1012MOL0     N33502  -0.789   3.768  10.656  0.5805  0.3825 -0.0508
 1012MOL0     N33503  -0.697   3.850  10.632 -0.0463 -0.0174  0.2146
 1012MOL0     C33504   0.289   4.002  10.458 -0.5431 -0.3101 -0.0495
 1012MOL0     C33505   0.409   4.004  10.393 -0.2688  0.6285  1.2906
 1012MOL0     C33506   0.715   3.933  10.047  0.3179  0.4404  0.8661
 1012MOL0     C33507   0.728   3.917   9.913  0.5254  0.2695 -0.0757
 1012MOL0     C33508   0.859   3.908   9.859  0.8661 -0.1721  0.3423
 1012MOL0     C33509   0.968   3.929   9.937  0.4226 -0.0164  0.1245
 1012MOL0     O33510   1.095   3.929   9.891  0.1296  0.2031  0.7085
 1012MOL0     C33511   1.132   3.976   9.765  1.0950 -0.7637 -0.6197
 1012MOL0     C33512   1.223   4.097   9.773  0.3045  0.1282 -0.7694
 1012MOL0     C33513   1.326   4.099   9.658  0.0632  0.7084  0.3294
 1012MOL0     C33514   1.426   4.210   9.678 -0.8369  0.3475  0.1205
 1012MOL0     C33515   1.373   4.342   9.663 -0.6431  0.1396 -0.1894
 1012MOL0     C33516   1.342   4.455   9.652  0.2020 -0.6279 -0.3728
 1012MOL0     C33517   0.960   3.953  10.071 -0.1273 -0.1673  0.5962
 1012MOL0     C33518   0.833   3.955  10.124  0.7124  0.0770  0.3525
 1012MOL0     H33519   0.394   3.722  10.213  0.7811  0.4821  0.3635
 1012MOL0     H33520   0.164   3.720  10.287  1.5142 -0.1588 -2.3555
 1012MOL0     H33521   0.044   4.057  10.588  2.5990  0.2746 -0.1945
 1012MOL0     H33522   0.117   3.915  10.661  0.7965  1.5224 -0.8041
 1012MOL0     H33523  -0.110   3.941  10.741  0.4486  0.1556 -0.4174
 1012MOL0     H33524  -0.088   3.792  10.650 -1.2969  0.2217 -0.8467
 1012MOL0     H33525  -0.294   3.878  10.597 -1.2292  1.9064 -2.2149
 1012MOL0     H33526  -0.182   3.887  10.458 -2.0548  0.2077 -0.3422
 1012MOL0     H33527  -0.261   4.142  10.597  1.8596  0.5954 -0.8323
 1012MOL0     H33528  -0.154   4.128  10.460 -2.0157 -0.7744 -1.6915
 1012MOL0     H33529  -0.342   4.035  10.327  0.6637 -0.7208 -0.9722
 1012MOL0     H33530  -0.371   4.194  10.400 -1.8876 -0.8349 -0.2276
 1012MOL0     H33531  -0.508   3.927  10.466  0.2662  0.8873 -4.5100
 1012MOL0     H33532  -0.576   4.063  10.402  0.0779  0.6019  0.7448
 1012MOL0     H33533  -0.473   4.040  10.685  4.6401 -0.4707 -3.0431
 1012MOL0     H33534  -0.487   4.195  10.609 -0.9108  0.2586  3.3445
 1012MOL0     H33535  -0.728   4.161  10.554 -1.4646 -1.7867 -1.0875
 1012MOL0     H33536  -0.687   4.170  10.725 -1.1620  2.7132 -1.6417
 1012MOL0     H33537  -0.947   4.039  10.740 -0.2764 -0.1747  0.6909
 1012MOL0     H33538  -1.047   3.803  10.873 -4.0207 -0.7402 -0.8598
 1012MOL0     H33539  -0.992   3.656  10.780  1.4324  0.9824 -1.2135
 1012MOL0     H33540  -1.128   3.687  10.616  0.6023  1.8757 -0.4963
 1012MOL0     H33541  -1.156   3.860  10.647 -2.5464 -0.5176  1.1517
 1012MOL0     H33542  -1.249   3.622  10.818 -1.8523 -0.1587  0.6877
 1012MOL0     H33543  -1.274   3.790  10.858  0.2777  1.4378 -1.6352
 1012MOL0     H33544  -1.395   3.649  10.625  1.8079 -1.4273  0.9797
 1012MOL0     H33545  -1.403   3.831  10.655 -0.1998 -0.0785  1.7887
 1012MOL0     H33546  -1.726   3.759  10.885  1.2213 -1.1337  0.2589
 1012MOL0     H33547  -1.956   3.792  10.791 -2.9727 -1.9198 -1.1365
 1012MOL0     H33548  -2.304   3.924  10.711 -2.4963  0.1747  0.9754
 1012MOL0     H33549  -2.526   3.937  10.665  0.7083  0.2564 -0.0042
 1012MOL0     H33550  -2.685   3.664  10.337 -0.4687 -0.2389  0.8954
 1012MOL0     H33551  -2.677   3.831  10.277 -0.2568 -1.9166 -1.2840
 1012MOL0     H33552  -2.898   3.741  10.244  0.0224  1.6276  0.5491
 1012MOL0     H33553  -2.902   3.881  10.358  1.4971  0.7913  0.8924
 1012MOL0     H33554  -2.956   3.709  10.542  1.6282  1.2074  0.0512
 1012MOL0     H33555  -2.910   3.576  10.437  1.0641  1.3922  0.6707
 1012MOL0     H33556  -3.158   3.616  10.473  0.3689  3.5069  2.4412
 1012MOL0     H33557  -3.150   3.760  10.380 -1.2160  0.1866  1.0797
 1012MOL0     H33558  -3.051   3.553  10.204 -0.0435 -1.4435  0.4015
 1012MOL0     H33559  -3.203   3.638  10.205  0.6324  0.8851 -0.8664
 1012MOL0     H33560  -3.288   3.430  10.212  1.3780 -1.0793 -0.8076
 1012MOL0     H33561  -3.293   3.468  10.380 -4.2480  1.0069 -3.3949
 1012MOL0     H33562  -3.061   3.360  10.417  0.7795 -2.5592 -0.7627
 1012MOL0     H33563  -3.194   3.266  10.357 -1.1424  0.6809 -0.2543
 1012MOL0     H33564  -2.983   3.199  10.252  0.3696  1.1095  2.2112
 1012MOL0     H33565  -2.953   3.366  10.197  1.8754 -2.0515  2.0068
 1012MOL0     H33566  -2.481   3.660  10.338  1.5440  0.3158 -1.0342
 1012MOL0     H33567  -2.263   3.609  10.414  0.6864  0.3911  0.7592
 1012MOL0     H33568  -1.805   3.654  10.422 -2.0338  1.1725  0.9091
 1012MOL0     H33569  -1.568   3.655  10.509 -0.7407  0.2969 -0.1832
 1012MOL0     H33570   0.260   4.074  10.535 -2.5144  0.6589 -1.6020
 1012MOL0     H33571   0.481   4.082  10.413  1.5545 -0.8772  0.9131
 1012MOL0     H33572   0.649   3.908   9.839  0.0183 -0.5461  0.5367
 1012MOL0     H33573   0.863   3.877   9.755 -0.1048 -2.2308  0.8672
 1012MOL0     H33574   1.047   4.015   9.707 -1.6199 -2.6268  1.8658
 1012MOL0     H33575   1.174   3.899   9.700  0.5114 -0.6454 -1.1569
 1012MOL0     H33576   1.161   4.186   9.758  1.4454  0.4343 -4.9850
 1012MOL0     H33577   1.270   4.112   9.870 -0.4504  2.2896 -0.6929
 1012MOL0     H33578   1.273   4.110   9.563  0.6032  0.4791 -0.0063
 1012MOL0     H33579   1.378   4.003   9.658 -1.2049  0.0096 -0.2099
 1012MOL0     H33580   1.465   4.217   9.781 -5.2820  1.3307  1.9712
 1012MOL0     H33581   1.511   4.190   9.612 -0.2236 -3.8516  1.8314
 1012MOL0     H33582   1.314   4.558   9.646 -0.4584 -0.8207 -0.7930
 1012MOL0     H33583   1.051   3.952  10.129 -0.9105 -1.6923  1.8800
 1012MOL0     H33584   0.812   3.982  10.226 -1.4257 -2.5806  0.7455
 1013MOL0     O33585   3.461   0.067   3.565 -0.6084  0.0573 -0.2325
 1013MOL0     C33586   3.482   0.169   3.632  1.0180  0.5526  0.4086
 1013MOL0     O33587   3.385   0.235   3.699  0.2062 -0.5907 -0.0024
 1013MOL0     C33588   3.254   0.206   3.728 -0.2890  0.4588 -0.5343
 1013MOL0     C33589   3.194   0.258   3.839 -0.6294 -0.8773  0.4144
 1013MOL0     C33590   3.062   0.234   3.867  0.9561 -0.1179  0.1758
 1013MOL0     C33591   2.986   0.152   3.784 -0.6985  0.5006  0.0239
 1013MOL0     O33592   2.853   0.129   3.810 -0.8438 -0.7162 -0.3390
 1013MOL0     C33593   2.761   0.095   3.702 -0.5122 -0.1898  0.1039
 1013MOL0     C33594   2.611   0.125   3.733 -0.2592  0.0060 -0.1289
 1013MOL0     C33595   2.507   0.005   3.718 -0.1335 -1.2367  0.4475
 1013MOL0     C33596   2.369   0.054   3.766 -0.4739  0.4721  0.3520
 1013MOL0     C33597   2.259  -0.059   3.730  0.2354  0.7639 -0.1257
 1013MOL0     C33598   2.118  -0.008   3.759  0.7333 -0.3488 -0.4133
 1013MOL0     C33599   2.008  -0.122   3.792  0.1263  0.3728 -0.3319
 1013MOL0     C33600   1.894  -0.123   3.691  0.3840 -0.6024 -0.8069
 1013MOL0     N33601   1.778  -0.209   3.737  0.0613  0.9424 -0.7018
 1013MOL0     C33602   1.777  -0.316   3.831  0.2386 -0.2559  0.0142
 1013MOL0     C33603   1.650  -0.365   3.828  0.2731  0.5685 -0.0995
 1013MOL0     C33604   1.592  -0.477   3.918 -1.4700  0.4610 -0.7890
 1013MOL0     C33605   1.472  -0.449   4.007  0.8181 -0.5683 -0.0123
 1013MOL0     C33606   1.414  -0.578   4.063  0.1187  0.5796  0.3293
 1013MOL0     C33607   1.286  -0.544   4.144 -0.5159  0.0774 -0.6622
 1013MOL0     O33608   1.224  -0.665   4.194 -0.4120  0.0999 -0.1333
 1013MOL0     C33609   1.120  -0.664   4.279 -0.7788 -0.2194  1.0099
 1013MOL0     C33610   1.057  -0.782   4.309 -0.0019  0.1297  0.8257
 1013MOL0     C33611   0.958  -0.784   4.405 -0.0130  0.2729 -1.2131
 1013MOL0     C33612   0.897  -0.666   4.452 -0.2219  0.1290  0.1727
 1013MOL0     C33613   0.792  -0.671   4.562 -0.3254  0.1146 -0.3906
 1013MOL0     O33614   0.747  -0.559   4.623  0.1933 -0.5793  1.0296
 1013MOL0     C33615   0.670  -0.566   4.744 -0.3793  0.6232  0.3066
 1013MOL0     C33616   0.626  -0.441   4.796 -0.5179  0.2421 -0.1010
 1013MOL0     C33617   0.571  -0.430   4.926 -0.0548 -0.5275  0.1619
 1013MOL0     C33618   0.540  -0.539   5.008 -0.7436  0.4514  0.0642
 1013MOL0     O33619   0.474  -0.532   5.135 -0.1570  0.7350  0.2793
 1013MOL0     C33620   0.504  -0.414   5.210 -0.7590  0.0565 -0.6152
 1013MOL0     C33621   0.649  -0.352   5.223 -0.2409 -0.9818  0.0303
 1013MOL0     C33622   0.689  -0.338   5.374  0.7573  0.4007  0.8821
 1013MOL0     C33623   0.803  -0.252   5.394 -0.2946  0.0257  0.3409
 1013MOL0     C33624   0.842  -0.244   5.550  0.5377  0.2754  0.9075
 1013MOL0     C33625   0.972  -0.174   5.565 -1.5222  0.6585 -0.2709
 1013MOL0     C33626   1.038  -0.219   5.697  0.2961  0.3561 -1.3859
 1013MOL0     C33627   1.179  -0.163   5.730  1.2908 -1.0943 -0.4172
 1013MOL0    Cl33628   1.316  -0.223   5.632 -0.2720  0.0934  0.3635
 1013MOL0     C33629   0.575  -0.664   4.950  0.8917  0.4441 -0.0306
 1013MOL0     C33630   0.628  -0.681   4.817 -0.0189 -0.6577 -1.0535
 1013MOL0     O33631   0.759  -0.786   4.594  0.6217  0.4249 -0.0402
 1013MOL0     C33632   0.954  -0.543   4.411 -0.6305  0.6862 -0.2903
 1013MOL0     C33633   1.060  -0.544   4.328  0.1568 -0.1450 -0.6756
 1013MOL0     N33634   1.577  -0.300   3.728  0.8033  0.0071  0.1556
 1013MOL0     N33635   1.657  -0.214   3.669  0.0385  0.2423 -0.4375
 1013MOL0     C33636   3.052   0.079   3.679  0.0872  0.1808  0.7745
 1013MOL0     C33637   3.179   0.106   3.647 -0.2348 -0.5621 -0.1856
 1013MOL0     C33638   3.617   0.219   3.666 -0.1725 -0.5231 -0.2219
 1013MOL0     C33639   3.643   0.327   3.749  0.2969 -0.3749  0.3862
 1013MOL0     C33640   3.774   0.383   3.772 -1.1555  0.2685  0.0039
 1013MOL0     C33641   3.884   0.314   3.719 -0.6164  0.0143 -0.1822
 1013MOL0     O33642   4.015   0.359   3.738 -0.2299  0.6840  0.4930
 1013MOL0     C33643   4.125   0.299   3.667 -0.7598  0.4046  0.5610
 1013MOL0     C33644   4.172   0.175   3.734 -0.0370 -0.9605 -1.0679
 1013MOL0     C33645   4.288   0.109   3.672 -0.4910 -0.9284  0.1371
 1013MOL0     C33646   4.427   0.156   3.708 -0.0450 -0.2777  0.3898
 1013MOL0     C33647   4.539   0.101   3.629  0.2016  0.0087  0.4335
 1013MOL0     C33648   4.611   0.062   3.539  0.6051 -0.1169 -0.7749
 1013MOL0     C33649   3.855   0.207   3.638 -0.0712  0.9201 -0.1988
 1013MOL0     C33650   3.730   0.166   3.603  0.4038 -0.0955  0.1190
 1013MOL0     H33651   3.253   0.325   3.900 -0.7514 -0.2412 -0.1553
 1013MOL0     H33652   3.009   0.283   3.948  1.1902  1.3858 -0.5528
 1013MOL0     H33653   2.775  -0.011   3.682  0.9390  0.1215 -0.6779
 1013MOL0     H33654   2.800   0.155   3.619 -0.5846  0.2747  0.4018
 1013MOL0     H33655   2.584   0.211   3.672  0.9336  1.3302  1.1413
 1013MOL0     H33656   2.599   0.168   3.833 -2.0856  0.3810 -0.4752
 1013MOL0     H33657   2.526  -0.088   3.772  0.1067 -2.1341 -1.1352
 1013MOL0     H33658   2.494  -0.024   3.613 -0.2365  0.4794 -0.0486
 1013MOL0     H33659   2.361   0.080   3.872  0.6100  1.9366  0.1144
 1013MOL0     H33660   2.350   0.148   3.714  1.6758  1.4240  1.1629
 1013MOL0     H33661   2.285  -0.151   3.782 -1.0501  0.5102  0.1109
 1013MOL0     H33662   2.264  -0.076   3.622 -2.6615  0.3633 -0.2675
 1013MOL0     H33663   2.084   0.058   3.680 -1.8169 -0.0408  0.8361
 1013MOL0     H33664   2.113   0.061   3.844  0.1916  0.0887 -0.7946
 1013MOL0     H33665   2.041  -0.225   3.810 -0.1767 -0.0434 -2.0531
 1013MOL0     H33666   1.954  -0.087   3.881  0.3541  0.2976 -0.1646
 1013MOL0     H33667   1.931  -0.147   3.591 -2.4616 -1.6197 -1.6997
 1013MOL0     H33668   1.857  -0.020   3.689 -0.0456 -0.7530 -0.7983
 1013MOL0     H33669   1.856  -0.339   3.901  0.3108  1.7858  0.6748
 1013MOL0     H33670   1.667  -0.523   3.983  0.5173  2.3199 -1.6255
 1013MOL0     H33671   1.556  -0.553   3.847 -2.4998 -0.3521  0.5547
 1013MOL0     H33672   1.401  -0.384   3.956  2.2414  0.7491 -0.3734
 1013MOL0     H33673   1.496  -0.387   4.094  0.8445 -0.1165 -0.3414
 1013MOL0     H33674   1.372  -0.644   3.986  1.3885  0.4676 -0.2838
 1013MOL0     H33675   1.491  -0.635   4.115 -1.4587 -0.2155  1.9145
 1013MOL0     H33676   1.219  -0.489   4.078 -2.0295  0.4367  1.1161
 1013MOL0     H33677   1.318  -0.485   4.230 -2.9927  0.7609 -0.1318
 1013MOL0     H33678   1.110  -0.872   4.281  0.3236  0.3400  0.7588
 1013MOL0     H33679   0.921  -0.881   4.439 -2.6496  2.0908  1.6472
 1013MOL0     H33680   0.643  -0.355   4.732 -2.3825 -0.3258 -1.4431
 1013MOL0     H33681   0.526  -0.336   4.955 -1.1551 -1.3995  1.3515
 1013MOL0     H33682   0.464  -0.423   5.311  1.3542  2.8950  0.6078
 1013MOL0     H33683   0.449  -0.329   5.167  0.9928  0.7165 -1.6849
 1013MOL0     H33684   0.660  -0.258   5.169 -0.9265 -1.0060 -0.1638
 1013MOL0     H33685   0.712  -0.426   5.173 -0.9163 -0.8596 -1.0371
 1013MOL0     H33686   0.716  -0.436   5.414 -4.8244 -0.5918  3.0476
 1013MOL0     H33687   0.605  -0.312   5.440  0.6218 -0.0742  0.8963
 1013MOL0     H33688   0.886  -0.305   5.347 -1.4527 -0.2457 -1.4890
 1013MOL0     H33689   0.785  -0.156   5.343  1.3182  1.1491  1.7780
 1013MOL0     H33690   0.836  -0.339   5.605 -1.4047 -0.2847 -0.1565
 1013MOL0     H33691   0.766  -0.179   5.594 -0.0741  2.5916 -3.0995
 1013MOL0     H33692   0.953  -0.067   5.548  1.2483  1.4026  0.7741
 1013MOL0     H33693   1.037  -0.204   5.482  0.1155 -3.0028  2.0898
 1013MOL0     H33694   0.969  -0.195   5.779  1.7471 -2.1053  0.6767
 1013MOL0     H33695   1.048  -0.327   5.702  0.1538  0.3738 -0.4291
 1013MOL0     H33696   1.208  -0.184   5.834 -2.3729 -0.5501  0.8528
 1013MOL0     H33697   1.170  -0.054   5.719  2.1484 -1.0520 -0.8271
 1013MOL0     H33698   0.542  -0.750   5.008 -2.5702  1.7661  0.1635
 1013MOL0     H33699   0.641  -0.785   4.790  3.2519 -0.0663 -2.3346
 1013MOL0     H33700   0.909  -0.455   4.456  1.5370  1.2027  1.0025
 1013MOL0     H33701   1.104  -0.447   4.310 -0.1428  0.7908  2.9038
 1013MOL0     H33702   2.992   0.013   3.616  0.4768  1.7565 -1.3922
 1013MOL0     H33703   3.230   0.053   3.567  2.2600 -0.9149  1.5385
 1013MOL0     H33704   3.553   0.370   3.791 -0.1133 -2.3860  1.6847
 1013MOL0     H33705   3.783   0.464   3.843  2.0602  0.3505 -0.3501
 1013MOL0     H33706   4.217   0.359   3.669  2.0256 -3.4464  0.2148
 1013MOL0     H33707   4.106   0.281   3.561  0.9017  0.0123  0.2997
 1013MOL0     H33708   4.210   0.206   3.832  1.0600 -3.3597 -0.6720
 1013MOL0     H33709   4.092   0.102   3.748 -0.4657 -0.2319  0.5346
 1013MOL0     H33710   4.275   0.111   3.563  0.0272  2.0003  0.0370
 1013MOL0     H33711   4.273   0.006   3.706 -2.8940 -1.4608 -2.1954
 1013MOL0     H33712   4.438   0.265   3.706  2.5212 -0.4469 -2.4509
 1013MOL0     H33713   4.437   0.119   3.810 -0.1973 -0.7242  0.2458
 1013MOL0     H33714   4.687   0.038   3.467  1.4473  2.2795 -0.7802
 1013MOL0     H33715   3.937   0.149   3.596  1.2597  2.6805 -0.1445
 1013MOL0     H33716   3.710   0.086   3.531 -2.0174  0.6846 -0.1581
 1014MOL0     O33717  10.540   0.790   2.315  0.0657  0.3327  0.5360
 1014MOL0     C33718  10.593   0.871   2.243  0.7565  0.2737 -0.0870
 1014MOL0     O33719  10.539   0.989   2.203 -0.3910 -0.8912 -0.7932
 1014MOL0     C33720  10.433   1.046   2.263 -0.2396  0.2922  0.5591
 1014MOL0     C33721  10.439   1.097   2.392  0.8290  0.0614 -0.1056
 1014MOL0     C33722  10.316   1.134   2.463 -0.0585  0.6402  0.9227
 1014MOL0     C33723  10.191   1.114   2.388  0.0482  0.1254 -0.6611
 1014MOL0     O33724  10.071   1.131   2.448 -0.0626  0.0359  0.8225
 1014MOL0     C33725  10.021   1.007   2.511 -0.1177 -0.5264  0.6244
 1014MOL0     C33726   9.982   1.027   2.653  0.7354 -0.6022  0.5074
 1014MOL0     C33727   9.878   1.134   2.663 -0.0254 -0.2318  0.7613
 1014MOL0     C33728   9.786   1.109   2.779 -0.6503  0.9071 -1.0222
 1014MOL0     C33729   9.683   0.998   2.766 -0.1221  0.3324 -0.2743
 1014MOL0     C33730   9.576   1.028   2.864 -0.6028  0.3367  0.9049
 1014MOL0     C33731   9.491   0.905   2.888  0.9972  0.2236  1.1958
 1014MOL0     C33732   9.374   0.944   2.975 -0.2669  0.6181  0.2921
 1014MOL0     N33733   9.273   0.843   3.000 -0.1140  0.0352 -0.2450
 1014MOL0     C33734   9.305   0.723   3.065 -0.6817 -0.2348 -1.1915
 1014MOL0     C33735   9.188   0.657   3.071 -0.7247  0.2044 -0.4276
 1014MOL0     C33736   9.153   0.528   3.153  0.5562 -0.1760 -0.4065
 1014MOL0     C33737   9.173   0.548   3.301 -0.3107  0.1737  0.7322
 1014MOL0     C33738   9.162   0.405   3.376 -0.6313 -0.1179 -0.9675
 1014MOL0     C33739   9.020   0.362   3.401 -0.3717  0.3156 -0.2564
 1014MOL0     O33740   9.001   0.299   3.529 -0.7263  0.3089  0.1334
 1014MOL0     C33741   8.883   0.287   3.596  0.1833  0.4837  0.3554
 1014MOL0     C33742   8.768   0.344   3.545 -0.0464  0.3381  0.1341
 1014MOL0     C33743   8.661   0.323   3.620  1.2891 -0.4663 -0.0031
 1014MOL0     C33744   8.647   0.240   3.734 -0.5607  0.0506  0.2572
 1014MOL0     C33745   8.524   0.237   3.811 -0.3983  0.5485  0.1272
 1014MOL0     O33746   8.403   0.257   3.742 -0.3403  0.0135  0.1525
 1014MOL0     C33747   8.283   0.235   3.811  0.0860 -0.2636  0.1048
 1014MOL0     C33748   8.252   0.114   3.861  0.2318  0.6112  0.3367
 1014MOL0     C33749   8.128   0.088   3.920 -0.4503  0.1090 -0.6382
 1014MOL0     C33750   8.030   0.187   3.934 -0.0273 -0.6308 -0.0432
 1014MOL0     O33751   7.901   0.165   3.985  0.5262 -0.3673 -0.3392
 1014MOL0     C33752   7.840   0.046   3.930 -0.6200 -0.2720  0.1511
 1014MOL0     C33753   7.691   0.065   3.941 -0.4677 -0.0410  0.3317
 1014MOL0     C33754   7.648   0.051   4.082  0.1212 -0.3304  0.3818
 1014MOL0     C33755   7.497   0.045   4.100  0.0449 -0.1809 -0.8485
 1014MOL0     C33756   7.443   0.048   4.243 -0.1641  0.8562  0.1540
 1014MOL0     C33757   7.291   0.057   4.236 -0.0132 -0.4656 -0.4600
 1014MOL0     C33758   7.229   0.039   4.377  0.3357  0.0038 -1.0063
 1014MOL0     C33759   7.099  -0.042   4.369  0.7315  0.7630  0.0817
 1014MOL0    Cl33760   6.995   0.037   4.245  0.3125  0.3220  0.0203
 1014MOL0     C33761   8.063   0.313   3.891 -0.1826 -0.5177  0.0308
 1014MOL0     C33762   8.191   0.338   3.832  0.6324  0.7639  0.5357
 1014MOL0     O33763   8.533   0.217   3.932  0.1334 -0.3310 -0.1121
 1014MOL0     C33764   8.770   0.186   3.778  0.1995  0.0488 -0.5008
 1014MOL0     C33765   8.885   0.214   3.712 -0.1786  0.3687  0.0299
 1014MOL0     N33766   9.092   0.734   3.007 -0.8191  0.4091 -1.0459
 1014MOL0     N33767   9.142   0.846   2.976  0.2886 -0.1371  0.5380
 1014MOL0     C33768  10.191   1.065   2.257  0.0056 -0.5389 -0.4842
 1014MOL0     C33769  10.311   1.030   2.198  0.4255  0.9520  0.4068
 1014MOL0     C33770  10.712   0.828   2.180 -0.2301  0.3377  0.3106
 1014MOL0     C33771  10.779   0.906   2.077  0.3633 -0.4589 -0.7214
 1014MOL0     C33772  10.885   0.858   2.005  0.0177 -0.0638  0.4208
 1014MOL0     C33773  10.941   0.738   2.040  0.6252  0.4245  0.3243
 1014MOL0     O33774  11.045   0.681   1.970  0.0832 -0.3795  0.4022
 1014MOL0     C33775  11.084   0.744   1.851  0.6983  0.0746 -0.0293
 1014MOL0     C33776  11.204   0.692   1.777 -0.4501 -0.7347  0.1833
 1014MOL0     C33777  11.186   0.549   1.718 -0.4686  0.2073 -0.4293
 1014MOL0     C33778  11.104   0.533   1.588 -0.1686  0.0413  0.1660
 1014MOL0     C33779  11.095   0.398   1.536 -0.2019  0.6953  0.6741
 1014MOL0     C33780  11.111   0.286   1.487  0.4000 -0.0350  0.2934
 1014MOL0     C33781  10.892   0.658   2.143  1.2639  0.1070 -0.3874
 1014MOL0     C33782  10.779   0.706   2.215 -0.6927 -0.1969  0.5588
 1014MOL0     H33783  10.538   1.100   2.435  0.0870 -0.1342  1.6718
 1014MOL0     H33784  10.332   1.169   2.565  0.9393  0.0144  0.9957
 1014MOL0     H33785  10.097   0.928   2.504 -1.1016 -1.6163  1.7467
 1014MOL0     H33786   9.931   0.969   2.461 -1.1783  1.7229  0.7027
 1014MOL0     H33787  10.075   1.055   2.705  2.1339  0.4638 -2.3709
 1014MOL0     H33788   9.958   0.927   2.691  2.0816 -1.4399 -0.7540
 1014MOL0     H33789   9.822   1.131   2.569  1.4849 -1.0016 -0.1569
 1014MOL0     H33790   9.935   1.227   2.667  0.2103 -0.3520  0.3340
 1014MOL0     H33791   9.853   1.090   2.864  0.5581  1.4759 -1.8176
 1014MOL0     H33792   9.734   1.203   2.800 -1.4294  0.4571 -0.8961
 1014MOL0     H33793   9.738   0.912   2.806 -0.0793  1.2348  1.7589
 1014MOL0     H33794   9.637   0.983   2.668 -1.3511 -1.0278  0.4672
 1014MOL0     H33795   9.510   1.107   2.827  0.4147  0.3853 -0.9064
 1014MOL0     H33796   9.627   1.058   2.956 -2.0205 -0.5350  2.0238
 1014MOL0     H33797   9.451   0.870   2.793 -0.4048 -2.9184  2.7813
 1014MOL0     H33798   9.549   0.821   2.927  0.1648 -0.4661  0.9742
 1014MOL0     H33799   9.329   1.029   2.923 -1.2079 -0.4977 -0.7992
 1014MOL0     H33800   9.411   0.976   3.073 -1.5028  0.5733  0.7844
 1014MOL0     H33801   9.396   0.693   3.116 -1.1814 -1.3638 -0.9386
 1014MOL0     H33802   9.229   0.454   3.126 -0.5691 -1.9330  1.0934
 1014MOL0     H33803   9.052   0.490   3.139  1.4475 -4.0012  2.1787
 1014MOL0     H33804   9.103   0.619   3.344 -1.8762  0.3250 -1.8565
 1014MOL0     H33805   9.273   0.594   3.303 -0.4368  0.8266 -2.6489
 1014MOL0     H33806   9.220   0.335   3.315 -2.8677 -0.7922 -2.4319
 1014MOL0     H33807   9.214   0.423   3.471 -0.2294  1.1030 -1.4049
 1014MOL0     H33808   8.998   0.294   3.319  0.0771  1.7055 -1.5722
 1014MOL0     H33809   8.954   0.449   3.397 -2.0959 -0.8853  0.8822
 1014MOL0     H33810   8.758   0.413   3.463 -1.1396 -1.5900 -1.4399
 1014MOL0     H33811   8.567   0.370   3.591  0.4835  0.2555  3.2373
 1014MOL0     H33812   8.313   0.025   3.855 -2.5530 -1.5984  2.1319
 1014MOL0     H33813   8.121  -0.007   3.972 -0.2167  0.7416  0.5867
 1014MOL0     H33814   7.883  -0.043   3.976  0.7540 -0.3374 -1.1960
 1014MOL0     H33815   7.856   0.038   3.822  0.3978  2.2069  0.0534
 1014MOL0     H33816   7.635  -0.013   3.889 -0.2886 -1.9664  2.8190
 1014MOL0     H33817   7.668   0.164   3.901  0.3244  1.0523  2.4076
 1014MOL0     H33818   7.686   0.135   4.140 -1.4743  0.1881  0.7152
 1014MOL0     H33819   7.694  -0.037   4.128  3.9086  1.7135  0.9120
 1014MOL0     H33820   7.445   0.129   4.052  1.3995  2.1422  1.4954
 1014MOL0     H33821   7.458  -0.044   4.051 -0.7504 -0.0776 -0.4171
 1014MOL0     H33822   7.487   0.134   4.295 -0.1967 -0.2493  2.1294
 1014MOL0     H33823   7.477  -0.041   4.297  2.4820 -0.0364 -2.6774
 1014MOL0     H33824   7.251  -0.021   4.170  4.3354 -1.7764 -1.9013
 1014MOL0     H33825   7.261   0.154   4.197  0.1689 -0.4050 -0.4462
 1014MOL0     H33826   7.302  -0.011   4.441  0.4992 -0.2476 -1.3829
 1014MOL0     H33827   7.196   0.131   4.426 -1.5041 -1.0092 -0.2347
 1014MOL0     H33828   7.049  -0.045   4.467  1.6133 -0.6818  0.5125
 1014MOL0     H33829   7.112  -0.147   4.341 -1.1061  0.6316 -0.4164
 1014MOL0     H33830   7.995   0.397   3.894  1.9796  1.2900  1.1192
 1014MOL0     H33831   8.220   0.438   3.800  1.6522  0.0676 -0.8141
 1014MOL0     H33832   8.771   0.137   3.875  0.0322 -0.1277 -0.5892
 1014MOL0     H33833   8.976   0.173   3.756 -1.8393 -1.0151  2.4527
 1014MOL0     H33834  10.105   1.040   2.197  1.0955 -2.7889 -1.2120
 1014MOL0     H33835  10.330   0.986   2.100  1.0000  0.6539  0.6465
 1014MOL0     H33836  10.740   1.001   2.042 -1.6951 -0.9286  0.1082
 1014MOL0     H33837  10.916   0.916   1.919  1.5483 -1.2239  0.1452
 1014MOL0     H33838  11.112   0.847   1.876  0.0343 -0.1263  1.6573
 1014MOL0     H33839  10.999   0.749   1.782  1.1822  0.5853 -0.5953
 1014MOL0     H33840  11.228   0.748   1.686  1.0306 -2.4326 -0.5299
 1014MOL0     H33841  11.292   0.692   1.841 -0.0961 -2.5875 -0.2585
 1014MOL0     H33842  11.135   0.491   1.796 -0.9190  1.0216 -0.1088
 1014MOL0     H33843  11.287   0.516   1.695  0.0172 -0.2136  2.0615
 1014MOL0     H33844  10.999   0.565   1.591 -0.9764 -2.0722 -2.1390
 1014MOL0     H33845  11.142   0.605   1.514 -1.3552  0.3131 -0.2139
 1014MOL0     H33846  11.146   0.195   1.444 -0.3974 -0.5341  0.6864
 1014MOL0     H33847  10.951   0.568   2.158 -2.4554 -2.7297 -1.4808
 1014MOL0     H33848  10.727   0.635   2.278 -0.7132 -2.0914 -1.4707
 1015MOL0     O33849   9.198   6.635   0.237  0.0071  0.2935  1.4545
 1015MOL0     C33850   9.307   6.606   0.277  0.2522  0.8123  0.7593
 1015MOL0     O33851   9.334   6.529   0.387  0.1008  0.5846 -0.1969
 1015MOL0     C33852   9.230   6.467   0.451 -0.5567  0.1576 -0.2786
 1015MOL0     C33853   9.233   6.331   0.476  0.1997  0.4913 -0.4071
 1015MOL0     C33854   9.130   6.264   0.555 -0.1292 -0.1354  0.1304
 1015MOL0     C33855   9.026   6.344   0.607 -0.0542  0.9158 -0.3624
 1015MOL0     O33856   8.935   6.295   0.694  0.1189 -0.0286 -0.4026
 1015MOL0     C33857   8.940   6.163   0.749  0.4244 -0.6098 -0.3311
 1015MOL0     C33858   8.803   6.127   0.797 -0.7676 -0.4577 -0.2281
 1015MOL0     C33859   8.704   6.079   0.694  1.0093  0.6829 -0.2499
 1015MOL0     C33860   8.586   6.015   0.768  0.2586 -0.0346  0.2928
 1015MOL0     C33861   8.483   5.929   0.692 -0.7581  0.8332 -0.0002
 1015MOL0     C33862   8.354   5.911   0.769 -0.1164  0.2941 -0.3343
 1015MOL0     C33863   8.270   5.803   0.707 -0.0910 -0.3843  0.4615
 1015MOL0     C33864   8.139   5.759   0.783 -0.7052  0.2536 -0.6606
 1015MOL0     N33865   8.051   5.675   0.701  0.3047  0.6053  0.3061
 1015MOL0     C33866   7.984   5.698   0.576 -0.6311  0.4247 -1.2387
 1015MOL0     C33867   7.970   5.576   0.523  0.7647  0.7964  0.4361
 1015MOL0     C33868   7.898   5.547   0.389  0.2159  0.1549  0.4495
 1015MOL0     C33869   7.747   5.546   0.386  0.3203  0.1619 -0.5885
 1015MOL0     C33870   7.687   5.428   0.472  0.3243 -0.4493  0.4565
 1015MOL0     C33871   7.534   5.401   0.451 -0.5131  0.2599  0.4850
 1015MOL0     O33872   7.447   5.512   0.452  1.1405 -0.1319  0.5027
 1015MOL0     C33873   7.315   5.483   0.432  0.4904  0.2005  0.6428
 1015MOL0     C33874   7.223   5.592   0.449  0.6262 -0.3204 -1.0006
 1015MOL0     C33875   7.088   5.559   0.435 -0.0882 -0.7265  0.2027
 1015MOL0     C33876   7.037   5.441   0.403 -0.0061  0.3457 -0.4869
 1015MOL0     C33877   6.890   5.427   0.402 -0.4871 -1.1447  0.9323
 1015MOL0     O33878   6.850   5.321   0.329 -0.5187 -0.1636  0.7246
 1015MOL0     C33879   6.717   5.291   0.328  0.6389 -0.0214  0.2042
 1015MOL0     C33880   6.646   5.285   0.448 -0.2714  0.4417 -0.0290
 1015MOL0     C33881   6.513   5.241   0.452  0.1285 -0.0444 -0.1898
 1015MOL0     C33882   6.449   5.189   0.339 -0.2064 -0.7348  0.4295
 1015MOL0     O33883   6.316   5.142   0.348 -0.3536  0.0433 -0.1608
 1015MOL0     C33884   6.223   5.190   0.248 -0.0807  1.1519  0.1308
 1015MOL0     C33885   6.094   5.116   0.299 -0.1751 -0.0033  0.1116
 1015MOL0     C33886   5.970   5.130   0.212 -0.8689 -0.2926  0.4092
 1015MOL0     C33887   5.844   5.057   0.266  0.4838 -0.3978  0.4752
 1015MOL0     C33888   5.725   5.069   0.169 -0.1761  0.4862 -0.3011
 1015MOL0     C33889   5.593   4.999   0.208  0.0386  0.4281  0.1353
 1015MOL0     C33890   5.537   5.018   0.352  0.3425  0.5488 -0.1873
 1015MOL0     C33891   5.412   4.934   0.374  0.4087 -0.4625 -0.1406
 1015MOL0    Cl33892   5.347   4.992   0.532  0.1846  0.1694  0.0743
 1015MOL0     C33893   6.520   5.189   0.214  0.2903 -0.1707 -0.0366
 1015MOL0     C33894   6.653   5.235   0.216  0.2296  0.5761  0.8528
 1015MOL0     O33895   6.809   5.505   0.459 -0.4468 -0.3854  0.4347
 1015MOL0     C33896   7.126   5.339   0.376  0.4275  0.3093  0.6299
 1015MOL0     C33897   7.264   5.357   0.390  0.5208 -0.0539  0.0460
 1015MOL0     N33898   8.012   5.477   0.613  0.0955 -0.2653 -0.1676
 1015MOL0     N33899   8.065   5.534   0.714 -0.3837  0.0533 -0.3931
 1015MOL0     C33900   9.028   6.483   0.594  0.5840  0.8552  0.2257
 1015MOL0     C33901   9.126   6.536   0.513 -0.4166  0.3539 -0.4322
 1015MOL0     C33902   9.418   6.657   0.197 -1.1596 -0.0457 -0.2762
 1015MOL0     C33903   9.547   6.663   0.252 -0.4092 -0.8413 -0.5486
 1015MOL0     C33904   9.661   6.692   0.169 -0.6809 -0.8932  1.3495
 1015MOL0     C33905   9.648   6.750   0.040  0.8200  0.1799 -0.4780
 1015MOL0     O33906   9.759   6.794  -0.032 -0.1061 -0.3133  0.0274
 1015MOL0     C33907   9.762   6.814  -0.171  0.1339 -0.8996 -0.8371
 1015MOL0     C33908   9.908   6.795  -0.227  0.0383 -0.0399  0.6243
 1015MOL0     C33909   9.932   6.877  -0.357  0.5257  0.0013  0.1637
 1015MOL0     C33910  10.080   6.895  -0.387 -0.5658 -0.6152 -0.1749
 1015MOL0     C33911  10.140   6.997  -0.304 -0.3983  0.3442  0.4886
 1015MOL0     C33912  10.182   7.091  -0.242 -0.4422  0.0108  0.7095
 1015MOL0     C33913   9.519   6.745  -0.020 -0.1482 -0.5876  0.2111
 1015MOL0     C33914   9.413   6.696   0.057  0.0229  0.4781 -0.1387
 1015MOL0     H33915   9.310   6.268   0.431  0.6392  0.6263  0.1508
 1015MOL0     H33916   9.136   6.157   0.567 -3.4361 -0.4869 -0.4284
 1015MOL0     H33917   9.013   6.172   0.831  2.2831  0.6100 -2.0138
 1015MOL0     H33918   8.972   6.089   0.675 -0.2808 -0.9588 -0.2926
 1015MOL0     H33919   8.764   6.212   0.854 -1.6003  0.0655 -1.5292
 1015MOL0     H33920   8.824   6.047   0.869  1.9615  2.0253  1.9671
 1015MOL0     H33921   8.762   6.011   0.630  1.0781 -1.1119  1.6094
 1015MOL0     H33922   8.668   6.166   0.638  3.5813  1.3169 -1.0711
 1015MOL0     H33923   8.627   5.949   0.845  0.6125  0.0712  0.1953
 1015MOL0     H33924   8.527   6.096   0.810 -1.0843 -0.8553  0.0508
 1015MOL0     H33925   8.539   5.835   0.691 -0.9942  0.6854  0.3898
 1015MOL0     H33926   8.467   5.951   0.586 -0.0900 -0.6212 -0.4377
 1015MOL0     H33927   8.297   6.004   0.775 -1.0142 -0.3203  2.7162
 1015MOL0     H33928   8.384   5.890   0.872 -4.7006  3.3703  1.9947
 1015MOL0     H33929   8.240   5.837   0.607  0.8398  0.5426  0.4746
 1015MOL0     H33930   8.323   5.708   0.694  0.8877 -0.0354  1.6692
 1015MOL0     H33931   8.078   5.849   0.802  0.7082  1.7647 -2.8734
 1015MOL0     H33932   8.171   5.706   0.874  3.1593  0.5669 -1.6806
 1015MOL0     H33933   7.959   5.800   0.548  1.8664  0.8762 -2.1545
 1015MOL0     H33934   7.936   5.465   0.327  0.1394  1.5297 -1.5348
 1015MOL0     H33935   7.919   5.637   0.329 -4.0743 -1.5359 -4.3468
 1015MOL0     H33936   7.717   5.538   0.281 -0.1368  1.0241 -0.5337
 1015MOL0     H33937   7.710   5.645   0.415  0.9841 -0.6616  3.6621
 1015MOL0     H33938   7.738   5.333   0.450  0.2094 -0.7265  1.3609
 1015MOL0     H33939   7.690   5.449   0.579 -0.9781 -0.3075  0.4829
 1015MOL0     H33940   7.491   5.321   0.512 -1.6204 -0.7034 -1.4859
 1015MOL0     H33941   7.528   5.362   0.349 -1.1680  0.0109  0.6138
 1015MOL0     H33942   7.258   5.689   0.483 -0.4234 -0.6295  1.1632
 1015MOL0     H33943   7.010   5.632   0.455  0.3380  0.6793 -2.6513
 1015MOL0     H33944   6.690   5.303   0.546 -0.2554 -0.5734  0.1575
 1015MOL0     H33945   6.463   5.244   0.548 -1.4336 -0.8912 -0.9374
 1015MOL0     H33946   6.243   5.157   0.146  2.0512 -1.0057  1.1321
 1015MOL0     H33947   6.209   5.298   0.248 -0.6784  1.0865 -0.9714
 1015MOL0     H33948   6.067   5.148   0.400 -0.3691  2.8095 -0.7479
 1015MOL0     H33949   6.117   5.009   0.300  0.9767  0.2351  1.0327
 1015MOL0     H33950   5.991   5.090   0.112  2.2450 -0.5279  1.0601
 1015MOL0     H33951   5.947   5.237   0.205 -0.8557 -0.3417 -0.5774
 1015MOL0     H33952   5.868   4.952   0.286 -0.3192 -0.4087  1.4854
 1015MOL0     H33953   5.809   5.107   0.357  0.6411  0.9988 -0.2010
 1015MOL0     H33954   5.747   5.036   0.067 -1.2421 -0.1027 -0.3487
 1015MOL0     H33955   5.701   5.176   0.166 -0.1509  0.4698 -1.4686
 1015MOL0     H33956   5.606   4.891   0.206  1.1565  0.4913  1.9476
 1015MOL0     H33957   5.522   5.026   0.130 -1.2242 -0.3195  0.9854
 1015MOL0     H33958   5.617   4.995   0.422  4.5808 -0.0617 -4.6745
 1015MOL0     H33959   5.505   5.122   0.363 -0.8472  0.2281 -0.4254
 1015MOL0     H33960   5.445   4.830   0.380  1.7811 -0.0574 -0.2000
 1015MOL0     H33961   5.342   4.948   0.291  0.4104 -1.3214 -0.2993
 1015MOL0     H33962   6.474   5.158   0.121 -3.3851 -0.3889  1.7103
 1015MOL0     H33963   6.718   5.225   0.129 -1.5837 -0.0715 -0.4969
 1015MOL0     H33964   7.094   5.240   0.346  1.4878 -0.2844  1.3950
 1015MOL0     H33965   7.323   5.269   0.366  1.0588 -0.4726  2.6599
 1015MOL0     H33966   8.947   6.541   0.636 -0.7267  0.0174 -1.0362
 1015MOL0     H33967   9.128   6.643   0.496  1.6382  0.4023 -0.0959
 1015MOL0     H33968   9.558   6.633   0.355 -2.4723  0.4889  0.1377
 1015MOL0     H33969   9.761   6.683   0.210  1.6233 -0.0534 -3.3835
 1015MOL0     H33970   9.738   6.920  -0.186  0.6216 -0.4174  1.3511
 1015MOL0     H33971   9.685   6.754  -0.220 -3.6559  2.1584  0.8637
 1015MOL0     H33972   9.985   6.834  -0.161  1.2717 -1.2962 -0.0050
 1015MOL0     H33973   9.930   6.688  -0.240  2.1380  0.2255  1.6929
 1015MOL0     H33974   9.885   6.976  -0.361  1.2958  0.3378 -1.1923
 1015MOL0     H33975   9.901   6.834  -0.453  0.5733  2.3942 -1.0200
 1015MOL0     H33976  10.133   6.799  -0.379  2.9021  1.2738  1.7844
 1015MOL0     H33977  10.088   6.926  -0.491  0.2451  1.8184  0.5546
 1015MOL0     H33978  10.221   7.173  -0.184 -0.2823  1.6126 -1.5460
 1015MOL0     H33979   9.497   6.802  -0.110  2.8967  0.9453  0.3192
 1015MOL0     H33980   9.314   6.692   0.012 -1.0307  1.0003  1.9852
 1016MOL0     O33981   1.089  11.144   1.194 -0.8393 -0.1469 -0.1133
 1016MOL0     C33982   1.127  11.139   1.312  0.0669 -0.3462  0.8005
 1016MOL0     O33983   1.046  11.125   1.421  0.2520  0.4732 -0.2306
 1016MOL0     C33984   0.922  11.065   1.415 -0.1342  0.1345 -0.6864
 1016MOL0     C33985   0.825  11.097   1.514 -0.5969  0.0027  0.6768
 1016MOL0     C33986   0.703  11.036   1.514  0.0485  0.4048  0.7036
 1016MOL0     C33987   0.653  10.949   1.413  0.2245  1.0855 -0.0088
 1016MOL0     O33988   0.530  10.891   1.431  0.4106  0.1954 -0.5762
 1016MOL0     C33989   0.468  10.836   1.317 -0.2468 -0.1779 -0.2713
 1016MOL0     C33990   0.318  10.839   1.343  0.0968  0.3638 -0.2750
 1016MOL0     C33991   0.233  10.825   1.216 -1.1847  0.1421  0.0226
 1016MOL0     C33992   0.085  10.856   1.234 -0.3290 -0.2358  0.0290
 1016MOL0     C33993   0.028  10.775   1.352 -0.7160  0.3593  0.2565
 1016MOL0     C33994   0.031  10.626   1.332  0.4239  0.1311 -0.5701
 1016MOL0     C33995  -0.024  10.548   1.466  0.9812 -0.5149  0.4944
 1016MOL0     C33996   0.067  10.444   1.526  0.2257 -0.0886  0.0538
 1016MOL0     N33997   0.054  10.311   1.461  0.4564 -1.7655 -0.0750
 1016MOL0     C33998  -0.049  10.235   1.487 -0.0691  0.1104 -0.2389
 1016MOL0     C33999  -0.016  10.117   1.433 -0.6056  0.0366 -0.0402
 1016MOL0     C34000  -0.102   9.998   1.421  0.1306  1.0014 -0.1441
 1016MOL0     C34001  -0.241   9.993   1.487 -0.2300  0.1591  0.0711
 1016MOL0     C34002  -0.354  10.083   1.426  0.8693  0.6926  0.2640
 1016MOL0     C34003  -0.492  10.018   1.460  0.2644 -1.0653  0.5003
 1016MOL0     O34004  -0.577  10.134   1.458  0.6617 -0.4550 -0.0774
 1016MOL0     C34005  -0.718  10.120   1.469 -0.8210 -0.5813 -0.3484
 1016MOL0     C34006  -0.795  10.243   1.454 -0.8159 -0.1114 -0.2928
 1016MOL0     C34007  -0.924  10.246   1.503  0.3565  0.2904 -0.4085
 1016MOL0     C34008  -0.999  10.127   1.524 -0.8066 -0.2168  0.0354
 1016MOL0     C34009  -1.151  10.121   1.548  0.5327  0.1761 -0.5837
 1016MOL0     O34010  -1.213  10.006   1.561  0.2268 -0.0237  0.2911
 1016MOL0     C34011  -1.344  10.012   1.574  0.5179  0.9022 -0.3401
 1016MOL0     C34012  -1.406   9.952   1.695 -0.9534  0.1178  0.5958
 1016MOL0     C34013  -1.544   9.966   1.705 -0.6084 -0.9496  0.0467
 1016MOL0     C34014  -1.619  10.032   1.610  0.3249 -0.2561 -0.0692
 1016MOL0     O34015  -1.743  10.068   1.650  0.3211  0.3035 -0.6486
 1016MOL0     C34016  -1.850  10.081   1.560 -0.6975 -0.2101  0.1075
 1016MOL0     C34017  -1.977  10.071   1.659  0.1011 -0.3579 -0.8981
 1016MOL0     C34018  -2.109  10.067   1.580 -0.4387 -0.1188  0.2485
 1016MOL0     C34019  -2.229  10.089   1.676 -0.0136 -0.2011 -0.1266
 1016MOL0     C34020  -2.362  10.131   1.605 -1.2571  0.2625  0.3974
 1016MOL0     C34021  -2.424  10.005   1.529 -0.2802  0.7669 -0.2518
 1016MOL0     C34022  -2.483   9.898   1.622 -0.3086 -0.1252  0.3788
 1016MOL0     C34023  -2.617   9.939   1.693 -0.6786 -0.1292  0.6002
 1016MOL0    Cl34024  -2.755   9.923   1.583 -0.2658  0.3922 -0.2196
 1016MOL0     C34025  -1.571  10.057   1.479 -0.3233 -0.1198  0.4466
 1016MOL0     C34026  -1.429  10.046   1.467 -0.5319  0.6666  0.1920
 1016MOL0     O34027  -1.210  10.233   1.534  0.5084 -0.2799  0.5293
 1016MOL0     C34028  -0.927  10.006   1.513  0.4653  0.4197  0.6736
 1016MOL0     C34029  -0.786   9.996   1.498  0.3555 -0.9303  0.5422
 1016MOL0     N34030   0.112  10.132   1.384  0.8847  0.0627  0.0163
 1016MOL0     N34031   0.154  10.256   1.392 -0.0093  0.2642 -0.9267
 1016MOL0     C34032   0.744  10.926   1.309 -0.1206 -0.7777 -0.2044
 1016MOL0     C34033   0.878  10.974   1.310 -0.9999 -0.0423  0.3160
 1016MOL0     C34034   1.266  11.144   1.336  0.1540 -0.6126  0.4748
 1016MOL0     C34035   1.362  11.129   1.229 -0.0556  0.1295  0.6745
 1016MOL0     C34036   1.502  11.140   1.249 -0.7325 -0.1121 -0.0967
 1016MOL0     C34037   1.552  11.143   1.375 -0.6719 -0.3572  0.9441
 1016MOL0     O34038   1.687  11.139   1.412 -0.9794  0.0350 -0.0367
 1016MOL0     C34039   1.792  11.148   1.310 -0.0979  0.7467 -0.2086
 1016MOL0     C34040   1.807  11.295   1.273 -0.3815 -0.2561  0.1099
 1016MOL0     C34041   1.927  11.332   1.196 -1.2967  0.6189 -0.1806
 1016MOL0     C34042   2.053  11.321   1.278 -0.0208 -0.4752  0.5741
 1016MOL0     C34043   2.173  11.381   1.219 -0.5622  0.7155  0.5258
 1016MOL0     C34044   2.289  11.409   1.182  1.2306 -1.1485 -0.1658
 1016MOL0     C34045   1.460  11.160   1.473  0.4064 -0.2321 -1.0723
 1016MOL0     C34046   1.315  11.162   1.470 -0.7869  0.4983  0.3006
 1016MOL0     H34047   0.843  11.180   1.581 -0.2009 -1.1939  2.0910
 1016MOL0     H34048   0.637  11.052   1.599 -1.7878  0.9078 -0.7561
 1016MOL0     H34049   0.507  10.737   1.289 -3.4510 -0.9954 -2.2960
 1016MOL0     H34050   0.490  10.906   1.236  0.2924  1.4536  1.2020
 1016MOL0     H34051   0.293  10.937   1.384  2.8328  0.7800  0.5327
 1016MOL0     H34052   0.272  10.766   1.411  0.1503 -0.0171 -0.6479
 1016MOL0     H34053   0.245  10.723   1.176  4.2872  0.2412  0.5993
 1016MOL0     H34054   0.277  10.888   1.138 -2.3930  3.1746  1.6452
 1016MOL0     H34055   0.069  10.963   1.253 -0.4100 -0.4870  1.5587
 1016MOL0     H34056   0.041  10.829   1.138 -0.5482 -2.1323  0.6178
 1016MOL0     H34057  -0.077  10.805   1.363 -0.6760  0.1124  1.5181
 1016MOL0     H34058   0.072  10.796   1.450  1.0375 -1.5628 -0.0513
 1016MOL0     H34059   0.130  10.588   1.302  1.6819  2.2630  0.6262
 1016MOL0     H34060  -0.037  10.596   1.252  0.1066 -4.4753  1.1130
 1016MOL0     H34061  -0.040  10.633   1.533 -1.1940 -0.8622  0.4958
 1016MOL0     H34062  -0.121  10.502   1.446 -1.0564  2.9918  1.4968
 1016MOL0     H34063   0.043  10.426   1.631  0.0346  0.6220  0.1373
 1016MOL0     H34064   0.172  10.475   1.518  0.4894 -0.7566  0.8047
 1016MOL0     H34065  -0.137  10.262   1.545 -2.5266 -0.0144 -3.6226
 1016MOL0     H34066  -0.045   9.915   1.466 -2.1227 -0.1888  0.6686
 1016MOL0     H34067  -0.116   9.957   1.320 -1.0313 -0.9590  0.7507
 1016MOL0     H34068  -0.233  10.017   1.594 -0.2536  1.7435 -0.2572
 1016MOL0     H34069  -0.284   9.893   1.486  1.6910 -0.6952 -1.1900
 1016MOL0     H34070  -0.346  10.183   1.468  2.3256  0.9054 -0.4382
 1016MOL0     H34071  -0.341  10.093   1.318 -0.3795  3.2060  0.2768
 1016MOL0     H34072  -0.490   9.979   1.562  2.7715 -0.6925  0.6501
 1016MOL0     H34073  -0.501   9.932   1.393  3.2164 -2.2900  1.5131
 1016MOL0     H34074  -0.739  10.330   1.420 -0.1627 -1.5430 -3.1930
 1016MOL0     H34075  -0.971  10.344   1.498  0.2001  0.3444  1.3016
 1016MOL0     H34076  -1.349   9.896   1.768  0.5438 -1.3339 -1.5567
 1016MOL0     H34077  -1.577   9.927   1.801  1.0880 -1.9033  0.2934
 1016MOL0     H34078  -1.846  10.005   1.482  2.4454 -0.1610  0.0875
 1016MOL0     H34079  -1.846  10.179   1.511  2.6784  0.0863  0.7419
 1016MOL0     H34080  -1.974  10.145   1.739 -1.2011 -1.0297 -0.2011
 1016MOL0     H34081  -1.980   9.975   1.710 -3.3357  0.3224  0.4344
 1016MOL0     H34082  -2.110   9.969   1.532 -0.5628  0.3561 -0.7420
 1016MOL0     H34083  -2.102  10.142   1.501  0.2220  0.3643  0.7544
 1016MOL0     H34084  -2.235  10.007   1.747 -1.7490 -0.4384 -0.5128
 1016MOL0     H34085  -2.188  10.171   1.735  2.6221 -1.8776  0.5244
 1016MOL0     H34086  -2.347  10.213   1.534 -0.0769  0.4158  0.7935
 1016MOL0     H34087  -2.430  10.180   1.675 -0.8771  4.0740 -1.6112
 1016MOL0     H34088  -2.354   9.944   1.470 -1.1421  0.2487 -0.7488
 1016MOL0     H34089  -2.509  10.034   1.467  0.2896 -0.6726 -1.7833
 1016MOL0     H34090  -2.496   9.807   1.563  1.4654 -0.6184  0.6841
 1016MOL0     H34091  -2.407   9.867   1.694  1.3128  2.1259 -0.2619
 1016MOL0     H34092  -2.603  10.046   1.713  3.9951 -0.1185 -1.3492
 1016MOL0     H34093  -2.634   9.889   1.789  1.2563 -0.2040  0.9608
 1016MOL0     H34094  -1.626  10.115   1.405  2.4092  0.7534 -1.0618
 1016MOL0     H34095  -1.384  10.069   1.372 -1.7839 -4.8186 -2.0952
 1016MOL0     H34096  -0.978   9.910   1.517  0.5010  0.3563 -0.1859
 1016MOL0     H34097  -0.726   9.911   1.528  2.9128  0.5560 -0.1366
 1016MOL0     H34098   0.719  10.864   1.224 -1.2542 -1.5720  0.6833
 1016MOL0     H34099   0.934  10.944   1.222 -2.6909 -0.8543 -0.5334
 1016MOL0     H34100   1.319  11.136   1.130  0.1406 -0.0883  0.5737
 1016MOL0     H34101   1.567  11.159   1.164 -2.9038  1.3483 -1.5555
 1016MOL0     H34102   1.768  11.092   1.219  0.9445  0.2024 -0.1740
 1016MOL0     H34103   1.882  11.107   1.357 -0.1454 -0.2515 -0.9446
 1016MOL0     H34104   1.721  11.342   1.225  0.8361  0.8358 -1.0832
 1016MOL0     H34105   1.806  11.344   1.371 -2.6688  3.2538 -1.4585
 1016MOL0     H34106   1.913  11.435   1.162  0.9612  0.7365 -0.9184
 1016MOL0     H34107   1.941  11.281   1.101  1.6310  2.6488 -0.9564
 1016MOL0     H34108   2.030  11.364   1.376 -3.7510 -1.9765  0.5620
 1016MOL0     H34109   2.081  11.216   1.288  4.1853  0.5632  1.6173
 1016MOL0     H34110   2.387  11.433   1.146  2.3564 -0.4328  3.0281
 1016MOL0     H34111   1.499  11.184   1.571  1.9054  0.4465 -1.8001
 1016MOL0     H34112   1.253  11.175   1.557 -1.1294  0.7346  0.0243
 1017MOL0     O34113   0.494   6.805   6.231 -0.0993  0.4947  0.0934
 1017MOL0     C34114   0.569   6.876   6.175 -0.5514 -0.6188  0.2594
 1017MOL0     O34115   0.540   6.950   6.066 -0.5308 -0.2672 -0.0196
 1017MOL0     C34116   0.416   6.914   6.015  0.7131 -1.5217  0.9145
 1017MOL0     C34117   0.304   6.999   6.037  0.2126 -0.1971  0.3305
 1017MOL0     C34118   0.181   6.982   5.975  0.6256  0.1055  0.1719
 1017MOL0     C34119   0.160   6.871   5.892  0.4862  0.2659  0.4844
 1017MOL0     O34120   0.042   6.829   5.847 -0.1203  0.6087 -0.8553
 1017MOL0     C34121  -0.063   6.794   5.942  0.2432 -0.4356 -0.0368
 1017MOL0     C34122  -0.133   6.661   5.915  0.5801 -0.0835 -0.6056
 1017MOL0     C34123  -0.225   6.673   5.796  0.6964  0.5001 -0.2875
 1017MOL0     C34124  -0.359   6.730   5.832 -0.1001  0.1756 -0.6305
 1017MOL0     C34125  -0.449   6.614   5.904  1.0436 -0.2060  0.1269
 1017MOL0     C34126  -0.581   6.683   5.950  0.4695  0.1853  0.3302
 1017MOL0     C34127  -0.693   6.710   5.842 -1.1602 -0.4232 -0.0366
 1017MOL0     C34128  -0.796   6.816   5.873  0.2343 -0.8876  0.6084
 1017MOL0     N34129  -0.728   6.946   5.872  0.8808  0.3006  0.1151
 1017MOL0     C34130  -0.672   7.008   5.767  0.8362  0.4022 -0.1584
 1017MOL0     C34131  -0.603   7.114   5.814 -0.0816 -0.9865 -0.1079
 1017MOL0     C34132  -0.530   7.216   5.744 -0.0001 -0.4060  0.6860
 1017MOL0     C34133  -0.443   7.153   5.628 -0.1851  0.6764  0.4084
 1017MOL0     C34134  -0.337   7.057   5.687 -0.0541 -0.5098  0.8027
 1017MOL0     C34135  -0.198   7.117   5.677 -1.0502  0.0584 -0.6711
 1017MOL0     O34136  -0.181   7.220   5.775  0.3744 -0.2662  0.2185
 1017MOL0     C34137  -0.057   7.280   5.808 -0.3855  0.5449  0.2932
 1017MOL0     C34138  -0.057   7.376   5.912  0.4522 -0.5564 -0.1479
 1017MOL0     C34139   0.064   7.449   5.940 -0.5220 -0.9551  0.3002
 1017MOL0     C34140   0.191   7.410   5.890  0.2590  0.2425  0.6586
 1017MOL0     C34141   0.313   7.467   5.946 -0.2644 -0.3543 -0.7665
 1017MOL0     O34142   0.429   7.413   5.903 -1.0346  0.4672  0.1046
 1017MOL0     C34143   0.564   7.439   5.948  0.7564  0.2314  0.2274
 1017MOL0     C34144   0.660   7.351   5.902 -0.4206 -0.2493  0.7934
 1017MOL0     C34145   0.797   7.358   5.945 -0.8727  0.6495 -0.9158
 1017MOL0     C34146   0.835   7.451   6.033 -0.4720 -0.5393  0.3993
 1017MOL0     O34147   0.965   7.440   6.088  0.8747 -0.3338  0.0297
 1017MOL0     C34148   1.009   7.539   6.189  0.0574 -0.4968 -0.2229
 1017MOL0     C34149   1.157   7.508   6.226  0.3603  0.4158  0.7217
 1017MOL0     C34150   1.158   7.382   6.308  0.1942 -0.0504 -0.1650
 1017MOL0     C34151   1.304   7.344   6.335 -0.2324  0.5453  0.8919
 1017MOL0     C34152   1.338   7.197   6.308  0.0405  0.6505  0.4416
 1017MOL0     C34153   1.479   7.155   6.340 -0.7536  0.6400 -0.9268
 1017MOL0     C34154   1.498   7.130   6.489  0.1737 -0.0540 -0.9408
 1017MOL0     C34155   1.637   7.089   6.524  0.1271 -0.1317  0.5146
 1017MOL0    Cl34156   1.688   7.067   6.703  0.5996 -0.6689 -0.0238
 1017MOL0     C34157   0.746   7.550   6.069 -0.3773  0.5653 -0.8371
 1017MOL0     C34158   0.605   7.545   6.031 -1.0559 -0.2848 -0.1452
 1017MOL0     O34159   0.303   7.561   6.021  0.2751  0.5877  0.1904
 1017MOL0     C34160   0.185   7.310   5.793  0.0205 -0.2780  0.9563
 1017MOL0     C34161   0.069   7.250   5.755 -0.3483  0.3090  0.5565
 1017MOL0     N34162  -0.620   7.121   5.950 -0.1861 -0.0111 -1.4619
 1017MOL0     N34163  -0.709   7.025   5.985  0.0833 -0.3235  1.1267
 1017MOL0     C34164   0.265   6.783   5.877  0.1307 -0.1222  0.2667
 1017MOL0     C34165   0.388   6.810   5.929  0.2246  0.4637  0.4220
 1017MOL0     C34166   0.692   6.913   6.244  1.4102  0.3010 -0.2288
 1017MOL0     C34167   0.797   6.993   6.198 -0.1369  0.4834  0.2902
 1017MOL0     C34168   0.898   7.025   6.280  0.2067 -0.3740 -0.2111
 1017MOL0     C34169   0.904   6.985   6.410  0.6531 -0.2670  0.7616
 1017MOL0     O34170   1.011   7.026   6.486 -0.3480  0.9579 -0.1842
 1017MOL0     C34171   1.008   7.018   6.633  0.2015  0.6834  0.9177
 1017MOL0     C34172   1.154   7.050   6.678 -0.4977 -0.2113 -0.1189
 1017MOL0     C34173   1.178   7.014   6.824 -0.1225 -0.3355 -0.6372
 1017MOL0     C34174   1.321   7.075   6.868 -0.0492  0.5165  0.0080
 1017MOL0     C34175   1.352   7.052   7.005  0.7724 -0.3186 -1.0592
 1017MOL0     C34176   1.385   7.016   7.118  0.3285 -0.4669 -0.3211
 1017MOL0     C34177   0.798   6.924   6.469 -0.3115  0.1586  0.0735
 1017MOL0     C34178   0.696   6.874   6.380 -0.0046 -0.9688 -0.1795
 1017MOL0     H34179   0.334   7.074   6.109  2.8261 -1.8478  1.0915
 1017MOL0     H34180   0.093   7.035   6.011 -0.8091 -0.9458 -1.6197
 1017MOL0     H34181  -0.141   6.870   5.937  0.2991 -0.2796  1.2856
 1017MOL0     H34182  -0.020   6.787   6.042  0.6592  0.6504 -0.1320
 1017MOL0     H34183  -0.173   6.627   6.011 -1.0789  0.4421 -1.0892
 1017MOL0     H34184  -0.061   6.582   5.893  0.6230 -0.5778  1.1840
 1017MOL0     H34185  -0.243   6.573   5.755 -0.7566  0.6503 -0.0749
 1017MOL0     H34186  -0.171   6.737   5.725  0.0179 -0.9942 -2.2570
 1017MOL0     H34187  -0.341   6.818   5.895 -0.1954  0.2575 -0.7180
 1017MOL0     H34188  -0.414   6.763   5.743  2.0844 -0.1068 -2.1734
 1017MOL0     H34189  -0.388   6.573   5.985  0.2798 -2.4896 -0.3735
 1017MOL0     H34190  -0.466   6.525   5.841 -2.6413 -0.4346  1.2165
 1017MOL0     H34191  -0.553   6.773   6.004  1.0642  0.4516 -0.4150
 1017MOL0     H34192  -0.640   6.612   6.010 -0.9657 -0.4818 -1.7201
 1017MOL0     H34193  -0.643   6.730   5.747  3.1687  0.0147  2.1057
 1017MOL0     H34194  -0.740   6.612   5.827  2.3160 -2.1542 -0.8239
 1017MOL0     H34195  -0.847   6.796   5.967  1.6049 -4.6809  0.7092
 1017MOL0     H34196  -0.868   6.817   5.791  2.5247 -3.3646 -1.6594
 1017MOL0     H34197  -0.685   6.975   5.665  2.7187  1.3826 -0.7617
 1017MOL0     H34198  -0.470   7.289   5.799  1.3994  1.0088 -2.4164
 1017MOL0     H34199  -0.605   7.282   5.700  1.5929  0.9450 -0.1333
 1017MOL0     H34200  -0.406   7.228   5.557  1.1352 -1.9564 -1.8992
 1017MOL0     H34201  -0.517   7.098   5.569  0.9271  1.4326 -1.8126
 1017MOL0     H34202  -0.369   7.027   5.787 -0.3662 -1.5432  0.4022
 1017MOL0     H34203  -0.345   6.971   5.621 -1.0401 -1.0581  1.5963
 1017MOL0     H34204  -0.178   7.161   5.579 -0.8343 -0.2811 -0.7801
 1017MOL0     H34205  -0.120   7.045   5.705  1.1576  2.0120 -1.5575
 1017MOL0     H34206  -0.144   7.409   5.968  2.8044  0.1868  3.4201
 1017MOL0     H34207   0.039   7.525   6.014 -0.3907 -1.0440  0.4372
 1017MOL0     H34208   0.626   7.274   5.833  2.7812 -1.6351  0.5797
 1017MOL0     H34209   0.872   7.286   5.917 -0.3656  0.1482  1.5103
 1017MOL0     H34210   0.958   7.532   6.285 -0.8462  2.0203 -0.4486
 1017MOL0     H34211   1.001   7.641   6.152 -3.2625 -0.9821 -1.1423
 1017MOL0     H34212   1.204   7.580   6.293 -0.9034  0.5281  1.5150
 1017MOL0     H34213   1.213   7.499   6.132 -1.5549  1.0482 -0.5323
 1017MOL0     H34214   1.102   7.297   6.267 -0.6535  0.9795 -1.2338
 1017MOL0     H34215   1.107   7.396   6.403 -3.2713 -0.0678 -1.8517
 1017MOL0     H34216   1.369   7.403   6.270  0.1885  0.4444  1.2179
 1017MOL0     H34217   1.320   7.377   6.438 -1.3644  2.9627  0.3571
 1017MOL0     H34218   1.324   7.184   6.201 -0.6630  2.7966  0.2417
 1017MOL0     H34219   1.274   7.131   6.368  1.6191  2.2480  4.1922
 1017MOL0     H34220   1.556   7.224   6.306 -2.5521  2.3691 -1.6738
 1017MOL0     H34221   1.490   7.058   6.290  1.5644  1.8136 -2.8546
 1017MOL0     H34222   1.482   7.230   6.531  0.5578  0.2239 -1.4391
 1017MOL0     H34223   1.419   7.064   6.525  1.3845 -0.3452  1.3269
 1017MOL0     H34224   1.708   7.146   6.464 -0.9647  1.9608  1.1076
 1017MOL0     H34225   1.636   6.992   6.474 -1.4406  0.2938 -0.3397
 1017MOL0     H34226   0.776   7.636   6.128 -2.6501  0.5089  0.5116
 1017MOL0     H34227   0.547   7.626   6.074  0.7794 -0.0962  2.1755
 1017MOL0     H34228   0.279   7.290   5.743 -0.1806 -0.3200  0.5883
 1017MOL0     H34229   0.068   7.178   5.674  0.8709  0.1176  0.6938
 1017MOL0     H34230   0.239   6.686   5.836  0.5180  0.0375 -0.3855
 1017MOL0     H34231   0.466   6.735   5.916  0.2619  0.2712  1.6041
 1017MOL0     H34232   0.806   7.019   6.093 -0.0283 -1.6338 -0.2685
 1017MOL0     H34233   0.988   7.076   6.245  0.1543  1.1774  1.6909
 1017MOL0     H34234   0.973   6.923   6.674  6.5754 -2.3854  0.4951
 1017MOL0     H34235   0.944   7.096   6.673  2.6338  4.0352 -1.1699
 1017MOL0     H34236   1.228   6.996   6.618 -2.7960 -1.5183 -1.9442
 1017MOL0     H34237   1.165   7.157   6.656 -0.0895 -0.4635 -1.2048
 1017MOL0     H34238   1.189   6.906   6.831  2.0549 -0.2359 -1.5408
 1017MOL0     H34239   1.105   7.063   6.889 -0.5753 -0.9898 -0.6516
 1017MOL0     H34240   1.398   7.034   6.803  1.1946  1.0033  1.1435
 1017MOL0     H34241   1.320   7.183   6.848 -1.1625  0.5329  0.0679
 1017MOL0     H34242   1.408   7.007   7.223 -0.0888  2.0251  0.0448
 1017MOL0     H34243   0.795   6.915   6.577  1.5177  0.4769  0.1857
 1017MOL0     H34244   0.612   6.818   6.420 -2.3087  1.1984 -1.6943
 1018MOL0     O34245   4.813   2.143   4.375  0.6575  0.0524 -0.3297
 1018MOL0     C34246   4.846   2.195   4.272 -0.7943 -0.2196  0.1706
 1018MOL0     O34247   4.767   2.274   4.189 -0.5004  0.4768  0.1513
 1018MOL0     C34248   4.641   2.302   4.232 -0.4709  1.1900  0.1951
 1018MOL0     C34249   4.608   2.410   4.313 -0.9043  0.2324  1.1364
 1018MOL0     C34250   4.480   2.433   4.354  0.1641 -0.0620  0.4870
 1018MOL0     C34251   4.373   2.359   4.307 -0.8867 -0.8043 -0.2365
 1018MOL0     O34252   4.254   2.394   4.360  0.0134 -0.1680  0.0828
 1018MOL0     C34253   4.129   2.336   4.313  0.4254  0.0873  0.3474
 1018MOL0     C34254   4.018   2.376   4.413 -0.3737  0.7776 -0.3245
 1018MOL0     C34255   3.871   2.354   4.367  0.1590 -0.8332  0.3112
 1018MOL0     C34256   3.789   2.330   4.497  0.2842 -0.7557  0.3608
 1018MOL0     C34257   3.641   2.291   4.474  0.0299  0.1176  0.4000
 1018MOL0     C34258   3.581   2.375   4.354  1.1000 -0.5036 -0.4121
 1018MOL0     C34259   3.425   2.354   4.335 -0.3010 -0.4128 -0.5715
 1018MOL0     C34260   3.343   2.430   4.436 -0.0125 -0.2053 -0.2956
 1018MOL0     N34261   3.210   2.417   4.399 -0.2726  0.7545  0.5088
 1018MOL0     C34262   3.119   2.331   4.456 -0.7022  0.0184  0.1796
 1018MOL0     C34263   2.991   2.375   4.419 -0.7264  0.6905 -0.2178
 1018MOL0     C34264   2.860   2.315   4.461  0.4281  0.3871 -0.3756
 1018MOL0     C34265   2.861   2.164   4.497  0.2603  0.0206  0.4894
 1018MOL0     C34266   2.887   2.081   4.372  0.8934 -0.1855 -1.6220
 1018MOL0     C34267   2.929   1.940   4.409  0.1277  0.3534  0.2040
 1018MOL0     O34268   3.059   1.938   4.483 -0.1096 -0.3979  0.0878
 1018MOL0     C34269   3.183   1.947   4.419  0.3731 -0.6151 -0.8692
 1018MOL0     C34270   3.199   1.941   4.276  1.0280  0.2848  0.2701
 1018MOL0     C34271   3.328   1.948   4.214  0.6151  0.1461  0.0005
 1018MOL0     C34272   3.441   1.959   4.296 -0.2519  0.2357 -0.5270
 1018MOL0     C34273   3.577   1.943   4.248  0.8847  0.1636  0.3374
 1018MOL0     O34274   3.674   1.951   4.338 -0.6245 -0.6833  0.4082
 1018MOL0     C34275   3.817   1.945   4.313  0.9141 -0.0819 -0.8645
 1018MOL0     C34276   3.880   1.887   4.197 -0.4275 -0.1282 -0.8856
 1018MOL0     C34277   4.018   1.865   4.207  0.9248  0.1983 -0.9981
 1018MOL0     C34278   4.092   1.911   4.318 -0.5355  0.3016  0.6112
 1018MOL0     O34279   4.222   1.871   4.323  0.0408  0.5204  0.0307
 1018MOL0     C34280   4.301   1.927   4.427 -0.3882  0.6630  0.0778
 1018MOL0     C34281   4.437   1.869   4.401 -1.2223  0.1138 -0.6682
 1018MOL0     C34282   4.439   1.724   4.440  0.3301  0.7103  0.1357
 1018MOL0     C34283   4.580   1.669   4.451  0.2416 -0.0676 -0.2646
 1018MOL0     C34284   4.657   1.727   4.567  0.8796  0.2121  0.2537
 1018MOL0     C34285   4.774   1.821   4.525  0.9068 -0.0561  0.3266
 1018MOL0     C34286   4.905   1.743   4.500 -0.7021 -0.6959  0.1976
 1018MOL0     C34287   4.958   1.661   4.617 -1.1201  0.6207  0.6643
 1018MOL0    Cl34288   5.140   1.683   4.606  0.4417  0.8213  0.0348
 1018MOL0     C34289   4.027   1.972   4.424  0.1734  0.5660 -0.7465
 1018MOL0     C34290   3.885   1.983   4.420  0.0870  0.1730 -0.0979
 1018MOL0     O34291   3.590   1.937   4.127  0.8504 -0.4108 -0.5505
 1018MOL0     C34292   3.419   1.972   4.432  0.7197 -0.2387  0.0178
 1018MOL0     C34293   3.295   1.970   4.489  1.0688 -0.2734  0.4301
 1018MOL0     N34294   3.009   2.479   4.331  0.3130 -0.1429 -0.0778
 1018MOL0     N34295   3.135   2.510   4.329  0.5876 -0.4532  0.6613
 1018MOL0     C34296   4.402   2.255   4.221  0.3171  0.3693 -0.0170
 1018MOL0     C34297   4.533   2.231   4.183 -0.8113  0.3807 -0.1510
 1018MOL0     C34298   4.995   2.184   4.228  0.5882 -0.1336  0.2790
 1018MOL0     C34299   5.087   2.124   4.311 -0.0509 -0.6665  0.3158
 1018MOL0     C34300   5.217   2.098   4.269  0.1622 -0.9492  1.1393
 1018MOL0     C34301   5.254   2.129   4.145 -0.7911  0.8423  0.9342
 1018MOL0     O34302   5.381   2.098   4.109 -0.2610 -0.1411 -0.5410
 1018MOL0     C34303   5.424   2.094   3.974  0.4480 -1.7435 -0.9232
 1018MOL0     C34304   5.539   2.003   3.951  0.1532 -0.0406 -0.2681
 1018MOL0     C34305   5.575   2.004   3.801  0.4311 -0.1401  1.0402
 1018MOL0     C34306   5.675   2.120   3.783 -0.7532  0.8837 -0.2905
 1018MOL0     C34307   5.722   2.140   3.647  0.4141 -0.0840 -0.0682
 1018MOL0     C34308   5.768   2.141   3.535 -0.6072  0.4762  1.0312
 1018MOL0     C34309   5.163   2.196   4.064 -0.8860 -0.1608 -0.2341
 1018MOL0     C34310   5.031   2.214   4.095  0.1819 -0.1550 -0.3595
 1018MOL0     H34311   4.697   2.456   4.354  1.3754 -3.4450  0.7451
 1018MOL0     H34312   4.464   2.509   4.430 -0.5645 -2.0889  2.5093
 1018MOL0     H34313   4.140   2.228   4.301 -0.0416  0.2877 -3.0747
 1018MOL0     H34314   4.099   2.369   4.212 -0.9907  1.2480  1.1012
 1018MOL0     H34315   4.026   2.479   4.448 -1.0443  1.2188 -1.4192
 1018MOL0     H34316   4.042   2.318   4.503 -1.4235  2.5628  1.1876
 1018MOL0     H34317   3.864   2.267   4.301 -0.2728 -0.8244  0.3415
 1018MOL0     H34318   3.846   2.437   4.301  3.7584 -1.5638 -2.2897
 1018MOL0     H34319   3.834   2.254   4.562  1.3174  0.1305  0.7083
 1018MOL0     H34320   3.786   2.421   4.556  1.8929 -0.7605  0.4965
 1018MOL0     H34321   3.589   2.297   4.570 -2.1903 -2.2099 -0.5307
 1018MOL0     H34322   3.641   2.188   4.436 -0.2612  1.5367 -4.1572
 1018MOL0     H34323   3.617   2.348   4.254  2.9897 -0.4536  0.2038
 1018MOL0     H34324   3.600   2.481   4.371  0.5046 -0.1084 -2.0629
 1018MOL0     H34325   3.392   2.373   4.233  1.5663 -0.6669 -1.2608
 1018MOL0     H34326   3.408   2.250   4.364 -1.8534  0.5302  2.2341
 1018MOL0     H34327   3.375   2.535   4.429 -0.9049  0.1565  0.7615
 1018MOL0     H34328   3.363   2.389   4.536 -0.4988 -2.0538 -0.9214
 1018MOL0     H34329   3.124   2.251   4.529 -0.3000 -0.9607 -0.9015
 1018MOL0     H34330   2.794   2.325   4.374  2.1168 -2.0609 -2.1078
 1018MOL0     H34331   2.828   2.375   4.546  2.5968  3.2542 -1.4187
 1018MOL0     H34332   2.764   2.143   4.545 -0.2247 -0.3705 -0.6251
 1018MOL0     H34333   2.943   2.150   4.568  0.4884  3.2136  0.9867
 1018MOL0     H34334   2.802   2.073   4.304 -0.8324 -0.6019  0.4752
 1018MOL0     H34335   2.971   2.127   4.320  0.1828  1.6050 -1.2813
 1018MOL0     H34336   2.947   1.874   4.324 -1.7663  1.7535 -1.3608
 1018MOL0     H34337   2.852   1.886   4.464  1.2945 -1.6221 -0.0097
 1018MOL0     H34338   3.111   1.921   4.216  0.6656  1.4708  0.3886
 1018MOL0     H34339   3.349   1.941   4.108  1.4593 -1.1655  0.2329
 1018MOL0     H34340   3.812   1.865   4.116 -0.7496  0.6988 -0.8508
 1018MOL0     H34341   4.069   1.832   4.116  1.0045  1.5136 -1.4612
 1018MOL0     H34342   4.267   1.900   4.527 -1.4162 -2.9389 -1.0779
 1018MOL0     H34343   4.312   2.035   4.418  0.3824  0.7737  1.9506
 1018MOL0     H34344   4.498   1.916   4.478  0.5274  2.8614 -3.5050
 1018MOL0     H34345   4.472   1.899   4.302 -0.2033  1.2377  0.0107
 1018MOL0     H34346   4.392   1.651   4.373  0.3252 -2.8181  3.5908
 1018MOL0     H34347   4.388   1.704   4.535 -2.6356 -1.2973 -1.7188
 1018MOL0     H34348   4.563   1.563   4.469 -0.5027  0.1667  0.4956
 1018MOL0     H34349   4.635   1.680   4.357  0.6728 -1.8232 -0.2440
 1018MOL0     H34350   4.696   1.651   4.635 -0.4175 -0.2182  0.5352
 1018MOL0     H34351   4.591   1.785   4.632 -1.2912  1.2745 -2.6655
 1018MOL0     H34352   4.791   1.890   4.608 -1.5899 -1.3484  2.0893
 1018MOL0     H34353   4.746   1.894   4.449 -1.6011 -0.5145  0.6962
 1018MOL0     H34354   4.895   1.664   4.425  2.6554 -1.4888  0.4402
 1018MOL0     H34355   4.980   1.820   4.480 -0.2380 -0.7230  1.6766
 1018MOL0     H34356   4.928   1.557   4.602 -2.3264  1.1078 -0.5718
 1018MOL0     H34357   4.921   1.702   4.712 -2.2654  1.0030  0.0787
 1018MOL0     H34358   4.069   2.009   4.517 -0.5098 -1.3002  0.3703
 1018MOL0     H34359   3.836   2.027   4.506  0.6420 -0.9359  0.8006
 1018MOL0     H34360   3.507   1.987   4.494  0.2079 -0.7555  0.8836
 1018MOL0     H34361   3.284   1.997   4.594  0.5845  0.6574  0.1492
 1018MOL0     H34362   4.319   2.194   4.186 -1.5834  0.4528  3.8449
 1018MOL0     H34363   4.552   2.149   4.114 -0.2559 -0.9372  1.4944
 1018MOL0     H34364   5.066   2.089   4.411  2.2163  0.2187  1.1581
 1018MOL0     H34365   5.283   2.050   4.341  1.7712  2.3483  2.0430
 1018MOL0     H34366   5.440   2.198   3.941 -3.0805 -0.0815  1.8828
 1018MOL0     H34367   5.338   2.060   3.915  0.1626  0.9309 -2.2077
 1018MOL0     H34368   5.617   2.018   4.026  0.9055  0.9989 -1.2122
 1018MOL0     H34369   5.502   1.903   3.973 -2.3229  0.6442 -1.0501
 1018MOL0     H34370   5.478   2.015   3.751  1.5565  1.0083 -1.0537
 1018MOL0     H34371   5.617   1.908   3.769 -0.3170  0.0042 -0.4486
 1018MOL0     H34372   5.617   2.210   3.808 -0.7362  0.3111  2.0279
 1018MOL0     H34373   5.757   2.115   3.856  0.2183  4.1180 -0.9782
 1018MOL0     H34374   5.821   2.136   3.442  0.7449  1.7460  1.6985
 1018MOL0     H34375   5.198   2.217   3.963  1.7150  1.2467  0.8670
 1018MOL0     H34376   4.956   2.251   4.026  0.6294 -1.1121 -1.3870
 1019MOL0     O34377   8.898   8.783   0.126 -0.6302 -0.5806 -0.0081
 1019MOL0     C34378   8.819   8.781   0.033 -0.5710 -0.0932 -0.5291
 1019MOL0     O34379   8.846   8.743  -0.098 -0.3830  1.0022  0.3976
 1019MOL0     C34380   8.967   8.678  -0.125  0.5071 -1.0986  0.4496
 1019MOL0     C34381   9.026   8.715  -0.247  0.3453  0.1673  0.0327
 1019MOL0     C34382   9.152   8.663  -0.299  0.3106  0.5413 -0.0749
 1019MOL0     C34383   9.227   8.578  -0.221  0.0567  0.5830  0.1793
 1019MOL0     O34384   9.344   8.538  -0.279  0.5229 -0.0372 -0.5281
 1019MOL0     C34385   9.428   8.448  -0.209 -0.5985  1.0627  0.2757
 1019MOL0     C34386   9.570   8.450  -0.261 -0.5209  0.0361  0.3814
 1019MOL0     C34387   9.653   8.338  -0.191  0.7502 -0.1952 -0.1418
 1019MOL0     C34388   9.794   8.347  -0.246 -0.1787 -0.0447  0.1858
 1019MOL0     C34389   9.872   8.232  -0.176 -0.2388  0.3770 -0.6158
 1019MOL0     C34390   9.998   8.189  -0.252 -0.1408  0.0026 -0.1780
 1019MOL0     C34391  10.075   8.075  -0.179  0.4313  0.0765  0.8036
 1019MOL0     C34392  10.169   8.000  -0.270 -0.1375  0.1422 -0.2460
 1019MOL0     N34393  10.244   7.900  -0.189  0.6794  0.3588 -0.3976
 1019MOL0     C34394  10.341   7.930  -0.095 -0.2706 -0.5126 -0.0248
 1019MOL0     C34395  10.396   7.814  -0.059 -0.5906  0.0392 -0.4426
 1019MOL0     C34396  10.509   7.786   0.044 -0.0768  0.8626  0.0512
 1019MOL0     C34397  10.650   7.758  -0.023 -1.0059  0.5306 -0.6428
 1019MOL0     C34398  10.763   7.684   0.062 -0.1245 -0.4942  0.6097
 1019MOL0     C34399  10.891   7.703  -0.015  1.4294 -0.0846  0.3563
 1019MOL0     O34400  10.999   7.642   0.058 -0.1672 -0.0960  0.5780
 1019MOL0     C34401  11.131   7.650   0.013 -0.8364 -0.2257 -0.8576
 1019MOL0     C34402  11.185   7.746  -0.068 -0.1684  0.4074 -0.1418
 1019MOL0     C34403  11.323   7.736  -0.104  0.4443 -0.4878 -0.4294
 1019MOL0     C34404  11.402   7.643  -0.050 -0.7735  0.2125 -1.0685
 1019MOL0     C34405  11.539   7.635  -0.076  0.1784  0.3844 -0.2732
 1019MOL0     O34406  11.617   7.592   0.028 -0.0746 -0.1024  0.1763
 1019MOL0     C34407  11.756   7.577   0.025 -0.5966 -0.5895 -0.2274
 1019MOL0     C34408  11.811   7.459   0.076  0.1462 -0.0633  0.7312
 1019MOL0     C34409  11.954   7.452   0.082  0.2096 -0.2914  0.4500
 1019MOL0     C34410  12.034   7.569   0.060  0.4713  0.2247  0.3163
 1019MOL0     O34411  12.171   7.580   0.084  0.0880 -0.0633 -0.2545
 1019MOL0     C34412  12.248   7.477   0.144 -0.4291  0.8012 -0.6036
 1019MOL0     C34413  12.287   7.363   0.049  1.5430 -0.0391  0.2593
 1019MOL0     C34414  12.415   7.395  -0.022 -0.0578 -0.0979  0.0410
 1019MOL0     C34415  12.420   7.302  -0.142  0.2281  0.7277  0.7762
 1019MOL0     C34416  12.519   7.326  -0.246 -0.9518  0.3429 -0.1027
 1019MOL0     C34417  12.667   7.318  -0.194  0.8780  0.7304  0.5761
 1019MOL0     C34418  12.768   7.313  -0.316  0.0106  0.6107  0.0565
 1019MOL0     C34419  12.903   7.243  -0.286  0.0978  0.4725  0.0369
 1019MOL0    Cl34420  12.999   7.237  -0.430  0.1656  0.1012 -0.1168
 1019MOL0     C34421  11.971   7.681   0.004 -0.3387  0.1653 -0.5062
 1019MOL0     C34422  11.834   7.684  -0.013  0.5083  0.3094 -0.5618
 1019MOL0     O34423  11.581   7.659  -0.185 -0.3051  0.1396  0.8004
 1019MOL0     C34424  11.347   7.549   0.034 -0.0092  0.0117  0.4962
 1019MOL0     C34425  11.205   7.545   0.058 -0.1182 -0.2468  0.1421
 1019MOL0     N34426  10.335   7.717  -0.134 -0.0586  0.0962  0.3558
 1019MOL0     N34427  10.250   7.765  -0.221  0.3368  0.6006 -0.3893
 1019MOL0     C34428   9.173   8.534  -0.098 -0.2498  1.0965 -0.8888
 1019MOL0     C34429   9.045   8.582  -0.052 -0.4787 -0.2764  0.1398
 1019MOL0     C34430   8.686   8.829   0.075  0.5687  0.4661  0.0730
 1019MOL0     C34431   8.576   8.821  -0.014  0.0463 -0.5986  0.8674
 1019MOL0     C34432   8.447   8.866   0.018  0.7667 -1.2462 -0.1242
 1019MOL0     C34433   8.416   8.915   0.149  0.1802 -0.1039  0.5959
 1019MOL0     O34434   8.296   8.982   0.187 -0.6574  0.1667 -0.0946
 1019MOL0     C34435   8.173   8.957   0.115  0.2908 -0.4108  0.1385
 1019MOL0     C34436   8.079   9.083   0.127  0.1643  0.3200 -0.0461
 1019MOL0     C34437   7.944   9.044   0.052 -0.0685  0.4410  0.6305
 1019MOL0     C34438   7.850   9.153   0.030  0.3361  0.4130  0.1065
 1019MOL0     C34439   7.742   9.109  -0.058 -0.8491  0.0476  0.1205
 1019MOL0     C34440   7.657   9.088  -0.136  0.3326  0.1757  0.0579
 1019MOL0     C34441   8.520   8.919   0.240  0.2656 -1.0388 -0.2858
 1019MOL0     C34442   8.654   8.879   0.208  0.4731 -0.4037  0.2165
 1019MOL0     H34443   8.962   8.779  -0.308 -1.8710 -2.3098 -0.4171
 1019MOL0     H34444   9.162   8.687  -0.405 -3.3616 -0.3098 -0.7443
 1019MOL0     H34445   9.382   8.350  -0.222  0.0917  0.8332 -0.5293
 1019MOL0     H34446   9.433   8.475  -0.103 -2.5993  2.0906  0.1498
 1019MOL0     H34447   9.620   8.545  -0.239 -1.6328  1.8059 -3.7075
 1019MOL0     H34448   9.580   8.443  -0.370  0.8981  0.3062  0.4704
 1019MOL0     H34449   9.609   8.244  -0.225 -0.3306 -0.7081  2.4196
 1019MOL0     H34450   9.650   8.343  -0.082  1.5192  2.1534 -0.1596
 1019MOL0     H34451   9.792   8.329  -0.354  2.3068  1.4084 -0.1663
 1019MOL0     H34452   9.850   8.441  -0.239  1.7349 -0.7481 -3.1708
 1019MOL0     H34453   9.803   8.147  -0.177  1.1455 -0.7879 -1.5965
 1019MOL0     H34454   9.903   8.269  -0.078  0.1270 -0.7286 -0.3000
 1019MOL0     H34455  10.064   8.273  -0.276 -1.2712  0.7913 -0.6418
 1019MOL0     H34456   9.979   8.148  -0.352 -1.3611  4.2997 -1.9598
 1019MOL0     H34457  10.137   8.129  -0.106 -0.0678  2.1696 -0.2506
 1019MOL0     H34458  10.006   8.010  -0.124  1.0511  0.5874  2.2565
 1019MOL0     H34459  10.229   8.078  -0.317 -2.2701  0.8198 -1.9395
 1019MOL0     H34460  10.123   7.944  -0.352  0.3349 -0.3711 -0.1714
 1019MOL0     H34461  10.368   8.030  -0.060  1.8129 -1.6482  1.8935
 1019MOL0     H34462  10.487   7.704   0.114  0.7165 -0.8886 -1.6449
 1019MOL0     H34463  10.518   7.874   0.108  2.1662  1.4842 -1.0028
 1019MOL0     H34464  10.693   7.857  -0.039  2.3790 -0.8590 -0.7965
 1019MOL0     H34465  10.623   7.700  -0.112  1.4145 -1.6909 -0.0455
 1019MOL0     H34466  10.784   7.726   0.160  3.8287  0.9906 -0.6815
 1019MOL0     H34467  10.747   7.578   0.085  1.7254 -0.7618  0.7891
 1019MOL0     H34468  10.907   7.811  -0.016 -1.4181  0.4506  2.1503
 1019MOL0     H34469  10.889   7.674  -0.121  1.2171  1.7539 -0.1661
 1019MOL0     H34470  11.128   7.833  -0.102 -0.9261  0.4747  1.2147
 1019MOL0     H34471  11.362   7.817  -0.164 -1.6549  0.4330 -0.6453
 1019MOL0     H34472  11.750   7.377   0.113  0.3904 -0.7145 -0.2761
 1019MOL0     H34473  12.006   7.360   0.105  2.4719  0.1345 -2.3825
 1019MOL0     H34474  12.201   7.437   0.234 -0.1738 -0.6087 -1.0674
 1019MOL0     H34475  12.342   7.525   0.172 -0.3793  0.8255 -0.8099
 1019MOL0     H34476  12.210   7.358  -0.029  1.1201 -1.5102  0.7262
 1019MOL0     H34477  12.283   7.263   0.095  0.4294 -1.3662 -2.4869
 1019MOL0     H34478  12.502   7.382   0.042  0.2920  0.2158 -0.3687
 1019MOL0     H34479  12.410   7.500  -0.050  1.1960  0.7842  2.7996
 1019MOL0     H34480  12.444   7.201  -0.108  2.0587  0.9039  0.1345
 1019MOL0     H34481  12.321   7.294  -0.186  1.1093 -2.0288 -0.9459
 1019MOL0     H34482  12.495   7.428  -0.274 -1.5349 -0.4106 -2.6234
 1019MOL0     H34483  12.490   7.267  -0.333  0.5710  0.0300 -0.4211
 1019MOL0     H34484  12.687   7.233  -0.127  3.1135 -1.0331 -2.0937
 1019MOL0     H34485  12.675   7.414  -0.143 -0.3196  2.1924 -1.8300
 1019MOL0     H34486  12.722   7.258  -0.399  0.5424  4.5726 -3.2218
 1019MOL0     H34487  12.792   7.411  -0.358  2.4846  2.0059  4.1525
 1019MOL0     H34488  12.878   7.146  -0.242 -2.6642  1.1568  0.1411
 1019MOL0     H34489  12.958   7.300  -0.210 -0.2750  0.0900  0.5940
 1019MOL0     H34490  12.021   7.777  -0.007  0.2418 -0.3514 -2.9180
 1019MOL0     H34491  11.778   7.767  -0.054  1.7079 -1.5005 -6.9484
 1019MOL0     H34492  11.415   7.478   0.080  1.3023 -0.4042 -1.9027
 1019MOL0     H34493  11.166   7.464   0.119 -1.2813  0.0891 -0.1313
 1019MOL0     H34494   9.213   8.460  -0.030 -1.1400 -1.4695 -3.0322
 1019MOL0     H34495   9.011   8.548   0.045 -1.1367  1.2858  0.4979
 1019MOL0     H34496   8.602   8.788  -0.114  2.4773  2.2155  0.4110
 1019MOL0     H34497   8.367   8.882  -0.054  0.1570 -1.5952  0.4583
 1019MOL0     H34498   8.114   8.873   0.152 -0.8519  0.6808  0.9143
 1019MOL0     H34499   8.194   8.935   0.010  3.7967  3.2544 -0.1984
 1019MOL0     H34500   8.072   9.103   0.234  3.1353  0.1262  0.2856
 1019MOL0     H34501   8.125   9.165   0.072  2.0615 -1.8134 -1.8663
 1019MOL0     H34502   7.906   8.964   0.117  0.5747  0.5721  1.1761
 1019MOL0     H34503   7.966   8.992  -0.042 -0.4285  1.6309 -0.1402
 1019MOL0     H34504   7.814   9.187   0.127  0.4569 -2.3214  1.2040
 1019MOL0     H34505   7.910   9.235  -0.010 -0.0899  2.0348  2.5898
 1019MOL0     H34506   7.571   9.078  -0.199  1.2074 -0.1204 -1.1151
 1019MOL0     H34507   8.499   8.961   0.338  1.6071  3.1386 -1.6161
 1019MOL0     H34508   8.732   8.882   0.283  0.7016  0.5220 -0.0439
 1020MOL0     O34509   8.062   2.053   7.791 -0.5352 -0.2568 -0.0621
 1020MOL0     C34510   8.068   2.170   7.831 -0.4593 -0.5368 -0.0139
 1020MOL0     O34511   8.183   2.241   7.871  0.9152 -0.8483  0.1397
 1020MOL0     C34512   8.304   2.180   7.861  0.2785 -0.0363 -0.2713
 1020MOL0     C34513   8.329   2.055   7.912 -0.3320 -1.0252 -0.2159
 1020MOL0     C34514   8.454   1.989   7.891 -0.4663  0.4299 -0.0930
 1020MOL0     C34515   8.554   2.057   7.816 -0.2948  1.1470  0.2046
 1020MOL0     O34516   8.672   1.994   7.800 -0.8407 -0.7648 -0.2058
 1020MOL0     C34517   8.801   2.060   7.831  0.7198  0.3939 -0.2058
 1020MOL0     C34518   8.913   2.005   7.747 -0.3226  0.2797 -0.0970
 1020MOL0     C34519   9.043   2.068   7.769  0.0868 -0.2145  0.3261
 1020MOL0     C34520   9.148   1.975   7.714 -0.4196 -0.3552  0.2664
 1020MOL0     C34521   9.284   1.993   7.781  0.0905 -0.3449  0.0135
 1020MOL0     C34522   9.399   1.908   7.724  0.0281  0.0201 -0.0010
 1020MOL0     C34523   9.526   1.941   7.789  0.4094  0.5337  0.5686
 1020MOL0     C34524   9.567   1.858   7.907 -0.1963 -0.1705  0.0599
 1020MOL0     N34525   9.711   1.871   7.942  0.1468  0.3741  0.5305
 1020MOL0     C34526   9.768   1.911   8.060  0.3810 -0.3424 -0.2221
 1020MOL0     C34527   9.901   1.911   8.045  0.6623 -0.3606  0.3973
 1020MOL0     C34528  10.007   1.947   8.130 -0.3277 -0.1211 -0.8494
 1020MOL0     C34529   9.970   1.923   8.280 -0.2586 -0.9605  0.2332
 1020MOL0     C34530  10.071   1.983   8.380 -0.4280 -0.3935 -0.0390
 1020MOL0     C34531  10.008   2.005   8.516  0.3229  0.3312  0.6205
 1020MOL0     O34532   9.977   1.873   8.572 -0.5796 -0.3591 -0.5365
 1020MOL0     C34533   9.845   1.845   8.603  0.1150  1.3166  0.2142
 1020MOL0     C34534   9.818   1.758   8.707  0.3490 -0.0050 -0.6735
 1020MOL0     C34535   9.686   1.731   8.748  0.7746 -0.6602 -0.3018
 1020MOL0     C34536   9.575   1.799   8.694 -0.2164 -0.1580  0.6712
 1020MOL0     C34537   9.437   1.774   8.736 -0.5509  0.0355 -0.4483
 1020MOL0     O34538   9.332   1.820   8.663 -0.2902 -0.6041 -0.2067
 1020MOL0     C34539   9.206   1.770   8.673 -0.6632 -0.5052  0.3927
 1020MOL0     C34540   9.179   1.635   8.651  0.5316 -0.0337  0.2161
 1020MOL0     C34541   9.042   1.598   8.670 -0.4994 -0.3023 -0.3201
 1020MOL0     C34542   8.943   1.701   8.683 -0.7006  0.1788  0.1113
 1020MOL0     O34543   8.820   1.662   8.698  0.3781  0.2615  0.2597
 1020MOL0     C34544   8.714   1.752   8.650 -0.2238 -0.4027 -0.1625
 1020MOL0     C34545   8.607   1.662   8.587  0.5032 -0.1821  0.2299
 1020MOL0     C34546   8.458   1.717   8.605 -0.7664  0.5744  0.3979
 1020MOL0     C34547   8.348   1.629   8.539  0.4349  0.0481 -0.0078
 1020MOL0     C34548   8.277   1.535   8.634 -0.2434  0.0912 -0.2544
 1020MOL0     C34549   8.365   1.422   8.677  0.0488 -0.2602  0.0672
 1020MOL0     C34550   8.279   1.293   8.727 -0.2246 -0.3387 -0.0010
 1020MOL0     C34551   8.371   1.180   8.763 -0.3726  0.5394  0.2208
 1020MOL0    Cl34552   8.270   1.022   8.795 -0.3253 -0.1548 -0.0450
 1020MOL0     C34553   8.976   1.829   8.708 -0.8754 -0.6744  0.4245
 1020MOL0     C34554   9.113   1.861   8.702 -0.4441  0.1009 -0.3433
 1020MOL0     O34555   9.429   1.712   8.842  0.8283  0.1831  0.0819
 1020MOL0     C34556   9.603   1.879   8.586 -0.4216  0.5442 -0.3095
 1020MOL0     C34557   9.735   1.912   8.540 -0.6654 -0.1281  0.0437
 1020MOL0     N34558   9.922   1.872   7.910 -0.6824  0.5508 -0.2122
 1020MOL0     N34559   9.803   1.847   7.852 -0.3963  0.2400 -0.4139
 1020MOL0     C34560   8.526   2.179   7.759  0.0228 -0.2128  0.0776
 1020MOL0     C34561   8.406   2.246   7.783  0.0026  1.1158  0.6810
 1020MOL0     C34562   7.941   2.248   7.844 -0.4085  0.6607  0.0722
 1020MOL0     C34563   7.824   2.210   7.767  0.1940 -0.8353  0.3219
 1020MOL0     C34564   7.717   2.297   7.759  0.4139 -0.4932 -0.7523
 1020MOL0     C34565   7.698   2.391   7.850  0.3498 -0.2476 -0.7559
 1020MOL0     O34566   7.589   2.471   7.859 -0.3462  0.1317  0.3557
 1020MOL0     C34567   7.490   2.453   7.757  0.4804 -0.8493  0.5111
 1020MOL0     C34568   7.393   2.569   7.784  0.1859 -0.5093  0.6095
 1020MOL0     C34569   7.279   2.588   7.683 -0.8093  0.6425  0.8079
 1020MOL0     C34570   7.327   2.635   7.547  0.1471  0.6025  0.9540
 1020MOL0     C34571   7.220   2.643   7.448  0.4624 -0.5287  0.2629
 1020MOL0     C34572   7.137   2.645   7.361  0.2050  0.4287  0.4577
 1020MOL0     C34573   7.804   2.427   7.942 -1.0034  0.4440  0.3479
 1020MOL0     C34574   7.927   2.356   7.935  1.3726 -0.2501 -0.3143
 1020MOL0     H34575   8.249   2.015   7.973 -1.1281 -0.5280 -0.9123
 1020MOL0     H34576   8.473   1.891   7.932 -0.3253  1.5646  2.7610
 1020MOL0     H34577   8.810   2.057   7.940 -1.3932 -3.1751 -0.0097
 1020MOL0     H34578   8.808   2.168   7.813  1.1755  0.8622  2.4397
 1020MOL0     H34579   8.888   2.001   7.640 -0.9832  1.6836 -0.0146
 1020MOL0     H34580   8.922   1.901   7.780 -0.9489  0.0756 -0.5292
 1020MOL0     H34581   9.061   2.066   7.877 -0.8104 -1.1390  0.4695
 1020MOL0     H34582   9.047   2.171   7.732 -1.0870 -0.9520 -2.0486
 1020MOL0     H34583   9.122   1.870   7.729 -0.1879 -0.5655 -0.7599
 1020MOL0     H34584   9.155   1.994   7.606 -0.9333  0.3007  0.3456
 1020MOL0     H34585   9.267   1.949   7.880 -0.5909  1.6079  0.8043
 1020MOL0     H34586   9.312   2.098   7.788  0.0814 -0.0097 -3.2521
 1020MOL0     H34587   9.405   1.921   7.615 -1.6712 -2.1765 -0.4398
 1020MOL0     H34588   9.377   1.801   7.732 -0.7902  0.2614  1.1788
 1020MOL0     H34589   9.596   1.920   7.708 -0.5727 -0.7355  0.0247
 1020MOL0     H34590   9.529   2.050   7.801 -0.1275  0.7370 -0.9585
 1020MOL0     H34591   9.544   1.752   7.895 -2.5896 -0.0680  2.7686
 1020MOL0     H34592   9.509   1.902   7.989  0.5277  1.1168 -0.0852
 1020MOL0     H34593   9.707   1.933   8.148  2.0963 -2.8778  1.7756
 1020MOL0     H34594  10.037   2.050   8.109  1.3990 -0.4914 -0.3395
 1020MOL0     H34595  10.094   1.884   8.111  0.2664  0.5850 -0.5161
 1020MOL0     H34596   9.959   1.815   8.292 -0.3562 -0.8355  1.3661
 1020MOL0     H34597   9.876   1.976   8.298  0.2735  0.7721 -1.7239
 1020MOL0     H34598  10.162   1.923   8.386  0.4670  1.0537  1.9762
 1020MOL0     H34599  10.111   2.079   8.346  0.6635  0.7259  3.8921
 1020MOL0     H34600   9.921   2.071   8.513  0.4807  0.7680  3.1180
 1020MOL0     H34601  10.077   2.043   8.591  2.4991  0.0711 -1.1458
 1020MOL0     H34602   9.901   1.711   8.759 -1.0204 -1.3061  0.4243
 1020MOL0     H34603   9.678   1.658   8.828  0.8932  1.0999  1.3913
 1020MOL0     H34604   9.251   1.563   8.612  1.5162  2.2683 -2.5671
 1020MOL0     H34605   9.008   1.495   8.666 -2.3414  0.2850 -0.8851
 1020MOL0     H34606   8.748   1.831   8.582 -0.3847 -0.0529  0.1604
 1020MOL0     H34607   8.672   1.802   8.737 -1.1278 -0.9557 -0.2580
 1020MOL0     H34608   8.603   1.560   8.626 -4.7317 -1.0739 -1.7664
 1020MOL0     H34609   8.640   1.655   8.483 -0.5124  0.9332 -0.1901
 1020MOL0     H34610   8.452   1.817   8.563 -2.5538 -0.4799 -2.1032
 1020MOL0     H34611   8.438   1.726   8.712 -0.7685  2.7645  0.2452
 1020MOL0     H34612   8.270   1.697   8.503 -0.9930 -2.0376 -1.0387
 1020MOL0     H34613   8.383   1.567   8.455 -1.1551 -0.4635 -0.3168
 1020MOL0     H34614   8.190   1.487   8.590  0.0489 -1.3852  0.6904
 1020MOL0     H34615   8.237   1.590   8.720 -0.6962 -1.3224  0.4783
 1020MOL0     H34616   8.431   1.446   8.761  0.3919 -0.5160 -0.1242
 1020MOL0     H34617   8.434   1.395   8.596 -0.2827  0.0204 -0.3084
 1020MOL0     H34618   8.230   1.319   8.822  0.6208  1.5051 -0.0265
 1020MOL0     H34619   8.209   1.261   8.649 -0.4228 -0.8355  0.3727
 1020MOL0     H34620   8.439   1.203   8.846  1.2811  0.0946 -0.9543
 1020MOL0     H34621   8.441   1.164   8.681 -2.1313  3.2337 -1.9723
 1020MOL0     H34622   8.905   1.911   8.710  0.0242  0.1631 -0.9670
 1020MOL0     H34623   9.149   1.961   8.722  2.6939 -1.1885  1.1947
 1020MOL0     H34624   9.522   1.931   8.536 -1.8493  0.0464  1.3665
 1020MOL0     H34625   9.733   1.983   8.457  2.5710  1.7348  1.3372
 1020MOL0     H34626   8.610   2.224   7.707  1.5352 -2.2444  0.6325
 1020MOL0     H34627   8.385   2.350   7.762  1.2375  1.6320  1.8150
 1020MOL0     H34628   7.830   2.130   7.693  4.1843  2.5004 -3.5762
 1020MOL0     H34629   7.639   2.269   7.689 -0.4067  0.4246 -0.2456
 1020MOL0     H34630   7.434   2.359   7.761 -0.9554 -0.1384 -1.3715
 1020MOL0     H34631   7.534   2.468   7.658 -2.3042 -0.2838 -0.7171
 1020MOL0     H34632   7.344   2.544   7.879  0.2246 -2.3166  0.1840
 1020MOL0     H34633   7.453   2.659   7.798 -1.2046  0.3392  1.3229
 1020MOL0     H34634   7.201   2.658   7.714 -0.5627  1.7977 -1.0080
 1020MOL0     H34635   7.240   2.489   7.659 -0.0696  1.2374 -3.8193
 1020MOL0     H34636   7.375   2.733   7.560  2.3816 -0.3525  0.3661
 1020MOL0     H34637   7.396   2.566   7.498 -0.9240 -0.9729  1.6163
 1020MOL0     H34638   7.078   2.621   7.275  4.1962 -1.7544 -1.9812
 1020MOL0     H34639   7.793   2.528   7.981  1.0539  1.0074 -0.3933
 1020MOL0     H34640   8.018   2.399   7.976  0.3841  0.7919  0.8702
 1021MOL0     O34641   4.273   3.449   0.175  0.1987  0.4808 -0.2612
 1021MOL0     C34642   4.284   3.569   0.152 -0.1867  0.9956  0.4183
 1021MOL0     O34643   4.194   3.662   0.189 -0.0286  0.6522 -0.6808
 1021MOL0     C34644   4.061   3.615   0.217 -0.3511 -0.6184 -1.2068
 1021MOL0     C34645   4.008   3.594   0.347 -0.5713 -0.3473 -0.5916
 1021MOL0     C34646   3.875   3.563   0.361 -0.2306  0.0959  0.1546
 1021MOL0     C34647   3.789   3.561   0.253  0.0628  0.0194  1.3640
 1021MOL0     O34648   3.657   3.515   0.258  0.4461 -0.3865  0.4336
 1021MOL0     C34649   3.557   3.612   0.224 -0.2006 -0.2978 -0.0279
 1021MOL0     C34650   3.475   3.658   0.347 -0.3207 -0.8102 -0.8277
 1021MOL0     C34651   3.388   3.556   0.417  0.1820 -0.3831  0.2574
 1021MOL0     C34652   3.281   3.504   0.311  1.0280  1.4613  0.0824
 1021MOL0     C34653   3.175   3.419   0.384 -0.4151 -0.8064 -0.1540
 1021MOL0     C34654   3.061   3.368   0.294 -0.7270  0.2128  0.3625
 1021MOL0     C34655   2.949   3.281   0.354  1.1814 -0.9735 -0.1750
 1021MOL0     C34656   2.875   3.353   0.459 -0.4378 -0.8472 -0.0657
 1021MOL0     N34657   2.755   3.289   0.497 -0.2425  0.4257 -0.3314
 1021MOL0     C34658   2.756   3.170   0.575 -0.1289 -0.3218  0.3144
 1021MOL0     C34659   2.627   3.140   0.593  0.3283  0.8919 -0.1174
 1021MOL0     C34660   2.570   3.016   0.663 -0.0161 -0.4628 -0.4319
 1021MOL0     C34661   2.419   3.020   0.699  0.5902  0.4274  0.2102
 1021MOL0     C34662   2.360   2.895   0.751  0.3672  0.8473  0.1930
 1021MOL0     C34663   2.217   2.930   0.805  0.1573 -0.5519 -0.9314
 1021MOL0     O34664   2.156   2.818   0.873  0.1209  0.5457  0.0218
 1021MOL0     C34665   2.019   2.805   0.889 -0.2630  0.6722  0.5764
 1021MOL0     C34666   1.975   2.708   0.979 -0.4740 -0.5540 -1.0632
 1021MOL0     C34667   1.836   2.704   1.014 -0.1795  0.4387  0.1842
 1021MOL0     C34668   1.744   2.773   0.942  1.2160  0.3505  0.2925
 1021MOL0     C34669   1.597   2.742   0.959 -0.2164 -0.1287 -0.4429
 1021MOL0     O34670   1.566   2.665   1.070 -0.5323  0.1889 -0.0174
 1021MOL0     C34671   1.440   2.638   1.107 -0.3227 -0.4465  0.8340
 1021MOL0     C34672   1.387   2.694   1.227  0.2073 -0.3164 -0.3613
 1021MOL0     C34673   1.259   2.675   1.258  0.3972  0.8410 -0.1405
 1021MOL0     C34674   1.170   2.611   1.164  0.1006 -0.9474 -0.2867
 1021MOL0     O34675   1.036   2.595   1.201  0.5457  0.3039 -0.6525
 1021MOL0     C34676   0.931   2.548   1.107 -0.4003 -0.1994 -0.0840
 1021MOL0     C34677   0.790   2.585   1.168  0.5538  0.7018 -0.5800
 1021MOL0     C34678   0.754   2.479   1.277  0.4720 -0.2909 -0.3528
 1021MOL0     C34679   0.720   2.340   1.225 -0.3354 -0.2280 -0.5960
 1021MOL0     C34680   0.621   2.261   1.311  0.9735 -0.0340  0.9352
 1021MOL0     C34681   0.679   2.175   1.424 -0.0465  0.3329 -0.0615
 1021MOL0     C34682   0.589   2.064   1.475  0.3307  0.1369 -0.1601
 1021MOL0     C34683   0.643   1.981   1.591 -0.0476 -0.0415  0.6211
 1021MOL0    Cl34684   0.781   1.887   1.532  0.0387 -0.0762 -0.1777
 1021MOL0     C34685   1.224   2.564   1.045 -0.5852 -0.4976  0.7087
 1021MOL0     C34686   1.360   2.570   1.018 -0.0733  0.2252 -0.0240
 1021MOL0     O34687   1.516   2.792   0.878  0.5159  0.4839 -0.6587
 1021MOL0     C34688   1.785   2.871   0.850 -0.0214  0.0822  0.5903
 1021MOL0     C34689   1.922   2.882   0.819 -0.6529  0.6989 -1.2249
 1021MOL0     N34690   2.549   3.237   0.538  0.0437  0.4066 -0.0387
 1021MOL0     N34691   2.625   3.322   0.474 -0.2534  0.1869  0.4185
 1021MOL0     C34692   3.837   3.588   0.130 -0.9521 -0.3215  0.4982
 1021MOL0     C34693   3.977   3.608   0.106 -0.4087 -0.0372  0.7595
 1021MOL0     C34694   4.418   3.616   0.106 -0.5988 -0.1434 -0.5749
 1021MOL0     C34695   4.441   3.751   0.084  0.3182  0.1518 -0.0487
 1021MOL0     C34696   4.554   3.791   0.013  0.3695 -0.0164 -0.4848
 1021MOL0     C34697   4.652   3.706  -0.027  0.0106  0.1068 -0.3449
 1021MOL0     O34698   4.768   3.755  -0.094 -0.1523 -0.3997  0.2894
 1021MOL0     C34699   4.868   3.671  -0.151 -0.3459 -0.3852  0.4965
 1021MOL0     C34700   4.845   3.611  -0.295  0.3980 -0.2353  0.2786
 1021MOL0     C34701   4.819   3.724  -0.391  0.1348 -0.1483 -0.7955
 1021MOL0     C34702   4.793   3.675  -0.539 -0.4519  0.2446 -0.4813
 1021MOL0     C34703   4.917   3.637  -0.602  0.0560 -0.2692 -0.0902
 1021MOL0     C34704   5.023   3.614  -0.658 -0.3966 -0.3499 -0.1989
 1021MOL0     C34705   4.629   3.572  -0.004  0.7066 -0.3475 -0.4077
 1021MOL0     C34706   4.514   3.527   0.064 -0.3989 -0.1540 -0.3584
 1021MOL0     H34707   4.077   3.590   0.430 -0.9981  0.2389 -0.2067
 1021MOL0     H34708   3.836   3.539   0.460 -0.9983 -0.2364 -0.2198
 1021MOL0     H34709   3.489   3.565   0.154  2.6618 -3.2002 -1.0832
 1021MOL0     H34710   3.616   3.695   0.184  0.2486 -2.1836 -3.6697
 1021MOL0     H34711   3.409   3.741   0.321 -0.5552 -0.4084  0.9013
 1021MOL0     H34712   3.541   3.686   0.431 -1.0237 -0.7814 -0.2721
 1021MOL0     H34713   3.330   3.597   0.500  1.0464 -0.4704  0.9215
 1021MOL0     H34714   3.448   3.481   0.470 -1.6382 -0.8335  1.7838
 1021MOL0     H34715   3.233   3.581   0.251 -3.7258 -1.5335 -0.4962
 1021MOL0     H34716   3.319   3.439   0.232  0.0520  2.8784 -1.6383
 1021MOL0     H34717   3.138   3.473   0.472  2.0124 -3.0450  2.4090
 1021MOL0     H34718   3.202   3.323   0.428  0.7120  0.4355  2.0837
 1021MOL0     H34719   3.114   3.313   0.216 -1.4238 -0.8299  0.5991
 1021MOL0     H34720   3.013   3.460   0.259  1.7399  1.1001 -0.9266
 1021MOL0     H34721   2.879   3.255   0.274 -0.3901 -0.4335  0.9718
 1021MOL0     H34722   2.978   3.185   0.398  2.5454 -1.3404 -1.7627
 1021MOL0     H34723   2.854   3.456   0.428 -0.3209 -1.0250 -0.7473
 1021MOL0     H34724   2.944   3.364   0.543  0.7179  0.5434 -1.1278
 1021MOL0     H34725   2.842   3.114   0.611 -1.1644 -2.0887  0.1237
 1021MOL0     H34726   2.633   3.007   0.751 -2.7022 -0.0247  1.6604
 1021MOL0     H34727   2.595   2.936   0.593  2.6806  1.3743 -1.7261
 1021MOL0     H34728   2.361   3.045   0.609 -1.6089  4.0373  2.4019
 1021MOL0     H34729   2.416   3.100   0.773  0.3859 -0.2939  1.0026
 1021MOL0     H34730   2.351   2.820   0.673  0.7617  2.0239 -1.0243
 1021MOL0     H34731   2.423   2.864   0.835  1.2450  1.4575 -0.2250
 1021MOL0     H34732   2.153   2.973   0.726 -1.1910  3.3267  1.9320
 1021MOL0     H34733   2.218   3.008   0.882 -1.8480  0.3826 -1.7814
 1021MOL0     H34734   2.058   2.658   1.026  0.0604  1.7505  0.6204
 1021MOL0     H34735   1.806   2.642   1.098  2.3597 -1.3072 -0.0734
 1021MOL0     H34736   1.449   2.753   1.294 -1.5428  2.8465 -1.3302
 1021MOL0     H34737   1.224   2.715   1.353  1.3638  3.6098 -0.8668
 1021MOL0     H34738   0.934   2.439   1.103  1.3549 -0.3020  1.8850
 1021MOL0     H34739   0.942   2.591   1.006  0.6845 -1.2544 -0.4473
 1021MOL0     H34740   0.711   2.577   1.093 -0.8328  0.5208  0.8451
 1021MOL0     H34741   0.795   2.681   1.219 -0.5852 -0.2997  1.5594
 1021MOL0     H34742   0.669   2.505   1.340  1.2447 -0.7019  0.9037
 1021MOL0     H34743   0.842   2.485   1.342  0.6559 -2.4579 -0.3248
 1021MOL0     H34744   0.671   2.357   1.128  0.2828  3.6741 -0.4161
 1021MOL0     H34745   0.805   2.276   1.199 -1.1660 -1.6278  0.0578
 1021MOL0     H34746   0.576   2.195   1.236 -3.5098 -1.2489  4.2790
 1021MOL0     H34747   0.532   2.311   1.352 -2.0453 -1.5769 -3.0569
 1021MOL0     H34748   0.701   2.239   1.509 -2.1350  1.5998 -0.3999
 1021MOL0     H34749   0.773   2.129   1.392 -0.7775 -2.3236  1.2494
 1021MOL0     H34750   0.492   2.110   1.495  2.1097  3.8640  0.9126
 1021MOL0     H34751   0.571   1.994   1.393 -0.3040  0.4375 -0.2832
 1021MOL0     H34752   0.563   1.919   1.630 -2.4344  4.1893  3.1880
 1021MOL0     H34753   0.679   2.043   1.674 -2.8436  0.0789  1.8487
 1021MOL0     H34754   1.150   2.516   0.983  2.1278 -1.9525 -1.6611
 1021MOL0     H34755   1.396   2.531   0.923 -3.0651 -1.7828 -0.4787
 1021MOL0     H34756   1.724   2.935   0.788  1.6915 -1.5753 -3.1027
 1021MOL0     H34757   1.952   2.952   0.742  2.6590 -1.3940 -2.0310
 1021MOL0     H34758   3.772   3.581   0.044  1.8411  1.3092 -1.9422
 1021MOL0     H34759   4.015   3.627   0.006 -1.9616  1.0658  0.3389
 1021MOL0     H34760   4.358   3.818   0.104  1.0289  0.3497  2.6229
 1021MOL0     H34761   4.560   3.899   0.008  0.6020  0.0458  0.6656
 1021MOL0     H34762   4.871   3.585  -0.083 -1.0682 -1.4556 -0.7666
 1021MOL0     H34763   4.961   3.728  -0.154  0.4408 -1.6407 -1.1824
 1021MOL0     H34764   4.933   3.549  -0.314 -1.2385 -2.6344 -0.0239
 1021MOL0     H34765   4.756   3.547  -0.285  0.7565 -0.7753  0.0923
 1021MOL0     H34766   4.905   3.791  -0.390  0.7734 -0.9503 -0.9087
 1021MOL0     H34767   4.731   3.773  -0.349  1.0769 -0.6429  1.9462
 1021MOL0     H34768   4.719   3.594  -0.536 -1.6912  1.3239 -1.0742
 1021MOL0     H34769   4.752   3.761  -0.593 -3.0861  0.6560  1.9438
 1021MOL0     H34770   5.122   3.581  -0.680 -1.3290 -3.4051 -0.2701
 1021MOL0     H34771   4.691   3.493  -0.044  1.7658  1.5319 -2.7510
 1021MOL0     H34772   4.510   3.419   0.079  1.7553 -0.2497 -0.0844
 1022MOL0     O34773   0.569  10.668   2.534  0.4170 -0.3858 -0.1487
 1022MOL0     C34774   0.590  10.625   2.645 -0.2871  0.4569 -0.3035
 1022MOL0     O34775   0.498  10.563   2.731 -0.0169 -0.4764  0.0545
 1022MOL0     C34776   0.363  10.549   2.682 -0.1229 -0.2159 -0.9397
 1022MOL0     C34777   0.295  10.637   2.598  0.6542  0.3173 -0.2883
 1022MOL0     C34778   0.152  10.616   2.578 -0.1384 -0.6160  1.1409
 1022MOL0     C34779   0.086  10.508   2.632  0.1126  0.5341  0.0715
 1022MOL0     O34780  -0.051  10.496   2.615  0.4161  0.0684  0.2608
 1022MOL0     C34781  -0.102  10.544   2.491 -0.0372 -0.3862 -0.3773
 1022MOL0     C34782  -0.236  10.474   2.471 -0.1862 -0.1997  0.1135
 1022MOL0     C34783  -0.325  10.531   2.357 -0.0022 -0.5853  0.0791
 1022MOL0     C34784  -0.460  10.470   2.346  0.8137  0.7393  0.0973
 1022MOL0     C34785  -0.541  10.526   2.219 -0.4156 -0.2293 -0.4815
 1022MOL0     C34786  -0.662  10.448   2.180  0.8663  0.6346 -0.8284
 1022MOL0     C34787  -0.623  10.303   2.125  0.5135  0.7581  0.2288
 1022MOL0     C34788  -0.719  10.203   2.183  0.2460 -0.2826 -0.5616
 1022MOL0     N34789  -0.854  10.233   2.143 -0.3171 -0.2024  0.0472
 1022MOL0     C34790  -0.898  10.213   2.018  0.3207  0.8036  1.0724
 1022MOL0     C34791  -1.037  10.228   2.028 -0.1347  1.0683  0.2009
 1022MOL0     C34792  -1.135  10.190   1.912  0.0154 -0.0262 -0.2074
 1022MOL0     C34793  -1.281  10.188   1.960 -0.2058 -0.4122  0.6514
 1022MOL0     C34794  -1.344  10.318   1.978  0.3514  0.3589  0.9425
 1022MOL0     C34795  -1.370  10.378   1.836 -0.1581  0.2850 -0.2666
 1022MOL0     O34796  -1.470  10.489   1.848  0.2292  0.1662  0.8796
 1022MOL0     C34797  -1.604  10.462   1.871  0.2196  1.3981 -0.5463
 1022MOL0     C34798  -1.648  10.330   1.864 -0.0957 -0.0867  0.7898
 1022MOL0     C34799  -1.776  10.301   1.894  0.4169  1.6856 -0.3857
 1022MOL0     C34800  -1.871  10.394   1.930 -0.1606 -0.4618  0.6521
 1022MOL0     C34801  -2.010  10.361   1.946 -0.1432 -0.2479 -0.7426
 1022MOL0     O34802  -2.101  10.463   1.945 -0.2464 -1.1911 -0.3189
 1022MOL0     C34803  -2.233  10.431   1.975 -1.2571 -0.3994 -0.2421
 1022MOL0     C34804  -2.318  10.389   1.872  0.7105  1.0493  0.7706
 1022MOL0     C34805  -2.454  10.381   1.891  0.9891  0.1501 -0.4373
 1022MOL0     C34806  -2.513  10.411   2.015 -0.3743  0.1588 -0.6902
 1022MOL0     O34807  -2.652  10.418   2.031  0.3826  0.6048  0.2642
 1022MOL0     C34808  -2.737  10.371   1.923 -0.1291 -1.5806 -0.5161
 1022MOL0     C34809  -2.880  10.420   1.962 -0.0577  0.2307  0.1151
 1022MOL0     C34810  -2.997  10.373   1.876 -0.5939  0.0880  0.8654
 1022MOL0     C34811  -3.127  10.446   1.918 -0.7743  0.2696 -0.7193
 1022MOL0     C34812  -3.251  10.382   1.848 -0.3302 -0.3160  0.1951
 1022MOL0     C34813  -3.263  10.233   1.868 -0.2423  0.5526  0.1927
 1022MOL0     C34814  -3.243  10.181   2.008 -0.4086  0.3547 -0.0315
 1022MOL0     C34815  -3.328  10.061   2.029  0.5319  0.2447 -0.6314
 1022MOL0    Cl34816  -3.270   9.999   2.184 -0.5797  0.1888 -0.1352
 1022MOL0     C34817  -2.429  10.453   2.114  0.0227 -0.7985  0.0763
 1022MOL0     C34818  -2.291  10.458   2.102 -0.1648  0.2016 -0.1299
 1022MOL0     O34819  -2.035  10.245   1.967  0.1828  1.0693 -0.7248
 1022MOL0     C34820  -1.836  10.535   1.926  0.1635  0.4244  0.6416
 1022MOL0     C34821  -1.697  10.566   1.897  0.8278  0.0674 -0.3806
 1022MOL0     N34822  -1.067  10.268   2.156 -0.8923  0.0994 -0.3115
 1022MOL0     N34823  -0.959  10.266   2.222 -0.3521  0.7255 -0.4809
 1022MOL0     C34824   0.155  10.427   2.722 -0.6365  0.2039  0.5752
 1022MOL0     C34825   0.291  10.441   2.739  0.1151  0.6751 -0.2697
 1022MOL0     C34826   0.731  10.631   2.684  0.2612  0.4896  0.0572
 1022MOL0     C34827   0.836  10.637   2.597  1.0403 -0.2784  0.7978
 1022MOL0     C34828   0.968  10.613   2.629 -0.0002  0.1518  0.0463
 1022MOL0     C34829   1.008  10.596   2.754 -0.4379 -0.0061 -0.4955
 1022MOL0     O34830   1.143  10.585   2.781 -0.3866 -0.2415  0.3325
 1022MOL0     C34831   1.230  10.515   2.688 -0.5265 -0.0880 -0.0890
 1022MOL0     C34832   1.327  10.419   2.762 -0.4427 -0.3023  0.6851
 1022MOL0     C34833   1.248  10.312   2.833 -0.0060 -0.1317  0.6415
 1022MOL0     C34834   1.348  10.223   2.918  0.6781  0.0667  0.1172
 1022MOL0     C34835   1.282  10.107   2.983  0.4192  0.2267  0.5474
 1022MOL0     C34836   1.211  10.031   3.046  0.6031 -0.6966  0.0146
 1022MOL0     C34837   0.908  10.586   2.850 -0.4009 -0.2369  0.2624
 1022MOL0     C34838   0.772  10.594   2.817  0.6129 -0.7685  0.5037
 1022MOL0     H34839   0.341  10.729   2.564  0.0478  0.2770 -1.2806
 1022MOL0     H34840   0.108  10.697   2.520  1.3607 -0.9386 -0.5335
 1022MOL0     H34841  -0.041  10.509   2.407  0.2867  2.1741 -1.2682
 1022MOL0     H34842  -0.111  10.652   2.482  6.5239  0.4231 -3.5340
 1022MOL0     H34843  -0.289  10.495   2.564 -1.1964  0.2122 -0.5344
 1022MOL0     H34844  -0.220  10.366   2.462  1.6133  0.0613 -0.1931
 1022MOL0     H34845  -0.270  10.516   2.264  0.2620 -0.1719  0.1681
 1022MOL0     H34846  -0.328  10.638   2.380 -1.0617 -0.8337  1.2563
 1022MOL0     H34847  -0.454  10.361   2.346  3.7510  0.8214 -0.3670
 1022MOL0     H34848  -0.507  10.507   2.438 -0.0626  1.3210 -0.5739
 1022MOL0     H34849  -0.481  10.532   2.128 -0.1931 -2.6338 -0.5506
 1022MOL0     H34850  -0.584  10.626   2.230 -1.3001 -0.5073 -1.2264
 1022MOL0     H34851  -0.730  10.504   2.115 -0.8781  1.5494  1.6273
 1022MOL0     H34852  -0.719  10.444   2.273  0.3793 -2.0442 -1.1907
 1022MOL0     H34853  -0.618  10.309   2.016 -0.3989 -1.1645  0.0507
 1022MOL0     H34854  -0.519  10.279   2.146  0.5508 -3.8215 -3.5764
 1022MOL0     H34855  -0.718  10.202   2.292  1.3346 -2.3636 -0.5381
 1022MOL0     H34856  -0.687  10.103   2.152 -0.4724 -0.8473  0.4573
 1022MOL0     H34857  -0.841  10.184   1.930 -1.6697  0.0905 -0.0482
 1022MOL0     H34858  -1.121  10.090   1.871 -0.4729  0.8064 -2.5480
 1022MOL0     H34859  -1.112  10.255   1.827  0.7126  1.7367  1.2487
 1022MOL0     H34860  -1.294  10.148   2.061 -0.4115  0.9417  1.1866
 1022MOL0     H34861  -1.347  10.124   1.900 -2.9617  2.0049  0.8826
 1022MOL0     H34862  -1.440  10.300   2.027 -1.0793 -1.9919 -2.3572
 1022MOL0     H34863  -1.287  10.395   2.030  1.2214 -0.5812  1.3983
 1022MOL0     H34864  -1.389  10.293   1.769  0.5310 -0.2604  0.2121
 1022MOL0     H34865  -1.286  10.440   1.805 -1.1798  2.2858  0.7435
 1022MOL0     H34866  -1.593  10.246   1.824  0.6501  0.8232 -0.1804
 1022MOL0     H34867  -1.791  10.196   1.872  0.3239  1.6851 -0.3184
 1022MOL0     H34868  -2.278  10.389   1.772  2.9108  4.5564  1.4519
 1022MOL0     H34869  -2.516  10.360   1.804  0.6197 -1.7714  0.2240
 1022MOL0     H34870  -2.745  10.267   1.889  0.2020 -0.4204 -4.6936
 1022MOL0     H34871  -2.708  10.428   1.834 -0.3189 -2.4826 -1.1711
 1022MOL0     H34872  -2.883  10.529   1.958 -0.5454  0.1915 -1.0642
 1022MOL0     H34873  -2.902  10.379   2.061  1.3627  0.9131  0.7372
 1022MOL0     H34874  -3.007  10.264   1.889 -0.3956 -0.0715 -0.2795
 1022MOL0     H34875  -2.983  10.391   1.769 -1.7681 -2.9912  0.0861
 1022MOL0     H34876  -3.137  10.444   2.027 -0.7045  1.3676 -0.6870
 1022MOL0     H34877  -3.114  10.552   1.894  1.7224  1.4320  4.3533
 1022MOL0     H34878  -3.248  10.408   1.742  0.5526 -1.8668 -0.2032
 1022MOL0     H34879  -3.331  10.439   1.896  0.7951  0.8761  0.7448
 1022MOL0     H34880  -3.193  10.186   1.798 -0.1002  0.9575  0.0574
 1022MOL0     H34881  -3.366  10.216   1.833  0.2931 -0.2011 -1.0878
 1022MOL0     H34882  -3.138  10.152   2.021 -0.7171  0.2204  2.6871
 1022MOL0     H34883  -3.256  10.256   2.087  1.0582 -0.6985  1.2870
 1022MOL0     H34884  -3.319   9.986   1.950  1.5767 -1.1419  0.7304
 1022MOL0     H34885  -3.434  10.087   2.040  0.2324 -0.3453 -1.9235
 1022MOL0     H34886  -2.476  10.478   2.208  0.8045 -0.0732  0.2851
 1022MOL0     H34887  -2.235  10.487   2.190 -0.8234  0.1644  0.3083
 1022MOL0     H34888  -1.900  10.623   1.925  1.3153  1.2981  0.6737
 1022MOL0     H34889  -1.670  10.671   1.906  1.3329 -0.0920 -0.0090
 1022MOL0     H34890   0.110  10.339   2.767  0.9672 -0.5493  0.7836
 1022MOL0     H34891   0.341  10.364   2.796  0.1040  1.7297  1.2125
 1022MOL0     H34892   0.834  10.657   2.490  0.3118  2.7609  1.2766
 1022MOL0     H34893   1.034  10.617   2.543 -1.3850  0.5019 -1.0499
 1022MOL0     H34894   1.281  10.604   2.649  0.7940 -1.0530 -0.6426
 1022MOL0     H34895   1.173  10.462   2.611  0.2047  0.5558 -1.1059
 1022MOL0     H34896   1.398  10.367   2.697  0.2716  0.5746  0.7506
 1022MOL0     H34897   1.376  10.493   2.826 -2.3457  3.1567 -1.4864
 1022MOL0     H34898   1.199  10.236   2.771 -1.0045 -1.3334  2.7907
 1022MOL0     H34899   1.174  10.342   2.908 -0.1437 -1.1208  0.9228
 1022MOL0     H34900   1.432  10.190   2.856  2.2970  1.1982  1.5875
 1022MOL0     H34901   1.385  10.281   3.003 -1.0905 -0.5972  1.3961
 1022MOL0     H34902   1.141   9.979   3.108 -1.5896  3.4962  1.4494
 1022MOL0     H34903   0.949  10.577   2.950  2.7464  4.9514 -0.2231
 1022MOL0     H34904   0.689  10.578   2.885 -2.0777  0.8787 -2.1445
 1023MOL0     O34905   2.522   8.929   4.619 -0.2667 -0.3325 -0.0767
 1023MOL0     C34906   2.552   9.051   4.620  0.0379  0.3131  0.0430
 1023MOL0     O34907   2.473   9.155   4.585  0.4736 -0.5677  0.4733
 1023MOL0     C34908   2.342   9.120   4.550 -0.2236  0.0780 -0.0174
 1023MOL0     C34909   2.239   9.181   4.629 -0.9570  0.5025  0.0569
 1023MOL0     C34910   2.105   9.147   4.602  1.1092 -0.2988 -0.1727
 1023MOL0     C34911   2.074   9.075   4.484  0.8480 -0.6703  0.2828
 1023MOL0     O34912   1.943   9.073   4.436 -0.5359  0.7200  0.1713
 1023MOL0     C34913   1.888   8.976   4.355 -0.0949 -0.3741  0.0029
 1023MOL0     C34914   1.741   9.003   4.331  0.3883 -0.4099 -0.7573
 1023MOL0     C34915   1.695   8.914   4.219 -0.1647  0.0434 -0.3703
 1023MOL0     C34916   1.543   8.901   4.227 -1.3815  0.9227 -0.0876
 1023MOL0     C34917   1.473   8.867   4.102  0.6112 -0.4786  0.5103
 1023MOL0     C34918   1.456   8.714   4.093 -0.0799 -0.0104  0.0825
 1023MOL0     C34919   1.373   8.685   3.959 -0.5234 -0.5248  0.0341
 1023MOL0     C34920   1.349   8.534   3.955  0.4054  0.2188  0.1164
 1023MOL0     N34921   1.228   8.502   3.881  0.8718  0.0883  0.2914
 1023MOL0     C34922   1.215   8.382   3.815  0.7088 -0.0475 -0.2101
 1023MOL0     C34923   1.087   8.383   3.780 -0.2520 -0.2934 -0.0361
 1023MOL0     C34924   1.031   8.260   3.722  0.7095 -0.2368 -0.7672
 1023MOL0     C34925   0.879   8.284   3.713  0.1866 -0.0936 -0.2016
 1023MOL0     C34926   0.815   8.147   3.691 -0.6675  0.1561  0.8230
 1023MOL0     C34927   0.662   8.162   3.694  0.3174  0.2793  0.0576
 1023MOL0     O34928   0.594   8.038   3.661 -0.2450  0.0034 -0.3440
 1023MOL0     C34929   0.457   8.038   3.649 -0.1015 -0.6488  0.0931
 1023MOL0     C34930   0.372   8.145   3.657  0.2128  0.6563 -0.4756
 1023MOL0     C34931   0.239   8.136   3.626 -0.4882  0.4097 -0.3994
 1023MOL0     C34932   0.179   8.012   3.597  0.1489  0.4336  0.7364
 1023MOL0     C34933   0.032   8.005   3.574  0.0233  0.3157 -0.6831
 1023MOL0     O34934  -0.031   7.884   3.561 -0.3484 -0.8858  0.5304
 1023MOL0     C34935  -0.162   7.868   3.523 -0.1945 -0.6697  0.5416
 1023MOL0     C34936  -0.236   7.960   3.439 -1.7924  0.0996  0.8873
 1023MOL0     C34937  -0.367   7.922   3.399 -0.1428 -0.4927 -0.9113
 1023MOL0     C34938  -0.417   7.797   3.437 -0.0536 -0.1319 -0.4049
 1023MOL0     O34939  -0.543   7.753   3.399 -0.1398 -0.2412 -0.3720
 1023MOL0     C34940  -0.589   7.790   3.274  0.0787 -0.1750 -0.0049
 1023MOL0     C34941  -0.711   7.706   3.236 -1.0677  0.6858 -0.1233
 1023MOL0     C34942  -0.836   7.749   3.308  0.6233  0.7177 -0.5700
 1023MOL0     C34943  -0.954   7.665   3.272  0.4616 -0.7015 -0.3119
 1023MOL0     C34944  -1.084   7.716   3.335 -0.1189  0.9136  0.7437
 1023MOL0     C34945  -1.203   7.620   3.313 -0.4810 -0.7194 -0.2066
 1023MOL0     C34946  -1.326   7.662   3.396  0.3159 -0.7243 -0.0883
 1023MOL0     C34947  -1.425   7.547   3.430 -0.5555 -0.8812  0.4307
 1023MOL0    Cl34948  -1.565   7.622   3.501 -0.2162 -0.0954  0.0073
 1023MOL0     C34949  -0.347   7.707   3.513  0.2957 -0.4072 -0.3029
 1023MOL0     C34950  -0.220   7.742   3.551  0.1204 -0.4417  0.3347
 1023MOL0     O34951  -0.027   8.115   3.572  0.0796 -0.1587 -0.0178
 1023MOL0     C34952   0.265   7.897   3.584 -0.2749 -0.1546  0.0929
 1023MOL0     C34953   0.404   7.914   3.597 -0.1360 -0.3243 -0.3602
 1023MOL0     N34954   1.023   8.492   3.816  0.1875 -0.4794 -1.0003
 1023MOL0     N34955   1.102   8.559   3.892 -0.4457 -0.6167  0.1455
 1023MOL0     C34956   2.178   9.003   4.422 -0.2943 -0.5978  0.7771
 1023MOL0     C34957   2.309   9.026   4.449 -0.0601  0.3969 -0.3731
 1023MOL0     C34958   2.695   9.078   4.633 -0.4972  0.0071  0.4424
 1023MOL0     C34959   2.791   8.978   4.633  0.0348  0.3598  0.0277
 1023MOL0     C34960   2.928   8.998   4.660  0.2880 -0.6689  0.2703
 1023MOL0     C34961   2.965   9.127   4.688  0.4381 -0.0043 -0.0841
 1023MOL0     O34962   3.100   9.151   4.706  0.0638 -0.2900 -0.7587
 1023MOL0     C34963   3.151   9.282   4.756  0.6736  0.0595  0.2822
 1023MOL0     C34964   3.289   9.262   4.838  0.7457  0.3302  0.0870
 1023MOL0     C34965   3.399   9.190   4.751 -0.3222  0.0752 -0.5129
 1023MOL0     C34966   3.535   9.219   4.799 -1.2421 -0.3914  0.7463
 1023MOL0     C34967   3.645   9.174   4.700  0.1069  0.9675  0.0939
 1023MOL0     C34968   3.726   9.118   4.631  0.0647 -0.3649 -0.4757
 1023MOL0     C34969   2.879   9.236   4.669 -0.3005 -0.1325  0.1043
 1023MOL0     C34970   2.746   9.208   4.644  0.5830  1.2338  1.1525
 1023MOL0     H34971   2.265   9.244   4.713  1.7400  0.8898 -0.9547
 1023MOL0     H34972   2.020   9.192   4.653 -0.8944  0.1608 -3.6363
 1023MOL0     H34973   1.893   8.878   4.405  0.1529 -1.1169 -1.4189
 1023MOL0     H34974   1.946   8.971   4.262  0.1736 -0.1413  0.1566
 1023MOL0     H34975   1.733   9.109   4.308 -1.7233  0.5078  3.3022
 1023MOL0     H34976   1.698   8.975   4.428 -1.6243 -0.4932 -1.6220
 1023MOL0     H34977   1.736   8.813   4.218 -1.4389 -0.4950 -0.7295
 1023MOL0     H34978   1.716   8.960   4.121 -0.2843  0.5068 -0.1812
 1023MOL0     H34979   1.516   8.825   4.302  3.3427 -0.1351  0.8542
 1023MOL0     H34980   1.512   9.000   4.260  0.4755  1.5873 -0.1992
 1023MOL0     H34981   1.525   8.901   4.011 -2.0779 -0.6243 -1.1974
 1023MOL0     H34982   1.379   8.922   4.095  1.5097  0.9263 -2.4519
 1023MOL0     H34983   1.404   8.678   4.182  2.8313 -0.9629  1.5118
 1023MOL0     H34984   1.550   8.659   4.091  0.2272  0.5175 -0.3875
 1023MOL0     H34985   1.276   8.735   3.949 -0.2612 -0.3980 -2.3249
 1023MOL0     H34986   1.433   8.727   3.879  1.4555  0.0196  1.7109
 1023MOL0     H34987   1.335   8.497   4.057  1.8445  0.4229  0.4064
 1023MOL0     H34988   1.435   8.487   3.907 -0.6799 -1.3310 -0.3674
 1023MOL0     H34989   1.282   8.296   3.813 -0.2848 -0.9257  1.5125
 1023MOL0     H34990   1.049   8.176   3.791 -0.5514 -0.2527 -0.4226
 1023MOL0     H34991   1.067   8.235   3.622 -1.5323 -0.1634 -1.6440
 1023MOL0     H34992   0.851   8.343   3.624 -0.2196  0.6061  0.3757
 1023MOL0     H34993   0.830   8.324   3.802  0.9238  0.2968  0.0302
 1023MOL0     H34994   0.837   8.109   3.590 -3.4267  0.4046  0.0434
 1023MOL0     H34995   0.852   8.085   3.773  1.5357 -0.8016 -0.7731
 1023MOL0     H34996   0.636   8.242   3.623  0.3747 -0.5949 -0.9846
 1023MOL0     H34997   0.618   8.189   3.790 -0.8084  0.0545 -0.3870
 1023MOL0     H34998   0.415   8.241   3.684  0.2411  0.4843  0.1102
 1023MOL0     H34999   0.173   8.222   3.631 -0.0143  0.7564 -0.0257
 1023MOL0     H35000  -0.203   8.054   3.396  0.6763 -1.9575 -2.2110
 1023MOL0     H35001  -0.427   7.994   3.344  0.6524 -0.5169 -1.8283
 1023MOL0     H35002  -0.514   7.781   3.195  1.1874  3.9870  0.3381
 1023MOL0     H35003  -0.618   7.896   3.277 -1.4908 -0.5975  0.6185
 1023MOL0     H35004  -0.698   7.597   3.246  0.6753  0.8093 -0.6566
 1023MOL0     H35005  -0.725   7.727   3.130  3.3565  1.3231 -0.8003
 1023MOL0     H35006  -0.856   7.855   3.290  1.4139  0.9353 -0.1794
 1023MOL0     H35007  -0.820   7.733   3.415  0.9601  0.3295 -0.6755
 1023MOL0     H35008  -0.972   7.669   3.165 -0.2361 -1.1828 -0.2265
 1023MOL0     H35009  -0.930   7.563   3.304  1.0315 -0.1610  1.0587
 1023MOL0     H35010  -1.105   7.816   3.295 -2.2326  0.3515  0.3501
 1023MOL0     H35011  -1.060   7.720   3.442  1.6335 -1.4851  0.5162
 1023MOL0     H35012  -1.173   7.522   3.352 -1.3123 -1.5590 -1.5698
 1023MOL0     H35013  -1.225   7.620   3.205  3.2727  0.9975 -1.1369
 1023MOL0     H35014  -1.285   7.683   3.495 -1.2274 -1.4461  0.7481
 1023MOL0     H35015  -1.379   7.748   3.354 -1.1840 -1.1817  0.7845
 1023MOL0     H35016  -1.381   7.477   3.502  1.0341  2.4862  3.0079
 1023MOL0     H35017  -1.443   7.486   3.342 -1.8062 -2.7592  1.9007
 1023MOL0     H35018  -0.394   7.613   3.536 -3.5403  1.5617  0.7563
 1023MOL0     H35019  -0.153   7.681   3.612  0.8145  0.6969  0.7460
 1023MOL0     H35020   0.231   7.800   3.551  1.6730 -0.6472 -0.6464
 1023MOL0     H35021   0.466   7.825   3.588 -0.3866 -0.3790 -1.8029
 1023MOL0     H35022   2.164   8.936   4.338  1.4362 -2.3986  1.8308
 1023MOL0     H35023   2.388   8.986   4.387 -1.0432  0.3900 -1.6846
 1023MOL0     H35024   2.755   8.875   4.635 -0.4555  0.5457  1.0895
 1023MOL0     H35025   2.999   8.915   4.665  0.5449 -0.5085 -0.5317
 1023MOL0     H35026   3.076   9.334   4.816 -1.8538 -2.3279 -0.6461
 1023MOL0     H35027   3.164   9.351   4.672 -0.8304 -1.7457 -1.5424
 1023MOL0     H35028   3.313   9.366   4.864  1.7595  0.6356 -1.8768
 1023MOL0     H35029   3.270   9.197   4.924  1.1915  1.3941  1.0183
 1023MOL0     H35030   3.373   9.209   4.647  1.1339 -1.8433 -1.2739
 1023MOL0     H35031   3.396   9.081   4.753  0.5509  0.0428 -0.8534
 1023MOL0     H35032   3.539   9.328   4.810 -0.2778 -0.2897 -0.4002
 1023MOL0     H35033   3.559   9.175   4.896  4.8102 -3.5397 -1.6301
 1023MOL0     H35034   3.789   9.071   4.558 -0.7960 -0.4219 -1.1928
 1023MOL0     H35035   2.908   9.341   4.669  1.6523 -0.5819 -2.0220
 1023MOL0     H35036   2.671   9.284   4.628 -1.9145 -1.7409 -3.5290
 1024MOL0     O35037   7.160  10.548  11.002  0.5586  0.0969 -1.3341
 1024MOL0     C35038   7.235  10.470  11.059  0.2378 -0.5082  0.2185
 1024MOL0     O35039   7.197  10.364  11.146  0.4908 -0.6694  0.3182
 1024MOL0     C35040   7.066  10.374  11.188  0.3424  0.3024  0.1539
 1024MOL0     C35041   6.948  10.367  11.115  0.0301 -0.3096  0.8585
 1024MOL0     C35042   6.814  10.374  11.158  0.5431  0.6970  0.1100
 1024MOL0     C35043   6.799  10.378  11.296  0.8400 -0.1015  0.3507
 1024MOL0     O35044   6.676  10.393  11.352  0.0275 -0.7173  0.1383
 1024MOL0     C35045   6.565  10.326  11.295  0.7169 -0.4987  0.1719
 1024MOL0     C35046   6.458  10.350  11.412 -0.6885  0.4107 -0.9739
 1024MOL0     C35047   6.333  10.286  11.362 -0.4245 -0.5275  0.1035
 1024MOL0     C35048   6.209  10.306  11.453  0.1430  0.0648 -0.4410
 1024MOL0     C35049   6.228  10.210  11.571 -0.6717  0.1791  0.1076
 1024MOL0     C35050   6.110  10.192  11.665  0.1816 -0.2136 -0.1596
 1024MOL0     C35051   5.995  10.119  11.598  0.0244  0.0305  0.7516
 1024MOL0     C35052   5.887  10.118  11.699  0.4697 -0.4907  0.1788
 1024MOL0     N35053   5.772  10.034  11.661 -0.2550  0.3774  0.9603
 1024MOL0     C35054   5.758   9.910  11.717  0.7334 -0.9528  0.0490
 1024MOL0     C35055   5.626   9.872  11.686 -0.1802  0.3223 -0.2414
 1024MOL0     C35056   5.537   9.750  11.705  0.2876  0.3703 -0.5550
 1024MOL0     C35057   5.505   9.719  11.851 -0.2731 -0.5639 -0.2554
 1024MOL0     C35058   5.407   9.595  11.864 -0.3902 -0.1765 -0.3294
 1024MOL0     C35059   5.407   9.533  12.002  0.2083 -0.2346 -1.0651
 1024MOL0     O35060   5.379   9.641  12.103 -0.0893 -0.2804  0.1214
 1024MOL0     C35061   5.244   9.642  12.146  0.5066 -0.4748 -0.5024
 1024MOL0     C35062   5.174   9.767  12.130 -1.0008 -0.4352 -0.2659
 1024MOL0     C35063   5.043   9.782  12.173 -0.3769  0.2326  0.1146
 1024MOL0     C35064   4.972   9.672  12.228  0.0646  0.1360 -0.3214
 1024MOL0     C35065   4.833   9.683  12.274 -0.2179 -0.7435 -0.5370
 1024MOL0     O35066   4.762   9.790  12.219 -0.7417  0.0512 -0.0133
 1024MOL0     C35067   4.628   9.765  12.207 -0.0902 -0.3527  0.6027
 1024MOL0     C35068   4.534   9.854  12.263 -0.4290 -0.3637  0.1145
 1024MOL0     C35069   4.403   9.848  12.227  0.2358 -0.1502  0.5195
 1024MOL0     C35070   4.357   9.766  12.132 -0.3818  0.1035 -0.3168
 1024MOL0     O35071   4.223   9.741  12.096  0.2130 -0.1031  0.2992
 1024MOL0     C35072   4.143   9.856  12.089  0.4028 -0.1686  0.2321
 1024MOL0     C35073   4.013   9.816  12.026  0.1252  0.7297  0.5152
 1024MOL0     C35074   3.920   9.926  12.031  0.0430  1.3101  0.4006
 1024MOL0     C35075   3.796   9.901  11.941  1.0771 -0.2028  0.3680
 1024MOL0     C35076   3.684  10.009  11.973 -0.5242 -0.0547 -0.9741
 1024MOL0     C35077   3.576  10.002  11.869 -0.2425 -0.5117 -0.8282
 1024MOL0     C35078   3.464  10.100  11.901  0.5876 -0.3499 -0.3958
 1024MOL0     C35079   3.378  10.045  12.020  0.1892  0.5819  0.2261
 1024MOL0    Cl35080   3.279   9.912  11.964 -0.1618 -0.0397  0.0942
 1024MOL0     C35081   4.451   9.680  12.075  0.3227  0.6807 -0.6088
 1024MOL0     C35082   4.586   9.683  12.102  0.5217 -0.1022 -1.1106
 1024MOL0     O35083   4.788   9.597  12.345  0.1460  0.0194 -0.2495
 1024MOL0     C35084   5.043   9.554  12.250 -0.2218  0.1661  0.1158
 1024MOL0     C35085   5.176   9.538  12.215  0.3575  0.2858 -0.6416
 1024MOL0     N35086   5.567   9.983  11.615 -0.4354 -0.4706 -0.0306
 1024MOL0     N35087   5.654  10.073  11.597 -1.2053  0.1431  1.1334
 1024MOL0     C35088   6.911  10.367  11.379 -0.0724 -0.6163  0.4888
 1024MOL0     C35089   7.044  10.370  11.326 -0.1076 -0.6964  0.4440
 1024MOL0     C35090   7.370  10.483  11.005 -0.5327  0.2508 -0.0529
 1024MOL0     C35091   7.477  10.390  11.036  0.2716  0.6907  0.8057
 1024MOL0     C35092   7.610  10.412  10.995 -0.1105  0.6337 -0.0857
 1024MOL0     C35093   7.636  10.522  10.906 -0.7525 -0.0771  0.1661
 1024MOL0     O35094   7.761  10.546  10.840 -0.4176  0.2814 -0.5031
 1024MOL0     C35095   7.835  10.432  10.793  0.3832 -0.9863  1.0785
 1024MOL0     C35096   7.883  10.458  10.646 -0.2652 -0.2131 -0.5741
 1024MOL0     C35097   7.764  10.485  10.552 -0.5107  0.1052 -0.1797
 1024MOL0     C35098   7.822  10.506  10.410 -0.0237  0.1520  0.0945
 1024MOL0     C35099   7.741  10.604  10.348 -0.9554  0.4118 -0.1753
 1024MOL0     C35100   7.678  10.664  10.266  0.0507 -0.1228 -0.6012
 1024MOL0     C35101   7.535  10.617  10.883  0.4813  0.1602 -0.1333
 1024MOL0     C35102   7.403  10.601  10.932 -0.4009 -0.3746 -0.0885
 1024MOL0     H35103   6.962  10.343  11.010 -3.1751 -0.5457  0.3590
 1024MOL0     H35104   6.725  10.374  11.096  1.0147 -3.5335 -0.8714
 1024MOL0     H35105   6.582  10.219  11.278 -0.7251 -0.5030 -1.5486
 1024MOL0     H35106   6.539  10.372  11.200  1.7802 -0.4330 -0.1007
 1024MOL0     H35107   6.448  10.456  11.435  0.4870 -0.1891  2.9521
 1024MOL0     H35108   6.485  10.304  11.507 -3.5340 -1.0704 -0.7805
 1024MOL0     H35109   6.351  10.180  11.343 -0.9581 -0.8213  1.1588
 1024MOL0     H35110   6.307  10.337  11.269  1.0369  0.5488  0.2579
 1024MOL0     H35111   6.203  10.407  11.493 -4.1561 -0.2038  0.0707
 1024MOL0     H35112   6.116  10.279  11.402  0.0303 -0.7004  0.1423
 1024MOL0     H35113   6.308  10.249  11.634  0.2586  0.2320 -1.0597
 1024MOL0     H35114   6.248  10.112  11.527 -0.5058 -0.2475  1.1162
 1024MOL0     H35115   6.086  10.289  11.709  2.3350 -0.0494  0.7648
 1024MOL0     H35116   6.134  10.137  11.756 -2.9931  0.3432  1.1495
 1024MOL0     H35117   5.963  10.169  11.506  2.9495 -0.7373 -0.8220
 1024MOL0     H35118   6.029  10.017  11.577 -0.6213  0.0728 -0.5821
 1024MOL0     H35119   5.862  10.223  11.709 -2.1063 -0.9781 -0.5327
 1024MOL0     H35120   5.922  10.083  11.797 -0.4866 -0.4710  0.5324
 1024MOL0     H35121   5.829   9.855  11.777  1.8510  1.8320  1.4472
 1024MOL0     H35122   5.592   9.670  11.654 -1.0541  0.4395 -2.2315
 1024MOL0     H35123   5.442   9.760  11.652  0.9188  1.9092 -1.4719
 1024MOL0     H35124   5.467   9.804  11.910 -1.2070 -2.4555  2.0356
 1024MOL0     H35125   5.602   9.696  11.897  0.6600  1.2914 -1.1918
 1024MOL0     H35126   5.305   9.634  11.855 -0.0065  0.7931 -0.5136
 1024MOL0     H35127   5.428   9.518  11.789  4.0235  1.2566 -0.8265
 1024MOL0     H35128   5.511   9.498  12.014  1.1406  1.8407 -2.5371
 1024MOL0     H35129   5.339   9.448  12.014 -3.3399  2.5572  0.2749
 1024MOL0     H35130   5.224   9.854  12.090 -0.6253 -1.5111 -2.3308
 1024MOL0     H35131   4.999   9.880  12.156  1.8171  1.1158 -0.8715
 1024MOL0     H35132   4.565   9.940  12.321 -1.7372  1.7161 -2.0852
 1024MOL0     H35133   4.348   9.933  12.266  0.4689  0.3679 -0.2703
 1024MOL0     H35134   4.190   9.925  12.018 -1.5244 -0.6104 -1.5580
 1024MOL0     H35135   4.134   9.914  12.181 -0.2228 -0.9776  0.6902
 1024MOL0     H35136   3.981   9.731  12.087 -0.2848  0.5665  0.0744
 1024MOL0     H35137   4.021   9.775  11.926 -2.4954  0.3884  0.3975
 1024MOL0     H35138   3.971  10.014  11.990  2.3703  0.8895  2.1595
 1024MOL0     H35139   3.907   9.943  12.138  0.4393 -1.4586  0.9676
 1024MOL0     H35140   3.810   9.902  11.832 -2.7458 -0.0108 -0.2547
 1024MOL0     H35141   3.758   9.804  11.971  0.1874  0.0816  0.1784
 1024MOL0     H35142   3.723  10.111  11.981 -0.2965 -0.1744 -0.5085
 1024MOL0     H35143   3.646   9.978  12.071  0.1831  0.4962 -0.5093
 1024MOL0     H35144   3.536   9.900  11.871 -2.1501  0.1799 -1.1125
 1024MOL0     H35145   3.613  10.028  11.769  1.4587  2.3047  0.3962
 1024MOL0     H35146   3.502  10.199  11.928 -0.4216  0.0092 -0.2512
 1024MOL0     H35147   3.408  10.111  11.808  0.7018  2.1424 -0.2352
 1024MOL0     H35148   3.307  10.127  12.040  0.4913  0.4041  2.2641
 1024MOL0     H35149   3.437  10.027  12.111  1.1306  0.6070 -0.3706
 1024MOL0     H35150   4.415   9.610  12.000 -0.9348 -1.4823  1.8407
 1024MOL0     H35151   4.646   9.615  12.041 -0.9041 -3.1097  0.5941
 1024MOL0     H35152   4.983   9.469  12.280 -1.4511  1.4831  1.5981
 1024MOL0     H35153   5.229   9.444  12.221 -1.3449 -0.8147 -1.7749
 1024MOL0     H35154   6.904  10.369  11.488  0.7122 -1.1975  0.5565
 1024MOL0     H35155   7.137  10.364  11.382  1.4758 -3.1337 -2.1270
 1024MOL0     H35156   7.444  10.300  11.087 -0.7141 -1.9484 -3.8975
 1024MOL0     H35157   7.687  10.339  11.016 -0.7281  0.0995  0.3529
 1024MOL0     H35158   7.777  10.339  10.796  0.8144 -1.3619 -0.9567
 1024MOL0     H35159   7.918  10.425  10.863 -1.1434 -0.7239  3.0054
 1024MOL0     H35160   7.945  10.548  10.651 -0.8298  0.1065  1.5016
 1024MOL0     H35161   7.938  10.371  10.610  0.4616  0.0643 -0.1549
 1024MOL0     H35162   7.706  10.573  10.583  2.6272  2.4272 -0.4006
 1024MOL0     H35163   7.696  10.400  10.540 -1.9339  1.2953 -0.9026
 1024MOL0     H35164   7.918  10.557  10.417  0.0290  0.0128  0.4050
 1024MOL0     H35165   7.831  10.412  10.356 -1.7676  1.1928 -2.1702
 1024MOL0     H35166   7.616  10.691  10.183  1.4678  0.4862 -1.4950
 1024MOL0     H35167   7.556  10.705  10.823  0.9577 -0.6903 -1.2278
 1024MOL0     H35168   7.335  10.685  10.928 -1.2807 -1.1220 -2.6894
  11.27033  11.27033  11.27033
